Protein in INSANE! Membrane UpperLeaflet>POPC=1.0 LowerLeaflet>POPC=1.0
248776
    1AU     AUC    1   7.495  36.215   7.516
    1AU     AUC    2   7.744  36.207   7.349
    1AU     AUC    3   7.752  36.220   7.671
    1AU     AUC    4   7.230  36.199   7.368
    1AU     AUC    5   7.242  36.235   7.685
    1AU     AUC    6   7.342  36.469   7.495
    1AU     AUC    7   7.660  36.471   7.492
    1AU     AUC    8   7.336  35.958   7.544
    1AU     AUC    9   7.650  35.956   7.526
    1AU     AUC   10   7.500  36.078   7.787
    1AU     AUC   11   7.509  36.397   7.761
    1AU     AUC   12   7.487  36.038   7.269
    1AU     AUC   13   7.487  36.353   7.245
    1AU     AUC   14   7.998  36.213   7.182
    1AU     AUC   15   8.002  36.206   7.505
    1AU     AUC   16   8.007  36.206   7.830
    1AU     AUC   17   6.972  36.165   7.217
    1AU     AUC   18   6.970  36.214   7.539
    1AU     AUC   19   6.999  36.270   7.856
    1AU     AUC   20   7.186  36.722   7.462
    1AU     AUC   21   7.526  36.729   7.457
    1AU     AUC   22   7.841  36.726   7.468
    1AU     AUC   23   7.184  35.699   7.576
    1AU     AUC   24   7.500  35.696   7.542
    1AU     AUC   25   7.817  35.698   7.533
    1AU     AUC   26   7.504  35.942   8.056
    1AU     AUC   27   7.507  36.266   8.047
    1AU     AUC   28   7.534  36.585   8.004
    1AU     AUC   29   7.497  35.867   7.021
    1AU     AUC   30   7.476  36.177   6.994
    1AU     AUC   31   7.474  36.487   6.975
    1AU     AUC   32   7.752  36.069   7.947
    1AU     AUC   33   7.777  36.392   7.926
    1AU     AUC   34   7.756  36.047   7.089
    1AU     AUC   35   7.739  36.361   7.073
    1AU     AUC   36   7.249  36.108   7.966
    1AU     AUC   37   7.254  36.434   7.931
    1AU     AUC   38   7.222  36.006   7.122
    1AU     AUC   39   7.213  36.324   7.085
    1AU     AUC   40   7.921  36.464   7.332
    1AU     AUC   41   7.924  36.480   7.656
    1AU     AUC   42   7.066  36.461   7.333
    1AU     AUC   43   7.082  36.508   7.658
    1AU     AUC   44   7.900  35.939   7.351
    1AU     AUC   45   7.911  35.950   7.683
    1AU     AUC   46   7.062  35.932   7.406
    1AU     AUC   47   7.082  35.971   7.732
    1AU     AUC   48   7.359  36.655   7.749
    1AU     AUC   49   7.699  36.655   7.737
    1AU     AUC   50   7.343  35.815   7.821
    1AU     AUC   51   7.659  35.806   7.798
    1AU     AUC   52   7.322  36.614   7.220
    1AU     AUC   53   7.661  36.622   7.219
    1AU     AUC   54   7.329  35.768   7.290
    1AU     AUC   55   7.663  35.783   7.267
    1AU    AUSL   56   7.924  36.175   8.142
    1AU    AUSL   57   7.808  35.828   8.131
    1AU     AUL   58   8.193  35.987   8.266
    1AU    AUSL   59   7.608  36.092   8.275
    1AU    AUSL   60   7.392  36.458   8.259
    1AU     AUL   61   7.653  36.370   8.551
    1AU    AUSL   62   7.729  36.467   8.217
    1AU    AUSL   63   8.081  36.455   7.996
    1AU     AUL   64   8.059  36.382   8.392
    1AU    AUSL   65   7.914  36.266   6.874
    1AU    AUSL   66   7.792  36.609   6.894
    1AU     AUL   67   8.171  36.437   6.737
    1AU    AUSL   68   7.700  36.019   6.789
    1AU    AUSL   69   8.064  35.970   7.012
    1AU     AUL   70   8.051  36.029   6.634
    1AU    AUSL   71   7.569  36.330   6.758
    1AU    AUSL   72   7.359  35.989   6.803
    1AU     AUL   73   7.581  35.893   6.548
    1AU    AUSL   74   7.073  36.387   8.148
    1AU    AUSL   75   7.247  36.722   8.024
    1AU     AUL   76   7.229  36.751   8.356
    1AU    AUSL   77   7.260  36.121   8.250
    1AU    AUSL   78   7.000  35.995   8.038
    1AU     AUL   79   6.803  36.188   8.187
    1AU    AUSL   80   7.041  36.041   6.903
    1AU    AUSL   81   7.188  35.727   7.011
    1AU     AUL   82   7.266  35.693   6.683
    1AU    AUSL   83   7.219  36.313   6.805
    1AU    AUSL   84   6.944  36.439   7.033
    1AU     AUL   85   6.782  36.216   6.881
    1AU    AUSL   86   8.158  36.640   7.416
    1AU    AUSL   87   8.064  36.494   7.092
    1AU     AUL   88   8.396  36.424   7.047
    1AU    AUSL   89   8.258  36.317   7.343
    1AU    AUSL   90   8.245  36.064   7.659
    1AU     AUL   91   8.570  36.155   7.502
    1AU    AUSL   92   8.141  36.395   7.657
    1AU    AUSL   93   8.042  36.745   7.733
    1AU     AUL   94   8.360  36.455   7.772
    1AU    AUSL   95   6.898  36.692   7.482
    1AU    AUSL   96   6.928  36.583   7.908
    1AU     AUL   97   6.606  36.732   7.680
    1AU    AUSL   98   6.773  36.341   7.310
    1AU    AUSL   99   7.029  36.756   7.167
    1AU     AUL  100   6.656  36.649   7.200
    1AU    AUSL  101   6.766  36.391   7.682
    1AU    AUSL  102   6.726  36.034   7.434
    1AU     AUL  103   6.479  36.397   7.472
    1AU    AUSL  104   8.115  35.753   7.582
    1AU    AUSL  105   8.065  35.926   7.923
    1AU     AUL  106   8.406  35.977   7.901
    1AU    AUSL  107   8.115  36.003   7.348
    1AU    AUSL  108   8.001  35.676   7.240
    1AU     AUL  109   8.347  35.929   7.250
    1AU    AUSL  110   6.890  35.765   7.606
    1AU    AUSL  111   6.887  35.886   7.163
    1AU     AUL  112   6.681  35.644   7.383
    1AU    AUSL  113   6.779  36.066   7.781
    1AU    AUSL  114   7.068  35.679   7.899
    1AU     AUL  115   6.756  35.735   7.927
    1AU    AUSL  116   7.549  36.891   7.912
    1AU    AUSL  117   7.087  36.858   7.735
    1AU     AUL  118   7.291  37.092   8.001
    1AU    AUSL  119   7.402  36.836   7.598
    1AU    AUSL  120   7.640  36.972   7.306
    1AU     AUL  121   7.379  37.151   7.596
    1AU    AUSL  122   7.761  36.947   7.623
    1AU    AUSL  123   7.830  36.705   8.006
    1AU     AUL  124   7.879  37.030   7.946
    1AU    AUSL  125   7.540  35.626   7.976
    1AU    AUSL  126   7.880  35.634   7.841
    1AU     AUL  127   7.670  35.545   8.253
    1AU    AUSL  128   7.306  35.502   7.745
    1AU    AUSL  129   7.288  35.794   8.149
    1AU     AUL  130   7.265  35.414   8.087
    1AU    AUSL  131   7.626  35.469   7.665
    1AU    AUSL  132   7.362  35.473   7.396
    1AU     AUL  133   7.164  35.280   7.590
    1AU    AUSL  134   7.502  36.774   7.053
    1AU    AUSL  135   7.911  36.790   7.199
    1AU     AUL  136   7.699  36.954   6.898
    1AU    AUSL  137   7.289  36.945   7.287
    1AU    AUSL  138   7.222  36.630   6.905
    1AU     AUL  139   7.275  36.957   6.903
    1AU    AUSL  140   7.491  35.571   7.085
    1AU    AUSL  141   7.044  35.604   7.315
    1AU     AUL  142   7.202  35.353   7.078
    1AU    AUSL  143   7.724  35.503   7.341
    1AU    AUSL  144   7.783  35.756   6.979
    1AU     AUL  145   7.767  35.456   6.949
    1AU       S  146   8.162  35.455   8.277
    1AU     LIG  147   8.175  34.971   8.297
    1AU     LIG  148   8.114  34.555   8.487
    1AU     LIG  149   8.231  34.165   8.715
    1AU       S  150   7.899  35.916   8.676
    1AU     LIG  151   8.045  36.152   9.064
    1AU     LIG  152   8.257  36.225   9.481
    1AU     LIG  153   8.426  36.125   9.912
    1AU       S  154   7.561  35.876   8.665
    1AU     LIG  155   7.529  35.974   9.112
    1AU     LIG  156   7.817  35.934   9.491
    1AU     LIG  157   8.134  35.714   9.766
    1AU       S  158   7.176  36.386   8.724
    1AU     LIG  159   7.121  36.309   9.151
    1AU     LIG  160   6.781  36.334   9.420
    1AU     LIG  161   6.632  36.399   9.838
    1AU       S  162   7.772  36.870   8.504
    1AU     LIG  163   7.990  37.107   8.825
    1AU     LIG  164   8.321  36.983   9.091
    1AU     LIG  165   8.521  36.574   9.124
    1AU       S  166   8.411  36.729   8.200
    1AU     LIG  167   8.577  36.820   8.639
    1AU     LIG  168   8.785  37.119   8.921
    1AU     LIG  169   9.092  37.451   9.066
    1AU       S  170   7.857  36.490   6.350
    1AU     LIG  171   8.215  36.343   6.073
    1AU     LIG  172   8.431  35.962   5.958
    1AU     LIG  173   8.308  35.613   5.688
    1AU       S  174   8.164  36.953   6.722
    1AU     LIG  175   8.233  37.280   6.412
    1AU     LIG  176   8.369  37.516   6.053
    1AU     LIG  177   8.761  37.665   5.904
    1AU       S  178   8.391  35.662   6.823
    1AU     LIG  179   8.628  35.631   6.427
    1AU     LIG  180   8.823  35.236   6.313
    1AU     LIG  181   8.811  34.813   6.502
    1AU       S  182   7.739  36.262   6.262
    1AU     LIG  183   7.883  35.923   5.997
    1AU     LIG  184   7.792  35.690   5.621
    1AU     LIG  185   7.816  35.788   5.177
    1AU       S  186   7.157  36.086   6.329
    1AU     LIG  187   7.323  35.889   5.939
    1AU     LIG  188   7.305  35.777   5.495
    1AU     LIG  189   6.958  35.778   5.194
    1AU       S  190   7.553  36.473   6.384
    1AU     LIG  191   7.351  36.399   5.957
    1AU     LIG  192   7.616  36.191   5.627
    1AU     LIG  193   8.085  36.112   5.562
    1AU       S  194   6.923  36.421   8.612
    1AU     LIG  195   6.647  36.287   8.903
    1AU     LIG  196   6.508  35.968   9.177
    1AU     LIG  197   6.519  35.936   9.626
    1AU       S  198   6.811  37.021   8.184
    1AU     LIG  199   6.516  37.144   8.506
    1AU     LIG  200   6.499  37.038   8.950
    1AU     LIG  201   6.513  37.370   9.281
    1AU       S  202   6.812  35.759   8.456
    1AU     LIG  203   6.331  35.722   8.299
    1AU     LIG  204   5.989  35.430   8.134
    1AU     LIG  205   5.734  35.085   8.355
    1AU       S  206   7.117  36.135   8.635
    1AU     LIG  207   6.967  35.871   8.949
    1AU     LIG  208   6.978  35.841   9.379
    1AU     LIG  209   7.028  36.037   9.777
    1AU       S  210   6.904  36.004   6.446
    1AU     LIG  211   6.815  35.733   6.114
    1AU     LIG  212   6.839  35.891   5.692
    1AU     LIG  213   6.610  36.144   5.394
    1AU       S  214   6.790  35.536   6.739
    1AU     LIG  215   6.561  35.210   6.466
    1AU     LIG  216   6.424  35.166   6.015
    1AU     LIG  217   6.063  34.961   5.783
    1AU       S  218   6.686  36.643   6.653
    1AU     LIG  219   6.315  36.941   6.731
    1AU     LIG  220   6.080  37.287   6.539
    1AU     LIG  221   6.166  37.439   6.116
    1AU       S  222   7.074  36.335   6.434
    1AU     LIG  223   6.809  36.474   6.140
    1AU     LIG  224   6.876  36.463   5.702
    1AU     LIG  225   7.133  36.244   5.400
    1AU       S  226   8.351  36.918   6.936
    1AU     LIG  227   8.661  37.089   6.630
    1AU     LIG  228   8.774  37.219   6.199
    1AU     LIG  229   9.131  37.284   5.906
    1AU       S  230   8.468  36.917   7.431
    1AU     LIG  231   8.813  37.210   7.658
    1AU     LIG  232   9.268  37.154   7.603
    1AU     LIG  233   9.631  36.978   7.340
    1AU       S  234   8.692  36.661   7.367
    1AU     LIG  235   9.118  36.773   7.283
    1AU     LIG  236   9.474  36.549   7.139
    1AU     LIG  237   9.921  36.529   7.135
    1AU       S  238   8.607  35.605   7.634
    1AU     LIG  239   8.928  35.510   7.905
    1AU     LIG  240   9.367  35.532   7.932
    1AU     LIG  241   9.692  35.341   7.714
    1AU       S  242   8.392  36.954   7.961
    1AU     LIG  243   8.756  37.135   8.217
    1AU     LIG  244   8.848  37.481   8.566
    1AU     LIG  245   8.759  37.810   8.914
    1AU       S  246   8.648  36.771   7.560
    1AU     LIG  247   9.024  36.732   7.794
    1AU     LIG  248   9.462  36.653   7.702
    1AU     LIG  249   9.911  36.653   7.640
    1AU       S  250   6.685  36.754   8.208
    1AU     LIG  251   6.348  36.663   8.486
    1AU     LIG  252   5.984  36.930   8.516
    1AU     LIG  253   5.683  37.243   8.651
    1AU       S  254   6.772  37.162   7.402
    1AU     LIG  255   6.588  37.519   7.210
    1AU     LIG  256   6.206  37.479   7.001
    1AU     LIG  257   5.887  37.103   7.004
    1AU       S  258   6.329  36.094   7.085
    1AU     LIG  259   5.893  36.130   7.016
    1AU     LIG  260   5.687  36.496   7.140
    1AU     LIG  261   5.583  36.852   7.410
    1AU       S  262   6.783  37.059   6.904
    1AU     LIG  263   6.600  37.364   6.627
    1AU     LIG  264   6.381  37.719   6.486
    1AU     LIG  265   6.100  37.962   6.189
    1AU       S  266   6.290  35.922   7.564
    1AU     LIG  267   5.949  35.727   7.350
    1AU     LIG  268   5.543  35.918   7.335
    1AU     LIG  269   5.321  36.126   6.989
    1AU       S  270   6.357  36.417   8.004
    1AU     LIG  271   5.914  36.487   8.198
    1AU     LIG  272   5.553  36.811   8.193
    1AU     LIG  273   5.524  37.243   7.959
    1AU       S  274   8.351  35.418   7.552
    1AU     LIG  275   8.635  35.058   7.532
    1AU     LIG  276   9.061  35.042   7.729
    1AU     LIG  277   9.419  35.014   8.010
    1AU       S  278   8.342  35.495   8.062
    1AU     LIG  279   8.609  35.126   8.035
    1AU     LIG  280   8.959  34.961   8.249
    1AU     LIG  281   9.062  34.813   8.681
    1AU       S  282   8.563  35.530   7.409
    1AU     LIG  283   8.948  35.349   7.267
    1AU     LIG  284   9.363  35.283   7.343
    1AU     LIG  285   9.690  35.296   7.029
    1AU       S  286   8.279  35.418   7.030
    1AU     LIG  287   8.575  35.051   7.022
    1AU     LIG  288   8.476  34.640   6.854
    1AU     LIG  289   8.584  34.356   6.475
    1AU       S  290   6.606  35.696   6.872
    1AU     LIG  291   6.320  35.648   6.516
    1AU     LIG  292   6.036  35.323   6.322
    1AU     LIG  293   5.664  35.070   6.153
    1AU       S  294   6.308  35.710   7.720
    1AU     LIG  295   6.127  35.311   7.642
    1AU     LIG  296   5.882  35.182   7.281
    1AU     LIG  297   5.494  35.397   7.241
    1AU       S  298   6.846  35.505   8.358
    1AU     LIG  299   6.509  35.261   8.147
    1AU     LIG  300   6.223  34.961   8.071
    1AU     LIG  301   6.106  34.711   8.421
    1AU       S  302   6.323  35.975   7.802
    1AU     LIG  303   5.891  35.948   7.874
    1AU     LIG  304   5.668  35.601   7.752
    1AU     LIG  305   5.452  35.418   8.079
    1AU       S  306   6.798  37.176   7.896
    1AU     LIG  307   6.413  37.409   8.025
    1AU     LIG  308   6.101  37.421   8.373
    1AU     LIG  309   6.151  37.387   8.836
    1AU       S  310   7.654  37.467   7.885
    1AU     LIG  311   7.810  37.806   8.089
    1AU     LIG  312   7.640  38.134   8.313
    1AU     LIG  313   7.366  38.441   8.488
    1AU       S  314   7.616  37.661   7.617
    1AU     LIG  315   7.230  37.754   7.858
    1AU     LIG  316   7.158  38.103   8.122
    1AU     LIG  317   7.376  38.449   7.958
    1AU       S  318   7.632  37.381   7.191
    1AU     LIG  319   7.880  37.758   7.183
    1AU     LIG  320   7.704  38.157   7.327
    1AU     LIG  321   7.681  38.530   7.085
    1AU       S  322   8.223  36.898   8.279
    1AU     LIG  323   8.356  37.264   8.504
    1AU     LIG  324   8.391  37.458   8.899
    1AU     LIG  325   8.624  37.468   9.297
    1AU       S  326   7.877  37.420   7.611
    1AU     LIG  327   8.052  37.895   7.644
    1AU     LIG  328   7.852  38.273   7.850
    1AU     LIG  329   7.787  38.610   8.196
    1AU       S  330   7.702  35.090   8.035
    1AU     LIG  331   7.699  34.649   8.155
    1AU     LIG  332   7.462  34.365   8.438
    1AU     LIG  333   7.694  34.023   8.627
    1AU       S  334   8.121  35.359   7.980
    1AU     LIG  335   8.206  34.962   7.778
    1AU     LIG  336   8.188  34.576   7.960
    1AU     LIG  337   8.234  34.180   8.171
    1AU       S  338   7.484  34.997   7.858
    1AU     LIG  339   7.325  34.590   7.726
    1AU     LIG  340   7.165  34.313   8.012
    1AU     LIG  341   6.921  34.261   8.379
    1AU       S  342   7.094  35.649   8.521
    1AU     LIG  343   6.778  35.390   8.824
    1AU     LIG  344   6.456  35.048   8.694
    1AU     LIG  345   6.198  34.724   8.928
    1AU       S  346   7.524  35.008   7.348
    1AU     LIG  347   7.314  34.651   7.189
    1AU     LIG  348   7.586  34.393   6.914
    1AU     LIG  349   7.830  34.007   7.010
    1AU       S  350   7.731  35.102   7.789
    1AU     LIG  351   7.815  34.676   7.606
    1AU     LIG  352   7.807  34.293   7.808
    1AU     LIG  353   7.725  34.080   8.129
    1AU       S  354   7.472  37.403   6.998
    1AU     LIG  355   7.461  37.845   6.912
    1AU     LIG  356   7.784  38.125   6.804
    1AU     LIG  357   7.894  38.510   6.609
    1AU       S  358   8.169  37.101   7.068
    1AU     LIG  359   8.386  37.470   6.865
    1AU     LIG  360   8.641  37.638   6.494
    1AU     LIG  361   9.086  37.657   6.302
    1AU       S  362   7.228  37.402   7.178
    1AU     LIG  363   6.997  37.830   7.126
    1AU     LIG  364   7.149  38.280   7.046
    1AU     LIG  365   7.359  38.533   6.705
    1AU       S  366   6.898  36.799   6.610
    1AU     LIG  367   6.612  36.965   6.285
    1AU     LIG  368   6.660  37.319   6.051
    1AU     LIG  369   6.586  37.741   5.991
    1AU       S  370   6.705  35.395   6.951
    1AU     LIG  371   6.264  35.290   6.913
    1AU     LIG  372   6.086  34.962   6.682
    1AU     LIG  373   6.154  34.815   6.279
    1AU       S  374   7.633  35.017   7.126
    1AU     LIG  375   7.897  34.822   6.803
    1AU     LIG  376   7.736  34.559   6.450
    1AU     LIG  377   7.756  34.095   6.457
    1AU       S  378   7.853  35.114   7.323
    1AU     LIG  379   8.153  34.870   7.264
    1AU     LIG  380   8.055  34.456   7.153
    1AU     LIG  381   8.095  34.340   6.720
    1AU       S  382   8.200  35.517   6.722
    1AU     LIG  383   8.369  35.132   6.565
    1AU     LIG  384   8.239  34.736   6.400
    1AU     LIG  385   8.117  34.373   6.154
    2AU     AUC  386   9.420   7.342   7.527
    2AU     AUC  387   9.671   7.326   7.361
    2AU     AUC  388   9.676   7.341   7.684
    2AU     AUC  389   9.157   7.335   7.376
    2AU     AUC  390   9.166   7.370   7.693
    2AU     AUC  391   9.275   7.601   7.505
    2AU     AUC  392   9.593   7.593   7.504
    2AU     AUC  393   9.255   7.089   7.553
    2AU     AUC  394   9.570   7.079   7.540
    2AU     AUC  395   9.417   7.205   7.798
    2AU     AUC  396   9.436   7.524   7.772
    2AU     AUC  397   9.411   7.163   7.280
    2AU     AUC  398   9.418   7.479   7.256
    2AU     AUC  399   9.925   7.323   7.197
    2AU     AUC  400   9.927   7.318   7.519
    2AU     AUC  401   9.930   7.322   7.844
    2AU     AUC  402   8.898   7.318   7.223
    2AU     AUC  403   8.899   7.367   7.545
    2AU     AUC  404   8.919   7.408   7.861
    2AU     AUC  405   9.128   7.860   7.472
    2AU     AUC  406   9.467   7.855   7.468
    2AU     AUC  407   9.780   7.845   7.479
    2AU     AUC  408   9.089   6.838   7.581
    2AU     AUC  409   9.416   6.822   7.557
    2AU     AUC  410   9.729   6.815   7.553
    2AU     AUC  411   9.415   7.067   8.069
    2AU     AUC  412   9.427   7.392   8.057
    2AU     AUC  413   9.463   7.711   8.015
    2AU     AUC  414   9.418   6.989   7.032
    2AU     AUC  415   9.401   7.299   7.006
    2AU     AUC  416   9.410   7.612   6.987
    2AU     AUC  417   9.669   7.191   7.961
    2AU     AUC  418   9.704   7.513   7.938
    2AU     AUC  419   9.680   7.163   7.101
    2AU     AUC  420   9.669   7.479   7.086
    2AU     AUC  421   9.164   7.241   7.971
    2AU     AUC  422   9.179   7.566   7.940
    2AU     AUC  423   9.146   7.137   7.131
    2AU     AUC  424   9.143   7.460   7.096
    2AU     AUC  425   9.853   7.578   7.343
    2AU     AUC  426   9.854   7.597   7.668
    2AU     AUC  427   9.000   7.607   7.339
    2AU     AUC  428   9.013   7.649   7.667
    2AU     AUC  429   9.821   7.054   7.367
    2AU     AUC  430   9.828   7.068   7.699
    2AU     AUC  431   8.986   7.074   7.413
    2AU     AUC  432   8.989   7.108   7.728
    2AU     AUC  433   9.293   7.785   7.761
    2AU     AUC  434   9.633   7.777   7.749
    2AU     AUC  435   9.251   6.948   7.828
    2AU     AUC  436   9.570   6.928   7.815
    2AU     AUC  437   9.262   7.746   7.230
    2AU     AUC  438   9.600   7.744   7.230
    2AU     AUC  439   9.249   6.897   7.304
    2AU     AUC  440   9.585   6.903   7.283
    2AU    AUSL  441   9.844   7.296   8.156
    2AU    AUSL  442   9.719   6.953   8.147
    2AU     AUL  443  10.111   7.106   8.277
    2AU    AUSL  444   9.524   7.220   8.289
    2AU    AUSL  445   9.315   7.584   8.270
    2AU     AUL  446   9.576   7.500   8.563
    2AU    AUSL  447   9.651   7.592   8.228
    2AU    AUSL  448  10.011   7.570   8.008
    2AU     AUL  449   9.980   7.504   8.405
    2AU    AUSL  450   9.838   7.375   6.889
    2AU    AUSL  451   9.729   7.726   6.904
    2AU     AUL  452  10.099   7.536   6.746
    2AU    AUSL  453   9.617   7.133   6.799
    2AU    AUSL  454   9.990   7.079   7.029
    2AU     AUL  455   9.976   7.142   6.651
    2AU    AUSL  456   9.497   7.447   6.774
    2AU    AUSL  457   9.270   7.109   6.815
    2AU     AUL  458   9.481   6.989   6.576
    2AU    AUSL  459   8.994   7.521   8.156
    2AU    AUSL  460   9.178   7.851   8.037
    2AU     AUL  461   9.150   7.879   8.367
    2AU    AUSL  462   9.176   7.248   8.256
    2AU    AUSL  463   8.911   7.135   8.040
    2AU     AUL  464   8.723   7.329   8.198
    2AU    AUSL  465   8.953   7.188   6.915
    2AU    AUSL  466   9.112   6.847   7.026
    2AU     AUL  467   9.069   6.852   6.678
    2AU    AUSL  468   9.147   7.444   6.820
    2AU    AUSL  469   8.871   7.583   7.032
    2AU     AUL  470   8.692   7.326   6.893
    2AU    AUSL  471  10.091   7.747   7.425
    2AU    AUSL  472   9.998   7.602   7.101
    2AU     AUL  473  10.326   7.513   7.060
    2AU    AUSL  474  10.184   7.423   7.359
    2AU    AUSL  475  10.167   7.174   7.675
    2AU     AUL  476  10.498   7.260   7.515
    2AU    AUSL  477  10.068   7.507   7.671
    2AU    AUSL  478   9.979   7.859   7.744
    2AU     AUL  479  10.294   7.563   7.778
    2AU    AUSL  480   8.844   7.848   7.493
    2AU    AUSL  481   8.857   7.723   7.913
    2AU     AUL  482   8.539   7.875   7.676
    2AU    AUSL  483   8.697   7.534   7.317
    2AU    AUSL  484   8.978   7.898   7.174
    2AU     AUL  485   8.610   7.842   7.213
    2AU    AUSL  486   8.690   7.535   7.688
    2AU    AUSL  487   8.674   7.221   7.436
    2AU     AUL  488   8.391   7.506   7.480
    2AU    AUSL  489  10.024   6.866   7.604
    2AU    AUSL  490   9.979   7.042   7.938
    2AU     AUL  491  10.322   7.083   7.921
    2AU    AUSL  492  10.041   7.109   7.364
    2AU    AUSL  493   9.915   6.787   7.258
    2AU     AUL  494  10.274   7.013   7.269
    2AU    AUSL  495   8.761   6.913   7.561
    2AU    AUSL  496   8.832   7.017   7.180
    2AU     AUL  497   8.505   7.104   7.208
    2AU    AUSL  498   8.694   7.206   7.782
    2AU    AUSL  499   8.957   6.822   7.877
    2AU     AUL  500   8.656   6.884   7.930
    2AU    AUSL  501   9.484   8.017   7.927
    2AU    AUSL  502   9.030   7.999   7.751
    2AU     AUL  503   9.228   8.219   8.032
    2AU    AUSL  504   9.342   7.960   7.609
    2AU    AUSL  505   9.591   8.096   7.319
    2AU     AUL  506   9.337   8.272   7.618
    2AU    AUSL  507   9.701   8.068   7.638
    2AU    AUSL  508   9.764   7.825   8.016
    2AU     AUL  509   9.818   8.151   7.954
    2AU    AUSL  510   9.443   6.751   7.996
    2AU    AUSL  511   9.786   6.753   7.864
    2AU     AUL  512   9.573   6.678   8.275
    2AU    AUSL  513   9.213   6.642   7.755
    2AU    AUSL  514   9.181   6.922   8.144
    2AU     AUL  515   9.142   6.547   8.076
    2AU    AUSL  516   9.534   6.585   7.690
    2AU    AUSL  517   9.284   6.601   7.415
    2AU     AUL  518   9.089   6.399   7.605
    2AU    AUSL  519   9.449   7.900   7.065
    2AU    AUSL  520   9.854   7.905   7.207
    2AU     AUL  521   9.651   8.082   6.915
    2AU    AUSL  522   9.240   8.078   7.298
    2AU    AUSL  523   9.165   7.762   6.914
    2AU     AUL  524   9.234   8.084   6.909
    2AU    AUSL  525   9.417   6.700   7.106
    2AU    AUSL  526   8.968   6.732   7.343
    2AU     AUL  527   9.149   6.482   7.106
    2AU    AUSL  528   9.642   6.615   7.368
    2AU    AUSL  529   9.707   6.871   6.988
    2AU     AUL  530   9.682   6.561   6.986
    2AU       S  531  10.065   6.579   8.305
    2AU     LIG  532  10.237   6.123   8.341
    2AU     LIG  533  10.307   5.658   8.407
    2AU     LIG  534  10.694   5.422   8.507
    2AU       S  535   9.821   7.044   8.691
    2AU     LIG  536  10.050   7.231   9.077
    2AU     LIG  537  10.315   7.258   9.477
    2AU     LIG  538  10.590   7.243   9.875
    2AU       S  539   9.478   7.009   8.686
    2AU     LIG  540   9.556   7.027   9.150
    2AU     LIG  541   9.898   6.926   9.485
    2AU     LIG  542  10.212   6.871   9.845
    2AU       S  543   9.098   7.513   8.731
    2AU     LIG  544   9.077   7.429   9.159
    2AU     LIG  545   8.756   7.278   9.437
    2AU     LIG  546   8.501   7.385   9.809
    2AU       S  547   9.700   8.000   8.511
    2AU     LIG  548   9.904   8.232   8.854
    2AU     LIG  549  10.257   8.099   9.083
    2AU     LIG  550  10.424   7.662   9.113
    2AU       S  551  10.344   7.834   8.210
    2AU     LIG  552  10.503   7.945   8.645
    2AU     LIG  553  10.709   8.262   8.893
    2AU     LIG  554  10.921   8.658   9.032
    2AU       S  555   9.784   7.594   6.361
    2AU     LIG  556   9.967   7.562   5.937
    2AU     LIG  557  10.216   7.219   5.750
    2AU     LIG  558  10.184   6.777   5.610
    2AU       S  559  10.109   8.052   6.715
    2AU     LIG  560  10.286   8.349   6.397
    2AU     LIG  561  10.446   8.603   6.042
    2AU     LIG  562  10.612   9.007   5.920
    2AU       S  563  10.301   6.758   6.827
    2AU     LIG  564  10.490   6.570   6.429
    2AU     LIG  565  10.452   6.221   6.140
    2AU     LIG  566  10.478   5.774   6.128
    2AU       S  567   9.649   7.357   6.288
    2AU     LIG  568   9.773   7.075   5.979
    2AU     LIG  569   9.670   6.882   5.598
    2AU     LIG  570   9.825   6.800   5.198
    2AU       S  571   9.118   7.257   6.333
    2AU     LIG  572   9.054   7.270   5.905
    2AU     LIG  573   9.175   7.072   5.525
    2AU     LIG  574   8.927   7.089   5.156
    2AU       S  575   9.501   7.601   6.402
    2AU     LIG  576   9.411   7.630   5.943
    2AU     LIG  577   9.607   7.392   5.604
    2AU     LIG  578   9.947   7.286   5.322
    2AU       S  579   8.844   7.551   8.627
    2AU     LIG  580   8.612   7.313   8.914
    2AU     LIG  581   8.458   6.973   9.131
    2AU     LIG  582   8.344   6.950   9.572
    2AU       S  583   8.738   8.154   8.197
    2AU     LIG  584   8.421   8.384   8.458
    2AU     LIG  585   8.296   8.353   8.906
    2AU     LIG  586   7.957   8.510   9.194
    2AU       S  587   8.720   6.896   8.459
    2AU     LIG  588   8.239   6.804   8.340
    2AU     LIG  589   7.895   6.478   8.374
    2AU     LIG  590   7.768   6.350   8.809
    2AU       S  591   9.038   7.259   8.645
    2AU     LIG  592   8.993   6.960   8.999
    2AU     LIG  593   8.845   6.773   9.403
    2AU     LIG  594   8.790   6.932   9.842
    2AU       S  595   8.835   7.240   6.415
    2AU     LIG  596   8.755   6.888   6.125
    2AU     LIG  597   8.693   6.937   5.678
    2AU     LIG  598   8.682   7.355   5.532
    2AU       S  599   8.713   6.528   6.880
    2AU     LIG  600   8.704   6.142   6.631
    2AU     LIG  601   8.552   6.063   6.223
    2AU     LIG  602   8.173   5.931   5.992
    2AU       S  603   8.632   7.777   6.668
    2AU     LIG  604   8.300   8.124   6.667
    2AU     LIG  605   8.159   8.484   6.398
    2AU     LIG  606   8.102   8.645   5.959
    2AU       S  607   9.018   7.496   6.447
    2AU     LIG  608   8.773   7.685   6.157
    2AU     LIG  609   8.901   7.762   5.761
    2AU     LIG  610   9.164   7.577   5.463
    2AU       S  611  10.298   8.003   6.936
    2AU     LIG  612  10.646   8.071   6.640
    2AU     LIG  613  10.794   8.274   6.245
    2AU     LIG  614  10.974   8.657   6.049
    2AU       S  615  10.397   8.022   7.433
    2AU     LIG  616  10.740   8.350   7.536
    2AU     LIG  617  11.180   8.265   7.611
    2AU     LIG  618  11.617   8.254   7.747
    2AU       S  619  10.618   7.773   7.369
    2AU     LIG  620  11.074   7.826   7.360
    2AU     LIG  621  11.513   8.007   7.301
    2AU     LIG  622  11.959   7.936   7.154
    2AU       S  623  10.517   6.709   7.652
    2AU     LIG  624  10.926   6.604   7.803
    2AU     LIG  625  11.380   6.530   7.884
    2AU     LIG  626  11.590   6.143   8.041
    2AU       S  627  10.326   8.061   7.975
    2AU     LIG  628  10.656   8.260   8.244
    2AU     LIG  629  10.702   8.642   8.540
    2AU     LIG  630  10.644   9.034   8.805
    2AU       S  631  10.570   7.895   7.572
    2AU     LIG  632  10.888   7.920   7.857
    2AU     LIG  633  11.337   7.796   7.799
    2AU     LIG  634  11.726   7.801   7.988
    2AU       S  635   8.598   7.892   8.208
    2AU     LIG  636   8.315   7.904   8.563
    2AU     LIG  637   7.931   8.172   8.607
    2AU     LIG  638   7.613   8.446   8.802
    2AU       S  639   8.734   8.326   7.409
    2AU     LIG  640   8.512   8.746   7.381
    2AU     LIG  641   8.136   8.890   7.143
    2AU     LIG  642   7.885   8.673   6.813
    2AU       S  643   8.233   7.562   6.996
    2AU     LIG  644   7.778   7.431   7.156
    2AU     LIG  645   7.343   7.651   7.175
    2AU     LIG  646   7.281   8.128   7.138
    2AU       S  647   8.750   8.216   6.887
    2AU     LIG  648   8.575   8.603   6.705
    2AU     LIG  649   8.272   8.945   6.613
    2AU     LIG  650   7.929   8.981   6.291
    2AU       S  651   8.205   7.011   7.600
    2AU     LIG  652   7.783   6.907   7.460
    2AU     LIG  653   7.387   7.118   7.325
    2AU     LIG  654   7.090   7.063   6.963
    2AU       S  655   8.283   7.539   7.992
    2AU     LIG  656   7.950   7.787   8.222
    2AU     LIG  657   7.651   8.139   8.177
    2AU     LIG  658   7.521   8.342   7.801
    2AU       S  659  10.235   6.507   7.582
    2AU     LIG  660  10.396   6.072   7.462
    2AU     LIG  661  10.770   5.891   7.638
    2AU     LIG  662  11.093   6.096   7.881
    2AU       S  663  10.247   6.603   8.080
    2AU     LIG  664  10.552   6.269   7.937
    2AU     LIG  665  10.718   5.949   8.216
    2AU     LIG  666  10.654   5.923   8.676
    2AU       S  667  10.427   6.589   7.456
    2AU     LIG  668  10.745   6.388   7.270
    2AU     LIG  669  11.152   6.347   7.419
    2AU     LIG  670  11.593   6.379   7.445
    2AU       S  671  10.195   6.519   7.031
    2AU     LIG  672  10.322   6.137   6.769
    2AU     LIG  673  10.336   5.664   6.648
    2AU     LIG  674  10.464   5.313   6.348
    2AU       S  675   8.564   6.685   6.945
    2AU     LIG  676   8.387   6.546   6.512
    2AU     LIG  677   8.081   6.243   6.380
    2AU     LIG  678   7.795   5.855   6.329
    2AU       S  679   8.318   6.772   7.572
    2AU     LIG  680   8.015   6.605   7.873
    2AU     LIG  681   7.659   6.438   7.705
    2AU     LIG  682   7.334   6.600   7.396
    2AU       S  683   8.729   6.633   8.356
    2AU     LIG  684   8.375   6.344   8.166
    2AU     LIG  685   8.008   6.073   8.039
    2AU     LIG  686   7.770   5.687   8.227
    2AU       S  687   8.227   7.079   7.773
    2AU     LIG  688   7.806   7.114   7.925
    2AU     LIG  689   7.406   6.907   7.824
    2AU     LIG  690   7.296   6.558   8.060
    2AU       S  691   8.738   8.310   7.906
    2AU     LIG  692   8.290   8.451   7.956
    2AU     LIG  693   7.951   8.567   8.266
    2AU     LIG  694   8.017   8.730   8.690
    2AU       S  695   9.591   8.594   7.927
    2AU     LIG  696   9.816   8.807   8.256
    2AU     LIG  697   9.722   9.189   8.500
    2AU     LIG  698   9.487   9.588   8.431
    2AU       S  699   9.532   8.781   7.663
    2AU     LIG  700   9.350   9.067   7.964
    2AU     LIG  701   9.149   9.467   8.065
    2AU     LIG  702   9.158   9.916   7.927
    2AU       S  703   9.571   8.523   7.213
    2AU     LIG  704   9.535   9.006   7.200
    2AU     LIG  705   9.836   9.315   7.035
    2AU     LIG  706  10.196   9.389   6.746
    2AU       S  707  10.156   8.012   8.289
    2AU     LIG  708  10.244   8.392   8.516
    2AU     LIG  709  10.323   8.601   8.910
    2AU     LIG  710  10.502   8.520   9.326
    2AU       S  711   9.808   8.550   7.636
    2AU     LIG  712   9.958   9.012   7.647
    2AU     LIG  713   9.823   9.256   7.993
    2AU     LIG  714   9.956   9.567   8.245
    2AU       S  715   9.580   6.214   8.076
    2AU     LIG  716   9.827   5.826   8.206
    2AU     LIG  717   9.878   5.368   8.370
    2AU     LIG  718   9.814   4.902   8.373
    2AU       S  719  10.013   6.470   8.020
    2AU     LIG  720  10.093   6.080   7.854
    2AU     LIG  721  10.359   5.747   7.915
    2AU     LIG  722  10.762   5.476   7.991
    2AU       S  723   9.381   6.110   7.896
    2AU     LIG  724   9.403   5.637   7.978
    2AU     LIG  725   9.508   5.171   8.029
    2AU     LIG  726   9.323   4.752   8.163
    2AU       S  727   8.994   6.780   8.521
    2AU     LIG  728   8.676   6.585   8.850
    2AU     LIG  729   8.296   6.375   8.689
    2AU     LIG  730   8.042   6.001   8.546
    2AU       S  731   9.445   6.109   7.367
    2AU     LIG  732   9.490   5.642   7.210
    2AU     LIG  733   9.461   5.315   6.893
    2AU     LIG  734   9.697   4.928   6.781
    2AU       S  735   9.621   6.221   7.819
    2AU     LIG  736   9.743   5.793   7.644
    2AU     LIG  737   9.919   5.444   7.875
    2AU     LIG  738   9.982   4.967   7.880
    2AU       S  739   9.425   8.530   7.009
    2AU     LIG  740   9.316   8.874   6.752
    2AU     LIG  741   9.500   9.276   6.624
    2AU     LIG  742   9.871   9.371   6.338
    2AU       S  743  10.133   8.199   7.055
    2AU     LIG  744  10.452   8.496   6.865
    2AU     LIG  745  10.693   8.713   6.508
    2AU     LIG  746  11.042   9.026   6.414
    2AU       S  747   9.194   8.519   7.198
    2AU     LIG  748   8.957   8.879   7.129
    2AU     LIG  749   9.042   9.269   6.927
    2AU     LIG  750   9.120   9.656   6.712
    2AU       S  751   8.848   7.946   6.618
    2AU     LIG  752   8.650   8.214   6.306
    2AU     LIG  753   8.586   8.650   6.155
    2AU     LIG  754   8.411   9.078   6.134
    2AU       S  755   8.621   6.509   7.198
    2AU     LIG  756   8.316   6.219   6.978
    2AU     LIG  757   8.245   5.873   6.686
    2AU     LIG  758   8.347   5.599   6.340
    2AU       S  759   9.521   6.125   7.141
    2AU     LIG  760   9.632   5.897   6.750
    2AU     LIG  761   9.414   5.609   6.465
    2AU     LIG  762   9.453   5.156   6.366
    2AU       S  763   9.771   6.216   7.358
    2AU     LIG  764  10.003   5.945   7.135
    2AU     LIG  765   9.940   5.552   6.973
    2AU     LIG  766   9.872   5.410   6.569
    2AU       S  767  10.092   6.625   6.725
    2AU     LIG  768  10.008   6.315   6.407
    2AU     LIG  769   9.981   5.865   6.335
    2AU     LIG  770  10.050   5.482   6.070
    3AU     AUC  771  22.891   9.659   7.530
    3AU     AUC  772  23.141   9.650   7.362
    3AU     AUC  773  23.148   9.664   7.684
    3AU     AUC  774  22.625   9.645   7.382
    3AU     AUC  775  22.638   9.680   7.699
    3AU     AUC  776  22.740   9.913   7.510
    3AU     AUC  777  23.058   9.914   7.506
    3AU     AUC  778  22.730   9.403   7.557
    3AU     AUC  779  23.046   9.400   7.541
    3AU     AUC  780  22.894   9.522   7.801
    3AU     AUC  781  22.907   9.840   7.775
    3AU     AUC  782  22.882   9.481   7.283
    3AU     AUC  783  22.883   9.796   7.259
    3AU     AUC  784  23.394   9.655   7.196
    3AU     AUC  785  23.399   9.649   7.518
    3AU     AUC  786  23.404   9.651   7.841
    3AU     AUC  787  22.366   9.621   7.234
    3AU     AUC  788  22.368   9.669   7.556
    3AU     AUC  789  22.395   9.714   7.873
    3AU     AUC  790  22.586  10.168   7.480
    3AU     AUC  791  22.925  10.172   7.472
    3AU     AUC  792  23.239  10.172   7.480
    3AU     AUC  793  22.571   9.148   7.585
    3AU     AUC  794  22.895   9.139   7.558
    3AU     AUC  795  23.210   9.140   7.551
    3AU     AUC  796  22.897   9.384   8.072
    3AU     AUC  797  22.904   9.709   8.061
    3AU     AUC  798  22.934  10.026   8.019
    3AU     AUC  799  22.895   9.308   7.034
    3AU     AUC  800  22.870   9.618   7.009
    3AU     AUC  801  22.867   9.929   6.990
    3AU     AUC  802  23.147   9.512   7.961
    3AU     AUC  803  23.176   9.835   7.938
    3AU     AUC  804  23.152   9.488   7.102
    3AU     AUC  805  23.132   9.803   7.086
    3AU     AUC  806  22.643   9.552   7.980
    3AU     AUC  807  22.652   9.876   7.947
    3AU     AUC  808  22.617   9.450   7.137
    3AU     AUC  809  22.607   9.770   7.100
    3AU     AUC  810  23.316   9.908   7.342
    3AU     AUC  811  23.322   9.925   7.666
    3AU     AUC  812  22.464   9.912   7.348
    3AU     AUC  813  22.480   9.956   7.676
    3AU     AUC  814  23.297   9.383   7.367
    3AU     AUC  815  23.305   9.395   7.698
    3AU     AUC  816  22.455   9.382   7.421
    3AU     AUC  817  22.470   9.417   7.739
    3AU     AUC  818  22.758  10.097   7.766
    3AU     AUC  819  23.098  10.097   7.750
    3AU     AUC  820  22.736   9.261   7.832
    3AU     AUC  821  23.050   9.248   7.814
    3AU     AUC  822  22.719  10.059   7.236
    3AU     AUC  823  23.056  10.065   7.233
    3AU     AUC  824  22.725   9.213   7.306
    3AU     AUC  825  23.062   9.226   7.283
    3AU    AUSL  826  23.323   9.620   8.154
    3AU    AUSL  827  23.201   9.272   8.145
    3AU     AUL  828  23.588   9.430   8.277
    3AU    AUSL  829  23.006   9.538   8.291
    3AU    AUSL  830  22.794   9.900   8.276
    3AU     AUL  831  23.053   9.818   8.567
    3AU    AUSL  832  23.130   9.911   8.232
    3AU    AUSL  833  23.485   9.897   8.003
    3AU     AUL  834  23.466   9.828   8.399
    3AU    AUSL  835  23.304   9.704   6.889
    3AU    AUSL  836  23.180  10.049   6.905
    3AU     AUL  837  23.564   9.859   6.750
    3AU    AUSL  838  23.092   9.456   6.799
    3AU    AUSL  839  23.466   9.412   7.031
    3AU     AUL  840  23.449   9.463   6.654
    3AU    AUSL  841  22.959   9.768   6.772
    3AU    AUSL  842  22.748   9.429   6.819
    3AU     AUL  843  22.955   9.332   6.557
    3AU    AUSL  844  22.473   9.836   8.165
    3AU    AUSL  845  22.646  10.158   8.042
    3AU     AUL  846  22.638  10.200   8.371
    3AU    AUSL  847  22.657   9.565   8.264
    3AU    AUSL  848  22.390   9.440   8.059
    3AU     AUL  849  22.203   9.644   8.207
    3AU    AUSL  850  22.429   9.489   6.917
    3AU    AUSL  851  22.589   9.164   7.029
    3AU     AUL  852  22.595   9.157   6.680
    3AU    AUSL  853  22.610   9.756   6.825
    3AU    AUSL  854  22.333   9.883   7.041
    3AU     AUL  855  22.164   9.621   6.911
    3AU    AUSL  856  23.553  10.087   7.421
    3AU    AUSL  857  23.457   9.936   7.098
    3AU     AUL  858  23.798   9.884   7.062
    3AU    AUSL  859  23.653   9.762   7.351
    3AU    AUSL  860  23.644   9.511   7.676
    3AU     AUL  861  23.968   9.605   7.509
    3AU    AUSL  862  23.536   9.842   7.665
    3AU    AUSL  863  23.441  10.192   7.742
    3AU     AUL  864  23.762   9.902   7.766
    3AU    AUSL  865  22.303  10.148   7.503
    3AU    AUSL  866  22.328  10.031   7.924
    3AU     AUL  867  22.008  10.181   7.697
    3AU    AUSL  868  22.168   9.827   7.331
    3AU    AUSL  869  22.430  10.200   7.183
    3AU     AUL  870  22.060  10.123   7.224
    3AU    AUSL  871  22.162   9.834   7.706
    3AU    AUSL  872  22.129   9.518   7.452
    3AU     AUL  873  21.868   9.837   7.503
    3AU    AUSL  874  23.507   9.199   7.603
    3AU    AUSL  875  23.457   9.368   7.935
    3AU     AUL  876  23.796   9.422   7.925
    3AU    AUSL  877  23.517   9.446   7.366
    3AU    AUSL  878  23.398   9.119   7.260
    3AU     AUL  879  23.751   9.355   7.274
    3AU    AUSL  880  22.244   9.209   7.585
    3AU    AUSL  881  22.293   9.332   7.184
    3AU     AUL  882  21.955   9.287   7.291
    3AU    AUSL  883  22.178   9.502   7.798
    3AU    AUSL  884  22.458   9.141   7.890
    3AU     AUL  885  22.168   9.147   7.930
    3AU    AUSL  886  22.944  10.330   7.929
    3AU    AUSL  887  22.493  10.308   7.758
    3AU     AUL  888  22.697  10.520   8.054
    3AU    AUSL  889  22.803  10.272   7.612
    3AU    AUSL  890  23.038  10.417   7.326
    3AU     AUL  891  22.777  10.582   7.625
    3AU    AUSL  892  23.157  10.393   7.643
    3AU    AUSL  893  23.231  10.144   8.015
    3AU     AUL  894  23.268  10.470   7.968
    3AU    AUSL  895  22.925   9.065   7.994
    3AU    AUSL  896  23.267   9.077   7.858
    3AU     AUL  897  23.059   8.994   8.271
    3AU    AUSL  898  22.693   8.945   7.757
    3AU    AUSL  899  22.674   9.238   8.158
    3AU     AUL  900  22.623   8.865   8.091
    3AU    AUSL  901  23.016   8.906   7.684
    3AU    AUSL  902  22.765   8.922   7.412
    3AU     AUL  903  22.572   8.712   7.588
    3AU    AUSL  904  22.896  10.217   7.075
    3AU    AUSL  905  23.302  10.233   7.206
    3AU     AUL  906  23.075  10.401   6.918
    3AU    AUSL  907  22.686  10.392   7.308
    3AU    AUSL  908  22.619  10.076   6.918
    3AU     AUL  909  22.673  10.411   6.927
    3AU    AUSL  910  22.898   9.018   7.103
    3AU    AUSL  911  22.441   9.045   7.339
    3AU     AUL  912  22.630   8.794   7.102
    3AU    AUSL  913  23.126   8.941   7.365
    3AU    AUSL  914  23.187   9.197   6.990
    3AU     AUL  915  23.174   8.889   6.984
    3AU       S  916  23.552   8.902   8.291
    3AU     LIG  917  23.642   8.436   8.314
    3AU     LIG  918  23.696   8.024   8.514
    3AU     LIG  919  24.120   7.898   8.710
    3AU       S  920  23.302   9.366   8.691
    3AU     LIG  921  23.440   9.605   9.086
    3AU     LIG  922  23.661   9.701   9.495
    3AU     LIG  923  23.982   9.579   9.822
    3AU       S  924  22.965   9.326   8.686
    3AU     LIG  925  23.028   9.293   9.155
    3AU     LIG  926  23.348   9.276   9.503
    3AU     LIG  927  23.691   9.147   9.809
    3AU       S  928  22.578   9.834   8.745
    3AU     LIG  929  22.386   9.749   9.158
    3AU     LIG  930  22.033   9.650   9.425
    3AU     LIG  931  21.758   9.591   9.803
    3AU       S  932  23.189  10.314   8.515
    3AU     LIG  933  23.306  10.520   8.904
    3AU     LIG  934  23.595  10.398   9.224
    3AU     LIG  935  23.995  10.211   9.142
    3AU       S  936  23.817  10.173   8.193
    3AU     LIG  937  24.002  10.262   8.604
    3AU     LIG  938  24.161  10.597   8.818
    3AU     LIG  939  24.538  10.781   8.963
    3AU       S  940  23.246   9.949   6.371
    3AU     LIG  941  23.445   9.951   5.945
    3AU     LIG  942  23.770   9.667   5.785
    3AU     LIG  943  23.745   9.256   5.576
    3AU       S  944  23.512  10.375   6.689
    3AU     LIG  945  23.615  10.824   6.576
    3AU     LIG  946  23.824  10.971   6.186
    3AU     LIG  947  24.178  11.045   5.897
    3AU       S  948  23.795   9.095   6.841
    3AU     LIG  949  24.062   8.834   6.560
    3AU     LIG  950  24.015   8.537   6.202
    3AU     LIG  951  23.897   8.085   6.152
    3AU       S  952  23.153   9.700   6.287
    3AU     LIG  953  23.303   9.454   5.931
    3AU     LIG  954  23.215   9.252   5.534
    3AU     LIG  955  23.464   9.256   5.145
    3AU       S  956  22.555   9.563   6.338
    3AU     LIG  957  22.424   9.516   5.908
    3AU     LIG  958  22.622   9.446   5.510
    3AU     LIG  959  22.481   9.460   5.065
    3AU       S  960  22.955   9.912   6.402
    3AU     LIG  961  22.792   9.870   5.974
    3AU     LIG  962  23.035   9.754   5.612
    3AU     LIG  963  23.430   9.697   5.412
    3AU       S  964  22.331   9.881   8.628
    3AU     LIG  965  21.998   9.739   8.814
    3AU     LIG  966  22.006   9.373   8.987
    3AU     LIG  967  21.827   9.175   9.338
    3AU       S  968  22.209  10.467   8.200
    3AU     LIG  969  21.980  10.753   8.458
    3AU     LIG  970  21.670  10.715   8.774
    3AU     LIG  971  21.535  10.984   9.135
    3AU       S  972  22.217   9.218   8.477
    3AU     LIG  973  21.750   9.233   8.537
    3AU     LIG  974  21.345   8.965   8.516
    3AU     LIG  975  21.130   8.587   8.598
    3AU       S  976  22.514   9.586   8.654
    3AU     LIG  977  22.535   9.303   8.984
    3AU     LIG  978  22.352   9.213   9.358
    3AU     LIG  979  22.156   9.261   9.750
    3AU       S  980  22.286   9.513   6.434
    3AU     LIG  981  22.025   9.255   6.138
    3AU     LIG  982  22.026   9.263   5.672
    3AU     LIG  983  22.145   9.609   5.407
    3AU       S  984  22.201   8.863   6.842
    3AU     LIG  985  22.169   8.826   6.387
    3AU     LIG  986  21.805   8.648   6.195
    3AU     LIG  987  21.442   8.394   6.083
    3AU       S  988  22.092  10.057   6.668
    3AU     LIG  989  21.747  10.357   6.668
    3AU     LIG  990  21.676  10.750   6.447
    3AU     LIG  991  21.592  10.811   6.000
    3AU       S  992  22.471   9.794   6.451
    3AU     LIG  993  22.266   9.971   6.119
    3AU     LIG  994  22.367   9.989   5.675
    3AU     LIG  995  22.651   9.928   5.330
    3AU       S  996  23.706  10.353   6.895
    3AU     LIG  997  23.987  10.462   6.539
    3AU     LIG  998  24.244  10.632   6.205
    3AU     LIG  999  24.625  10.761   5.986
    3AU       S 1000  23.847  10.366   7.405
    3AU     LIG 1001  24.178  10.703   7.471
    3AU     LIG 1002  24.643  10.584   7.481
    3AU     LIG 1003  25.098  10.664   7.571
    3AU       S 1004  24.093  10.117   7.387
    3AU     LIG 1005  24.546  10.045   7.504
    3AU     LIG 1006  24.964  10.152   7.371
    3AU     LIG 1007  25.143  10.444   7.089
    3AU       S 1008  24.011   9.060   7.659
    3AU     LIG 1009  24.354   8.988   7.953
    3AU     LIG 1010  24.804   8.913   7.896
    3AU     LIG 1011  24.981   8.804   7.486
    3AU       S 1012  23.780  10.408   7.967
    3AU     LIG 1013  24.091  10.653   8.230
    3AU     LIG 1014  24.118  11.018   8.535
    3AU     LIG 1015  24.160  11.120   8.994
    3AU       S 1016  24.033  10.249   7.578
    3AU     LIG 1017  24.367  10.364   7.866
    3AU     LIG 1018  24.848  10.294   7.869
    3AU     LIG 1019  25.218  10.492   8.067
    3AU       S 1020  22.086  10.209   8.228
    3AU     LIG 1021  21.669  10.340   8.320
    3AU     LIG 1022  21.294  10.545   8.440
    3AU     LIG 1023  21.161  10.876   8.730
    3AU       S 1024  22.177  10.615   7.411
    3AU     LIG 1025  22.042  11.025   7.493
    3AU     LIG 1026  21.775  11.168   7.180
    3AU     LIG 1027  21.740  10.783   6.960
    3AU       S 1028  21.693   9.793   7.029
    3AU     LIG 1029  21.220   9.682   7.098
    3AU     LIG 1030  20.833   9.929   7.170
    3AU     LIG 1031  20.906  10.398   7.163
    3AU       S 1032  22.180  10.493   6.895
    3AU     LIG 1033  22.160  10.842   6.656
    3AU     LIG 1034  21.901  11.188   6.667
    3AU     LIG 1035  21.768  11.239   6.266
    3AU       S 1036  21.654   9.404   7.686
    3AU     LIG 1037  21.273   9.311   7.453
    3AU     LIG 1038  20.822   9.408   7.374
    3AU     LIG 1039  20.480   9.380   7.033
    3AU       S 1040  21.762   9.864   8.025
    3AU     LIG 1041  21.308   9.800   8.088
    3AU     LIG 1042  21.070  10.190   8.042
    3AU     LIG 1043  21.148  10.503   7.701
    3AU       S 1044  23.731   8.852   7.573
    3AU     LIG 1045  23.890   8.430   7.432
    3AU     LIG 1046  24.241   8.274   7.627
    3AU     LIG 1047  24.489   8.647   7.596
    3AU       S 1048  23.728   8.935   8.074
    3AU     LIG 1049  24.007   8.603   7.928
    3AU     LIG 1050  24.394   8.451   8.103
    3AU     LIG 1051  24.301   8.387   8.564
    3AU       S 1052  23.930   8.944   7.472
    3AU     LIG 1053  24.215   8.839   7.191
    3AU     LIG 1054  24.640   8.827   7.117
    3AU     LIG 1055  24.937   8.534   6.963
    3AU       S 1056  23.688   8.863   7.050
    3AU     LIG 1057  23.934   8.503   6.936
    3AU     LIG 1058  23.890   8.141   6.729
    3AU     LIG 1059  23.581   7.925   6.537
    3AU       S 1060  22.064   9.038   6.873
    3AU     LIG 1061  21.718   8.988   6.572
    3AU     LIG 1062  21.342   8.861   6.320
    3AU     LIG 1063  21.012   8.538   6.395
    3AU       S 1064  21.721   9.147   7.722
    3AU     LIG 1065  21.409   8.877   7.700
    3AU     LIG 1066  21.265   8.835   7.255
    3AU     LIG 1067  21.088   8.591   6.914
    3AU       S 1068  22.213   8.968   8.388
    3AU     LIG 1069  21.751   8.837   8.214
    3AU     LIG 1070  21.369   8.573   8.127
    3AU     LIG 1071  21.153   8.173   8.262
    3AU       S 1072  21.739   9.402   7.877
    3AU     LIG 1073  21.392   9.253   8.097
    3AU     LIG 1074  21.038   9.357   7.894
    3AU     LIG 1075  20.606   9.295   7.836
    3AU       S 1076  22.222  10.626   7.904
    3AU     LIG 1077  21.863  10.862   7.967
    3AU     LIG 1078  21.549  10.964   8.276
    3AU     LIG 1079  21.587  11.205   8.659
    3AU       S 1080  23.027  10.907   7.927
    3AU     LIG 1081  23.139  11.179   8.206
    3AU     LIG 1082  22.913  11.513   8.377
    3AU     LIG 1083  22.480  11.629   8.504
    3AU       S 1084  22.981  11.089   7.675
    3AU     LIG 1085  22.939  11.488   7.820
    3AU     LIG 1086  22.624  11.718   8.013
    3AU     LIG 1087  22.542  12.148   8.063
    3AU       S 1088  23.046  10.827   7.229
    3AU     LIG 1089  23.179  11.269   7.254
    3AU     LIG 1090  22.985  11.541   6.953
    3AU     LIG 1091  23.077  11.595   6.531
    3AU       S 1092  23.632  10.341   8.276
    3AU     LIG 1093  23.684  10.680   8.558
    3AU     LIG 1094  23.734  10.828   8.972
    3AU     LIG 1095  24.027  10.720   9.310
    3AU       S 1096  23.242  10.873   7.665
    3AU     LIG 1097  23.436  11.292   7.746
    3AU     LIG 1098  23.374  11.604   8.087
    3AU     LIG 1099  23.084  11.948   8.120
    3AU       S 1100  23.070   8.529   8.070
    3AU     LIG 1101  23.280   8.090   8.136
    3AU     LIG 1102  23.338   7.642   8.306
    3AU     LIG 1103  23.146   7.218   8.435
    3AU       S 1104  23.495   8.794   7.996
    3AU     LIG 1105  23.558   8.391   7.801
    3AU     LIG 1106  23.777   8.086   7.967
    3AU     LIG 1107  24.106   8.050   8.223
    3AU       S 1108  22.857   8.437   7.899
    3AU     LIG 1109  22.781   7.992   7.994
    3AU     LIG 1110  22.824   7.574   8.191
    3AU     LIG 1111  22.663   7.139   8.237
    3AU       S 1112  22.491   9.100   8.536
    3AU     LIG 1113  22.194   8.919   8.888
    3AU     LIG 1114  21.781   8.758   8.751
    3AU     LIG 1115  21.600   8.382   8.541
    3AU       S 1116  22.939   8.439   7.357
    3AU     LIG 1117  22.799   8.004   7.206
    3AU     LIG 1118  22.757   7.676   6.861
    3AU     LIG 1119  22.920   7.235   6.844
    3AU       S 1120  23.097   8.541   7.813
    3AU     LIG 1121  23.159   8.097   7.638
    3AU     LIG 1122  23.048   7.654   7.713
    3AU     LIG 1123  23.203   7.283   7.935
    3AU       S 1124  22.875  10.860   7.029
    3AU     LIG 1125  22.733  11.165   6.688
    3AU     LIG 1126  22.824  11.292   6.229
    3AU     LIG 1127  23.098  11.612   5.981
    3AU       S 1128  23.554  10.537   7.042
    3AU     LIG 1129  23.946  10.774   6.972
    3AU     LIG 1130  24.130  10.955   6.603
    3AU     LIG 1131  24.448  11.125   6.332
    3AU       S 1132  22.644  10.846   7.215
    3AU     LIG 1133  22.317  11.121   7.050
    3AU     LIG 1134  22.414  11.528   6.868
    3AU     LIG 1135  22.553  11.692   6.445
    3AU       S 1136  22.302  10.242   6.624
    3AU     LIG 1137  22.085  10.453   6.289
    3AU     LIG 1138  22.101  10.880   6.139
    3AU     LIG 1139  22.284  11.273   6.333
    3AU       S 1140  22.113   8.809   7.139
    3AU     LIG 1141  21.707   8.665   6.989
    3AU     LIG 1142  21.507   8.485   6.619
    3AU     LIG 1143  21.301   8.103   6.496
    3AU       S 1144  23.031   8.446   7.135
    3AU     LIG 1145  23.201   8.291   6.716
    3AU     LIG 1146  23.081   7.932   6.439
    3AU     LIG 1147  22.925   7.501   6.395
    3AU       S 1148  23.279   8.541   7.357
    3AU     LIG 1149  23.486   8.200   7.138
    3AU     LIG 1150  23.252   7.830   6.916
    3AU     LIG 1151  23.384   7.465   6.662
    3AU       S 1152  23.597   8.951   6.740
    3AU     LIG 1153  23.618   8.542   6.533
    3AU     LIG 1154  23.418   8.285   6.214
    3AU     LIG 1155  23.425   7.864   6.017
    4AU     AUC 1156  13.542  23.211   7.529
    4AU     AUC 1157  13.793  23.202   7.363
    4AU     AUC 1158  13.798  23.211   7.685
    4AU     AUC 1159  13.279  23.203   7.379
    4AU     AUC 1160  13.288  23.232   7.696
    4AU     AUC 1161  13.394  23.469   7.513
    4AU     AUC 1162  13.711  23.466   7.510
    4AU     AUC 1163  13.380  22.956   7.551
    4AU     AUC 1164  13.695  22.950   7.537
    4AU     AUC 1165  13.541  23.069   7.797
    4AU     AUC 1166  13.557  23.388   7.778
    4AU     AUC 1167  13.535  23.036   7.279
    4AU     AUC 1168  13.537  23.354   7.261
    4AU     AUC 1169  14.046  23.208   7.198
    4AU     AUC 1170  14.049  23.198   7.521
    4AU     AUC 1171  14.052  23.195   7.844
    4AU     AUC 1172  13.022  23.187   7.227
    4AU     AUC 1173  13.021  23.231   7.549
    4AU     AUC 1174  13.040  23.265   7.865
    4AU     AUC 1175  13.244  23.727   7.487
    4AU     AUC 1176  13.582  23.726   7.480
    4AU     AUC 1177  13.895  23.722   7.490
    4AU     AUC 1178  13.217  22.702   7.574
    4AU     AUC 1179  13.545  22.690   7.548
    4AU     AUC 1180  13.860  22.687   7.545
    4AU     AUC 1181  13.540  22.926   8.065
    4AU     AUC 1182  13.548  23.250   8.061
    4AU     AUC 1183  13.580  23.569   8.026
    4AU     AUC 1184  13.545  22.864   7.029
    4AU     AUC 1185  13.524  23.177   7.007
    4AU     AUC 1186  13.525  23.490   6.992
    4AU     AUC 1187  13.792  23.056   7.959
    4AU     AUC 1188  13.823  23.379   7.943
    4AU     AUC 1189  13.803  23.042   7.101
    4AU     AUC 1190  13.786  23.360   7.089
    4AU     AUC 1191  13.288  23.098   7.972
    4AU     AUC 1192  13.298  23.422   7.948
    4AU     AUC 1193  13.270  23.010   7.132
    4AU     AUC 1194  13.262  23.333   7.101
    4AU     AUC 1195  13.971  23.459   7.349
    4AU     AUC 1196  13.974  23.471   7.673
    4AU     AUC 1197  13.119  23.475   7.348
    4AU     AUC 1198  13.132  23.510   7.677
    4AU     AUC 1199  13.947  22.932   7.365
    4AU     AUC 1200  13.954  22.941   7.696
    4AU     AUC 1201  13.112  22.940   7.413
    4AU     AUC 1202  13.114  22.968   7.727
    4AU     AUC 1203  13.411  23.647   7.773
    4AU     AUC 1204  13.751  23.645   7.760
    4AU     AUC 1205  13.378  22.810   7.821
    4AU     AUC 1206  13.698  22.795   7.807
    4AU     AUC 1207  13.377  23.619   7.241
    4AU     AUC 1208  13.714  23.622   7.239
    4AU     AUC 1209  13.377  22.767   7.298
    4AU     AUC 1210  13.712  22.777   7.277
    4AU    AUSL 1211  13.962  23.161   8.155
    4AU    AUSL 1212  13.846  22.816   8.141
    4AU     AUL 1213  14.232  22.984   8.278
    4AU    AUSL 1214  13.646  23.075   8.288
    4AU    AUSL 1215  13.432  23.433   8.280
    4AU     AUL 1216  13.700  23.346   8.569
    4AU    AUSL 1217  13.767  23.452   8.236
    4AU    AUSL 1218  14.133  23.437   8.013
    4AU     AUL 1219  14.095  23.361   8.411
    4AU    AUSL 1220  13.956  23.262   6.891
    4AU    AUSL 1221  13.839  23.611   6.909
    4AU     AUL 1222  14.215  23.432   6.753
    4AU    AUSL 1223  13.744  23.012   6.797
    4AU    AUSL 1224  14.115  22.968   7.029
    4AU     AUL 1225  14.104  23.035   6.654
    4AU    AUSL 1226  13.614  23.324   6.773
    4AU    AUSL 1227  13.396  22.990   6.816
    4AU     AUL 1228  13.599  22.870   6.573
    4AU    AUSL 1229  13.112  23.369   8.163
    4AU    AUSL 1230  13.296  23.701   8.053
    4AU     AUL 1231  13.257  23.721   8.386
    4AU    AUSL 1232  13.298  23.098   8.259
    4AU    AUSL 1233  13.039  22.989   8.037
    4AU     AUL 1234  12.842  23.172   8.201
    4AU    AUSL 1235  13.078  23.057   6.915
    4AU    AUSL 1236  13.238  22.723   7.023
    4AU     AUL 1237  13.217  22.721   6.677
    4AU    AUSL 1238  13.265  23.322   6.827
    4AU    AUSL 1239  12.990  23.455   7.042
    4AU     AUL 1240  12.815  23.197   6.906
    4AU    AUSL 1241  14.208  23.634   7.432
    4AU    AUSL 1242  14.111  23.490   7.106
    4AU     AUL 1243  14.450  23.436   7.069
    4AU    AUSL 1244  14.306  23.309   7.358
    4AU    AUSL 1245  14.289  23.056   7.677
    4AU     AUL 1246  14.616  23.142   7.519
    4AU    AUSL 1247  14.191  23.389   7.674
    4AU    AUSL 1248  14.095  23.734   7.755
    4AU     AUL 1249  14.419  23.451   7.777
    4AU    AUSL 1250  12.963  23.712   7.510
    4AU    AUSL 1251  12.976  23.576   7.923
    4AU     AUL 1252  12.656  23.737   7.693
    4AU    AUSL 1253  12.816  23.398   7.325
    4AU    AUSL 1254  13.092  23.768   7.190
    4AU     AUL 1255  12.727  23.708   7.237
    4AU    AUSL 1256  12.807  23.395   7.693
    4AU    AUSL 1257  12.804  23.083   7.441
    4AU     AUL 1258  12.507  23.349   7.478
    4AU    AUSL 1259  14.159  22.744   7.599
    4AU    AUSL 1260  14.105  22.913   7.936
    4AU     AUL 1261  14.446  22.972   7.922
    4AU    AUSL 1262  14.164  22.994   7.365
    4AU    AUSL 1263  14.049  22.667   7.255
    4AU     AUL 1264  14.397  22.911   7.273
    4AU    AUSL 1265  12.887  22.774   7.561
    4AU    AUSL 1266  12.954  22.887   7.180
    4AU     AUL 1267  12.624  22.987   7.222
    4AU    AUSL 1268  12.817  23.065   7.785
    4AU    AUSL 1269  13.083  22.676   7.869
    4AU     AUL 1270  12.782  22.751   7.932
    4AU    AUSL 1271  13.598  23.875   7.944
    4AU    AUSL 1272  13.150  23.859   7.771
    4AU     AUL 1273  13.349  24.063   8.072
    4AU    AUSL 1274  13.458  23.826   7.624
    4AU    AUSL 1275  13.701  23.974   7.337
    4AU     AUL 1276  13.448  24.139   7.645
    4AU    AUSL 1277  13.813  23.940   7.655
    4AU    AUSL 1278  13.882  23.686   8.029
    4AU     AUL 1279  13.931  24.011   7.970
    4AU    AUSL 1280  13.575  22.614   7.984
    4AU    AUSL 1281  13.917  22.622   7.853
    4AU     AUL 1282  13.700  22.536   8.260
    4AU    AUSL 1283  13.345  22.508   7.742
    4AU    AUSL 1284  13.309  22.776   8.137
    4AU     AUL 1285  13.278  22.405   8.061
    4AU    AUSL 1286  13.667  22.455   7.675
    4AU    AUSL 1287  13.412  22.469   7.401
    4AU     AUL 1288  13.216  22.271   7.596
    4AU    AUSL 1289  13.558  23.778   7.082
    4AU    AUSL 1290  13.963  23.787   7.218
    4AU     AUL 1291  13.749  23.969   6.934
    4AU    AUSL 1292  13.350  23.952   7.318
    4AU    AUSL 1293  13.279  23.640   6.924
    4AU     AUL 1294  13.341  23.969   6.931
    4AU    AUSL 1295  13.545  22.568   7.089
    4AU    AUSL 1296  13.093  22.599   7.337
    4AU     AUL 1297  13.260  22.353   7.091
    4AU    AUSL 1298  13.772  22.488   7.353
    4AU    AUSL 1299  13.836  22.751   6.987
    4AU     AUL 1300  13.834  22.437   6.975
    4AU       S 1301  14.192  22.453   8.304
    4AU     LIG 1302  14.246  21.993   8.434
    4AU     LIG 1303  14.384  21.564   8.595
    4AU     LIG 1304  14.706  21.247   8.776
    4AU       S 1305  13.937  22.878   8.678
    4AU     LIG 1306  14.131  23.084   9.049
    4AU     LIG 1307  14.371  23.182   9.431
    4AU     LIG 1308  14.507  23.239   9.878
    4AU       S 1309  13.596  22.853   8.678
    4AU     LIG 1310  13.648  22.869   9.138
    4AU     LIG 1311  13.996  22.790   9.467
    4AU     LIG 1312  14.397  22.729   9.714
    4AU       S 1313  13.226  23.341   8.749
    4AU     LIG 1314  13.099  23.263   9.184
    4AU     LIG 1315  12.742  23.294   9.470
    4AU     LIG 1316  12.541  23.259   9.904
    4AU       S 1317  13.798  23.852   8.526
    4AU     LIG 1318  14.001  24.120   8.843
    4AU     LIG 1319  14.362  24.017   9.071
    4AU     LIG 1320  14.557  23.597   9.117
    4AU       S 1321  14.450  23.698   8.224
    4AU     LIG 1322  14.642  23.784   8.627
    4AU     LIG 1323  14.784  24.150   8.816
    4AU     LIG 1324  14.973  24.557   8.848
    4AU       S 1325  13.903  23.474   6.359
    4AU     LIG 1326  14.064  23.420   5.904
    4AU     LIG 1327  14.305  23.062   5.705
    4AU     LIG 1328  14.513  22.658   5.556
    4AU       S 1329  14.198  23.945   6.722
    4AU     LIG 1330  14.316  24.324   6.512
    4AU     LIG 1331  14.502  24.505   6.140
    4AU     LIG 1332  14.879  24.714   6.057
    4AU       S 1333  14.453  22.677   6.828
    4AU     LIG 1334  14.767  22.449   6.590
    4AU     LIG 1335  14.828  22.166   6.219
    4AU     LIG 1336  14.668  21.761   6.040
    4AU       S 1337  13.783  23.224   6.280
    4AU     LIG 1338  13.761  23.008   5.857
    4AU     LIG 1339  13.898  22.908   5.420
    4AU     LIG 1340  14.278  22.904   5.152
    4AU       S 1341  13.223  23.133   6.340
    4AU     LIG 1342  13.093  23.166   5.926
    4AU     LIG 1343  13.313  23.064   5.548
    4AU     LIG 1344  13.300  23.233   5.120
    4AU       S 1345  13.617  23.459   6.396
    4AU     LIG 1346  13.514  23.457   5.929
    4AU     LIG 1347  13.714  23.395   5.502
    4AU     LIG 1348  14.144  23.376   5.333
    4AU       S 1349  12.972  23.375   8.638
    4AU     LIG 1350  12.674  23.234   8.897
    4AU     LIG 1351  12.608  22.897   9.151
    4AU     LIG 1352  12.539  22.831   9.595
    4AU       S 1353  12.854  24.004   8.202
    4AU     LIG 1354  12.674  24.265   8.491
    4AU     LIG 1355  12.365  24.175   8.806
    4AU     LIG 1356  12.207  24.355   9.210
    4AU       S 1357  12.860  22.733   8.453
    4AU     LIG 1358  12.390  22.665   8.382
    4AU     LIG 1359  12.064  22.347   8.426
    4AU     LIG 1360  11.875  22.097   8.779
    4AU       S 1361  13.155  23.097   8.646
    4AU     LIG 1362  13.092  22.802   8.971
    4AU     LIG 1363  13.036  22.795   9.420
    4AU     LIG 1364  13.013  23.022   9.816
    4AU       S 1365  12.949  23.099   6.432
    4AU     LIG 1366  12.762  22.792   6.163
    4AU     LIG 1367  12.733  22.847   5.715
    4AU     LIG 1368  12.813  23.233   5.486
    4AU       S 1369  12.824  22.437   6.859
    4AU     LIG 1370  12.782  22.071   6.605
    4AU     LIG 1371  12.633  22.050   6.189
    4AU     LIG 1372  12.260  22.030   5.941
    4AU       S 1373  12.743  23.652   6.692
    4AU     LIG 1374  12.401  23.995   6.718
    4AU     LIG 1375  12.281  24.373   6.468
    4AU     LIG 1376  11.887  24.528   6.270
    4AU       S 1377  13.124  23.377   6.452
    4AU     LIG 1378  12.797  23.525   6.193
    4AU     LIG 1379  12.864  23.639   5.786
    4AU     LIG 1380  13.221  23.572   5.521
    4AU       S 1381  14.386  23.920   6.927
    4AU     LIG 1382  14.738  24.084   6.680
    4AU     LIG 1383  14.918  24.228   6.279
    4AU     LIG 1384  15.216  24.338   5.939
    4AU       S 1385  14.514  23.886   7.413
    4AU     LIG 1386  14.879  24.080   7.191
    4AU     LIG 1387  15.317  24.061   7.370
    4AU     LIG 1388  15.440  24.199   7.789
    4AU       S 1389  14.760  23.638   7.407
    4AU     LIG 1390  15.241  23.545   7.372
    4AU     LIG 1391  15.637  23.664   7.145
    4AU     LIG 1392  16.082  23.848   7.058
    4AU       S 1393  14.652  22.598   7.664
    4AU     LIG 1394  14.976  22.433   7.908
    4AU     LIG 1395  15.416  22.547   7.919
    4AU     LIG 1396  15.763  22.347   7.697
    4AU       S 1397  14.433  23.932   8.017
    4AU     LIG 1398  14.711  24.185   8.282
    4AU     LIG 1399  14.673  24.637   8.412
    4AU     LIG 1400  14.718  24.974   8.717
    4AU       S 1401  14.670  23.826   7.598
    4AU     LIG 1402  15.080  23.823   7.786
    4AU     LIG 1403  15.535  23.697   7.802
    4AU     LIG 1404  15.994  23.757   7.948
    4AU       S 1405  12.718  23.739   8.221
    4AU     LIG 1406  12.328  23.939   8.300
    4AU     LIG 1407  11.945  24.018   8.541
    4AU     LIG 1408  11.862  24.047   8.991
    4AU       S 1409  12.851  24.188   7.439
    4AU     LIG 1410  12.682  24.611   7.436
    4AU     LIG 1411  12.426  24.639   7.051
    4AU     LIG 1412  12.062  24.386   6.925
    4AU       S 1413  12.364  23.442   6.989
    4AU     LIG 1414  12.022  23.117   6.946
    4AU     LIG 1415  11.589  23.240   6.973
    4AU     LIG 1416  11.489  23.607   7.223
    4AU       S 1417  12.854  24.089   6.916
    4AU     LIG 1418  12.778  24.486   6.701
    4AU     LIG 1419  12.533  24.819   6.509
    4AU     LIG 1420  12.337  24.818   6.086
    4AU       S 1421  12.336  22.842   7.602
    4AU     LIG 1422  11.936  22.957   7.445
    4AU     LIG 1423  11.514  22.944   7.371
    4AU     LIG 1424  11.173  22.881   7.076
    4AU       S 1425  12.403  23.381   7.991
    4AU     LIG 1426  12.010  23.590   8.096
    4AU     LIG 1427  11.907  24.028   8.024
    4AU     LIG 1428  12.046  24.407   7.827
    4AU       S 1429  14.392  22.416   7.585
    4AU     LIG 1430  14.617  22.030   7.648
    4AU     LIG 1431  14.953  21.870   7.870
    4AU     LIG 1432  15.342  22.070   7.829
    4AU       S 1433  14.370  22.492   8.086
    4AU     LIG 1434  14.629  22.154   8.146
    4AU     LIG 1435  14.888  22.000   8.463
    4AU     LIG 1436  14.805  21.752   8.849
    4AU       S 1437  14.605  22.504   7.436
    4AU     LIG 1438  15.005  22.265   7.426
    4AU     LIG 1439  15.417  22.371   7.345
    4AU     LIG 1440  15.663  22.559   7.032
    4AU       S 1441  14.348  22.429   7.025
    4AU     LIG 1442  14.454  22.035   6.788
    4AU     LIG 1443  14.470  21.654   6.518
    4AU     LIG 1444  14.482  21.197   6.399
    4AU       S 1445  12.682  22.564   6.972
    4AU     LIG 1446  12.441  22.616   6.590
    4AU     LIG 1447  12.213  22.312   6.376
    4AU     LIG 1448  11.890  22.000   6.302
    4AU       S 1449  12.454  22.610   7.574
    4AU     LIG 1450  12.073  22.479   7.845
    4AU     LIG 1451  11.709  22.509   7.584
    4AU     LIG 1452  11.601  22.498   7.123
    4AU       S 1453  12.857  22.463   8.330
    4AU     LIG 1454  12.482  22.243   8.091
    4AU     LIG 1455  12.114  21.963   8.098
    4AU     LIG 1456  12.027  21.646   8.435
    4AU       S 1457  12.348  22.919   7.768
    4AU     LIG 1458  11.973  23.070   7.952
    4AU     LIG 1459  11.532  23.088   7.864
    4AU     LIG 1460  11.284  22.719   7.776
    4AU       S 1461  12.871  24.173   7.928
    4AU     LIG 1462  12.537  24.468   8.016
    4AU     LIG 1463  12.212  24.433   8.335
    4AU     LIG 1464  11.988  24.511   8.751
    4AU       S 1465  13.700  24.449   7.980
    4AU     LIG 1466  13.991  24.764   8.152
    4AU     LIG 1467  13.797  25.114   8.360
    4AU     LIG 1468  13.467  25.218   8.665
    4AU       S 1469  13.624  24.646   7.740
    4AU     LIG 1470  13.237  24.669   8.021
    4AU     LIG 1471  13.253  25.066   8.168
    4AU     LIG 1472  13.576  25.188   7.877
    4AU       S 1473  13.682  24.405   7.251
    4AU     LIG 1474  13.624  24.887   7.287
    4AU     LIG 1475  13.686  25.264   7.027
    4AU     LIG 1476  14.026  25.373   6.719
    4AU       S 1477  14.256  23.880   8.320
    4AU     LIG 1478  14.258  24.325   8.459
    4AU     LIG 1479  14.416  24.506   8.846
    4AU     LIG 1480  14.636  24.463   9.242
    4AU       S 1481  13.904  24.428   7.683
    4AU     LIG 1482  14.055  24.871   7.651
    4AU     LIG 1483  14.081  25.251   7.947
    4AU     LIG 1484  14.100  25.527   8.339
    4AU       S 1485  13.712  22.080   8.050
    4AU     LIG 1486  13.865  21.709   8.236
    4AU     LIG 1487  13.948  21.299   8.425
    4AU     LIG 1488  13.879  20.839   8.532
    4AU       S 1489  14.150  22.337   8.008
    4AU     LIG 1490  14.223  21.908   7.925
    4AU     LIG 1491  14.516  21.643   8.112
    4AU     LIG 1492  14.856  21.512   8.370
    4AU       S 1493  13.510  21.975   7.879
    4AU     LIG 1494  13.478  21.501   7.973
    4AU     LIG 1495  13.451  21.124   8.263
    4AU     LIG 1496  13.108  20.821   8.391
    4AU       S 1497  13.112  22.615   8.507
    4AU     LIG 1498  12.749  22.400   8.808
    4AU     LIG 1499  12.406  22.055   8.704
    4AU     LIG 1500  12.151  21.706   8.938
    4AU       S 1501  13.564  21.978   7.360
    4AU     LIG 1502  13.606  21.516   7.247
    4AU     LIG 1503  13.470  21.307   6.867
    4AU     LIG 1504  13.118  21.124   6.629
    4AU       S 1505  13.765  22.092   7.802
    4AU     LIG 1506  13.860  21.663   7.673
    4AU     LIG 1507  14.072  21.376   7.913
    4AU     LIG 1508  13.893  20.972   8.038
    4AU       S 1509  13.528  24.416   7.045
    4AU     LIG 1510  13.456  24.796   6.807
    4AU     LIG 1511  13.551  25.155   6.546
    4AU     LIG 1512  13.701  25.566   6.387
    4AU       S 1513  14.226  24.098   7.073
    4AU     LIG 1514  14.515  24.446   6.979
    4AU     LIG 1515  14.758  24.620   6.614
    4AU     LIG 1516  15.192  24.634   6.476
    4AU       S 1517  13.295  24.398   7.234
    4AU     LIG 1518  13.047  24.750   7.112
    4AU     LIG 1519  13.175  25.162   7.042
    4AU     LIG 1520  13.294  25.523   6.791
    4AU       S 1521  12.957  23.824   6.636
    4AU     LIG 1522  12.721  24.047   6.323
    4AU     LIG 1523  12.690  24.453   6.134
    4AU     LIG 1524  12.839  24.877   5.997
    4AU       S 1525  12.733  22.378   7.186
    4AU     LIG 1526  12.374  22.164   6.911
    4AU     LIG 1527  12.316  21.838   6.570
    4AU     LIG 1528  12.405  21.591   6.185
    4AU       S 1529  13.637  22.002   7.113
    4AU     LIG 1530  13.977  21.757   6.915
    4AU     LIG 1531  13.940  21.599   6.506
    4AU     LIG 1532  13.521  21.414   6.355
    4AU       S 1533  13.861  22.073   7.330
    4AU     LIG 1534  14.210  21.861   7.369
    4AU     LIG 1535  14.153  21.425   7.273
    4AU     LIG 1536  14.275  21.318   6.857
    4AU       S 1537  14.251  22.528   6.724
    4AU     LIG 1538  14.333  22.295   6.347
    4AU     LIG 1539  14.190  21.910   6.162
    4AU     LIG 1540  14.211  21.460   6.053
    5AU     AUC 1541  39.621  43.590   7.527
    5AU     AUC 1542  39.872  43.583   7.362
    5AU     AUC 1543  39.876  43.596   7.685
    5AU     AUC 1544  39.358  43.576   7.375
    5AU     AUC 1545  39.365  43.610   7.692
    5AU     AUC 1546  39.471  43.844   7.505
    5AU     AUC 1547  39.789  43.846   7.505
    5AU     AUC 1548  39.460  43.333   7.551
    5AU     AUC 1549  39.775  43.332   7.539
    5AU     AUC 1550  39.619  43.452   7.797
    5AU     AUC 1551  39.633  43.771   7.773
    5AU     AUC 1552  39.615  43.413   7.279
    5AU     AUC 1553  39.617  43.728   7.256
    5AU     AUC 1554  40.127  43.588   7.198
    5AU     AUC 1555  40.129  43.584   7.522
    5AU     AUC 1556  40.131  43.585   7.846
    5AU     AUC 1557  39.102  43.555   7.222
    5AU     AUC 1558  39.099  43.602   7.544
    5AU     AUC 1559  39.116  43.642   7.858
    5AU     AUC 1560  39.319  44.100   7.473
    5AU     AUC 1561  39.658  44.103   7.470
    5AU     AUC 1562  39.973  44.101   7.483
    5AU     AUC 1563  39.299  43.076   7.576
    5AU     AUC 1564  39.626  43.071   7.552
    5AU     AUC 1565  39.941  43.074   7.551
    5AU     AUC 1566  39.620  43.313   8.067
    5AU     AUC 1567  39.623  43.638   8.058
    5AU     AUC 1568  39.651  43.955   8.017
    5AU     AUC 1569  39.627  43.237   7.030
    5AU     AUC 1570  39.605  43.549   7.005
    5AU     AUC 1571  39.605  43.861   6.986
    5AU     AUC 1572  39.871  43.445   7.961
    5AU     AUC 1573  39.899  43.766   7.940
    5AU     AUC 1574  39.885  43.420   7.101
    5AU     AUC 1575  39.868  43.734   7.085
    5AU     AUC 1576  39.365  43.480   7.970
    5AU     AUC 1577  39.372  43.805   7.941
    5AU     AUC 1578  39.351  43.380   7.129
    5AU     AUC 1579  39.342  43.703   7.094
    5AU     AUC 1580  40.051  43.840   7.346
    5AU     AUC 1581  40.051  43.857   7.671
    5AU     AUC 1582  39.196  43.844   7.339
    5AU     AUC 1583  39.207  43.885   7.667
    5AU     AUC 1584  40.027  43.316   7.368
    5AU     AUC 1585  40.034  43.329   7.700
    5AU     AUC 1586  39.193  43.311   7.410
    5AU     AUC 1587  39.194  43.344   7.725
    5AU     AUC 1588  39.484  44.027   7.762
    5AU     AUC 1589  39.824  44.028   7.752
    5AU     AUC 1590  39.460  43.191   7.824
    5AU     AUC 1591  39.778  43.181   7.812
    5AU     AUC 1592  39.455  43.990   7.230
    5AU     AUC 1593  39.794  43.996   7.231
    5AU     AUC 1594  39.458  43.141   7.300
    5AU     AUC 1595  39.793  43.158   7.281
    5AU    AUSL 1596  40.042  43.554   8.158
    5AU    AUSL 1597  39.927  43.207   8.145
    5AU     AUL 1598  40.312  43.369   8.281
    5AU    AUSL 1599  39.725  43.467   8.289
    5AU    AUSL 1600  39.502  43.826   8.272
    5AU     AUL 1601  39.768  43.747   8.565
    5AU    AUSL 1602  39.838  43.841   8.230
    5AU    AUSL 1603  40.207  43.832   8.013
    5AU     AUL 1604  40.169  43.764   8.409
    5AU    AUSL 1605  40.040  43.634   6.887
    5AU    AUSL 1606  39.921  43.981   6.903
    5AU     AUL 1607  40.304  43.802   6.755
    5AU    AUSL 1608  39.826  43.385   6.796
    5AU    AUSL 1609  40.198  43.345   7.033
    5AU     AUL 1610  40.188  43.393   6.657
    5AU    AUSL 1611  39.695  43.695   6.770
    5AU    AUSL 1612  39.478  43.359   6.816
    5AU     AUL 1613  39.680  43.243   6.571
    5AU    AUSL 1614  39.184  43.752   8.154
    5AU    AUSL 1615  39.365  44.089   8.041
    5AU     AUL 1616  39.313  44.109   8.372
    5AU    AUSL 1617  39.376  43.487   8.256
    5AU    AUSL 1618  39.116  43.368   8.037
    5AU     AUL 1619  38.918  43.555   8.193
    5AU    AUSL 1620  39.157  43.425   6.910
    5AU    AUSL 1621  39.321  43.091   7.020
    5AU     AUL 1622  39.300  43.094   6.671
    5AU    AUSL 1623  39.345  43.688   6.822
    5AU    AUSL 1624  39.069  43.820   7.033
    5AU     AUL 1625  38.890  43.563   6.904
    5AU    AUSL 1626  40.288  44.020   7.431
    5AU    AUSL 1627  40.193  43.866   7.103
    5AU     AUL 1628  40.535  43.821   7.074
    5AU    AUSL 1629  40.386  43.695   7.360
    5AU    AUSL 1630  40.371  43.445   7.678
    5AU     AUL 1631  40.700  43.537   7.522
    5AU    AUSL 1632  40.271  43.778   7.675
    5AU    AUSL 1633  40.169  44.124   7.752
    5AU     AUL 1634  40.494  43.844   7.785
    5AU    AUSL 1635  39.037  44.079   7.494
    5AU    AUSL 1636  39.049  43.955   7.909
    5AU     AUL 1637  38.727  44.101   7.669
    5AU    AUSL 1638  38.893  43.764   7.315
    5AU    AUSL 1639  39.170  44.135   7.175
    5AU     AUL 1640  38.803  44.069   7.218
    5AU    AUSL 1641  38.885  43.764   7.685
    5AU    AUSL 1642  38.883  43.451   7.438
    5AU     AUL 1643  38.586  43.717   7.474
    5AU    AUSL 1644  40.235  43.135   7.605
    5AU    AUSL 1645  40.185  43.306   7.939
    5AU     AUL 1646  40.525  43.362   7.927
    5AU    AUSL 1647  40.242  43.382   7.369
    5AU    AUSL 1648  40.130  43.053   7.261
    5AU     AUL 1649  40.478  43.302   7.277
    5AU    AUSL 1650  38.970  43.144   7.558
    5AU    AUSL 1651  39.036  43.255   7.177
    5AU     AUL 1652  38.706  43.352   7.217
    5AU    AUSL 1653  38.895  43.436   7.781
    5AU    AUSL 1654  39.168  43.057   7.873
    5AU     AUL 1655  38.865  43.114   7.925
    5AU    AUSL 1656  39.665  44.260   7.929
    5AU    AUSL 1657  39.221  44.236   7.752
    5AU     AUL 1658  39.413  44.459   8.041
    5AU    AUSL 1659  39.531  44.203   7.609
    5AU    AUSL 1660  39.777  44.345   7.324
    5AU     AUL 1661  39.528  44.516   7.630
    5AU    AUSL 1662  39.887  44.319   7.643
    5AU    AUSL 1663  39.950  44.075   8.021
    5AU     AUL 1664  39.986  44.396   7.968
    5AU    AUSL 1665  39.657  42.998   7.992
    5AU    AUSL 1666  39.998  43.013   7.859
    5AU     AUL 1667  39.788  42.934   8.273
    5AU    AUSL 1668  39.429  42.886   7.750
    5AU    AUSL 1669  39.391  43.163   8.141
    5AU     AUL 1670  39.357  42.790   8.074
    5AU    AUSL 1671  39.751  42.842   7.681
    5AU    AUSL 1672  39.497  42.844   7.408
    5AU     AUL 1673  39.305  42.641   7.603
    5AU    AUSL 1674  39.636  44.148   7.070
    5AU    AUSL 1675  40.045  44.164   7.209
    5AU     AUL 1676  39.829  44.332   6.917
    5AU    AUSL 1677  39.426  44.323   7.302
    5AU    AUSL 1678  39.358  44.008   6.912
    5AU     AUL 1679  39.417  44.335   6.913
    5AU    AUSL 1680  39.627  42.945   7.099
    5AU    AUSL 1681  39.178  42.969   7.334
    5AU     AUL 1682  39.350  42.717   7.094
    5AU    AUSL 1683  39.857  42.876   7.360
    5AU    AUSL 1684  39.919  43.130   6.994
    5AU     AUL 1685  39.900  42.825   6.972
    5AU       S 1686  40.280  42.838   8.294
    5AU     LIG 1687  40.378  42.371   8.310
    5AU     LIG 1688  40.362  41.995   8.553
    5AU     LIG 1689  40.412  41.863   8.997
    5AU       S 1690  40.022  43.298   8.692
    5AU     LIG 1691  40.201  43.528   9.074
    5AU     LIG 1692  40.457  43.586   9.468
    5AU     LIG 1693  40.850  43.453   9.681
    5AU       S 1694  39.684  43.255   8.685
    5AU     LIG 1695  39.738  43.302   9.148
    5AU     LIG 1696  40.058  43.248   9.503
    5AU     LIG 1697  40.443  43.123   9.764
    5AU       S 1698  39.293  43.743   8.742
    5AU     LIG 1699  39.291  43.593   9.173
    5AU     LIG 1700  38.998  43.605   9.526
    5AU     LIG 1701  38.688  43.887   9.740
    5AU       S 1702  39.852  44.253   8.511
    5AU     LIG 1703  40.037  44.575   8.767
    5AU     LIG 1704  40.397  44.463   9.001
    5AU     LIG 1705  40.670  44.113   9.115
    5AU       S 1706  40.521  44.112   8.223
    5AU     LIG 1707  40.720  44.290   8.611
    5AU     LIG 1708  40.863  44.637   8.852
    5AU     LIG 1709  41.154  44.804   9.197
    5AU       S 1710  39.991  43.847   6.362
    5AU     LIG 1711  40.135  43.782   5.907
    5AU     LIG 1712  40.325  43.400   5.736
    5AU     LIG 1713  40.484  43.104   5.411
    5AU       S 1714  40.278  44.318   6.709
    5AU     LIG 1715  40.351  44.774   6.640
    5AU     LIG 1716  40.644  44.987   6.362
    5AU     LIG 1717  40.778   0.043   5.910
    5AU       S 1718  40.531  43.031   6.855
    5AU     LIG 1719  40.833  42.761   6.646
    5AU     LIG 1720  40.823  42.402   6.366
    5AU     LIG 1721  40.805  41.964   6.256
    5AU       S 1722  39.872  43.602   6.288
    5AU     LIG 1723  39.842  43.316   5.939
    5AU     LIG 1724  39.948  43.107   5.545
    5AU     LIG 1725  40.071  43.263   5.141
    5AU       S 1726  39.304  43.505   6.334
    5AU     LIG 1727  39.168  43.477   5.922
    5AU     LIG 1728  39.409  43.265   5.632
    5AU     LIG 1729  39.564  43.275   5.235
    5AU       S 1730  39.697  43.830   6.384
    5AU     LIG 1731  39.591  43.767   5.901
    5AU     LIG 1732  39.843  43.620   5.518
    5AU     LIG 1733  40.269  43.706   5.336
    5AU       S 1734  39.036  43.754   8.633
    5AU     LIG 1735  38.832  43.799   9.017
    5AU     LIG 1736  38.575  43.524   9.241
    5AU     LIG 1737  38.535  43.398   9.656
    5AU       S 1738  38.916  44.389   8.174
    5AU     LIG 1739  38.734  44.605   8.497
    5AU     LIG 1740  38.595  44.514   8.901
    5AU     LIG 1741  38.535  44.766   9.230
    5AU       S 1742  38.940  43.121   8.450
    5AU     LIG 1743  38.466  43.079   8.376
    5AU     LIG 1744  38.166  42.749   8.480
    5AU     LIG 1745  38.130  42.486   8.864
    5AU       S 1746  39.238  43.495   8.644
    5AU     LIG 1747  38.952  43.302   8.930
    5AU     LIG 1748  38.883  43.113   9.338
    5AU     LIG 1749  38.982  43.137   9.781
    5AU       S 1750  39.025  43.472   6.428
    5AU     LIG 1751  38.814  43.132   6.202
    5AU     LIG 1752  38.788  43.179   5.743
    5AU     LIG 1753  38.844  43.567   5.491
    5AU       S 1754  38.910  42.808   6.848
    5AU     LIG 1755  38.673  42.605   6.513
    5AU     LIG 1756  38.532  42.408   6.140
    5AU     LIG 1757  38.564  42.036   5.884
    5AU       S 1758  38.821  44.009   6.674
    5AU     LIG 1759  38.458  44.324   6.733
    5AU     LIG 1760  38.263  44.593   6.430
    5AU     LIG 1761  38.160  44.590   5.975
    5AU       S 1762  39.207  43.740   6.449
    5AU     LIG 1763  38.972  43.919   6.136
    5AU     LIG 1764  39.105  43.960   5.706
    5AU     LIG 1765  39.350  43.725   5.403
    5AU       S 1766  40.468  44.298   6.916
    5AU     LIG 1767  40.769  44.485   6.584
    5AU     LIG 1768  41.034  44.677   6.234
    5AU     LIG 1769  41.471  44.811   6.130
    5AU       S 1770  40.604  44.287   7.413
    5AU     LIG 1771  41.051  44.519   7.351
    5AU     LIG 1772  41.500  44.531   7.502
    5AU     LIG 1773  41.825  44.816   7.706
    5AU       S 1774  40.828  44.045   7.413
    5AU     LIG 1775  41.287  44.041   7.452
    5AU     LIG 1776  41.674  44.113   7.234
    5AU     LIG 1777  41.842  44.505   7.044
    5AU       S 1778  40.726  42.991   7.660
    5AU     LIG 1779  41.097  42.872   7.796
    5AU     LIG 1780  41.503  42.970   7.720
    5AU     LIG 1781  41.771  42.686   7.670
    5AU       S 1782  40.491  44.341   8.011
    5AU     LIG 1783  40.828  44.609   8.189
    5AU     LIG 1784  40.854  44.998   8.471
    5AU     LIG 1785  40.902   0.153   8.915
    5AU       S 1786  40.753  44.213   7.618
    5AU     LIG 1787  41.148  44.335   7.844
    5AU     LIG 1788  41.615  44.180   7.872
    5AU     LIG 1789  41.976  43.893   8.027
    5AU       S 1790  38.785  44.123   8.194
    5AU     LIG 1791  38.509  44.149   8.533
    5AU     LIG 1792  38.184  44.466   8.609
    5AU     LIG 1793  38.070  44.691   9.021
    5AU       S 1794  38.926  44.548   7.409
    5AU     LIG 1795  38.769  44.924   7.429
    5AU     LIG 1796  38.543  44.951   7.080
    5AU     LIG 1797  38.150  44.787   6.924
    5AU       S 1798  38.424  43.805   6.993
    5AU     LIG 1799  37.935  43.819   7.125
    5AU     LIG 1800  37.510  44.049   7.045
    5AU     LIG 1801  37.328  44.404   6.791
    5AU       S 1802  38.928  44.448   6.897
    5AU     LIG 1803  38.754  44.772   6.653
    5AU     LIG 1804  38.427   0.049   6.575
    5AU     LIG 1805  38.169   0.054   6.206
    5AU       S 1806  38.414  43.216   7.600
    5AU     LIG 1807  38.013  43.359   7.445
    5AU     LIG 1808  37.668  43.234   7.186
    5AU     LIG 1809  37.399  42.878   7.116
    5AU       S 1810  38.479  43.761   7.987
    5AU     LIG 1811  38.150  44.035   8.190
    5AU     LIG 1812  37.739  44.118   8.038
    5AU     LIG 1813  37.632  44.151   7.586
    5AU       S 1814  40.472  42.789   7.576
    5AU     LIG 1815  40.765  42.417   7.487
    5AU     LIG 1816  41.066  42.213   7.780
    5AU     LIG 1817  41.398  42.466   7.964
    5AU       S 1818  40.454  42.878   8.079
    5AU     LIG 1819  40.744  42.563   7.991
    5AU     LIG 1820  41.001  42.467   8.330
    5AU     LIG 1821  40.815  42.222   8.698
    5AU       S 1822  40.661  42.893   7.463
    5AU     LIG 1823  40.927  42.807   7.162
    5AU     LIG 1824  41.307  43.027   7.233
    5AU     LIG 1825  41.742  42.936   7.232
    5AU       S 1826  40.411  42.789   7.058
    5AU     LIG 1827  40.544  42.385   6.868
    5AU     LIG 1828  40.447  41.991   6.644
    5AU     LIG 1829  40.369  41.705   6.274
    5AU       S 1830  38.763  42.933   6.957
    5AU     LIG 1831  38.422  43.019   6.656
    5AU     LIG 1832  38.230  42.819   6.287
    5AU     LIG 1833  38.037  42.486   6.034
    5AU       S 1834  38.536  42.983   7.563
    5AU     LIG 1835  38.171  42.807   7.790
    5AU     LIG 1836  37.770  42.939   7.635
    5AU     LIG 1837  37.356  42.814   7.629
    5AU       S 1838  38.940  42.863   8.349
    5AU     LIG 1839  38.554  42.632   8.139
    5AU     LIG 1840  38.187  42.340   8.162
    5AU     LIG 1841  38.038  42.092   8.516
    5AU       S 1842  38.427  43.289   7.770
    5AU     LIG 1843  38.020  43.262   7.979
    5AU     LIG 1844  37.620  43.054   8.110
    5AU     LIG 1845  37.269  42.793   8.129
    5AU       S 1846  38.930  44.547   7.894
    5AU     LIG 1847  38.544  44.794   7.878
    5AU     LIG 1848  38.343  44.814   8.260
    5AU     LIG 1849  38.377  44.958   8.701
    5AU       S 1850  39.778  44.843   7.947
    5AU     LIG 1851  40.008  44.977   8.335
    5AU     LIG 1852  39.952   0.290   8.673
    5AU     LIG 1853  39.696   0.693   8.630
    5AU       S 1854  39.755  44.998   7.692
    5AU     LIG 1855  39.412   0.275   7.664
    5AU     LIG 1856  39.375   0.625   7.947
    5AU     LIG 1857  39.479   0.980   8.237
    5AU       S 1858  39.773  44.759   7.226
    5AU     LIG 1859  39.845   0.208   7.254
    5AU     LIG 1860  39.741   0.588   7.074
    5AU     LIG 1861  40.011   0.841   6.810
    5AU       S 1862  40.318  44.282   8.317
    5AU     LIG 1863  40.426  44.706   8.477
    5AU     LIG 1864  40.434  44.955   8.849
    5AU     LIG 1865  40.629  44.841   9.266
    5AU       S 1866  40.020  44.782   7.645
    5AU     LIG 1867  40.180   0.227   7.654
    5AU     LIG 1868  39.880   0.512   7.788
    5AU     LIG 1869  39.974   0.521   8.217
    5AU       S 1870  39.810  42.478   8.068
    5AU     LIG 1871  39.923  42.063   8.174
    5AU     LIG 1872  40.041  41.651   8.340
    5AU     LIG 1873  39.842  41.298   8.590
    5AU       S 1874  40.236  42.736   7.999
    5AU     LIG 1875  40.333  42.337   7.782
    5AU     LIG 1876  40.373  41.961   7.992
    5AU     LIG 1877  40.779  42.041   8.215
    5AU       S 1878  39.620  42.378   7.894
    5AU     LIG 1879  39.486  41.974   7.819
    5AU     LIG 1880  39.347  41.599   8.020
    5AU     LIG 1881  39.284  41.180   7.928
    5AU       S 1882  39.210  43.017   8.523
    5AU     LIG 1883  38.908  42.798   8.839
    5AU     LIG 1884  38.603  42.508   8.659
    5AU     LIG 1885  38.463  42.091   8.808
    5AU       S 1886  39.676  42.375   7.368
    5AU     LIG 1887  39.549  41.952   7.267
    5AU     LIG 1888  39.677  41.722   6.910
    5AU     LIG 1889  39.894  41.407   7.126
    5AU       S 1890  39.858  42.476   7.812
    5AU     LIG 1891  39.952  42.042   7.640
    5AU     LIG 1892  39.888  41.653   7.850
    5AU     LIG 1893  39.771  41.271   8.079
    5AU       S 1894  39.608  44.779   7.033
    5AU     LIG 1895  39.559   0.160   6.826
    5AU     LIG 1896  39.804   0.436   6.572
    5AU     LIG 1897  39.742   0.786   6.290
    5AU       S 1898  40.305  44.477   7.065
    5AU     LIG 1899  40.706  44.766   7.018
    5AU     LIG 1900  41.046  44.930   6.693
    5AU     LIG 1901  41.154   0.191   6.268
    5AU       S 1902  39.378  44.765   7.214
    5AU     LIG 1903  39.076   0.028   7.012
    5AU     LIG 1904  39.145   0.467   6.898
    5AU     LIG 1905  39.426   0.766   6.701
    5AU       S 1906  39.030  44.189   6.620
    5AU     LIG 1907  38.739  44.382   6.301
    5AU     LIG 1908  38.631  44.808   6.143
    5AU     LIG 1909  38.817   0.207   6.275
    5AU       S 1910  38.815  42.748   7.174
    5AU     LIG 1911  38.384  42.582   6.946
    5AU     LIG 1912  38.179  42.370   6.546
    5AU     LIG 1913  38.160  42.022   6.210
    5AU       S 1914  39.778  42.382   7.146
    5AU     LIG 1915  40.011  42.237   6.768
    5AU     LIG 1916  39.914  41.908   6.451
    5AU     LIG 1917  39.681  41.472   6.437
    5AU       S 1918  40.014  42.487   7.351
    5AU     LIG 1919  40.299  42.171   7.269
    5AU     LIG 1920  40.170  41.832   7.037
    5AU     LIG 1921  40.137  41.536   6.700
    5AU       S 1922  40.341  42.887   6.765
    5AU     LIG 1923  40.356  42.615   6.441
    5AU     LIG 1924  40.315  42.236   6.232
    5AU     LIG 1925  40.207  42.038   5.850
    6AU     AUC 1926  18.290  31.130   7.524
    6AU     AUC 1927  18.542  31.120   7.360
    6AU     AUC 1928  18.550  31.131   7.681
    6AU     AUC 1929  18.025  31.122   7.373
    6AU     AUC 1930  18.034  31.152   7.690
    6AU     AUC 1931  18.139  31.386   7.505
    6AU     AUC 1932  18.460  31.385   7.505
    6AU     AUC 1933  18.123  30.876   7.547
    6AU     AUC 1934  18.441  30.869   7.533
    6AU     AUC 1935  18.288  30.990   7.792
    6AU     AUC 1936  18.306  31.309   7.770
    6AU     AUC 1937  18.280  30.955   7.276
    6AU     AUC 1938  18.284  31.271   7.255
    6AU     AUC 1939  18.791  31.121   7.194
    6AU     AUC 1940  18.808  31.116   7.523
    6AU     AUC 1941  18.815  31.114   7.836
    6AU     AUC 1942  17.768  31.104   7.220
    6AU     AUC 1943  17.766  31.150   7.543
    6AU     AUC 1944  17.785  31.187   7.859
    6AU     AUC 1945  17.986  31.645   7.477
    6AU     AUC 1946  18.322  31.647   7.469
    6AU     AUC 1947  18.631  31.644   7.483
    6AU     AUC 1948  17.955  30.624   7.572
    6AU     AUC 1949  18.284  30.610   7.547
    6AU     AUC 1950  18.596  30.604   7.540
    6AU     AUC 1951  18.288  30.849   8.061
    6AU     AUC 1952  18.297  31.172   8.053
    6AU     AUC 1953  18.326  31.490   8.016
    6AU     AUC 1954  18.289  30.781   7.026
    6AU     AUC 1955  18.273  31.095   7.004
    6AU     AUC 1956  18.273  31.408   6.986
    6AU     AUC 1957  18.543  30.977   7.952
    6AU     AUC 1958  18.574  31.302   7.933
    6AU     AUC 1959  18.548  30.958   7.096
    6AU     AUC 1960  18.535  31.277   7.086
    6AU     AUC 1961  18.036  31.020   7.968
    6AU     AUC 1962  18.044  31.340   7.941
    6AU     AUC 1963  18.018  30.929   7.127
    6AU     AUC 1964  18.009  31.249   7.093
    6AU     AUC 1965  18.718  31.375   7.349
    6AU     AUC 1966  18.740  31.388   7.670
    6AU     AUC 1967  17.865  31.392   7.340
    6AU     AUC 1968  17.877  31.430   7.670
    6AU     AUC 1969  18.690  30.848   7.359
    6AU     AUC 1970  18.700  30.855   7.689
    6AU     AUC 1971  17.853  30.860   7.409
    6AU     AUC 1972  17.858  30.891   7.724
    6AU     AUC 1973  18.153  31.565   7.764
    6AU     AUC 1974  18.489  31.570   7.750
    6AU     AUC 1975  18.120  30.732   7.820
    6AU     AUC 1976  18.440  30.716   7.804
    6AU     AUC 1977  18.123  31.536   7.230
    6AU     AUC 1978  18.459  31.539   7.232
    6AU     AUC 1979  18.117  30.686   7.296
    6AU     AUC 1980  18.452  30.693   7.273
    6AU    AUSL 1981  18.719  31.081   8.146
    6AU    AUSL 1982  18.593  30.735   8.135
    6AU     AUL 1983  18.984  30.884   8.267
    6AU    AUSL 1984  18.400  30.998   8.281
    6AU    AUSL 1985  18.182  31.359   8.274
    6AU     AUL 1986  18.460  31.270   8.556
    6AU    AUSL 1987  18.517  31.372   8.221
    6AU    AUSL 1988  18.874  31.366   8.005
    6AU     AUL 1989  18.849  31.285   8.398
    6AU    AUSL 1990  18.710  31.184   6.888
    6AU    AUSL 1991  18.588  31.530   6.909
    6AU     AUL 1992  18.951  31.384   6.738
    6AU    AUSL 1993  18.500  30.936   6.794
    6AU    AUSL 1994  18.848  30.876   7.018
    6AU     AUL 1995  18.868  30.977   6.650
    6AU    AUSL 1996  18.365  31.244   6.773
    6AU    AUSL 1997  18.153  30.907   6.813
    6AU     AUL 1998  18.364  30.782   6.579
    6AU    AUSL 1999  17.859  31.288   8.158
    6AU    AUSL 2000  18.037  31.612   8.045
    6AU     AUL 2001  17.987  31.644   8.374
    6AU    AUSL 2002  18.051  31.022   8.256
    6AU    AUSL 2003  17.787  30.918   8.036
    6AU     AUL 2004  17.589  31.092   8.205
    6AU    AUSL 2005  17.833  30.969   6.904
    6AU    AUSL 2006  17.983  30.642   7.019
    6AU     AUL 2007  17.995  30.631   6.673
    6AU    AUSL 2008  18.015  31.236   6.818
    6AU    AUSL 2009  17.735  31.367   7.031
    6AU     AUL 2010  17.569  31.101   6.893
    6AU    AUSL 2011  18.952  31.544   7.435
    6AU    AUSL 2012  18.857  31.408   7.107
    6AU     AUL 2013  19.172  31.319   7.050
    6AU    AUSL 2014  19.045  31.220   7.355
    6AU    AUSL 2015  19.040  30.944   7.662
    6AU     AUL 2016  19.355  31.013   7.468
    6AU    AUSL 2017  19.035  31.282   7.697
    6AU    AUSL 2018  18.802  31.697   7.731
    6AU     AUL 2019  19.075  31.559   7.801
    6AU    AUSL 2020  17.709  31.631   7.502
    6AU    AUSL 2021  17.717  31.494   7.919
    6AU     AUL 2022  17.401  31.657   7.684
    6AU    AUSL 2023  17.563  31.314   7.315
    6AU    AUSL 2024  17.835  31.681   7.178
    6AU     AUL 2025  17.471  31.621   7.227
    6AU    AUSL 2026  17.553  31.316   7.683
    6AU    AUSL 2027  17.544  31.002   7.438
    6AU     AUL 2028  17.252  31.276   7.471
    6AU    AUSL 2029  18.892  30.646   7.585
    6AU    AUSL 2030  18.851  30.827   7.927
    6AU     AUL 2031  19.196  30.858   7.904
    6AU    AUSL 2032  18.910  30.902   7.352
    6AU    AUSL 2033  18.779  30.579   7.242
    6AU     AUL 2034  19.134  30.794   7.247
    6AU    AUSL 2035  17.627  30.693   7.565
    6AU    AUSL 2036  17.699  30.815   7.173
    6AU     AUL 2037  17.364  30.882   7.226
    6AU    AUSL 2038  17.563  30.989   7.782
    6AU    AUSL 2039  17.819  30.604   7.871
    6AU     AUL 2040  17.519  30.688   7.946
    6AU    AUSL 2041  18.329  31.797   7.934
    6AU    AUSL 2042  17.891  31.778   7.770
    6AU     AUL 2043  18.081  31.960   8.101
    6AU    AUSL 2044  18.191  31.743   7.611
    6AU    AUSL 2045  18.444  31.889   7.318
    6AU     AUL 2046  18.176  32.058   7.615
    6AU    AUSL 2047  18.524  31.884   7.645
    6AU    AUSL 2048  18.623  31.618   8.020
    6AU     AUL 2049  18.653  31.956   7.958
    6AU    AUSL 2050  18.316  30.536   7.984
    6AU    AUSL 2051  18.655  30.541   7.847
    6AU     AUL 2052  18.443  30.467   8.262
    6AU    AUSL 2053  18.079  30.434   7.745
    6AU    AUSL 2054  18.053  30.701   8.135
    6AU     AUL 2055  18.010  30.338   8.064
    6AU    AUSL 2056  18.399  30.374   7.677
    6AU    AUSL 2057  18.146  30.389   7.404
    6AU     AUL 2058  17.945  30.196   7.596
    6AU    AUSL 2059  18.304  31.698   7.062
    6AU    AUSL 2060  18.712  31.704   7.220
    6AU     AUL 2061  18.513  31.874   6.913
    6AU    AUSL 2062  18.094  31.868   7.300
    6AU    AUSL 2063  18.023  31.555   6.913
    6AU     AUL 2064  18.076  31.888   6.920
    6AU    AUSL 2065  18.282  30.482   7.095
    6AU    AUSL 2066  17.829  30.524   7.330
    6AU     AUL 2067  18.000  30.267   7.094
    6AU    AUSL 2068  18.509  30.402   7.358
    6AU    AUSL 2069  18.566  30.660   6.973
    6AU     AUL 2070  18.559  30.340   6.986
    6AU       S 2071  18.930  30.347   8.284
    6AU     LIG 2072  19.055  29.860   8.252
    6AU     LIG 2073  19.069  29.399   8.335
    6AU     LIG 2074  19.277  29.351   8.728
    6AU       S 2075  18.694  30.810   8.677
    6AU     LIG 2076  18.883  30.981   9.073
    6AU     LIG 2077  19.164  31.019   9.448
    6AU     LIG 2078  19.498  30.946   9.774
    6AU       S 2079  18.357  30.782   8.682
    6AU     LIG 2080  18.397  30.795   9.151
    6AU     LIG 2081  18.723  30.720   9.506
    6AU     LIG 2082  19.130  30.560   9.715
    6AU       S 2083  17.989  31.276   8.740
    6AU     LIG 2084  17.989  31.150   9.156
    6AU     LIG 2085  17.670  31.090   9.452
    6AU     LIG 2086  17.536  31.174   9.900
    6AU       S 2087  18.522  31.777   8.519
    6AU     LIG 2088  18.789  31.972   8.835
    6AU     LIG 2089  19.080  31.862   9.159
    6AU     LIG 2090  19.489  31.685   9.187
    6AU       S 2091  19.184  31.669   8.277
    6AU     LIG 2092  19.334  31.810   8.691
    6AU     LIG 2093  19.689  32.036   8.854
    6AU     LIG 2094  19.925  32.383   9.052
    6AU       S 2095  18.641  31.378   6.344
    6AU     LIG 2096  18.828  31.299   5.911
    6AU     LIG 2097  19.005  30.925   5.686
    6AU     LIG 2098  19.115  30.485   5.547
    6AU       S 2099  18.991  31.900   6.782
    6AU     LIG 2100  19.144  32.303   6.631
    6AU     LIG 2101  19.213  32.434   6.197
    6AU     LIG 2102  19.566  32.576   5.939
    6AU       S 2103  19.152  30.560   6.791
    6AU     LIG 2104  19.395  30.355   6.446
    6AU     LIG 2105  19.414  29.982   6.159
    6AU     LIG 2106  19.453  29.509   6.136
    6AU       S 2107  18.518  31.150   6.286
    6AU     LIG 2108  18.541  30.864   5.964
    6AU     LIG 2109  18.571  30.662   5.581
    6AU     LIG 2110  18.808  30.749   5.224
    6AU       S 2111  17.990  31.039   6.331
    6AU     LIG 2112  17.910  30.989   5.902
    6AU     LIG 2113  18.080  30.866   5.497
    6AU     LIG 2114  17.974  30.971   5.042
    6AU       S 2115  18.362  31.391   6.392
    6AU     LIG 2116  18.261  31.352   5.911
    6AU     LIG 2117  18.492  31.178   5.542
    6AU     LIG 2118  18.887  31.278   5.331
    6AU       S 2119  17.733  31.283   8.642
    6AU     LIG 2120  17.477  31.164   8.947
    6AU     LIG 2121  17.270  30.853   9.160
    6AU     LIG 2122  17.219  30.907   9.603
    6AU       S 2123  17.577  31.924   8.194
    6AU     LIG 2124  17.328  32.169   8.495
    6AU     LIG 2125  17.128  32.157   8.912
    6AU     LIG 2126  16.922  32.470   9.190
    6AU       S 2127  17.625  30.656   8.462
    6AU     LIG 2128  17.185  30.621   8.560
    6AU     LIG 2129  16.839  30.389   8.401
    6AU     LIG 2130  16.632  30.001   8.468
    6AU       S 2131  17.920  31.022   8.646
    6AU     LIG 2132  17.761  30.743   8.961
    6AU     LIG 2133  17.654  30.575   9.345
    6AU     LIG 2134  17.761  30.680   9.757
    6AU       S 2135  17.710  30.994   6.418
    6AU     LIG 2136  17.614  30.623   6.146
    6AU     LIG 2137  17.622  30.634   5.672
    6AU     LIG 2138  17.599  31.018   5.396
    6AU       S 2139  17.581  30.375   6.838
    6AU     LIG 2140  17.575  30.089   6.501
    6AU     LIG 2141  17.375  29.942   6.123
    6AU     LIG 2142  17.089  29.636   5.927
    6AU       S 2143  17.491  31.550   6.675
    6AU     LIG 2144  17.113  31.846   6.750
    6AU     LIG 2145  16.952  32.176   6.477
    6AU     LIG 2146  16.869  32.178   6.040
    6AU       S 2147  17.880  31.277   6.445
    6AU     LIG 2148  17.637  31.434   6.133
    6AU     LIG 2149  17.719  31.424   5.696
    6AU     LIG 2150  18.037  31.376   5.377
    6AU       S 2151  19.157  31.825   6.971
    6AU     LIG 2152  19.529  31.984   6.781
    6AU     LIG 2153  19.633  32.209   6.393
    6AU     LIG 2154  19.983  32.332   6.140
    6AU       S 2155  19.333  31.774   7.423
    6AU     LIG 2156  19.681  32.060   7.395
    6AU     LIG 2157  20.127  32.056   7.453
    6AU     LIG 2158  20.494  31.906   7.192
    6AU       S 2159  19.488  31.544   7.360
    6AU     LIG 2160  19.952  31.596   7.355
    6AU     LIG 2161  20.379  31.543   7.531
    6AU     LIG 2162  20.807  31.513   7.386
    6AU       S 2163  19.381  30.478   7.636
    6AU     LIG 2164  19.808  30.401   7.781
    6AU     LIG 2165  20.280  30.548   7.779
    6AU     LIG 2166  20.661  30.305   7.922
    6AU       S 2167  19.155  31.965   8.065
    6AU     LIG 2168  19.538  32.097   8.296
    6AU     LIG 2169  19.595  32.463   8.595
    6AU     LIG 2170  19.517  32.697   9.009
    6AU       S 2171  19.518  31.498   7.607
    6AU     LIG 2172  19.778  31.797   7.823
    6AU     LIG 2173  20.216  31.824   7.927
    6AU     LIG 2174  20.669  31.723   7.964
    6AU       S 2175  17.457  31.654   8.210
    6AU     LIG 2176  17.099  31.710   8.463
    6AU     LIG 2177  16.809  32.048   8.512
    6AU     LIG 2178  16.449  32.177   8.742
    6AU       S 2179  17.606  32.103   7.422
    6AU     LIG 2180  17.534  32.526   7.356
    6AU     LIG 2181  17.184  32.457   7.087
    6AU     LIG 2182  16.793  32.245   6.964
    6AU       S 2183  17.119  31.342   6.974
    6AU     LIG 2184  16.713  31.132   6.891
    6AU     LIG 2185  16.421  31.355   7.101
    6AU     LIG 2186  16.605  31.795   7.183
    6AU       S 2187  17.586  31.992   6.891
    6AU     LIG 2188  17.601  32.440   6.794
    6AU     LIG 2189  17.247  32.660   6.594
    6AU     LIG 2190  17.013  32.659   6.189
    6AU       S 2191  17.070  30.784   7.616
    6AU     LIG 2192  16.731  30.878   7.335
    6AU     LIG 2193  16.309  30.817   7.154
    6AU     LIG 2194  15.977  30.515   6.985
    6AU       S 2195  17.146  31.303   7.988
    6AU     LIG 2196  16.750  31.375   8.245
    6AU     LIG 2197  16.439  31.725   8.287
    6AU     LIG 2198  16.534  32.135   8.087
    6AU       S 2199  19.109  30.291   7.561
    6AU     LIG 2200  19.360  29.860   7.522
    6AU     LIG 2201  19.789  29.860   7.691
    6AU     LIG 2202  20.191  30.059   7.818
    6AU       S 2203  19.105  30.384   8.069
    6AU     LIG 2204  19.417  30.089   7.969
    6AU     LIG 2205  19.796  29.940   8.189
    6AU     LIG 2206  19.846  29.828   8.634
    6AU       S 2207  19.294  30.366   7.417
    6AU     LIG 2208  19.680  30.190   7.306
    6AU     LIG 2209  20.091  30.320   7.358
    6AU     LIG 2210  20.296  30.732   7.279
    6AU       S 2211  19.068  30.336   6.981
    6AU     LIG 2212  19.178  29.977   6.739
    6AU     LIG 2213  19.187  29.541   6.720
    6AU     LIG 2214  19.187  29.171   6.449
    6AU       S 2215  17.437  30.518   6.896
    6AU     LIG 2216  17.203  30.434   6.500
    6AU     LIG 2217  16.934  30.106   6.341
    6AU     LIG 2218  16.494  30.044   6.240
    6AU       S 2219  17.191  30.535   7.593
    6AU     LIG 2220  16.777  30.408   7.777
    6AU     LIG 2221  16.524  30.393   7.412
    6AU     LIG 2222  16.422  30.236   6.986
    6AU       S 2223  17.590  30.389   8.335
    6AU     LIG 2224  17.209  30.139   8.130
    6AU     LIG 2225  16.966  29.727   8.163
    6AU     LIG 2226  16.942  29.365   8.470
    6AU       S 2227  17.085  30.846   7.771
    6AU     LIG 2228  16.829  30.854   8.144
    6AU     LIG 2229  16.424  31.008   8.070
    6AU     LIG 2230  16.388  30.801   7.688
    6AU       S 2231  17.624  32.092   7.913
    6AU     LIG 2232  17.425  32.472   8.067
    6AU     LIG 2233  17.005  32.487   8.243
    6AU     LIG 2234  16.906  32.538   8.666
    6AU       S 2235  18.375  32.371   7.979
    6AU     LIG 2236  18.576  32.707   8.202
    6AU     LIG 2237  18.392  33.036   8.463
    6AU     LIG 2238  18.056  33.298   8.606
    6AU       S 2239  18.305  32.576   7.749
    6AU     LIG 2240  18.083  32.798   8.106
    6AU     LIG 2241  18.061  33.236   8.083
    6AU     LIG 2242  18.235  33.334   7.686
    6AU       S 2243  18.464  32.299   7.227
    6AU     LIG 2244  18.458  32.747   7.292
    6AU     LIG 2245  18.340  33.163   7.207
    6AU     LIG 2246  18.476  33.517   6.966
    6AU       S 2247  18.970  31.822   8.320
    6AU     LIG 2248  19.088  32.222   8.506
    6AU     LIG 2249  19.231  32.283   8.920
    6AU     LIG 2250  19.488  32.218   9.303
    6AU       S 2251  18.589  32.388   7.690
    6AU     LIG 2252  18.706  32.868   7.732
    6AU     LIG 2253  18.591  33.211   8.027
    6AU     LIG 2254  18.432  33.540   8.329
    6AU       S 2255  18.449  30.006   8.063
    6AU     LIG 2256  18.618  29.598   8.163
    6AU     LIG 2257  18.426  29.227   8.334
    6AU     LIG 2258  18.374  28.895   8.677
    6AU       S 2259  18.879  30.253   7.991
    6AU     LIG 2260  18.925  29.870   7.766
    6AU     LIG 2261  19.077  29.501   7.824
    6AU     LIG 2262  19.468  29.562   8.022
    6AU       S 2263  18.231  29.913   7.901
    6AU     LIG 2264  17.944  29.564   7.901
    6AU     LIG 2265  17.899  29.177   8.135
    6AU     LIG 2266  17.882  28.825   8.422
    6AU       S 2267  17.869  30.539   8.517
    6AU     LIG 2268  17.529  30.304   8.815
    6AU     LIG 2269  17.167  30.039   8.650
    6AU     LIG 2270  16.885  29.717   8.846
    6AU       S 2271  18.295  29.901   7.363
    6AU     LIG 2272  18.292  29.427   7.264
    6AU     LIG 2273  18.445  29.046   7.075
    6AU     LIG 2274  18.564  28.606   7.022
    6AU       S 2275  18.469  30.018   7.812
    6AU     LIG 2276  18.518  29.588   7.681
    6AU     LIG 2277  18.284  29.214   7.741
    6AU     LIG 2278  18.284  28.874   7.999
    6AU       S 2279  18.300  32.324   7.015
    6AU     LIG 2280  18.326  32.709   6.789
    6AU     LIG 2281  18.537  33.090   6.704
    6AU     LIG 2282  18.647  33.486   6.438
    6AU       S 2283  18.979  32.015   7.126
    6AU     LIG 2284  19.327  32.314   7.118
    6AU     LIG 2285  19.608  32.504   6.815
    6AU     LIG 2286  19.785  32.707   6.449
    6AU       S 2287  18.071  32.331   7.203
    6AU     LIG 2288  17.961  32.765   7.137
    6AU     LIG 2289  17.983  33.114   6.844
    6AU     LIG 2290  18.150  33.388   6.548
    6AU       S 2291  17.703  31.725   6.616
    6AU     LIG 2292  17.398  31.910   6.319
    6AU     LIG 2293  17.396  32.333   6.193
    6AU     LIG 2294  17.706  32.650   6.314
    6AU       S 2295  17.472  30.328   7.152
    6AU     LIG 2296  17.191  30.058   6.889
    6AU     LIG 2297  17.205  29.739   6.581
    6AU     LIG 2298  17.367  29.416   6.300
    6AU       S 2299  18.384  29.906   7.135
    6AU     LIG 2300  18.704  29.728   6.831
    6AU     LIG 2301  18.717  29.352   6.563
    6AU     LIG 2302  18.622  28.894   6.594
    6AU       S 2303  18.627  29.981   7.351
    6AU     LIG 2304  18.922  29.627   7.286
    6AU     LIG 2305  18.934  29.223   7.011
    6AU     LIG 2306  19.099  28.827   6.810
    6AU       S 2307  18.927  30.447   6.673
    6AU     LIG 2308  18.932  30.160   6.324
    6AU     LIG 2309  18.983  29.716   6.284
    6AU     LIG 2310  18.958  29.348   6.016
    7AU     AUC 2311  36.787  24.254   7.540
    7AU     AUC 2312  37.037  24.251   7.370
    7AU     AUC 2313  37.045  24.256   7.692
    7AU     AUC 2314  36.522  24.241   7.392
    7AU     AUC 2315  36.534  24.269   7.710
    7AU     AUC 2316  36.633  24.508   7.528
    7AU     AUC 2317  36.951  24.511   7.522
    7AU     AUC 2318  36.628  23.995   7.562
    7AU     AUC 2319  36.944  23.995   7.544
    7AU     AUC 2320  36.792  24.110   7.807
    7AU     AUC 2321  36.801  24.429   7.790
    7AU     AUC 2322  36.780  24.081   7.290
    7AU     AUC 2323  36.778  24.398   7.273
    7AU     AUC 2324  37.290  24.264   7.200
    7AU     AUC 2325  37.296  24.248   7.522
    7AU     AUC 2326  37.302  24.242   7.847
    7AU     AUC 2327  36.264  24.218   7.241
    7AU     AUC 2328  36.263  24.259   7.564
    7AU     AUC 2329  36.290  24.298   7.883
    7AU     AUC 2330  36.478  24.762   7.506
    7AU     AUC 2331  36.813  24.769   7.498
    7AU     AUC 2332  37.127  24.770   7.503
    7AU     AUC 2333  36.468  23.737   7.586
    7AU     AUC 2334  36.795  23.733   7.557
    7AU     AUC 2335  37.110  23.736   7.547
    7AU     AUC 2336  36.798  23.968   8.076
    7AU     AUC 2337  36.800  24.291   8.072
    7AU     AUC 2338  36.827  24.608   8.039
    7AU     AUC 2339  36.794  23.912   7.040
    7AU     AUC 2340  36.769  24.226   7.019
    7AU     AUC 2341  36.761  24.538   7.006
    7AU     AUC 2342  37.046  24.100   7.966
    7AU     AUC 2343  37.073  24.421   7.951
    7AU     AUC 2344  37.049  24.095   7.107
    7AU     AUC 2345  37.027  24.413   7.098
    7AU     AUC 2346  36.541  24.135   7.987
    7AU     AUC 2347  36.546  24.459   7.964
    7AU     AUC 2348  36.518  24.052   7.144
    7AU     AUC 2349  36.503  24.372   7.113
    7AU     AUC 2350  37.208  24.512   7.356
    7AU     AUC 2351  37.215  24.518   7.680
    7AU     AUC 2352  36.358  24.508   7.364
    7AU     AUC 2353  36.373  24.543   7.695
    7AU     AUC 2354  37.196  23.985   7.366
    7AU     AUC 2355  37.206  23.989   7.697
    7AU     AUC 2356  36.352  23.974   7.425
    7AU     AUC 2357  36.367  24.003   7.744
    7AU     AUC 2358  36.650  24.686   7.789
    7AU     AUC 2359  36.989  24.688   7.772
    7AU     AUC 2360  36.634  23.848   7.834
    7AU     AUC 2361  36.951  23.839   7.813
    7AU     AUC 2362  36.610  24.659   7.257
    7AU     AUC 2363  36.946  24.671   7.253
    7AU     AUC 2364  36.623  23.809   7.308
    7AU     AUC 2365  36.960  23.825   7.283
    7AU    AUSL 2366  37.222  24.205   8.161
    7AU    AUSL 2367  37.105  23.858   8.143
    7AU     AUL 2368  37.489  24.015   8.280
    7AU    AUSL 2369  36.907  24.118   8.298
    7AU    AUSL 2370  36.686  24.474   8.294
    7AU     AUL 2371  36.957  24.396   8.579
    7AU    AUSL 2372  37.021  24.490   8.245
    7AU    AUSL 2373  37.384  24.483   8.014
    7AU     AUL 2374  37.358  24.411   8.411
    7AU    AUSL 2375  37.207  24.327   6.895
    7AU    AUSL 2376  37.066  24.673   6.924
    7AU     AUL 2377  37.435  24.545   6.749
    7AU    AUSL 2378  37.001  24.074   6.810
    7AU    AUSL 2379  37.352  24.021   7.027
    7AU     AUL 2380  37.361  24.114   6.656
    7AU    AUSL 2381  36.859  24.378   6.786
    7AU    AUSL 2382  36.658  24.039   6.827
    7AU     AUL 2383  36.881  23.915   6.596
    7AU    AUSL 2384  36.365  24.404   8.182
    7AU    AUSL 2385  36.537  24.739   8.070
    7AU     AUL 2386  36.509  24.757   8.405
    7AU    AUSL 2387  36.557  24.137   8.274
    7AU    AUSL 2388  36.292  24.024   8.059
    7AU     AUL 2389  36.097  24.209   8.219
    7AU    AUSL 2390  36.340  24.087   6.923
    7AU    AUSL 2391  36.490  23.768   7.034
    7AU     AUL 2392  36.545  23.746   6.699
    7AU    AUSL 2393  36.509  24.364   6.835
    7AU    AUSL 2394  36.229  24.487   7.058
    7AU     AUL 2395  36.075  24.229   6.909
    7AU    AUSL 2396  37.441  24.690   7.439
    7AU    AUSL 2397  37.346  24.556   7.114
    7AU     AUL 2398  37.676  24.498   7.060
    7AU    AUSL 2399  37.547  24.371   7.355
    7AU    AUSL 2400  37.542  24.108   7.674
    7AU     AUL 2401  37.863  24.211   7.501
    7AU    AUSL 2402  37.432  24.437   7.673
    7AU    AUSL 2403  37.334  24.780   7.762
    7AU     AUL 2404  37.660  24.496   7.773
    7AU    AUSL 2405  36.197  24.739   7.526
    7AU    AUSL 2406  36.219  24.607   7.947
    7AU     AUL 2407  35.900  24.766   7.720
    7AU    AUSL 2408  36.063  24.420   7.343
    7AU    AUSL 2409  36.321  24.801   7.206
    7AU     AUL 2410  35.958  24.729   7.251
    7AU    AUSL 2411  36.056  24.423   7.715
    7AU    AUSL 2412  36.025  24.105   7.454
    7AU     AUL 2413  35.760  24.415   7.509
    7AU    AUSL 2414  37.410  23.798   7.594
    7AU    AUSL 2415  37.359  23.960   7.934
    7AU     AUL 2416  37.694  24.026   7.924
    7AU    AUSL 2417  37.420  24.050   7.361
    7AU    AUSL 2418  37.293  23.723   7.252
    7AU     AUL 2419  37.644  23.959   7.252
    7AU    AUSL 2420  36.144  23.795   7.593
    7AU    AUSL 2421  36.191  23.934   7.183
    7AU     AUL 2422  35.865  23.852   7.300
    7AU    AUSL 2423  36.073  24.092   7.801
    7AU    AUSL 2424  36.350  23.718   7.892
    7AU     AUL 2425  36.053  23.761   7.944
    7AU    AUSL 2426  36.839  24.914   7.966
    7AU    AUSL 2427  36.379  24.890   7.788
    7AU     AUL 2428  36.577  25.104   8.071
    7AU    AUSL 2429  36.691  24.874   7.647
    7AU    AUSL 2430  36.922  25.019   7.357
    7AU     AUL 2431  36.674  25.191   7.671
    7AU    AUSL 2432  37.045  24.983   7.670
    7AU    AUSL 2433  37.128  24.727   8.037
    7AU     AUL 2434  37.172  25.050   7.982
    7AU    AUSL 2435  36.832  23.655   7.992
    7AU    AUSL 2436  37.171  23.669   7.851
    7AU     AUL 2437  36.967  23.584   8.269
    7AU    AUSL 2438  36.597  23.538   7.756
    7AU    AUSL 2439  36.573  23.817   8.157
    7AU     AUL 2440  36.538  23.451   8.088
    7AU    AUSL 2441  36.918  23.499   7.680
    7AU    AUSL 2442  36.660  23.516   7.411
    7AU     AUL 2443  36.469  23.306   7.592
    7AU    AUSL 2444  36.782  24.825   7.102
    7AU    AUSL 2445  37.190  24.845   7.233
    7AU     AUL 2446  36.966  25.017   6.946
    7AU    AUSL 2447  36.572  24.989   7.342
    7AU    AUSL 2448  36.510  24.680   6.938
    7AU     AUL 2449  36.558  25.010   6.950
    7AU    AUSL 2450  36.795  23.612   7.102
    7AU    AUSL 2451  36.334  23.641   7.334
    7AU     AUL 2452  36.518  23.390   7.101
    7AU    AUSL 2453  37.026  23.536   7.362
    7AU    AUSL 2454  37.076  23.797   6.985
    7AU     AUL 2455  37.078  23.479   6.992
    7AU       S 2456  37.458  23.480   8.277
    7AU     LIG 2457  37.593  23.017   8.295
    7AU     LIG 2458  37.689  22.583   8.408
    7AU     LIG 2459  38.002  22.333   8.655
    7AU       S 2460  37.205  23.940   8.694
    7AU     LIG 2461  37.343  24.142   9.103
    7AU     LIG 2462  37.560  24.252   9.507
    7AU     LIG 2463  37.912  24.223   9.824
    7AU       S 2464  36.871  23.900   8.689
    7AU     LIG 2465  36.855  23.970   9.152
    7AU     LIG 2466  37.134  23.924   9.545
    7AU     LIG 2467  37.520  23.818   9.806
    7AU       S 2468  36.487  24.380   8.764
    7AU     LIG 2469  36.438  24.283   9.197
    7AU     LIG 2470  36.118  24.326   9.495
    7AU     LIG 2471  36.033  24.592   9.814
    7AU       S 2472  37.061  24.903   8.530
    7AU     LIG 2473  37.175  25.205   8.860
    7AU     LIG 2474  37.448  25.034   9.169
    7AU     LIG 2475  37.883  24.890   9.154
    7AU       S 2476  37.711  24.753   8.210
    7AU     LIG 2477  37.919  24.850   8.607
    7AU     LIG 2478  38.170  25.140   8.806
    7AU     LIG 2479  38.470  25.464   8.821
    7AU       S 2480  37.129  24.508   6.353
    7AU     LIG 2481  37.328  24.394   5.931
    7AU     LIG 2482  37.552  24.000   5.811
    7AU     LIG 2483  37.565  23.538   5.918
    7AU       S 2484  37.427  25.069   6.767
    7AU     LIG 2485  37.571  25.418   6.447
    7AU     LIG 2486  37.845  25.614   6.101
    7AU     LIG 2487  38.221  25.642   5.817
    7AU       S 2488  37.674  23.710   6.802
    7AU     LIG 2489  37.852  23.506   6.393
    7AU     LIG 2490  37.857  23.088   6.191
    7AU     LIG 2491  38.047  22.655   6.250
    7AU       S 2492  36.993  24.280   6.288
    7AU     LIG 2493  37.045  23.954   5.962
    7AU     LIG 2494  37.160  23.798   5.545
    7AU     LIG 2495  37.557  23.707   5.335
    7AU       S 2496  36.481  24.151   6.356
    7AU     LIG 2497  36.546  24.092   5.923
    7AU     LIG 2498  36.639  23.838   5.560
    7AU     LIG 2499  36.508  23.859   5.114
    7AU       S 2500  36.845  24.523   6.411
    7AU     LIG 2501  36.752  24.547   5.943
    7AU     LIG 2502  36.933  24.296   5.595
    7AU     LIG 2503  37.352  24.270   5.413
    7AU       S 2504  36.231  24.398   8.661
    7AU     LIG 2505  35.958  24.336   8.984
    7AU     LIG 2506  35.749  24.054   9.255
    7AU     LIG 2507  35.643  24.061   9.704
    7AU       S 2508  36.094  25.031   8.237
    7AU     LIG 2509  35.903  25.353   8.481
    7AU     LIG 2510  35.804  25.355   8.919
    7AU     LIG 2511  35.439  25.425   9.172
    7AU       S 2512  36.123  23.774   8.474
    7AU     LIG 2513  35.657  23.703   8.502
    7AU     LIG 2514  35.293  23.421   8.412
    7AU     LIG 2515  35.176  23.007   8.585
    7AU       S 2516  36.423  24.135   8.668
    7AU     LIG 2517  36.208  23.883   8.989
    7AU     LIG 2518  36.164  23.818   9.453
    7AU     LIG 2519  36.105  23.986   9.897
    7AU       S 2520  36.212  24.069   6.454
    7AU     LIG 2521  36.137  23.820   6.088
    7AU     LIG 2522  36.117  23.975   5.658
    7AU     LIG 2523  35.891  24.298   5.428
    7AU       S 2524  36.110  23.508   6.808
    7AU     LIG 2525  36.055  23.259   6.441
    7AU     LIG 2526  35.820  23.242   6.060
    7AU     LIG 2527  35.456  22.988   5.917
    7AU       S 2528  35.972  24.677   6.701
    7AU     LIG 2529  35.578  24.940   6.762
    7AU     LIG 2530  35.340  25.250   6.505
    7AU     LIG 2531  35.482  25.410   6.118
    7AU       S 2532  36.361  24.395   6.463
    7AU     LIG 2533  36.100  24.444   6.125
    7AU     LIG 2534  36.253  24.511   5.735
    7AU     LIG 2535  36.450  24.290   5.412
    7AU       S 2536  37.624  24.997   6.971
    7AU     LIG 2537  37.897  25.031   6.569
    7AU     LIG 2538  38.153  25.207   6.196
    7AU     LIG 2539  38.581  25.301   5.988
    7AU       S 2540  37.735  24.992   7.465
    7AU     LIG 2541  38.026  25.320   7.707
    7AU     LIG 2542  38.490  25.261   7.711
    7AU     LIG 2543  38.725  25.205   7.278
    7AU       S 2544  37.969  24.736   7.388
    7AU     LIG 2545  38.421  24.813   7.470
    7AU     LIG 2546  38.805  24.691   7.276
    7AU     LIG 2547  39.106  24.492   7.001
    7AU       S 2548  37.908  23.668   7.652
    7AU     LIG 2549  38.256  23.570   7.945
    7AU     LIG 2550  38.706  23.532   8.059
    7AU     LIG 2551  39.040  23.428   7.807
    7AU       S 2552  37.678  24.989   7.997
    7AU     LIG 2553  37.983  25.226   8.241
    7AU     LIG 2554  38.022  25.555   8.551
    7AU     LIG 2555  38.013  25.816   8.922
    7AU       S 2556  37.915  24.857   7.584
    7AU     LIG 2557  38.187  24.860   7.938
    7AU     LIG 2558  38.629  24.796   7.969
    7AU     LIG 2559  38.903  24.971   7.699
    7AU       S 2560  35.961  24.770   8.254
    7AU     LIG 2561  35.662  24.914   8.584
    7AU     LIG 2562  35.311  25.209   8.697
    7AU     LIG 2563  35.005  25.550   8.864
    7AU       S 2564  36.071  25.214   7.462
    7AU     LIG 2565  35.978  25.658   7.403
    7AU     LIG 2566  35.725  25.579   7.045
    7AU     LIG 2567  35.335  25.354   6.998
    7AU       S 2568  35.616  24.415   7.020
    7AU     LIG 2569  35.226  24.226   7.107
    7AU     LIG 2570  34.928  24.506   7.010
    7AU     LIG 2571  35.012  24.948   6.872
    7AU       S 2572  36.065  25.114   6.926
    7AU     LIG 2573  35.857  25.337   6.574
    7AU     LIG 2574  35.629  25.717   6.554
    7AU     LIG 2575  35.710  26.063   6.864
    7AU       S 2576  35.552  23.971   7.681
    7AU     LIG 2577  35.126  23.994   7.569
    7AU     LIG 2578  34.859  23.880   7.228
    7AU     LIG 2579  34.481  23.813   7.004
    7AU       S 2580  35.655  24.430   8.029
    7AU     LIG 2581  35.359  24.555   8.349
    7AU     LIG 2582  34.992  24.786   8.245
    7AU     LIG 2583  34.840  24.945   7.859
    7AU       S 2584  37.639  23.470   7.560
    7AU     LIG 2585  37.768  23.053   7.405
    7AU     LIG 2586  38.146  22.951   7.581
    7AU     LIG 2587  38.487  23.121   7.817
    7AU       S 2588  37.632  23.535   8.065
    7AU     LIG 2589  37.889  23.217   7.914
    7AU     LIG 2590  38.134  23.020   8.177
    7AU     LIG 2591  38.097  22.842   8.598
    7AU       S 2592  37.851  23.557   7.430
    7AU     LIG 2593  38.293  23.421   7.441
    7AU     LIG 2594  38.671  23.212   7.332
    7AU     LIG 2595  38.913  23.174   6.958
    7AU       S 2596  37.591  23.481   7.012
    7AU     LIG 2597  37.740  23.125   6.760
    7AU     LIG 2598  37.794  22.675   6.750
    7AU     LIG 2599  37.756  22.246   6.579
    7AU       S 2600  35.966  23.685   6.834
    7AU     LIG 2601  35.748  23.664   6.424
    7AU     LIG 2602  35.382  23.418   6.261
    7AU     LIG 2603  35.058  23.069   6.251
    7AU       S 2604  35.618  23.701   7.719
    7AU     LIG 2605  35.274  23.483   7.882
    7AU     LIG 2606  34.942  23.515   7.617
    7AU     LIG 2607  34.863  23.358   7.201
    7AU       S 2608  36.125  23.517   8.367
    7AU     LIG 2609  35.726  23.322   8.161
    7AU     LIG 2610  35.399  22.984   8.117
    7AU     LIG 2611  35.385  22.565   8.333
    7AU       S 2612  35.614  23.980   7.854
    7AU     LIG 2613  35.309  23.918   8.156
    7AU     LIG 2614  34.895  23.856   8.023
    7AU     LIG 2615  34.605  23.893   7.679
    7AU       S 2616  36.091  25.205   7.956
    7AU     LIG 2617  35.978  25.656   8.042
    7AU     LIG 2618  35.615  25.738   8.284
    7AU     LIG 2619  35.493  25.685   8.701
    7AU       S 2620  36.937  25.479   8.034
    7AU     LIG 2621  37.022  25.603   8.468
    7AU     LIG 2622  37.025  26.036   8.669
    7AU     LIG 2623  36.911  26.480   8.571
    7AU       S 2624  36.931  25.693   7.846
    7AU     LIG 2625  36.917  26.019   8.171
    7AU     LIG 2626  36.780  26.462   8.069
    7AU     LIG 2627  36.391  26.522   7.819
    7AU       S 2628  36.902  25.434   7.266
    7AU     LIG 2629  37.195  25.631   7.022
    7AU     LIG 2630  37.075  26.046   6.952
    7AU     LIG 2631  37.025  26.304   6.623
    7AU       S 2632  37.520  24.923   8.310
    7AU     LIG 2633  37.583  25.283   8.565
    7AU     LIG 2634  37.746  25.388   8.972
    7AU     LIG 2635  38.097  25.412   9.249
    7AU       S 2636  37.127  25.460   7.690
    7AU     LIG 2637  37.159  25.892   7.463
    7AU     LIG 2638  37.168  26.205   7.795
    7AU     LIG 2639  37.365  26.280   8.250
    7AU       S 2640  36.980  23.127   8.062
    7AU     LIG 2641  37.107  22.713   8.186
    7AU     LIG 2642  36.847  22.326   8.240
    7AU     LIG 2643  36.800  21.939   8.463
    7AU       S 2644  37.405  23.379   7.982
    7AU     LIG 2645  37.468  22.941   7.807
    7AU     LIG 2646  37.811  22.683   7.923
    7AU     LIG 2647  38.166  22.519   8.189
    7AU       S 2648  36.764  23.034   7.900
    7AU     LIG 2649  36.536  22.666   7.774
    7AU     LIG 2650  36.394  22.278   7.936
    7AU     LIG 2651  36.609  21.896   7.985
    7AU       S 2652  36.380  23.658   8.543
    7AU     LIG 2653  36.002  23.432   8.828
    7AU     LIG 2654  35.675  23.114   8.673
    7AU     LIG 2655  35.491  22.684   8.829
    7AU       S 2656  36.832  23.028   7.363
    7AU     LIG 2657  36.787  22.558   7.275
    7AU     LIG 2658  36.966  22.205   7.064
    7AU     LIG 2659  36.741  21.842   6.938
    7AU       S 2660  37.008  23.133   7.812
    7AU     LIG 2661  37.040  22.688   7.682
    7AU     LIG 2662  36.880  22.274   7.742
    7AU     LIG 2663  37.121  21.946   7.968
    7AU       S 2664  36.730  25.453   7.087
    7AU     LIG 2665  36.702  25.753   6.786
    7AU     LIG 2666  36.720  25.961   6.409
    7AU     LIG 2667  36.708  26.350   6.193
    7AU       S 2668  37.431  25.178   7.120
    7AU     LIG 2669  37.712  25.500   6.937
    7AU     LIG 2670  38.053  25.513   6.623
    7AU     LIG 2671  38.364  25.669   6.311
    7AU       S 2672  36.501  25.432   7.255
    7AU     LIG 2673  36.228  25.639   6.953
    7AU     LIG 2674  36.256  26.064   6.817
    7AU     LIG 2675  36.605  26.325   6.900
    7AU       S 2676  36.185  24.850   6.649
    7AU     LIG 2677  36.001  24.956   6.248
    7AU     LIG 2678  35.982  25.361   6.028
    7AU     LIG 2679  35.830  25.805   6.081
    7AU       S 2680  36.003  23.413   7.067
    7AU     LIG 2681  35.647  23.280   6.765
    7AU     LIG 2682  35.572  22.969   6.432
    7AU     LIG 2683  35.574  22.542   6.224
    7AU       S 2684  36.914  23.036   7.126
    7AU     LIG 2685  37.216  22.797   6.821
    7AU     LIG 2686  37.220  22.384   6.583
    7AU     LIG 2687  36.960  21.977   6.504
    7AU       S 2688  37.157  23.118   7.350
    7AU     LIG 2689  37.358  22.720   7.297
    7AU     LIG 2690  37.477  22.356   7.028
    7AU     LIG 2691  37.363  21.942   6.822
    7AU       S 2692  37.456  23.588   6.697
    7AU     LIG 2693  37.399  23.252   6.392
    7AU     LIG 2694  37.477  22.794   6.361
    7AU     LIG 2695  37.602  22.424   6.106
    8AU     AUC 2696  28.064  31.629   7.526
    8AU     AUC 2697  28.317  31.616   7.365
    8AU     AUC 2698  28.318  31.630   7.687
    8AU     AUC 2699  27.804  31.618   7.373
    8AU     AUC 2700  27.809  31.655   7.689
    8AU     AUC 2701  27.916  31.888   7.502
    8AU     AUC 2702  28.233  31.882   7.505
    8AU     AUC 2703  27.903  31.374   7.551
    8AU     AUC 2704  28.218  31.367   7.541
    8AU     AUC 2705  28.060  31.492   7.797
    8AU     AUC 2706  28.076  31.812   7.771
    8AU     AUC 2707  28.061  31.449   7.280
    8AU     AUC 2708  28.063  31.766   7.255
    8AU     AUC 2709  28.571  31.619   7.205
    8AU     AUC 2710  28.571  31.612   7.527
    8AU     AUC 2711  28.569  31.614   7.851
    8AU     AUC 2712  27.548  31.596   7.219
    8AU     AUC 2713  27.543  31.647   7.539
    8AU     AUC 2714  27.560  31.692   7.854
    8AU     AUC 2715  27.767  32.145   7.465
    8AU     AUC 2716  28.104  32.144   7.466
    8AU     AUC 2717  28.416  32.136   7.483
    8AU     AUC 2718  27.740  31.121   7.577
    8AU     AUC 2719  28.068  31.108   7.557
    8AU     AUC 2720  28.382  31.104   7.556
    8AU     AUC 2721  28.056  31.356   8.067
    8AU     AUC 2722  28.065  31.681   8.056
    8AU     AUC 2723  28.097  32.001   8.013
    8AU     AUC 2724  28.077  31.273   7.033
    8AU     AUC 2725  28.053  31.585   7.006
    8AU     AUC 2726  28.054  31.898   6.985
    8AU     AUC 2727  28.309  31.480   7.963
    8AU     AUC 2728  28.340  31.804   7.940
    8AU     AUC 2729  28.333  31.454   7.105
    8AU     AUC 2730  28.314  31.770   7.088
    8AU     AUC 2731  27.806  31.528   7.968
    8AU     AUC 2732  27.818  31.853   7.935
    8AU     AUC 2733  27.799  31.419   7.129
    8AU     AUC 2734  27.790  31.742   7.092
    8AU     AUC 2735  28.494  31.871   7.350
    8AU     AUC 2736  28.494  31.888   7.673
    8AU     AUC 2737  27.643  31.888   7.333
    8AU     AUC 2738  27.653  31.932   7.659
    8AU     AUC 2739  28.473  31.346   7.373
    8AU     AUC 2740  28.473  31.357   7.705
    8AU     AUC 2741  27.635  31.355   7.410
    8AU     AUC 2742  27.635  31.392   7.724
    8AU     AUC 2743  27.930  32.073   7.755
    8AU     AUC 2744  28.268  32.068   7.750
    8AU     AUC 2745  27.898  31.232   7.824
    8AU     AUC 2746  28.215  31.216   7.814
    8AU     AUC 2747  27.903  32.031   7.226
    8AU     AUC 2748  28.239  32.034   7.231
    8AU     AUC 2749  27.904  31.182   7.300
    8AU     AUC 2750  28.240  31.190   7.284
    8AU    AUSL 2751  28.480  31.586   8.160
    8AU    AUSL 2752  28.356  31.239   8.150
    8AU     AUL 2753  28.745  31.398   8.287
    8AU    AUSL 2754  28.160  31.507   8.288
    8AU    AUSL 2755  27.950  31.877   8.267
    8AU     AUL 2756  28.209  31.783   8.563
    8AU    AUSL 2757  28.287  31.880   8.230
    8AU    AUSL 2758  28.642  31.866   8.015
    8AU     AUL 2759  28.616  31.795   8.410
    8AU    AUSL 2760  28.487  31.672   6.893
    8AU    AUSL 2761  28.369  32.019   6.907
    8AU     AUL 2762  28.735  31.862   6.744
    8AU    AUSL 2763  28.275  31.422   6.800
    8AU    AUSL 2764  28.648  31.384   7.039
    8AU     AUL 2765  28.633  31.458   6.657
    8AU    AUSL 2766  28.146  31.731   6.772
    8AU    AUSL 2767  27.928  31.394   6.818
    8AU     AUL 2768  28.138  31.269   6.584
    8AU    AUSL 2769  27.631  31.810   8.148
    8AU    AUSL 2770  27.812  32.140   8.027
    8AU     AUL 2771  27.786  32.176   8.353
    8AU    AUSL 2772  27.814  31.540   8.255
    8AU    AUSL 2773  27.557  31.421   8.036
    8AU     AUL 2774  27.361  31.612   8.187
    8AU    AUSL 2775  27.607  31.462   6.908
    8AU    AUSL 2776  27.772  31.128   7.027
    8AU     AUL 2777  27.752  31.124   6.677
    8AU    AUSL 2778  27.796  31.724   6.821
    8AU    AUSL 2779  27.518  31.861   7.026
    8AU     AUL 2780  27.341  31.599   6.902
    8AU    AUSL 2781  28.728  32.043   7.436
    8AU    AUSL 2782  28.637  31.900   7.110
    8AU     AUL 2783  28.955  31.814   7.059
    8AU    AUSL 2784  28.828  31.720   7.364
    8AU    AUSL 2785  28.807  31.466   7.692
    8AU     AUL 2786  29.127  31.570   7.556
    8AU    AUSL 2787  28.714  31.799   7.679
    8AU    AUSL 2788  28.611  32.153   7.752
    8AU     AUL 2789  28.926  31.868   7.797
    8AU    AUSL 2790  27.482  32.126   7.482
    8AU    AUSL 2791  27.494  32.007   7.900
    8AU     AUL 2792  27.176  32.154   7.659
    8AU    AUSL 2793  27.340  31.808   7.308
    8AU    AUSL 2794  27.618  32.178   7.165
    8AU     AUL 2795  27.251  32.115   7.203
    8AU    AUSL 2796  27.330  31.813   7.678
    8AU    AUSL 2797  27.322  31.497   7.432
    8AU     AUL 2798  27.033  31.777   7.467
    8AU    AUSL 2799  28.678  31.155   7.614
    8AU    AUSL 2800  28.619  31.329   7.948
    8AU     AUL 2801  28.963  31.374   7.937
    8AU    AUSL 2802  28.689  31.405   7.377
    8AU    AUSL 2803  28.579  31.083   7.265
    8AU     AUL 2804  28.929  31.320   7.296
    8AU    AUSL 2805  27.410  31.189   7.561
    8AU    AUSL 2806  27.483  31.297   7.175
    8AU     AUL 2807  27.149  31.363   7.213
    8AU    AUSL 2808  27.339  31.486   7.778
    8AU    AUSL 2809  27.610  31.109   7.875
    8AU     AUL 2810  27.308  31.164   7.933
    8AU    AUSL 2811  28.117  32.308   7.923
    8AU    AUSL 2812  27.664  32.284   7.738
    8AU     AUL 2813  27.859  32.512   8.013
    8AU    AUSL 2814  27.979  32.253   7.604
    8AU    AUSL 2815  28.224  32.386   7.317
    8AU     AUL 2816  27.966  32.570   7.606
    8AU    AUSL 2817  28.337  32.361   7.637
    8AU    AUSL 2818  28.394  32.118   8.022
    8AU     AUL 2819  28.446  32.444   7.961
    8AU    AUSL 2820  28.085  31.038   7.988
    8AU    AUSL 2821  28.431  31.039   7.866
    8AU     AUL 2822  28.205  30.965   8.271
    8AU    AUSL 2823  27.856  30.917   7.749
    8AU    AUSL 2824  27.830  31.214   8.144
    8AU     AUL 2825  27.786  30.840   8.079
    8AU    AUSL 2826  28.183  30.871   7.686
    8AU    AUSL 2827  27.945  30.896   7.409
    8AU     AUL 2828  27.751  30.680   7.565
    8AU    AUSL 2829  28.086  32.190   7.063
    8AU    AUSL 2830  28.490  32.198   7.215
    8AU     AUL 2831  28.288  32.365   6.908
    8AU    AUSL 2832  27.874  32.366   7.293
    8AU    AUSL 2833  27.810  32.045   6.906
    8AU     AUL 2834  27.868  32.376   6.908
    8AU    AUSL 2835  28.081  30.978   7.097
    8AU    AUSL 2836  27.619  31.013   7.340
    8AU     AUL 2837  27.799  30.760   7.114
    8AU    AUSL 2838  28.305  30.905   7.370
    8AU    AUSL 2839  28.370  31.163   6.993
    8AU     AUL 2840  28.376  30.845   7.000
    8AU       S 2841  28.694  30.866   8.319
    8AU     LIG 2842  28.751  30.387   8.403
    8AU     LIG 2843  29.018  29.986   8.474
    8AU     LIG 2844  29.366  29.731   8.706
    8AU       S 2845  28.445  31.319   8.688
    8AU     LIG 2846  28.685  31.515   9.035
    8AU     LIG 2847  28.984  31.586   9.382
    8AU     LIG 2848  29.107  31.541   9.822
    8AU       S 2849  28.107  31.295   8.688
    8AU     LIG 2850  28.204  31.329   9.155
    8AU     LIG 2851  28.569  31.263   9.484
    8AU     LIG 2852  28.901  31.071   9.786
    8AU       S 2853  27.728  31.820   8.724
    8AU     LIG 2854  27.697  31.758   9.159
    8AU     LIG 2855  27.357  31.660   9.434
    8AU     LIG 2856  27.096  31.819   9.776
    8AU       S 2857  28.324  32.283   8.517
    8AU     LIG 2858  28.628  32.508   8.765
    8AU     LIG 2859  28.960  32.343   8.998
    8AU     LIG 2860  29.308  32.063   9.058
    8AU       S 2861  28.960  32.151   8.216
    8AU     LIG 2862  29.241  32.207   8.552
    8AU     LIG 2863  29.524  32.483   8.734
    8AU     LIG 2864  29.674  32.854   8.969
    8AU       S 2865  28.428  31.861   6.349
    8AU     LIG 2866  28.668  31.781   5.952
    8AU     LIG 2867  28.917  31.420   5.787
    8AU     LIG 2868  28.944  30.967   5.900
    8AU       S 2869  28.765  32.377   6.764
    8AU     LIG 2870  28.908  32.777   6.594
    8AU     LIG 2871  29.015  32.943   6.177
    8AU     LIG 2872  29.331  33.097   5.885
    8AU       S 2873  28.989  31.112   6.830
    8AU     LIG 2874  29.177  31.003   6.411
    8AU     LIG 2875  29.199  30.582   6.210
    8AU     LIG 2876  29.155  30.119   6.263
    8AU       S 2877  28.293  31.626   6.278
    8AU     LIG 2878  28.427  31.321   5.966
    8AU     LIG 2879  28.512  31.158   5.553
    8AU     LIG 2880  28.339  31.271   5.133
    8AU       S 2881  27.766  31.531   6.337
    8AU     LIG 2882  27.912  31.487   5.926
    8AU     LIG 2883  27.998  31.277   5.546
    8AU     LIG 2884  27.780  31.330   5.163
    8AU       S 2885  28.147  31.875   6.390
    8AU     LIG 2886  28.150  31.928   5.903
    8AU     LIG 2887  28.344  31.659   5.565
    8AU     LIG 2888  28.729  31.567   5.316
    8AU       S 2889  27.473  31.854   8.609
    8AU     LIG 2890  27.242  31.658   8.907
    8AU     LIG 2891  27.102  31.317   9.118
    8AU     LIG 2892  26.976  31.309   9.551
    8AU       S 2893  27.370  32.439   8.170
    8AU     LIG 2894  27.065  32.640   8.403
    8AU     LIG 2895  27.050  32.581   8.839
    8AU     LIG 2896  26.714  32.538   9.117
    8AU       S 2897  27.389  31.192   8.463
    8AU     LIG 2898  26.928  31.134   8.470
    8AU     LIG 2899  26.582  30.841   8.449
    8AU     LIG 2900  26.450  30.524   8.746
    8AU       S 2901  27.673  31.565   8.643
    8AU     LIG 2902  27.627  31.286   9.000
    8AU     LIG 2903  27.483  31.162   9.430
    8AU     LIG 2904  27.399  31.350   9.862
    8AU       S 2905  27.484  31.502   6.429
    8AU     LIG 2906  27.390  31.381   6.018
    8AU     LIG 2907  27.493  31.427   5.597
    8AU     LIG 2908  27.374  31.704   5.258
    8AU       S 2909  27.373  30.825   6.867
    8AU     LIG 2910  27.404  30.431   6.665
    8AU     LIG 2911  27.208  30.217   6.340
    8AU     LIG 2912  26.928  30.218   5.945
    8AU       S 2913  27.274  32.040   6.660
    8AU     LIG 2914  26.913  32.364   6.713
    8AU     LIG 2915  26.695  32.773   6.606
    8AU     LIG 2916  26.717  33.030   6.216
    8AU       S 2917  27.663  31.768   6.444
    8AU     LIG 2918  27.392  31.917   6.142
    8AU     LIG 2919  27.516  31.930   5.722
    8AU     LIG 2920  27.854  31.776   5.468
    8AU       S 2921  28.940  32.316   6.969
    8AU     LIG 2922  29.301  32.485   6.761
    8AU     LIG 2923  29.391  32.626   6.342
    8AU     LIG 2924  29.703  32.702   5.995
    8AU       S 2925  29.031  32.303   7.451
    8AU     LIG 2926  29.229  32.654   7.619
    8AU     LIG 2927  29.637  32.482   7.650
    8AU     LIG 2928  29.979  32.316   7.447
    8AU       S 2929  29.245  32.073   7.369
    8AU     LIG 2930  29.615  32.067   7.174
    8AU     LIG 2931  29.995  31.861   7.198
    8AU     LIG 2932  30.258  32.133   7.050
    8AU       S 2933  29.176  30.999   7.687
    8AU     LIG 2934  29.524  30.751   7.923
    8AU     LIG 2935  29.987  30.834   8.003
    8AU     LIG 2936  30.239  31.183   7.855
    8AU       S 2937  28.958  32.367   7.975
    8AU     LIG 2938  29.376  32.544   8.128
    8AU     LIG 2939  29.531  32.902   8.422
    8AU     LIG 2940  29.425  33.236   8.726
    8AU       S 2941  29.240  32.161   7.587
    8AU     LIG 2942  29.659  31.973   7.685
    8AU     LIG 2943  30.025  32.114   7.927
    8AU     LIG 2944  30.352  32.257   8.231
    8AU       S 2945  27.237  32.177   8.190
    8AU     LIG 2946  26.979  32.152   8.551
    8AU     LIG 2947  26.602  32.426   8.607
    8AU     LIG 2948  26.275  32.670   8.844
    8AU       S 2949  27.368  32.603   7.389
    8AU     LIG 2950  27.170  33.019   7.386
    8AU     LIG 2951  26.800  33.144   7.164
    8AU     LIG 2952  26.512  32.806   7.118
    8AU       S 2953  26.878  31.833   6.981
    8AU     LIG 2954  26.411  31.708   7.106
    8AU     LIG 2955  25.996  31.907   7.253
    8AU     LIG 2956  25.943  32.378   7.288
    8AU       S 2957  27.380  32.487   6.867
    8AU     LIG 2958  27.198  32.857   6.643
    8AU     LIG 2959  26.922  33.248   6.644
    8AU     LIG 2960  26.779  33.570   6.313
    8AU       S 2961  26.850  31.297   7.610
    8AU     LIG 2962  26.409  31.383   7.513
    8AU     LIG 2963  25.980  31.316   7.338
    8AU     LIG 2964  25.687  30.960   7.227
    8AU       S 2965  26.923  31.824   7.980
    8AU     LIG 2966  26.615  32.121   8.186
    8AU     LIG 2967  26.260  32.431   8.141
    8AU     LIG 2968  25.924  32.561   7.814
    8AU       S 2969  28.901  30.811   7.605
    8AU     LIG 2970  29.062  30.372   7.558
    8AU     LIG 2971  29.438  30.248   7.730
    8AU     LIG 2972  29.852  30.446   7.676
    8AU       S 2973  28.881  30.895   8.105
    8AU     LIG 2974  29.125  30.505   8.073
    8AU     LIG 2975  29.406  30.284   8.341
    8AU     LIG 2976  29.417  30.226   8.812
    8AU       S 2977  29.099  30.892   7.455
    8AU     LIG 2978  29.292  30.597   7.167
    8AU     LIG 2979  29.698  30.420   7.166
    8AU     LIG 2980  30.074  30.662   7.264
    8AU       S 2981  28.889  30.863   7.010
    8AU     LIG 2982  29.028  30.513   6.721
    8AU     LIG 2983  28.931  30.084   6.717
    8AU     LIG 2984  29.030  29.654   6.631
    8AU       S 2985  27.229  30.980   6.906
    8AU     LIG 2986  27.095  30.849   6.460
    8AU     LIG 2987  26.768  30.590   6.294
    8AU     LIG 2988  26.331  30.480   6.438
    8AU       S 2989  26.961  31.050   7.588
    8AU     LIG 2990  26.567  30.886   7.492
    8AU     LIG 2991  26.178  30.833   7.306
    8AU     LIG 2992  26.018  30.717   6.882
    8AU       S 2993  27.388  30.935   8.368
    8AU     LIG 2994  27.015  30.708   8.174
    8AU     LIG 2995  26.785  30.353   8.292
    8AU     LIG 2996  26.535  30.088   8.506
    8AU       S 2997  26.873  31.354   7.786
    8AU     LIG 2998  26.558  31.064   7.969
    8AU     LIG 2999  26.134  31.053   7.789
    8AU     LIG 3000  25.689  31.155   7.749
    8AU       S 3001  27.368  32.596   7.884
    8AU     LIG 3002  26.952  32.820   7.901
    8AU     LIG 3003  26.612  32.837   8.231
    8AU     LIG 3004  26.693  32.926   8.691
    8AU       S 3005  28.227  32.887   7.908
    8AU     LIG 3006  28.481  33.210   8.073
    8AU     LIG 3007  28.340  33.549   8.299
    8AU     LIG 3008  27.978  33.826   8.338
    8AU       S 3009  28.206  33.072   7.633
    8AU     LIG 3010  28.057  33.457   7.848
    8AU     LIG 3011  27.857  33.887   7.843
    8AU     LIG 3012  27.998  34.277   8.077
    8AU       S 3013  28.232  32.795   7.204
    8AU     LIG 3014  28.446  33.195   7.146
    8AU     LIG 3015  28.327  33.643   7.207
    8AU     LIG 3016  28.446  34.059   6.988
    8AU       S 3017  28.784  32.317   8.302
    8AU     LIG 3018  29.033  32.668   8.487
    8AU     LIG 3019  29.162  32.801   8.896
    8AU     LIG 3020  29.361  32.557   9.252
    8AU       S 3021  28.464  32.836   7.630
    8AU     LIG 3022  28.626  33.316   7.600
    8AU     LIG 3023  28.510  33.710   7.819
    8AU     LIG 3024  28.447  34.020   8.155
    8AU       S 3025  28.212  30.501   8.073
    8AU     LIG 3026  28.350  30.080   8.205
    8AU     LIG 3027  28.254  29.691   8.438
    8AU     LIG 3028  27.891  29.441   8.586
    8AU       S 3029  28.653  30.747   8.025
    8AU     LIG 3030  28.709  30.304   7.903
    8AU     LIG 3031  29.012  29.965   7.952
    8AU     LIG 3032  29.438  29.831   8.084
    8AU       S 3033  28.004  30.400   7.896
    8AU     LIG 3034  27.652  30.105   8.019
    8AU     LIG 3035  27.682  29.690   8.179
    8AU     LIG 3036  28.021  29.434   8.071
    8AU       S 3037  27.650  31.078   8.530
    8AU     LIG 3038  27.309  30.912   8.859
    8AU     LIG 3039  26.977  30.645   8.714
    8AU     LIG 3040  26.867  30.236   8.862
    8AU       S 3041  28.129  30.392   7.367
    8AU     LIG 3042  28.230  29.939   7.208
    8AU     LIG 3043  28.049  29.777   6.855
    8AU     LIG 3044  27.793  29.466   6.709
    8AU       S 3045  28.263  30.501   7.822
    8AU     LIG 3046  28.354  30.033   7.696
    8AU     LIG 3047  28.501  29.629   7.943
    8AU     LIG 3048  28.615  29.334   8.311
    8AU       S 3049  28.074  32.823   6.998
    8AU     LIG 3050  28.011  33.289   6.907
    8AU     LIG 3051  28.299  33.607   6.697
    8AU     LIG 3052  28.438  33.994   6.475
    8AU       S 3053  28.751  32.513   7.100
    8AU     LIG 3054  29.102  32.815   7.103
    8AU     LIG 3055  29.286  33.090   6.763
    8AU     LIG 3056  29.174  33.377   6.398
    8AU       S 3057  27.837  32.820   7.182
    8AU     LIG 3058  27.515  33.118   7.006
    8AU     LIG 3059  27.545  33.576   6.905
    8AU     LIG 3060  27.907  33.853   6.952
    8AU       S 3061  27.494  32.216   6.608
    8AU     LIG 3062  27.229  32.414   6.303
    8AU     LIG 3063  27.164  32.808   6.103
    8AU     LIG 3064  27.186  33.258   6.189
    8AU       S 3065  27.263  30.786   7.167
    8AU     LIG 3066  26.928  30.546   6.867
    8AU     LIG 3067  26.744  30.188   6.592
    8AU     LIG 3068  26.475  30.048   6.186
    8AU       S 3069  28.184  30.417   7.138
    8AU     LIG 3070  28.411  30.220   6.793
    8AU     LIG 3071  28.246  30.012   6.435
    8AU     LIG 3072  27.949  29.706   6.286
    8AU       S 3073  28.442  30.484   7.366
    8AU     LIG 3074  28.712  30.135   7.203
    8AU     LIG 3075  28.600  29.755   6.907
    8AU     LIG 3076  28.386  29.519   6.557
    8AU       S 3077  28.772  30.958   6.723
    8AU     LIG 3078  28.726  30.741   6.350
    8AU     LIG 3079  28.674  30.301   6.326
    8AU     LIG 3080  28.705  29.837   6.279
    9AU     AUC 3081  31.519  17.451   7.528
    9AU     AUC 3082  31.770  17.432   7.363
    9AU     AUC 3083  31.775  17.448   7.685
    9AU     AUC 3084  31.256  17.444   7.378
    9AU     AUC 3085  31.266  17.481   7.695
    9AU     AUC 3086  31.376  17.711   7.505
    9AU     AUC 3087  31.694  17.701   7.504
    9AU     AUC 3088  31.350  17.200   7.557
    9AU     AUC 3089  31.665  17.186   7.541
    9AU     AUC 3090  31.516  17.315   7.800
    9AU     AUC 3091  31.537  17.634   7.773
    9AU     AUC 3092  31.507  17.272   7.283
    9AU     AUC 3093  31.519  17.587   7.256
    9AU     AUC 3094  32.026  17.425   7.200
    9AU     AUC 3095  32.026  17.423   7.522
    9AU     AUC 3096  32.029  17.427   7.845
    9AU     AUC 3097  30.998  17.422   7.225
    9AU     AUC 3098  30.996  17.472   7.548
    9AU     AUC 3099  31.022  17.524   7.867
    9AU     AUC 3100  31.229  17.969   7.468
    9AU     AUC 3101  31.568  17.964   7.468
    9AU     AUC 3102  31.884  17.950   7.477
    9AU     AUC 3103  31.187  16.949   7.590
    9AU     AUC 3104  31.505  16.931   7.557
    9AU     AUC 3105  31.821  16.919   7.552
    9AU     AUC 3106  31.515  17.180   8.070
    9AU     AUC 3107  31.528  17.504   8.059
    9AU     AUC 3108  31.566  17.822   8.014
    9AU     AUC 3109  31.512  17.098   7.036
    9AU     AUC 3110  31.504  17.408   7.005
    9AU     AUC 3111  31.515  17.716   6.983
    9AU     AUC 3112  31.767  17.298   7.961
    9AU     AUC 3113  31.805  17.621   7.938
    9AU     AUC 3114  31.778  17.269   7.105
    9AU     AUC 3115  31.772  17.582   7.085
    9AU     AUC 3116  31.266  17.355   7.979
    9AU     AUC 3117  31.281  17.680   7.942
    9AU     AUC 3118  31.242  17.250   7.134
    9AU     AUC 3119  31.248  17.567   7.092
    9AU     AUC 3120  31.956  17.682   7.344
    9AU     AUC 3121  31.956  17.702   7.668
    9AU     AUC 3122  31.103  17.712   7.338
    9AU     AUC 3123  31.114  17.760   7.665
    9AU     AUC 3124  31.916  17.158   7.371
    9AU     AUC 3125  31.924  17.172   7.701
    9AU     AUC 3126  31.076  17.186   7.419
    9AU     AUC 3127  31.096  17.224   7.744
    9AU     AUC 3128  31.395  17.898   7.758
    9AU     AUC 3129  31.736  17.885   7.748
    9AU     AUC 3130  31.350  17.058   7.834
    9AU     AUC 3131  31.665  17.037   7.813
    9AU     AUC 3132  31.365  17.853   7.227
    9AU     AUC 3133  31.704  17.848   7.229
    9AU     AUC 3134  31.338  17.010   7.304
    9AU     AUC 3135  31.673  17.010   7.285
    9AU    AUSL 3136  31.941  17.401   8.155
    9AU    AUSL 3137  31.813  17.057   8.147
    9AU     AUL 3138  32.205  17.211   8.280
    9AU    AUSL 3139  31.624  17.328   8.290
    9AU    AUSL 3140  31.416  17.702   8.271
    9AU     AUL 3141  31.680  17.606   8.562
    9AU    AUSL 3142  31.753  17.700   8.227
    9AU    AUSL 3143  32.114  17.671   8.009
    9AU     AUL 3144  32.074  17.602   8.408
    9AU    AUSL 3145  31.944  17.475   6.890
    9AU    AUSL 3146  31.835  17.824   6.903
    9AU     AUL 3147  32.211  17.618   6.754
    9AU    AUSL 3148  31.723  17.235   6.801
    9AU    AUSL 3149  32.089  17.177   7.037
    9AU     AUL 3150  32.080  17.218   6.661
    9AU    AUSL 3151  31.605  17.553   6.767
    9AU    AUSL 3152  31.380  17.221   6.816
    9AU     AUL 3153  31.590  17.132   6.546
    9AU    AUSL 3154  31.094  17.636   8.161
    9AU    AUSL 3155  31.282  17.970   8.031
    9AU     AUL 3156  31.246  17.995   8.364
    9AU    AUSL 3157  31.277  17.367   8.264
    9AU    AUSL 3158  31.013  17.250   8.053
    9AU     AUL 3159  30.820  17.448   8.205
    9AU    AUSL 3160  31.064  17.291   6.912
    9AU    AUSL 3161  31.195  16.974   7.027
    9AU     AUL 3162  31.282  16.928   6.702
    9AU    AUSL 3163  31.254  17.551   6.807
    9AU    AUSL 3164  30.987  17.692   7.034
    9AU     AUL 3165  30.811  17.483   6.882
    9AU    AUSL 3166  32.195  17.850   7.424
    9AU    AUSL 3167  32.103  17.702   7.101
    9AU     AUL 3168  32.438  17.627   7.069
    9AU    AUSL 3169  32.287  17.523   7.361
    9AU    AUSL 3170  32.265  17.277   7.681
    9AU     AUL 3171  32.597  17.354   7.524
    9AU    AUSL 3172  32.171  17.613   7.673
    9AU    AUSL 3173  32.084  17.962   7.742
    9AU     AUL 3174  32.401  17.671   7.776
    9AU    AUSL 3175  30.937  17.948   7.477
    9AU    AUSL 3176  30.961  17.839   7.919
    9AU     AUL 3177  30.655  18.002   7.685
    9AU    AUSL 3178  30.806  17.610   7.312
    9AU    AUSL 3179  31.081  18.007   7.167
    9AU     AUL 3180  30.702  17.917   7.183
    9AU    AUSL 3181  30.798  17.654   7.687
    9AU    AUSL 3182  30.747  17.308   7.444
    9AU     AUL 3183  30.519  17.689   7.473
    9AU    AUSL 3184  32.122  16.967   7.609
    9AU    AUSL 3185  32.074  17.144   7.940
    9AU     AUL 3186  32.418  17.184   7.927
    9AU    AUSL 3187  32.134  17.214   7.372
    9AU    AUSL 3188  32.009  16.888   7.268
    9AU     AUL 3189  32.367  17.125   7.283
    9AU    AUSL 3190  30.892  17.028   7.623
    9AU    AUSL 3191  30.902  17.150   7.175
    9AU     AUL 3192  30.686  16.924   7.393
    9AU    AUSL 3193  30.798  17.330   7.794
    9AU    AUSL 3194  31.068  16.931   7.912
    9AU     AUL 3195  30.748  16.999   7.956
    9AU    AUSL 3196  31.594  18.127   7.932
    9AU    AUSL 3197  31.122  18.105   7.736
    9AU     AUL 3198  31.328  18.335   7.987
    9AU    AUSL 3199  31.442  18.081   7.614
    9AU    AUSL 3200  31.698  18.202   7.314
    9AU     AUL 3201  31.461  18.398   7.612
    9AU    AUSL 3202  31.804  18.174   7.635
    9AU    AUSL 3203  31.871  17.930   8.016
    9AU     AUL 3204  31.937  18.253   7.938
    9AU    AUSL 3205  31.538  16.862   7.988
    9AU    AUSL 3206  31.877  16.856   7.860
    9AU     AUL 3207  31.659  16.780   8.269
    9AU    AUSL 3208  31.301  16.746   7.756
    9AU    AUSL 3209  31.294  17.040   8.161
    9AU     AUL 3210  31.254  16.658   8.095
    9AU    AUSL 3211  31.622  16.697   7.679
    9AU    AUSL 3212  31.359  16.715   7.409
    9AU     AUL 3213  31.163  16.518   7.601
    9AU    AUSL 3214  31.554  18.002   7.065
    9AU    AUSL 3215  31.959  18.007   7.203
    9AU     AUL 3216  31.752  18.179   6.909
    9AU    AUSL 3217  31.345  18.185   7.295
    9AU    AUSL 3218  31.273  17.867   6.908
    9AU     AUL 3219  31.345  18.186   6.906
    9AU    AUSL 3220  31.492  16.804   7.095
    9AU    AUSL 3221  31.045  16.861   7.332
    9AU     AUL 3222  31.187  16.601   7.099
    9AU    AUSL 3223  31.721  16.726   7.354
    9AU    AUSL 3224  31.798  16.979   7.006
    9AU     AUL 3225  31.773  16.687   6.964
    9AU       S 3226  32.149  16.683   8.307
    9AU     LIG 3227  32.201  16.209   8.346
    9AU     LIG 3228  32.245  15.830   8.626
    9AU     LIG 3229  32.634  15.621   8.808
    9AU       S 3230  31.913  17.143   8.691
    9AU     LIG 3231  32.116  17.354   9.072
    9AU     LIG 3232  32.380  17.367   9.464
    9AU     LIG 3233  32.682  17.265   9.819
    9AU       S 3234  31.578  17.115   8.683
    9AU     LIG 3235  31.608  17.183   9.139
    9AU     LIG 3236  31.922  17.098   9.495
    9AU     LIG 3237  32.298  16.912   9.727
    9AU       S 3238  31.208  17.641   8.741
    9AU     LIG 3239  31.196  17.534   9.173
    9AU     LIG 3240  30.879  17.348   9.450
    9AU     LIG 3241  30.489  17.367   9.712
    9AU       S 3242  31.796  18.108   8.511
    9AU     LIG 3243  31.966  18.286   8.904
    9AU     LIG 3244  32.322  18.159   9.140
    9AU     LIG 3245  32.547  17.760   9.147
    9AU       S 3246  32.442  17.923   8.221
    9AU     LIG 3247  32.561  17.990   8.671
    9AU     LIG 3248  32.760  18.297   8.911
    9AU     LIG 3249  33.088  18.601   9.020
    9AU       S 3250  31.903  17.733   6.374
    9AU     LIG 3251  32.049  17.758   5.927
    9AU     LIG 3252  32.277  17.467   5.664
    9AU     LIG 3253  32.332  17.084   5.415
    9AU       S 3254  32.201  18.133   6.695
    9AU     LIG 3255  32.327  18.489   6.428
    9AU     LIG 3256  32.538  18.693   6.069
    9AU     LIG 3257  32.925  18.837   5.867
    9AU       S 3258  32.412  16.839   6.872
    9AU     LIG 3259  32.698  16.763   6.535
    9AU     LIG 3260  32.746  16.472   6.194
    9AU     LIG 3261  32.669  16.036   6.257
    9AU       S 3262  31.821  17.488   6.291
    9AU     LIG 3263  31.831  17.278   5.895
    9AU     LIG 3264  31.817  17.111   5.483
    9AU     LIG 3265  31.925  17.015   5.049
    9AU       S 3266  31.156  17.308   6.343
    9AU     LIG 3267  31.152  17.353   5.889
    9AU     LIG 3268  31.308  17.266   5.459
    9AU     LIG 3269  31.201  17.340   5.008
    9AU       S 3270  31.603  17.688   6.386
    9AU     LIG 3271  31.523  17.702   5.920
    9AU     LIG 3272  31.738  17.617   5.512
    9AU     LIG 3273  32.068  17.502   5.194
    9AU       S 3274  30.954  17.658   8.637
    9AU     LIG 3275  30.723  17.446   8.952
    9AU     LIG 3276  30.534  17.092   9.144
    9AU     LIG 3277  30.400  16.888   9.538
    9AU       S 3278  30.853  18.288   8.182
    9AU     LIG 3279  30.517  18.508   8.395
    9AU     LIG 3280  30.314  18.426   8.787
    9AU     LIG 3281  29.932  18.460   9.041
    9AU       S 3282  30.837  17.024   8.485
    9AU     LIG 3283  30.372  16.876   8.530
    9AU     LIG 3284  30.012  16.563   8.438
    9AU     LIG 3285  29.592  16.392   8.588
    9AU       S 3286  31.147  17.381   8.659
    9AU     LIG 3287  31.073  17.071   9.010
    9AU     LIG 3288  30.911  16.836   9.381
    9AU     LIG 3289  30.835  16.973   9.817
    9AU       S 3290  30.917  17.236   6.460
    9AU     LIG 3291  30.754  16.973   6.127
    9AU     LIG 3292  30.757  17.102   5.673
    9AU     LIG 3293  30.840  17.483   5.406
    9AU       S 3294  30.795  16.805   6.756
    9AU     LIG 3295  30.591  16.483   6.493
    9AU     LIG 3296  30.382  16.494   6.094
    9AU     LIG 3297  30.125  16.227   5.805
    9AU       S 3298  30.753  17.904   6.628
    9AU     LIG 3299  30.415  18.237   6.649
    9AU     LIG 3300  30.280  18.610   6.402
    9AU     LIG 3301  30.164  18.711   5.973
    9AU       S 3302  31.112  17.564   6.433
    9AU     LIG 3303  30.912  17.772   6.121
    9AU     LIG 3304  31.043  17.856   5.702
    9AU     LIG 3305  31.277  17.762   5.322
    9AU       S 3306  32.393  18.106   6.907
    9AU     LIG 3307  32.737  18.230   6.602
    9AU     LIG 3308  32.934  18.376   6.182
    9AU     LIG 3309  33.292  18.471   5.880
    9AU       S 3310  32.501  18.096   7.401
    9AU     LIG 3311  32.845  18.354   7.239
    9AU     LIG 3312  33.232  18.443   7.500
    9AU     LIG 3313  33.476  18.596   7.861
    9AU       S 3314  32.731  17.859   7.398
    9AU     LIG 3315  33.153  17.939   7.307
    9AU     LIG 3316  33.553  18.098   7.314
    9AU     LIG 3317  33.922  18.093   7.032
    9AU       S 3318  32.615  16.798   7.678
    9AU     LIG 3319  32.970  16.704   7.973
    9AU     LIG 3320  33.428  16.683   8.016
    9AU     LIG 3321  33.655  16.788   7.630
    9AU       S 3322  32.434  18.155   8.009
    9AU     LIG 3323  32.742  18.346   8.318
    9AU     LIG 3324  32.766  18.719   8.619
    9AU     LIG 3325  32.753  19.000   9.008
    9AU       S 3326  32.659  18.036   7.590
    9AU     LIG 3327  33.050  18.023   7.803
    9AU     LIG 3328  33.475  18.091   7.900
    9AU     LIG 3329  33.800  18.303   8.179
    9AU       S 3330  30.707  18.027   8.216
    9AU     LIG 3331  30.265  18.063   8.381
    9AU     LIG 3332  29.891  18.314   8.510
    9AU     LIG 3333  29.540  18.538   8.710
    9AU       S 3334  30.823  18.426   7.391
    9AU     LIG 3335  30.564  18.834   7.428
    9AU     LIG 3336  30.270  18.909   7.112
    9AU     LIG 3337  30.073  18.575   6.861
    9AU       S 3338  30.347  17.399   7.091
    9AU     LIG 3339  29.973  17.589   6.885
    9AU     LIG 3340  29.608  17.874   6.894
    9AU     LIG 3341  29.568  18.352   6.965
    9AU       S 3342  30.860  18.314   6.886
    9AU     LIG 3343  30.781  18.749   6.803
    9AU     LIG 3344  30.475  19.027   6.651
    9AU     LIG 3345  30.349  19.127   6.229
    9AU       S 3346  30.304  17.230   7.574
    9AU     LIG 3347  29.924  17.177   7.396
    9AU     LIG 3348  29.640  17.260   7.088
    9AU     LIG 3349  29.315  17.025   6.986
    9AU       S 3350  30.385  17.697   8.002
    9AU     LIG 3351  29.918  17.741   8.129
    9AU     LIG 3352  29.576  18.081   8.172
    9AU     LIG 3353  29.587  18.525   8.003
    9AU       S 3354  32.340  16.613   7.588
    9AU     LIG 3355  32.586  16.223   7.486
    9AU     LIG 3356  32.973  16.322   7.625
    9AU     LIG 3357  33.397  16.346   7.647
    9AU       S 3358  32.327  16.705   8.093
    9AU     LIG 3359  32.599  16.354   8.006
    9AU     LIG 3360  32.964  16.247   8.226
    9AU     LIG 3361  33.012  16.016   8.631
    9AU       S 3362  32.553  16.717   7.465
    9AU     LIG 3363  32.847  16.574   7.175
    9AU     LIG 3364  33.318  16.613   7.208
    9AU     LIG 3365  33.757  16.813   7.124
    9AU       S 3366  32.276  16.609   7.077
    9AU     LIG 3367  32.518  16.244   6.935
    9AU     LIG 3368  32.395  15.863   6.687
    9AU     LIG 3369  32.553  15.543   6.367
    9AU       S 3370  30.610  16.975   6.880
    9AU     LIG 3371  30.316  16.900   6.526
    9AU     LIG 3372  29.988  16.570   6.423
    9AU     LIG 3373  29.715  16.314   6.116
    9AU       S 3374  30.312  17.022   7.714
    9AU     LIG 3375  30.157  16.708   7.464
    9AU     LIG 3376  29.758  16.653   7.494
    9AU     LIG 3377  29.476  16.446   7.797
    9AU       S 3378  30.856  16.766   8.386
    9AU     LIG 3379  30.516  16.478   8.230
    9AU     LIG 3380  30.256  16.109   8.251
    9AU     LIG 3381  29.988  16.054   8.598
    9AU       S 3382  30.343  17.265   7.795
    9AU     LIG 3383  30.066  17.227   8.121
    9AU     LIG 3384  29.691  17.228   7.901
    9AU     LIG 3385  29.439  17.067   7.552
    9AU       S 3386  30.837  18.447   7.891
    9AU     LIG 3387  30.409  18.657   7.909
    9AU     LIG 3388  30.047  18.704   8.207
    9AU     LIG 3389  29.991  18.810   8.653
    9AU       S 3390  31.712  18.690   7.985
    9AU     LIG 3391  31.793  19.081   8.242
    9AU     LIG 3392  31.468  19.353   8.464
    9AU     LIG 3393  31.379  19.816   8.496
    9AU       S 3394  31.687  18.887   7.768
    9AU     LIG 3395  31.369  19.130   7.983
    9AU     LIG 3396  31.314  19.571   8.021
    9AU     LIG 3397  31.488  19.970   8.012
    9AU       S 3398  31.698  18.615   7.204
    9AU     LIG 3399  31.558  19.028   7.309
    9AU     LIG 3400  31.664  19.397   7.187
    9AU     LIG 3401  31.952  19.609   6.884
    9AU       S 3402  32.249  18.110   8.298
    9AU     LIG 3403  32.319  18.447   8.581
    9AU     LIG 3404  32.379  18.644   8.979
    9AU     LIG 3405  32.664  18.596   9.340
    9AU       S 3406  31.918  18.666   7.643
    9AU     LIG 3407  32.020  19.138   7.515
    9AU     LIG 3408  31.804  19.408   7.804
    9AU     LIG 3409  31.816  19.616   8.213
    9AU       S 3410  31.669  16.324   8.052
    9AU     LIG 3411  31.821  15.922   8.137
    9AU     LIG 3412  31.929  15.528   8.353
    9AU     LIG 3413  31.750  15.158   8.605
    9AU       S 3414  32.102  16.570   8.010
    9AU     LIG 3415  32.183  16.164   7.808
    9AU     LIG 3416  32.310  15.817   8.027
    9AU     LIG 3417  32.631  15.885   8.320
    9AU       S 3418  31.464  16.219   7.874
    9AU     LIG 3419  31.367  15.749   7.780
    9AU     LIG 3420  31.362  15.300   7.923
    9AU     LIG 3421  31.314  14.948   8.245
    9AU       S 3422  31.103  16.899   8.540
    9AU     LIG 3423  30.744  16.697   8.861
    9AU     LIG 3424  30.412  16.364   8.749
    9AU     LIG 3425  30.410  15.888   8.811
    9AU       S 3426  31.512  16.236   7.352
    9AU     LIG 3427  31.457  15.799   7.249
    9AU     LIG 3428  31.630  15.522   6.937
    9AU     LIG 3429  31.485  15.092   6.887
    9AU       S 3430  31.717  16.327   7.794
    9AU     LIG 3431  31.820  15.887   7.612
    9AU     LIG 3432  31.838  15.505   7.852
    9AU     LIG 3433  31.814  15.092   8.107
    9AU       S 3434  31.534  18.634   6.990
    9AU     LIG 3435  31.330  19.034   6.842
    9AU     LIG 3436  31.423  19.472   6.728
    9AU     LIG 3437  31.701  19.664   6.413
    9AU       S 3438  32.233  18.297   7.041
    9AU     LIG 3439  32.535  18.612   6.887
    9AU     LIG 3440  32.806  18.748   6.521
    9AU     LIG 3441  33.233  18.795   6.299
    9AU       S 3442  31.294  18.616   7.183
    9AU     LIG 3443  31.027  18.963   7.249
    9AU     LIG 3444  30.871  19.246   6.949
    9AU     LIG 3445  30.914  19.246   6.526
    9AU       S 3446  30.975  18.046   6.598
    9AU     LIG 3447  30.754  18.294   6.272
    9AU     LIG 3448  30.674  18.711   6.092
    9AU     LIG 3449  30.826  19.126   6.037
    9AU       S 3450  30.697  16.674   6.965
    9AU     LIG 3451  30.273  16.578   6.934
    9AU     LIG 3452  30.206  16.212   6.728
    9AU     LIG 3453  30.136  16.086   6.306
    9AU       S 3454  31.588  16.253   7.104
    9AU     LIG 3455  31.897  16.026   6.824
    9AU     LIG 3456  31.931  15.678   6.540
    9AU     LIG 3457  31.772  15.255   6.483
    9AU       S 3458  31.830  16.320   7.321
    9AU     LIG 3459  32.161  16.049   7.252
    9AU     LIG 3460  32.159  15.620   7.080
    9AU     LIG 3461  32.243  15.327   6.723
    9AU       S 3462  32.226  16.706   6.776
    9AU     LIG 3463  32.325  16.387   6.493
    9AU     LIG 3464  32.152  16.054   6.269
    9AU     LIG 3465  32.295  15.757   5.959
   10AU     AUC 3466  17.292   0.719   7.517
   10AU     AUC 3467  17.550   0.713   7.360
   10AU     AUC 3468  17.543   0.727   7.682
   10AU     AUC 3469  17.033   0.705   7.358
   10AU     AUC 3470  17.032   0.738   7.676
   10AU     AUC 3471  17.141   0.972   7.494
   10AU     AUC 3472  17.459   0.977   7.501
   10AU     AUC 3473  17.132   0.462   7.535
   10AU     AUC 3474  17.450   0.461   7.532
   10AU     AUC 3475  17.285   0.581   7.786
   10AU     AUC 3476  17.296   0.900   7.765
   10AU     AUC 3477  17.296   0.542   7.269
   10AU     AUC 3478  17.295   0.858   7.247
   10AU     AUC 3479  17.810   0.719   7.205
   10AU     AUC 3480  17.800   0.716   7.528
   10AU     AUC 3481  17.791   0.718   7.850
   10AU     AUC 3482  16.780   0.682   7.198
   10AU     AUC 3483  16.767   0.727   7.520
   10AU     AUC 3484  16.779   0.769   7.838
   10AU     AUC 3485  16.989   1.229   7.460
   10AU     AUC 3486  17.328   1.233   7.462
   10AU     AUC 3487  17.640   1.236   7.483
   10AU     AUC 3488  16.971   0.208   7.555
   10AU     AUC 3489  17.302   0.201   7.540
   10AU     AUC 3490  17.619   0.201   7.549
   10AU     AUC 3491  17.280   0.442   8.055
   10AU     AUC 3492  17.281   0.766   8.049
   10AU     AUC 3493  17.309   1.086   8.011
   10AU     AUC 3494  17.319   0.368   7.022
   10AU     AUC 3495  17.294   0.680   6.996
   10AU     AUC 3496  17.292   0.992   6.976
   10AU     AUC 3497  17.531   0.575   7.957
   10AU     AUC 3498  17.556   0.900   7.938
   10AU     AUC 3499  17.573   0.549   7.102
   10AU     AUC 3500  17.553   0.864   7.084
   10AU     AUC 3501  17.026   0.607   7.953
   10AU     AUC 3502  17.032   0.931   7.928
   10AU     AUC 3503  17.036   0.512   7.111
   10AU     AUC 3504  17.025   0.833   7.078
   10AU     AUC 3505  17.724   0.972   7.348
   10AU     AUC 3506  17.713   0.991   7.673
   10AU     AUC 3507  16.872   0.974   7.321
   10AU     AUC 3508  16.875   1.014   7.651
   10AU     AUC 3509  17.709   0.446   7.372
   10AU     AUC 3510  17.704   0.460   7.701
   10AU     AUC 3511  16.861   0.440   7.388
   10AU     AUC 3512  16.862   0.473   7.706
   10AU     AUC 3513  17.148   1.155   7.753
   10AU     AUC 3514  17.487   1.161   7.750
   10AU     AUC 3515  17.127   0.319   7.807
   10AU     AUC 3516  17.446   0.311   7.803
   10AU     AUC 3517  17.132   1.120   7.218
   10AU     AUC 3518  17.471   1.127   7.226
   10AU     AUC 3519  17.138   0.274   7.282
   10AU     AUC 3520  17.477   0.285   7.276
   10AU    AUSL 3521  17.691   0.685   8.156
   10AU    AUSL 3522  17.582   0.338   8.142
   10AU     AUL 3523  17.961   0.520   8.289
   10AU    AUSL 3524  17.376   0.593   8.282
   10AU    AUSL 3525  17.154   0.950   8.265
   10AU     AUL 3526  17.423   0.868   8.558
   10AU    AUSL 3527  17.489   0.975   8.226
   10AU    AUSL 3528  17.860   0.963   8.020
   10AU     AUL 3529  17.808   0.884   8.418
   10AU    AUSL 3530  17.734   0.763   6.892
   10AU    AUSL 3531  17.610   1.110   6.902
   10AU     AUL 3532  18.003   0.922   6.771
   10AU    AUSL 3533  17.522   0.513   6.800
   10AU    AUSL 3534  17.890   0.476   7.043
   10AU     AUL 3535  17.877   0.509   6.665
   10AU    AUSL 3536  17.395   0.825   6.764
   10AU    AUSL 3537  17.178   0.493   6.800
   10AU     AUL 3538  17.394   0.378   6.560
   10AU    AUSL 3539  16.837   0.873   8.137
   10AU    AUSL 3540  17.024   1.210   8.033
   10AU     AUL 3541  16.944   1.220   8.366
   10AU    AUSL 3542  17.030   0.611   8.240
   10AU    AUSL 3543  16.775   0.495   8.015
   10AU     AUL 3544  16.571   0.679   8.174
   10AU    AUSL 3545  16.857   0.555   6.883
   10AU    AUSL 3546  17.014   0.226   7.001
   10AU     AUL 3547  17.026   0.220   6.654
   10AU    AUSL 3548  17.043   0.822   6.802
   10AU    AUSL 3549  16.752   0.950   7.011
   10AU     AUL 3550  16.597   0.690   6.863
   10AU    AUSL 3551  17.952   1.154   7.438
   10AU    AUSL 3552  17.876   0.998   7.109
   10AU     AUL 3553  18.220   0.947   7.094
   10AU    AUSL 3554  18.059   0.832   7.377
   10AU    AUSL 3555  18.041   0.585   7.694
   10AU     AUL 3556  18.373   0.687   7.543
   10AU    AUSL 3557  17.927   0.915   7.685
   10AU    AUSL 3558  17.828   1.258   7.757
   10AU     AUL 3559  18.155   0.976   7.788
   10AU    AUSL 3560  16.710   1.213   7.476
   10AU    AUSL 3561  16.711   1.085   7.894
   10AU     AUL 3562  16.402   1.241   7.648
   10AU    AUSL 3563  16.576   0.886   7.292
   10AU    AUSL 3564  16.844   1.266   7.158
   10AU     AUL 3565  16.476   1.193   7.193
   10AU    AUSL 3566  16.556   0.895   7.662
   10AU    AUSL 3567  16.536   0.570   7.400
   10AU     AUL 3568  16.267   0.878   7.447
   10AU    AUSL 3569  17.919   0.268   7.618
   10AU    AUSL 3570  17.845   0.438   7.945
   10AU     AUL 3571  18.180   0.506   7.955
   10AU    AUSL 3572  17.927   0.514   7.380
   10AU    AUSL 3573  17.818   0.180   7.275
   10AU     AUL 3574  18.160   0.437   7.292
   10AU    AUSL 3575  16.644   0.264   7.551
   10AU    AUSL 3576  16.714   0.390   7.139
   10AU     AUL 3577  16.388   0.325   7.233
   10AU    AUSL 3578  16.563   0.563   7.750
   10AU    AUSL 3579  16.839   0.187   7.855
   10AU     AUL 3580  16.531   0.235   7.909
   10AU    AUSL 3581  17.322   1.395   7.921
   10AU    AUSL 3582  16.889   1.366   7.744
   10AU     AUL 3583  17.072   1.560   8.078
   10AU    AUSL 3584  17.197   1.324   7.597
   10AU    AUSL 3585  17.451   1.478   7.317
   10AU     AUL 3586  17.186   1.632   7.615
   10AU    AUSL 3587  17.545   1.458   7.641
   10AU    AUSL 3588  17.605   1.214   8.023
   10AU     AUL 3589  17.655   1.551   7.952
   10AU    AUSL 3590  17.320   0.128   7.973
   10AU    AUSL 3591  17.665   0.142   7.858
   10AU     AUL 3592  17.423   0.064   8.257
   10AU    AUSL 3593  17.098   0.014   7.727
   10AU    AUSL 3594  17.054   0.290   8.123
   10AU     AUL 3595  17.022  44.917   8.046
   10AU    AUSL 3596  17.423  44.970   7.669
   10AU    AUSL 3597  17.174  44.987   7.387
   10AU     AUL 3598  16.976  44.784   7.564
   10AU    AUSL 3599  17.319   1.278   7.060
   10AU    AUSL 3600  17.720   1.296   7.206
   10AU     AUL 3601  17.510   1.466   6.912
   10AU    AUSL 3602  17.100   1.451   7.288
   10AU    AUSL 3603  17.041   1.138   6.901
   10AU     AUL 3604  17.099   1.463   6.901
   10AU    AUSL 3605  17.321   0.076   7.077
   10AU    AUSL 3606  16.847   0.105   7.305
   10AU     AUL 3607  17.041  44.869   7.084
   10AU    AUSL 3608  17.536  44.997   7.351
   10AU    AUSL 3609  17.618   0.256   6.996
   10AU     AUL 3610  17.620  44.947   6.983
   10AU       S 3611  17.915  44.999   8.326
   10AU     LIG 3612  17.968  44.578   8.449
   10AU     LIG 3613  18.291  44.362   8.657
   10AU     LIG 3614  18.304  44.222   9.114
   10AU       S 3615  17.665   0.404   8.684
   10AU     LIG 3616  17.871   0.599   9.067
   10AU     LIG 3617  18.104   0.680   9.466
   10AU     LIG 3618  18.431   0.609   9.802
   10AU       S 3619  17.337   0.374   8.677
   10AU     LIG 3620  17.368   0.444   9.141
   10AU     LIG 3621  17.666   0.384   9.515
   10AU     LIG 3622  18.045   0.257   9.774
   10AU       S 3623  16.949   0.850   8.730
   10AU     LIG 3624  16.908   0.760   9.161
   10AU     LIG 3625  16.619   0.713   9.498
   10AU     LIG 3626  16.461   0.753   9.932
   10AU       S 3627  17.487   1.377   8.515
   10AU     LIG 3628  17.744   1.552   8.852
   10AU     LIG 3629  18.109   1.412   9.064
   10AU     LIG 3630  18.315   1.005   9.099
   10AU       S 3631  18.162   1.222   8.237
   10AU     LIG 3632  18.345   1.268   8.629
   10AU     LIG 3633  18.556   1.583   8.827
   10AU     LIG 3634  18.834   1.919   8.998
   10AU       S 3635  17.709   0.977   6.368
   10AU     LIG 3636  18.010   0.833   6.027
   10AU     LIG 3637  18.203   0.429   5.927
   10AU     LIG 3638  18.093   0.097   5.641
   10AU       S 3639  17.960   1.435   6.693
   10AU     LIG 3640  18.086   1.881   6.536
   10AU     LIG 3641  18.318   2.201   6.245
   10AU     LIG 3642  18.626   2.312   5.892
   10AU       S 3643  18.244   0.177   6.864
   10AU     LIG 3644  18.326   0.193   6.390
   10AU     LIG 3645  18.354  44.880   6.062
   10AU     LIG 3646  18.369  44.412   6.065
   10AU       S 3647  17.589   0.740   6.284
   10AU     LIG 3648  17.676   0.426   5.953
   10AU     LIG 3649  17.598   0.232   5.537
   10AU     LIG 3650  17.863   0.160   5.158
   10AU       S 3651  17.018   0.632   6.315
   10AU     LIG 3652  16.878   0.590   5.892
   10AU     LIG 3653  17.041   0.418   5.520
   10AU     LIG 3654  17.022   0.486   5.071
   10AU       S 3655  17.411   0.967   6.394
   10AU     LIG 3656  17.257   0.925   5.955
   10AU     LIG 3657  17.477   0.739   5.598
   10AU     LIG 3658  17.932   0.619   5.522
   10AU       S 3659  16.688   0.842   8.631
   10AU     LIG 3660  16.439   0.505   8.827
   10AU     LIG 3661  16.261   0.293   9.159
   10AU     LIG 3662  16.250   0.385   9.627
   10AU       S 3663  16.566   1.527   8.151
   10AU     LIG 3664  16.314   1.803   8.409
   10AU     LIG 3665  16.140   1.717   8.820
   10AU     LIG 3666  15.977   1.943   9.203
   10AU       S 3667  16.611   0.245   8.433
   10AU     LIG 3668  16.161   0.158   8.522
   10AU     LIG 3669  15.738   0.131   8.734
   10AU     LIG 3670  15.276   0.256   8.773
   10AU       S 3671  16.898   0.609   8.626
   10AU     LIG 3672  16.897   0.305   8.959
   10AU     LIG 3673  16.729   0.231   9.352
   10AU     LIG 3674  16.720   0.282   9.807
   10AU       S 3675  16.747   0.583   6.398
   10AU     LIG 3676  16.482   0.351   6.130
   10AU     LIG 3677  16.456   0.374   5.677
   10AU     LIG 3678  16.589   0.643   5.318
   10AU       S 3679  16.643  44.887   6.776
   10AU     LIG 3680  16.497  44.443   6.642
   10AU     LIG 3681  16.373  44.218   6.262
   10AU     LIG 3682  16.260  44.504   5.972
   10AU       S 3683  16.504   1.140   6.649
   10AU     LIG 3684  16.149   1.476   6.674
   10AU     LIG 3685  15.924   1.841   6.457
   10AU     LIG 3686  15.822   2.117   6.078
   10AU       S 3687  16.913   0.878   6.421
   10AU     LIG 3688  16.578   0.989   6.144
   10AU     LIG 3689  16.611   0.996   5.703
   10AU     LIG 3690  17.006   0.931   5.487
   10AU       S 3691  18.153   1.418   6.916
   10AU     LIG 3692  18.496   1.605   6.645
   10AU     LIG 3693  18.672   1.822   6.248
   10AU     LIG 3694  19.046   2.011   5.992
   10AU       S 3695  18.247   1.424   7.420
   10AU     LIG 3696  18.616   1.709   7.351
   10AU     LIG 3697  18.930   1.709   7.664
   10AU     LIG 3698  19.263   1.909   7.866
   10AU       S 3699  18.483   1.205   7.431
   10AU     LIG 3700  18.922   1.279   7.365
   10AU     LIG 3701  19.315   1.071   7.253
   10AU     LIG 3702  19.739   0.976   7.070
   10AU       S 3703  18.420   0.152   7.705
   10AU     LIG 3704  18.698  44.843   7.838
   10AU     LIG 3705  19.127  44.845   7.845
   10AU     LIG 3706  19.395   0.197   7.901
   10AU       S 3707  18.148   1.454   8.052
   10AU     LIG 3708  18.512   1.632   8.279
   10AU     LIG 3709  18.539   2.022   8.564
   10AU     LIG 3710  18.494   2.310   8.934
   10AU       S 3711  18.388   1.372   7.638
   10AU     LIG 3712  18.758   1.254   7.867
   10AU     LIG 3713  19.209   1.200   7.793
   10AU     LIG 3714  19.519   1.478   7.950
   10AU       S 3715  16.440   1.261   8.173
   10AU     LIG 3716  16.044   1.374   8.335
   10AU     LIG 3717  15.732   1.675   8.502
   10AU     LIG 3718  15.640   1.656   8.943
   10AU       S 3719  16.591   1.689   7.384
   10AU     LIG 3720  16.334   2.088   7.369
   10AU     LIG 3721  15.981   2.148   7.080
   10AU     LIG 3722  15.775   1.749   6.954
   10AU       S 3723  16.131   0.870   6.956
   10AU     LIG 3724  15.740   0.601   6.937
   10AU     LIG 3725  15.306   0.767   7.021
   10AU     LIG 3726  15.100   1.198   7.004
   10AU       S 3727  16.610   1.577   6.873
   10AU     LIG 3728  16.417   1.936   6.651
   10AU     LIG 3729  16.116   2.293   6.596
   10AU     LIG 3730  15.660   2.334   6.537
   10AU       S 3731  16.052   0.424   7.593
   10AU     LIG 3732  15.637   0.463   7.437
   10AU     LIG 3733  15.204   0.550   7.468
   10AU     LIG 3734  14.828   0.533   7.222
   10AU       S 3735  16.146   0.907   7.958
   10AU     LIG 3736  15.763   0.868   8.214
   10AU     LIG 3737  15.550   1.248   8.286
   10AU     LIG 3738  15.722   1.576   7.998
   10AU       S 3739  18.174  44.977   7.625
   10AU     LIG 3740  18.197  44.582   7.472
   10AU     LIG 3741  18.460  44.409   7.733
   10AU     LIG 3742  18.867  44.365   7.783
   10AU       S 3743  18.114   0.020   8.121
   10AU     LIG 3744  18.436  44.714   8.249
   10AU     LIG 3745  18.744  44.603   8.589
   10AU     LIG 3746  18.625  44.622   9.036
   10AU       S 3747  18.402   0.060   7.475
   10AU     LIG 3748  18.883   0.101   7.436
   10AU     LIG 3749  19.205  44.965   7.133
   10AU     LIG 3750  19.377  44.853   6.721
   10AU       S 3751  18.130  44.930   7.091
   10AU     LIG 3752  18.328  44.531   6.948
   10AU     LIG 3753  18.159  44.270   6.623
   10AU     LIG 3754  18.204  43.980   6.292
   10AU       S 3755  16.508   0.093   6.809
   10AU     LIG 3756  16.182   0.292   6.557
   10AU     LIG 3757  15.963   0.257   6.142
   10AU     LIG 3758  15.553   0.065   5.981
   10AU       S 3759  16.117   0.169   7.638
   10AU     LIG 3760  15.703  44.980   7.568
   10AU     LIG 3761  15.323   0.037   7.309
   10AU     LIG 3762  15.329  44.897   6.848
   10AU       S 3763  16.626   0.008   8.346
   10AU     LIG 3764  16.591  44.573   8.300
   10AU     LIG 3765  16.257  44.395   8.100
   10AU     LIG 3766  15.953  44.274   8.332
   10AU       S 3767  16.096   0.451   7.780
   10AU     LIG 3768  15.727   0.268   7.995
   10AU     LIG 3769  15.306   0.197   7.829
   10AU     LIG 3770  14.867   0.244   7.687
   10AU       S 3771  16.620   1.688   7.873
   10AU     LIG 3772  16.306   2.016   7.912
   10AU     LIG 3773  15.947   2.090   8.185
   10AU     LIG 3774  15.897   2.136   8.645
   10AU       S 3775  17.375   1.973   7.953
   10AU     LIG 3776  17.430   2.427   8.087
   10AU     LIG 3777  17.259   2.660   8.434
   10AU     LIG 3778  16.869   2.540   8.635
   10AU       S 3779  17.295   2.146   7.680
   10AU     LIG 3780  16.906   2.226   7.885
   10AU     LIG 3781  16.871   2.584   8.113
   10AU     LIG 3782  17.081   3.004   8.088
   10AU       S 3783  17.435   1.900   7.221
   10AU     LIG 3784  17.320   2.374   7.241
   10AU     LIG 3785  17.415   2.827   7.288
   10AU     LIG 3786  17.621   3.144   7.051
   10AU       S 3787  17.952   1.397   8.328
   10AU     LIG 3788  18.098   1.742   8.544
   10AU     LIG 3789  18.165   1.911   8.941
   10AU     LIG 3790  18.427   1.767   9.281
   10AU       S 3791  17.596   1.976   7.673
   10AU     LIG 3792  17.642   2.488   7.621
   10AU     LIG 3793  17.520   2.872   7.827
   10AU     LIG 3794  17.607   2.994   8.252
   10AU       S 3795  17.465  44.607   8.059
   10AU     LIG 3796  17.500  44.378   8.462
   10AU     LIG 3797  17.530  44.027   8.774
   10AU     LIG 3798  17.497  43.602   8.616
   10AU       S 3799  17.891  44.880   8.027
   10AU     LIG 3800  18.000  44.506   7.934
   10AU     LIG 3801  18.225  44.273   8.146
   10AU     LIG 3802  18.685  44.228   8.244
   10AU       S 3803  17.270  44.499   7.854
   10AU     LIG 3804  17.084  44.285   8.182
   10AU     LIG 3805  17.134  44.002   8.480
   10AU     LIG 3806  16.962  43.634   8.538
   10AU       S 3807  16.870   0.134   8.496
   10AU     LIG 3808  16.546  44.953   8.839
   10AU     LIG 3809  16.512  44.506   8.849
   10AU     LIG 3810  16.354  44.164   9.076
   10AU       S 3811  17.328  44.492   7.336
   10AU     LIG 3812  17.112  44.092   7.229
   10AU     LIG 3813  17.089  43.655   7.139
   10AU     LIG 3814  17.181  43.511   6.722
   10AU       S 3815  17.527  44.604   7.801
   10AU     LIG 3816  17.631  44.160   7.929
   10AU     LIG 3817  17.448  43.836   8.149
   10AU     LIG 3818  17.212  43.432   8.139
   10AU       S 3819  17.276   1.910   7.017
   10AU     LIG 3820  17.220   2.269   6.751
   10AU     LIG 3821  17.553   2.483   6.516
   10AU     LIG 3822  17.795   2.869   6.604
   10AU       S 3823  17.986   1.595   7.040
   10AU     LIG 3824  18.298   1.928   7.012
   10AU     LIG 3825  18.570   2.148   6.714
   10AU     LIG 3826  18.821   2.296   6.369
   10AU       S 3827  17.052   1.891   7.202
   10AU     LIG 3828  16.807   2.229   7.095
   10AU     LIG 3829  16.951   2.656   7.039
   10AU     LIG 3830  17.304   2.825   6.791
   10AU       S 3831  16.720   1.317   6.600
   10AU     LIG 3832  16.468   1.540   6.279
   10AU     LIG 3833  16.313   1.961   6.125
   10AU     LIG 3834  16.229   2.436   6.107
   10AU       S 3835  16.527  44.843   7.054
   10AU     LIG 3836  16.203  44.403   7.030
   10AU     LIG 3837  16.122  44.096   6.688
   10AU     LIG 3838  16.411  43.796   6.563
   10AU       S 3839  17.403  44.504   7.064
   10AU     LIG 3840  17.652  44.375   6.672
   10AU     LIG 3841  17.692  43.996   6.398
   10AU     LIG 3842  17.321  43.725   6.224
   10AU       S 3843  17.611  44.570   7.327
   10AU     LIG 3844  17.903  44.348   7.133
   10AU     LIG 3845  18.163  44.030   7.075
   10AU     LIG 3846  18.035  43.791   6.732
   10AU       S 3847  18.071   0.010   6.797
   10AU     LIG 3848  18.060  44.735   6.461
   10AU     LIG 3849  17.868  44.429   6.192
   10AU     LIG 3850  17.915  44.094   5.888
   11POPC   NC3 3851  43.349  27.654   9.484
   11POPC   PO4 3852  42.807  27.992   9.246
   11POPC   GL1 3853  43.086  27.779   8.990
   11POPC   GL2 3854  43.154  27.464   9.060
   11POPC   C1A 3855  43.129  27.640   8.583
   11POPC   D2A 3856  42.845  27.518   8.276
   11POPC   C3A 3857  42.914  27.613   7.911
   11POPC   C4A 3858  43.023  27.490   7.556
   11POPC   C1B 3859  43.372  27.223   8.740
   11POPC   C2B 3860  43.459  27.347   8.323
   11POPC   C3B 3861  43.396  27.362   7.876
   11POPC   C4B 3862  43.371  27.122   7.444
   12POPC   NC3 3863  18.473  10.957   9.580
   12POPC   PO4 3864  18.206  11.627   9.509
   12POPC   GL1 3865  18.209  11.447   9.116
   12POPC   GL2 3866  18.470  11.228   9.142
   12POPC   C1A 3867  18.013  11.162   8.811
   12POPC   D2A 3868  17.847  11.169   8.386
   12POPC   C3A 3869  18.112  11.191   8.034
   12POPC   C4A 3870  18.154  10.832   7.797
   12POPC   C1B 3871  18.498  11.375   8.707
   12POPC   C2B 3872  18.655  11.238   8.294
   12POPC   C3B 3873  18.563  11.430   7.914
   12POPC   C4B 3874  18.568  11.764   7.657
   13POPC   NC3 3875   0.394  25.130   9.796
   13POPC   PO4 3876   0.764  25.565   9.433
   13POPC   GL1 3877   0.419  25.337   9.199
   13POPC   GL2 3878   0.153  25.613   9.228
   13POPC   C1A 3879   0.390  25.162   8.734
   13POPC   D2A 3880   0.369  25.240   8.242
   13POPC   C3A 3881   0.399  24.951   7.889
   13POPC   C4A 3882   0.697  24.762   7.648
   13POPC   C1B 3883   0.273  25.652   8.809
   13POPC   C2B 3884   0.526  25.668   8.457
   13POPC   C3B 3885   0.592  25.650   8.014
   13POPC   C4B 3886   0.250  25.466   7.776
   14POPC   NC3 3887  43.036   2.203   9.530
   14POPC   PO4 3888  43.013   1.505   9.413
   14POPC   GL1 3889  43.149   1.813   9.126
   14POPC   GL2 3890  43.313   2.132   9.125
   14POPC   C1A 3891  42.900   1.968   8.792
   14POPC   D2A 3892  42.792   2.269   8.472
   14POPC   C3A 3893  42.875   2.092   8.062
   14POPC   C4A 3894  43.264   1.916   7.936
   14POPC   C1B 3895  43.248   2.364   8.787
   14POPC   C2B 3896  43.303   2.202   8.387
   14POPC   C3B 3897  43.304   2.425   8.035
   14POPC   C4B 3898  43.574   2.496   7.681
   15POPC   NC3 3899  41.069   6.582   9.450
   15POPC   PO4 3900  40.518   6.840   9.756
   15POPC   GL1 3901  40.560   6.856   9.257
   15POPC   GL2 3902  40.851   7.056   9.228
   15POPC   C1A 3903  40.463   6.792   8.782
   15POPC   D2A 3904  40.441   6.414   8.469
   15POPC   C3A 3905  40.547   6.371   8.021
   15POPC   C4A 3906  40.904   6.544   7.766
   15POPC   C1B 3907  41.084   7.029   8.850
   15POPC   C2B 3908  40.906   6.845   8.503
   15POPC   C3B 3909  40.824   6.967   8.110
   15POPC   C4B 3910  41.186   6.953   7.867
   16POPC   NC3 3911   2.609  31.012   9.423
   16POPC   PO4 3912   2.526  31.664   9.460
   16POPC   GL1 3913   2.670  31.446   9.116
   16POPC   GL2 3914   2.954  31.493   8.923
   16POPC   C1A 3915   2.514  31.429   8.710
   16POPC   D2A 3916   2.800  31.322   8.399
   16POPC   C3A 3917   2.828  31.623   8.082
   16POPC   C4A 3918   2.664  31.562   7.671
   16POPC   C1B 3919   3.243  31.355   8.603
   16POPC   C2B 3920   3.291  31.395   8.177
   16POPC   C3B 3921   3.228  31.492   7.764
   16POPC   C4B 3922   3.064  31.259   7.428
   17POPC   NC3 3923  41.303  19.634   9.380
   17POPC   PO4 3924  41.957  19.742   9.580
   17POPC   GL1 3925  41.767  19.921   9.197
   17POPC   GL2 3926  41.589  19.671   8.972
   17POPC   C1A 3927  41.792  20.062   8.744
   17POPC   D2A 3928  41.787  19.704   8.411
   17POPC   C3A 3929  41.645  19.730   7.949
   17POPC   C4A 3930  41.674  19.808   7.475
   17POPC   C1B 3931  41.340  19.870   8.628
   17POPC   C2B 3932  41.482  20.114   8.269
   17POPC   C3B 3933  41.272  20.093   7.883
   17POPC   C4B 3934  41.175  19.738   7.631
   18POPC   NC3 3935  40.949  41.474   9.607
   18POPC   PO4 3936  41.061  41.085   9.136
   18POPC   GL1 3937  40.933  41.475   9.080
   18POPC   GL2 3938  40.609  41.395   9.082
   18POPC   C1A 3939  40.793  41.697   8.699
   18POPC   D2A 3940  40.578  41.604   8.320
   18POPC   C3A 3941  40.752  41.663   7.900
   18POPC   C4A 3942  40.659  41.943   7.573
   18POPC   C1B 3943  40.346  41.406   8.734
   18POPC   C2B 3944  40.285  41.212   8.332
   18POPC   C3B 3945  40.316  41.389   7.938
   18POPC   C4B 3946  40.409  41.167   7.584
   19POPC   NC3 3947  29.250   1.012   9.484
   19POPC   PO4 3948  28.893   1.716   9.421
   19POPC   GL1 3949  29.033   1.389   9.163
   19POPC   GL2 3950  29.406   1.382   9.134
   19POPC   C1A 3951  28.936   1.224   8.758
   19POPC   D2A 3952  28.808   1.004   8.364
   19POPC   C3A 3953  28.896   1.165   7.947
   19POPC   C4A 3954  28.954   1.402   7.565
   19POPC   C1B 3955  29.411   1.031   8.848
   19POPC   C2B 3956  29.565   0.980   8.448
   19POPC   C3B 3957  29.369   0.977   8.058
   19POPC   C4B 3958  29.293   1.013   7.626
   20POPC   NC3 3959  11.835  33.722   9.989
   20POPC   PO4 3960  12.483  33.598   9.613
   20POPC   GL1 3961  12.212  33.737   9.200
   20POPC   GL2 3962  11.851  33.678   9.142
   20POPC   C1A 3963  12.166  33.980   8.812
   20POPC   D2A 3964  12.233  33.873   8.390
   20POPC   C3A 3965  12.388  34.130   8.050
   20POPC   C4A 3966  12.454  33.934   7.655
   20POPC   C1B 3967  11.672  33.957   8.809
   20POPC   C2B 3968  11.740  34.076   8.381
   20POPC   C3B 3969  11.930  33.888   7.979
   20POPC   C4B 3970  11.831  33.484   7.787
   21POPC   NC3 3971  38.404  27.178   9.523
   21POPC   PO4 3972  38.269  26.471   9.577
   21POPC   GL1 3973  38.286  26.690   9.209
   21POPC   GL2 3974  38.646  26.651   9.186
   21POPC   C1A 3975  38.367  26.900   8.815
   21POPC   D2A 3976  38.222  26.882   8.395
   21POPC   C3A 3977  38.411  27.119   8.062
   21POPC   C4A 3978  38.519  27.087   7.613
   21POPC   C1B 3979  38.647  26.470   8.763
   21POPC   C2B 3980  38.715  26.661   8.352
   21POPC   C3B 3981  38.675  26.690   7.922
   21POPC   C4B 3982  38.886  26.521   7.593
   22POPC   NC3 3983  37.658  35.702   9.602
   22POPC   PO4 3984  37.639  35.035   9.528
   22POPC   GL1 3985  37.713  35.342   9.194
   22POPC   GL2 3986  37.394  35.443   9.115
   22POPC   C1A 3987  37.923  35.215   8.785
   22POPC   D2A 3988  38.072  35.208   8.341
   22POPC   C3A 3989  37.896  35.454   7.981
   22POPC   C4A 3990  37.723  35.461   7.515
   22POPC   C1B 3991  37.436  35.360   8.707
   22POPC   C2B 3992  37.484  35.421   8.290
   22POPC   C3B 3993  37.392  35.342   7.874
   22POPC   C4B 3994  37.216  35.503   7.489
   23POPC   NC3 3995   9.386  14.997   9.435
   23POPC   PO4 3996   9.898  15.348   9.576
   23POPC   GL1 3997   9.778  15.183   9.162
   23POPC   GL2 3998   9.867  15.528   9.086
   23POPC   C1A 3999   9.452  15.080   8.760
   23POPC   D2A 4000   9.275  15.065   8.288
   23POPC   C3A 4001   9.588  15.223   7.947
   23POPC   C4A 4002   9.838  15.125   7.560
   23POPC   C1B 4003   9.908  15.311   8.705
   23POPC   C2B 4004  10.038  15.411   8.359
   23POPC   C3B 4005  10.229  15.713   8.147
   23POPC   C4B 4006  10.073  15.461   7.836
   24POPC   NC3 4007   1.327  15.044   9.513
   24POPC   PO4 4008   0.793  15.394   9.300
   24POPC   GL1 4009   1.053  15.211   9.058
   24POPC   GL2 4010   1.325  15.396   9.137
   24POPC   C1A 4011   1.045  15.283   8.617
   24POPC   D2A 4012   1.244  15.525   8.300
   24POPC   C3A 4013   1.380  15.305   7.984
   24POPC   C4A 4014   1.111  15.064   7.756
   24POPC   C1B 4015   1.504  15.163   8.807
   24POPC   C2B 4016   1.436  14.985   8.394
   24POPC   C3B 4017   1.669  14.869   8.011
   24POPC   C4B 4018   1.594  14.987   7.605
   25POPC   NC3 4019   2.323  16.864   9.552
   25POPC   PO4 4020   1.849  16.472   9.582
   25POPC   GL1 4021   1.938  16.717   9.189
   25POPC   GL2 4022   1.698  16.984   9.132
   25POPC   C1A 4023   2.086  16.892   8.772
   25POPC   D2A 4024   1.925  17.040   8.376
   25POPC   C3A 4025   2.090  16.844   8.005
   25POPC   C4A 4026   2.191  16.467   7.803
   25POPC   C1B 4027   1.585  16.803   8.723
   25POPC   C2B 4028   1.433  16.987   8.321
   25POPC   C3B 4029   1.597  16.925   7.933
   25POPC   C4B 4030   1.755  16.663   7.578
   26POPC   NC3 4031  41.332  16.904   9.444
   26POPC   PO4 4032  41.895  16.713   9.796
   26POPC   GL1 4033  41.865  16.798   9.292
   26POPC   GL2 4034  41.561  16.720   9.057
   26POPC   C1A 4035  41.975  16.761   8.816
   26POPC   D2A 4036  41.691  16.693   8.457
   26POPC   C3A 4037  41.858  16.731   8.055
   26POPC   C4A 4038  42.019  16.807   7.606
   26POPC   C1B 4039  41.515  16.361   8.815
   26POPC   C2B 4040  41.444  16.182   8.439
   26POPC   C3B 4041  41.406  16.387   8.065
   26POPC   C4B 4042  41.294  16.711   7.801
   27POPC   NC3 4043  32.418  36.113   9.774
   27POPC   PO4 4044  31.952  35.909   9.289
   27POPC   GL1 4045  32.341  35.819   9.044
   27POPC   GL2 4046  32.695  35.723   9.132
   27POPC   C1A 4047  32.388  36.030   8.655
   27POPC   D2A 4048  32.049  36.097   8.400
   27POPC   C3A 4049  32.125  36.031   7.993
   27POPC   C4A 4050  32.381  36.363   7.837
   27POPC   C1B 4051  32.558  35.556   8.681
   27POPC   C2B 4052  32.512  35.733   8.252
   27POPC   C3B 4053  32.613  35.893   7.847
   27POPC   C4B 4054  32.610  35.715   7.443
   28POPC   NC3 4055   4.401  22.055   9.493
   28POPC   PO4 4056   4.572  22.681   9.356
   28POPC   GL1 4057   4.359  22.346   9.062
   28POPC   GL2 4058   4.298  21.953   9.032
   28POPC   C1A 4059   4.144  22.289   8.688
   28POPC   D2A 4060   4.303  22.538   8.384
   28POPC   C3A 4061   4.241  22.413   7.980
   28POPC   C4A 4062   4.622  22.446   7.810
   28POPC   C1B 4063   4.559  22.002   8.708
   28POPC   C2B 4064   4.393  22.037   8.306
   28POPC   C3B 4065   4.506  21.954   7.892
   28POPC   C4B 4066   4.788  21.647   7.770
   29POPC   NC3 4067  41.370  34.761   9.451
   29POPC   PO4 4068  41.112  35.404   9.633
   29POPC   GL1 4069  41.352  35.385   9.246
   29POPC   GL2 4070  41.204  35.089   9.068
   29POPC   C1A 4071  41.408  35.510   8.813
   29POPC   D2A 4072  41.318  35.278   8.434
   29POPC   C3A 4073  41.234  35.377   7.961
   29POPC   C4A 4074  41.424  35.567   7.574
   29POPC   C1B 4075  41.648  35.077   8.890
   29POPC   C2B 4076  41.780  35.092   8.449
   29POPC   C3B 4077  41.532  34.987   8.074
   29POPC   C4B 4078  41.599  35.108   7.682
   30POPC   NC3 4079  23.154  41.917   9.544
   30POPC   PO4 4080  22.557  41.536   9.483
   30POPC   GL1 4081  22.896  41.623   9.214
   30POPC   GL2 4082  23.065  41.356   9.036
   30POPC   C1A 4083  23.045  41.814   8.843
   30POPC   D2A 4084  23.095  41.579   8.467
   30POPC   C3A 4085  22.851  41.766   8.120
   30POPC   C4A 4086  22.966  41.837   7.729
   30POPC   C1B 4087  22.830  41.137   8.771
   30POPC   C2B 4088  22.825  40.990   8.363
   30POPC   C3B 4089  22.977  41.229   8.056
   30POPC   C4B 4090  22.943  41.333   7.662
   31POPC   NC3 4091   1.512   5.850   9.424
   31POPC   PO4 4092   0.797   6.014   9.327
   31POPC   GL1 4093   1.128   5.791   9.090
   31POPC   GL2 4094   1.501   5.665   8.976
   31POPC   C1A 4095   1.017   5.658   8.697
   31POPC   D2A 4096   0.834   5.916   8.385
   31POPC   C3A 4097   1.016   5.927   8.012
   31POPC   C4A 4098   0.986   5.610   7.772
   31POPC   C1B 4099   1.638   5.941   8.689
   31POPC   C2B 4100   1.388   5.819   8.369
   31POPC   C3B 4101   1.429   5.611   8.021
   31POPC   C4B 4102   1.416   5.910   7.693
   32POPC   NC3 4103  43.743   9.379  10.071
   32POPC   PO4 4104  43.721   8.703   9.870
   32POPC   GL1 4105  43.780   8.978   9.357
   32POPC   GL2 4106  43.743   8.718   9.116
   32POPC   C1A 4107  44.072   9.044   8.973
   32POPC   D2A 4108  43.980   9.136   8.514
   32POPC   C3A 4109  44.203   8.974   8.138
   32POPC   C4A 4110  44.111   8.652   7.834
   32POPC   C1B 4111  43.641   8.816   8.737
   32POPC   C2B 4112  43.595   8.674   8.367
   32POPC   C3B 4113  43.661   8.838   8.017
   32POPC   C4B 4114  43.820   9.045   7.680
   33POPC   NC3 4115   8.590  13.226   9.386
   33POPC   PO4 4116   8.089  13.665   9.668
   33POPC   GL1 4117   8.234  13.580   9.281
   33POPC   GL2 4118   8.076  13.239   9.304
   33POPC   C1A 4119   8.357  13.643   8.845
   33POPC   D2A 4120   8.278  13.881   8.446
   33POPC   C3A 4121   8.294  13.622   8.089
   33POPC   C4A 4122   8.512  13.405   7.722
   33POPC   C1B 4123   7.857  13.459   8.976
   33POPC   C2B 4124   7.926  13.525   8.540
   33POPC   C3B 4125   7.804  13.428   8.113
   33POPC   C4B 4126   7.998  13.472   7.727
   34POPC   NC3 4127  40.176   9.481   9.539
   34POPC   PO4 4128  39.960  10.098   9.547
   34POPC   GL1 4129  39.930   9.797   9.173
   34POPC   GL2 4130  40.235   9.569   9.058
   34POPC   C1A 4131  39.885   9.901   8.720
   34POPC   D2A 4132  39.616   9.973   8.363
   34POPC   C3A 4133  39.674   9.758   7.950
   34POPC   C4A 4134  40.019   9.612   7.625
   34POPC   C1B 4135  40.349   9.965   8.942
   34POPC   C2B 4136  40.375   9.942   8.511
   34POPC   C3B 4137  40.129   9.816   8.173
   34POPC   C4B 4138  40.037  10.083   7.823
   35POPC   NC3 4139  42.432  27.902   9.502
   35POPC   PO4 4140  42.601  27.249   9.516
   35POPC   GL1 4141  42.574  27.544   9.117
   35POPC   GL2 4142  42.286  27.828   9.033
   35POPC   C1A 4143  42.623  27.704   8.688
   35POPC   D2A 4144  42.296  27.816   8.405
   35POPC   C3A 4145  42.400  27.617   8.034
   35POPC   C4A 4146  42.523  27.226   7.844
   35POPC   C1B 4147  42.163  27.482   8.769
   35POPC   C2B 4148  41.934  27.398   8.395
   35POPC   C3B 4149  41.988  27.299   7.974
   35POPC   C4B 4150  42.102  27.287   7.555
   36POPC   NC3 4151  25.070  23.256   9.422
   36POPC   PO4 4152  25.229  22.682   9.711
   36POPC   GL1 4153  25.251  22.758   9.266
   36POPC   GL2 4154  25.497  23.030   9.169
   36POPC   C1A 4155  25.095  22.721   8.851
   36POPC   D2A 4156  25.213  22.611   8.447
   36POPC   C3A 4157  25.000  22.839   8.126
   36POPC   C4A 4158  25.072  22.935   7.713
   36POPC   C1B 4159  25.580  22.859   8.741
   36POPC   C2B 4160  25.490  23.030   8.310
   36POPC   C3B 4161  25.672  23.080   7.883
   36POPC   C4B 4162  25.542  23.116   7.440
   37POPC   NC3 4163  12.012  40.341   9.572
   37POPC   PO4 4164  12.147  39.686   9.562
   37POPC   GL1 4165  12.304  39.858   9.173
   37POPC   GL2 4166  12.427  39.618   8.941
   37POPC   C1A 4167  12.214  40.043   8.760
   37POPC   D2A 4168  12.250  40.239   8.368
   37POPC   C3A 4169  12.254  40.237   7.934
   37POPC   C4A 4170  11.835  40.151   7.816
   37POPC   C1B 4171  11.971  39.594   8.824
   37POPC   C2B 4172  11.860  39.795   8.461
   37POPC   C3B 4173  12.066  39.776   8.084
   37POPC   C4B 4174  11.801  39.657   7.757
   38POPC   NC3 4175  10.797  22.857   9.529
   38POPC   PO4 4176  10.105  23.237   9.523
   38POPC   GL1 4177  10.257  22.982   9.099
   38POPC   GL2 4178  10.608  22.932   9.063
   38POPC   C1A 4179  10.340  22.894   8.632
   38POPC   D2A 4180  10.536  23.128   8.286
   38POPC   C3A 4181  10.314  23.040   7.922
   38POPC   C4A 4182  10.479  23.013   7.505
   38POPC   C1B 4183  10.749  22.616   8.751
   38POPC   C2B 4184  10.631  22.616   8.282
   38POPC   C3B 4185  10.800  22.841   7.900
   38POPC   C4B 4186  10.866  22.694   7.465
   39POPC   NC3 4187  27.405  27.380   9.421
   39POPC   PO4 4188  27.874  27.883   9.454
   39POPC   GL1 4189  27.659  27.691   9.096
   39POPC   GL2 4190  27.776  27.332   9.029
   39POPC   C1A 4191  27.466  27.886   8.722
   39POPC   D2A 4192  27.573  27.757   8.323
   39POPC   C3A 4193  27.450  27.886   7.941
   39POPC   C4A 4194  27.607  27.597   7.625
   39POPC   C1B 4195  27.497  27.376   8.678
   39POPC   C2B 4196  27.298  27.297   8.254
   39POPC   C3B 4197  27.332  27.198   7.790
   39POPC   C4B 4198  27.307  27.333   7.282
   40POPC   NC3 4199  32.542  33.095   9.564
   40POPC   PO4 4200  31.868  33.208   9.651
   40POPC   GL1 4201  32.093  33.169   9.230
   40POPC   GL2 4202  32.383  32.947   9.113
   40POPC   C1A 4203  32.100  33.201   8.783
   40POPC   D2A 4204  32.275  33.289   8.397
   40POPC   C3A 4205  31.968  33.238   8.087
   40POPC   C4A 4206  31.963  33.094   7.664
   40POPC   C1B 4207  32.242  32.713   8.732
   40POPC   C2B 4208  32.196  32.784   8.297
   40POPC   C3B 4209  32.383  32.971   7.953
   40POPC   C4B 4210  32.390  32.729   7.582
   41POPC   NC3 4211  24.837  26.195   9.393
   41POPC   PO4 4212  24.298  25.889   9.615
   41POPC   GL1 4213  24.497  25.857   9.206
   41POPC   GL2 4214  24.348  26.187   9.149
   41POPC   C1A 4215  24.691  26.038   8.796
   41POPC   D2A 4216  24.598  25.827   8.418
   41POPC   C3A 4217  24.692  26.098   8.103
   41POPC   C4A 4218  24.750  25.894   7.729
   41POPC   C1B 4219  24.200  25.931   8.781
   41POPC   C2B 4220  24.133  26.000   8.328
   41POPC   C3B 4221  24.235  26.007   7.881
   41POPC   C4B 4222  23.948  25.853   7.574
   42POPC   NC3 4223  12.035  40.923   9.491
   42POPC   PO4 4224  12.370  40.383   9.285
   42POPC   GL1 4225  12.021  40.536   9.105
   42POPC   GL2 4226  11.996  40.870   8.984
   42POPC   C1A 4227  11.924  40.454   8.714
   42POPC   D2A 4228  11.963  40.761   8.425
   42POPC   C3A 4229  11.946  40.635   8.027
   42POPC   C4A 4230  11.914  40.935   7.698
   42POPC   C1B 4231  12.378  40.699   8.714
   42POPC   C2B 4232  12.452  40.674   8.250
   42POPC   C3B 4233  12.400  40.761   7.816
   42POPC   C4B 4234  12.341  40.855   7.365
   43POPC   NC3 4235   8.453   4.574   9.608
   43POPC   PO4 4236   8.273   5.148   9.578
   43POPC   GL1 4237   8.248   4.991   9.173
   43POPC   GL2 4238   8.071   4.722   9.254
   43POPC   C1A 4239   8.358   5.081   8.718
   43POPC   D2A 4240   8.405   5.106   8.224
   43POPC   C3A 4241   8.194   5.434   7.954
   43POPC   C4A 4242   7.777   5.431   7.791
   43POPC   C1B 4243   7.850   4.851   8.873
   43POPC   C2B 4244   8.018   4.825   8.461
   43POPC   C3B 4245   7.917   5.009   8.070
   43POPC   C4B 4246   8.167   4.973   7.722
   44POPC   NC3 4247   9.259  16.466   9.892
   44POPC   PO4 4248   9.032  17.000   9.599
   44POPC   GL1 4249   9.206  16.814   9.267
   44POPC   GL2 4250   8.961  16.586   9.224
   44POPC   C1A 4251   9.301  16.719   8.831
   44POPC   D2A 4252   9.440  16.759   8.425
   44POPC   C3A 4253   9.163  16.760   8.079
   44POPC   C4A 4254   9.195  17.082   7.785
   44POPC   C1B 4255   8.811  16.860   8.902
   44POPC   C2B 4256   8.819  16.771   8.472
   44POPC   C3B 4257   8.616  16.824   8.086
   44POPC   C4B 4258   8.751  16.703   7.687
   45POPC   NC3 4259   8.252  28.024   9.880
   45POPC   PO4 4260   8.632  27.561   9.363
   45POPC   GL1 4261   8.240  27.494   9.155
   45POPC   GL2 4262   8.115  27.765   9.062
   45POPC   C1A 4263   8.097  27.456   8.694
   45POPC   D2A 4264   8.414  27.556   8.416
   45POPC   C3A 4265   8.199  27.619   8.082
   45POPC   C4A 4266   8.303  27.519   7.690
   45POPC   C1B 4267   8.388  27.914   8.768
   45POPC   C2B 4268   8.229  28.050   8.430
   45POPC   C3B 4269   8.070  28.118   8.071
   45POPC   C4B 4270   7.947  27.907   7.740
   46POPC   NC3 4271  27.163  36.396   9.607
   46POPC   PO4 4272  27.636  35.844   9.507
   46POPC   GL1 4273  27.578  36.093   9.151
   46POPC   GL2 4274  27.250  36.253   9.111
   46POPC   C1A 4275  27.818  36.100   8.786
   46POPC   D2A 4276  27.767  36.296   8.386
   46POPC   C3A 4277  27.411  36.085   8.162
   46POPC   C4A 4278  27.508  35.985   7.724
   46POPC   C1B 4279  27.330  36.282   8.685
   46POPC   C2B 4280  27.342  36.590   8.343
   46POPC   C3B 4281  27.390  36.530   7.904
   46POPC   C4B 4282  27.347  36.720   7.530
   47POPC   NC3 4283  21.764  36.983   9.439
   47POPC   PO4 4284  22.427  36.895   9.360
   47POPC   GL1 4285  22.099  36.994   9.043
   47POPC   GL2 4286  21.857  36.732   9.014
   47POPC   C1A 4287  22.036  36.948   8.581
   47POPC   D2A 4288  22.373  36.913   8.307
   47POPC   C3A 4289  22.397  37.179   7.985
   47POPC   C4A 4290  21.956  37.281   7.830
   47POPC   C1B 4291  22.251  36.538   8.852
   47POPC   C2B 4292  22.295  36.427   8.450
   47POPC   C3B 4293  22.013  36.539   8.123
   47POPC   C4B 4294  22.282  36.733   7.808
   48POPC   NC3 4295  41.959  41.669   9.446
   48POPC   PO4 4296  41.385  41.301   9.633
   48POPC   GL1 4297  41.553  41.281   9.189
   48POPC   GL2 4298  41.462  41.605   9.125
   48POPC   C1A 4299  41.790  41.364   8.782
   48POPC   D2A 4300  41.729  41.696   8.495
   48POPC   C3A 4301  41.715  41.584   8.089
   48POPC   C4A 4302  41.703  41.215   7.861
   48POPC   C1B 4303  41.286  41.510   8.712
   48POPC   C2B 4304  41.088  41.548   8.309
   48POPC   C3B 4305  41.238  41.543   7.920
   48POPC   C4B 4306  41.417  41.757   7.608
   49POPC   NC3 4307   2.273  34.182   9.329
   49POPC   PO4 4308   1.901  34.652   9.601
   49POPC   GL1 4309   1.965  34.603   9.170
   49POPC   GL2 4310   2.158  34.869   9.111
   49POPC   C1A 4311   1.858  34.418   8.765
   49POPC   D2A 4312   1.859  34.266   8.328
   49POPC   C3A 4313   1.997  34.593   8.009
   49POPC   C4A 4314   1.901  34.604   7.549
   49POPC   C1B 4315   2.268  34.747   8.707
   49POPC   C2B 4316   2.414  34.807   8.308
   49POPC   C3B 4317   2.275  35.067   7.998
   49POPC   C4B 4318   2.410  34.978   7.608
   50POPC   NC3 4319  11.263  37.036   9.876
   50POPC   PO4 4320  11.369  37.102   9.190
   50POPC   GL1 4321  11.364  36.821   8.891
   50POPC   GL2 4322  11.704  36.816   8.925
   50POPC   C1A 4323  11.138  36.751   8.510
   50POPC   D2A 4324  11.184  36.601   8.089
   50POPC   C3A 4325  11.439  36.845   7.850
   50POPC   C4A 4326  11.663  36.749   7.508
   50POPC   C1B 4327  11.599  37.128   8.557
   50POPC   C2B 4328  11.260  37.178   8.223
   50POPC   C3B 4329  11.346  37.363   7.836
   50POPC   C4B 4330  11.703  37.235   7.610
   51POPC   NC3 4331  34.901  18.604   9.351
   51POPC   PO4 4332  35.427  18.443   9.741
   51POPC   GL1 4333  35.413  18.450   9.257
   51POPC   GL2 4334  35.665  18.549   9.052
   51POPC   C1A 4335  35.234  18.427   8.811
   51POPC   D2A 4336  35.475  18.475   8.434
   51POPC   C3A 4337  35.275  18.638   8.073
   51POPC   C4A 4338  35.123  18.305   7.819
   51POPC   C1B 4339  35.922  18.612   8.705
   51POPC   C2B 4340  35.968  18.431   8.294
   51POPC   C3B 4341  35.794  18.639   7.983
   51POPC   C4B 4342  35.549  18.497   7.660
   52POPC   NC3 4343  14.104  28.830   9.518
   52POPC   PO4 4344  13.601  29.229   9.653
   52POPC   GL1 4345  13.782  29.147   9.217
   52POPC   GL2 4346  13.945  29.423   9.061
   52POPC   C1A 4347  13.725  28.938   8.785
   52POPC   D2A 4348  13.784  29.060   8.358
   52POPC   C3A 4349  13.784  28.827   7.987
   52POPC   C4A 4350  13.621  29.037   7.647
   52POPC   C1B 4351  13.672  29.453   8.709
   52POPC   C2B 4352  13.608  29.532   8.253
   52POPC   C3B 4353  13.462  29.480   7.836
   52POPC   C4B 4354  13.527  29.636   7.415
   53POPC   NC3 4355   2.252  21.004   9.545
   53POPC   PO4 4356   1.946  20.373   9.424
   53POPC   GL1 4357   1.999  20.638   9.123
   53POPC   GL2 4358   1.666  20.668   9.042
   53POPC   C1A 4359   2.002  20.461   8.715
   53POPC   D2A 4360   2.183  20.484   8.343
   53POPC   C3A 4361   1.920  20.608   8.035
   53POPC   C4A 4362   2.166  20.657   7.742
   53POPC   C1B 4363   1.756  20.940   8.766
   53POPC   C2B 4364   1.995  20.976   8.419
   53POPC   C3B 4365   1.800  21.106   8.078
   53POPC   C4B 4366   1.731  21.008   7.677
   54POPC   NC3 4367  43.285  10.185   9.718
   54POPC   PO4 4368  43.033  10.796   9.464
   54POPC   GL1 4369  43.147  10.540   9.159
   54POPC   GL2 4370  43.374  10.232   9.210
   54POPC   C1A 4371  43.159  10.756   8.781
   54POPC   D2A 4372  43.038  10.896   8.392
   54POPC   C3A 4373  43.196  10.653   8.051
   54POPC   C4A 4374  43.144  10.591   7.638
   54POPC   C1B 4375  43.177  10.183   8.815
   54POPC   C2B 4376  43.104  10.348   8.458
   54POPC   C3B 4377  43.039  10.150   8.109
   54POPC   C4B 4378  43.339  10.174   7.819
   55POPC   NC3 4379  43.946  38.874   9.332
   55POPC   PO4 4380  43.907  39.477   9.681
   55POPC   GL1 4381  43.715  39.338   9.261
   55POPC   GL2 4382  43.571  39.034   9.049
   55POPC   C1A 4383  43.790  39.426   8.830
   55POPC   D2A 4384  43.946  39.416   8.429
   55POPC   C3A 4385  43.785  39.564   8.056
   55POPC   C4A 4386  43.607  39.604   7.637
   55POPC   C1B 4387  43.853  38.948   8.678
   55POPC   C2B 4388  43.817  38.954   8.231
   55POPC   C3B 4389  43.809  39.099   7.819
   55POPC   C4B 4390  44.184  38.992   7.595
   56POPC   NC3 4391  33.078  40.124   9.303
   56POPC   PO4 4392  32.498  39.976   9.659
   56POPC   GL1 4393  32.673  39.793   9.209
   56POPC   GL2 4394  33.011  39.651   9.064
   56POPC   C1A 4395  32.744  39.959   8.757
   56POPC   D2A 4396  32.969  40.238   8.487
   56POPC   C3A 4397  32.901  40.067   8.069
   56POPC   C4A 4398  33.151  40.002   7.689
   56POPC   C1B 4399  33.242  39.859   8.727
   56POPC   C2B 4400  33.179  39.718   8.317
   56POPC   C3B 4401  33.285  39.537   7.896
   56POPC   C4B 4402  33.211  39.551   7.418
   57POPC   NC3 4403  41.922  18.572   9.437
   57POPC   PO4 4404  42.378  18.106   9.361
   57POPC   GL1 4405  42.262  18.438   9.077
   57POPC   GL2 4406  42.523  18.656   9.024
   57POPC   C1A 4407  42.211  18.378   8.643
   57POPC   D2A 4408  42.320  18.065   8.358
   57POPC   C3A 4409  42.188  18.152   7.954
   57POPC   C4A 4410  42.319  18.115   7.552
   57POPC   C1B 4411  42.717  18.341   8.822
   57POPC   C2B 4412  42.752  18.312   8.423
   57POPC   C3B 4413  42.571  18.479   8.078
   57POPC   C4B 4414  42.738  18.314   7.731
   58POPC   NC3 4415   8.045  16.266   9.277
   58POPC   PO4 4416   7.499  15.866   9.451
   58POPC   GL1 4417   7.520  16.045   9.104
   58POPC   GL2 4418   7.830  15.896   9.013
   58POPC   C1A 4419   7.272  16.137   8.744
   58POPC   D2A 4420   7.409  16.395   8.401
   58POPC   C3A 4421   7.191  16.295   8.012
   58POPC   C4A 4422   7.287  15.919   7.803
   58POPC   C1B 4423   7.791  16.219   8.699
   58POPC   C2B 4424   7.914  16.198   8.310
   58POPC   C3B 4425   7.690  16.205   7.979
   58POPC   C4B 4426   7.542  16.402   7.631
   59POPC   NC3 4427  28.786   2.861   9.560
   59POPC   PO4 4428  28.226   2.528   9.452
   59POPC   GL1 4429  28.502   2.590   9.151
   59POPC   GL2 4430  28.528   2.928   9.122
   59POPC   C1A 4431  28.337   2.611   8.752
   59POPC   D2A 4432  28.472   2.506   8.378
   59POPC   C3A 4433  28.159   2.630   8.109
   59POPC   C4A 4434  28.167   2.901   7.766
   59POPC   C1B 4435  28.569   3.114   8.732
   59POPC   C2B 4436  28.394   3.025   8.337
   59POPC   C3B 4437  28.626   2.843   7.998
   59POPC   C4B 4438  28.959   3.090   7.788
   60POPC   NC3 4439   1.682  19.962   9.435
   60POPC   PO4 4440   2.358  19.790   9.384
   60POPC   GL1 4441   2.002  19.752   9.094
   60POPC   GL2 4442   1.724  19.501   9.129
   60POPC   C1A 4443   1.903  19.928   8.711
   60POPC   D2A 4444   2.179  19.971   8.388
   60POPC   C3A 4445   2.088  20.118   7.990
   60POPC   C4A 4446   2.126  20.200   7.543
   60POPC   C1B 4447   1.824  19.424   8.688
   60POPC   C2B 4448   2.010  19.476   8.293
   60POPC   C3B 4449   1.806  19.509   7.893
   60POPC   C4B 4450   1.685  19.352   7.462
   61POPC   NC3 4451   8.586   2.904   9.498
   61POPC   PO4 4452   7.860   2.730   9.597
   61POPC   GL1 4453   8.113   2.722   9.242
   61POPC   GL2 4454   8.205   3.048   9.211
   61POPC   C1A 4455   8.314   2.669   8.838
   61POPC   D2A 4456   8.461   2.560   8.409
   61POPC   C3A 4457   8.231   2.484   8.024
   61POPC   C4A 4458   8.293   2.795   7.698
   61POPC   C1B 4459   8.011   3.088   8.828
   61POPC   C2B 4460   7.988   3.279   8.435
   61POPC   C3B 4461   8.267   3.181   8.093
   61POPC   C4B 4462   7.992   3.192   7.726
   62POPC   NC3 4463   4.976  42.382   9.624
   62POPC   PO4 4464   5.110  41.751   9.687
   62POPC   GL1 4465   5.183  42.102   9.273
   62POPC   GL2 4466   4.914  42.380   9.140
   62POPC   C1A 4467   5.276  42.237   8.835
   62POPC   D2A 4468   5.163  42.040   8.442
   62POPC   C3A 4469   5.272  42.218   8.048
   62POPC   C4A 4470   5.026  42.286   7.703
   62POPC   C1B 4471   4.954  42.665   8.798
   62POPC   C2B 4472   5.129  42.565   8.413
   62POPC   C3B 4473   4.934  42.626   8.038
   62POPC   C4B 4474   4.790  42.924   7.741
   63POPC   NC3 4475  37.790   5.974   9.551
   63POPC   PO4 4476  38.106   5.338   9.723
   63POPC   GL1 4477  38.037   5.629   9.279
   63POPC   GL2 4478  37.651   5.654   9.169
   63POPC   C1A 4479  37.914   5.923   8.855
   63POPC   D2A 4480  37.758   5.880   8.396
   63POPC   C3A 4481  37.842   5.969   7.938
   63POPC   C4A 4482  37.866   5.987   7.483
   63POPC   C1B 4483  37.393   5.805   8.815
   63POPC   C2B 4484  37.246   5.899   8.409
   63POPC   C3B 4485  37.365   5.789   8.008
   63POPC   C4B 4486  37.360   5.953   7.610
   64POPC   NC3 4487  31.014  31.186   9.880
   64POPC   PO4 4488  30.725  31.673   9.534
   64POPC   GL1 4489  30.752  31.577   9.118
   64POPC   GL2 4490  30.546  31.274   9.110
   64POPC   C1A 4491  30.979  31.410   8.777
   64POPC   D2A 4492  30.923  31.159   8.421
   64POPC   C3A 4493  31.010  31.332   8.007
   64POPC   C4A 4494  30.831  31.237   7.589
   64POPC   C1B 4495  30.493  31.352   8.668
   64POPC   C2B 4496  30.548  31.439   8.217
   64POPC   C3B 4497  30.520  31.616   7.818
   64POPC   C4B 4498  30.359  31.963   7.551
   65POPC   NC3 4499  29.658  26.612   9.456
   65POPC   PO4 4500  29.979  27.185   9.545
   65POPC   GL1 4501  29.797  26.981   9.143
   65POPC   GL2 4502  29.952  26.634   9.029
   65POPC   C1A 4503  29.735  26.950   8.697
   65POPC   D2A 4504  29.992  26.634   8.465
   65POPC   C3A 4505  30.053  26.650   8.012
   65POPC   C4A 4506  29.817  26.971   7.767
   65POPC   C1B 4507  29.569  26.484   8.796
   65POPC   C2B 4508  29.488  26.606   8.364
   65POPC   C3B 4509  29.554  26.521   7.943
   65POPC   C4B 4510  29.626  26.573   7.513
   66POPC   NC3 4511  42.162   9.657   9.631
   66POPC   PO4 4512  42.777  10.003   9.581
   66POPC   GL1 4513  42.675   9.827   9.180
   66POPC   GL2 4514  42.455   9.533   9.189
   66POPC   C1A 4515  42.736   9.910   8.752
   66POPC   D2A 4516  42.735   9.765   8.349
   66POPC   C3A 4517  42.576   9.933   8.018
   66POPC   C4A 4518  42.459   9.612   7.738
   66POPC   C1B 4519  42.236   9.791   8.863
   66POPC   C2B 4520  42.241   9.901   8.432
   66POPC   C3B 4521  42.093   9.820   8.021
   66POPC   C4B 4522  42.097   9.940   7.585
   67POPC   NC3 4523  38.019  27.956   9.503
   67POPC   PO4 4524  37.560  28.544   9.449
   67POPC   GL1 4525  37.857  28.345   9.159
   67POPC   GL2 4526  37.993  28.665   9.126
   67POPC   C1A 4527  37.756  28.175   8.731
   67POPC   D2A 4528  37.400  28.208   8.414
   67POPC   C3A 4529  37.588  28.192   8.010
   67POPC   C4A 4530  37.992  28.204   7.776
   67POPC   C1B 4531  37.601  28.651   8.818
   67POPC   C2B 4532  37.707  28.610   8.401
   67POPC   C3B 4533  37.575  28.717   8.013
   67POPC   C4B 4534  37.716  28.638   7.620
   68POPC   NC3 4535  13.324   8.676   9.496
   68POPC   PO4 4536  13.892   9.035   9.457
   68POPC   GL1 4537  13.705   9.105   9.070
   68POPC   GL2 4538  13.426   8.897   9.043
   68POPC   C1A 4539  13.676   9.117   8.630
   68POPC   D2A 4540  13.613   9.353   8.288
   68POPC   C3A 4541  13.754   9.101   8.031
   68POPC   C4A 4542  13.514   8.946   7.713
   68POPC   C1B 4543  13.292   8.769   8.640
   68POPC   C2B 4544  13.359   8.800   8.212
   68POPC   C3B 4545  13.085   8.749   7.886
   68POPC   C4B 4546  13.173   8.693   7.439
   69POPC   NC3 4547  42.784  41.125   9.394
   69POPC   PO4 4548  42.049  41.208   9.362
   69POPC   GL1 4549  42.382  41.396   9.144
   69POPC   GL2 4550  42.344  41.753   9.097
   69POPC   C1A 4551  42.629  41.396   8.778
   69POPC   D2A 4552  42.844  41.205   8.423
   69POPC   C3A 4553  42.609  41.238   8.031
   69POPC   C4A 4554  42.641  41.508   7.678
   69POPC   C1B 4555  42.218  41.687   8.672
   69POPC   C2B 4556  42.180  41.377   8.323
   69POPC   C3B 4557  42.154  41.456   7.867
   69POPC   C4B 4558  41.945  41.841   7.708
   70POPC   NC3 4559  33.770  29.395   9.613
   70POPC   PO4 4560  33.571  28.749   9.560
   70POPC   GL1 4561  33.752  29.061   9.219
   70POPC   GL2 4562  33.934  29.426   9.134
   70POPC   C1A 4563  33.893  29.050   8.788
   70POPC   D2A 4564  33.672  28.957   8.421
   70POPC   C3A 4565  33.847  29.083   8.020
   70POPC   C4A 4566  33.564  28.982   7.665
   70POPC   C1B 4567  33.735  29.573   8.762
   70POPC   C2B 4568  33.761  29.471   8.354
   70POPC   C3B 4569  33.816  29.587   7.960
   70POPC   C4B 4570  34.205  29.425   7.786
   71POPC   NC3 4571  18.518  37.314   9.431
   71POPC   PO4 4572  18.587  36.635   9.512
   71POPC   GL1 4573  18.304  36.851   9.264
   71POPC   GL2 4574  18.574  36.958   9.102
   71POPC   C1A 4575  18.131  36.963   8.853
   71POPC   D2A 4576  17.953  36.717   8.525
   71POPC   C3A 4577  17.986  36.922   8.126
   71POPC   C4A 4578  18.031  36.802   7.698
   71POPC   C1B 4579  18.671  37.098   8.761
   71POPC   C2B 4580  18.452  36.995   8.398
   71POPC   C3B 4581  18.477  36.943   7.968
   71POPC   C4B 4582  18.408  37.165   7.632
   72POPC   NC3 4583  13.441  41.213   9.594
   72POPC   PO4 4584  13.690  41.804   9.585
   72POPC   GL1 4585  13.753  41.733   9.168
   72POPC   GL2 4586  13.526  41.452   9.150
   72POPC   C1A 4587  13.557  41.798   8.761
   72POPC   D2A 4588  13.661  41.609   8.385
   72POPC   C3A 4589  13.547  41.709   8.004
   72POPC   C4A 4590  13.575  41.516   7.597
   72POPC   C1B 4591  13.585  41.253   8.749
   72POPC   C2B 4592  13.329  41.215   8.368
   72POPC   C3B 4593  13.371  41.191   7.936
   72POPC   C4B 4594  13.094  41.393   7.623
   73POPC   NC3 4595   7.314  38.766   9.570
   73POPC   PO4 4596   7.158  39.433   9.374
   73POPC   GL1 4597   7.360  39.184   9.108
   73POPC   GL2 4598   7.173  38.890   9.093
   73POPC   C1A 4599   7.507  39.293   8.700
   73POPC   D2A 4600   7.433  39.567   8.337
   73POPC   C3A 4601   7.433  39.334   7.967
   73POPC   C4A 4602   7.403  39.306   7.557
   73POPC   C1B 4603   7.164  38.887   8.654
   73POPC   C2B 4604   7.350  38.909   8.234
   73POPC   C3B 4605   7.158  38.869   7.813
   73POPC   C4B 4606   7.314  38.616   7.444
   74POPC   NC3 4607   4.799  12.694   9.520
   74POPC   PO4 4608   5.401  12.676   9.849
   74POPC   GL1 4609   5.218  12.959   9.355
   74POPC   GL2 4610   4.949  12.813   9.062
   74POPC   C1A 4611   5.326  13.081   8.872
   74POPC   D2A 4612   5.135  12.790   8.530
   74POPC   C3A 4613   5.020  12.873   8.082
   74POPC   C4A 4614   5.192  12.803   7.657
   74POPC   C1B 4615   4.689  12.542   8.757
   74POPC   C2B 4616   4.591  12.455   8.288
   74POPC   C3B 4617   4.795  12.493   7.840
   74POPC   C4B 4618   4.876  12.575   7.347
   75POPC   NC3 4619  30.858  35.700   9.523
   75POPC   PO4 4620  30.453  35.202   9.559
   75POPC   GL1 4621  30.396  35.215   9.149
   75POPC   GL2 4622  30.553  35.533   9.131
   75POPC   C1A 4623  30.360  35.212   8.722
   75POPC   D2A 4624  30.685  35.198   8.408
   75POPC   C3A 4625  30.632  35.227   7.961
   75POPC   C4A 4626  31.039  35.345   7.770
   75POPC   C1B 4627  30.424  35.729   8.761
   75POPC   C2B 4628  30.352  35.598   8.313
   75POPC   C3B 4629  30.522  35.704   7.874
   75POPC   C4B 4630  30.377  35.533   7.477
   76POPC   NC3 4631  11.677  36.887   9.454
   76POPC   PO4 4632  12.297  37.065   9.561
   76POPC   GL1 4633  12.210  36.903   9.158
   76POPC   GL2 4634  12.530  37.022   9.048
   76POPC   C1A 4635  12.101  37.064   8.728
   76POPC   D2A 4636  12.136  37.233   8.297
   76POPC   C3A 4637  12.054  37.005   7.883
   76POPC   C4A 4638  12.164  37.083   7.417
   76POPC   C1B 4639  12.503  36.754   8.699
   76POPC   C2B 4640  12.311  36.753   8.338
   76POPC   C3B 4641  12.506  36.829   7.997
   76POPC   C4B 4642  12.567  36.781   7.609
   77POPC   NC3 4643  15.660  19.273   9.307
   77POPC   PO4 4644  16.240  19.025   9.499
   77POPC   GL1 4645  16.098  19.101   9.137
   77POPC   GL2 4646  16.120  19.449   9.158
   77POPC   C1A 4647  15.989  18.894   8.760
   77POPC   D2A 4648  15.785  18.946   8.367
   77POPC   C3A 4649  16.046  18.850   8.024
   77POPC   C4A 4650  15.973  18.740   7.606
   77POPC   C1B 4651  16.152  19.380   8.701
   77POPC   C2B 4652  15.963  19.453   8.257
   77POPC   C3B 4653  16.037  19.312   7.811
   77POPC   C4B 4654  16.314  19.338   7.422
   78POPC   NC3 4655  22.136  41.192   9.456
   78POPC   PO4 4656  21.841  41.871   9.531
   78POPC   GL1 4657  21.938  41.605   9.193
   78POPC   GL2 4658  22.248  41.558   9.094
   78POPC   C1A 4659  21.897  41.373   8.784
   78POPC   D2A 4660  22.106  41.478   8.417
   78POPC   C3A 4661  21.876  41.439   8.047
   78POPC   C4A 4662  21.990  41.450   7.626
   78POPC   C1B 4663  22.567  41.573   8.814
   78POPC   C2B 4664  22.610  41.432   8.410
   78POPC   C3B 4665  22.494  41.382   8.008
   78POPC   C4B 4666  22.503  41.626   7.637
   79POPC   NC3 4667   1.208  23.533   9.478
   79POPC   PO4 4668   1.474  24.237   9.398
   79POPC   GL1 4669   1.456  23.879   9.172
   79POPC   GL2 4670   1.097  23.908   9.104
   79POPC   C1A 4671   1.430  23.682   8.789
   79POPC   D2A 4672   1.547  23.795   8.389
   79POPC   C3A 4673   1.399  23.603   8.048
   79POPC   C4A 4674   1.382  23.800   7.676
   79POPC   C1B 4675   0.925  23.624   8.788
   79POPC   C2B 4676   1.007  23.742   8.376
   79POPC   C3B 4677   0.883  23.740   7.948
   79POPC   C4B 4678   1.001  23.482   7.616
   80POPC   NC3 4679  19.051  36.554   9.480
   80POPC   PO4 4680  18.988  37.216   9.373
   80POPC   GL1 4681  19.090  36.888   9.090
   80POPC   GL2 4682  18.897  36.587   9.010
   80POPC   C1A 4683  19.221  37.000   8.725
   80POPC   D2A 4684  19.481  37.162   8.403
   80POPC   C3A 4685  19.290  37.074   7.991
   80POPC   C4A 4686  19.372  37.011   7.564
   80POPC   C1B 4687  18.849  36.671   8.586
   80POPC   C2B 4688  18.895  36.740   8.151
   80POPC   C3B 4689  18.880  36.521   7.787
   80POPC   C4B 4690  18.940  36.545   7.304
   81POPC   NC3 4691   0.987  39.235   9.823
   81POPC   PO4 4692   1.429  39.666   9.711
   81POPC   GL1 4693   1.329  39.299   9.380
   81POPC   GL2 4694   1.048  39.041   9.364
   81POPC   C1A 4695   1.486  39.068   8.967
   81POPC   D2A 4696   1.514  39.004   8.487
   81POPC   C3A 4697   1.426  39.361   8.187
   81POPC   C4A 4698   1.525  39.492   7.738
   81POPC   C1B 4699   0.980  38.988   8.923
   81POPC   C2B 4700   1.098  39.318   8.619
   81POPC   C3B 4701   0.893  39.441   8.224
   81POPC   C4B 4702   1.065  39.321   7.818
   82POPC   NC3 4703  30.473  41.638   9.704
   82POPC   PO4 4704  29.762  41.526   9.606
   82POPC   GL1 4705  29.846  41.617   9.209
   82POPC   GL2 4706  30.166  41.767   9.280
   82POPC   C1A 4707  29.747  41.433   8.849
   82POPC   D2A 4708  29.992  41.392   8.503
   82POPC   C3A 4709  29.860  41.617   8.128
   82POPC   C4A 4710  29.891  41.460   7.723
   82POPC   C1B 4711  30.222  41.723   8.848
   82POPC   C2B 4712  30.179  41.878   8.445
   82POPC   C3B 4713  30.377  41.790   8.097
   82POPC   C4B 4714  30.232  41.812   7.731
   83POPC   NC3 4715  41.565  37.963   9.491
   83POPC   PO4 4716  41.572  37.246   9.334
   83POPC   GL1 4717  41.481  37.625   9.124
   83POPC   GL2 4718  41.248  37.486   8.927
   83POPC   C1A 4719  41.571  37.891   8.758
   83POPC   D2A 4720  41.560  37.789   8.333
   83POPC   C3A 4721  41.739  37.958   7.937
   83POPC   C4A 4722  41.396  37.740   7.754
   83POPC   C1B 4723  41.643  37.377   8.682
   83POPC   C2B 4724  41.977  37.406   8.370
   83POPC   C3B 4725  41.739  37.450   8.009
   83POPC   C4B 4726  41.664  37.303   7.627
   84POPC   NC3 4727  32.822   0.600   9.524
   84POPC   PO4 4728  33.118   0.021   9.625
   84POPC   GL1 4729  33.088   0.257   9.230
   84POPC   GL2 4730  33.251   0.550   9.162
   84POPC   C1A 4731  32.842   0.435   8.878
   84POPC   D2A 4732  32.888   0.475   8.450
   84POPC   C3A 4733  33.181   0.260   8.170
   84POPC   C4A 4734  33.176   0.304   7.724
   84POPC   C1B 4735  33.340   0.369   8.735
   84POPC   C2B 4736  33.471   0.639   8.400
   84POPC   C3B 4737  33.578   0.587   7.961
   84POPC   C4B 4738  33.338   0.780   7.637
   85POPC   NC3 4739  20.139  26.048   9.429
   85POPC   PO4 4740  20.800  25.898   9.544
   85POPC   GL1 4741  20.644  26.132   9.190
   85POPC   GL2 4742  20.518  25.907   9.058
   85POPC   C1A 4743  20.834  26.161   8.757
   85POPC   D2A 4744  20.989  26.272   8.355
   85POPC   C3A 4745  20.811  26.086   7.994
   85POPC   C4A 4746  20.714  26.277   7.607
   85POPC   C1B 4747  20.439  25.833   8.634
   85POPC   C2B 4748  20.213  25.567   8.364
   85POPC   C3B 4749  20.183  25.693   7.943
   85POPC   C4B 4750  20.443  25.871   7.687
   86POPC   NC3 4751   8.429  44.920   9.484
   86POPC   PO4 4752   8.844   0.482   9.591
   86POPC   GL1 4753   9.001   0.770   9.269
   86POPC   GL2 4754   9.084   0.479   9.055
   86POPC   C1A 4755   9.117   0.933   8.841
   86POPC   D2A 4756   9.068   0.620   8.511
   86POPC   C3A 4757   9.087   0.672   8.070
   86POPC   C4A 4758   9.177   0.336   7.774
   86POPC   C1B 4759   8.774   0.280   8.769
   86POPC   C2B 4760   8.845   0.113   8.389
   86POPC   C3B 4761   8.728   0.265   8.026
   86POPC   C4B 4762   8.721   0.048   7.659
   87POPC   NC3 4763  12.785  41.067   9.557
   87POPC   PO4 4764  12.320  40.654   9.740
   87POPC   GL1 4765  12.466  40.872   9.228
   87POPC   GL2 4766  12.778  40.695   9.181
   87POPC   C1A 4767  12.764  41.017   8.806
   87POPC   D2A 4768  12.910  40.854   8.387
   87POPC   C3A 4769  12.850  41.110   8.035
   87POPC   C4A 4770  12.683  41.129   7.621
   87POPC   C1B 4771  12.895  40.501   8.791
   87POPC   C2B 4772  12.798  40.304   8.391
   87POPC   C3B 4773  12.776  40.409   7.958
   87POPC   C4B 4774  13.022  40.313   7.615
   88POPC   NC3 4775   4.418   8.625   9.708
   88POPC   PO4 4776   4.024   9.136   9.821
   88POPC   GL1 4777   4.282   9.126   9.377
   88POPC   GL2 4778   4.060   9.156   9.133
   88POPC   C1A 4779   4.498   9.159   8.898
   88POPC   D2A 4780   4.366   9.109   8.431
   88POPC   C3A 4781   4.616   9.004   8.035
   88POPC   C4A 4782   4.505   8.658   7.738
   88POPC   C1B 4783   3.971   8.967   8.745
   88POPC   C2B 4784   3.870   8.859   8.342
   88POPC   C3B 4785   4.099   8.851   7.977
   88POPC   C4B 4786   4.143   8.968   7.549
   89POPC   NC3 4787  23.567   3.900   9.702
   89POPC   PO4 4788  23.889   3.257   9.500
   89POPC   GL1 4789  23.602   3.428   9.227
   89POPC   GL2 4790  23.671   3.760   9.214
   89POPC   C1A 4791  23.427   3.517   8.825
   89POPC   D2A 4792  23.489   3.811   8.493
   89POPC   C3A 4793  23.448   3.584   8.088
   89POPC   C4A 4794  23.610   3.482   7.673
   89POPC   C1B 4795  23.973   3.610   8.884
   89POPC   C2B 4796  24.130   3.820   8.522
   89POPC   C3B 4797  23.939   3.793   8.141
   89POPC   C4B 4798  24.074   3.683   7.761
   90POPC   NC3 4799  35.332  21.092   9.783
   90POPC   PO4 4800  34.999  21.679   9.750
   90POPC   GL1 4801  35.070  21.666   9.229
   90POPC   GL2 4802  35.407  21.447   9.147
   90POPC   C1A 4803  35.147  21.754   8.784
   90POPC   D2A 4804  35.488  21.622   8.505
   90POPC   C3A 4805  35.462  21.460   8.086
   90POPC   C4A 4806  35.357  21.494   7.638
   90POPC   C1B 4807  35.265  21.270   8.765
   90POPC   C2B 4808  35.026  21.420   8.381
   90POPC   C3B 4809  35.024  21.234   7.945
   90POPC   C4B 4810  35.392  21.001   7.790
   91POPC   NC3 4811  23.826  42.640   9.387
   91POPC   PO4 4812  23.523  42.175   9.732
   91POPC   GL1 4813  23.552  42.190   9.268
   91POPC   GL2 4814  23.790  42.057   9.072
   91POPC   C1A 4815  23.367  42.255   8.847
   91POPC   D2A 4816  23.475  42.419   8.448
   91POPC   C3A 4817  23.467  42.143   8.107
   91POPC   C4A 4818  23.462  42.403   7.760
   91POPC   C1B 4819  23.881  42.393   8.783
   91POPC   C2B 4820  23.957  42.655   8.440
   91POPC   C3B 4821  23.893  42.449   8.084
   91POPC   C4B 4822  23.938  42.273   7.709
   92POPC   NC3 4823  18.646  11.779   9.449
   92POPC   PO4 4824  19.274  11.874   9.486
   92POPC   GL1 4825  19.037  12.062   9.182
   92POPC   GL2 4826  19.312  12.176   8.994
   92POPC   C1A 4827  18.879  12.002   8.757
   92POPC   D2A 4828  18.824  11.702   8.437
   92POPC   C3A 4829  18.904  11.849   8.032
   92POPC   C4A 4830  18.932  12.140   7.700
   92POPC   C1B 4831  19.233  12.362   8.595
   92POPC   C2B 4832  19.239  12.245   8.143
   92POPC   C3B 4833  19.318  12.470   7.760
   92POPC   C4B 4834  19.273  12.469   7.301
   93POPC   NC3 4835   6.755   1.662   9.516
   93POPC   PO4 4836   6.237   2.206   9.621
   93POPC   GL1 4837   6.530   2.281   9.191
   93POPC   GL2 4838   6.838   2.072   9.165
   93POPC   C1A 4839   6.444   2.188   8.765
   93POPC   D2A 4840   6.294   2.294   8.384
   93POPC   C3A 4841   6.460   2.169   8.004
   93POPC   C4A 4842   6.423   1.803   7.732
   93POPC   C1B 4843   6.790   1.800   8.787
   93POPC   C2B 4844   6.716   1.759   8.365
   93POPC   C3B 4845   6.872   1.882   7.984
   93POPC   C4B 4846   6.903   1.784   7.568
   94POPC   NC3 4847  34.000  35.906   9.520
   94POPC   PO4 4848  33.631  36.497   9.322
   94POPC   GL1 4849  33.817  36.150   9.070
   94POPC   GL2 4850  34.121  35.907   9.042
   94POPC   C1A 4851  33.567  35.906   8.795
   94POPC   D2A 4852  33.488  35.987   8.366
   94POPC   C3A 4853  33.866  36.054   8.144
   94POPC   C4A 4854  33.857  36.222   7.769
   94POPC   C1B 4855  34.053  35.937   8.620
   94POPC   C2B 4856  34.257  35.741   8.280
   94POPC   C3B 4857  34.132  35.736   7.819
   94POPC   C4B 4858  34.134  35.742   7.343
   95POPC   NC3 4859  18.504   3.811   9.283
   95POPC   PO4 4860  17.923   3.497   9.471
   95POPC   GL1 4861  18.193   3.468   9.081
   95POPC   GL2 4862  18.543   3.569   8.868
   95POPC   C1A 4863  18.113   3.615   8.668
   95POPC   D2A 4864  18.363   3.546   8.313
   95POPC   C3A 4865  18.099   3.495   7.963
   95POPC   C4A 4866  18.196   3.380   7.538
   95POPC   C1B 4867  18.532   3.961   8.605
   95POPC   C2B 4868  18.652   3.964   8.155
   95POPC   C3B 4869  18.613   3.622   7.823
   95POPC   C4B 4870  18.581   3.659   7.349
   96POPC   NC3 4871  12.109  13.813   9.415
   96POPC   PO4 4872  12.529  13.351   9.698
   96POPC   GL1 4873  12.263  13.308   9.288
   96POPC   GL2 4874  12.449  13.571   9.131
   96POPC   C1A 4875  11.969  13.356   8.886
   96POPC   D2A 4876  11.647  13.538   8.569
   96POPC   C3A 4877  11.722  13.562   8.105
   96POPC   C4A 4878  11.705  13.765   7.723
   96POPC   C1B 4879  12.453  13.576   8.709
   96POPC   C2B 4880  12.137  13.647   8.432
   96POPC   C3B 4881  12.225  13.718   8.039
   96POPC   C4B 4882  12.617  13.548   7.921
   97POPC   NC3 4883  20.911   6.493   9.509
   97POPC   PO4 4884  20.279   6.766   9.719
   97POPC   GL1 4885  20.495   6.692   9.270
   97POPC   GL2 4886  20.590   6.972   9.052
   97POPC   C1A 4887  20.497   6.492   8.835
   97POPC   D2A 4888  20.523   6.225   8.466
   97POPC   C3A 4889  20.634   6.394   8.070
   97POPC   C4A 4890  20.660   6.615   7.704
   97POPC   C1B 4891  20.872   6.824   8.756
   97POPC   C2B 4892  20.812   6.717   8.402
   97POPC   C3B 4893  20.652   6.942   8.089
   97POPC   C4B 4894  20.886   7.073   7.744
   98POPC   NC3 4895  36.621   3.488   9.269
   98POPC   PO4 4896  37.220   3.841   9.266
   98POPC   GL1 4897  36.970   3.703   8.950
   98POPC   GL2 4898  37.083   3.368   9.036
   98POPC   C1A 4899  36.652   3.569   8.632
   98POPC   D2A 4900  36.549   3.339   8.274
   98POPC   C3A 4901  36.698   3.639   7.996
   98POPC   C4A 4902  37.133   3.868   7.946
   98POPC   C1B 4903  37.117   3.378   8.588
   98POPC   C2B 4904  37.278   3.458   8.223
   98POPC   C3B 4905  37.065   3.346   7.855
   98POPC   C4B 4906  36.648   3.196   7.690
   99POPC   NC3 4907  32.595  24.843   9.506
   99POPC   PO4 4908  32.403  24.166   9.631
   99POPC   GL1 4909  32.411  24.254   9.179
   99POPC   GL2 4910  32.335  24.606   9.134
   99POPC   C1A 4911  32.372  24.266   8.710
   99POPC   D2A 4912  32.101  24.286   8.316
   99POPC   C3A 4913  32.323  24.389   7.921
   99POPC   C4A 4914  32.191  24.359   7.494
   99POPC   C1B 4915  32.257  24.769   8.721
   99POPC   C2B 4916  32.425  24.700   8.317
   99POPC   C3B 4917  32.336  24.891   7.881
   99POPC   C4B 4918  32.357  24.871   7.409
  100POPC   NC3 4919  38.106   3.038   9.533
  100POPC   PO4 4920  38.853   2.823   9.631
  100POPC   GL1 4921  38.710   2.807   9.180
  100POPC   GL2 4922  38.356   2.955   9.104
  100POPC   C1A 4923  38.716   2.976   8.735
  100POPC   D2A 4924  38.675   3.253   8.372
  100POPC   C3A 4925  38.564   3.011   8.028
  100POPC   C4A 4926  38.628   2.654   7.799
  100POPC   C1B 4927  38.320   2.614   8.806
  100POPC   C2B 4928  38.485   2.630   8.412
  100POPC   C3B 4929  38.247   2.601   8.097
  100POPC   C4B 4930  38.142   2.453   7.738
  101POPC   NC3 4931   2.035  30.545   9.552
  101POPC   PO4 4932   2.136  31.123   9.571
  101POPC   GL1 4933   2.195  30.845   9.186
  101POPC   GL2 4934   1.862  30.760   9.118
  101POPC   C1A 4935   2.257  30.650   8.764
  101POPC   D2A 4936   1.974  30.733   8.407
  101POPC   C3A 4937   2.186  30.802   8.021
  101POPC   C4A 4938   2.362  30.620   7.663
  101POPC   C1B 4939   1.622  30.968   8.809
  101POPC   C2B 4940   1.669  31.205   8.429
  101POPC   C3B 4941   1.754  31.191   7.966
  101POPC   C4B 4942   1.897  30.912   7.618
  102POPC   NC3 4943  20.367  19.307   9.493
  102POPC   PO4 4944  19.778  19.055   9.575
  102POPC   GL1 4945  19.764  18.992   9.176
  102POPC   GL2 4946  20.127  19.014   9.147
  102POPC   C1A 4947  19.629  18.864   8.755
  102POPC   D2A 4948  19.690  19.090   8.376
  102POPC   C3A 4949  19.820  18.911   7.996
  102POPC   C4A 4950  19.763  18.644   7.689
  102POPC   C1B 4951  19.941  19.299   8.815
  102POPC   C2B 4952  19.836  19.563   8.464
  102POPC   C3B 4953  19.866  19.429   8.037
  102POPC   C4B 4954  20.091  19.214   7.697
  103POPC   NC3 4955   0.404  11.760   9.505
  103POPC   PO4 4956   0.189  12.416   9.513
  103POPC   GL1 4957   0.283  12.142   9.191
  103POPC   GL2 4958   0.039  12.194   9.030
  103POPC   C1A 4959   0.426  11.835   8.851
  103POPC   D2A 4960   0.479  11.713   8.411
  103POPC   C3A 4961   0.760  11.874   8.091
  103POPC   C4A 4962   0.486  11.919   7.746
  103POPC   C1B 4963   0.464  12.343   8.773
  103POPC   C2B 4964   0.508  12.238   8.346
  103POPC   C3B 4965   0.587  12.384   7.950
  103POPC   C4B 4966   0.476  12.365   7.504
  104POPC   NC3 4967   1.084   6.041   9.681
  104POPC   PO4 4968   0.354   6.052   9.629
  104POPC   GL1 4969   0.308   5.998   9.163
  104POPC   GL2 4970   0.087   6.254   9.033
  104POPC   C1A 4971   0.501   5.796   8.765
  104POPC   D2A 4972   0.314   5.932   8.358
  104POPC   C3A 4973   0.514   5.878   7.966
  104POPC   C4A 4974   0.679   6.233   7.714
  104POPC   C1B 4975   0.009   5.842   8.772
  104POPC   C2B 4976   0.055   5.520   8.430
  104POPC   C3B 4977   0.014   5.682   7.996
  104POPC   C4B 4978   0.081   6.066   7.766
  105POPC   NC3 4979  16.330  22.757   9.689
  105POPC   PO4 4980  16.998  22.885   9.698
  105POPC   GL1 4981  16.808  22.954   9.304
  105POPC   GL2 4982  16.801  22.682   9.104
  105POPC   C1A 4983  16.774  23.154   8.889
  105POPC   D2A 4984  16.686  22.947   8.531
  105POPC   C3A 4985  16.748  23.069   8.084
  105POPC   C4A 4986  16.630  22.860   7.741
  105POPC   C1B 4987  17.074  22.723   8.764
  105POPC   C2B 4988  17.103  22.765   8.323
  105POPC   C3B 4989  16.959  22.538   7.962
  105POPC   C4B 4990  16.953  22.531   7.470
  106POPC   NC3 4991  27.783  16.994   9.499
  106POPC   PO4 4992  27.622  16.347   9.352
  106POPC   GL1 4993  27.395  16.678   9.182
  106POPC   GL2 4994  27.239  17.000   9.235
  106POPC   C1A 4995  27.313  16.626   8.774
  106POPC   D2A 4996  27.577  16.780   8.473
  106POPC   C3A 4997  27.515  16.598   8.082
  106POPC   C4A 4998  27.707  16.698   7.677
  106POPC   C1B 4999  27.340  17.143   8.800
  106POPC   C2B 5000  27.458  17.279   8.369
  106POPC   C3B 5001  27.585  17.083   7.999
  106POPC   C4B 5002  27.221  16.886   7.744
  107POPC   NC3 5003  42.069  16.305   9.586
  107POPC   PO4 5004  42.482  15.762   9.594
  107POPC   GL1 5005  42.411  15.944   9.207
  107POPC   GL2 5006  42.344  15.619   9.081
  107POPC   C1A 5007  42.497  16.037   8.790
  107POPC   D2A 5008  42.564  16.236   8.390
  107POPC   C3A 5009  42.630  16.007   8.034
  107POPC   C4A 5010  42.424  15.889   7.664
  107POPC   C1B 5011  42.083  15.764   8.762
  107POPC   C2B 5012  42.218  15.833   8.366
  107POPC   C3B 5013  41.982  15.695   8.055
  107POPC   C4B 5014  41.904  15.861   7.689
  108POPC   NC3 5015  38.013  12.536   9.448
  108POPC   PO4 5016  38.405  12.996   9.754
  108POPC   GL1 5017  38.365  12.886   9.313
  108POPC   GL2 5018  38.701  12.803   9.221
  108POPC   C1A 5019  38.328  12.797   8.859
  108POPC   D2A 5020  38.500  12.578   8.489
  108POPC   C3A 5021  38.322  12.764   8.124
  108POPC   C4A 5022  38.315  13.118   7.830
  108POPC   C1B 5023  38.830  12.852   8.823
  108POPC   C2B 5024  38.703  13.040   8.445
  108POPC   C3B 5025  38.783  12.972   8.015
  108POPC   C4B 5026  38.613  12.679   7.705
  109POPC   NC3 5027   5.639  34.689   9.458
  109POPC   PO4 5028   6.151  34.313   9.509
  109POPC   GL1 5029   5.885  34.352   9.128
  109POPC   GL2 5030   5.693  34.064   9.072
  109POPC   C1A 5031   5.686  34.625   8.773
  109POPC   D2A 5032   5.494  34.597   8.336
  109POPC   C3A 5033   5.784  34.733   8.003
  109POPC   C4A 5034   5.648  35.086   7.729
  109POPC   C1B 5035   5.733  34.143   8.671
  109POPC   C2B 5036   5.887  34.281   8.294
  109POPC   C3B 5037   5.647  34.248   7.952
  109POPC   C4B 5038   5.466  34.168   7.550
  110POPC   NC3 5039  25.460  20.776   9.496
  110POPC   PO4 5040  24.824  20.642   9.609
  110POPC   GL1 5041  25.055  20.715   9.153
  110POPC   GL2 5042  25.374  20.864   9.017
  110POPC   C1A 5043  25.027  20.762   8.673
  110POPC   D2A 5044  25.269  20.935   8.321
  110POPC   C3A 5045  25.242  20.665   7.962
  110POPC   C4A 5046  25.477  20.349   7.746
  110POPC   C1B 5047  25.671  20.752   8.681
  110POPC   C2B 5048  25.812  20.953   8.308
  110POPC   C3B 5049  25.661  20.911   7.888
  110POPC   C4B 5050  25.610  20.811   7.436
  111POPC   NC3 5051   9.148  20.234   9.311
  111POPC   PO4 5052   8.706  19.838   9.513
  111POPC   GL1 5053   8.871  19.788   9.102
  111POPC   GL2 5054   9.237  19.793   9.078
  111POPC   C1A 5055   8.941  19.634   8.678
  111POPC   D2A 5056   8.889  19.467   8.277
  111POPC   C3A 5057   8.781  19.725   7.957
  111POPC   C4A 5058   8.931  19.866   7.578
  111POPC   C1B 5059   9.204  20.068   8.692
  111POPC   C2B 5060   9.264  19.854   8.318
  111POPC   C3B 5061   9.296  19.996   7.923
  111POPC   C4B 5062   9.136  20.419   7.816
  112POPC   NC3 5063  29.683  23.266   9.428
  112POPC   PO4 5064  30.327  23.498   9.570
  112POPC   GL1 5065  30.107  23.479   9.180
  112POPC   GL2 5066  29.877  23.757   9.102
  112POPC   C1A 5067  30.106  23.563   8.729
  112POPC   D2A 5068  29.732  23.639   8.534
  112POPC   C3A 5069  29.886  23.483   8.206
  112POPC   C4A 5070  29.843  23.501   7.798
  112POPC   C1B 5071  29.719  24.061   8.826
  112POPC   C2B 5072  29.624  24.140   8.418
  112POPC   C3B 5073  29.743  23.957   8.026
  112POPC   C4B 5074  29.769  24.162   7.635
  113POPC   NC3 5075  10.340  21.380   9.635
  113POPC   PO4 5076  10.771  21.727   9.390
  113POPC   GL1 5077  10.519  21.481   9.128
  113POPC   GL2 5078  10.173  21.354   9.143
  113POPC   C1A 5079  10.367  21.522   8.706
  113POPC   D2A 5080  10.652  21.519   8.410
  113POPC   C3A 5081  10.544  21.605   8.019
  113POPC   C4A 5082  10.681  21.729   7.640
  113POPC   C1B 5083  10.397  21.037   8.900
  113POPC   C2B 5084  10.424  21.058   8.464
  113POPC   C3B 5085  10.655  21.105   8.089
  113POPC   C4B 5086  10.495  21.205   7.675
  114POPC   NC3 5087   9.372   4.207   9.463
  114POPC   PO4 5088   8.744   4.222   9.542
  114POPC   GL1 5089   8.776   3.988   9.167
  114POPC   GL2 5090   9.104   3.864   9.178
  114POPC   C1A 5091   8.692   4.189   8.768
  114POPC   D2A 5092   8.946   4.374   8.443
  114POPC   C3A 5093   8.858   4.280   8.019
  114POPC   C4A 5094   9.246   4.369   7.812
  114POPC   C1B 5095   9.214   4.071   8.798
  114POPC   C2B 5096   9.347   3.932   8.394
  114POPC   C3B 5097   9.157   3.868   7.997
  114POPC   C4B 5098   9.078   3.980   7.544
  115POPC   NC3 5099   2.848  29.467   9.475
  115POPC   PO4 5100   2.661  28.803   9.473
  115POPC   GL1 5101   2.843  29.053   9.171
  115POPC   GL2 5102   2.518  29.195   9.127
  115POPC   C1A 5103   2.935  29.258   8.789
  115POPC   D2A 5104   2.977  29.480   8.393
  115POPC   C3A 5105   2.843  29.267   8.003
  115POPC   C4A 5106   2.583  29.427   7.681
  115POPC   C1B 5107   2.511  28.917   8.777
  115POPC   C2B 5108   2.550  29.023   8.367
  115POPC   C3B 5109   2.349  29.091   7.994
  115POPC   C4B 5110   2.591  28.881   7.728
  116POPC   NC3 5111  44.447  19.633   9.542
  116POPC   PO4 5112  44.279  20.241   9.407
  116POPC   GL1 5113  44.511  19.973   9.084
  116POPC   GL2 5114  44.779  19.736   9.154
  116POPC   C1A 5115  44.569  19.928   8.617
  116POPC   D2A 5116  44.813  20.049   8.260
  116POPC   C3A 5117  44.606  20.065   7.837
  116POPC   C4A 5118  44.492  20.039   7.378
  116POPC   C1B 5119  44.736  19.480   8.783
  116POPC   C2B 5120  44.891  19.430   8.386
  116POPC   C3B 5121  44.654  19.610   8.064
  116POPC   C4B 5122  44.612  19.604   7.631
  117POPC   NC3 5123  32.728  22.014   9.549
  117POPC   PO4 5124  32.139  22.218   9.659
  117POPC   GL1 5125  32.284  22.259   9.216
  117POPC   GL2 5126  32.193  21.925   9.135
  117POPC   C1A 5127  32.152  22.283   8.739
  117POPC   D2A 5128  32.161  22.042   8.318
  117POPC   C3A 5129  32.354  22.189   7.931
  117POPC   C4A 5130  32.346  22.497   7.612
  117POPC   C1B 5131  32.360  21.818   8.720
  117POPC   C2B 5132  32.665  21.784   8.373
  117POPC   C3B 5133  32.651  21.791   7.934
  117POPC   C4B 5134  32.687  21.932   7.512
  118POPC   NC3 5135  42.284  25.233   9.509
  118POPC   PO4 5136  42.749  25.641   9.694
  118POPC   GL1 5137  42.465  25.586   9.220
  118POPC   GL2 5138  42.554  25.198   9.087
  118POPC   C1A 5139  42.485  25.567   8.737
  118POPC   D2A 5140  42.548  25.233   8.453
  118POPC   C3A 5141  42.367  25.335   8.044
  118POPC   C4A 5142  42.512  25.555   7.698
  118POPC   C1B 5143  42.239  25.044   8.807
  118POPC   C2B 5144  42.089  25.011   8.335
  118POPC   C3B 5145  42.070  24.956   7.857
  118POPC   C4B 5146  41.902  24.964   7.430
  119POPC   NC3 5147  15.259  40.016   9.731
  119POPC   PO4 5148  14.678  40.152   9.525
  119POPC   GL1 5149  15.073  40.042   9.218
  119POPC   GL2 5150  15.373  39.811   9.199
  119POPC   C1A 5151  15.275  40.086   8.762
  119POPC   D2A 5152  15.010  40.171   8.452
  119POPC   C3A 5153  15.097  40.315   8.078
  119POPC   C4A 5154  15.033  40.115   7.755
  119POPC   C1B 5155  15.320  39.548   8.869
  119POPC   C2B 5156  15.299  39.455   8.455
  119POPC   C3B 5157  15.287  39.804   8.178
  119POPC   C4B 5158  14.974  39.644   7.921
  120POPC   NC3 5159  18.851  41.854   9.477
  120POPC   PO4 5160  18.840  41.187   9.482
  120POPC   GL1 5161  19.043  41.466   9.180
  120POPC   GL2 5162  19.321  41.652   9.303
  120POPC   C1A 5163  18.928  41.712   8.811
  120POPC   D2A 5164  18.861  41.901   8.377
  120POPC   C3A 5165  18.698  41.676   8.002
  120POPC   C4A 5166  18.932  41.563   7.608
  120POPC   C1B 5167  19.429  41.780   8.893
  120POPC   C2B 5168  19.347  41.673   8.472
  120POPC   C3B 5169  19.228  41.671   8.060
  120POPC   C4B 5170  19.452  41.642   7.688
  121POPC   NC3 5171  21.390   4.063   9.644
  121POPC   PO4 5172  21.589   4.671   9.397
  121POPC   GL1 5173  21.344   4.397   9.160
  121POPC   GL2 5174  21.516   4.141   9.156
  121POPC   C1A 5175  21.170   4.247   8.771
  121POPC   D2A 5176  21.291   4.323   8.354
  121POPC   C3A 5177  21.041   4.222   8.012
  121POPC   C4A 5178  21.060   4.146   7.559
  121POPC   C1B 5179  21.698   4.356   8.780
  121POPC   C2B 5180  21.706   4.623   8.444
  121POPC   C3B 5181  21.642   4.528   8.023
  121POPC   C4B 5182  21.814   4.320   7.660
  122POPC   NC3 5183  34.806  24.940   9.562
  122POPC   PO4 5184  34.765  25.566   9.498
  122POPC   GL1 5185  34.600  25.336   9.148
  122POPC   GL2 5186  34.311  25.161   9.240
  122POPC   C1A 5187  34.395  25.493   8.766
  122POPC   D2A 5188  34.433  25.722   8.355
  122POPC   C3A 5189  34.696  25.491   8.054
  122POPC   C4A 5190  34.619  25.339   7.641
  122POPC   C1B 5191  34.197  24.978   8.840
  122POPC   C2B 5192  34.191  25.093   8.421
  122POPC   C3B 5193  34.312  25.086   7.985
  122POPC   C4B 5194  34.038  25.021   7.631
  123POPC   NC3 5195  38.110  44.646   9.745
  123POPC   PO4 5196  37.577  44.511   9.555
  123POPC   GL1 5197  37.562  44.591   9.116
  123POPC   GL2 5198  37.438  44.902   9.021
  123POPC   C1A 5199  37.695  44.588   8.690
  123POPC   D2A 5200  37.836  44.769   8.329
  123POPC   C3A 5201  37.988  44.556   7.989
  123POPC   C4A 5202  37.787  44.632   7.613
  123POPC   C1B 5203  37.205  44.698   8.706
  123POPC   C2B 5204  37.258  44.804   8.318
  123POPC   C3B 5205  37.464  44.834   7.956
  123POPC   C4B 5206  37.585   0.151   7.708
  124POPC   NC3 5207  33.213  27.100   9.313
  124POPC   PO4 5208  32.991  27.660   9.589
  124POPC   GL1 5209  33.026  27.603   9.178
  124POPC   GL2 5210  33.283  27.877   9.131
  124POPC   C1A 5211  32.896  27.365   8.797
  124POPC   D2A 5212  33.187  27.248   8.477
  124POPC   C3A 5213  32.976  27.354   8.106
  124POPC   C4A 5214  32.943  27.548   7.717
  124POPC   C1B 5215  33.281  27.715   8.750
  124POPC   C2B 5216  33.072  27.779   8.395
  124POPC   C3B 5217  33.245  27.825   8.016
  124POPC   C4B 5218  33.452  28.063   7.697
  125POPC   NC3 5219  26.465   3.405   9.477
  125POPC   PO4 5220  27.058   3.652   9.509
  125POPC   GL1 5221  26.813   3.641   9.160
  125POPC   GL2 5222  26.745   3.281   9.063
  125POPC   C1A 5223  26.714   3.735   8.749
  125POPC   D2A 5224  26.574   3.633   8.347
  125POPC   C3A 5225  26.912   3.504   8.109
  125POPC   C4A 5226  26.939   3.581   7.701
  125POPC   C1B 5227  26.473   3.234   8.684
  125POPC   C2B 5228  26.435   3.168   8.210
  125POPC   C3B 5229  26.439   3.423   7.865
  125POPC   C4B 5230  26.515   3.407   7.428
  126POPC   NC3 5231  33.861   6.958   9.605
  126POPC   PO4 5232  33.864   7.603   9.710
  126POPC   GL1 5233  33.845   7.511   9.252
  126POPC   GL2 5234  34.010   7.206   9.178
  126POPC   C1A 5235  33.725   7.484   8.795
  126POPC   D2A 5236  33.721   7.734   8.397
  126POPC   C3A 5237  33.532   7.534   8.028
  126POPC   C4A 5238  33.690   7.302   7.694
  126POPC   C1B 5239  34.215   7.307   8.809
  126POPC   C2B 5240  34.193   7.177   8.393
  126POPC   C3B 5241  34.040   7.465   8.096
  126POPC   C4B 5242  34.211   7.557   7.722
  127POPC   NC3 5243   1.459  30.730   9.453
  127POPC   PO4 5244   0.878  30.373   9.655
  127POPC   GL1 5245   1.045  30.568   9.209
  127POPC   GL2 5246   1.122  30.939   9.130
  127POPC   C1A 5247   1.296  30.549   8.826
  127POPC   D2A 5248   1.466  30.644   8.418
  127POPC   C3A 5249   1.239  30.388   8.115
  127POPC   C4A 5250   1.106  30.529   7.705
  127POPC   C1B 5251   1.136  31.127   8.713
  127POPC   C2B 5252   1.204  31.132   8.252
  127POPC   C3B 5253   1.200  31.145   7.802
  127POPC   C4B 5254   1.449  31.136   7.442
  128POPC   NC3 5255  32.810  31.664  10.015
  128POPC   PO4 5256  33.089  31.185   9.576
  128POPC   GL1 5257  32.846  31.422   9.247
  128POPC   GL2 5258  32.903  31.766   9.211
  128POPC   C1A 5259  32.815  31.533   8.779
  128POPC   D2A 5260  32.993  31.732   8.404
  128POPC   C3A 5261  32.974  31.518   8.027
  128POPC   C4A 5262  32.645  31.379   7.759
  128POPC   C1B 5263  33.219  31.889   8.838
  128POPC   C2B 5264  33.371  32.056   8.400
  128POPC   C3B 5265  33.292  31.951   7.971
  128POPC   C4B 5266  32.989  31.892   7.667
  129POPC   NC3 5267  19.366  19.298   9.484
  129POPC   PO4 5268  18.938  18.749   9.425
  129POPC   GL1 5269  18.970  19.101   9.151
  129POPC   GL2 5270  19.293  19.145   9.022
  129POPC   C1A 5271  18.872  19.253   8.728
  129POPC   D2A 5272  18.805  19.262   8.261
  129POPC   C3A 5273  18.926  18.920   8.000
  129POPC   C4A 5274  18.956  18.850   7.576
  129POPC   C1B 5275  19.416  19.384   8.723
  129POPC   C2B 5276  19.248  19.494   8.376
  129POPC   C3B 5277  19.331  19.356   8.018
  129POPC   C4B 5278  19.394  19.030   7.758
  130POPC   NC3 5279  14.427   6.211   9.401
  130POPC   PO4 5280  14.525   6.893   9.399
  130POPC   GL1 5281  14.299   6.647   9.088
  130POPC   GL2 5282  14.579   6.492   8.972
  130POPC   C1A 5283  14.284   6.714   8.616
  130POPC   D2A 5284  14.456   6.734   8.196
  130POPC   C3A 5285  14.133   6.716   7.911
  130POPC   C4A 5286  14.076   6.659   7.468
  130POPC   C1B 5287  14.278   6.229   8.733
  130POPC   C2B 5288  14.175   6.311   8.286
  130POPC   C3B 5289  14.290   6.238   7.870
  130POPC   C4B 5290  14.577   6.553   7.681
  131POPC   NC3 5291  13.884  36.033   9.538
  131POPC   PO4 5292  13.359  36.322   9.762
  131POPC   GL1 5293  13.545  36.185   9.232
  131POPC   GL2 5294  13.312  35.978   9.061
  131POPC   C1A 5295  13.774  35.940   8.889
  131POPC   D2A 5296  13.611  35.864   8.476
  131POPC   C3A 5297  13.775  36.197   8.234
  131POPC   C4A 5298  13.850  36.090   7.829
  131POPC   C1B 5299  13.398  36.264   8.715
  131POPC   C2B 5300  13.268  36.326   8.290
  131POPC   C3B 5301  13.407  36.351   7.879
  131POPC   C4B 5302  13.177  36.384   7.505
  132POPC   NC3 5303  16.192  42.194   9.851
  132POPC   PO4 5304  16.789  42.202   9.507
  132POPC   GL1 5305  16.747  42.403   9.086
  132POPC   GL2 5306  16.371  42.287   8.926
  132POPC   C1A 5307  16.766  42.405   8.665
  132POPC   D2A 5308  16.745  42.679   8.364
  132POPC   C3A 5309  16.688  42.513   7.997
  132POPC   C4A 5310  16.769  42.663   7.602
  132POPC   C1B 5311  16.409  41.972   8.651
  132POPC   C2B 5312  16.640  42.070   8.312
  132POPC   C3B 5313  16.505  42.015   7.972
  132POPC   C4B 5314  16.452  42.135   7.614
  133POPC   NC3 5315  31.522   3.612   9.391
  133POPC   PO4 5316  31.596   3.103   9.773
  133POPC   GL1 5317  31.626   3.112   9.289
  133POPC   GL2 5318  31.308   3.197   9.123
  133POPC   C1A 5319  31.741   3.251   8.859
  133POPC   D2A 5320  31.756   3.460   8.490
  133POPC   C3A 5321  31.570   3.278   8.142
  133POPC   C4A 5322  31.421   3.499   7.824
  133POPC   C1B 5323  31.259   3.470   8.745
  133POPC   C2B 5324  31.229   3.656   8.343
  133POPC   C3B 5325  31.159   3.922   7.988
  133POPC   C4B 5326  31.217   3.895   7.571
  134POPC   NC3 5327  39.781  35.085   9.534
  134POPC   PO4 5328  39.589  35.745   9.448
  134POPC   GL1 5329  39.781  35.432   9.152
  134POPC   GL2 5330  40.107  35.227   9.176
  134POPC   C1A 5331  39.856  35.347   8.731
  134POPC   D2A 5332  39.754  35.370   8.329
  134POPC   C3A 5333  39.926  35.182   7.983
  134POPC   C4A 5334  39.888  35.241   7.593
  134POPC   C1B 5335  40.318  35.490   8.862
  134POPC   C2B 5336  40.340  35.396   8.430
  134POPC   C3B 5337  40.265  35.553   8.019
  134POPC   C4B 5338  40.371  35.377   7.627
  135POPC   NC3 5339  14.869  38.371   9.443
  135POPC   PO4 5340  15.387  38.795   9.477
  135POPC   GL1 5341  15.241  38.594   9.100
  135POPC   GL2 5342  15.022  38.298   8.971
  135POPC   C1A 5343  15.341  38.551   8.664
  135POPC   D2A 5344  15.067  38.486   8.331
  135POPC   C3A 5345  15.131  38.645   7.915
  135POPC   C4A 5346  15.473  38.533   7.639
  135POPC   C1B 5347  15.358  38.043   8.759
  135POPC   C2B 5348  15.582  38.014   8.333
  135POPC   C3B 5349  15.326  38.095   7.952
  135POPC   C4B 5350  14.892  38.173   7.973
  136POPC   NC3 5351  25.268  41.649   9.617
  136POPC   PO4 5352  24.621  41.475   9.529
  136POPC   GL1 5353  24.921  41.652   9.206
  136POPC   GL2 5354  25.188  41.393   9.171
  136POPC   C1A 5355  25.133  41.731   8.780
  136POPC   D2A 5356  24.984  41.626   8.361
  136POPC   C3A 5357  25.176  41.730   7.954
  136POPC   C4A 5358  24.985  41.870   7.530
  136POPC   C1B 5359  25.053  41.078   8.866
  136POPC   C2B 5360  25.119  40.929   8.430
  136POPC   C3B 5361  25.152  41.231   8.097
  136POPC   C4B 5362  24.912  41.382   7.718
  137POPC   NC3 5363  11.455  43.962   9.434
  137POPC   PO4 5364  11.070  43.499   9.573
  137POPC   GL1 5365  11.177  43.648   9.154
  137POPC   GL2 5366  11.043  43.996   9.132
  137POPC   C1A 5367  11.319  43.845   8.723
  137POPC   D2A 5368  11.648  43.790   8.403
  137POPC   C3A 5369  11.691  44.032   8.018
  137POPC   C4A 5370  11.536  43.893   7.606
  137POPC   C1B 5371  10.891  44.149   8.729
  137POPC   C2B 5372  10.908  43.917   8.369
  137POPC   C3B 5373  11.209  43.896   8.110
  137POPC   C4B 5374  11.250  44.235   7.862
  138POPC   NC3 5375  24.379  30.438   9.598
  138POPC   PO4 5376  24.708  31.026   9.491
  138POPC   GL1 5377  24.538  30.701   9.169
  138POPC   GL2 5378  24.207  30.493   9.113
  138POPC   C1A 5379  24.491  30.652   8.717
  138POPC   D2A 5380  24.556  30.562   8.280
  138POPC   C3A 5381  24.840  30.781   8.057
  138POPC   C4A 5382  24.858  30.972   7.692
  138POPC   C1B 5383  23.969  30.491   8.723
  138POPC   C2B 5384  24.021  30.529   8.269
  138POPC   C3B 5385  24.220  30.641   7.882
  138POPC   C4B 5386  24.558  30.392   7.795
  139POPC   NC3 5387  15.277  32.143   9.556
  139POPC   PO4 5388  14.812  32.656   9.449
  139POPC   GL1 5389  15.026  32.340   9.158
  139POPC   GL2 5390  15.315  32.075   9.060
  139POPC   C1A 5391  14.986  32.314   8.735
  139POPC   D2A 5392  15.187  32.582   8.453
  139POPC   C3A 5393  15.089  32.650   8.059
  139POPC   C4A 5394  15.161  32.395   7.704
  139POPC   C1B 5395  15.476  32.199   8.642
  139POPC   C2B 5396  15.382  32.160   8.182
  139POPC   C3B 5397  15.579  32.134   7.762
  139POPC   C4B 5398  15.450  32.145   7.304
  140POPC   NC3 5399  38.690  37.897   9.452
  140POPC   PO4 5400  38.165  37.489   9.482
  140POPC   GL1 5401  38.321  37.690   9.144
  140POPC   GL2 5402  38.195  38.005   9.294
  140POPC   C1A 5403  38.596  37.637   8.782
  140POPC   D2A 5404  38.465  37.449   8.395
  140POPC   C3A 5405  38.508  37.494   7.976
  140POPC   C4A 5406  38.691  37.561   7.574
  140POPC   C1B 5407  38.113  38.072   8.864
  140POPC   C2B 5408  38.268  37.932   8.502
  140POPC   C3B 5409  38.251  38.018   8.094
  140POPC   C4B 5410  38.274  37.854   7.714
  141POPC   NC3 5411  15.199  19.920   9.318
  141POPC   PO4 5412  15.320  19.382   9.611
  141POPC   GL1 5413  15.231  19.444   9.128
  141POPC   GL2 5414  14.938  19.599   9.005
  141POPC   C1A 5415  15.317  19.548   8.685
  141POPC   D2A 5416  15.052  19.590   8.328
  141POPC   C3A 5417  15.202  19.950   8.159
  141POPC   C4A 5418  15.322  20.028   7.756
  141POPC   C1B 5419  14.879  19.922   8.685
  141POPC   C2B 5420  14.691  20.004   8.254
  141POPC   C3B 5421  14.823  19.941   7.834
  141POPC   C4B 5422  15.109  19.562   7.783
  142POPC   NC3 5423  26.723  10.504   9.606
  142POPC   PO4 5424  27.393  10.589   9.579
  142POPC   GL1 5425  27.051  10.577   9.177
  142POPC   GL2 5426  26.685  10.677   9.110
  142POPC   C1A 5427  26.942  10.369   8.765
  142POPC   D2A 5428  27.040  10.141   8.363
  142POPC   C3A 5429  27.037  10.379   7.986
  142POPC   C4A 5430  26.655  10.456   7.796
  142POPC   C1B 5431  26.736  10.854   8.687
  142POPC   C2B 5432  26.838  10.739   8.255
  142POPC   C3B 5433  26.831  10.925   7.805
  142POPC   C4B 5434  26.565  10.820   7.421
  143POPC   NC3 5435  35.606  43.801   9.539
  143POPC   PO4 5436  35.232  44.378   9.475
  143POPC   GL1 5437  35.541  44.169   9.166
  143POPC   GL2 5438  35.471  43.800   9.064
  143POPC   C1A 5439  35.447  44.161   8.717
  143POPC   D2A 5440  35.051  44.205   8.533
  143POPC   C3A 5441  35.114  44.134   8.134
  143POPC   C4A 5442  35.330  44.243   7.781
  143POPC   C1B 5443  35.520  43.634   8.634
  143POPC   C2B 5444  35.472  43.759   8.203
  143POPC   C3B 5445  35.335  43.701   7.781
  143POPC   C4B 5446  35.480  43.525   7.384
  144POPC   NC3 5447   6.289  22.988   9.482
  144POPC   PO4 5448   5.656  22.864   9.365
  144POPC   GL1 5449   5.668  23.037   9.019
  144POPC   GL2 5450   5.970  23.189   9.079
  144POPC   C1A 5451   5.590  22.885   8.645
  144POPC   D2A 5452   5.806  22.816   8.308
  144POPC   C3A 5453   5.800  23.164   8.088
  144POPC   C4A 5454   5.936  23.019   7.720
  144POPC   C1B 5455   5.866  23.336   8.647
  144POPC   C2B 5456   6.156  23.477   8.324
  144POPC   C3B 5457   6.212  23.403   7.883
  144POPC   C4B 5458   6.142  23.367   7.415
  145POPC   NC3 5459  22.116  21.154   9.297
  145POPC   PO4 5460  22.072  21.879   9.523
  145POPC   GL1 5461  22.266  21.648   9.215
  145POPC   GL2 5462  21.952  21.568   9.101
  145POPC   C1A 5463  22.380  21.485   8.779
  145POPC   D2A 5464  22.227  21.487   8.327
  145POPC   C3A 5465  22.314  21.163   8.019
  145POPC   C4A 5466  22.304  21.481   7.743
  145POPC   C1B 5467  21.877  21.538   8.688
  145POPC   C2B 5468  21.690  21.664   8.346
  145POPC   C3B 5469  21.825  21.745   7.935
  145POPC   C4B 5470  21.726  21.701   7.508
  146POPC   NC3 5471  43.053  12.731   9.587
  146POPC   PO4 5472  42.846  13.324   9.407
  146POPC   GL1 5473  43.025  13.028   9.144
  146POPC   GL2 5474  42.911  12.695   9.081
  146POPC   C1A 5475  43.166  13.076   8.742
  146POPC   D2A 5476  43.016  13.199   8.373
  146POPC   C3A 5477  43.201  13.165   7.993
  146POPC   C4A 5478  43.054  13.279   7.593
  146POPC   C1B 5479  43.116  12.573   8.701
  146POPC   C2B 5480  42.875  12.668   8.351
  146POPC   C3B 5481  42.917  12.739   7.933
  146POPC   C4B 5482  43.263  12.762   7.686
  147POPC   NC3 5483  21.309  44.340   9.353
  147POPC   PO4 5484  21.688  44.961   9.403
  147POPC   GL1 5485  21.359  44.790   9.097
  147POPC   GL2 5486  20.994  44.769   9.256
  147POPC   C1A 5487  21.382  44.460   8.737
  147POPC   D2A 5488  21.439  44.244   8.351
  147POPC   C3A 5489  21.490  44.541   8.014
  147POPC   C4A 5490  21.574  44.436   7.595
  147POPC   C1B 5491  20.894  44.608   8.830
  147POPC   C2B 5492  21.061  44.668   8.397
  147POPC   C3B 5493  20.982  44.462   8.023
  147POPC   C4B 5494  21.090  44.621   7.658
  148POPC   NC3 5495  37.678  36.337   9.447
  148POPC   PO4 5496  37.242  35.770   9.455
  148POPC   GL1 5497  37.479  35.960   9.163
  148POPC   GL2 5498  37.794  35.915   9.154
  148POPC   C1A 5499  37.483  36.158   8.768
  148POPC   D2A 5500  37.501  35.921   8.386
  148POPC   C3A 5501  37.460  36.142   8.005
  148POPC   C4A 5502  37.620  36.322   7.643
  148POPC   C1B 5503  37.804  35.718   8.782
  148POPC   C2B 5504  38.024  35.769   8.411
  148POPC   C3B 5505  37.963  36.050   8.100
  148POPC   C4B 5506  37.868  35.895   7.727
  149POPC   NC3 5507   7.411  16.993   9.341
  149POPC   PO4 5508   7.861  16.523   9.621
  149POPC   GL1 5509   7.649  16.556   9.178
  149POPC   GL2 5510   7.297  16.534   9.085
  149POPC   C1A 5511   7.663  16.725   8.747
  149POPC   D2A 5512   7.504  16.950   8.397
  149POPC   C3A 5513   7.520  16.740   8.025
  149POPC   C4A 5514   7.739  16.880   7.711
  149POPC   C1B 5515   7.111  16.726   8.712
  149POPC   C2B 5516   7.061  16.719   8.258
  149POPC   C3B 5517   7.040  16.753   7.814
  149POPC   C4B 5518   7.272  17.084   7.672
  150POPC   NC3 5519  36.082  28.351   9.589
  150POPC   PO4 5520  35.463  28.228   9.424
  150POPC   GL1 5521  35.844  28.378   9.111
  150POPC   GL2 5522  36.166  28.549   9.106
  150POPC   C1A 5523  36.149  28.282   8.697
  150POPC   D2A 5524  35.940  28.182   8.320
  150POPC   C3A 5525  36.100  28.196   7.919
  150POPC   C4A 5526  36.008  28.280   7.485
  150POPC   C1B 5527  36.012  28.764   8.719
  150POPC   C2B 5528  36.115  28.678   8.258
  150POPC   C3B 5529  36.176  28.685   7.776
  150POPC   C4B 5530  36.358  28.651   7.346
  151POPC   NC3 5531  11.476  33.894   9.474
  151POPC   PO4 5532  11.501  34.646   9.442
  151POPC   GL1 5533  11.441  34.295   9.150
  151POPC   GL2 5534  11.128  34.362   9.157
  151POPC   C1A 5535  11.382  34.356   8.703
  151POPC   D2A 5536  11.597  34.736   8.573
  151POPC   C3A 5537  11.531  34.712   8.163
  151POPC   C4A 5538  11.417  34.370   7.862
  151POPC   C1B 5539  11.146  34.753   8.914
  151POPC   C2B 5540  11.115  34.811   8.469
  151POPC   C3B 5541  11.033  34.640   8.075
  151POPC   C4B 5542  10.864  34.592   7.706
  152POPC   NC3 5543   1.999  15.156   9.983
  152POPC   PO4 5544   1.538  15.522   9.583
  152POPC   GL1 5545   1.810  15.243   9.284
  152POPC   GL2 5546   2.100  15.435   9.154
  152POPC   C1A 5547   1.984  15.019   8.887
  152POPC   D2A 5548   1.944  14.894   8.453
  152POPC   C3A 5549   2.128  15.128   8.110
  152POPC   C4A 5550   2.109  15.013   7.678
  152POPC   C1B 5551   1.898  15.494   8.712
  152POPC   C2B 5552   1.774  15.520   8.260
  152POPC   C3B 5553   1.848  15.457   7.801
  152POPC   C4B 5554   2.200  15.498   7.517
  153POPC   NC3 5555  28.597  15.279   9.462
  153POPC   PO4 5556  28.308  14.692   9.578
  153POPC   GL1 5557  28.258  14.980   9.238
  153POPC   GL2 5558  27.935  15.109   9.214
  153POPC   C1A 5559  28.537  14.977   8.850
  153POPC   D2A 5560  28.587  15.266   8.528
  153POPC   C3A 5561  28.562  15.129   8.103
  153POPC   C4A 5562  28.724  15.364   7.786
  153POPC   C1B 5563  28.122  15.287   8.840
  153POPC   C2B 5564  28.090  15.445   8.434
  153POPC   C3B 5565  28.005  15.292   8.084
  153POPC   C4B 5566  28.189  15.351   7.734
  154POPC   NC3 5567  39.703  15.055   9.452
  154POPC   PO4 5568  40.304  15.276   9.560
  154POPC   GL1 5569  40.127  15.206   9.196
  154POPC   GL2 5570  40.067  14.858   9.129
  154POPC   C1A 5571  40.073  15.304   8.812
  154POPC   D2A 5572  40.168  15.173   8.434
  154POPC   C3A 5573  40.056  15.252   8.021
  154POPC   C4A 5574  40.238  15.443   7.666
  154POPC   C1B 5575  39.787  14.904   8.782
  154POPC   C2B 5576  39.735  14.917   8.362
  154POPC   C3B 5577  39.767  14.842   7.947
  154POPC   C4B 5578  40.122  14.875   7.679
  155POPC   NC3 5579  11.060  23.738   9.625
  155POPC   PO4 5580  11.691  23.829   9.599
  155POPC   GL1 5581  11.378  23.961   9.259
  155POPC   GL2 5582  11.214  23.650   9.129
  155POPC   C1A 5583  11.109  24.081   8.897
  155POPC   D2A 5584  10.984  23.729   8.592
  155POPC   C3A 5585  11.101  23.671   8.155
  155POPC   C4A 5586  11.152  24.037   7.859
  155POPC   C1B 5587  11.487  23.792   8.744
  155POPC   C2B 5588  11.475  23.967   8.303
  155POPC   C3B 5589  11.539  23.676   7.916
  155POPC   C4B 5590  11.807  23.445   7.610
  156POPC   NC3 5591   3.750  36.562   9.293
  156POPC   PO4 5592   3.486  36.015   9.626
  156POPC   GL1 5593   3.318  36.056   9.235
  156POPC   GL2 5594   3.615  35.919   9.127
  156POPC   C1A 5595   3.249  36.311   8.845
  156POPC   D2A 5596   3.457  36.342   8.393
  156POPC   C3A 5597   3.194  36.286   8.019
  156POPC   C4A 5598   3.216  36.040   7.607
  156POPC   C1B 5599   3.679  36.045   8.750
  156POPC   C2B 5600   3.744  35.849   8.375
  156POPC   C3B 5601   3.537  35.924   8.012
  156POPC   C4B 5602   3.619  36.336   7.758
  157POPC   NC3 5603  21.578  31.542   9.513
  157POPC   PO4 5604  20.950  31.499   9.665
  157POPC   GL1 5605  21.183  31.450   9.208
  157POPC   GL2 5606  21.377  31.746   9.065
  157POPC   C1A 5607  21.307  31.300   8.764
  157POPC   D2A 5608  21.171  31.101   8.352
  157POPC   C3A 5609  21.045  31.276   7.964
  157POPC   C4A 5610  21.123  31.651   7.763
  157POPC   C1B 5611  21.571  31.702   8.636
  157POPC   C2B 5612  21.389  31.585   8.242
  157POPC   C3B 5613  21.546  31.408   7.860
  157POPC   C4B 5614  21.549  31.714   7.505
  158POPC   NC3 5615  38.167  14.952   9.437
  158POPC   PO4 5616  38.453  15.651   9.544
  158POPC   GL1 5617  38.461  15.375   9.194
  158POPC   GL2 5618  38.140  15.336   9.039
  158POPC   C1A 5619  38.551  15.191   8.776
  158POPC   D2A 5620  38.326  15.227   8.379
  158POPC   C3A 5621  38.519  15.122   7.994
  158POPC   C4A 5622  38.372  15.176   7.579
  158POPC   C1B 5623  38.043  14.979   8.731
  158POPC   C2B 5624  38.178  14.720   8.365
  158POPC   C3B 5625  38.099  14.819   7.935
  158POPC   C4B 5626  38.031  14.785   7.493
  159POPC   NC3 5627  39.604  27.481   9.500
  159POPC   PO4 5628  39.012  27.141   9.552
  159POPC   GL1 5629  39.161  27.368   9.167
  159POPC   GL2 5630  39.419  27.620   9.061
  159POPC   C1A 5631  39.151  27.354   8.723
  159POPC   D2A 5632  39.403  27.451   8.390
  159POPC   C3A 5633  39.221  27.325   8.013
  159POPC   C4A 5634  39.293  27.475   7.606
  159POPC   C1B 5635  39.278  27.850   8.760
  159POPC   C2B 5636  38.999  27.822   8.440
  159POPC   C3B 5637  39.171  27.819   8.038
  159POPC   C4B 5638  39.382  27.955   7.677
  160POPC   NC3 5639  26.976  28.790   9.751
  160POPC   PO4 5640  26.506  28.290   9.718
  160POPC   GL1 5641  26.805  28.274   9.298
  160POPC   GL2 5642  26.889  28.607   9.191
  160POPC   C1A 5643  26.971  28.175   8.843
  160POPC   D2A 5644  26.768  28.326   8.471
  160POPC   C3A 5645  26.855  28.219   8.069
  160POPC   C4A 5646  26.809  28.000   7.692
  160POPC   C1B 5647  27.043  28.677   8.743
  160POPC   C2B 5648  27.268  28.773   8.366
  160POPC   C3B 5649  27.068  28.714   7.979
  160POPC   C4B 5650  26.761  28.558   7.689
  161POPC   NC3 5651  23.962  32.026   9.634
  161POPC   PO4 5652  23.729  32.616   9.452
  161POPC   GL1 5653  23.858  32.491   9.080
  161POPC   GL2 5654  24.169  32.295   9.100
  161POPC   C1A 5655  23.636  32.405   8.699
  161POPC   D2A 5656  23.522  32.491   8.295
  161POPC   C3A 5657  23.425  32.116   8.014
  161POPC   C4A 5658  23.436  32.312   7.569
  161POPC   C1B 5659  23.973  32.012   8.774
  161POPC   C2B 5660  23.825  32.080   8.326
  161POPC   C3B 5661  23.868  32.286   7.873
  161POPC   C4B 5662  23.907  32.116   7.466
  162POPC   NC3 5663  41.377  40.049   9.469
  162POPC   PO4 5664  41.973  39.715   9.388
  162POPC   GL1 5665  41.668  39.818   9.120
  162POPC   GL2 5666  41.414  39.595   9.233
  162POPC   C1A 5667  41.684  39.954   8.719
  162POPC   D2A 5668  41.857  39.957   8.292
  162POPC   C3A 5669  41.639  40.247   8.083
  162POPC   C4A 5670  41.255  40.334   7.819
  162POPC   C1B 5671  41.247  39.653   8.841
  162POPC   C2B 5672  41.403  39.640   8.441
  162POPC   C3B 5673  41.301  39.871   8.097
  162POPC   C4B 5674  41.492  39.874   7.720
  163POPC   NC3 5675   4.335  15.098   9.605
  163POPC   PO4 5676   4.892  15.549   9.474
  163POPC   GL1 5677   4.591  15.320   9.180
  163POPC   GL2 5678   4.256  15.199   9.121
  163POPC   C1A 5679   4.612  15.108   8.772
  163POPC   D2A 5680   4.739  14.898   8.388
  163POPC   C3A 5681   4.616  15.193   8.083
  163POPC   C4A 5682   4.307  15.119   7.792
  163POPC   C1B 5683   4.061  15.122   8.730
  163POPC   C2B 5684   4.170  15.048   8.313
  163POPC   C3B 5685   3.935  14.824   8.001
  163POPC   C4B 5686   3.833  14.976   7.612
  164POPC   NC3 5687   7.789  10.682   9.434
  164POPC   PO4 5688   8.365  10.290   9.642
  164POPC   GL1 5689   8.168  10.359   9.211
  164POPC   GL2 5690   8.229  10.717   9.151
  164POPC   C1A 5691   8.071  10.458   8.744
  164POPC   D2A 5692   8.057  10.342   8.283
  164POPC   C3A 5693   8.349  10.457   7.949
  164POPC   C4A 5694   8.419  10.299   7.500
  164POPC   C1B 5695   7.993  10.957   8.805
  164POPC   C2B 5696   7.758  10.752   8.442
  164POPC   C3B 5697   7.903  10.752   8.014
  164POPC   C4B 5698   8.005  10.597   7.581
  165POPC   NC3 5699   1.988  44.815   9.595
  165POPC   PO4 5700   2.364  44.391   9.283
  165POPC   GL1 5701   2.022  44.603   9.125
  165POPC   GL2 5702   2.064  44.989   9.108
  165POPC   C1A 5703   1.931  44.459   8.740
  165POPC   D2A 5704   1.917  44.743   8.432
  165POPC   C3A 5705   2.153  44.643   8.090
  165POPC   C4A 5706   2.245  44.651   7.666
  165POPC   C1B 5707   1.980   0.205   8.702
  165POPC   C2B 5708   1.653   0.173   8.382
  165POPC   C3B 5709   1.820   0.053   7.989
  165POPC   C4B 5710   1.744  44.805   7.638
  166POPC   NC3 5711  40.908  10.781   9.363
  166POPC   PO4 5712  41.138  10.109   9.436
  166POPC   GL1 5713  41.018  10.330   9.088
  166POPC   GL2 5714  41.287  10.177   8.883
  166POPC   C1A 5715  40.940  10.670   8.747
  166POPC   D2A 5716  41.136  10.807   8.346
  166POPC   C3A 5717  40.893  10.623   8.024
  166POPC   C4A 5718  40.544  10.773   7.800
  166POPC   C1B 5719  41.126  10.307   8.464
  166POPC   C2B 5720  40.649  10.391   8.403
  166POPC   C3B 5721  40.495  10.226   8.033
  166POPC   C4B 5722  40.863  10.122   7.824
  167POPC   NC3 5723  35.239  26.587   9.532
  167POPC   PO4 5724  35.572  27.266   9.466
  167POPC   GL1 5725  35.397  26.960   9.219
  167POPC   GL2 5726  35.679  26.705   9.266
  167POPC   C1A 5727  35.132  26.843   8.863
  167POPC   D2A 5728  35.177  26.619   8.455
  167POPC   C3A 5729  35.158  26.826   8.013
  167POPC   C4A 5730  34.919  27.081   7.676
  167POPC   C1B 5731  35.594  26.650   8.839
  167POPC   C2B 5732  35.694  26.632   8.400
  167POPC   C3B 5733  35.618  26.530   7.986
  167POPC   C4B 5734  35.458  26.538   7.594
  168POPC   NC3 5735  10.720  19.861   9.373
  168POPC   PO4 5736  11.311  19.949   9.739
  168POPC   GL1 5737  11.276  19.752   9.275
  168POPC   GL2 5738  11.483  20.042   9.093
  168POPC   C1A 5739  11.289  19.557   8.864
  168POPC   D2A 5740  11.477  19.687   8.447
  168POPC   C3A 5741  11.442  19.428   8.093
  168POPC   C4A 5742  11.302  19.599   7.716
  168POPC   C1B 5743  11.189  20.032   8.716
  168POPC   C2B 5744  10.934  20.136   8.343
  168POPC   C3B 5745  10.979  19.974   7.911
  168POPC   C4B 5746  11.175  20.153   7.557
  169POPC   NC3 5747  37.946   0.611   9.540
  169POPC   PO4 5748  37.302   0.381   9.484
  169POPC   GL1 5749  37.491   0.421   9.111
  169POPC   GL2 5750  37.798   0.284   9.147
  169POPC   C1A 5751  37.596   0.496   8.683
  169POPC   D2A 5752  37.595   0.211   8.331
  169POPC   C3A 5753  37.596   0.520   8.063
  169POPC   C4A 5754  37.625   0.674   7.708
  169POPC   C1B 5755  37.878   0.081   8.750
  169POPC   C2B 5756  38.086   0.227   8.345
  169POPC   C3B 5757  38.059   0.054   7.895
  169POPC   C4B 5758  38.179  44.929   7.451
  170POPC   NC3 5759  33.529  39.159   9.568
  170POPC   PO4 5760  34.192  39.327   9.544
  170POPC   GL1 5761  33.961  39.474   9.155
  170POPC   GL2 5762  33.576  39.447   9.141
  170POPC   C1A 5763  33.954  39.415   8.701
  170POPC   D2A 5764  34.112  39.585   8.332
  170POPC   C3A 5765  33.988  39.397   7.933
  170POPC   C4A 5766  34.049  39.546   7.486
  170POPC   C1B 5767  33.438  39.403   8.725
  170POPC   C2B 5768  33.522  39.305   8.315
  170POPC   C3B 5769  33.584  39.064   7.962
  170POPC   C4B 5770  33.596  39.260   7.582
  171POPC   NC3 5771  42.895  15.772   9.405
  171POPC   PO4 5772  43.389  16.164   9.486
  171POPC   GL1 5773  43.161  16.208   9.091
  171POPC   GL2 5774  42.810  16.342   9.080
  171POPC   C1A 5775  42.994  15.956   8.754
  171POPC   D2A 5776  42.739  15.722   8.465
  171POPC   C3A 5777  42.956  15.563   8.115
  171POPC   C4A 5778  43.013  15.758   7.740
  171POPC   C1B 5779  42.912  16.512   8.688
  171POPC   C2B 5780  43.071  16.276   8.356
  171POPC   C3B 5781  43.084  16.253   7.929
  171POPC   C4B 5782  42.796  16.241   7.597
  172POPC   NC3 5783   7.201   9.940   9.496
  172POPC   PO4 5784   7.357   9.358   9.759
  172POPC   GL1 5785   7.418   9.541   9.276
  172POPC   GL2 5786   7.136   9.711   9.041
  172POPC   C1A 5787   7.585   9.702   8.855
  172POPC   D2A 5788   7.535   9.700   8.427
  172POPC   C3A 5789   7.826   9.847   8.119
  172POPC   C4A 5790   7.681   9.609   7.773
  172POPC   C1B 5791   7.162  10.017   8.661
  172POPC   C2B 5792   7.065  10.162   8.211
  172POPC   C3B 5793   7.255   9.968   7.823
  172POPC   C4B 5794   7.182   9.615   7.542
  173POPC   NC3 5795  31.233  27.760   9.460
  173POPC   PO4 5796  30.558  27.626   9.575
  173POPC   GL1 5797  30.581  27.524   9.153
  173POPC   GL2 5798  30.603  27.881   9.074
  173POPC   C1A 5799  30.729  27.244   8.794
  173POPC   D2A 5800  30.902  27.017   8.408
  173POPC   C3A 5801  30.810  27.253   8.016
  173POPC   C4A 5802  31.098  27.373   7.657
  173POPC   C1B 5803  30.981  27.749   8.815
  173POPC   C2B 5804  31.028  27.557   8.387
  173POPC   C3B 5805  30.918  27.744   7.966
  173POPC   C4B 5806  30.910  27.801   7.499
  174POPC   NC3 5807  16.697  19.153   9.504
  174POPC   PO4 5808  17.127  18.692   9.177
  174POPC   GL1 5809  16.799  18.916   8.983
  174POPC   GL2 5810  16.577  19.193   9.020
  174POPC   C1A 5811  16.751  18.935   8.545
  174POPC   D2A 5812  16.940  19.211   8.247
  174POPC   C3A 5813  16.872  18.965   7.887
  174POPC   C4A 5814  16.459  18.925   7.669
  174POPC   C1B 5815  16.697  19.416   8.681
  174POPC   C2B 5816  16.472  19.534   8.327
  174POPC   C3B 5817  16.519  19.377   7.939
  174POPC   C4B 5818  16.789  19.369   7.619
  175POPC   NC3 5819   0.987  44.819   9.594
  175POPC   PO4 5820   1.616  44.500   9.546
  175POPC   GL1 5821   1.275  44.560   9.209
  175POPC   GL2 5822   1.053  44.860   9.113
  175POPC   C1A 5823   1.456  44.634   8.801
  175POPC   D2A 5824   1.522  44.370   8.436
  175POPC   C3A 5825   1.560  44.623   8.095
  175POPC   C4A 5826   1.246  44.708   7.844
  175POPC   C1B 5827   0.983  44.764   8.732
  175POPC   C2B 5828   1.194  44.844   8.383
  175POPC   C3B 5829   0.984   0.049   8.086
  175POPC   C4B 5830   0.871  44.955   7.618
  176POPC   NC3 5831  43.531  17.902   9.528
  176POPC   PO4 5832  43.265  18.557   9.463
  176POPC   GL1 5833  43.178  18.473   9.065
  176POPC   GL2 5834  43.241  18.138   9.123
  176POPC   C1A 5835  43.224  18.378   8.646
  176POPC   D2A 5836  43.241  18.108   8.292
  176POPC   C3A 5837  43.249  18.369   7.914
  176POPC   C4A 5838  43.309  18.664   7.557
  176POPC   C1B 5839  42.982  17.911   8.827
  176POPC   C2B 5840  42.786  17.807   8.427
  176POPC   C3B 5841  42.673  17.897   8.015
  176POPC   C4B 5842  42.905  17.802   7.645
  177POPC   NC3 5843  42.956  40.366   9.473
  177POPC   PO4 5844  43.232  41.002   9.489
  177POPC   GL1 5845  43.078  40.772   9.179
  177POPC   GL2 5846  43.334  40.559   9.194
  177POPC   C1A 5847  43.003  40.856   8.777
  177POPC   D2A 5848  42.877  40.643   8.435
  177POPC   C3A 5849  42.977  40.858   8.065
  177POPC   C4A 5850  43.077  40.744   7.609
  177POPC   C1B 5851  43.505  40.757   8.832
  177POPC   C2B 5852  43.379  40.822   8.411
  177POPC   C3B 5853  43.461  40.674   8.002
  177POPC   C4B 5854  43.554  40.892   7.669
  178POPC   NC3 5855  13.422  17.010   9.499
  178POPC   PO4 5856  13.947  17.464   9.576
  178POPC   GL1 5857  13.655  17.457   9.250
  178POPC   GL2 5858  13.816  17.196   9.141
  178POPC   C1A 5859  13.635  17.665   8.851
  178POPC   D2A 5860  13.820  17.687   8.435
  178POPC   C3A 5861  13.634  17.755   8.049
  178POPC   C4A 5862  13.481  17.428   7.813
  178POPC   C1B 5863  14.019  17.339   8.787
  178POPC   C2B 5864  14.064  17.181   8.390
  178POPC   C3B 5865  13.984  17.333   7.977
  178POPC   C4B 5866  13.856  17.139   7.601
  179POPC   NC3 5867  29.346   5.954   9.496
  179POPC   PO4 5868  28.692   5.573   9.444
  179POPC   GL1 5869  29.012   5.759   9.139
  179POPC   GL2 5870  29.036   6.119   9.133
  179POPC   C1A 5871  29.349   5.790   8.815
  179POPC   D2A 5872  29.221   5.926   8.380
  179POPC   C3A 5873  29.316   5.736   7.981
  179POPC   C4A 5874  29.284   5.640   7.519
  179POPC   C1B 5875  29.228   6.285   8.763
  179POPC   C2B 5876  29.008   6.397   8.352
  179POPC   C3B 5877  28.908   6.364   7.934
  179POPC   C4B 5878  29.094   6.082   7.673
  180POPC   NC3 5879  42.974  34.517   9.574
  180POPC   PO4 5880  43.650  34.349   9.770
  180POPC   GL1 5881  43.440  34.467   9.302
  180POPC   GL2 5882  43.194  34.206   9.174
  180POPC   C1A 5883  43.221  34.702   8.900
  180POPC   D2A 5884  43.081  34.940   8.504
  180POPC   C3A 5885  42.908  34.719   8.135
  180POPC   C4A 5886  42.850  34.587   7.709
  180POPC   C1B 5887  43.483  34.280   8.826
  180POPC   C2B 5888  43.282  34.419   8.443
  180POPC   C3B 5889  43.187  34.263   8.053
  180POPC   C4B 5890  43.317  34.351   7.669
  181POPC   NC3 5891   6.826  39.115   9.387
  181POPC   PO4 5892   6.403  39.574   9.486
  181POPC   GL1 5893   6.598  39.512   9.071
  181POPC   GL2 5894   6.673  39.155   8.931
  181POPC   C1A 5895   6.417  39.445   8.622
  181POPC   D2A 5896   6.203  39.532   8.235
  181POPC   C3A 5897   6.456  39.350   7.930
  181POPC   C4A 5898   6.904  39.313   7.790
  181POPC   C1B 5899   6.642  38.881   8.601
  181POPC   C2B 5900   6.447  38.689   8.247
  181POPC   C3B 5901   6.649  38.869   7.886
  181POPC   C4B 5902   6.543  39.063   7.504
  182POPC   NC3 5903  18.007   3.993   9.536
  182POPC   PO4 5904  18.688   4.137   9.534
  182POPC   GL1 5905  18.412   4.307   9.180
  182POPC   GL2 5906  18.139   4.077   9.054
  182POPC   C1A 5907  18.347   4.496   8.757
  182POPC   D2A 5908  18.126   4.498   8.339
  182POPC   C3A 5909  18.309   4.681   7.982
  182POPC   C4A 5910  18.182   4.644   7.570
  182POPC   C1B 5911  18.001   4.133   8.662
  182POPC   C2B 5912  18.106   3.990   8.285
  182POPC   C3B 5913  18.228   4.168   7.950
  182POPC   C4B 5914  18.361   4.023   7.628
  183POPC   NC3 5915  14.787   9.562   9.797
  183POPC   PO4 5916  15.258  10.025   9.580
  183POPC   GL1 5917  15.223   9.626   9.342
  183POPC   GL2 5918  14.873   9.608   9.242
  183POPC   C1A 5919  15.260   9.646   8.888
  183POPC   D2A 5920  15.435   9.907   8.553
  183POPC   C3A 5921  15.402   9.754   8.137
  183POPC   C4A 5922  15.433   9.973   7.759
  183POPC   C1B 5923  14.783   9.616   8.767
  183POPC   C2B 5924  14.908   9.728   8.322
  183POPC   C3B 5925  14.874   9.664   7.837
  183POPC   C4B 5926  14.756   9.411   7.449
  184POPC   NC3 5927  19.246  20.133   9.443
  184POPC   PO4 5928  18.901  19.517   9.445
  184POPC   GL1 5929  18.887  19.888   9.153
  184POPC   GL2 5930  19.170  19.722   9.023
  184POPC   C1A 5931  18.910  20.234   8.800
  184POPC   D2A 5932  18.866  20.206   8.318
  184POPC   C3A 5933  19.032  19.861   8.045
  184POPC   C4A 5934  19.310  19.916   7.680
  184POPC   C1B 5935  18.890  19.754   8.651
  184POPC   C2B 5936  18.591  19.760   8.324
  184POPC   C3B 5937  18.601  19.607   7.905
  184POPC   C4B 5938  19.007  19.501   7.654
  185POPC   NC3 5939  28.403  25.384   9.574
  185POPC   PO4 5940  27.726  25.226   9.514
  185POPC   GL1 5941  28.122  25.188   9.189
  185POPC   GL2 5942  28.493  25.310   9.100
  185POPC   C1A 5943  28.128  25.402   8.780
  185POPC   D2A 5944  28.050  25.307   8.347
  185POPC   C3A 5945  28.369  25.462   8.056
  185POPC   C4A 5946  28.439  25.165   7.739
  185POPC   C1B 5947  28.633  25.578   8.772
  185POPC   C2B 5948  28.786  25.410   8.385
  185POPC   C3B 5949  28.867  25.247   7.989
  185POPC   C4B 5950  28.871  25.393   7.554
  186POPC   NC3 5951  32.552  20.535   9.280
  186POPC   PO4 5952  31.976  20.452   9.595
  186POPC   GL1 5953  32.027  20.694   9.210
  186POPC   GL2 5954  32.116  20.431   9.017
  186POPC   C1A 5955  32.076  20.858   8.764
  186POPC   D2A 5956  31.959  20.599   8.383
  186POPC   C3A 5957  32.171  20.690   7.985
  186POPC   C4A 5958  32.196  21.094   7.753
  186POPC   C1B 5959  32.386  20.480   8.656
  186POPC   C2B 5960  32.420  20.279   8.287
  186POPC   C3B 5961  32.366  20.198   7.863
  186POPC   C4B 5962  32.318  20.448   7.528
  187POPC   NC3 5963   2.451  12.488   9.444
  187POPC   PO4 5964   2.823  13.082   9.373
  187POPC   GL1 5965   2.675  12.809   9.092
  187POPC   GL2 5966   2.788  12.477   9.063
  187POPC   C1A 5967   2.697  12.872   8.687
  187POPC   D2A 5968   2.537  13.142   8.373
  187POPC   C3A 5969   2.604  12.920   8.008
  187POPC   C4A 5970   2.847  12.957   7.662
  187POPC   C1B 5971   2.386  12.465   8.792
  187POPC   C2B 5972   2.296  12.685   8.409
  187POPC   C3B 5973   2.302  12.504   8.021
  187POPC   C4B 5974   2.539  12.532   7.618
  188POPC   NC3 5975  34.593  34.799   9.542
  188POPC   PO4 5976  34.434  34.126   9.506
  188POPC   GL1 5977  34.611  34.421   9.168
  188POPC   GL2 5978  34.869  34.726   9.138
  188POPC   C1A 5979  34.449  34.591   8.795
  188POPC   D2A 5980  34.314  34.362   8.433
  188POPC   C3A 5981  34.487  34.377   8.062
  188POPC   C4A 5982  34.539  34.614   7.712
  188POPC   C1B 5983  34.946  34.497   8.768
  188POPC   C2B 5984  34.945  34.439   8.344
  188POPC   C3B 5985  34.957  34.587   7.963
  188POPC   C4B 5986  34.977  34.882   7.631
  189POPC   NC3 5987   6.886   3.649   9.241
  189POPC   PO4 5988   6.326   3.839   9.393
  189POPC   GL1 5989   6.446   3.765   9.008
  189POPC   GL2 5990   6.506   3.403   8.956
  189POPC   C1A 5991   6.687   3.781   8.629
  189POPC   D2A 5992   6.735   3.486   8.298
  189POPC   C3A 5993   6.701   3.726   7.942
  189POPC   C4A 5994   6.448   3.652   7.594
  189POPC   C1B 5995   6.896   3.228   8.732
  189POPC   C2B 5996   7.041   3.025   8.355
  189POPC   C3B 5997   6.936   3.111   7.939
  189POPC   C4B 5998   6.923   3.423   7.620
  190POPC   NC3 5999  28.047  39.477   9.523
  190POPC   PO4 6000  28.498  38.899   9.712
  190POPC   GL1 6001  28.350  39.057   9.301
  190POPC   GL2 6002  28.495  39.404   9.259
  190POPC   C1A 6003  28.347  39.001   8.833
  190POPC   D2A 6004  28.125  38.930   8.418
  190POPC   C3A 6005  28.301  38.977   7.986
  190POPC   C4A 6006  28.652  39.088   7.670
  190POPC   C1B 6007  28.284  39.530   8.877
  190POPC   C2B 6008  28.319  39.470   8.425
  190POPC   C3B 6009  28.404  39.463   7.956
  190POPC   C4B 6010  28.478  39.559   7.496
  191POPC   NC3 6011  14.826  34.070   9.567
  191POPC   PO4 6012  15.444  33.742   9.459
  191POPC   GL1 6013  15.282  33.954   9.099
  191POPC   GL2 6014  15.036  34.147   9.123
  191POPC   C1A 6015  15.180  33.902   8.664
  191POPC   D2A 6016  15.298  33.544   8.411
  191POPC   C3A 6017  15.162  33.523   7.975
  191POPC   C4A 6018  15.345  33.738   7.642
  191POPC   C1B 6019  14.732  34.125   8.770
  191POPC   C2B 6020  14.833  34.219   8.353
  191POPC   C3B 6021  14.686  34.104   7.951
  191POPC   C4B 6022  14.880  33.917   7.606
  192POPC   NC3 6023   9.482  37.879   9.634
  192POPC   PO4 6024  10.150  37.874   9.628
  192POPC   GL1 6025   9.882  37.823   9.248
  192POPC   GL2 6026   9.528  37.873   9.133
  192POPC   C1A 6027   9.941  37.692   8.817
  192POPC   D2A 6028   9.800  37.807   8.401
  192POPC   C3A 6029   9.818  37.613   8.004
  192POPC   C4A 6030   9.371  37.632   7.842
  192POPC   C1B 6031   9.426  37.641   8.717
  192POPC   C2B 6032   9.459  37.393   8.297
  192POPC   C3B 6033   9.670  37.133   7.916
  192POPC   C4B 6034  10.030  37.144   7.613
  193POPC   NC3 6035  41.886  13.904   9.527
  193POPC   PO4 6036  41.122  13.703   9.545
  193POPC   GL1 6037  41.403  13.491   9.239
  193POPC   GL2 6038  41.741  13.495   9.216
  193POPC   C1A 6039  41.445  13.349   8.810
  193POPC   D2A 6040  41.371  13.638   8.511
  193POPC   C3A 6041  41.241  13.474   8.166
  193POPC   C4A 6042  41.376  13.528   7.780
  193POPC   C1B 6043  41.952  13.413   8.818
  193POPC   C2B 6044  42.004  13.325   8.409
  193POPC   C3B 6045  41.760  13.527   8.139
  193POPC   C4B 6046  41.834  13.758   7.764
  194POPC   NC3 6047  39.390  13.758   9.559
  194POPC   PO4 6048  38.864  13.399   9.481
  194POPC   GL1 6049  39.080  13.615   9.168
  194POPC   GL2 6050  39.427  13.527   9.113
  194POPC   C1A 6051  38.983  13.828   8.815
  194POPC   D2A 6052  38.932  14.000   8.420
  194POPC   C3A 6053  38.992  13.754   8.058
  194POPC   C4A 6054  38.800  13.916   7.670
  194POPC   C1B 6055  39.454  13.628   8.698
  194POPC   C2B 6056  39.587  13.483   8.303
  194POPC   C3B 6057  39.481  13.607   7.902
  194POPC   C4B 6058  39.660  13.851   7.590
  195POPC   NC3 6059   0.120   3.004   9.506
  195POPC   PO4 6060   0.512   2.470   9.624
  195POPC   GL1 6061   0.419   2.639   9.211
  195POPC   GL2 6062   0.536   2.933   8.991
  195POPC   C1A 6063   0.365   2.467   8.800
  195POPC   D2A 6064   0.427   2.714   8.422
  195POPC   C3A 6065   0.351   2.504   8.031
  195POPC   C4A 6066   0.528   2.535   7.630
  195POPC   C1B 6067   0.126   2.954   8.833
  195POPC   C2B 6068  44.967   2.952   8.437
  195POPC   C3B 6069   0.088   2.942   8.044
  195POPC   C4B 6070  44.989   3.234   7.746
  196POPC   NC3 6071  25.465  31.803   9.516
  196POPC   PO4 6072  25.674  31.279   9.450
  196POPC   GL1 6073  25.367  31.306   9.121
  196POPC   GL2 6074  25.307  31.653   9.044
  196POPC   C1A 6075  25.196  31.036   8.810
  196POPC   D2A 6076  25.345  30.887   8.380
  196POPC   C3A 6077  25.260  31.078   8.030
  196POPC   C4A 6078  25.199  31.384   7.761
  196POPC   C1B 6079  25.362  31.484   8.613
  196POPC   C2B 6080  25.157  31.628   8.231
  196POPC   C3B 6081  25.373  31.826   7.904
  196POPC   C4B 6082  25.638  31.642   7.557
  197POPC   NC3 6083   8.426   3.890   9.534
  197POPC   PO4 6084   8.021   4.381   9.623
  197POPC   GL1 6085   8.054   4.112   9.262
  197POPC   GL2 6086   8.352   4.285   9.183
  197POPC   C1A 6087   8.213   3.974   8.812
  197POPC   D2A 6088   8.309   4.181   8.401
  197POPC   C3A 6089   8.308   4.136   7.939
  197POPC   C4A 6090   8.212   4.457   7.584
  197POPC   C1B 6091   8.316   4.557   8.822
  197POPC   C2B 6092   8.505   4.646   8.430
  197POPC   C3B 6093   8.482   4.637   7.981
  197POPC   C4B 6094   8.755   4.562   7.606
  198POPC   NC3 6095  27.216  42.102   9.474
  198POPC   PO4 6096  27.746  42.471   9.584
  198POPC   GL1 6097  27.626  42.295   9.183
  198POPC   GL2 6098  27.765  41.956   9.244
  198POPC   C1A 6099  27.435  42.454   8.764
  198POPC   D2A 6100  27.404  42.725   8.372
  198POPC   C3A 6101  27.353  42.554   7.954
  198POPC   C4A 6102  27.122  42.399   7.581
  198POPC   C1B 6103  27.868  42.056   8.791
  198POPC   C2B 6104  27.777  42.294   8.380
  198POPC   C3B 6105  27.663  42.121   7.975
  198POPC   C4B 6106  27.935  41.895   7.661
  199POPC   NC3 6107   4.882   6.348   9.549
  199POPC   PO4 6108   5.363   6.765   9.668
  199POPC   GL1 6109   5.099   6.721   9.256
  199POPC   GL2 6110   4.871   6.984   9.154
  199POPC   C1A 6111   4.876   6.515   8.875
  199POPC   D2A 6112   4.805   6.254   8.459
  199POPC   C3A 6113   5.050   6.270   8.070
  199POPC   C4A 6114   4.910   6.590   7.822
  199POPC   C1B 6115   5.059   7.000   8.794
  199POPC   C2B 6116   4.937   7.135   8.419
  199POPC   C3B 6117   5.135   7.000   8.068
  199POPC   C4B 6118   5.388   6.716   7.879
  200POPC   NC3 6119  10.250   1.841   9.525
  200POPC   PO4 6120   9.564   2.134   9.563
  200POPC   GL1 6121   9.764   1.985   9.237
  200POPC   GL2 6122  10.067   2.218   9.234
  200POPC   C1A 6123   9.551   1.888   8.836
  200POPC   D2A 6124   9.532   1.682   8.414
  200POPC   C3A 6125   9.632   1.886   8.040
  200POPC   C4A 6126   9.602   1.822   7.619
  200POPC   C1B 6127  10.084   1.953   8.860
  200POPC   C2B 6128   9.976   1.912   8.446
  200POPC   C3B 6129   9.975   2.244   8.140
  200POPC   C4B 6130   9.936   2.206   7.700
  201POPC   NC3 6131  31.764  37.044   9.579
  201POPC   PO4 6132  31.098  36.782   9.460
  201POPC   GL1 6133  31.286  36.956   9.139
  201POPC   GL2 6134  31.609  36.994   9.097
  201POPC   C1A 6135  31.342  36.744   8.750
  201POPC   D2A 6136  31.410  36.877   8.343
  201POPC   C3A 6137  31.408  36.582   8.024
  201POPC   C4A 6138  31.369  36.700   7.590
  201POPC   C1B 6139  31.828  36.880   8.709
  201POPC   C2B 6140  31.929  36.979   8.288
  201POPC   C3B 6141  31.709  36.961   7.895
  201POPC   C4B 6142  31.856  36.946   7.454
  202POPC   NC3 6143  37.669   6.944   9.338
  202POPC   PO4 6144  37.525   6.263   9.311
  202POPC   GL1 6145  37.498   6.593   9.013
  202POPC   GL2 6146  37.881   6.674   8.976
  202POPC   C1A 6147  37.543   6.650   8.586
  202POPC   D2A 6148  37.736   6.391   8.278
  202POPC   C3A 6149  37.506   6.337   7.915
  202POPC   C4A 6150  37.597   6.404   7.463
  202POPC   C1B 6151  37.928   7.003   8.658
  202POPC   C2B 6152  37.804   6.933   8.222
  202POPC   C3B 6153  37.705   6.807   7.781
  202POPC   C4B 6154  37.571   6.904   7.338
  203POPC   NC3 6155  41.665  29.345   9.625
  203POPC   PO4 6156  41.328  30.045   9.483
  203POPC   GL1 6157  41.587  29.886   9.177
  203POPC   GL2 6158  41.293  29.848   9.005
  203POPC   C1A 6159  41.909  29.922   8.838
  203POPC   D2A 6160  42.073  29.865   8.421
  203POPC   C3A 6161  41.909  29.978   8.034
  203POPC   C4A 6162  41.858  29.591   7.875
  203POPC   C1B 6163  41.445  30.116   8.725
  203POPC   C2B 6164  41.559  29.858   8.402
  203POPC   C3B 6165  41.408  29.908   8.010
  203POPC   C4B 6166  41.352  30.355   7.900
  204POPC   NC3 6167  32.833   8.021   9.307
  204POPC   PO4 6168  32.898   8.678   9.414
  204POPC   GL1 6169  33.151   8.485   9.113
  204POPC   GL2 6170  33.346   8.185   9.169
  204POPC   C1A 6171  33.100   8.299   8.735
  204POPC   D2A 6172  32.905   8.142   8.361
  204POPC   C3A 6173  32.934   8.335   7.952
  204POPC   C4A 6174  32.908   8.168   7.511
  204POPC   C1B 6175  33.387   7.871   8.815
  204POPC   C2B 6176  33.211   7.710   8.429
  204POPC   C3B 6177  33.219   7.918   8.015
  204POPC   C4B 6178  33.393   8.045   7.651
  205POPC   NC3 6179   2.410  30.036   9.519
  205POPC   PO4 6180   3.090  29.932   9.581
  205POPC   GL1 6181   2.953  29.943   9.163
  205POPC   GL2 6182   2.682  29.702   9.057
  205POPC   C1A 6183   3.042  29.905   8.725
  205POPC   D2A 6184   2.744  29.939   8.403
  205POPC   C3A 6185   2.839  29.822   7.978
  205POPC   C4A 6186   2.732  30.210   7.786
  205POPC   C1B 6187   2.394  29.940   8.813
  205POPC   C2B 6188   2.241  30.042   8.410
  205POPC   C3B 6189   2.247  30.233   8.004
  205POPC   C4B 6190   2.276  30.036   7.621
  206POPC   NC3 6191  24.921   2.996   9.361
  206POPC   PO4 6192  25.548   2.696   9.585
  206POPC   GL1 6193  25.396   2.846   9.231
  206POPC   GL2 6194  25.310   2.553   9.093
  206POPC   C1A 6195  25.243   2.953   8.809
  206POPC   D2A 6196  25.181   2.988   8.403
  206POPC   C3A 6197  25.216   2.709   8.128
  206POPC   C4A 6198  25.305   2.766   7.715
  206POPC   C1B 6199  25.162   2.449   8.672
  206POPC   C2B 6200  24.914   2.324   8.277
  206POPC   C3B 6201  24.967   2.332   7.802
  206POPC   C4B 6202  25.155   2.397   7.373
  207POPC   NC3 6203  21.712   3.458   9.591
  207POPC   PO4 6204  21.107   3.700   9.752
  207POPC   GL1 6205  21.217   3.696   9.240
  207POPC   GL2 6206  21.574   3.646   9.155
  207POPC   C1A 6207  21.279   3.454   8.814
  207POPC   D2A 6208  21.540   3.435   8.433
  207POPC   C3A 6209  21.518   3.556   8.008
  207POPC   C4A 6210  21.249   3.532   7.632
  207POPC   C1B 6211  21.572   3.859   8.732
  207POPC   C2B 6212  21.661   3.972   8.292
  207POPC   C3B 6213  21.477   4.024   7.856
  207POPC   C4B 6214  21.590   3.867   7.420
  208POPC   NC3 6215  41.726  12.002   9.424
  208POPC   PO4 6216  41.144  12.078   9.400
  208POPC   GL1 6217  41.413  12.225   9.063
  208POPC   GL2 6218  41.779  12.369   9.086
  208POPC   C1A 6219  41.318  12.292   8.642
  208POPC   D2A 6220  41.001  12.069   8.434
  208POPC   C3A 6221  41.206  11.907   8.052
  208POPC   C4A 6222  41.354  12.248   7.784
  208POPC   C1B 6223  41.765  12.052   8.738
  208POPC   C2B 6224  41.650  12.037   8.294
  208POPC   C3B 6225  41.838  12.187   7.872
  208POPC   C4B 6226  41.952  12.376   7.447
  209POPC   NC3 6227  35.440  34.814   9.496
  209POPC   PO4 6228  34.953  34.426   9.558
  209POPC   GL1 6229  35.240  34.335   9.187
  209POPC   GL2 6230  35.359  34.643   9.034
  209POPC   C1A 6231  35.587  34.225   8.854
  209POPC   D2A 6232  35.762  34.300   8.421
  209POPC   C3A 6233  35.432  34.435   8.134
  209POPC   C4A 6234  35.295  34.330   7.718
  209POPC   C1B 6235  35.237  34.914   8.671
  209POPC   C2B 6236  35.199  34.952   8.206
  209POPC   C3B 6237  35.453  34.829   7.835
  209POPC   C4B 6238  35.751  34.941   7.529
  210POPC   NC3 6239   8.385  41.070   9.605
  210POPC   PO4 6240   7.819  40.787   9.722
  210POPC   GL1 6241   8.048  40.752   9.287
  210POPC   GL2 6242   8.419  40.718   9.200
  210POPC   C1A 6243   8.146  41.051   8.920
  210POPC   D2A 6244   8.375  41.065   8.523
  210POPC   C3A 6245   8.204  40.956   8.152
  210POPC   C4A 6246   8.156  40.599   7.905
  210POPC   C1B 6247   8.371  40.576   8.742
  210POPC   C2B 6248   8.591  40.635   8.314
  210POPC   C3B 6249   8.622  40.818   7.864
  210POPC   C4B 6250   8.643  40.940   7.410
  211POPC   NC3 6251  27.935  28.992   9.552
  211POPC   PO4 6252  27.383  29.358   9.465
  211POPC   GL1 6253  27.632  29.133   9.160
  211POPC   GL2 6254  27.814  29.410   9.093
  211POPC   C1A 6255  27.608  28.994   8.717
  211POPC   D2A 6256  27.639  29.142   8.259
  211POPC   C3A 6257  27.493  28.974   7.864
  211POPC   C4A 6258  27.619  28.936   7.435
  211POPC   C1B 6259  27.422  29.475   8.800
  211POPC   C2B 6260  27.194  29.373   8.412
  211POPC   C3B 6261  27.266  29.480   7.972
  211POPC   C4B 6262  27.646  29.458   7.707
  212POPC   NC3 6263  21.361  19.363   9.589
  212POPC   PO4 6264  21.828  18.910   9.460
  212POPC   GL1 6265  21.463  18.991   9.231
  212POPC   GL2 6266  21.301  18.680   9.238
  212POPC   C1A 6267  21.384  19.298   8.916
  212POPC   D2A 6268  21.534  19.358   8.478
  212POPC   C3A 6269  21.224  19.358   8.151
  212POPC   C4A 6270  21.287  19.218   7.746
  212POPC   C1B 6271  21.282  18.801   8.789
  212POPC   C2B 6272  21.262  18.896   8.371
  212POPC   C3B 6273  21.023  18.838   7.995
  212POPC   C4B 6274  21.070  18.766   7.556
  213POPC   NC3 6275  30.788  11.696   9.433
  213POPC   PO4 6276  30.747  12.440   9.475
  213POPC   GL1 6277  30.742  12.135   9.143
  213POPC   GL2 6278  30.465  11.970   9.134
  213POPC   C1A 6279  30.879  11.923   8.760
  213POPC   D2A 6280  30.737  12.078   8.353
  213POPC   C3A 6281  30.864  11.889   8.003
  213POPC   C4A 6282  30.991  11.548   7.794
  213POPC   C1B 6283  30.374  12.050   8.718
  213POPC   C2B 6284  30.283  11.864   8.330
  213POPC   C3B 6285  30.364  12.023   7.918
  213POPC   C4B 6286  30.282  12.095   7.484
  214POPC   NC3 6287  42.222  35.904   9.754
  214POPC   PO4 6288  42.493  36.441   9.436
  214POPC   GL1 6289  42.190  36.227   9.183
  214POPC   GL2 6290  42.142  35.858   9.226
  214POPC   C1A 6291  42.375  36.122   8.768
  214POPC   D2A 6292  42.477  36.405   8.437
  214POPC   C3A 6293  42.457  36.203   8.060
  214POPC   C4A 6294  42.422  35.961   7.685
  214POPC   C1B 6295  41.900  35.956   8.839
  214POPC   C2B 6296  42.029  36.097   8.405
  214POPC   C3B 6297  42.101  35.823   8.059
  214POPC   C4B 6298  41.930  35.749   7.640
  215POPC   NC3 6299  39.322  31.878   9.503
  215POPC   PO4 6300  38.906  32.434   9.457
  215POPC   GL1 6301  39.250  32.287   9.143
  215POPC   GL2 6302  39.588  32.447   9.083
  215POPC   C1A 6303  39.498  31.982   8.854
  215POPC   D2A 6304  39.656  31.924   8.417
  215POPC   C3A 6305  39.386  32.082   8.102
  215POPC   C4A 6306  39.451  32.348   7.739
  215POPC   C1B 6307  39.609  32.430   8.634
  215POPC   C2B 6308  39.505  32.597   8.240
  215POPC   C3B 6309  39.717  32.769   7.895
  215POPC   C4B 6310  39.632  32.710   7.420
  216POPC   NC3 6311  38.631  29.396   9.489
  216POPC   PO4 6312  38.436  28.701   9.541
  216POPC   GL1 6313  38.540  29.002   9.173
  216POPC   GL2 6314  38.469  29.352   9.021
  216POPC   C1A 6315  38.455  28.955   8.725
  216POPC   D2A 6316  38.539  29.253   8.400
  216POPC   C3A 6317  38.492  29.076   8.027
  216POPC   C4A 6318  38.561  28.976   7.634
  216POPC   C1B 6319  38.178  29.434   8.680
  216POPC   C2B 6320  38.200  29.606   8.254
  216POPC   C3B 6321  38.128  29.456   7.838
  216POPC   C4B 6322  37.844  29.548   7.469
  217POPC   NC3 6323  40.008  39.075   9.654
  217POPC   PO4 6324  40.126  39.765   9.548
  217POPC   GL1 6325  40.125  39.384   9.231
  217POPC   GL2 6326  39.806  39.169   9.207
  217POPC   C1A 6327  40.073  39.277   8.780
  217POPC   D2A 6328  40.047  38.962   8.441
  217POPC   C3A 6329  40.245  39.084   8.080
  217POPC   C4A 6330  40.197  39.118   7.670
  217POPC   C1B 6331  39.695  38.966   8.839
  217POPC   C2B 6332  39.559  39.138   8.452
  217POPC   C3B 6333  39.729  39.165   8.032
  217POPC   C4B 6334  39.697  38.918   7.652
  218POPC   NC3 6335  15.391  31.164   9.387
  218POPC   PO4 6336  15.096  31.702   9.548
  218POPC   GL1 6337  15.062  31.556   9.146
  218POPC   GL2 6338  14.865  31.841   9.086
  218POPC   C1A 6339  15.141  31.328   8.744
  218POPC   D2A 6340  15.317  31.495   8.347
  218POPC   C3A 6341  15.106  31.438   7.945
  218POPC   C4A 6342  15.014  31.055   7.722
  218POPC   C1B 6343  15.052  31.823   8.677
  218POPC   C2B 6344  14.944  31.858   8.257
  218POPC   C3B 6345  15.025  31.929   7.835
  218POPC   C4B 6346  15.311  31.752   7.568
  219POPC   NC3 6347  21.250  22.113   9.731
  219POPC   PO4 6348  21.623  22.641   9.781
  219POPC   GL1 6349  21.412  22.354   9.331
  219POPC   GL2 6350  21.236  22.020   9.241
  219POPC   C1A 6351  21.453  22.340   8.882
  219POPC   D2A 6352  21.500  22.576   8.503
  219POPC   C3A 6353  21.521  22.286   8.149
  219POPC   C4A 6354  21.403  22.399   7.747
  219POPC   C1B 6355  21.068  22.004   8.845
  219POPC   C2B 6356  21.275  21.950   8.477
  219POPC   C3B 6357  21.175  21.820   8.080
  219POPC   C4B 6358  21.333  21.899   7.715
  220POPC   NC3 6359  38.288  41.027   9.493
  220POPC   PO4 6360  38.800  40.612   9.682
  220POPC   GL1 6361  38.621  40.726   9.216
  220POPC   GL2 6362  38.279  40.807   9.002
  220POPC   C1A 6363  38.688  40.594   8.769
  220POPC   D2A 6364  38.711  40.794   8.361
  220POPC   C3A 6365  38.551  40.582   8.043
  220POPC   C4A 6366  38.483  40.659   7.626
  220POPC   C1B 6367  38.445  41.059   8.702
  220POPC   C2B 6368  38.377  41.292   8.354
  220POPC   C3B 6369  38.469  41.129   7.990
  220POPC   C4B 6370  38.819  40.996   7.875
  221POPC   NC3 6371   8.259  31.274   9.413
  221POPC   PO4 6372   8.640  31.782   9.393
  221POPC   GL1 6373   8.374  31.769   9.001
  221POPC   GL2 6374   8.135  31.462   8.978
  221POPC   C1A 6375   8.247  31.678   8.551
  221POPC   D2A 6376   8.142  31.269   8.430
  221POPC   C3A 6377   8.366  31.337   8.104
  221POPC   C4A 6378   8.439  31.792   8.043
  221POPC   C1B 6379   7.845  31.779   8.866
  221POPC   C2B 6380   7.714  31.829   8.457
  221POPC   C3B 6381   7.849  31.569   8.147
  221POPC   C4B 6382   8.059  31.536   7.765
  222POPC   NC3 6383  31.283   6.151   9.845
  222POPC   PO4 6384  30.781   5.966   9.402
  222POPC   GL1 6385  30.613   6.119   9.026
  222POPC   GL2 6386  30.312   5.876   9.083
  222POPC   C1A 6387  30.848   6.043   8.612
  222POPC   D2A 6388  30.921   5.638   8.363
  222POPC   C3A 6389  30.974   5.730   7.926
  222POPC   C4A 6390  30.755   6.110   7.807
  222POPC   C1B 6391  30.342   5.915   8.631
  222POPC   C2B 6392  30.496   5.938   8.215
  222POPC   C3B 6393  30.463   5.660   7.860
  222POPC   C4B 6394  30.263   5.645   7.450
  223POPC   NC3 6395   6.770  24.436   9.437
  223POPC   PO4 6396   6.098  24.374   9.613
  223POPC   GL1 6397   6.309  24.427   9.171
  223POPC   GL2 6398   6.467  24.750   9.170
  223POPC   C1A 6399   6.579  24.355   8.750
  223POPC   D2A 6400   6.713  24.375   8.320
  223POPC   C3A 6401   6.504  24.322   7.905
  223POPC   C4A 6402   6.586  24.459   7.442
  223POPC   C1B 6403   6.700  24.841   8.796
  223POPC   C2B 6404   6.583  24.877   8.382
  223POPC   C3B 6405   6.745  24.774   8.002
  223POPC   C4B 6406   6.968  24.729   7.616
  224POPC   NC3 6407  22.552  12.411   9.622
  224POPC   PO4 6408  22.175  12.980   9.591
  224POPC   GL1 6409  22.104  12.926   9.215
  224POPC   GL2 6410  22.254  13.229   9.115
  224POPC   C1A 6411  22.020  12.859   8.815
  224POPC   D2A 6412  22.235  12.874   8.431
  224POPC   C3A 6413  21.927  12.915   8.118
  224POPC   C4A 6414  21.987  12.689   7.768
  224POPC   C1B 6415  22.510  13.306   8.739
  224POPC   C2B 6416  22.457  13.323   8.286
  224POPC   C3B 6417  22.397  13.066   7.954
  224POPC   C4B 6418  22.108  13.196   7.702
  225POPC   NC3 6419  15.913  37.557   9.740
  225POPC   PO4 6420  16.588  37.569   9.970
  225POPC   GL1 6421  16.404  37.553   9.473
  225POPC   GL2 6422  16.099  37.405   9.291
  225POPC   C1A 6423  16.299  37.732   8.979
  225POPC   D2A 6424  15.981  37.748   8.613
  225POPC   C3A 6425  16.061  37.817   8.180
  225POPC   C4A 6426  16.105  37.791   7.759
  225POPC   C1B 6427  15.859  37.322   8.869
  225POPC   C2B 6428  15.957  37.220   8.420
  225POPC   C3B 6429  15.918  37.349   7.969
  225POPC   C4B 6430  15.932  37.378   7.475
  226POPC   NC3 6431  10.876   3.181   9.291
  226POPC   PO4 6432  11.361   3.623   9.507
  226POPC   GL1 6433  11.147   3.594   9.168
  226POPC   GL2 6434  11.419   3.361   9.072
  226POPC   C1A 6435  11.063   3.564   8.764
  226POPC   D2A 6436  11.199   3.770   8.464
  226POPC   C3A 6437  11.089   3.610   8.095
  226POPC   C4A 6438  11.246   3.640   7.721
  226POPC   C1B 6439  11.606   3.578   8.719
  226POPC   C2B 6440  11.643   3.576   8.261
  226POPC   C3B 6441  11.729   3.686   7.831
  226POPC   C4B 6442  11.685   3.499   7.397
  227POPC   NC3 6443   4.800  10.235   9.555
  227POPC   PO4 6444   4.885  10.887   9.487
  227POPC   GL1 6445   4.928  10.578   9.183
  227POPC   GL2 6446   4.829  10.236   9.053
  227POPC   C1A 6447   5.099  10.583   8.793
  227POPC   D2A 6448   4.920  10.426   8.455
  227POPC   C3A 6449   5.033  10.653   8.131
  227POPC   C4A 6450   5.109  10.413   7.817
  227POPC   C1B 6451   4.563  10.144   8.712
  227POPC   C2B 6452   4.581  10.047   8.290
  227POPC   C3B 6453   4.616  10.368   8.015
  227POPC   C4B 6454   4.670  10.746   7.773
  228POPC   NC3 6455  13.619   5.644   9.561
  228POPC   PO4 6456  13.162   6.126   9.473
  228POPC   GL1 6457  13.435   5.907   9.152
  228POPC   GL2 6458  13.760   5.659   9.095
  228POPC   C1A 6459  13.367   5.680   8.771
  228POPC   D2A 6460  13.572   5.503   8.432
  228POPC   C3A 6461  13.432   5.772   8.136
  228POPC   C4A 6462  13.331   5.786   7.725
  228POPC   C1B 6463  13.828   5.978   8.826
  228POPC   C2B 6464  13.777   6.035   8.422
  228POPC   C3B 6465  13.943   5.896   8.039
  228POPC   C4B 6466  13.807   5.607   7.756
  229POPC   NC3 6467  22.445  20.857   9.710
  229POPC   PO4 6468  22.109  20.380   9.392
  229POPC   GL1 6469  22.170  20.648   9.136
  229POPC   GL2 6470  22.479  20.750   9.195
  229POPC   C1A 6471  21.928  20.679   8.758
  229POPC   D2A 6472  21.794  20.548   8.371
  229POPC   C3A 6473  21.875  20.741   8.002
  229POPC   C4A 6474  21.984  20.709   7.591
  229POPC   C1B 6475  22.435  20.637   8.722
  229POPC   C2B 6476  22.277  20.711   8.298
  229POPC   C3B 6477  22.371  20.517   7.868
  229POPC   C4B 6478  22.530  20.610   7.419
  230POPC   NC3 6479  36.702   8.981   9.402
  230POPC   PO4 6480  37.215   9.434   9.155
  230POPC   GL1 6481  36.931   9.160   8.974
  230POPC   GL2 6482  37.058   8.845   9.074
  230POPC   C1A 6483  36.700   8.863   8.705
  230POPC   D2A 6484  36.682   8.595   8.331
  230POPC   C3A 6485  36.595   8.841   7.974
  230POPC   C4A 6486  36.943   9.069   7.806
  230POPC   C1B 6487  37.275   8.744   8.730
  230POPC   C2B 6488  37.492   8.611   8.395
  230POPC   C3B 6489  37.265   8.707   8.037
  230POPC   C4B 6490  37.445   8.924   7.691
  231POPC   NC3 6491  26.508   7.321   9.317
  231POPC   PO4 6492  27.142   7.526   9.546
  231POPC   GL1 6493  26.970   7.568   9.192
  231POPC   GL2 6494  26.800   7.845   9.215
  231POPC   C1A 6495  26.990   7.562   8.795
  231POPC   D2A 6496  26.721   7.419   8.466
  231POPC   C3A 6497  26.845   7.494   8.038
  231POPC   C4A 6498  27.056   7.400   7.633
  231POPC   C1B 6499  26.526   7.778   8.841
  231POPC   C2B 6500  26.451   7.844   8.407
  231POPC   C3B 6501  26.353   7.733   7.971
  231POPC   C4B 6502  26.577   7.589   7.579
  232POPC   NC3 6503   0.224  23.670   9.591
  232POPC   PO4 6504   0.827  23.826   9.522
  232POPC   GL1 6505   0.571  23.782   9.153
  232POPC   GL2 6506   0.348  23.438   9.153
  232POPC   C1A 6507   0.620  24.034   8.743
  232POPC   D2A 6508   0.527  23.923   8.302
  232POPC   C3A 6509   0.423  23.972   7.872
  232POPC   C4A 6510   0.043  23.768   7.723
  232POPC   C1B 6511   0.408  23.536   8.734
  232POPC   C2B 6512   0.609  23.421   8.391
  232POPC   C3B 6513   0.454  23.451   8.012
  232POPC   C4B 6514   0.640  23.170   7.737
  233POPC   NC3 6515   6.647   0.003   9.368
  233POPC   PO4 6516   6.215   0.530   9.458
  233POPC   GL1 6517   6.393   0.495   9.069
  233POPC   GL2 6518   6.748   0.482   9.095
  233POPC   C1A 6519   6.474   0.463   8.643
  233POPC   D2A 6520   6.471   0.734   8.303
  233POPC   C3A 6521   6.545   0.465   7.977
  233POPC   C4A 6522   6.491   0.225   7.593
  233POPC   C1B 6523   6.969   0.291   8.745
  233POPC   C2B 6524   6.920   0.269   8.305
  233POPC   C3B 6525   6.882   0.062   7.924
  233POPC   C4B 6526   6.917  44.977   7.464
  234POPC   NC3 6527  31.725  29.589   9.443
  234POPC   PO4 6528  31.306  30.088   9.487
  234POPC   GL1 6529  31.427  29.896   9.125
  234POPC   GL2 6530  31.743  30.049   9.175
  234POPC   C1A 6531  31.274  29.824   8.686
  234POPC   D2A 6532  31.515  29.615   8.359
  234POPC   C3A 6533  31.570  29.732   7.962
  234POPC   C4A 6534  31.219  29.912   7.856
  234POPC   C1B 6535  31.766  29.886   8.758
  234POPC   C2B 6536  31.775  30.049   8.334
  234POPC   C3B 6537  31.740  30.192   7.915
  234POPC   C4B 6538  31.568  30.070   7.504
  235POPC   NC3 6539   2.030  26.256   9.490
  235POPC   PO4 6540   2.055  26.873   9.588
  235POPC   GL1 6541   1.981  26.698   9.210
  235POPC   GL2 6542   1.676  26.489   9.195
  235POPC   C1A 6543   2.058  26.637   8.802
  235POPC   D2A 6544   1.987  26.383   8.451
  235POPC   C3A 6545   2.086  26.568   8.043
  235POPC   C4A 6546   1.933  26.909   7.760
  235POPC   C1B 6547   1.549  26.665   8.797
  235POPC   C2B 6548   1.771  26.896   8.460
  235POPC   C3B 6549   1.602  26.739   8.086
  235POPC   C4B 6550   1.407  26.777   7.680
  236POPC   NC3 6551  38.755  40.156   9.650
  236POPC   PO4 6552  38.410  39.687   9.473
  236POPC   GL1 6553  38.201  39.798   9.090
  236POPC   GL2 6554  38.215  40.173   9.151
  236POPC   C1A 6555  38.419  39.667   8.698
  236POPC   D2A 6556  38.744  39.891   8.431
  236POPC   C3A 6557  38.593  39.975   8.015
  236POPC   C4A 6558  38.577  39.691   7.672
  236POPC   C1B 6559  38.313  40.192   8.697
  236POPC   C2B 6560  38.147  40.312   8.272
  236POPC   C3B 6561  38.199  40.286   7.833
  236POPC   C4B 6562  38.318  40.253   7.387
  237POPC   NC3 6563  32.696  41.362   9.494
  237POPC   PO4 6564  32.899  42.036   9.642
  237POPC   GL1 6565  32.876  41.803   9.252
  237POPC   GL2 6566  33.113  41.511   9.149
  237POPC   C1A 6567  32.753  41.687   8.838
  237POPC   D2A 6568  32.915  41.499   8.471
  237POPC   C3A 6569  32.855  41.770   8.124
  237POPC   C4A 6570  32.717  41.724   7.701
  237POPC   C1B 6571  33.369  41.501   8.758
  237POPC   C2B 6572  33.412  41.386   8.298
  237POPC   C3B 6573  33.152  41.421   7.921
  237POPC   C4B 6574  33.225  41.643   7.557
  238POPC   NC3 6575  40.290  35.912   9.565
  238POPC   PO4 6576  39.833  36.392   9.634
  238POPC   GL1 6577  39.912  36.182   9.243
  238POPC   GL2 6578  40.210  36.270   9.191
  238POPC   C1A 6579  39.886  35.924   8.864
  238POPC   D2A 6580  40.007  35.783   8.438
  238POPC   C3A 6581  39.842  35.837   7.992
  238POPC   C4A 6582  40.018  35.746   7.551
  238POPC   C1B 6583  40.123  36.443   8.801
  238POPC   C2B 6584  40.074  36.278   8.407
  238POPC   C3B 6585  40.035  36.433   8.035
  238POPC   C4B 6586  39.995  36.238   7.677
  239POPC   NC3 6587  25.385  29.011   9.433
  239POPC   PO4 6588  25.144  29.635   9.468
  239POPC   GL1 6589  25.069  29.338   9.142
  239POPC   GL2 6590  24.898  29.012   9.181
  239POPC   C1A 6591  25.234  29.253   8.740
  239POPC   D2A 6592  25.390  29.390   8.354
  239POPC   C3A 6593  25.250  29.203   7.991
  239POPC   C4A 6594  25.106  29.452   7.626
  239POPC   C1B 6595  25.046  28.768   8.805
  239POPC   C2B 6596  25.295  28.791   8.418
  239POPC   C3B 6597  25.119  28.716   8.005
  239POPC   C4B 6598  24.971  28.960   7.639
  240POPC   NC3 6599  10.078  22.743   9.507
  240POPC   PO4 6600   9.429  23.006   9.372
  240POPC   GL1 6601   9.725  22.903   9.116
  240POPC   GL2 6602   9.827  23.257   9.079
  240POPC   C1A 6603   9.541  22.771   8.721
  240POPC   D2A 6604   9.367  22.936   8.349
  240POPC   C3A 6605   9.484  22.697   7.986
  240POPC   C4A 6606   9.555  22.651   7.555
  240POPC   C1B 6607   9.904  23.127   8.678
  240POPC   C2B 6608   9.886  22.938   8.274
  240POPC   C3B 6609   9.781  23.125   7.878
  240POPC   C4B 6610  10.028  23.262   7.543
  241POPC   NC3 6611  33.194  22.550   9.469
  241POPC   PO4 6612  33.162  21.825   9.528
  241POPC   GL1 6613  33.154  22.029   9.169
  241POPC   GL2 6614  32.949  22.240   9.128
  241POPC   C1A 6615  33.362  22.149   8.779
  241POPC   D2A 6616  33.123  22.293   8.431
  241POPC   C3A 6617  33.040  22.073   8.071
  241POPC   C4A 6618  33.261  22.108   7.688
  241POPC   C1B 6619  32.690  22.195   8.812
  241POPC   C2B 6620  32.598  22.288   8.417
  241POPC   C3B 6621  32.753  22.539   8.116
  241POPC   C4B 6622  32.826  22.381   7.727
  242POPC   NC3 6623   0.030  12.870   9.579
  242POPC   PO4 6624   0.570  13.056   9.334
  242POPC   GL1 6625   0.195  13.011   9.111
  242POPC   GL2 6626   0.179  12.685   9.090
  242POPC   C1A 6627   0.173  13.033   8.670
  242POPC   D2A 6628   0.404  13.182   8.321
  242POPC   C3A 6629   0.257  13.003   7.949
  242POPC   C4A 6630   0.516  12.854   7.621
  242POPC   C1B 6631   0.023  12.559   8.706
  242POPC   C2B 6632   0.171  12.624   8.318
  242POPC   C3B 6633   0.099  12.503   7.925
  242POPC   C4B 6634   0.049  12.708   7.553
  243POPC   NC3 6635   4.656   9.513   9.553
  243POPC   PO4 6636   5.139   9.923   9.561
  243POPC   GL1 6637   5.176   9.763   9.168
  243POPC   GL2 6638   4.828   9.730   9.123
  243POPC   C1A 6639   5.348   9.723   8.755
  243POPC   D2A 6640   5.189   9.967   8.419
  243POPC   C3A 6641   5.306   9.964   8.014
  243POPC   C4A 6642   4.895   9.949   7.875
  243POPC   C1B 6643   4.948   9.415   8.863
  243POPC   C2B 6644   5.032   9.430   8.454
  243POPC   C3B 6645   4.935   9.470   8.062
  243POPC   C4B 6646   4.737   9.474   7.692
  244POPC   NC3 6647   7.688   1.417   9.781
  244POPC   PO4 6648   8.150   0.942   9.541
  244POPC   GL1 6649   8.285   1.063   9.113
  244POPC   GL2 6650   8.416   1.442   9.120
  244POPC   C1A 6651   8.185   0.953   8.687
  244POPC   D2A 6652   8.342   1.105   8.288
  244POPC   C3A 6653   8.124   1.022   7.904
  244POPC   C4A 6654   8.000   1.021   7.472
  244POPC   C1B 6655   8.454   1.739   8.765
  244POPC   C2B 6656   8.550   1.575   8.334
  244POPC   C3B 6657   8.424   1.453   7.900
  244POPC   C4B 6658   8.320   1.444   7.460
  245POPC   NC3 6659  31.504  34.495   9.566
  245POPC   PO4 6660  31.834  34.920   9.202
  245POPC   GL1 6661  31.626  34.461   9.077
  245POPC   GL2 6662  31.345  34.210   9.172
  245POPC   C1A 6663  31.407  34.357   8.703
  245POPC   D2A 6664  31.148  34.603   8.487
  245POPC   C3A 6665  31.394  34.571   8.136
  245POPC   C4A 6666  31.569  34.750   7.772
  245POPC   C1B 6667  30.998  34.123   8.875
  245POPC   C2B 6668  30.851  34.190   8.480
  245POPC   C3B 6669  30.898  34.341   8.104
  245POPC   C4B 6670  31.101  34.453   7.744
  246POPC   NC3 6671  43.267  25.353   9.763
  246POPC   PO4 6672  42.947  25.527   9.192
  246POPC   GL1 6673  43.004  25.295   8.862
  246POPC   GL2 6674  43.021  24.947   9.049
  246POPC   C1A 6675  42.997  25.575   8.535
  246POPC   D2A 6676  42.787  25.587   8.192
  246POPC   C3A 6677  42.961  25.385   7.876
  246POPC   C4A 6678  43.388  25.379   7.899
  246POPC   C1B 6679  43.153  24.872   8.638
  246POPC   C2B 6680  43.145  25.139   8.310
  246POPC   C3B 6681  43.169  24.907   7.964
  246POPC   C4B 6682  43.060  24.984   7.563
  247POPC   NC3 6683  18.615  43.312   9.354
  247POPC   PO4 6684  18.022  43.273   9.621
  247POPC   GL1 6685  18.149  43.146   9.216
  247POPC   GL2 6686  18.237  42.808   9.228
  247POPC   C1A 6687  18.130  43.063   8.770
  247POPC   D2A 6688  18.363  43.106   8.404
  247POPC   C3A 6689  18.129  43.091   8.061
  247POPC   C4A 6690  18.071  42.801   7.745
  247POPC   C1B 6691  18.443  42.674   8.832
  247POPC   C2B 6692  18.614  42.662   8.434
  247POPC   C3B 6693  18.461  42.673   8.043
  247POPC   C4B 6694  18.386  42.440   7.688
  248POPC   NC3 6695  43.662  33.093   9.557
  248POPC   PO4 6696  44.310  32.959   9.362
  248POPC   GL1 6697  43.910  32.965   9.120
  248POPC   GL2 6698  43.666  33.253   9.077
  248POPC   C1A 6699  43.740  32.904   8.703
  248POPC   D2A 6700  43.846  33.203   8.386
  248POPC   C3A 6701  43.824  33.128   7.943
  248POPC   C4A 6702  44.144  33.240   7.646
  248POPC   C1B 6703  43.394  33.287   8.714
  248POPC   C2B 6704  43.410  33.443   8.289
  248POPC   C3B 6705  43.382  33.368   7.853
  248POPC   C4B 6706  43.664  33.390   7.523
  249POPC   NC3 6707  41.639  32.522   9.635
  249POPC   PO4 6708  41.610  33.163   9.489
  249POPC   GL1 6709  41.549  32.791   9.176
  249POPC   GL2 6710  41.815  32.531   9.140
  249POPC   C1A 6711  41.397  32.741   8.725
  249POPC   D2A 6712  41.616  32.965   8.375
  249POPC   C3A 6713  41.458  32.899   7.985
  249POPC   C4A 6714  41.490  33.156   7.638
  249POPC   C1B 6715  41.909  32.794   8.763
  249POPC   C2B 6716  42.119  32.819   8.353
  249POPC   C3B 6717  41.964  32.902   7.930
  249POPC   C4B 6718  41.877  32.812   7.492
  250POPC   NC3 6719  25.504  22.363   9.542
  250POPC   PO4 6720  24.954  21.975   9.531
  250POPC   GL1 6721  25.110  22.227   9.217
  250POPC   GL2 6722  25.407  22.024   9.162
  250POPC   C1A 6723  24.997  22.231   8.785
  250POPC   D2A 6724  25.095  22.096   8.380
  250POPC   C3A 6725  25.026  22.323   8.070
  250POPC   C4A 6726  24.942  22.438   7.695
  250POPC   C1B 6727  25.458  21.985   8.726
  250POPC   C2B 6728  25.528  21.852   8.278
  250POPC   C3B 6729  25.472  22.110   7.897
  250POPC   C4B 6730  25.437  22.586   7.878
  251POPC   NC3 6731  19.174  10.476   9.609
  251POPC   PO4 6732  18.573  10.346   9.769
  251POPC   GL1 6733  18.749  10.315   9.327
  251POPC   GL2 6734  18.894  10.657   9.220
  251POPC   C1A 6735  18.881  10.231   8.888
  251POPC   D2A 6736  19.202  10.264   8.568
  251POPC   C3A 6737  19.004  10.169   8.191
  251POPC   C4A 6738  18.989  10.403   7.833
  251POPC   C1B 6739  19.061  10.712   8.804
  251POPC   C2B 6740  18.944  10.755   8.362
  251POPC   C3B 6741  19.182  10.845   7.999
  251POPC   C4B 6742  19.224  10.759   7.576
  252POPC   NC3 6743  37.483  25.463   9.681
  252POPC   PO4 6744  37.864  25.942   9.603
  252POPC   GL1 6745  37.617  25.980   9.221
  252POPC   GL2 6746  37.317  25.783   9.288
  252POPC   C1A 6747  37.637  26.142   8.781
  252POPC   D2A 6748  37.941  26.037   8.450
  252POPC   C3A 6749  37.815  26.078   8.022
  252POPC   C4A 6750  37.620  26.084   7.586
  252POPC   C1B 6751  37.380  25.701   8.833
  252POPC   C2B 6752  37.494  25.791   8.393
  252POPC   C3B 6753  37.433  25.759   7.934
  252POPC   C4B 6754  37.574  25.568   7.485
  253POPC   NC3 6755   4.233   0.032   9.450
  253POPC   PO4 6756   4.021  44.406   9.493
  253POPC   GL1 6757   4.094  44.386   9.060
  253POPC   GL2 6758   4.283  44.675   9.062
  253POPC   C1A 6759   4.172  44.475   8.605
  253POPC   D2A 6760   4.432  44.359   8.251
  253POPC   C3A 6761   4.227  44.552   7.904
  253POPC   C4A 6762   4.099  44.843   7.611
  253POPC   C1B 6763   4.440  44.929   8.727
  253POPC   C2B 6764   4.548  44.843   8.300
  253POPC   C3B 6765   4.533  44.982   7.875
  253POPC   C4B 6766   4.505   0.180   7.474
  254POPC   NC3 6767  19.626   8.055   9.464
  254POPC   PO4 6768  18.936   8.139   9.468
  254POPC   GL1 6769  19.206   8.188   9.137
  254POPC   GL2 6770  19.327   7.886   9.057
  254POPC   C1A 6771  19.094   8.144   8.693
  254POPC   D2A 6772  18.822   8.176   8.383
  254POPC   C3A 6773  19.071   8.245   8.044
  254POPC   C4A 6774  18.912   8.348   7.661
  254POPC   C1B 6775  19.428   7.749   8.684
  254POPC   C2B 6776  19.444   7.960   8.300
  254POPC   C3B 6777  19.227   7.745   7.981
  254POPC   C4B 6778  19.083   7.589   7.594
  255POPC   NC3 6779   1.518  42.496   9.596
  255POPC   PO4 6780   0.974  42.050   9.608
  255POPC   GL1 6781   1.034  42.231   9.152
  255POPC   GL2 6782   1.286  42.442   9.149
  255POPC   C1A 6783   1.146  42.230   8.693
  255POPC   D2A 6784   1.257  42.375   8.317
  255POPC   C3A 6785   1.126  42.119   7.986
  255POPC   C4A 6786   0.874  42.153   7.605
  255POPC   C1B 6787   1.545  42.105   8.975
  255POPC   C2B 6788   1.617  42.061   8.515
  255POPC   C3B 6789   1.642  42.111   8.075
  255POPC   C4B 6790   1.458  42.461   7.833
  256POPC   NC3 6791  26.372  36.529   9.380
  256POPC   PO4 6792  26.027  36.993   9.781
  256POPC   GL1 6793  25.965  36.820   9.284
  256POPC   GL2 6794  25.813  36.482   9.157
  256POPC   C1A 6795  25.905  36.839   8.802
  256POPC   D2A 6796  25.857  37.067   8.405
  256POPC   C3A 6797  25.895  36.847   8.009
  256POPC   C4A 6798  25.945  36.999   7.584
  256POPC   C1B 6799  26.125  36.362   8.800
  256POPC   C2B 6800  26.101  36.505   8.386
  256POPC   C3B 6801  26.332  36.557   8.002
  256POPC   C4B 6802  26.145  36.542   7.636
  257POPC   NC3 6803  21.744  38.646   9.356
  257POPC   PO4 6804  21.467  39.160   9.740
  257POPC   GL1 6805  21.423  39.042   9.283
  257POPC   GL2 6806  21.363  39.357   9.154
  257POPC   C1A 6807  21.516  39.045   8.794
  257POPC   D2A 6808  21.507  39.327   8.423
  257POPC   C3A 6809  21.602  39.190   8.016
  257POPC   C4A 6810  21.559  39.036   7.590
  257POPC   C1B 6811  21.116  39.388   8.785
  257POPC   C2B 6812  20.966  39.237   8.417
  257POPC   C3B 6813  21.121  39.056   8.077
  257POPC   C4B 6814  21.084  39.184   7.691
  258POPC   NC3 6815  44.444  27.756   9.266
  258POPC   PO4 6816  43.831  27.620   9.501
  258POPC   GL1 6817  43.692  27.492   9.105
  258POPC   GL2 6818  44.045  27.514   9.017
  258POPC   C1A 6819  43.640  27.658   8.725
  258POPC   D2A 6820  43.920  27.538   8.432
  258POPC   C3A 6821  43.779  27.676   8.060
  258POPC   C4A 6822  43.785  27.588   7.636
  258POPC   C1B 6823  44.331  27.310   8.724
  258POPC   C2B 6824  44.400  27.398   8.307
  258POPC   C3B 6825  44.177  27.379   7.930
  258POPC   C4B 6826  44.248  27.451   7.491
  259POPC   NC3 6827  36.159  21.608   9.558
  259POPC   PO4 6828  35.772  21.055   9.628
  259POPC   GL1 6829  35.897  21.158   9.203
  259POPC   GL2 6830  35.916  21.538   9.120
  259POPC   C1A 6831  35.786  21.212   8.764
  259POPC   D2A 6832  35.972  21.485   8.473
  259POPC   C3A 6833  35.965  21.292   8.101
  259POPC   C4A 6834  35.880  21.491   7.749
  259POPC   C1B 6835  36.283  21.391   8.865
  259POPC   C2B 6836  36.480  21.532   8.442
  259POPC   C3B 6837  36.454  21.409   7.996
  259POPC   C4B 6838  36.391  21.545   7.576
  260POPC   NC3 6839  27.411   8.680   9.649
  260POPC   PO4 6840  27.827   9.019   9.291
  260POPC   GL1 6841  27.603   8.805   9.087
  260POPC   GL2 6842  27.322   8.989   9.096
  260POPC   C1A 6843  27.841   8.703   8.719
  260POPC   D2A 6844  27.823   8.831   8.346
  260POPC   C3A 6845  27.389   8.677   8.224
  260POPC   C4A 6846  27.293   8.622   7.769
  260POPC   C1B 6847  27.401   9.000   8.655
  260POPC   C2B 6848  27.457   9.183   8.265
  260POPC   C3B 6849  27.632   8.969   7.894
  260POPC   C4B 6850  27.901   8.844   7.630
  261POPC   NC3 6851  35.988   7.534   9.437
  261POPC   PO4 6852  36.448   7.064   9.441
  261POPC   GL1 6853  36.287   7.311   9.100
  261POPC   GL2 6854  35.957   7.153   9.083
  261POPC   C1A 6855  36.180   7.593   8.741
  261POPC   D2A 6856  36.428   7.622   8.355
  261POPC   C3A 6857  36.310   7.574   7.923
  261POPC   C4A 6858  35.947   7.618   7.677
  261POPC   C1B 6859  36.107   7.092   8.673
  261POPC   C2B 6860  36.005   7.332   8.325
  261POPC   C3B 6861  35.969   7.192   7.938
  261POPC   C4B 6862  36.056   7.150   7.503
  262POPC   NC3 6863  29.294  35.969   9.443
  262POPC   PO4 6864  28.850  36.425   9.734
  262POPC   GL1 6865  29.039  36.359   9.273
  262POPC   GL2 6866  28.921  36.042   9.101
  262POPC   C1A 6867  29.276  36.335   8.837
  262POPC   D2A 6868  29.127  36.415   8.397
  262POPC   C3A 6869  29.257  36.328   7.983
  262POPC   C4A 6870  29.202  36.194   7.568
  262POPC   C1B 6871  28.828  36.121   8.675
  262POPC   C2B 6872  28.882  35.895   8.332
  262POPC   C3B 6873  28.937  35.940   7.932
  262POPC   C4B 6874  28.707  36.015   7.591
  263POPC   NC3 6875  13.758  42.885   9.597
  263POPC   PO4 6876  14.060  43.464   9.383
  263POPC   GL1 6877  13.794  43.164   9.193
  263POPC   GL2 6878  13.446  43.137   9.259
  263POPC   C1A 6879  13.796  42.956   8.815
  263POPC   D2A 6880  13.627  42.927   8.414
  263POPC   C3A 6881  13.866  43.104   8.092
  263POPC   C4A 6882  13.624  42.983   7.750
  263POPC   C1B 6883  13.311  43.114   8.816
  263POPC   C2B 6884  13.358  43.380   8.463
  263POPC   C3B 6885  13.421  43.373   8.043
  263POPC   C4B 6886  13.279  43.440   7.633
  264POPC   NC3 6887  35.983  10.180   9.315
  264POPC   PO4 6888  36.336   9.647   9.580
  264POPC   GL1 6889  36.188   9.737   9.162
  264POPC   GL2 6890  35.810   9.706   9.126
  264POPC   C1A 6891  36.285   9.915   8.746
  264POPC   D2A 6892  36.299   9.678   8.347
  264POPC   C3A 6893  36.334   9.874   7.970
  264POPC   C4A 6894  36.347   9.764   7.522
  264POPC   C1B 6895  35.721   9.859   8.701
  264POPC   C2B 6896  35.931  10.039   8.369
  264POPC   C3B 6897  35.846  10.058   7.955
  264POPC   C4B 6898  35.825   9.653   7.739
  265POPC   NC3 6899  26.369  38.776   9.539
  265POPC   PO4 6900  26.759  39.338   9.416
  265POPC   GL1 6901  26.737  39.202   9.029
  265POPC   GL2 6902  26.595  38.897   9.093
  265POPC   C1A 6903  26.902  39.250   8.608
  265POPC   D2A 6904  26.922  39.495   8.241
  265POPC   C3A 6905  26.899  39.268   7.836
  265POPC   C4A 6906  26.790  39.452   7.411
  265POPC   C1B 6907  26.870  38.758   8.755
  265POPC   C2B 6908  26.747  38.643   8.336
  265POPC   C3B 6909  26.913  38.746   7.938
  265POPC   C4B 6910  26.747  38.830   7.553
  266POPC   NC3 6911   0.403  14.663   9.539
  266POPC   PO4 6912   0.728  14.040   9.416
  266POPC   GL1 6913   0.517  14.335   9.151
  266POPC   GL2 6914   0.277  14.563   9.063
  266POPC   C1A 6915   0.656  14.437   8.719
  266POPC   D2A 6916   0.725  14.186   8.329
  266POPC   C3A 6917   0.625  14.322   7.916
  266POPC   C4A 6918   0.385  14.140   7.570
  266POPC   C1B 6919   0.184  14.239   8.772
  266POPC   C2B 6920   0.253  14.359   8.346
  266POPC   C3B 6921   0.068  14.360   7.952
  266POPC   C4B 6922   0.296  14.656   7.694
  267POPC   NC3 6923  23.505  18.983   9.689
  267POPC   PO4 6924  22.803  19.082   9.598
  267POPC   GL1 6925  23.052  19.143   9.227
  267POPC   GL2 6926  23.138  18.842   9.012
  267POPC   C1A 6927  23.101  19.293   8.787
  267POPC   D2A 6928  23.200  19.106   8.379
  267POPC   C3A 6929  23.128  19.264   7.956
  267POPC   C4A 6930  23.156  19.271   7.506
  267POPC   C1B 6931  22.712  18.953   8.852
  267POPC   C2B 6932  22.649  19.235   8.512
  267POPC   C3B 6933  22.618  19.287   8.092
  267POPC   C4B 6934  22.699  19.114   7.714
  268POPC   NC3 6935   6.219   3.360   9.415
  268POPC   PO4 6936   5.716   3.780   9.532
  268POPC   GL1 6937   5.898   3.690   9.146
  268POPC   GL2 6938   5.742   3.373   9.121
  268POPC   C1A 6939   6.057   3.583   8.743
  268POPC   D2A 6940   6.228   3.767   8.393
  268POPC   C3A 6941   6.227   3.515   8.051
  268POPC   C4A 6942   5.975   3.576   7.711
  268POPC   C1B 6943   5.550   3.616   8.759
  268POPC   C2B 6944   5.661   3.728   8.357
  268POPC   C3B 6945   5.584   3.482   7.998
  268POPC   C4B 6946   5.560   3.331   7.594
  269POPC   NC3 6947  24.626  37.674   9.630
  269POPC   PO4 6948  24.179  37.379   9.265
  269POPC   GL1 6949  24.584  37.562   9.145
  269POPC   GL2 6950  24.659  37.935   9.198
  269POPC   C1A 6951  24.776  37.587   8.790
  269POPC   D2A 6952  24.548  37.570   8.436
  269POPC   C3A 6953  24.819  37.404   8.153
  269POPC   C4A 6954  24.661  37.522   7.768
  269POPC   C1B 6955  24.414  37.980   8.840
  269POPC   C2B 6956  24.319  38.118   8.438
  269POPC   C3B 6957  24.397  37.927   8.070
  269POPC   C4B 6958  24.498  38.100   7.712
  270POPC   NC3 6959   6.654  41.904   9.491
  270POPC   PO4 6960   6.606  42.642   9.441
  270POPC   GL1 6961   6.803  42.454   9.119
  270POPC   GL2 6962   7.013  42.237   9.318
  270POPC   C1A 6963   6.702  42.361   8.687
  270POPC   D2A 6964   6.425  42.137   8.410
  270POPC   C3A 6965   6.448  42.315   8.013
  270POPC   C4A 6966   6.729  42.599   7.789
  270POPC   C1B 6967   7.093  42.083   8.917
  270POPC   C2B 6968   7.153  42.174   8.501
  270POPC   C3B 6969   6.944  42.319   8.171
  270POPC   C4B 6970   6.890  42.111   7.791
  271POPC   NC3 6971  39.699  20.403   9.753
  271POPC   PO4 6972  39.929  21.013   9.573
  271POPC   GL1 6973  39.948  20.774   9.192
  271POPC   GL2 6974  39.775  20.500   9.180
  271POPC   C1A 6975  40.017  20.877   8.798
  271POPC   D2A 6976  40.178  20.863   8.425
  271POPC   C3A 6977  39.917  20.908   8.120
  271POPC   C4A 6978  40.027  20.909   7.721
  271POPC   C1B 6979  40.140  20.404   8.850
  271POPC   C2B 6980  40.275  20.371   8.355
  271POPC   C3B 6981  40.137  20.433   7.886
  271POPC   C4B 6982  40.211  20.254   7.403
  272POPC   NC3 6983  12.321  32.252   9.415
  272POPC   PO4 6984  11.688  32.352   9.675
  272POPC   GL1 6985  11.804  32.141   9.235
  272POPC   GL2 6986  11.888  31.798   9.148
  272POPC   C1A 6987  11.985  32.187   8.800
  272POPC   D2A 6988  12.291  32.462   8.623
  272POPC   C3A 6989  12.212  32.606   8.191
  272POPC   C4A 6990  12.148  32.319   7.828
  272POPC   C1B 6991  12.157  31.719   8.769
  272POPC   C2B 6992  12.312  31.944   8.418
  272POPC   C3B 6993  12.234  31.838   8.024
  272POPC   C4B 6994  11.905  31.884   7.706
  273POPC   NC3 6995  35.292  12.185   9.599
  273POPC   PO4 6996  35.727  11.731   9.392
  273POPC   GL1 6997  35.419  11.984   9.152
  273POPC   GL2 6998  35.440  12.380   9.162
  273POPC   C1A 6999  35.404  12.089   8.747
  273POPC   D2A 7000  35.551  11.895   8.407
  273POPC   C3A 7001  35.434  12.048   8.033
  273POPC   C4A 7002  35.096  12.023   7.770
  273POPC   C1B 7003  35.105  12.487   8.878
  273POPC   C2B 7004  35.250  12.483   8.451
  273POPC   C3B 7005  35.118  12.456   8.056
  273POPC   C4B 7006  35.160  12.535   7.656
  274POPC   NC3 7007  30.721  12.929   9.599
  274POPC   PO4 7008  31.160  13.334   9.302
  274POPC   GL1 7009  30.922  12.939   9.114
  274POPC   GL2 7010  30.544  12.831   9.144
  274POPC   C1A 7011  30.767  12.927   8.687
  274POPC   D2A 7012  30.636  13.090   8.285
  274POPC   C3A 7013  30.927  12.941   7.978
  274POPC   C4A 7014  30.942  12.691   7.627
  274POPC   C1B 7015  30.442  12.558   8.823
  274POPC   C2B 7016  30.580  12.545   8.383
  274POPC   C3B 7017  30.509  12.599   7.951
  274POPC   C4B 7018  30.120  12.590   7.727
  275POPC   NC3 7019  23.320   6.560   9.544
  275POPC   PO4 7020  22.589   6.464   9.525
  275POPC   GL1 7021  22.892   6.424   9.155
  275POPC   GL2 7022  23.267   6.423   9.058
  275POPC   C1A 7023  22.938   6.722   8.796
  275POPC   D2A 7024  23.124   6.707   8.402
  275POPC   C3A 7025  22.978   6.825   8.009
  275POPC   C4A 7026  23.121   6.930   7.575
  275POPC   C1B 7027  23.081   6.230   8.700
  275POPC   C2B 7028  23.209   6.235   8.270
  275POPC   C3B 7029  23.263   6.440   7.863
  275POPC   C4B 7030  23.363   6.440   7.415
  276POPC   NC3 7031   9.226  14.088   9.489
  276POPC   PO4 7032   9.021  13.397   9.422
  276POPC   GL1 7033   9.085  13.591   9.071
  276POPC   GL2 7034   9.366  13.806   9.087
  276POPC   C1A 7035   8.963  13.386   8.700
  276POPC   D2A 7036   8.614  13.453   8.438
  276POPC   C3A 7037   8.795  13.698   8.091
  276POPC   C4A 7038   9.059  13.473   7.791
  276POPC   C1B 7039   9.232  13.858   8.658
  276POPC   C2B 7040   9.112  14.124   8.315
  276POPC   C3B 7041   9.141  14.024   7.870
  276POPC   C4B 7042   9.196  13.964   7.443
  277POPC   NC3 7043  38.780  11.986   9.606
  277POPC   PO4 7044  38.035  12.093   9.535
  277POPC   GL1 7045  38.346  12.023   9.245
  277POPC   GL2 7046  38.440  12.360   9.176
  277POPC   C1A 7047  38.557  11.985   8.837
  277POPC   D2A 7048  38.404  12.087   8.432
  277POPC   C3A 7049  38.655  12.209   8.081
  277POPC   C4A 7050  38.549  11.908   7.781
  277POPC   C1B 7051  38.129  12.328   8.819
  277POPC   C2B 7052  38.007  12.413   8.394
  277POPC   C3B 7053  38.164  12.292   8.011
  277POPC   C4B 7054  38.147  12.526   7.678
  278POPC   NC3 7055   2.869  17.236   9.399
  278POPC   PO4 7056   3.108  17.893   9.507
  278POPC   GL1 7057   2.929  17.709   9.118
  278POPC   GL2 7058   2.947  17.372   8.923
  278POPC   C1A 7059   2.600  17.714   8.782
  278POPC   D2A 7060   2.651  17.514   8.377
  278POPC   C3A 7061   2.729  17.764   7.993
  278POPC   C4A 7062   3.071  17.710   7.674
  278POPC   C1B 7063   2.593  17.144   8.779
  278POPC   C2B 7064   2.429  17.017   8.405
  278POPC   C3B 7065   2.429  17.227   8.008
  278POPC   C4B 7066   2.805  17.289   7.779
  279POPC   NC3 7067  39.741  40.033   9.542
  279POPC   PO4 7068  40.269  40.551   9.432
  279POPC   GL1 7069  40.168  40.175   9.148
  279POPC   GL2 7070  40.382  39.841   9.125
  279POPC   C1A 7071  40.267  40.065   8.703
  279POPC   D2A 7072  40.313  39.849   8.383
  279POPC   C3A 7073  40.331  40.065   7.985
  279POPC   C4A 7074  40.197  40.090   7.535
  279POPC   C1B 7075  39.934  39.752   8.892
  279POPC   C2B 7076  39.850  39.569   8.440
  279POPC   C3B 7077  40.079  39.554   8.058
  279POPC   C4B 7078  39.984  39.631   7.675
  280POPC   NC3 7079  21.092  32.821   9.665
  280POPC   PO4 7080  21.583  33.279   9.545
  280POPC   GL1 7081  21.263  33.104   9.286
  280POPC   GL2 7082  21.359  32.740   9.242
  280POPC   C1A 7083  21.236  33.063   8.872
  280POPC   D2A 7084  21.512  32.999   8.545
  280POPC   C3A 7085  21.348  32.994   8.155
  280POPC   C4A 7086  21.413  33.175   7.795
  280POPC   C1B 7087  21.354  32.579   8.823
  280POPC   C2B 7088  21.272  32.535   8.394
  280POPC   C3B 7089  21.352  32.523   7.959
  280POPC   C4B 7090  21.080  32.812   7.719
  281POPC   NC3 7091   2.091   4.825   9.415
  281POPC   PO4 7092   1.702   5.422   9.538
  281POPC   GL1 7093   1.788   5.192   9.173
  281POPC   GL2 7094   2.150   5.161   9.053
  281POPC   C1A 7095   1.737   5.069   8.743
  281POPC   D2A 7096   2.064   5.123   8.433
  281POPC   C3A 7097   1.899   5.267   8.026
  281POPC   C4A 7098   1.907   5.086   7.626
  281POPC   C1B 7099   2.331   4.778   8.814
  281POPC   C2B 7100   2.249   4.647   8.401
  281POPC   C3B 7101   2.066   4.758   8.005
  281POPC   C4B 7102   2.323   4.756   7.650
  282POPC   NC3 7103  16.525  38.040   9.557
  282POPC   PO4 7104  17.017  37.523   9.472
  282POPC   GL1 7105  16.793  37.748   9.198
  282POPC   GL2 7106  16.988  37.992   9.133
  282POPC   C1A 7107  16.752  37.638   8.771
  282POPC   D2A 7108  16.467  37.579   8.428
  282POPC   C3A 7109  16.725  37.535   8.082
  282POPC   C4A 7110  16.667  37.761   7.733
  282POPC   C1B 7111  16.966  38.133   8.736
  282POPC   C2B 7112  16.995  37.871   8.365
  282POPC   C3B 7113  17.076  37.999   7.927
  282POPC   C4B 7114  17.091  37.866   7.472
  283POPC   NC3 7115  12.510   2.603   9.504
  283POPC   PO4 7116  12.064   3.202   9.501
  283POPC   GL1 7117  12.158   2.867   9.220
  283POPC   GL2 7118  12.501   2.972   9.170
  283POPC   C1A 7119  12.023   2.675   8.823
  283POPC   D2A 7120  11.901   2.570   8.393
  283POPC   C3A 7121  12.161   2.620   8.043
  283POPC   C4A 7122  12.111   2.863   7.712
  283POPC   C1B 7123  12.371   3.066   8.792
  283POPC   C2B 7124  12.230   2.963   8.430
  283POPC   C3B 7125  12.381   3.120   8.059
  283POPC   C4B 7126  12.584   3.155   7.669
  284POPC   NC3 7127  13.231  32.133   9.478
  284POPC   PO4 7128  13.824  32.524   9.473
  284POPC   GL1 7129  13.554  32.395   9.119
  284POPC   GL2 7130  13.489  32.011   9.063
  284POPC   C1A 7131  13.663  32.289   8.699
  284POPC   D2A 7132  13.545  31.903   8.498
  284POPC   C3A 7133  13.769  31.932   8.130
  284POPC   C4A 7134  13.699  32.220   7.809
  284POPC   C1B 7135  13.175  32.177   8.792
  284POPC   C2B 7136  13.199  32.479   8.513
  284POPC   C3B 7137  13.308  32.267   8.138
  284POPC   C4B 7138  13.049  32.040   7.842
  285POPC   NC3 7139  36.055  31.696   9.623
  285POPC   PO4 7140  36.234  32.461   9.558
  285POPC   GL1 7141  36.084  32.356   9.180
  285POPC   GL2 7142  36.155  32.016   9.220
  285POPC   C1A 7143  36.070  32.521   8.782
  285POPC   D2A 7144  35.860  32.296   8.469
  285POPC   C3A 7145  36.051  32.097   8.157
  285POPC   C4A 7146  36.096  32.258   7.769
  285POPC   C1B 7147  36.236  32.034   8.770
  285POPC   C2B 7148  36.421  32.296   8.454
  285POPC   C3B 7149  36.554  32.223   8.047
  285POPC   C4B 7150  36.461  31.794   7.892
  286POPC   NC3 7151   3.916  25.319   9.484
  286POPC   PO4 7152   4.432  25.036   9.633
  286POPC   GL1 7153   4.460  25.147   9.228
  286POPC   GL2 7154   4.576  24.833   9.177
  286POPC   C1A 7155   4.254  25.340   8.866
  286POPC   D2A 7156   4.115  25.612   8.546
  286POPC   C3A 7157   4.172  25.371   8.144
  286POPC   C4A 7158   4.264  25.219   7.716
  286POPC   C1B 7159   4.625  24.827   8.763
  286POPC   C2B 7160   4.375  24.945   8.422
  286POPC   C3B 7161   4.516  24.753   8.081
  286POPC   C4B 7162   4.597  24.848   7.673
  287POPC   NC3 7163  42.591   7.893   9.470
  287POPC   PO4 7164  42.096   8.457   9.465
  287POPC   GL1 7165  42.340   8.265   9.192
  287POPC   GL2 7166  42.183   7.939   9.163
  287POPC   C1A 7167  42.483   8.451   8.834
  287POPC   D2A 7168  42.725   8.355   8.524
  287POPC   C3A 7169  42.529   8.333   8.156
  287POPC   C4A 7170  42.380   8.317   7.746
  287POPC   C1B 7171  42.439   7.912   8.792
  287POPC   C2B 7172  42.246   7.977   8.399
  287POPC   C3B 7173  42.376   7.850   7.973
  287POPC   C4B 7174  42.534   7.842   7.553
  288POPC   NC3 7175  15.098  25.392   9.522
  288POPC   PO4 7176  14.465  25.278   9.472
  288POPC   GL1 7177  14.777  25.275   9.133
  288POPC   GL2 7178  15.100  25.066   9.123
  288POPC   C1A 7179  14.924  25.444   8.740
  288POPC   D2A 7180  15.101  25.189   8.427
  288POPC   C3A 7181  15.039  25.368   8.047
  288POPC   C4A 7182  14.899  25.101   7.671
  288POPC   C1B 7183  15.379  25.376   8.932
  288POPC   C2B 7184  15.425  25.549   8.563
  288POPC   C3B 7185  15.566  25.350   8.190
  288POPC   C4B 7186  15.416  25.249   7.750
  289POPC   NC3 7187  31.987   2.118   9.399
  289POPC   PO4 7188  32.575   1.828   9.469
  289POPC   GL1 7189  32.360   1.906   9.121
  289POPC   GL2 7190  32.094   1.659   9.157
  289POPC   C1A 7191  32.202   2.117   8.744
  289POPC   D2A 7192  32.334   2.209   8.326
  289POPC   C3A 7193  32.138   2.401   7.979
  289POPC   C4A 7194  32.334   2.220   7.630
  289POPC   C1B 7195  32.238   1.605   8.735
  289POPC   C2B 7196  32.409   1.708   8.365
  289POPC   C3B 7197  32.258   1.815   7.954
  289POPC   C4B 7198  32.446   1.722   7.549
  290POPC   NC3 7199   3.941   3.053   9.486
  290POPC   PO4 7200   4.433   2.609   9.516
  290POPC   GL1 7201   4.341   2.864   9.214
  290POPC   GL2 7202   4.061   2.696   9.122
  290POPC   C1A 7203   4.477   2.891   8.820
  290POPC   D2A 7204   4.536   2.651   8.445
  290POPC   C3A 7205   4.593   2.881   8.066
  290POPC   C4A 7206   4.413   2.861   7.647
  290POPC   C1B 7207   3.963   2.846   8.743
  290POPC   C2B 7208   4.011   2.664   8.351
  290POPC   C3B 7209   4.058   2.874   7.982
  290POPC   C4B 7210   3.919   2.898   7.535
  291POPC   NC3 7211  22.449  36.423   9.492
  291POPC   PO4 7212  21.725  36.523   9.509
  291POPC   GL1 7213  21.883  36.248   9.117
  291POPC   GL2 7214  22.228  36.100   9.122
  291POPC   C1A 7215  21.861  36.267   8.659
  291POPC   D2A 7216  21.844  36.011   8.305
  291POPC   C3A 7217  22.025  35.952   7.916
  291POPC   C4A 7218  22.303  36.236   7.817
  291POPC   C1B 7219  22.259  35.952   8.670
  291POPC   C2B 7220  22.464  35.982   8.282
  291POPC   C3B 7221  22.544  35.796   7.931
  291POPC   C4B 7222  22.298  35.545   7.719
  292POPC   NC3 7223  32.795  29.592   9.679
  292POPC   PO4 7224  32.125  29.794   9.612
  292POPC   GL1 7225  32.189  29.790   9.204
  292POPC   GL2 7226  32.495  29.678   9.264
  292POPC   C1A 7227  32.260  29.966   8.806
  292POPC   D2A 7228  32.303  30.169   8.393
  292POPC   C3A 7229  32.180  29.926   8.042
  292POPC   C4A 7230  32.048  29.927   7.629
  292POPC   C1B 7231  32.531  29.511   8.869
  292POPC   C2B 7232  32.492  29.689   8.468
  292POPC   C3B 7233  32.455  29.493   8.120
  292POPC   C4B 7234  32.422  29.568   7.736
  293POPC   NC3 7235  19.590  20.864   9.514
  293POPC   PO4 7236  20.088  20.442   9.509
  293POPC   GL1 7237  20.006  20.756   9.211
  293POPC   GL2 7238  19.716  20.519   9.143
  293POPC   C1A 7239  20.055  20.679   8.786
  293POPC   D2A 7240  19.814  20.514   8.489
  293POPC   C3A 7241  20.059  20.499   8.136
  293POPC   C4A 7242  19.961  20.612   7.735
  293POPC   C1B 7243  19.553  20.824   8.872
  293POPC   C2B 7244  19.561  20.942   8.462
  293POPC   C3B 7245  19.585  20.751   8.048
  293POPC   C4B 7246  19.537  20.951   7.627
  294POPC   NC3 7247  30.538  44.944   9.521
  294POPC   PO4 7248  30.434  44.271   9.752
  294POPC   GL1 7249  30.757  44.478   9.381
  294POPC   GL2 7250  30.948  44.809   9.241
  294POPC   C1A 7251  30.763  44.510   8.879
  294POPC   D2A 7252  30.528  44.652   8.487
  294POPC   C3A 7253  30.578  44.460   8.069
  294POPC   C4A 7254  30.752  44.557   7.631
  294POPC   C1B 7255  30.654   0.029   8.890
  294POPC   C2B 7256  30.639   0.151   8.436
  294POPC   C3B 7257  30.778  44.927   8.056
  294POPC   C4B 7258  30.765   0.063   7.636
  295POPC   NC3 7259  16.582   8.309   9.418
  295POPC   PO4 7260  17.065   7.847   9.307
  295POPC   GL1 7261  16.908   8.150   9.074
  295POPC   GL2 7262  16.617   8.399   8.934
  295POPC   C1A 7263  17.058   8.293   8.748
  295POPC   D2A 7264  16.784   8.431   8.425
  295POPC   C3A 7265  16.966   8.321   8.059
  295POPC   C4A 7266  16.897   8.202   7.660
  295POPC   C1B 7267  16.643   7.984   8.674
  295POPC   C2B 7268  16.546   7.845   8.288
  295POPC   C3B 7269  16.460   8.174   8.002
  295POPC   C4B 7270  16.365   8.184   7.535
  296POPC   NC3 7271  15.392  14.715   9.523
  296POPC   PO4 7272  15.377  14.044   9.505
  296POPC   GL1 7273  15.222  14.269   9.134
  296POPC   GL2 7274  15.026  14.588   9.146
  296POPC   C1A 7275  15.330  14.303   8.696
  296POPC   D2A 7276  15.020  14.335   8.372
  296POPC   C3A 7277  15.066  14.081   8.013
  296POPC   C4A 7278  15.236  14.191   7.628
  296POPC   C1B 7279  15.106  14.765   8.724
  296POPC   C2B 7280  15.429  14.737   8.395
  296POPC   C3B 7281  15.439  14.474   8.033
  296POPC   C4B 7282  15.024  14.579   7.863
  297POPC   NC3 7283  37.133  19.516   9.397
  297POPC   PO4 7284  36.719  19.065   9.716
  297POPC   GL1 7285  36.920  19.016   9.265
  297POPC   GL2 7286  37.286  18.861   9.223
  297POPC   C1A 7287  36.897  19.033   8.782
  297POPC   D2A 7288  37.040  19.177   8.357
  297POPC   C3A 7289  36.692  19.182   8.054
  297POPC   C4A 7290  36.823  19.252   7.648
  297POPC   C1B 7291  37.244  18.669   8.782
  297POPC   C2B 7292  36.953  18.689   8.381
  297POPC   C3B 7293  36.970  18.771   7.922
  297POPC   C4B 7294  36.629  18.794   7.623
  298POPC   NC3 7295  36.288  12.279   9.569
  298POPC   PO4 7296  36.455  11.705   9.707
  298POPC   GL1 7297  36.211  11.867   9.245
  298POPC   GL2 7298  36.328  12.219   9.085
  298POPC   C1A 7299  36.161  11.900   8.754
  298POPC   D2A 7300  36.454  11.974   8.397
  298POPC   C3A 7301  36.287  11.855   8.002
  298POPC   C4A 7302  36.012  11.952   7.689
  298POPC   C1B 7303  35.898  12.315   8.919
  298POPC   C2B 7304  35.769  12.353   8.474
  298POPC   C3B 7305  35.884  12.313   8.036
  298POPC   C4B 7306  35.634  12.336   7.660
  299POPC   NC3 7307  15.280  44.910   9.410
  299POPC   PO4 7308  14.922  44.421   9.608
  299POPC   GL1 7309  14.869  44.468   9.180
  299POPC   GL2 7310  15.197  44.519   9.088
  299POPC   C1A 7311  14.821  44.642   8.779
  299POPC   D2A 7312  15.004  44.648   8.388
  299POPC   C3A 7313  14.959  44.875   8.038
  299POPC   C4A 7314  15.030  44.750   7.623
  299POPC   C1B 7315  15.372  44.759   8.740
  299POPC   C2B 7316  15.390  44.970   8.319
  299POPC   C3B 7317  15.457  44.723   7.932
  299POPC   C4B 7318  15.421  44.439   7.560
  300POPC   NC3 7319  30.466  40.293   9.399
  300POPC   PO4 7320  30.898  39.782   9.412
  300POPC   GL1 7321  30.853  40.108   9.121
  300POPC   GL2 7322  30.517  39.973   8.996
  300POPC   C1A 7323  31.032  40.329   8.784
  300POPC   D2A 7324  30.991  40.058   8.432
  300POPC   C3A 7325  30.740  40.077   8.053
  300POPC   C4A 7326  30.332  39.950   7.939
  300POPC   C1B 7327  30.815  39.706   8.762
  300POPC   C2B 7328  30.834  39.573   8.341
  300POPC   C3B 7329  30.717  39.582   7.928
  300POPC   C4B 7330  30.606  39.733   7.515
  301POPC   NC3 7331   4.477  44.311   9.419
  301POPC   PO4 7332   4.369  43.596   9.505
  301POPC   GL1 7333   4.419  43.856   9.168
  301POPC   GL2 7334   4.057  43.888   9.167
  301POPC   C1A 7335   4.378  44.042   8.768
  301POPC   D2A 7336   4.121  43.975   8.392
  301POPC   C3A 7337   4.412  43.870   8.085
  301POPC   C4A 7338   4.527  44.168   7.788
  301POPC   C1B 7339   4.100  43.603   8.805
  301POPC   C2B 7340   4.204  43.476   8.355
  301POPC   C3B 7341   4.137  43.512   7.853
  301POPC   C4B 7342   4.281  43.786   7.502
  302POPC   NC3 7343  31.176   1.330   9.443
  302POPC   PO4 7344  31.777   1.728   9.573
  302POPC   GL1 7345  31.590   1.507   9.201
  302POPC   GL2 7346  31.264   1.622   9.048
  302POPC   C1A 7347  31.598   1.349   8.796
  302POPC   D2A 7348  31.453   1.471   8.401
  302POPC   C3A 7349  31.557   1.155   8.100
  302POPC   C4A 7350  31.616   1.158   7.661
  302POPC   C1B 7351  31.071   1.332   8.774
  302POPC   C2B 7352  31.173   1.062   8.456
  302POPC   C3B 7353  31.073   1.286   8.080
  302POPC   C4B 7354  31.126   1.317   7.681
  303POPC   NC3 7355  30.711   7.605   9.780
  303POPC   PO4 7356  31.073   7.173   9.390
  303POPC   GL1 7357  30.915   7.371   9.082
  303POPC   GL2 7358  30.592   7.408   9.146
  303POPC   C1A 7359  30.742   7.245   8.708
  303POPC   D2A 7360  30.797   7.524   8.389
  303POPC   C3A 7361  30.803   7.338   8.010
  303POPC   C4A 7362  30.907   7.568   7.675
  303POPC   C1B 7363  30.501   7.695   8.800
  303POPC   C2B 7364  30.332   7.750   8.379
  303POPC   C3B 7365  30.499   7.731   7.954
  303POPC   C4B 7366  30.521   7.850   7.484
  304POPC   NC3 7367  27.651   1.662   9.568
  304POPC   PO4 7368  27.831   1.027   9.472
  304POPC   GL1 7369  27.699   1.159   9.120
  304POPC   GL2 7370  27.771   1.562   9.099
  304POPC   C1A 7371  27.412   0.948   8.808
  304POPC   D2A 7372  27.213   1.067   8.409
  304POPC   C3A 7373  27.419   1.221   8.031
  304POPC   C4A 7374  27.292   1.117   7.607
  304POPC   C1B 7375  27.612   1.395   8.697
  304POPC   C2B 7376  27.837   1.339   8.334
  304POPC   C3B 7377  27.864   1.542   7.948
  304POPC   C4B 7378  27.592   1.587   7.571
  305POPC   NC3 7379  32.555   3.590   9.781
  305POPC   PO4 7380  31.976   3.520   9.489
  305POPC   GL1 7381  32.336   3.503   9.246
  305POPC   GL2 7382  32.557   3.245   9.385
  305POPC   C1A 7383  32.243   3.420   8.796
  305POPC   D2A 7384  32.209   3.234   8.389
  305POPC   C3A 7385  32.036   3.510   8.058
  305POPC   C4A 7386  32.085   3.730   7.655
  305POPC   C1B 7387  32.700   3.242   8.942
  305POPC   C2B 7388  32.692   3.475   8.516
  305POPC   C3B 7389  32.572   3.432   8.072
  305POPC   C4B 7390  32.352   3.261   7.710
  306POPC   NC3 7391  25.913  23.268   9.422
  306POPC   PO4 7392  26.189  22.745   9.437
  306POPC   GL1 7393  26.023  22.885   9.076
  306POPC   GL2 7394  26.226  23.183   9.034
  306POPC   C1A 7395  26.114  22.856   8.656
  306POPC   D2A 7396  26.119  22.636   8.319
  306POPC   C3A 7397  26.253  22.854   7.965
  306POPC   C4A 7398  26.420  23.028   7.575
  306POPC   C1B 7399  25.865  23.281   8.747
  306POPC   C2B 7400  25.962  23.234   8.313
  306POPC   C3B 7401  26.199  23.351   7.957
  306POPC   C4B 7402  25.998  23.331   7.546
  307POPC   NC3 7403  35.098  38.753   9.598
  307POPC   PO4 7404  34.452  38.396   9.533
  307POPC   GL1 7405  34.769  38.461   9.251
  307POPC   GL2 7406  34.766  38.791   9.208
  307POPC   C1A 7407  34.931  38.410   8.845
  307POPC   D2A 7408  34.737  38.391   8.441
  307POPC   C3A 7409  34.948  38.282   8.077
  307POPC   C4A 7410  34.998  38.113   7.668
  307POPC   C1B 7411  34.752  38.952   8.784
  307POPC   C2B 7412  34.752  38.916   8.347
  307POPC   C3B 7413  34.635  38.685   8.002
  307POPC   C4B 7414  34.466  38.747   7.625
  308POPC   NC3 7415  38.164  33.179   9.613
  308POPC   PO4 7416  38.628  32.772   9.920
  308POPC   GL1 7417  38.442  32.754   9.390
  308POPC   GL2 7418  38.373  33.073   9.172
  308POPC   C1A 7419  38.509  32.710   8.885
  308POPC   D2A 7420  38.539  32.980   8.514
  308POPC   C3A 7421  38.451  32.864   8.089
  308POPC   C4A 7422  38.570  33.093   7.725
  308POPC   C1B 7423  38.090  33.000   8.817
  308POPC   C2B 7424  38.063  33.197   8.406
  308POPC   C3B 7425  37.980  33.118   7.972
  308POPC   C4B 7426  38.058  32.775   7.728
  309POPC   NC3 7427   4.954  34.490   9.566
  309POPC   PO4 7428   5.546  34.231   9.536
  309POPC   GL1 7429   5.311  34.416   9.151
  309POPC   GL2 7430   5.035  34.704   9.072
  309POPC   C1A 7431   5.185  34.407   8.702
  309POPC   D2A 7432   4.883  34.372   8.344
  309POPC   C3A 7433   5.121  34.290   7.958
  309POPC   C4A 7434   5.338  34.661   7.821
  309POPC   C1B 7435   4.668  34.580   8.826
  309POPC   C2B 7436   4.392  34.647   8.486
  309POPC   C3B 7437   4.563  34.860   8.162
  309POPC   C4B 7438   4.825  34.680   7.864
  310POPC   NC3 7439  18.777  25.703   9.445
  310POPC   PO4 7440  19.110  26.226   9.664
  310POPC   GL1 7441  19.188  26.192   9.204
  310POPC   GL2 7442  19.209  25.851   9.169
  310POPC   C1A 7443  18.980  26.088   8.776
  310POPC   D2A 7444  18.803  25.874   8.408
  310POPC   C3A 7445  19.025  26.067   8.066
  310POPC   C4A 7446  19.047  26.204   7.636
  310POPC   C1B 7447  19.215  25.636   8.809
  310POPC   C2B 7448  19.300  25.778   8.433
  310POPC   C3B 7449  19.270  25.619   8.047
  310POPC   C4B 7450  19.219  25.743   7.626
  311POPC   NC3 7451  31.228  39.447   9.399
  311POPC   PO4 7452  31.691  39.011   9.646
  311POPC   GL1 7453  31.638  39.141   9.199
  311POPC   GL2 7454  31.316  39.022   9.110
  311POPC   C1A 7455  31.685  39.000   8.732
  311POPC   D2A 7456  31.820  39.132   8.307
  311POPC   C3A 7457  31.616  39.394   8.036
  311POPC   C4A 7458  31.604  39.744   7.765
  311POPC   C1B 7459  31.299  39.315   8.756
  311POPC   C2B 7460  31.208  39.214   8.292
  311POPC   C3B 7461  31.158  39.337   7.827
  311POPC   C4B 7462  31.137  39.050   7.475
  312POPC   NC3 7463  20.399   4.515   9.342
  312POPC   PO4 7464  21.014   4.359   9.528
  312POPC   GL1 7465  20.823   4.320   9.137
  312POPC   GL2 7466  20.743   4.563   8.888
  312POPC   C1A 7467  20.628   4.062   8.842
  312POPC   D2A 7468  20.796   4.011   8.442
  312POPC   C3A 7469  20.571   4.266   8.192
  312POPC   C4A 7470  20.547   4.159   7.768
  312POPC   C1B 7471  20.322   4.453   8.681
  312POPC   C2B 7472  20.099   4.529   8.301
  312POPC   C3B 7473  20.357   4.660   7.952
  312POPC   C4B 7474  20.775   4.625   7.879
  313POPC   NC3 7475  14.659  39.708   9.378
  313POPC   PO4 7476  14.039  40.144   9.526
  313POPC   GL1 7477  14.247  40.163   9.168
  313POPC   GL2 7478  14.588  40.109   9.032
  313POPC   C1A 7479  14.143  40.201   8.779
  313POPC   D2A 7480  14.404  40.133   8.488
  313POPC   C3A 7481  14.234  40.262   8.105
  313POPC   C4A 7482  14.043  40.122   7.741
  313POPC   C1B 7483  14.864  39.800   8.796
  313POPC   C2B 7484  14.827  39.676   8.403
  313POPC   C3B 7485  14.678  39.988   8.102
  313POPC   C4B 7486  14.540  39.977   7.696
  314POPC   NC3 7487   6.074   5.035   9.553
  314POPC   PO4 7488   5.588   5.415   9.273
  314POPC   GL1 7489   5.917   5.204   9.063
  314POPC   GL2 7490   5.957   4.854   9.106
  314POPC   C1A 7491   5.941   5.104   8.638
  314POPC   D2A 7492   6.036   5.307   8.276
  314POPC   C3A 7493   5.927   5.103   7.896
  314POPC   C4A 7494   5.905   5.262   7.471
  314POPC   C1B 7495   6.178   4.667   8.781
  314POPC   C2B 7496   6.066   4.694   8.338
  314POPC   C3B 7497   6.362   4.619   8.001
  314POPC   C4B 7498   6.336   4.884   7.660
  315POPC   NC3 7499  30.346   8.532   9.696
  315POPC   PO4 7500  29.707   8.222   9.483
  315POPC   GL1 7501  29.868   8.082   9.072
  315POPC   GL2 7502  30.243   8.022   9.124
  315POPC   C1A 7503  29.704   8.055   8.631
  315POPC   D2A 7504  29.859   7.939   8.196
  315POPC   C3A 7505  29.598   8.058   7.792
  315POPC   C4A 7506  29.804   8.327   7.430
  315POPC   C1B 7507  30.210   8.161   8.683
  315POPC   C2B 7508  30.004   8.447   8.392
  315POPC   C3B 7509  29.940   8.393   7.948
  315POPC   C4B 7510  30.268   8.316   7.644
  316POPC   NC3 7511  11.354   9.834   9.622
  316POPC   PO4 7512  10.672   9.809   9.665
  316POPC   GL1 7513  10.969   9.675   9.347
  316POPC   GL2 7514  11.029  10.009   9.246
  316POPC   C1A 7515  11.318   9.660   8.988
  316POPC   D2A 7516  11.406   9.783   8.539
  316POPC   C3A 7517  11.355   9.623   8.112
  316POPC   C4A 7518  11.051   9.615   7.772
  316POPC   C1B 7519  10.854   9.816   8.870
  316POPC   C2B 7520  10.791   9.815   8.445
  316POPC   C3B 7521  11.003  10.002   8.127
  316POPC   C4B 7522  11.247  10.085   7.774
  317POPC   NC3 7523   2.388  32.507   9.543
  317POPC   PO4 7524   1.899  32.095   9.559
  317POPC   GL1 7525   2.064  31.936   9.195
  317POPC   GL2 7526   2.353  32.113   9.234
  317POPC   C1A 7527   1.863  32.126   8.850
  317POPC   D2A 7528   1.624  32.277   8.491
  317POPC   C3A 7529   1.817  32.126   8.114
  317POPC   C4A 7530   1.707  32.286   7.713
  317POPC   C1B 7531   2.333  32.411   8.875
  317POPC   C2B 7532   2.140  32.325   8.481
  317POPC   C3B 7533   2.240  32.387   8.063
  317POPC   C4B 7534   2.209  32.344   7.658
  318POPC   NC3 7535  37.450  13.275   9.363
  318POPC   PO4 7536  37.847  13.647   9.740
  318POPC   GL1 7537  37.827  13.536   9.194
  318POPC   GL2 7538  37.679  13.315   8.922
  318POPC   C1A 7539  37.719  13.823   8.803
  318POPC   D2A 7540  37.725  13.719   8.373
  318POPC   C3A 7541  37.460  13.883   8.056
  318POPC   C4A 7542  37.526  13.642   7.705
  318POPC   C1B 7543  38.103  13.251   8.805
  318POPC   C2B 7544  38.208  13.205   8.364
  318POPC   C3B 7545  37.923  13.401   7.992
  318POPC   C4B 7546  37.902  13.279   7.539
  319POPC   NC3 7547  40.530  25.660   9.504
  319POPC   PO4 7548  40.741  24.972   9.447
  319POPC   GL1 7549  40.851  25.139   9.074
  319POPC   GL2 7550  40.836  25.494   9.122
  319POPC   C1A 7551  40.633  25.185   8.696
  319POPC   D2A 7552  40.446  24.906   8.393
  319POPC   C3A 7553  40.550  25.148   8.086
  319POPC   C4A 7554  40.536  25.343   7.750
  319POPC   C1B 7555  41.067  25.475   8.755
  319POPC   C2B 7556  41.020  25.283   8.354
  319POPC   C3B 7557  41.172  25.434   8.005
  319POPC   C4B 7558  40.945  25.594   7.670
  320POPC   NC3 7559  18.499  22.001   9.479
  320POPC   PO4 7560  19.164  22.260   9.449
  320POPC   GL1 7561  19.022  22.214   9.058
  320POPC   GL2 7562  18.713  22.369   9.176
  320POPC   C1A 7563  19.186  21.940   8.708
  320POPC   D2A 7564  19.215  21.836   8.269
  320POPC   C3A 7565  18.978  22.050   7.972
  320POPC   C4A 7566  19.164  22.281   7.652
  320POPC   C1B 7567  18.603  22.307   8.780
  320POPC   C2B 7568  18.803  22.184   8.425
  320POPC   C3B 7569  18.579  22.347   8.083
  320POPC   C4B 7570  18.628  22.577   7.739
  321POPC   NC3 7571   9.935  31.219   9.456
  321POPC   PO4 7572   9.498  31.814   9.448
  321POPC   GL1 7573   9.656  31.549   9.135
  321POPC   GL2 7574  10.032  31.553   9.100
  321POPC   C1A 7575   9.723  31.677   8.709
  321POPC   D2A 7576   9.738  31.452   8.345
  321POPC   C3A 7577  10.007  31.464   8.022
  321POPC   C4A 7578   9.772  31.491   7.688
  321POPC   C1B 7579   9.926  31.209   8.769
  321POPC   C2B 7580   9.922  30.962   8.365
  321POPC   C3B 7581  10.164  30.970   7.967
  321POPC   C4B 7582  10.009  31.072   7.552
  322POPC   NC3 7583  16.239  44.736   9.523
  322POPC   PO4 7584  15.694   0.099   9.449
  322POPC   GL1 7585  15.913  44.855   9.151
  322POPC   GL2 7586  15.702  44.589   9.117
  322POPC   C1A 7587  16.057  44.706   8.753
  322POPC   D2A 7588  15.841  44.767   8.384
  322POPC   C3A 7589  15.966  44.798   7.982
  322POPC   C4A 7590  15.911  44.499   7.649
  322POPC   C1B 7591  15.681  44.348   8.757
  322POPC   C2B 7592  15.467  44.429   8.357
  322POPC   C3B 7593  15.593  44.231   7.990
  322POPC   C4B 7594  15.944  44.026   7.854
  323POPC   NC3 7595  26.568   4.840   9.520
  323POPC   PO4 7596  27.082   5.293   9.503
  323POPC   GL1 7597  26.933   4.986   9.187
  323POPC   GL2 7598  26.568   5.081   9.049
  323POPC   C1A 7599  26.936   4.887   8.756
  323POPC   D2A 7600  26.782   5.151   8.430
  323POPC   C3A 7601  26.956   5.021   8.062
  323POPC   C4A 7602  26.960   5.253   7.731
  323POPC   C1B 7603  26.437   4.821   8.625
  323POPC   C2B 7604  26.461   4.857   8.135
  323POPC   C3B 7605  26.643   4.845   7.681
  323POPC   C4B 7606  26.792   4.632   7.258
  324POPC   NC3 7607  17.856  41.955   9.454
  324POPC   PO4 7608  17.353  41.513   9.474
  324POPC   GL1 7609  17.606  41.591   9.162
  324POPC   GL2 7610  17.811  41.299   9.108
  324POPC   C1A 7611  17.519  41.538   8.751
  324POPC   D2A 7612  17.271  41.640   8.422
  324POPC   C3A 7613  17.489  41.812   8.084
  324POPC   C4A 7614  17.330  41.632   7.688
  324POPC   C1B 7615  17.931  41.214   8.703
  324POPC   C2B 7616  17.830  41.448   8.335
  324POPC   C3B 7617  17.616  41.320   7.984
  324POPC   C4B 7618  17.705  41.300   7.557
  325POPC   NC3 7619  11.185  25.110   9.704
  325POPC   PO4 7620  11.475  25.591   9.439
  325POPC   GL1 7621  11.124  25.335   9.207
  325POPC   GL2 7622  11.057  24.965   9.224
  325POPC   C1A 7623  11.039  25.175   8.766
  325POPC   D2A 7624  11.236  25.346   8.384
  325POPC   C3A 7625  11.182  25.290   7.943
  325POPC   C4A 7626  11.582  25.263   7.741
  325POPC   C1B 7627  11.454  24.960   9.017
  325POPC   C2B 7628  11.557  24.830   8.594
  325POPC   C3B 7629  11.592  24.896   8.135
  325POPC   C4B 7630  11.360  24.815   7.772
  326POPC   NC3 7631   0.847  25.083   9.384
  326POPC   PO4 7632   1.520  25.329   9.614
  326POPC   GL1 7633   1.436  25.111   9.252
  326POPC   GL2 7634   1.179  25.368   9.119
  326POPC   C1A 7635   1.569  25.201   8.855
  326POPC   D2A 7636   1.356  25.378   8.521
  326POPC   C3A 7637   1.333  25.235   8.097
  326POPC   C4A 7638   1.467  25.437   7.706
  326POPC   C1B 7639   0.858  25.403   8.789
  326POPC   C2B 7640   0.856  25.244   8.384
  326POPC   C3B 7641   0.833  25.207   7.951
  326POPC   C4B 7642   1.063  25.128   7.609
  327POPC   NC3 7643  25.704  28.271   9.434
  327POPC   PO4 7644  25.108  28.636   9.451
  327POPC   GL1 7645  25.174  28.322   9.119
  327POPC   GL2 7646  24.894  28.046   9.066
  327POPC   C1A 7647  25.467  28.415   8.758
  327POPC   D2A 7648  25.736  28.491   8.373
  327POPC   C3A 7649  25.587  28.501   7.958
  327POPC   C4A 7650  25.449  28.816   7.637
  327POPC   C1B 7651  24.996  28.180   8.654
  327POPC   C2B 7652  25.235  28.299   8.302
  327POPC   C3B 7653  25.186  28.187   7.878
  327POPC   C4B 7654  24.919  28.089   7.565
  328POPC   NC3 7655  22.548  26.423   9.860
  328POPC   PO4 7656  22.918  26.853   9.452
  328POPC   GL1 7657  23.010  27.039   9.115
  328POPC   GL2 7658  23.288  27.245   9.132
  328POPC   C1A 7659  22.857  26.905   8.747
  328POPC   D2A 7660  22.955  26.608   8.455
  328POPC   C3A 7661  22.695  26.626   8.097
  328POPC   C4A 7662  22.873  26.571   7.706
  328POPC   C1B 7663  23.346  27.035   8.707
  328POPC   C2B 7664  23.092  27.103   8.334
  328POPC   C3B 7665  22.883  27.082   7.937
  328POPC   C4B 7666  23.063  27.024   7.564
  329POPC   NC3 7667  37.732   1.539   9.495
  329POPC   PO4 7668  37.322   2.180   9.579
  329POPC   GL1 7669  37.650   2.177   9.262
  329POPC   GL2 7670  37.708   1.878   9.108
  329POPC   C1A 7671  37.764   2.309   8.840
  329POPC   D2A 7672  37.672   2.035   8.475
  329POPC   C3A 7673  37.783   2.199   8.062
  329POPC   C4A 7674  37.782   2.098   7.643
  329POPC   C1B 7675  37.414   1.712   8.797
  329POPC   C2B 7676  37.494   1.514   8.410
  329POPC   C3B 7677  37.691   1.666   8.009
  329POPC   C4B 7678  37.570   1.641   7.568
  330POPC   NC3 7679  25.820   3.141   9.573
  330POPC   PO4 7680  26.194   3.772   9.536
  330POPC   GL1 7681  25.937   3.556   9.246
  330POPC   GL2 7682  26.103   3.240   9.127
  330POPC   C1A 7683  25.833   3.589   8.803
  330POPC   D2A 7684  26.089   3.468   8.448
  330POPC   C3A 7685  25.960   3.476   8.029
  330POPC   C4A 7686  25.990   3.551   7.553
  330POPC   C1B 7687  25.742   3.093   8.868
  330POPC   C2B 7688  25.620   3.232   8.448
  330POPC   C3B 7689  25.560   3.128   8.032
  330POPC   C4B 7690  25.842   3.098   7.707
  331POPC   NC3 7691   0.590  31.267   9.652
  331POPC   PO4 7692   0.360  31.827   9.500
  331POPC   GL1 7693   0.183  31.517   9.212
  331POPC   GL2 7694   0.484  31.549   9.086
  331POPC   C1A 7695   0.057  31.417   8.774
  331POPC   D2A 7696   0.157  31.275   8.330
  331POPC   C3A 7697   0.260  31.605   8.012
  331POPC   C4A 7698   0.150  31.544   7.565
  331POPC   C1B 7699   0.577  31.329   8.738
  331POPC   C2B 7700   0.624  31.476   8.366
  331POPC   C3B 7701   0.756  31.315   8.007
  331POPC   C4B 7702   0.636  31.516   7.647
  332POPC   NC3 7703  39.199   1.030   9.491
  332POPC   PO4 7704  38.969   1.612   9.423
  332POPC   GL1 7705  39.328   1.446   9.088
  332POPC   GL2 7706  39.468   1.111   9.052
  332POPC   C1A 7707  39.401   1.354   8.606
  332POPC   D2A 7708  39.207   1.451   8.211
  332POPC   C3A 7709  39.463   1.344   7.873
  332POPC   C4A 7710  39.440   1.007   7.588
  332POPC   C1B 7711  39.029   1.095   8.834
  332POPC   C2B 7712  38.885   0.963   8.403
  332POPC   C3B 7713  39.041   1.006   7.967
  332POPC   C4B 7714  39.007   0.751   7.579
  333POPC   NC3 7715  27.929  26.265   9.561
  333POPC   PO4 7716  28.503  25.855   9.503
  333POPC   GL1 7717  28.218  26.016   9.220
  333POPC   GL2 7718  27.910  25.810   9.284
  333POPC   C1A 7719  28.365  26.070   8.822
  333POPC   D2A 7720  28.454  26.207   8.433
  333POPC   C3A 7721  28.745  25.916   8.221
  333POPC   C4A 7722  28.729  25.837   7.765
  333POPC   C1B 7723  27.900  25.864   8.832
  333POPC   C2B 7724  28.133  25.806   8.421
  333POPC   C3B 7725  28.266  25.988   8.012
  333POPC   C4B 7726  28.227  25.920   7.578
  334POPC   NC3 7727  29.811  14.096   9.280
  334POPC   PO4 7728  30.011  14.733   9.532
  334POPC   GL1 7729  29.892  14.593   9.108
  334POPC   GL2 7730  29.584  14.418   8.959
  334POPC   C1A 7731  30.032  14.445   8.723
  334POPC   D2A 7732  30.071  14.212   8.342
  334POPC   C3A 7733  30.120  14.413   7.974
  334POPC   C4A 7734  30.148  14.274   7.559
  334POPC   C1B 7735  29.656  14.097   8.660
  334POPC   C2B 7736  29.481  14.067   8.303
  334POPC   C3B 7737  29.700  14.125   7.947
  334POPC   C4B 7738  29.669  14.425   7.621
  335POPC   NC3 7739  37.632   7.699   9.522
  335POPC   PO4 7740  38.010   8.270   9.522
  335POPC   GL1 7741  37.763   8.168   9.187
  335POPC   GL2 7742  37.958   7.884   9.157
  335POPC   C1A 7743  37.551   7.926   8.835
  335POPC   D2A 7744  37.415   7.860   8.405
  335POPC   C3A 7745  37.578   8.176   8.114
  335POPC   C4A 7746  37.451   8.376   7.719
  335POPC   C1B 7747  38.096   8.114   8.807
  335POPC   C2B 7748  38.027   8.284   8.409
  335POPC   C3B 7749  38.119   8.108   8.053
  335POPC   C4B 7750  37.935   8.191   7.740
  336POPC   NC3 7751  15.826  33.075   9.566
  336POPC   PO4 7752  16.341  32.682   9.460
  336POPC   GL1 7753  16.151  32.988   9.119
  336POPC   GL2 7754  15.757  32.961   9.083
  336POPC   C1A 7755  16.108  33.009   8.627
  336POPC   D2A 7756  16.091  32.777   8.195
  336POPC   C3A 7757  15.882  33.038   7.927
  336POPC   C4A 7758  16.135  33.385   7.973
  336POPC   C1B 7759  15.732  33.309   8.817
  336POPC   C2B 7760  15.748  33.288   8.376
  336POPC   C3B 7761  15.667  33.562   8.041
  336POPC   C4B 7762  15.746  33.455   7.650
  337POPC   NC3 7763  34.203  41.562   9.418
  337POPC   PO4 7764  34.906  41.641   9.392
  337POPC   GL1 7765  34.613  41.532   9.105
  337POPC   GL2 7766  34.572  41.207   9.246
  337POPC   C1A 7767  34.521  41.722   8.703
  337POPC   D2A 7768  34.764  41.936   8.362
  337POPC   C3A 7769  34.643  41.683   8.012
  337POPC   C4A 7770  34.313  41.358   7.946
  337POPC   C1B 7771  34.575  41.137   8.781
  337POPC   C2B 7772  34.668  41.252   8.360
  337POPC   C3B 7773  34.760  41.134   7.950
  337POPC   C4B 7774  35.057  41.363   7.736
  338POPC   NC3 7775   8.904  20.966   9.499
  338POPC   PO4 7776   9.150  21.607   9.532
  338POPC   GL1 7777   8.956  21.426   9.191
  338POPC   GL2 7778   9.113  21.146   9.049
  338POPC   C1A 7779   8.752  21.451   8.810
  338POPC   D2A 7780   8.672  21.621   8.406
  338POPC   C3A 7781   8.859  21.430   8.051
  338POPC   C4A 7782   8.841  21.574   7.660
  338POPC   C1B 7783   9.407  21.041   8.693
  338POPC   C2B 7784   9.393  20.982   8.224
  338POPC   C3B 7785   9.288  21.236   7.864
  338POPC   C4B 7786   9.219  21.324   7.408
  339POPC   NC3 7787   4.869  22.932   9.595
  339POPC   PO4 7788   4.248  23.287   9.461
  339POPC   GL1 7789   4.159  23.186   9.034
  339POPC   GL2 7790   4.347  22.868   8.920
  339POPC   C1A 7791   4.241  23.277   8.609
  339POPC   D2A 7792   4.348  23.025   8.285
  339POPC   C3A 7793   4.381  23.052   7.855
  339POPC   C4A 7794   4.343  22.738   7.519
  339POPC   C1B 7795   3.940  22.745   8.743
  339POPC   C2B 7796   3.813  22.579   8.343
  339POPC   C3B 7797   3.942  22.817   7.996
  339POPC   C4B 7798   3.846  22.711   7.618
  340POPC   NC3 7799  44.116   8.829   9.684
  340POPC   PO4 7800  44.718   9.112   9.827
  340POPC   GL1 7801  44.702   9.207   9.367
  340POPC   GL2 7802  44.365   9.341   9.320
  340POPC   C1A 7803  44.750   9.167   8.901
  340POPC   D2A 7804  44.689   8.873   8.546
  340POPC   C3A 7805  44.777   9.032   8.148
  340POPC   C4A 7806  44.589   8.996   7.767
  340POPC   C1B 7807  44.324   9.457   8.871
  340POPC   C2B 7808  44.455   9.346   8.454
  340POPC   C3B 7809  44.448   9.428   8.004
  340POPC   C4B 7810  44.223   9.398   7.611
  341POPC   NC3 7811  23.449   5.620  10.067
  341POPC   PO4 7812  23.798   5.211   9.628
  341POPC   GL1 7813  23.521   5.090   9.254
  341POPC   GL2 7814  23.455   4.748   9.136
  341POPC   C1A 7815  23.501   5.189   8.805
  341POPC   D2A 7816  23.724   5.083   8.430
  341POPC   C3A 7817  23.503   5.060   8.079
  341POPC   C4A 7818  23.442   5.196   7.670
  341POPC   C1B 7819  23.878   4.831   8.888
  341POPC   C2B 7820  24.040   4.696   8.456
  341POPC   C3B 7821  23.969   4.805   8.041
  341POPC   C4B 7822  23.660   4.742   7.706
  342POPC   NC3 7823  44.228  43.118   9.570
  342POPC   PO4 7824  43.616  42.832   9.456
  342POPC   GL1 7825  43.833  43.020   9.143
  342POPC   GL2 7826  43.998  43.321   9.146
  342POPC   C1A 7827  44.020  42.975   8.759
  342POPC   D2A 7828  43.933  43.213   8.374
  342POPC   C3A 7829  43.638  43.042   8.105
  342POPC   C4A 7830  43.850  43.009   7.758
  342POPC   C1B 7831  44.120  43.487   8.765
  342POPC   C2B 7832  44.354  43.509   8.361
  342POPC   C3B 7833  44.298  43.385   7.923
  342POPC   C4B 7834  44.100  43.370   7.508
  343POPC   NC3 7835  19.295  14.998   9.682
  343POPC   PO4 7836  18.668  14.950   9.530
  343POPC   GL1 7837  19.038  15.032   9.227
  343POPC   GL2 7838  19.410  14.939   9.195
  343POPC   C1A 7839  18.977  15.104   8.795
  343POPC   D2A 7840  18.924  14.916   8.449
  343POPC   C3A 7841  19.032  15.139   8.059
  343POPC   C4A 7842  18.893  15.332   7.677
  343POPC   C1B 7843  19.371  15.333   8.975
  343POPC   C2B 7844  19.348  15.366   8.521
  343POPC   C3B 7845  19.483  15.407   8.103
  343POPC   C4B 7846  19.357  15.551   7.718
  344POPC   NC3 7847  40.324   7.906   9.452
  344POPC   PO4 7848  40.851   8.243   9.734
  344POPC   GL1 7849  40.881   8.292   9.241
  344POPC   GL2 7850  40.653   8.074   9.121
  344POPC   C1A 7851  40.728   8.440   8.787
  344POPC   D2A 7852  40.587   8.286   8.371
  344POPC   C3A 7853  40.807   8.362   7.997
  344POPC   C4A 7854  40.500   8.446   7.726
  344POPC   C1B 7855  40.836   7.959   8.728
  344POPC   C2B 7856  40.960   7.834   8.342
  344POPC   C3B 7857  40.683   7.860   8.031
  344POPC   C4B 7858  40.504   7.940   7.660
  345POPC   NC3 7859  13.304   4.871   9.349
  345POPC   PO4 7860  13.805   5.232   9.679
  345POPC   GL1 7861  13.746   5.098   9.221
  345POPC   GL2 7862  13.476   5.248   9.043
  345POPC   C1A 7863  13.746   4.868   8.807
  345POPC   D2A 7864  13.762   5.026   8.405
  345POPC   C3A 7865  13.651   4.864   8.005
  345POPC   C4A 7866  13.793   5.102   7.675
  345POPC   C1B 7867  13.307   5.085   8.684
  345POPC   C2B 7868  13.266   5.031   8.269
  345POPC   C3B 7869  13.392   5.304   7.926
  345POPC   C4B 7870  13.420   5.376   7.469
  346POPC   NC3 7871  39.975  40.894   9.609
  346POPC   PO4 7872  40.535  41.256   9.562
  346POPC   GL1 7873  40.199  41.061   9.178
  346POPC   GL2 7874  39.901  40.761   9.125
  346POPC   C1A 7875  40.175  40.926   8.739
  346POPC   D2A 7876  39.945  40.850   8.349
  346POPC   C3A 7877  40.116  40.926   7.931
  346POPC   C4A 7878  39.915  41.209   7.592
  346POPC   C1B 7879  39.965  40.462   8.766
  346POPC   C2B 7880  40.140  40.389   8.327
  346POPC   C3B 7881  39.998  40.440   7.871
  346POPC   C4B 7882  39.889  40.710   7.521
  347POPC   NC3 7883  26.267  28.643   9.541
  347POPC   PO4 7884  26.098  28.009   9.440
  347POPC   GL1 7885  26.300  28.255   9.194
  347POPC   GL2 7886  26.030  28.488   9.109
  347POPC   C1A 7887  26.357  28.262   8.776
  347POPC   D2A 7888  26.045  28.074   8.470
  347POPC   C3A 7889  26.058  28.212   8.048
  347POPC   C4A 7890  26.384  28.264   7.790
  347POPC   C1B 7891  26.046  28.678   8.732
  347POPC   C2B 7892  26.268  28.559   8.360
  347POPC   C3B 7893  26.201  28.711   7.958
  347POPC   C4B 7894  25.924  28.664   7.604
  348POPC   NC3 7895  13.254  10.311   9.511
  348POPC   PO4 7896  13.960  10.248   9.493
  348POPC   GL1 7897  13.704  10.438   9.138
  348POPC   GL2 7898  13.345  10.411   9.036
  348POPC   C1A 7899  13.688  10.686   8.770
  348POPC   D2A 7900  13.784  10.467   8.411
  348POPC   C3A 7901  13.594  10.367   8.012
  348POPC   C4A 7902  13.818  10.474   7.627
  348POPC   C1B 7903  13.274  10.448   8.578
  348POPC   C2B 7904  13.079  10.290   8.215
  348POPC   C3B 7905  13.148  10.086   7.833
  348POPC   C4B 7906  13.188  10.084   7.352
  349POPC   NC3 7907  22.010  37.942   9.578
  349POPC   PO4 7908  22.598  37.683   9.527
  349POPC   GL1 7909  22.431  37.594   9.125
  349POPC   GL2 7910  22.057  37.682   9.108
  349POPC   C1A 7911  22.369  37.345   8.744
  349POPC   D2A 7912  22.149  37.460   8.353
  349POPC   C3A 7913  22.303  37.665   7.955
  349POPC   C4A 7914  22.385  37.427   7.536
  349POPC   C1B 7915  21.836  37.371   8.822
  349POPC   C2B 7916  21.668  37.334   8.400
  349POPC   C3B 7917  21.718  37.709   8.158
  349POPC   C4B 7918  21.829  37.778   7.762
  350POPC   NC3 7919  35.757  32.438   9.585
  350POPC   PO4 7920  35.579  31.802   9.595
  350POPC   GL1 7921  35.327  32.054   9.266
  350POPC   GL2 7922  35.501  32.361   9.173
  350POPC   C1A 7923  35.136  32.232   8.857
  350POPC   D2A 7924  35.375  32.070   8.517
  350POPC   C3A 7925  35.261  32.141   8.114
  350POPC   C4A 7926  35.502  32.074   7.757
  350POPC   C1B 7927  35.538  32.519   8.783
  350POPC   C2B 7928  35.404  32.555   8.364
  350POPC   C3B 7929  35.686  32.481   8.016
  350POPC   C4B 7930  35.688  32.557   7.581
  351POPC   NC3 7931  27.666  10.183   9.512
  351POPC   PO4 7932  27.862  10.808   9.403
  351POPC   GL1 7933  27.574  10.585   9.109
  351POPC   GL2 7934  27.412  10.236   9.091
  351POPC   C1A 7935  27.390  10.586   8.702
  351POPC   D2A 7936  27.218  10.964   8.530
  351POPC   C3A 7937  27.243  11.036   8.102
  351POPC   C4A 7938  27.320  10.807   7.713
  351POPC   C1B 7939  27.397  10.025   8.717
  351POPC   C2B 7940  27.550  10.209   8.385
  351POPC   C3B 7941  27.505  10.562   8.151
  351POPC   C4B 7942  27.512  10.349   7.770
  352POPC   NC3 7943  39.751   4.641   9.312
  352POPC   PO4 7944  40.040   4.068   9.477
  352POPC   GL1 7945  39.854   4.143   9.091
  352POPC   GL2 7946  39.483   4.214   9.057
  352POPC   C1A 7947  40.097   4.157   8.727
  352POPC   D2A 7948  40.085   3.982   8.308
  352POPC   C3A 7949  40.221   4.275   7.989
  352POPC   C4A 7950  40.162   4.277   7.555
  352POPC   C1B 7951  39.681   4.470   8.707
  352POPC   C2B 7952  39.962   4.504   8.386
  352POPC   C3B 7953  39.893   4.701   8.057
  352POPC   C4B 7954  39.747   4.489   7.756
  353POPC   NC3 7955  22.302  18.230   9.631
  353POPC   PO4 7956  21.738  17.986   9.456
  353POPC   GL1 7957  21.888  18.060   9.052
  353POPC   GL2 7958  22.161  18.249   9.122
  353POPC   C1A 7959  21.909  18.372   8.701
  353POPC   D2A 7960  22.073  18.438   8.288
  353POPC   C3A 7961  21.965  18.071   8.116
  353POPC   C4A 7962  21.993  17.869   7.772
  353POPC   C1B 7963  22.404  18.272   8.746
  353POPC   C2B 7964  22.510  18.083   8.374
  353POPC   C3B 7965  22.451  18.168   7.920
  353POPC   C4B 7966  22.207  18.435   7.696
  354POPC   NC3 7967  13.460   7.457   9.672
  354POPC   PO4 7968  14.019   7.661   9.405
  354POPC   GL1 7969  13.722   7.411   9.153
  354POPC   GL2 7970  13.346   7.463   9.168
  354POPC   C1A 7971  13.720   7.538   8.714
  354POPC   D2A 7972  13.874   7.591   8.280
  354POPC   C3A 7973  13.622   7.498   7.915
  354POPC   C4A 7974  13.703   7.479   7.449
  354POPC   C1B 7975  13.338   7.220   8.789
  354POPC   C2B 7976  13.502   7.160   8.364
  354POPC   C3B 7977  13.301   7.115   7.966
  354POPC   C4B 7978  13.341   7.079   7.497
  355POPC   NC3 7979   8.131   9.897   9.625
  355POPC   PO4 7980   7.931   9.417   9.362
  355POPC   GL1 7981   7.973   9.852   9.119
  355POPC   GL2 7982   8.301   9.887   8.960
  355POPC   C1A 7983   7.937   9.989   8.636
  355POPC   D2A 7984   8.308   9.903   8.382
  355POPC   C3A 7985   8.308   9.951   7.928
  355POPC   C4A 7986   7.991  10.019   7.627
  355POPC   C1B 7987   8.069   9.517   8.694
  355POPC   C2B 7988   7.943   9.375   8.247
  355POPC   C3B 7989   8.179   9.457   7.826
  355POPC   C4B 7990   8.439   9.288   7.442
  356POPC   NC3 7991  10.108   0.148   9.280
  356POPC   PO4 7992  10.596   0.564   9.509
  356POPC   GL1 7993  10.563   0.708   9.109
  356POPC   GL2 7994  10.185   0.642   9.091
  356POPC   C1A 7995  10.821   0.587   8.743
  356POPC   D2A 7996  10.687   0.557   8.335
  356POPC   C3A 7997  10.855   0.516   7.984
  356POPC   C4A 7998  10.694   0.301   7.683
  356POPC   C1B 7999  10.302   0.604   8.677
  356POPC   C2B 8000  10.275   0.845   8.321
  356POPC   C3B 8001  10.378   0.726   7.925
  356POPC   C4B 8002  10.194   0.380   7.753
  357POPC   NC3 8003  38.754  24.925   9.539
  357POPC   PO4 8004  39.388  25.267   9.505
  357POPC   GL1 8005  39.242  25.287   9.146
  357POPC   GL2 8006  39.085  24.988   9.134
  357POPC   C1A 8007  39.322  25.504   8.805
  357POPC   D2A 8008  39.261  25.395   8.419
  357POPC   C3A 8009  39.536  25.381   8.131
  357POPC   C4A 8010  39.464  25.021   7.869
  357POPC   C1B 8011  38.918  25.153   8.744
  357POPC   C2B 8012  38.812  25.190   8.281
  357POPC   C3B 8013  39.024  25.393   7.933
  357POPC   C4B 8014  38.881  25.595   7.547
  358POPC   NC3 8015  13.573   0.004   9.454
  358POPC   PO4 8016  14.017  44.388   9.457
  358POPC   GL1 8017  13.672  44.544   9.169
  358POPC   GL2 8018  13.319  44.396   9.185
  358POPC   C1A 8019  13.460  44.810   8.831
  358POPC   D2A 8020  13.555   0.037   8.482
  358POPC   C3A 8021  13.340  44.942   8.136
  358POPC   C4A 8022  13.585  44.681   7.885
  358POPC   C1B 8023  13.490  44.321   8.746
  358POPC   C2B 8024  13.358  44.485   8.371
  358POPC   C3B 8025  13.260  44.289   7.997
  358POPC   C4B 8026  13.385  44.314   7.567
  359POPC   NC3 8027  34.950  43.094   9.534
  359POPC   PO4 8028  34.322  43.164   9.738
  359POPC   GL1 8029  34.458  43.142   9.291
  359POPC   GL2 8030  34.721  42.902   9.139
  359POPC   C1A 8031  34.437  43.287   8.858
  359POPC   D2A 8032  34.656  43.290   8.460
  359POPC   C3A 8033  34.484  43.405   8.066
  359POPC   C4A 8034  34.642  43.355   7.663
  359POPC   C1B 8035  34.590  42.802   8.730
  359POPC   C2B 8036  34.432  42.832   8.321
  359POPC   C3B 8037  34.659  42.948   7.966
  359POPC   C4B 8038  34.792  42.801   7.573
  360POPC   NC3 8039   3.991  10.324   9.581
  360POPC   PO4 8040   4.112  10.993   9.699
  360POPC   GL1 8041   4.390  10.800   9.290
  360POPC   GL2 8042   4.397  10.447   9.247
  360POPC   C1A 8043   4.565  10.676   8.817
  360POPC   D2A 8044   4.551  10.782   8.334
  360POPC   C3A 8045   4.206  10.716   7.990
  360POPC   C4A 8046   4.142  10.657   7.492
  360POPC   C1B 8047   4.128  10.392   8.860
  360POPC   C2B 8048   4.153  10.333   8.384
  360POPC   C3B 8049   4.115  10.237   7.914
  360POPC   C4B 8050   4.445  10.283   7.557
  361POPC   NC3 8051   0.551  25.983   9.479
  361POPC   PO4 8052   0.025  26.271   9.413
  361POPC   GL1 8053   0.283  26.186   9.089
  361POPC   GL2 8054   0.627  26.344   9.140
  361POPC   C1A 8055   0.198  26.128   8.676
  361POPC   D2A 8056   0.064  25.908   8.323
  361POPC   C3A 8057   0.300  26.063   7.978
  361POPC   C4A 8058   0.238  26.071   7.526
  361POPC   C1B 8059   0.685  26.000   8.842
  361POPC   C2B 8060   0.714  26.132   8.469
  361POPC   C3B 8061   0.855  26.089   8.078
  361POPC   C4B 8062   0.716  26.126   7.674
  362POPC   NC3 8063  23.266  28.101   9.502
  362POPC   PO4 8064  22.814  28.601   9.627
  362POPC   GL1 8065  22.966  28.394   9.231
  362POPC   GL2 8066  22.730  28.098   9.192
  362POPC   C1A 8067  23.058  28.322   8.805
  362POPC   D2A 8068  22.753  28.428   8.503
  362POPC   C3A 8069  22.934  28.477   8.103
  362POPC   C4A 8070  22.701  28.673   7.820
  362POPC   C1B 8071  22.722  27.934   8.748
  362POPC   C2B 8072  22.908  27.996   8.303
  362POPC   C3B 8073  22.954  28.018   7.817
  362POPC   C4B 8074  23.031  28.247   7.383
  363POPC   NC3 8075  28.724  36.757   9.430
  363POPC   PO4 8076  28.217  37.215   9.632
  363POPC   GL1 8077  28.292  36.994   9.233
  363POPC   GL2 8078  28.595  37.054   9.050
  363POPC   C1A 8079  28.132  36.786   8.852
  363POPC   D2A 8080  28.282  36.724   8.422
  363POPC   C3A 8081  28.176  37.015   8.083
  363POPC   C4A 8082  28.088  36.761   7.751
  363POPC   C1B 8083  28.387  37.231   8.726
  363POPC   C2B 8084  28.587  37.147   8.351
  363POPC   C3B 8085  28.644  37.151   7.927
  363POPC   C4B 8086  28.589  36.904   7.613
  364POPC   NC3 8087   1.369  11.915   9.450
  364POPC   PO4 8088   0.730  12.101   9.427
  364POPC   GL1 8089   1.046  12.174   9.163
  364POPC   GL2 8090   1.245  12.476   9.228
  364POPC   C1A 8091   1.315  12.073   8.816
  364POPC   D2A 8092   1.284  11.827   8.452
  364POPC   C3A 8093   1.517  11.917   8.086
  364POPC   C4A 8094   1.383  11.964   7.693
  364POPC   C1B 8095   1.006  12.508   8.813
  364POPC   C2B 8096   0.993  12.262   8.450
  364POPC   C3B 8097   1.125  12.268   8.037
  364POPC   C4B 8098   0.928  12.185   7.641
  365POPC   NC3 8099  27.958  44.948   9.694
  365POPC   PO4 8100  27.832  44.350   9.447
  365POPC   GL1 8101  27.682  44.715   9.190
  365POPC   GL2 8102  27.513  44.480   9.054
  365POPC   C1A 8103  27.578  44.887   8.744
  365POPC   D2A 8104  27.493  44.646   8.321
  365POPC   C3A 8105  27.615  44.822   7.923
  365POPC   C4A 8106  27.705   0.238   7.809
  365POPC   C1B 8107  27.568  44.297   8.690
  365POPC   C2B 8108  27.207  44.177   8.454
  365POPC   C3B 8109  27.108  44.275   8.066
  365POPC   C4B 8110  27.530  44.314   7.896
  366POPC   NC3 8111  10.619  11.903   9.476
  366POPC   PO4 8112  10.527  12.535   9.704
  366POPC   GL1 8113  10.763  12.342   9.261
  366POPC   GL2 8114  10.922  12.033   9.085
  366POPC   C1A 8115  10.723  12.417   8.812
  366POPC   D2A 8116  10.926  12.340   8.419
  366POPC   C3A 8117  10.604  12.234   8.142
  366POPC   C4A 8118  10.469  12.086   7.760
  366POPC   C1B 8119  10.596  11.928   8.756
  366POPC   C2B 8120  10.289  11.906   8.467
  366POPC   C3B 8121  10.375  11.745   8.109
  366POPC   C4B 8122  10.305  11.556   7.739
  367POPC   NC3 8123  39.041   8.597   9.426
  367POPC   PO4 8124  39.150   7.844   9.540
  367POPC   GL1 8125  39.201   8.152   9.177
  367POPC   GL2 8126  39.524   8.328   9.094
  367POPC   C1A 8127  39.170   8.254   8.741
  367POPC   D2A 8128  38.943   8.264   8.389
  367POPC   C3A 8129  39.112   8.422   8.044
  367POPC   C4A 8130  39.162   8.224   7.665
  367POPC   C1B 8131  39.676   8.258   8.730
  367POPC   C2B 8132  39.522   8.401   8.361
  367POPC   C3B 8133  39.589   8.306   7.948
  367POPC   C4B 8134  39.595   8.551   7.601
  368POPC   NC3 8135  23.191  24.950  10.048
  368POPC   PO4 8136  22.762  24.648   9.577
  368POPC   GL1 8137  22.862  24.453   9.202
  368POPC   GL2 8138  23.006  24.731   9.069
  368POPC   C1A 8139  22.911  24.330   8.769
  368POPC   D2A 8140  23.068  24.441   8.388
  368POPC   C3A 8141  22.851  24.282   8.097
  368POPC   C4A 8142  22.906  24.101   7.743
  368POPC   C1B 8143  23.292  24.709   8.768
  368POPC   C2B 8144  23.284  24.903   8.378
  368POPC   C3B 8145  23.309  24.783   7.960
  368POPC   C4B 8146  22.984  24.610   7.723
  369POPC   NC3 8147   7.721  42.465   9.717
  369POPC   PO4 8148   8.315  42.197   9.481
  369POPC   GL1 8149   8.331  42.435   9.148
  369POPC   GL2 8150   7.978  42.494   9.090
  369POPC   C1A 8151   8.565  42.384   8.760
  369POPC   D2A 8152   8.411  42.459   8.342
  369POPC   C3A 8153   8.538  42.420   7.937
  369POPC   C4A 8154   8.453  42.188   7.573
  369POPC   C1B 8155   8.057  42.348   8.694
  369POPC   C2B 8156   7.907  42.496   8.309
  369POPC   C3B 8157   7.985  42.326   7.892
  369POPC   C4B 8158   7.648  42.188   7.616
  370POPC   NC3 8159  30.084  23.900   9.558
  370POPC   PO4 8160  29.856  24.612   9.426
  370POPC   GL1 8161  29.933  24.457   9.052
  370POPC   GL2 8162  30.145  24.220   9.169
  370POPC   C1A 8163  30.009  24.471   8.612
  370POPC   D2A 8164  30.036  24.771   8.274
  370POPC   C3A 8165  29.819  24.610   7.893
  370POPC   C4A 8166  29.497  24.588   7.553
  370POPC   C1B 8167  30.235  24.039   8.807
  370POPC   C2B 8168  30.110  23.983   8.407
  370POPC   C3B 8169  30.122  24.276   8.114
  370POPC   C4B 8170  30.263  24.336   7.730
  371POPC   NC3 8171  29.261  15.487   9.303
  371POPC   PO4 8172  29.292  16.154   9.512
  371POPC   GL1 8173  29.086  16.128   9.121
  371POPC   GL2 8174  28.881  15.869   9.191
  371POPC   C1A 8175  29.173  16.130   8.683
  371POPC   D2A 8176  29.073  15.956   8.311
  371POPC   C3A 8177  29.335  15.980   7.952
  371POPC   C4A 8178  29.313  15.826   7.556
  371POPC   C1B 8179  28.726  15.913   8.749
  371POPC   C2B 8180  28.632  15.736   8.309
  371POPC   C3B 8181  28.835  15.857   7.866
  371POPC   C4B 8182  28.834  15.825   7.378
  372POPC   NC3 8183  32.112   6.580   9.500
  372POPC   PO4 8184  32.738   6.895   9.437
  372POPC   GL1 8185  32.495   6.634   9.166
  372POPC   GL2 8186  32.189   6.818   9.051
  372POPC   C1A 8187  32.458   6.400   8.803
  372POPC   D2A 8188  32.339   6.678   8.491
  372POPC   C3A 8189  32.361   6.542   8.081
  372POPC   C4A 8190  32.365   6.856   7.768
  372POPC   C1B 8191  31.957   6.481   8.844
  372POPC   C2B 8192  31.825   6.626   8.479
  372POPC   C3B 8193  31.915   6.735   8.135
  372POPC   C4B 8194  31.883   6.736   7.732
  373POPC   NC3 8195   8.327  16.700   9.617
  373POPC   PO4 8196   7.876  17.008   9.309
  373POPC   GL1 8197   8.143  16.756   9.097
  373POPC   GL2 8198   8.450  16.575   9.137
  373POPC   C1A 8199   8.223  16.732   8.674
  373POPC   D2A 8200   7.948  16.693   8.310
  373POPC   C3A 8201   8.092  16.548   7.926
  373POPC   C4A 8202   8.280  16.871   7.685
  373POPC   C1B 8203   8.613  16.390   8.754
  373POPC   C2B 8204   8.411  16.402   8.343
  373POPC   C3B 8205   8.568  16.325   7.972
  373POPC   C4B 8206   8.431  16.326   7.560
  374POPC   NC3 8207   3.526  13.887   9.556
  374POPC   PO4 8208   3.740  13.222   9.474
  374POPC   GL1 8209   3.570  13.556   9.172
  374POPC   GL2 8210   3.785  13.880   9.091
  374POPC   C1A 8211   3.311  13.669   8.813
  374POPC   D2A 8212   3.235  13.467   8.396
  374POPC   C3A 8213   3.339  13.672   7.995
  374POPC   C4A 8214   3.477  13.533   7.586
  374POPC   C1B 8215   4.025  14.066   8.710
  374POPC   C2B 8216   4.102  13.867   8.275
  374POPC   C3B 8217   3.879  13.757   7.874
  374POPC   C4B 8218   3.970  13.585   7.449
  375POPC   NC3 8219  32.433  30.168   9.521
  375POPC   PO4 8220  32.177  30.783   9.497
  375POPC   GL1 8221  32.048  30.659   9.130
  375POPC   GL2 8222  32.155  30.343   9.115
  375POPC   C1A 8223  32.191  30.797   8.742
  375POPC   D2A 8224  32.419  30.695   8.384
  375POPC   C3A 8225  32.242  30.903   8.065
  375POPC   C4A 8226  32.313  30.971   7.666
  375POPC   C1B 8227  31.937  30.368   8.700
  375POPC   C2B 8228  31.939  30.535   8.260
  375POPC   C3B 8229  32.174  30.441   7.844
  375POPC   C4B 8230  31.997  30.378   7.407
  376POPC   NC3 8231  40.445  34.941   9.498
  376POPC   PO4 8232  40.985  34.604   9.756
  376POPC   GL1 8233  40.857  34.693   9.300
  376POPC   GL2 8234  40.529  34.505   9.247
  376POPC   C1A 8235  40.863  34.617   8.840
  376POPC   D2A 8236  41.015  34.497   8.413
  376POPC   C3A 8237  41.021  34.805   8.048
  376POPC   C4A 8238  40.962  34.588   7.645
  376POPC   C1B 8239  40.359  34.390   8.849
  376POPC   C2B 8240  40.368  34.406   8.396
  376POPC   C3B 8241  40.549  34.580   8.023
  376POPC   C4B 8242  40.479  34.336   7.692
  377POPC   NC3 8243   7.290   5.967   9.493
  377POPC   PO4 8244   7.435   5.356   9.499
  377POPC   GL1 8245   7.247   5.536   9.118
  377POPC   GL2 8246   7.316   5.878   8.993
  377POPC   C1A 8247   7.281   5.488   8.650
  377POPC   D2A 8248   7.100   5.767   8.341
  377POPC   C3A 8249   7.117   5.830   7.930
  377POPC   C4A 8250   7.211   6.215   7.707
  377POPC   C1B 8251   7.497   5.981   8.584
  377POPC   C2B 8252   7.493   6.105   8.151
  377POPC   C3B 8253   7.609   5.911   7.758
  377POPC   C4B 8254   7.964   5.994   7.490
  378POPC   NC3 8255  12.795  32.953   9.782
  378POPC   PO4 8256  12.800  32.306   9.568
  378POPC   GL1 8257  12.812  32.192   9.164
  378POPC   GL2 8258  13.036  32.491   9.140
  378POPC   C1A 8259  12.672  32.086   8.753
  378POPC   D2A 8260  12.864  32.086   8.338
  378POPC   C3A 8261  12.605  32.200   8.018
  378POPC   C4A 8262  12.585  32.594   7.846
  378POPC   C1B 8263  12.754  32.612   8.818
  378POPC   C2B 8264  12.713  32.578   8.374
  378POPC   C3B 8265  13.016  32.717   8.096
  378POPC   C4B 8266  13.107  32.535   7.735
  379POPC   NC3 8267  24.633  18.525   9.702
  379POPC   PO4 8268  23.996  18.591   9.556
  379POPC   GL1 8269  24.281  18.627   9.172
  379POPC   GL2 8270  24.637  18.510   9.182
  379POPC   C1A 8271  24.374  18.362   8.779
  379POPC   D2A 8272  24.227  18.137   8.413
  379POPC   C3A 8273  24.417  18.263   8.049
  379POPC   C4A 8274  24.794  18.181   7.864
  379POPC   C1B 8275  24.905  18.451   8.804
  379POPC   C2B 8276  24.750  18.471   8.409
  379POPC   C3B 8277  24.816  18.645   8.048
  379POPC   C4B 8278  25.169  18.540   7.779
  380POPC   NC3 8279  35.970  14.010   9.489
  380POPC   PO4 8280  36.384  13.440   9.576
  380POPC   GL1 8281  36.263  13.693   9.241
  380POPC   GL2 8282  36.363  14.052   9.162
  380POPC   C1A 8283  36.023  13.671   8.874
  380POPC   D2A 8284  35.976  13.850   8.463
  380POPC   C3A 8285  36.098  13.628   8.092
  380POPC   C4A 8286  35.942  13.650   7.693
  380POPC   C1B 8287  36.449  13.959   8.753
  380POPC   C2B 8288  36.686  14.026   8.385
  380POPC   C3B 8289  36.459  14.041   8.003
  380POPC   C4B 8290  36.498  14.066   7.547
  381POPC   NC3 8291   5.220   1.152   9.648
  381POPC   PO4 8292   5.664   1.514   9.376
  381POPC   GL1 8293   5.352   1.323   9.137
  381POPC   GL2 8294   5.013   1.401   9.229
  381POPC   C1A 8295   5.276   1.246   8.695
  381POPC   D2A 8296   5.369   0.983   8.346
  381POPC   C3A 8297   5.253   1.228   7.990
  381POPC   C4A 8298   5.274   1.175   7.541
  381POPC   C1B 8299   4.790   1.314   8.824
  381POPC   C2B 8300   4.629   1.232   8.414
  381POPC   C3B 8301   4.750   1.348   8.013
  381POPC   C4B 8302   4.773   1.119   7.637
  382POPC   NC3 8303  37.075   2.571   9.474
  382POPC   PO4 8304  36.644   3.029   9.346
  382POPC   GL1 8305  36.792   2.722   9.098
  382POPC   GL2 8306  37.089   2.865   9.060
  382POPC   C1A 8307  36.779   2.458   8.744
  382POPC   D2A 8308  36.589   2.580   8.376
  382POPC   C3A 8309  36.569   2.497   7.962
  382POPC   C4A 8310  36.524   2.701   7.584
  382POPC   C1B 8311  36.969   2.906   8.648
  382POPC   C2B 8312  37.078   2.662   8.319
  382POPC   C3B 8313  36.865   2.895   8.049
  382POPC   C4B 8314  37.013   2.815   7.678
  383POPC   NC3 8315  34.762  35.550   9.498
  383POPC   PO4 8316  34.275  35.148   9.587
  383POPC   GL1 8317  34.335  35.444   9.219
  383POPC   GL2 8318  34.645  35.264   9.107
  383POPC   C1A 8319  34.422  35.558   8.757
  383POPC   D2A 8320  34.696  35.428   8.399
  383POPC   C3A 8321  34.618  35.598   7.968
  383POPC   C4A 8322  34.582  35.753   7.547
  383POPC   C1B 8323  34.730  35.031   8.750
  383POPC   C2B 8324  34.628  34.835   8.374
  383POPC   C3B 8325  34.716  35.054   8.030
  383POPC   C4B 8326  34.491  35.179   7.700
  384POPC   NC3 8327  27.373  25.441   9.283
  384POPC   PO4 8328  27.435  26.141   9.546
  384POPC   GL1 8329  27.490  26.087   9.146
  384POPC   GL2 8330  27.769  26.309   9.066
  384POPC   C1A 8331  27.389  25.876   8.762
  384POPC   D2A 8332  27.633  25.932   8.399
  384POPC   C3A 8333  27.491  25.936   7.989
  384POPC   C4A 8334  27.809  26.184   7.838
  384POPC   C1B 8335  27.443  26.376   8.731
  384POPC   C2B 8336  27.255  26.264   8.319
  384POPC   C3B 8337  27.312  26.402   7.891
  384POPC   C4B 8338  27.397  26.202   7.480
  385POPC   NC3 8339   4.788  16.392   9.672
  385POPC   PO4 8340   5.172  16.914   9.643
  385POPC   GL1 8341   4.967  16.847   9.270
  385POPC   GL2 8342   5.017  16.513   9.221
  385POPC   C1A 8343   5.118  16.885   8.855
  385POPC   D2A 8344   5.307  16.609   8.546
  385POPC   C3A 8345   5.294  16.710   8.111
  385POPC   C4A 8346   5.170  16.467   7.781
  385POPC   C1B 8347   4.754  16.515   8.869
  385POPC   C2B 8348   4.836  16.355   8.467
  385POPC   C3B 8349   4.790  16.572   8.102
  385POPC   C4B 8350   4.687  16.523   7.656
  386POPC   NC3 8351  22.082   1.061   9.563
  386POPC   PO4 8352  22.224   1.622   9.234
  386POPC   GL1 8353  22.202   1.175   9.082
  386POPC   GL2 8354  21.902   0.893   9.118
  386POPC   C1A 8355  22.323   1.237   8.673
  386POPC   D2A 8356  22.116   1.562   8.397
  386POPC   C3A 8357  22.052   1.408   7.957
  386POPC   C4A 8358  22.329   1.190   7.646
  386POPC   C1B 8359  21.883   0.888   8.677
  386POPC   C2B 8360  22.083   1.012   8.296
  386POPC   C3B 8361  21.996   0.883   7.905
  386POPC   C4B 8362  21.611   0.867   7.721
  387POPC   NC3 8363  22.063  44.238   9.458
  387POPC   PO4 8364  22.327  43.618   9.452
  387POPC   GL1 8365  22.383  43.855   9.119
  387POPC   GL2 8366  22.034  43.896   9.040
  387POPC   C1A 8367  22.460  43.876   8.669
  387POPC   D2A 8368  22.397  43.674   8.269
  387POPC   C3A 8369  22.400  43.763   7.889
  387POPC   C4A 8370  22.083  43.805   7.598
  387POPC   C1B 8371  22.265  44.297   8.869
  387POPC   C2B 8372  22.411  44.365   8.485
  387POPC   C3B 8373  22.299  44.200   8.114
  387POPC   C4B 8374  22.374  44.218   7.700
  388POPC   NC3 8375  38.439  18.095   9.629
  388POPC   PO4 8376  38.962  18.541   9.552
  388POPC   GL1 8377  38.506  18.536   9.261
  388POPC   GL2 8378  38.367  18.178   9.151
  388POPC   C1A 8379  38.318  18.529   8.819
  388POPC   D2A 8380  38.216  18.342   8.422
  388POPC   C3A 8381  38.346  18.537   8.076
  388POPC   C4A 8382  38.212  18.586   7.703
  388POPC   C1B 8383  38.591  18.041   8.800
  388POPC   C2B 8384  38.543  17.880   8.407
  388POPC   C3B 8385  38.391  18.010   8.035
  388POPC   C4B 8386  38.653  17.974   7.696
  389POPC   NC3 8387  37.611  34.205   9.523
  389POPC   PO4 8388  37.834  33.542   9.625
  389POPC   GL1 8389  37.685  33.743   9.246
  389POPC   GL2 8390  37.907  34.017   9.155
  389POPC   C1A 8391  37.406  33.733   8.876
  389POPC   D2A 8392  37.231  33.940   8.497
  389POPC   C3A 8393  37.537  34.030   8.158
  389POPC   C4A 8394  37.493  33.971   7.733
  389POPC   C1B 8395  37.756  34.064   8.732
  389POPC   C2B 8396  37.934  34.244   8.371
  389POPC   C3B 8397  38.103  34.053   8.013
  389POPC   C4B 8398  37.991  33.892   7.650
  390POPC   NC3 8399  29.509  29.653   9.536
  390POPC   PO4 8400  29.911  29.032   9.573
  390POPC   GL1 8401  29.956  29.163   9.150
  390POPC   GL2 8402  29.671  29.373   9.131
  390POPC   C1A 8403  29.857  28.982   8.724
  390POPC   D2A 8404  29.677  28.958   8.299
  390POPC   C3A 8405  29.996  28.931   7.976
  390POPC   C4A 8406  30.009  29.128   7.578
  390POPC   C1B 8407  29.834  29.485   8.752
  390POPC   C2B 8408  29.709  29.492   8.361
  390POPC   C3B 8409  29.850  29.454   7.973
  390POPC   C4B 8410  29.608  29.546   7.654
  391POPC   NC3 8411  27.997  38.729   9.559
  391POPC   PO4 8412  27.460  38.324   9.674
  391POPC   GL1 8413  27.699  38.401   9.253
  391POPC   GL2 8414  27.880  38.696   9.071
  391POPC   C1A 8415  27.818  38.267   8.823
  391POPC   D2A 8416  27.630  38.359   8.419
  391POPC   C3A 8417  27.806  38.237   8.041
  391POPC   C4A 8418  27.679  38.303   7.599
  391POPC   C1B 8419  27.463  38.673   8.822
  391POPC   C2B 8420  27.287  38.774   8.383
  391POPC   C3B 8421  27.394  38.566   7.975
  391POPC   C4B 8422  27.403  38.712   7.532
  392POPC   NC3 8423   2.080  41.746   9.514
  392POPC   PO4 8424   2.271  41.088   9.563
  392POPC   GL1 8425   2.002  41.259   9.267
  392POPC   GL2 8426   2.251  41.449   9.138
  392POPC   C1A 8427   1.842  41.358   8.843
  392POPC   D2A 8428   2.001  41.337   8.419
  392POPC   C3A 8429   1.967  41.667   8.092
  392POPC   C4A 8430   1.781  41.780   7.705
  392POPC   C1B 8431   2.234  41.704   8.785
  392POPC   C2B 8432   2.383  41.663   8.383
  392POPC   C3B 8433   2.428  41.942   8.025
  392POPC   C4B 8434   2.277  41.819   7.665
  393POPC   NC3 8435  42.941  43.767   9.748
  393POPC   PO4 8436  42.402  43.884   9.404
  393POPC   GL1 8437  42.699  43.921   9.068
  393POPC   GL2 8438  42.750  43.615   8.901
  393POPC   C1A 8439  42.670  44.104   8.678
  393POPC   D2A 8440  42.356  44.042   8.362
  393POPC   C3A 8441  42.480  44.011   7.945
  393POPC   C4A 8442  42.470  44.208   7.563
  393POPC   C1B 8443  42.385  43.638   8.688
  393POPC   C2B 8444  42.301  43.544   8.254
  393POPC   C3B 8445  42.337  43.507   7.824
  393POPC   C4B 8446  42.538  43.252   7.464
  394POPC   NC3 8447  44.588  28.653   9.480
  394POPC   PO4 8448  44.582  27.940   9.675
  394POPC   GL1 8449  44.469  28.247   9.221
  394POPC   GL2 8450  44.351  28.553   9.038
  394POPC   C1A 8451  44.580  28.223   8.742
  394POPC   D2A 8452  44.748  27.984   8.413
  394POPC   C3A 8453  44.658  28.240   8.076
  394POPC   C4A 8454  44.911  28.185   7.766
  394POPC   C1B 8455  44.666  28.723   8.722
  394POPC   C2B 8456  44.639  28.779   8.254
  394POPC   C3B 8457  44.689  28.698   7.775
  394POPC   C4B 8458  44.778  28.886   7.325
  395POPC   NC3 8459  30.678   1.639   9.926
  395POPC   PO4 8460  30.696   1.092   9.581
  395POPC   GL1 8461  30.812   1.076   9.172
  395POPC   GL2 8462  30.679   1.417   9.093
  395POPC   C1A 8463  30.750   0.922   8.759
  395POPC   D2A 8464  30.676   1.133   8.378
  395POPC   C3A 8465  30.753   0.915   7.986
  395POPC   C4A 8466  30.700   1.081   7.588
  395POPC   C1B 8467  30.477   1.646   8.716
  395POPC   C2B 8468  30.392   1.553   8.260
  395POPC   C3B 8469  30.591   1.532   7.833
  395POPC   C4B 8470  30.474   1.612   7.367
  396POPC   NC3 8471  23.688  14.743   9.551
  396POPC   PO4 8472  23.234  14.230   9.343
  396POPC   GL1 8473  23.685  14.371   9.160
  396POPC   GL2 8474  23.941  14.681   9.118
  396POPC   C1A 8475  23.800  14.421   8.707
  396POPC   D2A 8476  23.544  14.596   8.373
  396POPC   C3A 8477  23.598  14.473   7.950
  396POPC   C4A 8478  23.433  14.700   7.607
  396POPC   C1B 8479  24.211  14.771   8.748
  396POPC   C2B 8480  24.241  14.570   8.317
  396POPC   C3B 8481  24.110  14.574   7.862
  396POPC   C4B 8482  23.882  14.565   7.451
  397POPC   NC3 8483  34.778  29.034   9.506
  397POPC   PO4 8484  34.180  29.196   9.514
  397POPC   GL1 8485  34.452  29.321   9.152
  397POPC   GL2 8486  34.831  29.329   9.107
  397POPC   C1A 8487  34.436  29.206   8.699
  397POPC   D2A 8488  34.594  28.927   8.355
  397POPC   C3A 8489  34.376  28.896   7.943
  397POPC   C4A 8490  34.469  29.037   7.525
  397POPC   C1B 8491  34.953  29.143   8.726
  397POPC   C2B 8492  34.859  29.361   8.362
  397POPC   C3B 8493  34.687  29.286   7.960
  397POPC   C4B 8494  34.671  29.512   7.584
  398POPC   NC3 8495  33.788  21.130   9.642
  398POPC   PO4 8496  34.152  21.629   9.480
  398POPC   GL1 8497  33.918  21.404   9.181
  398POPC   GL2 8498  33.559  21.324   9.214
  398POPC   C1A 8499  34.003  21.317   8.763
  398POPC   D2A 8500  34.187  21.307   8.359
  398POPC   C3A 8501  33.911  21.243   8.039
  398POPC   C4A 8502  33.661  21.220   7.693
  398POPC   C1B 8503  33.517  21.491   8.791
  398POPC   C2B 8504  33.491  21.315   8.345
  398POPC   C3B 8505  33.546  21.627   7.970
  398POPC   C4B 8506  33.560  21.731   7.498
  399POPC   NC3 8507   3.306   2.317   9.505
  399POPC   PO4 8508   3.795   1.840   9.471
  399POPC   GL1 8509   3.497   1.772   9.117
  399POPC   GL2 8510   3.401   2.079   9.095
  399POPC   C1A 8511   3.500   1.858   8.661
  399POPC   D2A 8512   3.878   1.891   8.448
  399POPC   C3A 8513   3.796   1.761   8.050
  399POPC   C4A 8514   3.460   1.678   7.778
  399POPC   C1B 8515   3.152   2.246   8.773
  399POPC   C2B 8516   3.054   2.062   8.398
  399POPC   C3B 8517   3.328   2.092   8.051
  399POPC   C4B 8518   3.450   2.314   7.686
  400POPC   NC3 8519  38.612  36.233   9.789
  400POPC   PO4 8520  38.083  35.903   9.570
  400POPC   GL1 8521  38.285  36.075   9.238
  400POPC   GL2 8522  38.546  36.307   9.287
  400POPC   C1A 8523  38.272  36.095   8.816
  400POPC   D2A 8524  38.395  36.311   8.456
  400POPC   C3A 8525  38.470  36.003   8.161
  400POPC   C4A 8526  38.357  36.082   7.739
  400POPC   C1B 8527  38.751  36.403   8.907
  400POPC   C2B 8528  38.879  36.496   8.462
  400POPC   C3B 8529  38.802  36.358   8.020
  400POPC   C4B 8530  38.777  36.343   7.558
  401POPC   NC3 8531  25.959  43.919   9.412
  401POPC   PO4 8532  26.218  43.436   9.773
  401POPC   GL1 8533  26.072  43.430   9.248
  401POPC   GL2 8534  25.771  43.530   9.141
  401POPC   C1A 8535  26.097  43.749   8.805
  401POPC   D2A 8536  26.248  44.052   8.471
  401POPC   C3A 8537  26.192  43.850   8.082
  401POPC   C4A 8538  25.949  43.947   7.735
  401POPC   C1B 8539  25.608  43.632   8.742
  401POPC   C2B 8540  25.717  43.805   8.326
  401POPC   C3B 8541  25.622  43.573   7.920
  401POPC   C4B 8542  25.655  43.619   7.439
  402POPC   NC3 8543  15.738  26.641   9.472
  402POPC   PO4 8544  15.557  27.301   9.449
  402POPC   GL1 8545  15.893  27.055   9.104
  402POPC   GL2 8546  16.013  26.647   9.066
  402POPC   C1A 8547  16.144  26.953   8.684
  402POPC   D2A 8548  16.317  27.078   8.245
  402POPC   C3A 8549  16.061  27.126   7.865
  402POPC   C4A 8550  15.682  26.868   7.835
  402POPC   C1B 8551  15.822  26.527   8.693
  402POPC   C2B 8552  15.869  26.714   8.297
  402POPC   C3B 8553  16.122  26.641   7.952
  402POPC   C4B 8554  15.986  26.382   7.628
  403POPC   NC3 8555  18.151  21.423   9.482
  403POPC   PO4 8556  18.511  20.951   9.719
  403POPC   GL1 8557  18.367  21.055   9.213
  403POPC   GL2 8558  18.024  21.179   9.063
  403POPC   C1A 8559  18.395  21.356   8.797
  403POPC   D2A 8560  18.258  21.526   8.439
  403POPC   C3A 8561  18.381  21.352   8.105
  403POPC   C4A 8562  18.238  21.128   7.803
  403POPC   C1B 8563  17.892  21.601   8.799
  403POPC   C2B 8564  17.857  21.804   8.348
  403POPC   C3B 8565  17.929  21.533   7.966
  403POPC   C4B 8566  18.310  21.590   7.634
  404POPC   NC3 8567   7.231  25.685   9.509
  404POPC   PO4 8568   7.641  26.161   9.605
  404POPC   GL1 8569   7.601  25.915   9.210
  404POPC   GL2 8570   7.785  26.172   9.038
  404POPC   C1A 8571   7.306  25.921   8.818
  404POPC   D2A 8572   7.277  26.139   8.402
  404POPC   C3A 8573   7.120  26.086   7.945
  404POPC   C4A 8574   7.368  26.012   7.546
  404POPC   C1B 8575   7.795  25.808   8.742
  404POPC   C2B 8576   7.609  25.738   8.362
  404POPC   C3B 8577   7.621  26.044   8.013
  404POPC   C4B 8578   7.880  26.096   7.645
  405POPC   NC3 8579   8.861  18.041   9.300
  405POPC   PO4 8580   9.341  18.403   9.435
  405POPC   GL1 8581   9.135  18.463   9.070
  405POPC   GL2 8582   8.756  18.447   9.012
  405POPC   C1A 8583   9.133  18.218   8.721
  405POPC   D2A 8584   8.855  18.171   8.410
  405POPC   C3A 8585   9.110  18.128   8.062
  405POPC   C4A 8586   9.148  18.281   7.667
  405POPC   C1B 8587   8.873  18.661   8.630
  405POPC   C2B 8588   8.903  18.606   8.162
  405POPC   C3B 8589   8.681  18.344   7.842
  405POPC   C4B 8590   8.708  18.302   7.371
  406POPC   NC3 8591  13.777  32.963   9.593
  406POPC   PO4 8592  13.176  33.222   9.776
  406POPC   GL1 8593  13.428  33.276   9.287
  406POPC   GL2 8594  13.811  33.161   9.133
  406POPC   C1A 8595  13.498  33.342   8.796
  406POPC   D2A 8596  13.870  33.242   8.511
  406POPC   C3A 8597  13.780  33.127   8.072
  406POPC   C4A 8598  13.623  33.122   7.640
  406POPC   C1B 8599  13.717  32.823   8.783
  406POPC   C2B 8600  13.650  32.637   8.343
  406POPC   C3B 8601  13.527  32.704   7.951
  406POPC   C4B 8602  13.869  32.700   7.716
  407POPC   NC3 8603  33.035  38.659   9.523
  407POPC   PO4 8604  32.734  38.119   9.714
  407POPC   GL1 8605  32.992  38.208   9.244
  407POPC   GL2 8606  33.284  38.387   9.141
  407POPC   C1A 8607  32.966  38.229   8.778
  407POPC   D2A 8608  33.108  38.220   8.346
  407POPC   C3A 8609  32.787  38.430   8.129
  407POPC   C4A 8610  32.745  38.718   7.813
  407POPC   C1B 8611  33.424  38.657   8.782
  407POPC   C2B 8612  33.355  38.815   8.374
  407POPC   C3B 8613  33.248  38.642   7.968
  407POPC   C4B 8614  33.372  38.285   7.742
  408POPC   NC3 8615  12.236  12.366   9.599
  408POPC   PO4 8616  11.879  11.864   9.730
  408POPC   GL1 8617  11.938  12.267   9.226
  408POPC   GL2 8618  12.295  12.187   9.123
  408POPC   C1A 8619  11.971  12.197   8.737
  408POPC   D2A 8620  11.842  11.903   8.418
  408POPC   C3A 8621  11.844  12.077   7.998
  408POPC   C4A 8622  11.881  11.820   7.647
  408POPC   C1B 8623  12.470  12.023   8.742
  408POPC   C2B 8624  12.342  11.954   8.345
  408POPC   C3B 8625  12.357  11.989   7.929
  408POPC   C4B 8626  12.302  12.058   7.500
  409POPC   NC3 8627   6.086  15.939   9.617
  409POPC   PO4 8628   5.485  16.208   9.335
  409POPC   GL1 8629   5.746  15.952   9.060
  409POPC   GL2 8630   6.082  15.854   9.121
  409POPC   C1A 8631   5.789  15.980   8.612
  409POPC   D2A 8632   5.635  15.835   8.222
  409POPC   C3A 8633   5.860  16.035   7.932
  409POPC   C4A 8634   5.816  16.130   7.525
  409POPC   C1B 8635   6.290  16.019   8.799
  409POPC   C2B 8636   6.257  16.133   8.383
  409POPC   C3B 8637   6.358  15.979   7.981
  409POPC   C4B 8638   6.215  15.844   7.574
  410POPC   NC3 8639  41.323   3.992   9.382
  410POPC   PO4 8640  41.858   3.647   9.710
  410POPC   GL1 8641  41.709   3.678   9.255
  410POPC   GL2 8642  41.484   3.463   9.154
  410POPC   C1A 8643  41.523   3.822   8.820
  410POPC   D2A 8644  41.484   3.862   8.416
  410POPC   C3A 8645  41.651   3.597   8.123
  410POPC   C4A 8646  41.537   3.711   7.725
  410POPC   C1B 8647  41.380   3.340   8.741
  410POPC   C2B 8648  41.207   3.422   8.325
  410POPC   C3B 8649  41.310   3.252   7.924
  410POPC   C4B 8650  41.572   3.196   7.570
  411POPC   NC3 8651  21.290  37.783   9.516
  411POPC   PO4 8652  21.081  37.088   9.465
  411POPC   GL1 8653  21.131  37.479   9.134
  411POPC   GL2 8654  21.481  37.661   9.069
  411POPC   C1A 8655  21.247  37.372   8.701
  411POPC   D2A 8656  21.213  37.117   8.312
  411POPC   C3A 8657  21.342  37.409   7.982
  411POPC   C4A 8658  21.090  37.828   7.913
  411POPC   C1B 8659  21.556  37.791   8.662
  411POPC   C2B 8660  21.497  38.146   8.406
  411POPC   C3B 8661  21.784  38.294   8.137
  411POPC   C4B 8662  21.619  38.225   7.761
  412POPC   NC3 8663  13.516  36.633   9.458
  412POPC   PO4 8664  14.123  36.373   9.298
  412POPC   GL1 8665  13.759  36.649   9.022
  412POPC   GL2 8666  13.543  36.992   9.109
  412POPC   C1A 8667  13.428  36.770   8.672
  412POPC   D2A 8668  13.620  36.708   8.265
  412POPC   C3A 8669  13.485  36.862   7.879
  412POPC   C4A 8670  13.413  36.905   7.408
  412POPC   C1B 8671  13.799  37.114   8.787
  412POPC   C2B 8672  13.745  37.216   8.375
  412POPC   C3B 8673  13.940  37.085   8.028
  412POPC   C4B 8674  13.880  37.024   7.614
  413POPC   NC3 8675  31.173  44.177   9.427
  413POPC   PO4 8676  31.876  44.104   9.438
  413POPC   GL1 8677  31.580  43.878   9.142
  413POPC   GL2 8678  31.435  43.537   9.247
  413POPC   C1A 8679  31.480  43.949   8.694
  413POPC   D2A 8680  31.331  44.099   8.292
  413POPC   C3A 8681  31.415  43.845   7.935
  413POPC   C4A 8682  31.436  43.972   7.495
  413POPC   C1B 8683  31.231  43.538   8.844
  413POPC   C2B 8684  31.375  43.476   8.417
  413POPC   C3B 8685  31.097  43.455   8.068
  413POPC   C4B 8686  31.064  43.614   7.644
  414POPC   NC3 8687  12.549  35.050   9.437
  414POPC   PO4 8688  12.729  35.628   9.413
  414POPC   GL1 8689  13.080  35.512   9.118
  414POPC   GL2 8690  13.177  35.166   9.233
  414POPC   C1A 8691  13.045  35.440   8.645
  414POPC   D2A 8692  12.644  35.305   8.422
  414POPC   C3A 8693  12.616  35.489   8.005
  414POPC   C4A 8694  12.978  35.507   7.744
  414POPC   C1B 8695  12.878  35.023   8.888
  414POPC   C2B 8696  12.966  34.893   8.495
  414POPC   C3B 8697  13.003  35.070   8.106
  414POPC   C4B 8698  12.743  35.017   7.785
  415POPC   NC3 8699  16.890  36.632   9.266
  415POPC   PO4 8700  17.403  36.863   9.574
  415POPC   GL1 8701  17.618  36.809   9.174
  415POPC   GL2 8702  17.357  36.597   9.081
  415POPC   C1A 8703  17.616  37.066   8.765
  415POPC   D2A 8704  17.303  37.307   8.506
  415POPC   C3A 8705  17.246  37.176   8.079
  415POPC   C4A 8706  17.588  37.034   7.803
  415POPC   C1B 8707  17.446  36.596   8.664
  415POPC   C2B 8708  17.496  36.779   8.280
  415POPC   C3B 8709  17.240  36.663   7.947
  415POPC   C4B 8710  17.198  36.848   7.556
  416POPC   NC3 8711  16.788  34.100   9.668
  416POPC   PO4 8712  16.588  34.669   9.405
  416POPC   GL1 8713  16.897  34.493   9.180
  416POPC   GL2 8714  17.014  34.150   9.145
  416POPC   C1A 8715  16.947  34.651   8.789
  416POPC   D2A 8716  16.672  34.587   8.459
  416POPC   C3A 8717  16.862  34.688   8.090
  416POPC   C4A 8718  16.739  34.608   7.706
  416POPC   C1B 8719  16.643  34.216   8.849
  416POPC   C2B 8720  16.429  34.056   8.495
  416POPC   C3B 8721  16.522  34.245   8.085
  416POPC   C4B 8722  16.437  34.183   7.680
  417POPC   NC3 8723  30.852  32.136   9.610
  417POPC   PO4 8724  30.431  32.628   9.579
  417POPC   GL1 8725  30.607  32.384   9.185
  417POPC   GL2 8726  30.880  32.109   9.115
  417POPC   C1A 8727  30.782  32.459   8.744
  417POPC   D2A 8728  31.001  32.379   8.333
  417POPC   C3A 8729  30.737  32.561   8.003
  417POPC   C4A 8730  30.380  32.445   7.748
  417POPC   C1B 8731  31.074  31.983   8.721
  417POPC   C2B 8732  30.978  31.719   8.391
  417POPC   C3B 8733  30.738  31.922   8.150
  417POPC   C4B 8734  30.787  32.102   7.801
  418POPC   NC3 8735  41.066  22.505   9.677
  418POPC   PO4 8736  40.625  22.019   9.735
  418POPC   GL1 8737  40.763  22.125   9.304
  418POPC   GL2 8738  41.001  22.392   9.189
  418POPC   C1A 8739  40.587  22.304   8.917
  418POPC   D2A 8740  40.617  22.489   8.496
  418POPC   C3A 8741  40.454  22.188   8.194
  418POPC   C4A 8742  40.517  22.117   7.770
  418POPC   C1B 8743  41.077  22.316   8.759
  418POPC   C2B 8744  40.924  22.086   8.393
  418POPC   C3B 8745  40.921  22.306   8.009
  418POPC   C4B 8746  41.252  22.546   7.831
  419POPC   NC3 8747  40.029  26.466   9.505
  419POPC   PO4 8748  40.010  27.195   9.523
  419POPC   GL1 8749  40.001  26.885   9.197
  419POPC   GL2 8750  40.308  26.713   9.139
  419POPC   C1A 8751  40.028  26.929   8.758
  419POPC   D2A 8752  40.057  26.763   8.372
  419POPC   C3A 8753  40.163  26.982   8.033
  419POPC   C4A 8754  40.013  26.943   7.671
  419POPC   C1B 8755  40.348  26.502   8.759
  419POPC   C2B 8756  40.224  26.297   8.378
  419POPC   C3B 8757  40.308  26.492   7.969
  419POPC   C4B 8758  40.489  26.752   7.588
  420POPC   NC3 8759   2.892  14.251   9.503
  420POPC   PO4 8760   2.562  14.733   9.175
  420POPC   GL1 8761   2.736  14.329   9.016
  420POPC   GL2 8762   3.089  14.114   9.059
  420POPC   C1A 8763   2.998  14.432   8.680
  420POPC   D2A 8764   2.976  14.663   8.314
  420POPC   C3A 8765   2.956  14.492   7.919
  420POPC   C4A 8766   2.539  14.659   7.789
  420POPC   C1B 8767   2.873  13.938   8.723
  420POPC   C2B 8768   2.543  14.160   8.518
  420POPC   C3B 8769   2.547  14.199   8.073
  420POPC   C4B 8770   2.917  13.958   7.906
  421POPC   NC3 8771  36.374  20.883   9.327
  421POPC   PO4 8772  35.815  20.501   9.514
  421POPC   GL1 8773  36.012  20.554   9.096
  421POPC   GL2 8774  36.410  20.538   8.967
  421POPC   C1A 8775  35.987  20.394   8.668
  421POPC   D2A 8776  36.268  20.377   8.325
  421POPC   C3A 8777  35.978  20.357   7.985
  421POPC   C4A 8778  35.805  20.716   7.771
  421POPC   C1B 8779  36.188  20.871   8.717
  421POPC   C2B 8780  36.039  20.832   8.322
  421POPC   C3B 8781  36.280  20.774   7.968
  421POPC   C4B 8782  36.209  21.072   7.699
  422POPC   NC3 8783  20.429  33.478   9.457
  422POPC   PO4 8784  20.902  34.007   9.593
  422POPC   GL1 8785  21.005  33.900   9.171
  422POPC   GL2 8786  20.829  33.591   9.128
  422POPC   C1A 8787  20.876  33.882   8.714
  422POPC   D2A 8788  20.531  33.899   8.394
  422POPC   C3A 8789  20.691  33.834   7.961
  422POPC   C4A 8790  20.433  33.838   7.611
  422POPC   C1B 8791  20.440  33.560   8.807
  422POPC   C2B 8792  20.387  33.348   8.393
  422POPC   C3B 8793  20.311  33.457   7.957
  422POPC   C4B 8794  20.440  33.336   7.544
  423POPC   NC3 8795   3.953  28.844   9.538
  423POPC   PO4 8796   3.279  29.251   9.442
  423POPC   GL1 8797   3.444  28.964   9.147
  423POPC   GL2 8798   3.786  29.116   9.095
  423POPC   C1A 8799   3.207  28.784   8.778
  423POPC   D2A 8800   3.080  28.975   8.375
  423POPC   C3A 8801   3.283  28.950   7.977
  423POPC   C4A 8802   3.657  29.153   7.835
  423POPC   C1B 8803   3.474  29.253   8.732
  423POPC   C2B 8804   3.470  29.399   8.300
  423POPC   C3B 8805   3.282  29.502   7.923
  423POPC   C4B 8806   3.060  29.517   7.530
  424POPC   NC3 8807   3.917   9.487   9.506
  424POPC   PO4 8808   4.377  10.027   9.535
  424POPC   GL1 8809   4.347   9.941   9.114
  424POPC   GL2 8810   4.327   9.597   9.116
  424POPC   C1A 8811   4.084   9.885   8.727
  424POPC   D2A 8812   3.966   9.570   8.390
  424POPC   C3A 8813   3.980   9.741   7.962
  424POPC   C4A 8814   4.397   9.836   7.781
  424POPC   C1B 8815   4.521   9.626   8.674
  424POPC   C2B 8816   4.462   9.559   8.222
  424POPC   C3B 8817   4.273   9.338   7.886
  424POPC   C4B 8818   4.239   9.449   7.457
  425POPC   NC3 8819   2.781  11.280   9.825
  425POPC   PO4 8820   2.341  11.018   9.417
  425POPC   GL1 8821   2.763  11.095   9.148
  425POPC   GL2 8822   2.986  11.439   9.125
  425POPC   C1A 8823   2.639  11.300   8.730
  425POPC   D2A 8824   2.696  11.143   8.318
  425POPC   C3A 8825   2.531  10.859   7.984
  425POPC   C4A 8826   2.640  11.207   7.747
  425POPC   C1B 8827   3.016  11.659   8.768
  425POPC   C2B 8828   2.808  11.685   8.420
  425POPC   C3B 8829   2.807  11.571   8.042
  425POPC   C4B 8830   3.002  11.657   7.657
  426POPC   NC3 8831  41.769   8.877   9.418
  426POPC   PO4 8832  41.164   9.159   9.550
  426POPC   GL1 8833  41.357   9.089   9.146
  426POPC   GL2 8834  41.464   9.371   9.126
  426POPC   C1A 8835  41.652   8.918   8.792
  426POPC   D2A 8836  41.635   8.604   8.479
  426POPC   C3A 8837  41.739   8.754   8.062
  426POPC   C4A 8838  41.469   8.700   7.690
  426POPC   C1B 8839  41.336   9.292   8.689
  426POPC   C2B 8840  41.511   9.203   8.272
  426POPC   C3B 8841  41.544   9.180   7.822
  426POPC   C4B 8842  41.268   9.102   7.469
  427POPC   NC3 8843  32.368  44.064   9.548
  427POPC   PO4 8844  32.179  43.411   9.675
  427POPC   GL1 8845  32.383  43.587   9.302
  427POPC   GL2 8846  32.089  43.703   9.144
  427POPC   C1A 8847  32.540  43.680   8.859
  427POPC   D2A 8848  32.341  43.588   8.417
  427POPC   C3A 8849  32.537  43.812   8.089
  427POPC   C4A 8850  32.389  44.181   7.903
  427POPC   C1B 8851  31.974  43.786   8.716
  427POPC   C2B 8852  31.825  43.895   8.277
  427POPC   C3B 8853  31.904  43.952   7.802
  427POPC   C4B 8854  31.853  43.680   7.440
  428POPC   NC3 8855  32.191  22.698   9.527
  428POPC   PO4 8856  32.626  23.216   9.434
  428POPC   GL1 8857  32.454  22.960   9.173
  428POPC   GL2 8858  32.133  23.066   9.158
  428POPC   C1A 8859  32.457  22.652   8.901
  428POPC   D2A 8860  32.401  22.739   8.510
  428POPC   C3A 8861  32.262  22.657   8.120
  428POPC   C4A 8862  32.491  22.919   7.835
  428POPC   C1B 8863  31.983  22.829   8.809
  428POPC   C2B 8864  31.962  22.965   8.400
  428POPC   C3B 8865  32.004  23.084   7.973
  428POPC   C4B 8866  31.941  22.785   7.724
  429POPC   NC3 8867  43.455  11.894   9.637
  429POPC   PO4 8868  43.223  12.401   9.327
  429POPC   GL1 8869  43.219  12.001   9.175
  429POPC   GL2 8870  42.979  12.123   8.937
  429POPC   C1A 8871  43.311  11.775   8.810
  429POPC   D2A 8872  43.269  12.051   8.435
  429POPC   C3A 8873  43.145  11.835   8.070
  429POPC   C4A 8874  43.222  11.823   7.635
  429POPC   C1B 8875  42.660  12.370   8.752
  429POPC   C2B 8876  42.608  12.208   8.380
  429POPC   C3B 8877  42.697  12.274   8.006
  429POPC   C4B 8878  43.067  12.275   7.795
  430POPC   NC3 8879  21.097  43.668   9.462
  430POPC   PO4 8880  21.653  44.016   9.412
  430POPC   GL1 8881  21.513  43.725   9.118
  430POPC   GL2 8882  21.244  43.936   9.044
  430POPC   C1A 8883  21.709  43.659   8.701
  430POPC   D2A 8884  21.960  43.931   8.406
  430POPC   C3A 8885  21.778  44.058   7.980
  430POPC   C4A 8886  21.327  44.077   7.857
  430POPC   C1B 8887  21.229  43.775   8.634
  430POPC   C2B 8888  21.441  43.722   8.233
  430POPC   C3B 8889  21.153  43.572   7.924
  430POPC   C4B 8890  20.734  43.518   7.817
  431POPC   NC3 8891  36.805  35.876   9.551
  431POPC   PO4 8892  37.223  36.404   9.481
  431POPC   GL1 8893  37.017  36.157   9.158
  431POPC   GL2 8894  36.676  36.253   9.189
  431POPC   C1A 8895  37.102  35.822   8.823
  431POPC   D2A 8896  36.918  35.735   8.441
  431POPC   C3A 8897  37.107  35.778   8.010
  431POPC   C4A 8898  37.193  36.004   7.596
  431POPC   C1B 8899  36.626  36.030   8.810
  431POPC   C2B 8900  36.580  36.143   8.397
  431POPC   C3B 8901  36.600  35.909   8.063
  431POPC   C4B 8902  36.707  36.017   7.710
  432POPC   NC3 8903  44.452  15.151   9.621
  432POPC   PO4 8904   0.069  14.982   9.556
  432POPC   GL1 8905  44.851  15.209   9.217
  432POPC   GL2 8906  44.523  15.040   9.144
  432POPC   C1A 8907  44.679  15.366   8.798
  432POPC   D2A 8908  44.741  15.204   8.387
  432POPC   C3A 8909  44.672  15.374   7.988
  432POPC   C4A 8910  44.717  15.151   7.601
  432POPC   C1B 8911  44.351  14.743   8.875
  432POPC   C2B 8912  44.135  14.842   8.516
  432POPC   C3B 8913  44.272  15.054   8.165
  432POPC   C4B 8914  44.356  14.872   7.795
  433POPC   NC3 8915  24.824  35.984   9.493
  433POPC   PO4 8916  24.363  36.412   9.438
  433POPC   GL1 8917  24.472  36.097   9.117
  433POPC   GL2 8918  24.500  35.741   9.147
  433POPC   C1A 8919  24.680  36.112   8.731
  433POPC   D2A 8920  24.505  36.269   8.354
  433POPC   C3A 8921  24.574  36.424   7.948
  433POPC   C4A 8922  24.214  36.258   7.755
  433POPC   C1B 8923  24.545  35.582   8.772
  433POPC   C2B 8924  24.603  35.731   8.391
  433POPC   C3B 8925  24.471  35.853   8.005
  433POPC   C4B 8926  24.723  36.000   7.693
  434POPC   NC3 8927  40.697   0.845   9.567
  434POPC   PO4 8928  40.435   1.483   9.512
  434POPC   GL1 8929  40.533   1.226   9.176
  434POPC   GL2 8930  40.896   1.193   9.127
  434POPC   C1A 8931  40.601   1.071   8.755
  434POPC   D2A 8932  40.959   0.957   8.544
  434POPC   C3A 8933  40.940   0.963   8.115
  434POPC   C4A 8934  40.685   1.140   7.786
  434POPC   C1B 8935  41.128   1.388   8.782
  434POPC   C2B 8936  41.316   1.363   8.371
  434POPC   C3B 8937  41.163   1.383   7.937
  434POPC   C4B 8938  41.114   1.636   7.573
  435POPC   NC3 8939  25.487  44.754   9.514
  435POPC   PO4 8940  24.873  44.449   9.562
  435POPC   GL1 8941  24.996  44.445   9.108
  435POPC   GL2 8942  25.344  44.412   9.142
  435POPC   C1A 8943  25.030  44.677   8.691
  435POPC   D2A 8944  25.320  44.835   8.353
  435POPC   C3A 8945  25.262  44.776   7.942
  435POPC   C4A 8946  25.155  44.394   7.854
  435POPC   C1B 8947  25.535  44.578   8.766
  435POPC   C2B 8948  25.775  44.347   8.463
  435POPC   C3B 8949  25.693  44.314   8.042
  435POPC   C4B 8950  25.623  44.491   7.656
  436POPC   NC3 8951  24.591  34.419   9.815
  436POPC   PO4 8952  24.395  33.884   9.453
  436POPC   GL1 8953  24.573  33.753   9.098
  436POPC   GL2 8954  24.307  33.503   9.091
  436POPC   C1A 8955  24.694  33.963   8.722
  436POPC   D2A 8956  24.458  34.122   8.363
  436POPC   C3A 8957  24.610  33.874   8.025
  436POPC   C4A 8958  24.735  33.939   7.600
  436POPC   C1B 8959  24.192  33.721   8.759
  436POPC   C2B 8960  24.430  33.608   8.450
  436POPC   C3B 8961  24.390  33.385   8.122
  436POPC   C4B 8962  24.405  33.501   7.708
  437POPC   NC3 8963  13.150  43.491   9.539
  437POPC   PO4 8964  12.703  43.961   9.624
  437POPC   GL1 8965  12.790  43.756   9.251
  437POPC   GL2 8966  13.109  43.890   9.178
  437POPC   C1A 8967  12.738  43.833   8.815
  437POPC   D2A 8968  12.879  43.648   8.425
  437POPC   C3A 8969  12.615  43.719   8.090
  437POPC   C4A 8970  12.704  43.638   7.672
  437POPC   C1B 8971  13.256  43.837   8.745
  437POPC   C2B 8972  13.350  43.862   8.306
  437POPC   C3B 8973  13.106  43.815   7.945
  437POPC   C4B 8974  13.107  43.909   7.502
  438POPC   NC3 8975  11.597   3.003   9.590
  438POPC   PO4 8976  11.305   2.483   9.276
  438POPC   GL1 8977  11.277   2.874   9.131
  438POPC   GL2 8978  11.630   2.884   9.087
  438POPC   C1A 8979  11.226   3.069   8.716
  438POPC   D2A 8980  10.980   3.203   8.376
  438POPC   C3A 8981  11.189   3.120   7.970
  438POPC   C4A 8982  11.185   2.738   7.759
  438POPC   C1B 8983  11.510   2.649   8.707
  438POPC   C2B 8984  11.417   2.768   8.295
  438POPC   C3B 8985  11.650   2.644   7.948
  438POPC   C4B 8986  11.624   2.658   7.523
  439POPC   NC3 8987  44.228  17.526   9.557
  439POPC   PO4 8988  43.619  17.448   9.514
  439POPC   GL1 8989  43.824  17.641   9.177
  439POPC   GL2 8990  44.127  17.459   9.070
  439POPC   C1A 8991  43.784  17.583   8.734
  439POPC   D2A 8992  43.993  17.458   8.388
  439POPC   C3A 8993  43.794  17.557   8.042
  439POPC   C4A 8994  43.888  17.892   7.779
  439POPC   C1B 8995  44.052  17.117   8.759
  439POPC   C2B 8996  44.190  16.994   8.336
  439POPC   C3B 8997  44.321  17.291   8.014
  439POPC   C4B 8998  44.280  17.475   7.595
  440POPC   NC3 8999  35.563  18.009   9.633
  440POPC   PO4 9000  35.267  17.426   9.570
  440POPC   GL1 9001  35.271  17.499   9.137
  440POPC   GL2 9002  35.386  17.844   9.180
  440POPC   C1A 9003  35.493  17.548   8.755
  440POPC   D2A 9004  35.410  17.395   8.373
  440POPC   C3A 9005  35.598  17.514   8.051
  440POPC   C4A 9006  35.374  17.465   7.728
  440POPC   C1B 9007  35.168  17.926   8.829
  440POPC   C2B 9008  35.107  17.817   8.454
  440POPC   C3B 9009  35.175  17.834   8.030
  440POPC   C4B 9010  35.035  17.847   7.606
  441POPC   NC3 9011   7.622   9.106   9.488
  441POPC   PO4 9012   7.148   8.700   9.576
  441POPC   GL1 9013   6.955   8.817   9.191
  441POPC   GL2 9014   7.131   9.133   9.181
  441POPC   C1A 9015   7.140   8.792   8.769
  441POPC   D2A 9016   7.537   8.877   8.523
  441POPC   C3A 9017   7.523   8.815   8.069
  441POPC   C4A 9018   7.796   9.088   7.810
  441POPC   C1B 9019   7.285   9.285   8.814
  441POPC   C2B 9020   7.155   9.198   8.424
  441POPC   C3B 9021   7.384   9.317   8.086
  441POPC   C4B 9022   7.264   9.147   7.729
  442POPC   NC3 9023   8.766  25.721   9.465
  442POPC   PO4 9024   9.187  25.252   9.675
  442POPC   GL1 9025   9.089  25.370   9.259
  442POPC   GL2 9026   8.740  25.245   9.245
  442POPC   C1A 9027   9.259  25.342   8.849
  442POPC   D2A 9028   9.458  25.383   8.445
  442POPC   C3A 9029   9.309  25.116   8.102
  442POPC   C4A 9030   9.205  25.261   7.698
  442POPC   C1B 9031   8.741  25.372   8.829
  442POPC   C2B 9032   8.942  25.273   8.453
  442POPC   C3B 9033   8.844  25.338   8.037
  442POPC   C4B 9034   8.833  25.721   7.783
  443POPC   NC3 9035  22.818   4.805   9.346
  443POPC   PO4 9036  22.928   5.525   9.466
  443POPC   GL1 9037  23.033   5.267   9.119
  443POPC   GL2 9038  22.682   5.190   9.065
  443POPC   C1A 9039  23.024   5.056   8.687
  443POPC   D2A 9040  23.125   4.788   8.319
  443POPC   C3A 9041  23.085   4.870   7.853
  443POPC   C4A 9042  22.985   5.195   7.464
  443POPC   C1B 9043  22.524   4.928   8.721
  443POPC   C2B 9044  22.619   4.883   8.264
  443POPC   C3B 9045  22.666   5.131   7.890
  443POPC   C4B 9046  22.666   4.809   7.499
  444POPC   NC3 9047  21.179   1.895   9.571
  444POPC   PO4 9048  21.636   2.327   9.443
  444POPC   GL1 9049  21.437   2.120   9.091
  444POPC   GL2 9050  21.377   1.779   9.101
  444POPC   C1A 9051  21.272   2.070   8.644
  444POPC   D2A 9052  21.101   2.357   8.302
  444POPC   C3A 9053  21.143   2.212   7.846
  444POPC   C4A 9054  21.389   2.062   7.484
  444POPC   C1B 9055  21.083   1.606   8.823
  444POPC   C2B 9056  21.250   1.565   8.432
  444POPC   C3B 9057  21.244   1.707   7.984
  444POPC   C4B 9058  20.971   1.768   7.614
  445POPC   NC3 9059   8.583  19.399   9.346
  445POPC   PO4 9060   7.940  19.030   9.515
  445POPC   GL1 9061   8.079  18.928   9.126
  445POPC   GL2 9062   8.166  19.268   9.085
  445POPC   C1A 9063   7.851  18.836   8.735
  445POPC   D2A 9064   7.959  18.652   8.327
  445POPC   C3A 9065   7.795  18.883   7.982
  445POPC   C4A 9066   8.107  19.041   7.720
  445POPC   C1B 9067   8.247  19.146   8.661
  445POPC   C2B 9068   8.153  19.161   8.231
  445POPC   C3B 9069   8.311  19.457   7.929
  445POPC   C4B 9070   8.592  19.467   7.554
  446POPC   NC3 9071  18.367  23.885   9.464
  446POPC   PO4 9072  17.809  23.458   9.604
  446POPC   GL1 9073  17.989  23.677   9.187
  446POPC   GL2 9074  18.319  23.640   9.036
  446POPC   C1A 9075  18.005  23.897   8.747
  446POPC   D2A 9076  17.993  23.648   8.326
  446POPC   C3A 9077  18.024  23.807   7.872
  446POPC   C4A 9078  18.022  23.920   7.430
  446POPC   C1B 9079  18.520  23.967   8.819
  446POPC   C2B 9080  18.397  24.005   8.391
  446POPC   C3B 9081  18.526  23.829   8.000
  446POPC   C4B 9082  18.489  23.457   7.723
  447POPC   NC3 9083   8.700  21.802   9.478
  447POPC   PO4 9084   9.154  22.264   9.498
  447POPC   GL1 9085   9.085  21.981   9.172
  447POPC   GL2 9086   8.763  22.195   9.117
  447POPC   C1A 9087   8.962  21.914   8.761
  447POPC   D2A 9088   8.834  22.117   8.434
  447POPC   C3A 9089   8.990  21.917   8.074
  447POPC   C4A 9090   8.863  22.086   7.705
  447POPC   C1B 9091   9.090  22.411   8.840
  447POPC   C2B 9092   9.244  22.448   8.435
  447POPC   C3B 9093   9.053  22.425   8.053
  447POPC   C4B 9094   9.060  22.587   7.680
  448POPC   NC3 9095  14.047  39.052   9.488
  448POPC   PO4 9096  14.477  38.569   9.574
  448POPC   GL1 9097  14.446  38.487   9.163
  448POPC   GL2 9098  14.459  38.840   9.126
  448POPC   C1A 9099  14.538  38.265   8.802
  448POPC   D2A 9100  14.681  38.166   8.425
  448POPC   C3A 9101  14.398  38.217   8.080
  448POPC   C4A 9102  14.504  38.376   7.655
  448POPC   C1B 9103  14.782  38.757   8.844
  448POPC   C2B 9104  14.601  38.666   8.464
  448POPC   C3B 9105  14.628  38.695   8.045
  448POPC   C4B 9106  14.660  38.876   7.636
  449POPC   NC3 9107  26.467  21.378   9.498
  449POPC   PO4 9108  27.157  21.235   9.480
  449POPC   GL1 9109  26.824  21.237   9.166
  449POPC   GL2 9110  26.792  21.563   9.119
  449POPC   C1A 9111  26.582  21.295   8.754
  449POPC   D2A 9112  26.895  21.300   8.433
  449POPC   C3A 9113  26.927  21.508   8.056
  449POPC   C4A 9114  26.770  21.413   7.666
  449POPC   C1B 9115  26.960  21.725   8.757
  449POPC   C2B 9116  27.250  21.682   8.441
  449POPC   C3B 9117  27.365  21.771   8.023
  449POPC   C4B 9118  27.142  21.850   7.622
  450POPC   NC3 9119  41.792  28.355   9.686
  450POPC   PO4 9120  41.196  28.244   9.433
  450POPC   GL1 9121  41.572  28.437   9.230
  450POPC   GL2 9122  41.852  28.171   9.195
  450POPC   C1A 9123  41.693  28.583   8.822
  450POPC   D2A 9124  41.657  28.448   8.397
  450POPC   C3A 9125  41.548  28.683   8.036
  450POPC   C4A 9126  41.700  28.611   7.628
  450POPC   C1B 9127  42.024  28.184   8.762
  450POPC   C2B 9128  42.154  28.320   8.341
  450POPC   C3B 9129  41.900  28.266   7.975
  450POPC   C4B 9130  41.437  28.207   7.884
  451POPC   NC3 9131  15.844   8.464   9.615
  451POPC   PO4 9132  15.871   9.211   9.555
  451POPC   GL1 9133  15.852   8.918   9.197
  451POPC   GL2 9134  16.188   8.982   9.139
  451POPC   C1A 9135  15.957   8.764   8.751
  451POPC   D2A 9136  15.844   8.511   8.365
  451POPC   C3A 9137  15.856   8.810   8.047
  451POPC   C4A 9138  15.941   9.060   7.700
  451POPC   C1B 9139  16.119   9.253   8.785
  451POPC   C2B 9140  16.048   9.170   8.377
  451POPC   C3B 9141  16.173   9.394   8.017
  451POPC   C4B 9142  16.403   9.349   7.669
  452POPC   NC3 9143   3.770   3.925   9.295
  452POPC   PO4 9144   3.265   3.534   9.581
  452POPC   GL1 9145   3.422   3.497   9.173
  452POPC   GL2 9146   3.258   3.819   9.125
  452POPC   C1A 9147   3.675   3.353   8.794
  452POPC   D2A 9148   3.876   3.496   8.365
  452POPC   C3A 9149   3.570   3.485   8.028
  452POPC   C4A 9150   3.519   3.191   7.699
  452POPC   C1B 9151   3.375   3.994   8.726
  452POPC   C2B 9152   3.564   3.960   8.302
  452POPC   C3B 9153   3.429   3.961   7.876
  452POPC   C4B 9154   3.566   3.678   7.538
  453POPC   NC3 9155  32.523  34.989   9.662
  453POPC   PO4 9156  32.335  35.677   9.622
  453POPC   GL1 9157  32.361  35.349   9.257
  453POPC   GL2 9158  32.701  35.195   9.223
  453POPC   C1A 9159  32.100  35.403   8.831
  453POPC   D2A 9160  32.052  35.593   8.423
  453POPC   C3A 9161  31.896  35.367   8.062
  453POPC   C4A 9162  32.020  35.009   7.816
  453POPC   C1B 9163  32.483  35.061   8.852
  453POPC   C2B 9164  32.288  35.079   8.444
  453POPC   C3B 9165  32.403  35.258   8.062
  453POPC   C4B 9166  32.506  35.132   7.638
  454POPC   NC3 9167  14.753  30.132   9.556
  454POPC   PO4 9168  14.280  29.648   9.379
  454POPC   GL1 9169  14.204  29.992   9.141
  454POPC   GL2 9170  14.552  30.038   9.100
  454POPC   C1A 9171  14.200  29.878   8.722
  454POPC   D2A 9172  14.581  29.734   8.523
  454POPC   C3A 9173  14.604  29.785   8.105
  454POPC   C4A 9174  14.348  29.739   7.782
  454POPC   C1B 9175  14.479  30.295   8.772
  454POPC   C2B 9176  14.540  30.226   8.387
  454POPC   C3B 9177  14.875  30.234   8.153
  454POPC   C4B 9178  14.710  30.193   7.784
  455POPC   NC3 9179  44.442  14.362   9.464
  455POPC   PO4 9180   0.096  14.280   9.531
  455POPC   GL1 9181  44.871  14.270   9.195
  455POPC   GL2 9182  44.811  14.636   9.249
  455POPC   C1A 9183  44.654  14.308   8.824
  455POPC   D2A 9184  44.793  14.215   8.443
  455POPC   C3A 9185  44.517  14.314   8.192
  455POPC   C4A 9186  44.494  14.392   7.832
  455POPC   C1B 9187  44.870  14.785   8.842
  455POPC   C2B 9188  44.695  14.716   8.443
  455POPC   C3B 9189  44.825  14.820   8.015
  455POPC   C4B 9190  44.817  14.666   7.583
  456POPC   NC3 9191   7.598   4.160   9.614
  456POPC   PO4 9192   7.079   4.055   9.295
  456POPC   GL1 9193   7.409   4.230   9.110
  456POPC   GL2 9194   7.619   4.503   9.238
  456POPC   C1A 9195   7.468   4.098   8.709
  456POPC   D2A 9196   7.312   4.005   8.325
  456POPC   C3A 9197   7.456   4.336   8.067
  456POPC   C4A 9198   7.341   4.366   7.672
  456POPC   C1B 9199   7.858   4.353   8.878
  456POPC   C2B 9200   7.817   4.359   8.443
  456POPC   C3B 9201   7.977   4.504   8.069
  456POPC   C4B 9202   7.750   4.652   7.728
  457POPC   NC3 9203  37.015   4.717   9.822
  457POPC   PO4 9204  36.532   5.182   9.611
  457POPC   GL1 9205  36.891   5.179   9.276
  457POPC   GL2 9206  37.256   5.208   9.341
  457POPC   C1A 9207  37.007   4.995   8.838
  457POPC   D2A 9208  37.277   4.862   8.456
  457POPC   C3A 9209  37.023   4.849   8.051
  457POPC   C4A 9210  36.757   5.092   7.752
  457POPC   C1B 9211  37.407   5.293   8.918
  457POPC   C2B 9212  37.210   5.390   8.526
  457POPC   C3B 9213  37.323   5.275   8.125
  457POPC   C4B 9214  37.174   5.371   7.752
  458POPC   NC3 9215  30.582  40.811   9.872
  458POPC   PO4 9216  30.935  40.513   9.457
  458POPC   GL1 9217  30.710  40.700   9.160
  458POPC   GL2 9218  30.484  40.914   9.340
  458POPC   C1A 9219  30.596  40.603   8.731
  458POPC   D2A 9220  30.825  40.519   8.342
  458POPC   C3A 9221  30.863  40.547   7.901
  458POPC   C4A 9222  30.477  40.628   7.694
  458POPC   C1B 9223  30.522  41.103   8.908
  458POPC   C2B 9224  30.655  41.039   8.482
  458POPC   C3B 9225  30.595  40.925   8.086
  458POPC   C4B 9226  30.797  41.053   7.714
  459POPC   NC3 9227  22.754  30.978   9.430
  459POPC   PO4 9228  22.833  30.329   9.484
  459POPC   GL1 9229  23.007  30.629   9.163
  459POPC   GL2 9230  23.188  30.349   9.084
  459POPC   C1A 9231  23.001  30.960   8.801
  459POPC   D2A 9232  22.888  30.902   8.365
  459POPC   C3A 9233  23.057  30.790   7.952
  459POPC   C4A 9234  23.300  30.848   7.581
  459POPC   C1B 9235  23.077  30.468   8.695
  459POPC   C2B 9236  23.251  30.536   8.344
  459POPC   C3B 9237  22.848  30.395   8.184
  459POPC   C4B 9238  22.851  30.279   7.769
  460POPC   NC3 9239  14.489  43.267   9.389
  460POPC   PO4 9240  14.176  42.677   9.560
  460POPC   GL1 9241  14.420  42.788   9.169
  460POPC   GL2 9242  14.253  43.077   8.996
  460POPC   C1A 9243  14.535  42.789   8.720
  460POPC   D2A 9244  14.215  42.983   8.465
  460POPC   C3A 9245  14.426  42.965   8.103
  460POPC   C4A 9246  14.520  42.714   7.783
  460POPC   C1B 9247  14.452  43.380   8.706
  460POPC   C2B 9248  14.315  43.507   8.296
  460POPC   C3B 9249  14.279  43.390   7.904
  460POPC   C4B 9250  14.576  43.190   7.592
  461POPC   NC3 9251  16.403  36.173   9.561
  461POPC   PO4 9252  16.990  36.220   9.426
  461POPC   GL1 9253  16.769  36.116   9.119
  461POPC   GL2 9254  16.490  36.307   9.080
  461POPC   C1A 9255  16.746  35.829   8.809
  461POPC   D2A 9256  16.656  35.915   8.410
  461POPC   C3A 9257  16.940  35.836   8.099
  461POPC   C4A 9258  16.859  35.901   7.686
  461POPC   C1B 9259  16.659  36.378   8.679
  461POPC   C2B 9260  16.652  36.395   8.258
  461POPC   C3B 9261  16.810  36.370   7.889
  461POPC   C4B 9262  16.740  36.648   7.562
  462POPC   NC3 9263  25.110   3.917   9.652
  462POPC   PO4 9264  25.402   3.325   9.668
  462POPC   GL1 9265  25.439   3.362   9.236
  462POPC   GL2 9266  25.117   3.555   9.249
  462POPC   C1A 9267  25.332   3.450   8.800
  462POPC   D2A 9268  24.974   3.430   8.522
  462POPC   C3A 9269  25.136   3.397   8.079
  462POPC   C4A 9270  25.502   3.637   7.882
  462POPC   C1B 9271  25.045   3.853   8.891
  462POPC   C2B 9272  25.216   3.891   8.457
  462POPC   C3B 9273  25.053   3.894   8.019
  462POPC   C4B 9274  25.064   3.658   7.604
  463POPC   NC3 9275   7.634  28.506   9.719
  463POPC   PO4 9276   7.198  28.051   9.513
  463POPC   GL1 9277   7.445  28.146   9.142
  463POPC   GL2 9278   7.628  28.492   9.140
  463POPC   C1A 9279   7.379  28.220   8.742
  463POPC   D2A 9280   7.321  28.015   8.373
  463POPC   C3A 9281   7.549  28.127   8.033
  463POPC   C4A 9282   7.328  28.318   7.731
  463POPC   C1B 9283   7.483  28.726   8.770
  463POPC   C2B 9284   7.240  28.583   8.394
  463POPC   C3B 9285   7.192  28.750   8.005
  463POPC   C4B 9286   7.539  28.788   7.748
  464POPC   NC3 9287  38.699   0.344   9.468
  464POPC   PO4 9288  38.071   0.096   9.578
  464POPC   GL1 9289  38.300   0.230   9.165
  464POPC   GL2 9290  38.291   0.591   9.174
  464POPC   C1A 9291  38.578   0.428   8.803
  464POPC   D2A 9292  38.466   0.605   8.391
  464POPC   C3A 9293  38.530   0.280   8.086
  464POPC   C4A 9294  38.877   0.284   7.778
  464POPC   C1B 9295  38.091   0.545   8.761
  464POPC   C2B 9296  37.968   0.720   8.348
  464POPC   C3B 9297  38.093   0.553   7.924
  464POPC   C4B 9298  38.389   0.366   7.602
  465POPC   NC3 9299  16.821  26.840   9.474
  465POPC   PO4 9300  16.132  26.876   9.536
  465POPC   GL1 9301  16.416  26.942   9.155
  465POPC   GL2 9302  16.704  27.165   9.084
  465POPC   C1A 9303  16.525  26.612   8.838
  465POPC   D2A 9304  16.386  26.558   8.401
  465POPC   C3A 9305  16.593  26.464   7.978
  465POPC   C4A 9306  16.433  26.578   7.544
  465POPC   C1B 9307  16.661  27.048   8.636
  465POPC   C2B 9308  16.783  26.870   8.237
  465POPC   C3B 9309  16.623  26.965   7.817
  465POPC   C4B 9310  16.844  27.169   7.449
  466POPC   NC3 9311  42.017  33.358   9.538
  466POPC   PO4 9312  42.618  33.077   9.535
  466POPC   GL1 9313  42.397  32.868   9.189
  466POPC   GL2 9314  42.062  32.986   9.202
  466POPC   C1A 9315  42.396  32.987   8.763
  466POPC   D2A 9316  42.505  33.183   8.378
  466POPC   C3A 9317  42.466  32.994   7.991
  466POPC   C4A 9318  42.389  33.016   7.534
  466POPC   C1B 9319  42.008  33.305   8.871
  466POPC   C2B 9320  42.009  33.329   8.438
  466POPC   C3B 9321  42.126  33.394   8.013
  466POPC   C4B 9322  41.965  33.317   7.603
  467POPC   NC3 9323  22.577  13.259   9.576
  467POPC   PO4 9324  22.971  12.636   9.649
  467POPC   GL1 9325  23.070  12.824   9.211
  467POPC   GL2 9326  23.392  12.976   9.105
  467POPC   C1A 9327  22.972  12.995   8.783
  467POPC   D2A 9328  22.958  13.213   8.374
  467POPC   C3A 9329  23.137  12.968   8.034
  467POPC   C4A 9330  22.848  12.836   7.762
  467POPC   C1B 9331  23.449  12.692   8.740
  467POPC   C2B 9332  23.131  12.641   8.425
  467POPC   C3B 9333  23.036  12.448   8.026
  467POPC   C4B 9334  23.271  12.289   7.702
  468POPC   NC3 9335  23.403  13.800   9.470
  468POPC   PO4 9336  23.734  13.286   9.620
  468POPC   GL1 9337  23.854  13.551   9.274
  468POPC   GL2 9338  23.553  13.476   9.106
  468POPC   C1A 9339  23.952  13.605   8.815
  468POPC   D2A 9340  23.685  13.551   8.458
  468POPC   C3A 9341  23.911  13.704   8.146
  468POPC   C4A 9342  24.112  13.679   7.791
  468POPC   C1B 9343  23.493  13.875   8.810
  468POPC   C2B 9344  23.591  14.060   8.380
  468POPC   C3B 9345  23.505  13.957   7.933
  468POPC   C4B 9346  23.472  14.196   7.522
  469POPC   NC3 9347  33.818   3.467   9.469
  469POPC   PO4 9348  34.468   3.526   9.327
  469POPC   GL1 9349  34.645   3.307   8.990
  469POPC   GL2 9350  34.922   3.502   8.870
  469POPC   C1A 9351  34.512   3.375   8.563
  469POPC   D2A 9352  34.273   3.144   8.232
  469POPC   C3A 9353  34.337   3.375   7.870
  469POPC   C4A 9354  34.746   3.445   7.816
  469POPC   C1B 9355  34.860   3.860   8.621
  469POPC   C2B 9356  34.655   3.773   8.247
  469POPC   C3B 9357  34.632   3.931   7.859
  469POPC   C4B 9358  34.739   4.088   7.469
  470POPC   NC3 9359  37.620   3.697   9.471
  470POPC   PO4 9360  37.618   2.974   9.566
  470POPC   GL1 9361  37.630   3.190   9.173
  470POPC   GL2 9362  37.942   3.348   9.088
  470POPC   C1A 9363  37.584   3.347   8.745
  470POPC   D2A 9364  37.792   3.396   8.345
  470POPC   C3A 9365  37.643   3.403   7.865
  470POPC   C4A 9366  37.362   3.631   7.548
  470POPC   C1B 9367  37.956   3.703   8.775
  470POPC   C2B 9368  37.584   3.856   8.552
  470POPC   C3B 9369  37.630   3.840   8.138
  470POPC   C4B 9370  38.069   3.714   8.043
  471POPC   NC3 9371   2.273  43.361   9.556
  471POPC   PO4 9372   1.922  42.777   9.499
  471POPC   GL1 9373   1.914  42.962   9.086
  471POPC   GL2 9374   2.174  43.205   9.058
  471POPC   C1A 9375   2.042  42.880   8.642
  471POPC   D2A 9376   2.182  43.228   8.367
  471POPC   C3A 9377   2.243  43.127   7.978
  471POPC   C4A 9378   2.296  42.773   7.733
  471POPC   C1B 9379   1.812  43.332   8.755
  471POPC   C2B 9380   1.680  43.143   8.352
  471POPC   C3B 9381   1.760  43.328   7.925
  471POPC   C4B 9382   2.120  43.594   7.807
  472POPC   NC3 9383  41.204  16.247   9.696
  472POPC   PO4 9384  40.902  16.855   9.613
  472POPC   GL1 9385  40.866  16.710   9.223
  472POPC   GL2 9386  41.132  16.483   9.226
  472POPC   C1A 9387  40.652  16.845   8.839
  472POPC   D2A 9388  40.533  16.631   8.449
  472POPC   C3A 9389  40.726  16.759   8.056
  472POPC   C4A 9390  40.633  16.994   7.697
  472POPC   C1B 9391  41.009  16.468   8.785
  472POPC   C2B 9392  40.952  16.347   8.360
  472POPC   C3B 9393  40.915  16.293   7.923
  472POPC   C4B 9394  40.981  16.446   7.509
  473POPC   NC3 9395  27.127  29.061   9.238
  473POPC   PO4 9396  26.568  28.989   9.606
  473POPC   GL1 9397  26.542  29.012   9.167
  473POPC   GL2 9398  26.492  29.367   9.112
  473POPC   C1A 9399  26.534  28.788   8.766
  473POPC   D2A 9400  26.721  28.810   8.343
  473POPC   C3A 9401  26.635  28.986   7.933
  473POPC   C4A 9402  26.977  29.156   7.724
  473POPC   C1B 9403  26.720  29.262   8.727
  473POPC   C2B 9404  26.699  29.325   8.293
  473POPC   C3B 9405  26.642  29.523   7.876
  473POPC   C4B 9406  26.959  29.643   7.568
  474POPC   NC3 9407   5.137  39.572   9.457
  474POPC   PO4 9408   5.042  38.807   9.502
  474POPC   GL1 9409   5.145  39.150   9.161
  474POPC   GL2 9410   4.900  39.459   9.031
  474POPC   C1A 9411   5.207  39.173   8.715
  474POPC   D2A 9412   4.914  39.386   8.456
  474POPC   C3A 9413   5.088  39.400   8.038
  474POPC   C4A 9414   5.357  39.061   7.906
  474POPC   C1B 9415   4.715  39.076   8.925
  474POPC   C2B 9416   4.531  38.959   8.530
  474POPC   C3B 9417   4.577  39.165   8.130
  474POPC   C4B 9418   4.822  39.087   7.754
  475POPC   NC3 9419  20.925  26.375   9.521
  475POPC   PO4 9420  21.506  25.988   9.426
  475POPC   GL1 9421  21.189  26.075   9.136
  475POPC   GL2 9422  21.021  25.792   9.073
  475POPC   C1A 9423  21.335  26.059   8.704
  475POPC   D2A 9424  21.578  25.975   8.341
  475POPC   C3A 9425  21.347  26.140   8.028
  475POPC   C4A 9426  21.182  26.051   7.628
  475POPC   C1B 9427  21.124  25.618   8.686
  475POPC   C2B 9428  21.073  25.759   8.293
  475POPC   C3B 9429  21.191  25.620   7.896
  475POPC   C4B 9430  21.632  25.519   7.904
  476POPC   NC3 9431  22.642   5.409   9.844
  476POPC   PO4 9432  22.166   5.806   9.579
  476POPC   GL1 9433  22.172   5.784   9.137
  476POPC   GL2 9434  22.512   5.671   9.133
  476POPC   C1A 9435  22.062   5.962   8.712
  476POPC   D2A 9436  22.176   6.296   8.420
  476POPC   C3A 9437  22.230   6.139   8.020
  476POPC   C4A 9438  22.021   5.798   7.872
  476POPC   C1B 9439  22.559   5.954   8.761
  476POPC   C2B 9440  22.392   5.788   8.361
  476POPC   C3B 9441  22.543   5.737   7.934
  476POPC   C4B 9442  22.551   6.094   7.620
  477POPC   NC3 9443  25.839   5.523   9.478
  477POPC   PO4 9444  26.387   5.965   9.509
  477POPC   GL1 9445  26.058   5.914   9.229
  477POPC   GL2 9446  26.260   5.629   9.128
  477POPC   C1A 9447  25.916   5.858   8.817
  477POPC   D2A 9448  26.085   5.774   8.450
  477POPC   C3A 9449  25.768   5.763   8.162
  477POPC   C4A 9450  25.839   5.893   7.759
  477POPC   C1B 9451  26.410   5.979   8.838
  477POPC   C2B 9452  26.500   6.191   8.449
  477POPC   C3B 9453  26.427   6.048   8.028
  477POPC   C4B 9454  26.229   5.625   7.979
  478POPC   NC3 9455  19.489  38.595   9.433
  478POPC   PO4 9456  20.093  38.320   9.684
  478POPC   GL1 9457  20.132  38.234   9.233
  478POPC   GL2 9458  19.808  38.339   9.120
  478POPC   C1A 9459  20.198  38.400   8.804
  478POPC   D2A 9460  19.975  38.474   8.399
  478POPC   C3A 9461  20.106  38.228   8.022
  478POPC   C4A 9462  19.965  38.189   7.630
  478POPC   C1B 9463  19.687  38.170   8.720
  478POPC   C2B 9464  19.606  38.153   8.258
  478POPC   C3B 9465  19.654  38.490   7.943
  478POPC   C4B 9466  19.837  38.706   7.569
  479POPC   NC3 9467  20.715  37.357   9.396
  479POPC   PO4 9468  20.606  37.967   9.507
  479POPC   GL1 9469  20.398  37.779   9.152
  479POPC   GL2 9470  20.368  37.413   9.031
  479POPC   C1A 9471  20.473  37.900   8.736
  479POPC   D2A 9472  20.421  37.598   8.399
  479POPC   C3A 9473  20.555  37.823   8.061
  479POPC   C4A 9474  20.542  37.657   7.658
  479POPC   C1B 9475  20.755  37.476   8.766
  479POPC   C2B 9476  20.939  37.573   8.343
  479POPC   C3B 9477  20.844  37.377   7.944
  479POPC   C4B 9478  20.977  37.327   7.464
  480POPC   NC3 9479  28.576  12.453   9.437
  480POPC   PO4 9480  28.537  13.141   9.403
  480POPC   GL1 9481  28.348  12.843   9.150
  480POPC   GL2 9482  28.137  12.532   9.177
  480POPC   C1A 9483  28.454  12.719   8.762
  480POPC   D2A 9484  28.511  12.929   8.398
  480POPC   C3A 9485  28.303  12.819   8.022
  480POPC   C4A 9486  28.445  12.748   7.604
  480POPC   C1B 9487  28.091  12.348   8.760
  480POPC   C2B 9488  28.335  12.410   8.366
  480POPC   C3B 9489  28.649  12.443   8.058
  480POPC   C4B 9490  28.745  12.317   7.654
  481POPC   NC3 9491  25.748  16.660  10.036
  481POPC   PO4 9492  25.301  16.625   9.523
  481POPC   GL1 9493  25.208  16.793   9.147
  481POPC   GL2 9494  25.527  16.754   9.027
  481POPC   C1A 9495  25.038  16.998   8.788
  481POPC   D2A 9496  25.189  17.096   8.364
  481POPC   C3A 9497  24.966  17.080   7.963
  481POPC   C4A 9498  25.113  16.781   7.655
  481POPC   C1B 9499  25.396  16.669   8.635
  481POPC   C2B 9500  25.099  16.390   8.472
  481POPC   C3B 9501  25.069  16.387   8.033
  481POPC   C4B 9502  25.235  16.273   7.608
  482POPC   NC3 9503  24.400  23.382   9.432
  482POPC   PO4 9504  24.766  22.905   9.401
  482POPC   GL1 9505  24.798  23.093   9.008
  482POPC   GL2 9506  24.718  23.401   9.032
  482POPC   C1A 9507  24.814  23.085   8.553
  482POPC   D2A 9508  24.486  22.964   8.248
  482POPC   C3A 9509  24.559  22.798   7.825
  482POPC   C4A 9510  24.203  22.560   7.750
  482POPC   C1B 9511  24.423  23.436   8.695
  482POPC   C2B 9512  24.571  23.478   8.277
  482POPC   C3B 9513  24.731  23.278   7.925
  482POPC   C4B 9514  24.661  23.192   7.481
  483POPC   NC3 9515  29.820  11.449   9.443
  483POPC   PO4 9516  30.154  10.696   9.510
  483POPC   GL1 9517  30.016  11.045   9.180
  483POPC   GL2 9518  30.193  10.885   9.037
  483POPC   C1A 9519  29.731  11.206   8.841
  483POPC   D2A 9520  29.834  11.393   8.413
  483POPC   C3A 9521  29.679  11.250   8.027
  483POPC   C4A 9522  29.793  11.298   7.610
  483POPC   C1B 9523  30.166  11.065   8.663
  483POPC   C2B 9524  30.000  10.920   8.301
  483POPC   C3B 9525  30.157  11.119   7.928
  483POPC   C4B 9526  30.251  11.031   7.500
  484POPC   NC3 9527  24.679  29.718   9.470
  484POPC   PO4 9528  24.201  30.017   9.770
  484POPC   GL1 9529  24.325  30.026   9.292
  484POPC   GL2 9530  24.333  29.718   9.081
  484POPC   C1A 9531  24.564  30.120   8.897
  484POPC   D2A 9532  24.365  30.184   8.540
  484POPC   C3A 9533  24.532  30.052   8.164
  484POPC   C4A 9534  24.700  29.890   7.785
  484POPC   C1B 9535  24.395  29.643   8.643
  484POPC   C2B 9536  24.612  29.558   8.251
  484POPC   C3B 9537  24.287  29.636   7.943
  484POPC   C4B 9538  24.263  29.830   7.536
  485POPC   NC3 9539  29.262  10.959   9.505
  485POPC   PO4 9540  29.359  10.297   9.516
  485POPC   GL1 9541  29.178  10.542   9.186
  485POPC   GL2 9542  28.814  10.495   9.248
  485POPC   C1A 9543  29.306  10.411   8.752
  485POPC   D2A 9544  29.147  10.255   8.378
  485POPC   C3A 9545  29.252  10.414   7.966
  485POPC   C4A 9546  29.295  10.699   7.608
  485POPC   C1B 9547  28.832  10.596   8.809
  485POPC   C2B 9548  28.939  10.741   8.379
  485POPC   C3B 9549  28.840  10.695   7.919
  485POPC   C4B 9550  28.494  10.833   7.685
  486POPC   NC3 9551  33.993  22.069   9.490
  486POPC   PO4 9552  33.628  22.575   9.636
  486POPC   GL1 9553  33.610  22.279   9.236
  486POPC   GL2 9554  33.622  21.864   9.218
  486POPC   C1A 9555  33.808  22.391   8.818
  486POPC   D2A 9556  33.614  22.505   8.409
  486POPC   C3A 9557  33.557  22.138   8.165
  486POPC   C4A 9558  33.792  22.057   7.813
  486POPC   C1B 9559  33.869  21.856   8.840
  486POPC   C2B 9560  33.821  21.699   8.420
  486POPC   C3B 9561  34.082  21.713   8.079
  486POPC   C4B 9562  34.014  21.630   7.683
  487POPC   NC3 9563   4.863  35.225   9.905
  487POPC   PO4 9564   5.216  34.877   9.492
  487POPC   GL1 9565   5.268  35.193   9.184
  487POPC   GL2 9566   5.160  35.539   9.271
  487POPC   C1A 9567   5.111  35.200   8.764
  487POPC   D2A 9568   5.031  34.875   8.453
  487POPC   C3A 9569   5.103  35.056   8.060
  487POPC   C4A 9570   4.813  35.179   7.782
  487POPC   C1B 9571   5.064  35.728   8.866
  487POPC   C2B 9572   5.129  35.611   8.432
  487POPC   C3B 9573   4.994  35.662   8.011
  487POPC   C4B 9574   5.183  35.488   7.641
  488POPC   NC3 9575  11.651  17.339   9.729
  488POPC   PO4 9576  12.268  17.512   9.537
  488POPC   GL1 9577  11.904  17.461   9.219
  488POPC   GL2 9578  11.751  17.783   9.073
  488POPC   C1A 9579  12.069  17.341   8.799
  488POPC   D2A 9580  12.099  17.560   8.417
  488POPC   C3A 9581  11.977  17.443   8.006
  488POPC   C4A 9582  12.223  17.630   7.718
  488POPC   C1B 9583  11.617  17.526   8.713
  488POPC   C2B 9584  11.548  17.520   8.280
  488POPC   C3B 9585  11.621  17.817   7.949
  488POPC   C4B 9586  11.775  17.731   7.515
  489POPC   NC3 9587  21.230  28.110   9.616
  489POPC   PO4 9588  21.465  27.358   9.574
  489POPC   GL1 9589  21.563  27.361   9.099
  489POPC   GL2 9590  21.704  27.669   8.961
  489POPC   C1A 9591  21.306  27.429   8.695
  489POPC   D2A 9592  21.347  27.509   8.273
  489POPC   C3A 9593  21.073  27.386   7.946
  489POPC   C4A 9594  21.482  27.493   7.775
  489POPC   C1B 9595  21.570  27.846   8.586
  489POPC   C2B 9596  21.758  27.872   8.190
  489POPC   C3B 9597  21.666  27.973   7.765
  489POPC   C4B 9598  21.686  27.771   7.393
  490POPC   NC3 9599   3.116  37.299   9.408
  490POPC   PO4 9600   3.509  37.849   9.509
  490POPC   GL1 9601   3.428  37.730   9.094
  490POPC   GL2 9602   3.554  37.426   9.128
  490POPC   C1A 9603   3.577  37.698   8.649
  490POPC   D2A 9604   3.298  37.661   8.269
  490POPC   C3A 9605   3.532  37.733   7.863
  490POPC   C4A 9606   3.910  37.624   7.627
  490POPC   C1B 9607   3.265  37.318   8.767
  490POPC   C2B 9608   3.174  37.172   8.356
  490POPC   C3B 9609   3.372  37.257   7.961
  490POPC   C4B 9610   3.114  37.352   7.626
  491POPC   NC3 9611  38.800  22.984   9.676
  491POPC   PO4 9612  39.494  22.863   9.597
  491POPC   GL1 9613  39.445  22.809   9.166
  491POPC   GL2 9614  39.102  22.755   9.251
  491POPC   C1A 9615  39.312  23.002   8.758
  491POPC   D2A 9616  39.354  22.876   8.331
  491POPC   C3A 9617  39.412  23.074   7.923
  491POPC   C4A 9618  39.385  22.751   7.608
  491POPC   C1B 9619  38.861  22.740   8.886
  491POPC   C2B 9620  38.880  22.696   8.446
  491POPC   C3B 9621  38.911  23.013   8.113
  491POPC   C4B 9622  38.939  22.947   7.687
  492POPC   NC3 9623  23.679  39.311   9.769
  492POPC   PO4 9624  23.960  39.676   9.343
  492POPC   GL1 9625  23.843  39.249   9.270
  492POPC   GL2 9626  23.481  39.196   9.280
  492POPC   C1A 9627  23.954  39.083   8.875
  492POPC   D2A 9628  23.964  39.261   8.476
  492POPC   C3A 9629  24.074  39.088   8.063
  492POPC   C4A 9630  23.927  39.314   7.695
  492POPC   C1B 9631  23.552  39.450   8.890
  492POPC   C2B 9632  23.492  39.427   8.466
  492POPC   C3B 9633  23.551  39.261   8.061
  492POPC   C4B 9634  23.530  39.656   7.829
  493POPC   NC3 9635   1.454  16.728   9.523
  493POPC   PO4 9636   0.857  17.083   9.571
  493POPC   GL1 9637   1.147  17.026   9.195
  493POPC   GL2 9638   1.220  16.673   9.075
  493POPC   C1A 9639   1.134  17.061   8.735
  493POPC   D2A 9640   0.972  16.791   8.394
  493POPC   C3A 9641   1.055  16.889   7.966
  493POPC   C4A 9642   1.243  16.677   7.654
  493POPC   C1B 9643   1.356  16.358   8.745
  493POPC   C2B 9644   1.401  16.482   8.317
  493POPC   C3B 9645   1.263  16.282   7.974
  493POPC   C4B 9646   1.012  16.238   7.588
  494POPC   NC3 9647  43.299  22.791   9.275
  494POPC   PO4 9648  43.025  23.269   9.656
  494POPC   GL1 9649  43.036  23.158   9.128
  494POPC   GL2 9650  42.832  22.951   9.019
  494POPC   C1A 9651  43.240  23.041   8.705
  494POPC   D2A 9652  43.423  22.778   8.411
  494POPC   C3A 9653  43.327  23.039   8.079
  494POPC   C4A 9654  43.064  23.020   7.746
  494POPC   C1B 9655  42.571  22.655   8.821
  494POPC   C2B 9656  42.646  22.537   8.428
  494POPC   C3B 9657  42.851  22.771   8.152
  494POPC   C4B 9658  42.636  22.753   7.789
  495POPC   NC3 9659  15.793  14.069   9.688
  495POPC   PO4 9660  15.890  14.719   9.473
  495POPC   GL1 9661  15.713  14.427   9.167
  495POPC   GL2 9662  15.515  14.688   9.021
  495POPC   C1A 9663  15.821  14.155   8.769
  495POPC   D2A 9664  16.056  14.006   8.375
  495POPC   C3A 9665  15.933  14.087   7.974
  495POPC   C4A 9666  16.194  14.116   7.639
  495POPC   C1B 9667  15.818  14.683   8.728
  495POPC   C2B 9668  15.873  14.472   8.335
  495POPC   C3B 9669  16.156  14.539   7.990
  495POPC   C4B 9670  16.055  14.589   7.569
  496POPC   NC3 9671  31.189  28.752   9.343
  496POPC   PO4 9672  31.695  29.186   9.676
  496POPC   GL1 9673  31.562  29.168   9.232
  496POPC   GL2 9674  31.675  28.900   9.104
  496POPC   C1A 9675  31.529  29.374   8.822
  496POPC   D2A 9676  31.744  29.177   8.456
  496POPC   C3A 9677  31.503  29.214   8.030
  496POPC   C4A 9678  31.246  29.422   7.727
  496POPC   C1B 9679  31.338  28.909   8.756
  496POPC   C2B 9680  31.385  28.844   8.358
  496POPC   C3B 9681  31.237  28.651   8.034
  496POPC   C4B 9682  31.223  28.917   7.702
  497POPC   NC3 9683  42.167   0.231   9.539
  497POPC   PO4 9684  42.570   0.703   9.416
  497POPC   GL1 9685  42.494   0.373   9.129
  497POPC   GL2 9686  42.170   0.214   9.020
  497POPC   C1A 9687  42.500   0.439   8.682
  497POPC   D2A 9688  42.238   0.434   8.301
  497POPC   C3A 9689  42.422   0.734   8.026
  497POPC   C4A 9690  42.702   0.598   7.729
  497POPC   C1B 9691  42.267  44.987   8.605
  497POPC   C2B 9692  42.189  44.939   8.126
  497POPC   C3B 9693  42.233   0.161   7.731
  497POPC   C4B 9694  42.102  44.987   7.300
  498POPC   NC3 9695  21.629  28.746   9.874
  498POPC   PO4 9696  21.290  29.246   9.459
  498POPC   GL1 9697  21.474  29.086   9.102
  498POPC   GL2 9698  21.812  29.144   9.245
  498POPC   C1A 9699  21.382  29.012   8.637
  498POPC   D2A 9700  21.292  28.816   8.213
  498POPC   C3A 9701  21.184  29.106   7.836
  498POPC   C4A 9702  21.159  29.570   7.823
  498POPC   C1B 9703  21.856  29.248   8.808
  498POPC   C2B 9704  21.648  29.475   8.502
  498POPC   C3B 9705  21.545  29.329   8.105
  498POPC   C4B 9706  21.690  28.977   7.835
  499POPC   NC3 9707  43.475  44.571   9.487
  499POPC   PO4 9708  44.041  44.579   9.790
  499POPC   GL1 9709  43.945  44.649   9.313
  499POPC   GL2 9710  43.834  44.985   9.163
  499POPC   C1A 9711  43.673  44.608   8.898
  499POPC   D2A 9712  43.728  44.820   8.510
  499POPC   C3A 9713  43.631  44.606   8.125
  499POPC   C4A 9714  43.754  44.855   7.732
  499POPC   C1B 9715  44.144  44.746   8.853
  499POPC   C2B 9716  44.229  44.692   8.469
  499POPC   C3B 9717  44.108  44.765   8.095
  499POPC   C4B 9718  44.245  44.754   7.699
  500POPC   NC3 9719  38.985  17.292   9.391
  500POPC   PO4 9720  39.476  17.743   9.435
  500POPC   GL1 9721  39.465  17.577   9.075
  500POPC   GL2 9722  39.514  17.249   9.203
  500POPC   C1A 9723  39.399  17.671   8.631
  500POPC   D2A 9724  39.063  17.774   8.324
  500POPC   C3A 9725  39.138  17.819   7.879
  500POPC   C4A 9726  39.351  17.745   7.505
  500POPC   C1B 9727  39.374  17.171   8.787
  500POPC   C2B 9728  39.235  17.247   8.371
  500POPC   C3B 9729  39.154  17.297   7.955
  500POPC   C4B 9730  39.405  17.244   7.601
  501POPC   NC3 9731  17.162  24.539   9.656
  501POPC   PO4 9732  17.711  24.959   9.660
  501POPC   GL1 9733  17.742  24.642   9.326
  501POPC   GL2 9734  17.435  24.630   9.249
  501POPC   C1A 9735  17.775  24.522   8.892
  501POPC   D2A 9736  17.742  24.269   8.522
  501POPC   C3A 9737  17.899  24.391   8.135
  501POPC   C4A 9738  17.692  24.628   7.838
  501POPC   C1B 9739  17.284  24.382   8.914
  501POPC   C2B 9740  17.273  24.453   8.476
  501POPC   C3B 9741  17.292  24.369   8.037
  501POPC   C4B 9742  17.148  24.654   7.722
  502POPC   NC3 9743  15.409  41.804   9.498
  502POPC   PO4 9744  15.251  41.251   9.850
  502POPC   GL1 9745  14.986  41.404   9.423
  502POPC   GL2 9746  14.845  41.755   9.310
  502POPC   C1A 9747  14.980  41.415   8.933
  502POPC   D2A 9748  15.220  41.235   8.562
  502POPC   C3A 9749  15.142  41.320   8.104
  502POPC   C4A 9750  15.330  41.506   7.739
  502POPC   C1B 9751  14.984  41.916   8.883
  502POPC   C2B 9752  14.959  41.692   8.475
  502POPC   C3B 9753  14.930  41.860   8.074
  502POPC   C4B 9754  15.007  41.885   7.648
  503POPC   NC3 9755   1.600   2.165   9.318
  503POPC   PO4 9756   2.146   2.005   9.664
  503POPC   GL1 9757   2.058   1.860   9.202
  503POPC   GL2 9758   1.718   1.698   9.120
  503POPC   C1A 9759   2.233   1.782   8.787
  503POPC   D2A 9760   2.241   2.049   8.401
  503POPC   C3A 9761   1.985   2.026   8.019
  503POPC   C4A 9762   2.157   1.896   7.628
  503POPC   C1B 9763   1.551   1.887   8.759
  503POPC   C2B 9764   1.658   2.095   8.413
  503POPC   C3B 9765   1.529   1.834   8.124
  503POPC   C4B 9766   1.548   1.692   7.740
  504POPC   NC3 9767  34.307  16.786   9.441
  504POPC   PO4 9768  34.929  16.616   9.438
  504POPC   GL1 9769  34.773  16.852   9.143
  504POPC   GL2 9770  34.847  17.196   9.224
  504POPC   C1A 9771  34.838  16.842   8.697
  504POPC   D2A 9772  34.592  16.768   8.318
  504POPC   C3A 9773  34.727  16.827   7.892
  504POPC   C4A 9774  34.551  16.616   7.516
  504POPC   C1B 9775  34.536  17.208   8.881
  504POPC   C2B 9776  34.510  17.268   8.439
  504POPC   C3B 9777  34.371  17.146   8.032
  504POPC   C4B 9778  34.148  16.924   7.698
  505POPC   NC3 9779  28.612  37.472   9.690
  505POPC   PO4 9780  28.421  38.070   9.780
  505POPC   GL1 9781  28.297  37.841   9.345
  505POPC   GL2 9782  28.429  37.514   9.218
  505POPC   C1A 9783  28.036  37.781   8.932
  505POPC   D2A 9784  27.928  37.909   8.476
  505POPC   C3A 9785  28.114  37.796   8.079
  505POPC   C4A 9786  27.910  37.861   7.695
  505POPC   C1B 9787  28.554  37.732   8.840
  505POPC   C2B 9788  28.485  37.648   8.412
  505POPC   C3B 9789  28.623  37.644   7.986
  505POPC   C4B 9790  28.568  37.457   7.511
  506POPC   NC3 9791  20.973  13.081   9.488
  506POPC   PO4 9792  20.390  12.681   9.434
  506POPC   GL1 9793  20.490  12.847   9.102
  506POPC   GL2 9794  20.822  12.748   9.085
  506POPC   C1A 9795  20.516  12.719   8.668
  506POPC   D2A 9796  20.436  12.958   8.337
  506POPC   C3A 9797  20.570  12.893   7.955
  506POPC   C4A 9798  20.529  13.119   7.616
  506POPC   C1B 9799  21.017  12.724   8.693
  506POPC   C2B 9800  20.866  12.594   8.277
  506POPC   C3B 9801  21.006  12.656   7.867
  506POPC   C4B 9802  20.852  12.788   7.435
  507POPC   NC3 9803   0.880   2.745   9.699
  507POPC   PO4 9804   1.487   2.980   9.574
  507POPC   GL1 9805   1.357   2.786   9.184
  507POPC   GL2 9806   0.974   2.737   9.183
  507POPC   C1A 9807   1.328   2.834   8.737
  507POPC   D2A 9808   1.486   2.666   8.331
  507POPC   C3A 9809   1.322   2.855   7.975
  507POPC   C4A 9810   1.114   3.003   7.593
  507POPC   C1B 9811   0.857   2.601   8.776
  507POPC   C2B 9812   0.969   2.672   8.386
  507POPC   C3B 9813   0.860   2.646   8.006
  507POPC   C4B 9814   1.069   2.503   7.657
  508POPC   NC3 9815  28.298   5.824   9.476
  508POPC   PO4 9816  28.310   6.485   9.594
  508POPC   GL1 9817  28.541   6.278   9.186
  508POPC   GL2 9818  28.513   5.891   9.043
  508POPC   C1A 9819  28.736   6.179   8.733
  508POPC   D2A 9820  28.691   5.799   8.465
  508POPC   C3A 9821  28.788   5.859   8.035
  508POPC   C4A 9822  28.568   6.039   7.673
  508POPC   C1B 9823  28.245   5.640   8.740
  508POPC   C2B 9824  28.261   5.472   8.301
  508POPC   C3B 9825  28.316   5.653   7.873
  508POPC   C4B 9826  28.387   5.566   7.418
  509POPC   NC3 9827  16.655   7.677   9.361
  509POPC   PO4 9828  16.217   7.215   9.547
  509POPC   GL1 9829  16.436   7.234   9.119
  509POPC   GL2 9830  16.800   7.282   9.087
  509POPC   C1A 9831  16.542   7.440   8.695
  509POPC   D2A 9832  16.841   7.411   8.304
  509POPC   C3A 9833  16.813   7.329   7.812
  509POPC   C4A 9834  17.018   7.162   7.410
  509POPC   C1B 9835  17.009   7.611   8.751
  509POPC   C2B 9836  17.087   7.913   8.406
  509POPC   C3B 9837  16.980   7.811   8.002
  509POPC   C4B 9838  16.611   7.782   7.729
  510POPC   NC3 9839  31.586  36.061   9.526
  510POPC   PO4 9840  30.990  36.133   9.445
  510POPC   GL1 9841  31.231  36.365   9.159
  510POPC   GL2 9842  31.536  36.520   9.288
  510POPC   C1A 9843  31.243  36.256   8.717
  510POPC   D2A 9844  31.292  36.051   8.314
  510POPC   C3A 9845  31.607  36.120   8.034
  510POPC   C4A 9846  31.457  36.185   7.606
  510POPC   C1B 9847  31.707  36.392   8.896
  510POPC   C2B 9848  31.671  36.436   8.464
  510POPC   C3B 9849  31.942  36.509   8.130
  510POPC   C4B 9850  31.857  36.478   7.734
  511POPC   NC3 9851   0.435  38.053   9.497
  511POPC   PO4 9852   0.341  37.441   9.687
  511POPC   GL1 9853   0.488  37.679   9.190
  511POPC   GL2 9854   0.207  37.878   9.079
  511POPC   C1A 9855   0.512  37.585   8.697
  511POPC   D2A 9856   0.340  37.560   8.264
  511POPC   C3A 9857   0.694  37.637   8.007
  511POPC   C4A 9858   0.740  37.809   7.603
  511POPC   C1B 9859   0.516  38.081   8.792
  511POPC   C2B 9860   0.503  38.036   8.324
  511POPC   C3B 9861   0.352  37.984   7.895
  511POPC   C4B 9862   0.247  37.617   7.667
  512POPC   NC3 9863   3.988  31.812   9.500
  512POPC   PO4 9864   4.360  32.354   9.443
  512POPC   GL1 9865   4.353  32.147   9.101
  512POPC   GL2 9866   4.125  31.918   9.037
  512POPC   C1A 9867   4.403  32.296   8.720
  512POPC   D2A 9868   4.586  32.160   8.372
  512POPC   C3A 9869   4.333  32.405   8.156
  512POPC   C4A 9870   4.243  32.487   7.773
  512POPC   C1B 9871   4.266  31.815   8.653
  512POPC   C2B 9872   4.070  31.998   8.336
  512POPC   C3B 9873   4.091  31.993   7.920
  512POPC   C4B 9874   4.239  31.886   7.499
  513POPC   NC3 9875  15.391  34.753  10.054
  513POPC   PO4 9876  14.947  34.606   9.543
  513POPC   GL1 9877  15.053  34.647   9.112
  513POPC   GL2 9878  15.415  34.528   9.148
  513POPC   C1A 9879  15.128  34.443   8.733
  513POPC   D2A 9880  15.364  34.453   8.399
  513POPC   C3A 9881  15.130  34.548   8.059
  513POPC   C4A 9882  15.384  34.491   7.743
  513POPC   C1B 9883  15.460  34.828   8.785
  513POPC   C2B 9884  15.314  34.967   8.367
  513POPC   C3B 9885  15.392  34.977   7.924
  513POPC   C4B 9886  15.215  34.894   7.504
  514POPC   NC3 9887   0.091  27.797   9.586
  514POPC   PO4 9888   0.431  27.198   9.495
  514POPC   GL1 9889   0.408  27.543   9.206
  514POPC   GL2 9890   0.739  27.727   9.139
  514POPC   C1A 9891   0.256  27.594   8.791
  514POPC   D2A 9892   0.368  27.633   8.372
  514POPC   C3A 9893   0.086  27.745   8.067
  514POPC   C4A 9894   0.108  27.499   7.731
  514POPC   C1B 9895   0.688  27.873   8.715
  514POPC   C2B 9896   0.828  27.840   8.288
  514POPC   C3B 9897   0.648  27.645   7.924
  514POPC   C4B 9898   0.830  27.785   7.536
  515POPC   NC3 9899   1.525  28.187   9.503
  515POPC   PO4 9900   1.007  28.713   9.479
  515POPC   GL1 9901   1.067  28.376   9.174
  515POPC   GL2 9902   1.395  28.470   9.116
  515POPC   C1A 9903   1.224  28.197   8.749
  515POPC   D2A 9904   1.424  28.332   8.346
  515POPC   C3A 9905   1.158  28.165   8.016
  515POPC   C4A 9906   0.865  28.268   7.684
  515POPC   C1B 9907   1.527  28.664   8.770
  515POPC   C2B 9908   1.656  28.817   8.407
  515POPC   C3B 9909   1.547  28.772   7.990
  515POPC   C4B 9910   1.454  28.461   7.727
  516POPC   NC3 9911   2.997  31.730   9.388
  516POPC   PO4 9912   2.856  32.461   9.416
  516POPC   GL1 9913   3.005  32.189   9.123
  516POPC   GL2 9914   2.764  31.962   8.995
  516POPC   C1A 9915   2.915  32.382   8.728
  516POPC   D2A 9916   2.638  32.292   8.427
  516POPC   C3A 9917   2.761  32.478   8.083
  516POPC   C4A 9918   2.787  32.430   7.658
  516POPC   C1B 9919   2.384  31.922   8.740
  516POPC   C2B 9920   2.358  31.887   8.284
  516POPC   C3B 9921   2.567  32.030   7.916
  516POPC   C4B 9922   2.542  32.019   7.455
  517POPC   NC3 9923  12.926  42.633   9.571
  517POPC   PO4 9924  12.735  43.275   9.501
  517POPC   GL1 9925  12.925  43.116   9.157
  517POPC   GL2 9926  13.094  42.779   9.132
  517POPC   C1A 9927  12.806  43.247   8.751
  517POPC   D2A 9928  12.950  43.124   8.353
  517POPC   C3A 9929  12.915  43.328   7.997
  517POPC   C4A 9930  12.852  43.148   7.575
  517POPC   C1B 9931  12.965  42.755   8.712
  517POPC   C2B 9932  13.154  42.671   8.300
  517POPC   C3B 9933  13.152  42.890   7.912
  517POPC   C4B 9934  13.242  42.797   7.474
  518POPC   NC3 9935  38.802  34.626   9.468
  518POPC   PO4 9936  38.111  34.313   9.541
  518POPC   GL1 9937  38.355  34.320   9.200
  518POPC   GL2 9938  38.409  34.682   9.097
  518POPC   C1A 9939  38.185  34.352   8.807
  518POPC   D2A 9940  38.177  34.695   8.493
  518POPC   C3A 9941  38.232  34.555   8.083
  518POPC   C4A 9942  38.214  34.690   7.692
  518POPC   C1B 9943  38.649  34.596   8.718
  518POPC   C2B 9944  38.696  34.603   8.276
  518POPC   C3B 9945  38.708  34.643   7.807
  518POPC   C4B 9946  38.872  34.845   7.386
  519POPC   NC3 9947  22.394  16.904   9.522
  519POPC   PO4 9948  21.852  16.654   9.377
  519POPC   GL1 9949  22.124  16.852   9.079
  519POPC   GL2 9950  22.472  16.684   9.060
  519POPC   C1A 9951  22.133  16.804   8.644
  519POPC   D2A 9952  22.209  16.436   8.422
  519POPC   C3A 9953  22.013  16.495   8.052
  519POPC   C4A 9954  21.883  16.832   7.834
  519POPC   C1B 9955  22.611  16.987   8.748
  519POPC   C2B 9956  22.489  17.098   8.327
  519POPC   C3B 9957  22.482  16.857   7.945
  519POPC   C4B 9958  22.377  16.494   7.704
  520POPC   NC3 9959  15.816  12.337   9.792
  520POPC   PO4 9960  15.882  11.729   9.529
  520POPC   GL1 9961  15.822  11.968   9.146
  520POPC   GL2 9962  15.965  12.303   9.105
  520POPC   C1A 9963  15.920  11.978   8.705
  520POPC   D2A 9964  15.658  11.757   8.419
  520POPC   C3A 9965  15.642  11.952   8.028
  520POPC   C4A 9966  15.470  11.746   7.674
  520POPC   C1B 9967  16.199  12.468   8.755
  520POPC   C2B 9968  16.351  12.186   8.468
  520POPC   C3B 9969  16.129  11.931   8.229
  520POPC   C4B 9970  16.112  12.182   7.892
  521POPC   NC3 9971  31.925  41.195   9.451
  521POPC   PO4 9972  32.204  41.828   9.586
  521POPC   GL1 9973  32.381  41.652   9.185
  521POPC   GL2 9974  32.315  41.312   9.148
  521POPC   C1A 9975  32.249  41.552   8.719
  521POPC   D2A 9976  32.155  41.445   8.291
  521POPC   C3A 9977  32.291  41.778   7.984
  521POPC   C4A 9978  32.278  42.036   7.598
  521POPC   C1B 9979  32.618  41.198   8.842
  521POPC   C2B 9980  32.552  41.134   8.426
  521POPC   C3B 9981  32.613  41.333   8.026
  521POPC   C4B 9982  32.580  41.220   7.582
  522POPC   NC3 9983  35.378   2.507   9.502
  522POPC   PO4 9984  34.935   3.078   9.388
  522POPC   GL1 9985  35.225   2.841   9.119
  522POPC   GL2 9986  35.577   2.873   9.172
  522POPC   C1A 9987  35.354   2.688   8.709
  522POPC   D2A 9988  35.133   2.702   8.290
  522POPC   C3A 9989  35.339   2.678   7.875
  522POPC   C4A 9990  35.645   2.584   7.576
  522POPC   C1B 9991  35.868   2.782   8.834
  522POPC   C2B 9992  35.754   2.663   8.412
  522POPC   C3B 9993  35.802   2.894   8.037
  522POPC   C4B 9994  35.634   3.077   7.673
  523POPC   NC3 9995  28.184  19.315   9.661
  523POPC   PO4 9996  28.703  19.784   9.465
  523POPC   GL1 9997  28.579  19.866   9.074
  523POPC   GL2 9998  28.240  19.843   9.054
  523POPC   C1A 9999  28.547  19.764   8.669
  523POPC   D2A10000  28.209  19.729   8.416
  523POPC   C3A10001  28.394  19.875   8.061
  523POPC   C4A10002  28.444  19.732   7.667
  523POPC   C1B10003  27.999  20.082   8.805
  523POPC   C2B10004  27.843  20.089   8.391
  523POPC   C3B10005  27.959  20.272   8.019
  523POPC   C4B10006  28.202  20.175   7.679
  524POPC   NC310007  17.275   9.665   9.617
  524POPC   PO410008  17.767  10.094   9.619
  524POPC   GL110009  17.595   9.776   9.245
  524POPC   GL210010  17.785   9.469   9.082
  524POPC   C1A10011  17.388   9.685   8.833
  524POPC   D2A10012  17.541   9.768   8.406
  524POPC   C3A10013  17.356   9.629   8.014
  524POPC   C4A10014  17.197   9.777   7.619
  524POPC   C1B10015  17.776   9.376   8.648
  524POPC   C2B10016  17.773   9.361   8.221
  524POPC   C3B10017  17.931   9.336   7.838
  524POPC   C4B10018  17.769   9.314   7.410
  525POPC   NC310019  29.869  44.207   9.614
  525POPC   PO410020  29.654  44.778   9.476
  525POPC   GL110021  30.013  44.580   9.286
  525POPC   GL210022  29.770  44.435   9.115
  525POPC   C1A10023  30.192  44.632   8.874
  525POPC   D2A10024  30.118  44.961   8.554
  525POPC   C3A10025  30.214  44.850   8.136
  525POPC   C4A10026  30.325  44.806   7.746
  525POPC   C1B10027  29.689  44.704   8.714
  525POPC   C2B10028  29.700  44.796   8.232
  525POPC   C3B10029  29.685  44.645   7.780
  525POPC   C4B10030  29.593  44.574   7.324
  526POPC   NC310031  18.978  21.078   9.631
  526POPC   PO410032  18.587  21.557   9.367
  526POPC   GL110033  18.850  21.214   9.133
  526POPC   GL210034  19.210  21.072   9.172
  526POPC   C1A10035  18.897  21.316   8.711
  526POPC   D2A10036  18.759  21.664   8.501
  526POPC   C3A10037  18.870  21.480   8.144
  526POPC   C4A10038  18.774  21.128   7.869
  526POPC   C1B10039  19.387  21.318   8.859
  526POPC   C2B10040  19.352  21.389   8.430
  526POPC   C3B10041  19.333  21.354   7.980
  526POPC   C4B10042  19.301  21.755   7.748
  527POPC   NC310043  18.673  15.365   9.327
  527POPC   PO410044  18.079  15.366   9.596
  527POPC   GL110045  18.129  15.227   9.184
  527POPC   GL210046  18.282  14.935   9.197
  527POPC   C1A10047  18.037  15.071   8.767
  527POPC   D2A10048  17.890  15.239   8.393
  527POPC   C3A10049  18.134  15.144   8.047
  527POPC   C4A10050  18.020  14.936   7.691
  527POPC   C1B10051  18.532  14.879   8.849
  527POPC   C2B10052  18.444  15.055   8.454
  527POPC   C3B10053  18.584  14.860   8.093
  527POPC   C4B10054  18.537  14.970   7.722
  528POPC   NC310055  39.216  35.524   9.602
  528POPC   PO410056  39.394  34.865   9.637
  528POPC   GL110057  39.232  35.122   9.272
  528POPC   GL210058  38.878  35.264   9.303
  528POPC   C1A10059  39.345  35.317   8.858
  528POPC   D2A10060  39.267  35.165   8.419
  528POPC   C3A10061  39.401  35.274   7.996
  528POPC   C4A10062  39.393  35.082   7.615
  528POPC   C1B10063  38.833  35.376   8.876
  528POPC   C2B10064  38.957  35.551   8.470
  528POPC   C3B10065  38.900  35.377   8.053
  528POPC   C4B10066  39.022  35.432   7.634
  529POPC   NC310067  12.987  15.160   9.365
  529POPC   PO410068  12.476  15.612   9.454
  529POPC   GL110069  12.388  15.343   9.095
  529POPC   GL210070  12.556  14.977   9.111
  529POPC   C1A10071  12.576  15.301   8.691
  529POPC   D2A10072  12.996  15.376   8.487
  529POPC   C3A10073  12.951  15.381   8.040
  529POPC   C4A10074  13.263  15.491   7.797
  529POPC   C1B10075  12.886  14.912   8.750
  529POPC   C2B10076  12.761  14.952   8.352
  529POPC   C3B10077  12.891  14.877   8.011
  529POPC   C4B10078  12.694  14.967   7.696
  530POPC   NC310079  28.691  11.462   9.504
  530POPC   PO410080  29.350  11.418   9.445
  530POPC   GL110081  29.094  11.245   9.130
  530POPC   GL210082  29.273  11.379   8.914
  530POPC   C1A10083  29.246  10.909   8.811
  530POPC   D2A10084  29.467  11.014   8.441
  530POPC   C3A10085  29.265  10.968   8.050
  530POPC   C4A10086  29.171  11.306   7.757
  530POPC   C1B10087  29.401  11.657   8.637
  530POPC   C2B10088  29.350  11.591   8.222
  530POPC   C3B10089  29.479  11.693   7.853
  530POPC   C4B10090  29.405  11.645   7.420
  531POPC   NC310091  39.878  24.107   9.446
  531POPC   PO410092  40.264  23.500   9.549
  531POPC   GL110093  40.070  23.674   9.194
  531POPC   GL210094  39.816  23.529   9.017
  531POPC   C1A10095  40.214  23.762   8.780
  531POPC   D2A10096  40.253  23.918   8.380
  531POPC   C3A10097  40.354  23.655   8.073
  531POPC   C4A10098  40.156  23.633   7.705
  531POPC   C1B10099  39.753  23.946   8.805
  531POPC   C2B10100  39.708  23.909   8.379
  531POPC   C3B10101  39.852  23.966   7.970
  531POPC   C4B10102  39.761  23.935   7.517
  532POPC   NC310103  33.378  12.247   9.529
  532POPC   PO410104  32.726  12.294   9.461
  532POPC   GL110105  33.000  12.061   9.182
  532POPC   GL210106  33.165  12.334   9.071
  532POPC   C1A10107  33.188  11.921   8.762
  532POPC   D2A10108  33.296  11.857   8.303
  532POPC   C3A10109  32.993  11.963   7.946
  532POPC   C4A10110  33.036  11.812   7.424
  532POPC   C1B10111  32.912  12.439   8.733
  532POPC   C2B10112  32.938  12.317   8.323
  532POPC   C3B10113  33.002  12.483   7.917
  532POPC   C4B10114  32.896  12.312   7.557
  533POPC   NC310115  31.902  13.076   9.870
  533POPC   PO410116  32.476  12.967   9.512
  533POPC   GL110117  32.204  12.894   9.131
  533POPC   GL210118  32.091  12.578   9.048
  533POPC   C1A10119  32.065  12.834   8.649
  533POPC   D2A10120  32.231  13.051   8.374
  533POPC   C3A10121  32.230  12.934   8.005
  533POPC   C4A10122  31.852  12.980   7.803
  533POPC   C1B10123  32.366  12.404   8.758
  533POPC   C2B10124  32.110  12.354   8.408
  533POPC   C3B10125  32.023  12.491   8.002
  533POPC   C4B10126  32.482  12.502   7.829
  534POPC   NC310127  14.988  43.972   9.630
  534POPC   PO410128  15.548  43.583   9.589
  534POPC   GL110129  15.223  43.658   9.268
  534POPC   GL210130  15.220  44.012   9.169
  534POPC   C1A10131  14.957  43.644   8.894
  534POPC   D2A10132  15.133  43.693   8.508
  534POPC   C3A10133  15.107  43.748   8.069
  534POPC   C4A10134  15.201  43.481   7.742
  534POPC   C1B10135  15.219  44.157   8.739
  534POPC   C2B10136  15.042  44.164   8.346
  534POPC   C3B10137  15.096  44.335   7.962
  534POPC   C4B10138  14.947  44.218   7.577
  535POPC   NC310139  29.393  25.248   9.584
  535POPC   PO410140  28.717  25.029   9.526
  535POPC   GL110141  28.989  25.305   9.234
  535POPC   GL210142  29.359  25.249   9.093
  535POPC   C1A10143  28.967  25.170   8.808
  535POPC   D2A10144  29.318  25.017   8.572
  535POPC   C3A10145  29.304  25.328   8.254
  535POPC   C4A10146  29.351  25.331   7.782
  535POPC   C1B10147  29.486  25.470   8.750
  535POPC   C2B10148  29.607  25.708   8.410
  535POPC   C3B10149  29.440  25.772   8.018
  535POPC   C4B10150  29.764  25.656   7.798
  536POPC   NC310151   6.591  34.237   9.552
  536POPC   PO410152   7.119  33.959   9.445
  536POPC   GL110153   6.829  34.234   9.097
  536POPC   GL210154   6.419  34.258   9.080
  536POPC   C1A10155   6.662  34.530   8.730
  536POPC   D2A10156   6.635  34.745   8.304
  536POPC   C3A10157   6.719  34.530   7.886
  536POPC   C4A10158   6.813  34.653   7.428
  536POPC   C1B10159   6.222  34.270   8.696
  536POPC   C2B10160   6.408  34.291   8.314
  536POPC   C3B10161   6.220  34.447   7.936
  536POPC   C4B10162   6.355  34.389   7.510
  537POPC   NC310163  28.310  27.818   9.578
  537POPC   PO410164  28.643  27.243   9.444
  537POPC   GL110165  28.524  27.558   9.136
  537POPC   GL210166  28.182  27.655   9.105
  537POPC   C1A10167  28.480  27.746   8.710
  537POPC   D2A10168  28.577  27.660   8.290
  537POPC   C3A10169  28.525  27.676   7.853
  537POPC   C4A10170  28.628  27.442   7.457
  537POPC   C1B10171  27.965  27.659   8.699
  537POPC   C2B10172  28.080  27.721   8.305
  537POPC   C3B10173  28.013  27.699   7.905
  537POPC   C4B10174  28.149  27.709   7.477
  538POPC   NC310175   5.858  16.897   9.734
  538POPC   PO410176   5.527  17.204   9.299
  538POPC   GL110177   5.927  17.317   9.162
  538POPC   GL210178   5.854  17.644   9.059
  538POPC   C1A10179   6.176  17.367   8.800
  538POPC   D2A10180   5.945  17.528   8.469
  538POPC   C3A10181   6.055  17.388   8.062
  538POPC   C4A10182   5.870  17.544   7.690
  538POPC   C1B10183   5.611  17.877   8.772
  538POPC   C2B10184   5.489  17.756   8.371
  538POPC   C3B10185   5.484  17.588   8.008
  538POPC   C4B10186   5.474  17.951   7.764
  539POPC   NC310187  22.960  44.599   9.667
  539POPC   PO410188  22.646   0.146   9.622
  539POPC   GL110189  22.896  44.855   9.244
  539POPC   GL210190  23.271  44.713   9.277
  539POPC   C1A10191  22.823  44.643   8.828
  539POPC   D2A10192  22.706  44.756   8.403
  539POPC   C3A10193  22.741  44.476   8.053
  539POPC   C4A10194  22.819  44.432   7.623
  539POPC   C1B10195  23.344  44.770   8.844
  539POPC   C2B10196  23.196  44.608   8.436
  539POPC   C3B10197  23.192  44.708   7.988
  539POPC   C4B10198  23.262  44.631   7.565
  540POPC   NC310199  37.393  41.736   9.578
  540POPC   PO410200  37.921  41.311   9.703
  540POPC   GL110201  37.776  41.502   9.306
  540POPC   GL210202  37.452  41.444   9.167
  540POPC   C1A10203  37.806  41.611   8.839
  540POPC   D2A10204  37.914  41.605   8.408
  540POPC   C3A10205  37.917  41.270   8.126
  540POPC   C4A10206  38.095  41.302   7.717
  540POPC   C1B10207  37.413  41.309   8.772
  540POPC   C2B10208  37.387  41.561   8.395
  540POPC   C3B10209  37.309  41.761   8.001
  540POPC   C4B10210  37.599  41.517   7.783
  541POPC   NC310211   0.796  17.420   9.224
  541POPC   PO410212   1.458  17.341   9.483
  541POPC   GL110213   1.465  17.437   9.095
  541POPC   GL210214   1.196  17.534   8.944
  541POPC   C1A10215   1.599  17.301   8.711
  541POPC   D2A10216   1.345  17.478   8.417
  541POPC   C3A10217   1.410  17.427   8.005
  541POPC   C4A10218   1.130  17.429   7.698
  541POPC   C1B10219   0.905  17.633   8.623
  541POPC   C2B10220   0.976  17.870   8.283
  541POPC   C3B10221   0.833  17.759   7.916
  541POPC   C4B10222   0.904  17.865   7.480
  542POPC   NC310223  19.416   5.600   9.569
  542POPC   PO410224  18.917   5.965   9.391
  542POPC   GL110225  19.232   5.825   9.122
  542POPC   GL210226  19.343   5.466   9.099
  542POPC   C1A10227  19.169   5.888   8.721
  542POPC   D2A10228  19.221   6.108   8.370
  542POPC   C3A10229  19.100   5.838   8.042
  542POPC   C4A10230  19.341   5.789   7.718
  542POPC   C1B10231  19.051   5.385   8.776
  542POPC   C2B10232  18.891   5.490   8.364
  542POPC   C3B10233  18.763   5.454   7.912
  542POPC   C4B10234  18.736   5.779   7.585
  543POPC   NC310235   4.354  27.123   9.351
  543POPC   PO410236   4.562  26.390   9.390
  543POPC   GL110237   4.307  26.682   9.054
  543POPC   GL210238   4.393  26.938   8.879
  543POPC   C1A10239   3.988  26.686   8.721
  543POPC   D2A10240   4.180  26.700   8.348
  543POPC   C3A10241   4.067  26.827   7.944
  543POPC   C4A10242   4.287  26.805   7.549
  543POPC   C1B10243   4.794  27.136   8.825
  543POPC   C2B10244   4.909  27.288   8.442
  543POPC   C3B10245   4.639  27.213   8.074
  543POPC   C4B10246   4.735  27.134   7.639
  544POPC   NC310247   3.634   5.492   9.474
  544POPC   PO410248   3.094   5.951   9.544
  544POPC   GL110249   3.358   5.966   9.196
  544POPC   GL210250   3.334   5.632   9.111
  544POPC   C1A10251   3.627   5.938   8.813
  544POPC   D2A10252   3.522   6.029   8.376
  544POPC   C3A10253   3.725   5.871   7.992
  544POPC   C4A10254   3.497   6.003   7.648
  544POPC   C1B10255   3.246   5.614   8.712
  544POPC   C2B10256   3.166   5.447   8.349
  544POPC   C3B10257   3.304   5.595   7.988
  544POPC   C4B10258   3.476   5.513   7.594
  545POPC   NC310259   2.673  44.150   9.548
  545POPC   PO410260   2.599  43.469   9.249
  545POPC   GL110261   2.943  43.681   9.066
  545POPC   GL210262   3.015  44.062   9.142
  545POPC   C1A10263   2.918  43.558   8.645
  545POPC   D2A10264   2.725  43.779   8.324
  545POPC   C3A10265   2.600  43.576   7.989
  545POPC   C4A10266   2.573  43.790   7.616
  545POPC   C1B10267   2.838  44.057   8.735
  545POPC   C2B10268   2.976  44.241   8.347
  545POPC   C3B10269   2.797  44.151   7.941
  545POPC   C4B10270   2.979  44.114   7.526
  546POPC   NC310271  35.672  27.480   9.859
  546POPC   PO410272  35.157  27.809   9.596
  546POPC   GL110273  35.158  27.766   9.123
  546POPC   GL210274  35.370  27.464   9.049
  546POPC   C1A10275  35.351  27.853   8.738
  546POPC   D2A10276  35.223  27.678   8.372
  546POPC   C3A10277  35.300  27.784   7.953
  546POPC   C4A10278  35.479  27.427   7.771
  546POPC   C1B10279  35.082  27.371   8.779
  546POPC   C2B10280  35.119  27.144   8.429
  546POPC   C3B10281  35.013  27.340   8.073
  546POPC   C4B10282  34.824  27.616   7.787
  547POPC   NC310283  37.962  15.671   9.449
  547POPC   PO410284  37.338  15.962   9.496
  547POPC   GL110285  37.605  15.939   9.166
  547POPC   GL210286  37.548  15.615   9.123
  547POPC   C1A10287  37.736  16.150   8.798
  547POPC   D2A10288  37.544  16.372   8.472
  547POPC   C3A10289  37.729  16.232   8.115
  547POPC   C4A10290  37.514  16.003   7.810
  547POPC   C1B10291  37.836  15.651   8.785
  547POPC   C2B10292  37.711  15.709   8.375
  547POPC   C3B10293  37.883  15.715   7.974
  547POPC   C4B10294  38.014  15.910   7.566
  548POPC   NC310295  17.522  37.374   9.490
  548POPC   PO410296  17.442  38.063   9.801
  548POPC   GL110297  17.458  37.952   9.345
  548POPC   GL210298  17.768  37.801   9.215
  548POPC   C1A10299  17.408  37.885   8.876
  548POPC   D2A10300  17.595  37.904   8.468
  548POPC   C3A10301  17.443  37.676   8.136
  548POPC   C4A10302  17.533  37.789   7.739
  548POPC   C1B10303  17.822  37.561   8.792
  548POPC   C2B10304  17.841  37.392   8.327
  548POPC   C3B10305  17.904  37.433   7.836
  548POPC   C4B10306  17.687  37.396   7.410
  549POPC   NC310307  16.225  13.089   9.436
  549POPC   PO410308  16.004  13.697   9.560
  549POPC   GL110309  15.961  13.755   9.133
  549POPC   GL210310  15.976  13.402   9.116
  549POPC   C1A10311  15.959  13.645   8.691
  549POPC   D2A10312  15.757  13.526   8.331
  549POPC   C3A10313  15.919  13.562   7.922
  549POPC   C4A10314  15.920  13.721   7.511
  549POPC   C1B10315  16.197  13.195   8.783
  549POPC   C2B10316  16.335  13.144   8.365
  549POPC   C3B10317  16.263  13.204   7.943
  549POPC   C4B10318  16.190  13.277   7.481
  550POPC   NC310319   9.867  20.360   9.530
  550POPC   PO410320   9.352  20.779   9.717
  550POPC   GL110321   9.654  20.772   9.299
  550POPC   GL210322   9.701  21.114   9.124
  550POPC   C1A10323   9.691  20.457   8.904
  550POPC   D2A10324   9.537  20.572   8.496
  550POPC   C3A10325   9.652  20.482   8.056
  550POPC   C4A10326   9.478  20.778   7.753
  550POPC   C1B10327   9.916  20.894   8.798
  550POPC   C2B10328  10.044  20.715   8.398
  550POPC   C3B10329  10.221  20.831   8.018
  550POPC   C4B10330   9.981  20.791   7.689
  551POPC   NC310331  40.862  35.612   9.319
  551POPC   PO410332  40.813  36.236   9.556
  551POPC   GL110333  40.863  36.094   9.161
  551POPC   GL210334  40.545  35.916   9.110
  551POPC   C1A10335  40.868  36.033   8.720
  551POPC   D2A10336  41.043  36.280   8.415
  551POPC   C3A10337  40.855  36.118   8.061
  551POPC   C4A10338  40.756  36.315   7.670
  551POPC   C1B10339  40.370  36.000   8.749
  551POPC   C2B10340  40.496  35.903   8.361
  551POPC   C3B10341  40.356  36.050   7.996
  551POPC   C4B10342  40.519  35.879   7.670
  552POPC   NC310343  14.424  10.261   9.534
  552POPC   PO410344  14.347   9.702   9.786
  552POPC   GL110345  14.356   9.690   9.301
  552POPC   GL210346  14.209   9.985   9.144
  552POPC   C1A10347  14.289   9.614   8.819
  552POPC   D2A10348  14.439   9.893   8.474
  552POPC   C3A10349  14.423   9.810   8.038
  552POPC   C4A10350  14.391   9.785   7.577
  552POPC   C1B10351  14.097  10.166   8.736
  552POPC   C2B10352  13.957  10.012   8.296
  552POPC   C3B10353  14.052  10.090   7.844
  552POPC   C4B10354  14.037  10.117   7.356
  553POPC   NC310355  18.709  24.987   9.467
  553POPC   PO410356  19.200  25.503   9.529
  553POPC   GL110357  19.054  25.293   9.196
  553POPC   GL210358  19.263  25.013   9.198
  553POPC   C1A10359  18.857  25.260   8.809
  553POPC   D2A10360  19.056  25.323   8.427
  553POPC   C3A10361  18.877  25.272   8.056
  553POPC   C4A10362  18.768  25.518   7.711
  553POPC   C1B10363  19.400  25.138   8.791
  553POPC   C2B10364  19.562  25.264   8.401
  553POPC   C3B10365  19.416  25.113   8.053
  553POPC   C4B10366  19.244  25.241   7.701
  554POPC   NC310367  42.563   8.694   9.455
  554POPC   PO410368  42.159   9.224   9.480
  554POPC   GL110369  42.225   8.977   9.148
  554POPC   GL210370  42.565   9.043   9.047
  554POPC   C1A10371  42.178   8.873   8.735
  554POPC   D2A10372  42.502   8.823   8.422
  554POPC   C3A10373  42.350   8.803   8.014
  554POPC   C4A10374  42.501   9.113   7.743
  554POPC   C1B10375  42.426   9.332   8.704
  554POPC   C2B10376  42.369   9.387   8.244
  554POPC   C3B10377  42.051   9.305   7.920
  554POPC   C4B10378  42.131   9.329   7.471
  555POPC   NC310379   7.471  41.476   9.596
  555POPC   PO410380   7.070  41.204   9.207
  555POPC   GL110381   7.427  41.397   9.081
  555POPC   GL210382   7.424  41.762   9.143
  555POPC   C1A10383   7.697  41.301   8.735
  555POPC   D2A10384   7.737  41.513   8.334
  555POPC   C3A10385   7.504  41.399   7.966
  555POPC   C4A10386   7.237  41.398   7.601
  555POPC   C1B10387   7.347  41.700   8.684
  555POPC   C2B10388   7.256  41.730   8.260
  555POPC   C3B10389   7.315  41.862   7.838
  555POPC   C4B10390   7.236  41.974   7.397
  556POPC   NC310391   9.139  12.511   9.467
  556POPC   PO410392   9.674  12.938   9.425
  556POPC   GL110393   9.254  12.938   9.151
  556POPC   GL210394   8.877  12.858   9.149
  556POPC   C1A10395   9.162  12.872   8.702
  556POPC   D2A10396   9.300  13.059   8.315
  556POPC   C3A10397   9.164  12.814   7.970
  556POPC   C4A10398   9.306  12.634   7.581
  556POPC   C1B10399   8.669  12.956   8.731
  556POPC   C2B10400   8.731  12.973   8.267
  556POPC   C3B10401   8.699  12.933   7.801
  556POPC   C4B10402   8.565  12.971   7.341
  557POPC   NC310403  25.054  43.337   9.501
  557POPC   PO410404  25.492  42.766   9.616
  557POPC   GL110405  25.256  42.892   9.264
  557POPC   GL210406  25.418  43.180   9.195
  557POPC   C1A10407  25.331  42.857   8.803
  557POPC   D2A10408  25.504  43.139   8.471
  557POPC   C3A10409  25.331  43.116   8.084
  557POPC   C4A10410  25.583  43.034   7.773
  557POPC   C1B10411  25.201  43.347   8.843
  557POPC   C2B10412  25.203  43.569   8.432
  557POPC   C3B10413  25.080  43.561   8.005
  557POPC   C4B10414  25.233  43.386   7.613
  558POPC   NC310415  15.779   4.617   9.551
  558POPC   PO410416  16.159   4.019   9.754
  558POPC   GL110417  16.121   4.123   9.275
  558POPC   GL210418  16.082   4.488   9.185
  558POPC   C1A10419  15.906   4.046   8.849
  558POPC   D2A10420  15.805   4.211   8.407
  558POPC   C3A10421  15.779   3.990   7.992
  558POPC   C4A10422  15.781   4.058   7.519
  558POPC   C1B10423  15.964   4.593   8.785
  558POPC   C2B10424  16.064   4.636   8.349
  558POPC   C3B10425  15.901   4.540   7.931
  558POPC   C4B10426  16.098   4.708   7.552
  559POPC   NC310427  12.449  16.077   9.454
  559POPC   PO410428  13.110  16.342   9.315
  559POPC   GL110429  12.809  16.080   9.083
  559POPC   GL210430  12.451  16.151   8.979
  559POPC   C1A10431  12.748  15.764   8.771
  559POPC   D2A10432  12.656  15.717   8.310
  559POPC   C3A10433  12.983  15.919   8.035
  559POPC   C4A10434  13.173  15.969   7.623
  559POPC   C1B10435  12.497  16.169   8.593
  559POPC   C2B10436  12.297  16.071   8.278
  559POPC   C3B10437  12.500  16.101   7.907
  559POPC   C4B10438  12.836  16.378   7.728
  560POPC   NC310439  30.551   3.201   9.339
  560POPC   PO410440  31.052   3.623   9.346
  560POPC   GL110441  30.846   3.808   8.981
  560POPC   GL210442  30.708   3.465   8.935
  560POPC   C1A10443  30.703   3.742   8.530
  560POPC   D2A10444  30.739   3.336   8.334
  560POPC   C3A10445  30.911   3.470   7.977
  560POPC   C4A10446  30.747   3.710   7.656
  560POPC   C1B10447  30.368   3.256   8.703
  560POPC   C2B10448  30.188   3.336   8.302
  560POPC   C3B10449  30.419   3.342   7.905
  560POPC   C4B10450  30.580   3.265   7.455
  561POPC   NC310451  38.193   8.703   9.579
  561POPC   PO410452  38.805   9.007   9.453
  561POPC   GL110453  38.419   8.967   9.202
  561POPC   GL210454  38.608   8.802   9.030
  561POPC   C1A10455  38.230   9.054   8.777
  561POPC   D2A10456  38.413   9.054   8.380
  561POPC   C3A10457  38.155   9.079   8.013
  561POPC   C4A10458  38.427   8.997   7.690
  561POPC   C1B10459  38.853   8.637   8.746
  561POPC   C2B10460  39.109   8.776   8.413
  561POPC   C3B10461  38.809   8.864   8.095
  561POPC   C4B10462  38.770   8.627   7.751
  562POPC   NC310463  26.408  35.838   9.548
  562POPC   PO410464  25.850  35.362   9.538
  562POPC   GL110465  26.157  35.405   9.195
  562POPC   GL210466  26.226  35.062   9.055
  562POPC   C1A10467  26.028  35.555   8.792
  562POPC   D2A10468  25.977  35.870   8.498
  562POPC   C3A10469  26.043  35.622   8.162
  562POPC   C4A10470  25.975  35.656   7.755
  562POPC   C1B10471  26.253  35.141   8.651
  562POPC   C2B10472  25.888  35.175   8.383
  562POPC   C3B10473  25.911  35.174   7.951
  562POPC   C4B10474  26.381  35.224   7.885
  563POPC   NC310475  18.131  33.786   9.534
  563POPC   PO410476  18.779  33.536   9.478
  563POPC   GL110477  18.458  33.738   9.158
  563POPC   GL210478  18.460  34.094   9.279
  563POPC   C1A10479  18.223  33.763   8.734
  563POPC   D2A10480  17.914  33.700   8.332
  563POPC   C3A10481  18.140  33.754   7.973
  563POPC   C4A10482  18.590  33.701   7.861
  563POPC   C1B10483  18.532  34.169   8.841
  563POPC   C2B10484  18.637  34.058   8.418
  563POPC   C3B10485  18.524  34.170   8.031
  563POPC   C4B10486  18.311  34.093   7.651
  564POPC   NC310487  21.617  24.742   9.514
  564POPC   PO410488  21.192  24.258   9.471
  564POPC   GL110489  21.296  24.255   9.055
  564POPC   GL210490  21.638  24.341   9.142
  564POPC   C1A10491  21.388  24.325   8.591
  564POPC   D2A10492  21.094  24.649   8.352
  564POPC   C3A10493  21.026  24.651   7.887
  564POPC   C4A10494  21.103  24.410   7.493
  564POPC   C1B10495  21.458  24.724   8.887
  564POPC   C2B10496  21.574  24.792   8.434
  564POPC   C3B10497  21.488  24.483   8.089
  564POPC   C4B10498  21.520  24.654   7.691
  565POPC   NC310499  17.138  25.965   9.381
  565POPC   PO410500  17.737  25.856   9.656
  565POPC   GL110501  17.627  26.039   9.245
  565POPC   GL210502  17.609  26.394   9.287
  565POPC   C1A10503  17.550  25.903   8.781
  565POPC   D2A10504  17.673  25.870   8.329
  565POPC   C3A10505  17.533  25.766   7.884
  565POPC   C4A10506  17.772  25.916   7.486
  565POPC   C1B10507  17.765  26.366   8.860
  565POPC   C2B10508  17.742  26.392   8.414
  565POPC   C3B10509  17.663  26.257   7.987
  565POPC   C4B10510  17.499  26.368   7.595
  566POPC   NC310511  27.668  24.639   9.315
  566POPC   PO410512  27.155  24.039   9.404
  566POPC   GL110513  27.349  24.316   9.067
  566POPC   GL210514  27.677  24.243   8.949
  566POPC   C1A10515  27.434  24.562   8.675
  566POPC   D2A10516  27.547  24.432   8.264
  566POPC   C3A10517  27.404  24.571   7.915
  566POPC   C4A10518  27.729  24.810   7.739
  566POPC   C1B10519  27.925  24.348   8.592
  566POPC   C2B10520  28.037  24.522   8.209
  566POPC   C3B10521  27.850  24.323   7.833
  566POPC   C4B10522  27.739  24.016   7.489
  567POPC   NC310523  18.265  14.672   9.627
  567POPC   PO410524  18.451  14.045   9.581
  567POPC   GL110525  18.254  14.270   9.249
  567POPC   GL210526  18.540  14.488   9.249
  567POPC   C1A10527  18.165  14.530   8.892
  567POPC   D2A10528  18.383  14.544   8.476
  567POPC   C3A10529  18.140  14.616   8.101
  567POPC   C4A10530  18.007  14.415   7.728
  567POPC   C1B10531  18.648  14.305   8.863
  567POPC   C2B10532  18.909  14.407   8.510
  567POPC   C3B10533  18.773  14.346   8.105
  567POPC   C4B10534  18.507  14.445   7.770
  568POPC   NC310535  37.523  40.958   9.584
  568POPC   PO410536  38.056  40.619   9.395
  568POPC   GL110537  37.717  40.696   9.139
  568POPC   GL210538  37.770  41.033   9.112
  568POPC   C1A10539  37.513  40.815   8.740
  568POPC   D2A10540  37.489  41.062   8.337
  568POPC   C3A10541  37.333  40.810   8.010
  568POPC   C4A10542  37.364  40.653   7.624
  568POPC   C1B10543  37.935  41.104   8.669
  568POPC   C2B10544  38.163  40.835   8.344
  568POPC   C3B10545  38.073  40.808   7.911
  568POPC   C4B10546  37.706  40.998   7.720
  569POPC   NC310547  41.659  10.313   9.547
  569POPC   PO410548  41.327  10.892   9.531
  569POPC   GL110549  41.434  10.624   9.167
  569POPC   GL210550  41.720  10.393   9.065
  569POPC   C1A10551  41.453  10.620   8.710
  569POPC   D2A10552  41.580  10.505   8.275
  569POPC   C3A10553  41.355  10.496   7.864
  569POPC   C4A10554  41.252  10.378   7.424
  569POPC   C1B10555  41.863  10.169   8.724
  569POPC   C2B10556  41.735  10.014   8.335
  569POPC   C3B10557  41.758  10.188   7.896
  569POPC   C4B10558  41.871  10.655   7.853
  570POPC   NC310559  19.098   7.694   9.460
  570POPC   PO410560  18.710   7.166   9.405
  570POPC   GL110561  18.961   7.362   9.096
  570POPC   GL210562  19.308   7.339   9.058
  570POPC   C1A10563  18.931   7.432   8.678
  570POPC   D2A10564  18.858   7.687   8.347
  570POPC   C3A10565  18.776   7.452   8.011
  570POPC   C4A10566  18.968   7.154   7.795
  570POPC   C1B10567  19.395   7.229   8.647
  570POPC   C2B10568  19.227   7.275   8.240
  570POPC   C3B10569  19.460   7.302   7.850
  570POPC   C4B10570  19.335   7.164   7.440
  571POPC   NC310571  33.511   9.788   9.442
  571POPC   PO410572  34.157   9.700   9.657
  571POPC   GL110573  33.992   9.780   9.198
  571POPC   GL210574  34.001   9.432   9.072
  571POPC   C1A10575  33.744   9.921   8.824
  571POPC   D2A10576  33.612   9.803   8.397
  571POPC   C3A10577  33.692  10.066   8.026
  571POPC   C4A10578  33.650   9.972   7.592
  571POPC   C1B10579  33.874   9.229   8.680
  571POPC   C2B10580  33.766   9.303   8.260
  571POPC   C3B10581  33.732   9.568   7.901
  571POPC   C4B10582  33.977   9.589   7.523
  572POPC   NC310583  44.321  10.491   9.829
  572POPC   PO410584  43.699  10.389   9.580
  572POPC   GL110585  43.856  10.459   9.184
  572POPC   GL210586  44.221  10.417   9.232
  572POPC   C1A10587  43.604  10.477   8.810
  572POPC   D2A10588  43.533  10.673   8.429
  572POPC   C3A10589  43.666  10.453   8.074
  572POPC   C4A10590  43.657  10.545   7.613
  572POPC   C1B10591  44.145  10.396   8.756
  572POPC   C2B10592  44.105  10.287   8.300
  572POPC   C3B10593  44.122  10.452   7.846
  572POPC   C4B10594  44.077  10.360   7.369
  573POPC   NC310595   6.372  29.819   9.438
  573POPC   PO410596   6.962  29.909   9.554
  573POPC   GL110597   6.825  29.694   9.151
  573POPC   GL210598   6.728  29.963   9.066
  573POPC   C1A10599   6.587  29.605   8.764
  573POPC   D2A10600   6.716  29.804   8.377
  573POPC   C3A10601   6.521  29.696   8.002
  573POPC   C4A10602   6.821  29.704   7.687
  573POPC   C1B10603   6.543  30.130   8.738
  573POPC   C2B10604   6.442  30.335   8.388
  573POPC   C3B10605   6.616  30.189   8.040
  573POPC   C4B10606   6.487  30.105   7.647
  574POPC   NC310607  34.947  32.386   9.458
  574POPC   PO410608  34.582  31.766   9.524
  574POPC   GL110609  34.531  31.995   9.135
  574POPC   GL210610  34.504  32.335   9.053
  574POPC   C1A10611  34.707  31.983   8.722
  574POPC   D2A10612  34.840  32.301   8.434
  574POPC   C3A10613  34.715  32.222   8.019
  574POPC   C4A10614  34.994  32.191   7.687
  574POPC   C1B10615  34.189  32.471   8.766
  574POPC   C2B10616  34.315  32.415   8.382
  574POPC   C3B10617  34.170  32.438   8.002
  574POPC   C4B10618  34.461  32.531   7.692
  575POPC   NC310619  13.939  20.619   9.378
  575POPC   PO410620  13.314  20.824   9.483
  575POPC   GL110621  13.429  20.568   9.127
  575POPC   GL210622  13.671  20.290   9.064
  575POPC   C1A10623  13.458  20.585   8.685
  575POPC   D2A10624  13.551  20.539   8.256
  575POPC   C3A10625  13.417  20.772   7.893
  575POPC   C4A10626  13.497  20.761   7.447
  575POPC   C1B10627  13.905  20.300   8.635
  575POPC   C2B10628  14.060  20.455   8.186
  575POPC   C3B10629  13.954  20.615   7.702
  575POPC   C4B10630  13.925  20.578   7.224
  576POPC   NC310631  15.779  16.903   9.628
  576POPC   PO410632  16.300  16.481   9.701
  576POPC   GL110633  16.135  16.672   9.291
  576POPC   GL210634  15.757  16.638   9.179
  576POPC   C1A10635  16.119  16.789   8.835
  576POPC   D2A10636  15.866  16.738   8.428
  576POPC   C3A10637  16.004  16.863   8.008
  576POPC   C4A10638  15.841  16.790   7.524
  576POPC   C1B10639  15.763  16.393   8.791
  576POPC   C2B10640  15.697  16.248   8.372
  576POPC   C3B10641  15.852  16.374   7.962
  576POPC   C4B10642  15.873  16.295   7.509
  577POPC   NC310643  18.525  34.747   9.518
  577POPC   PO410644  18.085  34.268   9.593
  577POPC   GL110645  18.146  34.514   9.232
  577POPC   GL210646  17.851  34.365   9.132
  577POPC   C1A10647  18.374  34.667   8.872
  577POPC   D2A10648  18.430  34.549   8.446
  577POPC   C3A10649  18.219  34.773   8.130
  577POPC   C4A10650  18.358  34.585   7.774
  577POPC   C1B10651  17.880  34.143   8.773
  577POPC   C2B10652  18.133  34.142   8.408
  577POPC   C3B10653  18.019  34.261   8.026
  577POPC   C4B10654  17.796  34.053   7.700
  578POPC   NC310655  13.735  31.406   9.447
  578POPC   PO410656  13.542  30.871   9.430
  578POPC   GL110657  13.610  31.146   9.046
  578POPC   GL210658  13.530  31.501   8.967
  578POPC   C1A10659  13.941  31.218   8.751
  578POPC   D2A10660  13.955  31.534   8.437
  578POPC   C3A10661  13.712  31.408   8.090
  578POPC   C4A10662  13.767  31.379   7.649
  578POPC   C1B10663  13.422  31.382   8.534
  578POPC   C2B10664  13.239  31.621   8.153
  578POPC   C3B10665  13.448  31.756   7.773
  578POPC   C4B10666  13.472  31.672   7.356
  579POPC   NC310667   3.656  35.591   9.512
  579POPC   PO410668   2.997  35.425   9.464
  579POPC   GL110669   3.299  35.492   9.176
  579POPC   GL210670   3.445  35.170   9.283
  579POPC   C1A10671   3.503  35.554   8.772
  579POPC   D2A10672   3.732  35.315   8.476
  579POPC   C3A10673   3.730  35.436   8.059
  579POPC   C4A10674   3.431  35.440   7.730
  579POPC   C1B10675   3.512  35.056   8.869
  579POPC   C2B10676   3.249  35.136   8.506
  579POPC   C3B10677   3.396  35.034   8.115
  579POPC   C4B10678   3.721  34.954   7.817
  580POPC   NC310679  44.285  30.089   9.686
  580POPC   PO410680  44.839  29.750   9.538
  580POPC   GL110681  44.715  29.835   9.149
  580POPC   GL210682  44.529  29.538   9.142
  580POPC   C1A10683  44.819  29.985   8.745
  580POPC   D2A10684   0.019  29.784   8.394
  580POPC   C3A10685  44.841  29.953   8.042
  580POPC   C4A10686  44.707  30.136   7.680
  580POPC   C1B10687  44.380  29.689   8.744
  580POPC   C2B10688  44.168  29.596   8.373
  580POPC   C3B10689  44.379  29.700   8.004
  580POPC   C4B10690  44.664  29.628   7.715
  581POPC   NC310691  27.294  29.752   9.661
  581POPC   PO410692  26.617  29.744   9.498
  581POPC   GL110693  26.805  29.778   9.120
  581POPC   GL210694  26.518  29.896   8.990
  581POPC   C1A10695  26.913  29.742   8.677
  581POPC   D2A10696  26.871  29.799   8.235
  581POPC   C3A10697  27.123  29.987   7.927
  581POPC   C4A10698  27.295  30.341   7.716
  581POPC   C1B10699  26.372  29.639   8.684
  581POPC   C2B10700  26.358  29.689   8.268
  581POPC   C3B10701  26.470  30.042   7.998
  581POPC   C4B10702  26.767  30.341   7.776
  582POPC   NC310703  31.363   4.583   9.836
  582POPC   PO410704  31.332   5.132   9.422
  582POPC   GL110705  31.419   5.187   9.030
  582POPC   GL210706  31.614   4.889   8.880
  582POPC   C1A10707  31.417   5.270   8.624
  582POPC   D2A10708  31.517   5.054   8.278
  582POPC   C3A10709  31.318   5.301   7.951
  582POPC   C4A10710  31.509   5.709   7.956
  582POPC   C1B10711  31.199   4.820   8.754
  582POPC   C2B10712  31.166   4.642   8.386
  582POPC   C3B10713  31.191   4.798   7.987
  582POPC   C4B10714  31.588   4.830   7.821
  583POPC   NC310715   1.866  11.050   9.494
  583POPC   PO410716   2.333  11.434   9.753
  583POPC   GL110717   2.083  11.443   9.281
  583POPC   GL210718   1.830  11.562   9.212
  583POPC   C1A10719   2.102  11.428   8.811
  583POPC   D2A10720   1.923  11.205   8.464
  583POPC   C3A10721   2.215  11.206   8.144
  583POPC   C4A10722   2.141  11.205   7.725
  583POPC   C1B10723   1.622  11.645   8.842
  583POPC   C2B10724   1.816  11.724   8.456
  583POPC   C3B10725   1.856  11.540   8.046
  583POPC   C4B10726   1.867  11.733   7.650
  584POPC   NC310727  22.935  19.552   9.570
  584POPC   PO410728  23.020  20.222   9.481
  584POPC   GL110729  22.925  19.964   9.118
  584POPC   GL210730  22.795  19.600   9.094
  584POPC   C1A10731  22.960  20.148   8.703
  584POPC   D2A10732  23.022  20.076   8.284
  584POPC   C3A10733  22.933  19.721   8.065
  584POPC   C4A10734  23.047  19.983   7.751
  584POPC   C1B10735  22.792  19.686   8.673
  584POPC   C2B10736  22.551  19.920   8.406
  584POPC   C3B10737  22.519  20.002   7.966
  584POPC   C4B10738  22.583  19.631   7.671
  585POPC   NC310739   4.935  37.913   9.435
  585POPC   PO410740   5.376  37.523   9.488
  585POPC   GL110741   5.142  37.604   9.096
  585POPC   GL210742   4.771  37.555   9.114
  585POPC   C1A10743   4.994  37.578   8.666
  585POPC   D2A10744   5.038  37.898   8.410
  585POPC   C3A10745   5.298  37.701   8.135
  585POPC   C4A10746   5.185  37.678   7.711
  585POPC   C1B10747   4.662  37.936   8.810
  585POPC   C2B10748   4.519  37.867   8.374
  585POPC   C3B10749   4.766  37.770   8.008
  585POPC   C4B10750   4.725  37.910   7.614
  586POPC   NC310751  18.043  22.412   9.798
  586POPC   PO410752  18.072  21.844   9.616
  586POPC   GL110753  18.068  21.954   9.187
  586POPC   GL210754  18.199  22.306   9.181
  586POPC   C1A10755  18.316  21.885   8.823
  586POPC   D2A10756  18.319  22.053   8.431
  586POPC   C3A10757  18.501  21.847   8.092
  586POPC   C4A10758  18.159  21.971   7.916
  586POPC   C1B10759  18.011  22.342   8.760
  586POPC   C2B10760  17.898  22.321   8.287
  586POPC   C3B10761  18.116  22.462   7.896
  586POPC   C4B10762  17.905  22.575   7.547
  587POPC   NC310763  38.960  39.412   9.624
  587POPC   PO410764  39.539  38.960   9.630
  587POPC   GL110765  39.282  39.108   9.287
  587POPC   GL210766  39.343  39.472   9.247
  587POPC   C1A10767  39.176  39.052   8.850
  587POPC   D2A10768  39.071  38.950   8.422
  587POPC   C3A10769  39.172  39.276   8.136
  587POPC   C4A10770  39.293  39.232   7.733
  587POPC   C1B10771  39.434  39.612   8.808
  587POPC   C2B10772  39.362  39.739   8.369
  587POPC   C3B10773  39.534  39.632   7.946
  587POPC   C4B10774  39.487  39.637   7.462
  588POPC   NC310775  34.642   5.747   9.863
  588POPC   PO410776  35.083   5.668   9.352
  588POPC   GL110777  34.602   5.674   9.253
  588POPC   GL210778  34.392   5.955   9.128
  588POPC   C1A10779  34.329   5.544   8.878
  588POPC   D2A10780  34.431   5.744   8.508
  588POPC   C3A10781  34.305   5.655   8.105
  588POPC   C4A10782  34.479   5.750   7.678
  588POPC   C1B10783  34.615   6.133   8.808
  588POPC   C2B10784  34.535   6.292   8.417
  588POPC   C3B10785  34.560   6.138   8.025
  588POPC   C4B10786  34.470   6.258   7.632
  589POPC   NC310787  11.809  26.614   9.401
  589POPC   PO410788  12.231  27.111   9.485
  589POPC   GL110789  12.232  26.886   9.114
  589POPC   GL210790  12.359  27.182   8.951
  589POPC   C1A10791  12.207  26.707   8.693
  589POPC   D2A10792  12.355  26.638   8.257
  589POPC   C3A10793  12.080  26.451   7.936
  589POPC   C4A10794  11.969  26.637   7.569
  589POPC   C1B10795  11.893  27.105   8.806
  589POPC   C2B10796  11.831  26.934   8.395
  589POPC   C3B10797  12.018  26.950   7.997
  589POPC   C4B10798  11.838  27.167   7.662
  590POPC   NC310799   2.928  21.608   9.485
  590POPC   PO410800   2.277  21.765   9.482
  590POPC   GL110801   2.467  21.580   9.135
  590POPC   GL210802   2.642  21.258   9.178
  590POPC   C1A10803   2.574  21.451   8.718
  590POPC   D2A10804   2.821  21.611   8.410
  590POPC   C3A10805   2.642  21.508   8.029
  590POPC   C4A10806   2.864  21.520   7.686
  590POPC   C1B10807   2.862  21.009   8.825
  590POPC   C2B10808   3.064  21.006   8.398
  590POPC   C3B10809   2.991  21.075   7.944
  590POPC   C4B10810   3.049  21.104   7.466
  591POPC   NC310811  42.321   3.602   9.675
  591POPC   PO410812  42.684   4.142   9.442
  591POPC   GL110813  42.554   3.751   9.175
  591POPC   GL210814  42.201   3.711   9.152
  591POPC   C1A10815  42.474   3.419   8.817
  591POPC   D2A10816  42.576   3.265   8.383
  591POPC   C3A10817  42.487   3.640   8.123
  591POPC   C4A10818  42.433   3.600   7.684
  591POPC   C1B10819  41.968   3.596   8.800
  591POPC   C2B10820  42.086   3.402   8.411
  591POPC   C3B10821  42.079   3.353   7.954
  591POPC   C4B10822  41.966   3.503   7.519
  592POPC   NC310823  20.135  21.458   9.676
  592POPC   PO410824  19.434  21.303   9.562
  592POPC   GL110825  19.749  21.297   9.249
  592POPC   GL210826  19.863  21.643   9.258
  592POPC   C1A10827  19.887  21.180   8.824
  592POPC   D2A10828  20.051  21.056   8.433
  592POPC   C3A10829  19.849  21.170   8.061
  592POPC   C4A10830  20.022  21.099   7.650
  592POPC   C1B10831  19.762  21.681   8.837
  592POPC   C2B10832  19.849  21.541   8.430
  592POPC   C3B10833  19.734  21.702   8.052
  592POPC   C4B10834  19.721  21.503   7.690
  593POPC   NC310835   4.138  11.858   9.283
  593POPC   PO410836   4.531  12.299   9.531
  593POPC   GL110837   4.422  12.268   9.116
  593POPC   GL210838   4.053  12.345   9.159
  593POPC   C1A10839   4.421  12.117   8.668
  593POPC   D2A10840   4.366  11.903   8.269
  593POPC   C3A10841   4.578  12.025   7.900
  593POPC   C4A10842   4.456  11.839   7.495
  593POPC   C1B10843   4.135  12.559   8.800
  593POPC   C2B10844   4.043  12.423   8.396
  593POPC   C3B10845   4.176  12.353   7.995
  593POPC   C4B10846   4.051  12.069   7.699
  594POPC   NC310847  11.082  15.555   9.753
  594POPC   PO410848  11.593  15.143   9.484
  594POPC   GL110849  11.311  14.952   9.205
  594POPC   GL210850  11.547  14.832   9.007
  594POPC   C1A10851  11.143  15.140   8.809
  594POPC   D2A10852  11.065  15.402   8.459
  594POPC   C3A10853  11.306  15.310   8.071
  594POPC   C4A10854  11.169  15.192   7.684
  594POPC   C1B10855  11.543  14.916   8.597
  594POPC   C2B10856  11.196  14.876   8.314
  594POPC   C3B10857  11.296  14.751   7.904
  594POPC   C4B10858  11.479  14.638   7.496
  595POPC   NC310859  19.794  22.738   9.557
  595POPC   PO410860  19.751  23.448   9.516
  595POPC   GL110861  19.724  23.303   9.104
  595POPC   GL210862  19.851  22.957   9.092
  595POPC   C1A10863  19.756  23.182   8.648
  595POPC   D2A10864  20.098  23.030   8.403
  595POPC   C3A10865  19.898  22.993   8.017
  595POPC   C4A10866  19.991  23.159   7.627
  595POPC   C1B10867  20.092  22.670   8.786
  595POPC   C2B10868  20.092  22.433   8.371
  595POPC   C3B10869  19.944  22.476   7.930
  595POPC   C4B10870  19.551  22.619   7.732
  596POPC   NC310871  40.388  23.979   9.502
  596POPC   PO410872  39.840  24.555   9.332
  596POPC   GL110873  40.051  24.468   9.029
  596POPC   GL210874  40.193  24.163   9.060
  596POPC   C1A10875  40.091  24.631   8.644
  596POPC   D2A10876  39.995  24.355   8.340
  596POPC   C3A10877  39.879  24.556   7.982
  596POPC   C4A10878  39.741  24.643   7.599
  596POPC   C1B10879  40.438  24.260   8.710
  596POPC   C2B10880  40.527  24.372   8.302
  596POPC   C3B10881  40.285  24.216   7.947
  596POPC   C4B10882  40.216  24.449   7.585
  597POPC   NC310883   5.765  24.686   9.576
  597POPC   PO410884   5.581  24.014   9.430
  597POPC   GL110885   5.781  24.258   9.087
  597POPC   GL210886   5.856  24.629   9.086
  597POPC   C1A10887   5.742  24.364   8.661
  597POPC   D2A10888   5.755  24.704   8.389
  597POPC   C3A10889   5.773  24.497   8.008
  597POPC   C4A10890   5.561  24.532   7.619
  597POPC   C1B10891   6.164  24.663   8.752
  597POPC   C2B10892   6.219  24.489   8.369
  597POPC   C3B10893   6.222  24.743   8.022
  597POPC   C4B10894   6.135  24.561   7.633
  598POPC   NC310895   6.425  19.332   9.534
  598POPC   PO410896   6.545  18.754   9.568
  598POPC   GL110897   6.670  18.988   9.176
  598POPC   GL210898   6.814  19.355   9.207
  598POPC   C1A10899   6.697  18.794   8.755
  598POPC   D2A10900   7.013  18.769   8.445
  598POPC   C3A10901   6.798  18.766   8.086
  598POPC   C4A10902   6.750  18.826   7.689
  598POPC   C1B10903   6.894  19.264   8.776
  598POPC   C2B10904   6.666  19.178   8.381
  598POPC   C3B10905   6.814  19.273   7.971
  598POPC   C4B10906   6.849  19.287   7.524
  599POPC   NC310907  34.616   6.722   9.646
  599POPC   PO410908  34.591   6.114   9.557
  599POPC   GL110909  34.486   6.457   9.220
  599POPC   GL210910  34.370   6.832   9.231
  599POPC   C1A10911  34.698   6.652   8.849
  599POPC   D2A10912  34.646   6.830   8.419
  599POPC   C3A10913  34.842   6.599   8.095
  599POPC   C4A10914  34.754   6.688   7.663
  599POPC   C1B10915  34.222   6.798   8.828
  599POPC   C2B10916  34.164   6.647   8.407
  599POPC   C3B10917  34.346   6.618   7.973
  599POPC   C4B10918  34.271   6.699   7.492
  600POPC   NC310919  44.888  31.894   9.433
  600POPC   PO410920  44.502  31.339   9.484
  600POPC   GL110921  44.653  31.533   9.145
  600POPC   GL210922  44.484  31.795   9.095
  600POPC   C1A10923  44.545  31.379   8.754
  600POPC   D2A10924  44.694  31.068   8.480
  600POPC   C3A10925  44.641  31.318   8.136
  600POPC   C4A10926  44.625  31.378   7.726
  600POPC   C1B10927  44.814  31.878   8.777
  600POPC   C2B10928  44.891  31.716   8.371
  600POPC   C3B10929  44.786  31.832   7.937
  600POPC   C4B10930  44.445  31.957   7.645
  601POPC   NC310931  30.642  22.007   9.546
  601POPC   PO410932  30.804  22.619   9.547
  601POPC   GL110933  30.590  22.378   9.190
  601POPC   GL210934  30.686  22.060   9.041
  601POPC   C1A10935  30.517  22.476   8.752
  601POPC   D2A10936  30.517  22.702   8.355
  601POPC   C3A10937  30.719  22.448   8.052
  601POPC   C4A10938  30.975  22.154   7.850
  601POPC   C1B10939  30.493  21.905   8.671
  601POPC   C2B10940  30.601  21.909   8.240
  601POPC   C3B10941  30.480  22.035   7.850
  601POPC   C4B10942  30.677  22.082   7.424
  602POPC   NC310943  42.460  34.157   9.770
  602POPC   PO410944  41.884  33.802   9.564
  602POPC   GL110945  42.119  33.714   9.170
  602POPC   GL210946  42.399  33.430   9.203
  602POPC   C1A10947  42.103  33.814   8.715
  602POPC   D2A10948  41.937  33.807   8.279
  602POPC   C3A10949  42.226  33.914   7.920
  602POPC   C4A10950  42.365  34.110   7.533
  602POPC   C1B10951  42.517  33.523   8.786
  602POPC   C2B10952  42.455  33.678   8.364
  602POPC   C3B10953  42.606  33.555   7.977
  602POPC   C4B10954  42.428  33.553   7.593
  603POPC   NC310955  37.638  29.981   9.447
  603POPC   PO410956  38.178  29.520   9.434
  603POPC   GL110957  38.020  29.729   9.055
  603POPC   GL210958  37.674  29.833   8.976
  603POPC   C1A10959  38.073  29.921   8.650
  603POPC   D2A10960  38.049  30.140   8.289
  603POPC   C3A10961  37.907  29.914   7.940
  603POPC   C4A10962  37.782  30.051   7.571
  603POPC   C1B10963  37.327  30.102   8.810
  603POPC   C2B10964  37.311  30.178   8.373
  603POPC   C3B10965  37.423  30.133   7.946
  603POPC   C4B10966  37.413  29.734   7.708
  604POPC   NC310967   3.096  10.049   9.607
  604POPC   PO410968   3.485   9.575   9.564
  604POPC   GL110969   3.543   9.844   9.190
  604POPC   GL210970   3.841  10.033   9.191
  604POPC   C1A10971   3.594   9.688   8.739
  604POPC   D2A10972   3.466   9.429   8.355
  604POPC   C3A10973   3.271   9.535   7.974
  604POPC   C4A10974   3.504   9.649   7.630
  604POPC   C1B10975   3.656  10.192   8.808
  604POPC   C2B10976   3.717  10.043   8.383
  604POPC   C3B10977   3.542  10.015   7.994
  604POPC   C4B10978   3.700  10.162   7.608
  605POPC   NC310979   3.508  34.425   9.662
  605POPC   PO410980   3.623  33.817   9.784
  605POPC   GL110981   3.592  33.875   9.303
  605POPC   GL210982   3.433  34.181   9.218
  605POPC   C1A10983   3.618  33.858   8.867
  605POPC   D2A10984   3.523  34.016   8.466
  605POPC   C3A10985   3.466  33.720   8.167
  605POPC   C4A10986   3.609  33.802   7.779
  605POPC   C1B10987   3.200  34.196   8.830
  605POPC   C2B10988   3.047  34.152   8.391
  605POPC   C3B10989   3.230  34.137   7.985
  605POPC   C4B10990   3.360  34.145   7.528
  606POPC   NC310991  40.249  22.177   9.515
  606POPC   PO410992  39.637  21.878   9.685
  606POPC   GL110993  39.762  22.147   9.293
  606POPC   GL210994  40.071  22.059   9.055
  606POPC   C1A10995  39.664  22.250   8.838
  606POPC   D2A10996  39.824  21.967   8.543
  606POPC   C3A10997  39.734  22.152   8.187
  606POPC   C4A10998  40.022  22.198   7.869
  606POPC   C1B10999  40.129  22.441   8.753
  606POPC   C2B11000  40.087  22.513   8.302
  606POPC   C3B11001  40.282  22.631   7.876
  606POPC   C4B11002  40.285  22.406   7.430
  607POPC   NC311003   6.141  44.148   9.478
  607POPC   PO411004   6.634  43.647   9.548
  607POPC   GL111005   6.563  43.889   9.221
  607POPC   GL211006   6.266  43.732   9.152
  607POPC   C1A11007   6.772  44.096   8.870
  607POPC   D2A11008   6.644  44.333   8.513
  607POPC   C3A11009   6.569  44.083   8.160
  607POPC   C4A11010   6.870  44.098   7.841
  607POPC   C1B11011   6.341  43.829   8.724
  607POPC   C2B11012   6.206  43.603   8.362
  607POPC   C3B11013   6.296  43.589   7.929
  607POPC   C4B11014   6.432  43.910   7.680
  608POPC   NC311015  27.182  35.839   9.412
  608POPC   PO411016  26.657  36.225   9.666
  608POPC   GL111017  26.765  36.254   9.246
  608POPC   GL211018  26.744  35.955   9.133
  608POPC   C1A11019  26.669  36.328   8.792
  608POPC   D2A11020  26.908  36.318   8.397
  608POPC   C3A11021  26.749  36.219   7.974
  608POPC   C4A11022  27.061  36.251   7.636
  608POPC   C1B11023  26.960  35.877   8.741
  608POPC   C2B11024  26.959  35.775   8.303
  608POPC   C3B11025  27.049  35.809   7.875
  608POPC   C4B11026  27.142  35.804   7.425
  609POPC   NC311027  17.931  35.551   9.540
  609POPC   PO411028  17.473  35.058   9.556
  609POPC   GL111029  17.551  35.381   9.238
  609POPC   GL211030  17.837  35.235   9.116
  609POPC   C1A11031  17.679  35.672   8.859
  609POPC   D2A11032  17.716  35.537   8.393
  609POPC   C3A11033  17.326  35.405   8.148
  609POPC   C4A11034  17.203  35.530   7.723
  609POPC   C1B11035  17.565  35.181   8.768
  609POPC   C2B11036  17.549  34.969   8.419
  609POPC   C3B11037  17.736  35.088   8.064
  609POPC   C4B11038  17.516  35.108   7.680
  610POPC   NC311039  33.466  25.874   9.615
  610POPC   PO411040  34.095  26.285   9.674
  610POPC   GL111041  33.873  26.073   9.338
  610POPC   GL211042  33.529  26.268   9.284
  610POPC   C1A11043  34.040  25.860   8.964
  610POPC   D2A11044  33.932  26.005   8.550
  610POPC   C3A11045  34.067  26.004   8.128
  610POPC   C4A11046  33.886  25.938   7.740
  610POPC   C1B11047  33.529  25.902   8.969
  610POPC   C2B11048  33.472  25.811   8.528
  610POPC   C3B11049  33.562  25.821   8.116
  610POPC   C4B11050  33.340  25.886   7.733
  611POPC   NC311051  22.723  37.256   9.397
  611POPC   PO411052  22.934  36.554   9.537
  611POPC   GL111053  22.796  36.624   9.113
  611POPC   GL211054  22.915  36.941   9.053
  611POPC   C1A11055  22.712  36.718   8.658
  611POPC   D2A11056  22.867  36.966   8.296
  611POPC   C3A11057  22.789  36.802   7.911
  611POPC   C4A11058  23.039  36.809   7.514
  611POPC   C1B11059  22.899  37.218   8.741
  611POPC   C2B11060  23.172  37.351   8.418
  611POPC   C3B11061  23.271  37.126   8.016
  611POPC   C4B11062  23.376  37.170   7.588
  612POPC   NC311063  13.756  13.112   9.351
  612POPC   PO411064  13.644  12.466   9.266
  612POPC   GL111065  13.730  12.749   8.973
  612POPC   GL211066  13.424  12.922   8.996
  612POPC   C1A11067  13.743  12.882   8.555
  612POPC   D2A11068  14.017  12.925   8.224
  612POPC   C3A11069  13.896  12.656   7.913
  612POPC   C4A11070  13.719  12.850   7.532
  612POPC   C1B11071  13.305  12.618   8.674
  612POPC   C2B11072  13.448  12.591   8.256
  612POPC   C3B11073  13.456  12.938   7.975
  612POPC   C4B11074  13.198  12.970   7.608
  613POPC   NC311075   5.107  26.477   9.464
  613POPC   PO411076   4.776  27.115   9.544
  613POPC   GL111077   5.058  26.923   9.215
  613POPC   GL211078   4.818  26.731   9.132
  613POPC   C1A11079   5.235  26.707   8.825
  613POPC   D2A11080   5.101  26.607   8.378
  613POPC   C3A11081   5.059  26.923   8.052
  613POPC   C4A11082   5.265  27.135   7.715
  613POPC   C1B11083   4.726  26.590   8.751
  613POPC   C2B11084   4.651  26.835   8.418
  613POPC   C3B11085   4.564  26.710   8.010
  613POPC   C4B11086   4.764  26.621   7.675
  614POPC   NC311087  40.792  26.352   9.538
  614POPC   PO411088  41.035  25.683   9.559
  614POPC   GL111089  40.930  25.991   9.230
  614POPC   GL211090  40.623  26.033   9.131
  614POPC   C1A11091  41.001  25.981   8.786
  614POPC   D2A11092  40.984  25.798   8.370
  614POPC   C3A11093  41.033  25.978   7.989
  614POPC   C4A11094  40.927  26.087   7.560
  614POPC   C1B11095  40.507  26.026   8.715
  614POPC   C2B11096  40.443  25.831   8.322
  614POPC   C3B11097  40.534  25.873   7.879
  614POPC   C4B11098  40.538  25.754   7.426
  615POPC   NC311099  38.505   6.468   9.610
  615POPC   PO411100  38.107   7.058   9.483
  615POPC   GL111101  38.349   6.747   9.213
  615POPC   GL211102  38.282   6.372   9.157
  615POPC   C1A11103  38.350   6.719   8.778
  615POPC   D2A11104  38.415   6.919   8.415
  615POPC   C3A11105  38.482   6.664   8.071
  615POPC   C4A11106  38.487   6.824   7.669
  615POPC   C1B11107  38.617   6.283   8.859
  615POPC   C2B11108  38.701   6.331   8.436
  615POPC   C3B11109  38.626   6.131   8.068
  615POPC   C4B11110  38.271   6.213   7.862
  616POPC   NC311111  15.755  23.113   9.482
  616POPC   PO411112  16.315  23.229   9.650
  616POPC   GL111113  16.305  23.060   9.212
  616POPC   GL211114  16.309  22.704   9.179
  616POPC   C1A11115  16.234  23.066   8.731
  616POPC   D2A11116  16.281  22.941   8.255
  616POPC   C3A11117  16.133  23.157   7.903
  616POPC   C4A11118  16.310  23.162   7.508
  616POPC   C1B11119  16.298  22.552   8.755
  616POPC   C2B11120  15.953  22.633   8.475
  616POPC   C3B11121  15.883  22.709   8.042
  616POPC   C4B11122  16.157  22.673   7.694
  617POPC   NC311123  12.315   4.722   9.544
  617POPC   PO411124  12.161   4.157   9.781
  617POPC   GL111125  12.074   4.342   9.300
  617POPC   GL211126  12.349   4.505   9.095
  617POPC   C1A11127  11.839   4.213   8.901
  617POPC   D2A11128  11.906   3.957   8.505
  617POPC   C3A11129  11.926   4.117   8.075
  617POPC   C4A11130  12.262   4.041   7.751
  617POPC   C1B11131  12.013   4.694   8.859
  617POPC   C2B11132  11.893   4.536   8.489
  617POPC   C3B11133  12.018   4.685   8.128
  617POPC   C4B11134  11.997   4.500   7.735
  618POPC   NC311135   7.929  13.006   9.913
  618POPC   PO411136   8.467  12.763   9.458
  618POPC   GL111137   8.331  12.844   9.087
  618POPC   GL211138   7.987  12.774   9.074
  618POPC   C1A11139   8.174  13.116   8.765
  618POPC   D2A11140   7.907  13.027   8.424
  618POPC   C3A11141   8.207  13.102   8.102
  618POPC   C4A11142   8.187  12.963   7.702
  618POPC   C1B11143   7.801  12.590   8.702
  618POPC   C2B11144   7.878  12.530   8.247
  618POPC   C3B11145   7.743  12.766   7.896
  618POPC   C4B11146   7.699  12.592   7.455
  619POPC   NC311147  42.442  37.896   9.556
  619POPC   PO411148  41.893  38.189   9.242
  619POPC   GL111149  42.212  38.466   9.078
  619POPC   GL211150  42.240  38.837   9.188
  619POPC   C1A11151  42.390  38.396   8.677
  619POPC   D2A11152  42.235  38.448   8.285
  619POPC   C3A11153  42.488  38.374   7.950
  619POPC   C4A11154  42.147  38.229   7.728
  619POPC   C1B11155  42.520  38.880   8.797
  619POPC   C2B11156  42.647  38.746   8.353
  619POPC   C3B11157  42.526  38.912   7.942
  619POPC   C4B11158  42.538  38.940   7.470
  620POPC   NC311159  22.987  33.846   9.566
  620POPC   PO411160  22.430  33.387   9.742
  620POPC   GL111161  22.687  33.491   9.295
  620POPC   GL211162  22.717  33.868   9.133
  620POPC   C1A11163  22.956  33.501   8.872
  620POPC   D2A11164  22.931  33.739   8.467
  620POPC   C3A11165  23.138  33.671   8.017
  620POPC   C4A11166  23.230  33.999   7.746
  620POPC   C1B11167  22.937  34.136   8.820
  620POPC   C2B11168  22.837  34.245   8.395
  620POPC   C3B11169  22.713  33.980   8.055
  620POPC   C4B11170  22.725  33.895   7.652
  621POPC   NC311171  19.310  23.562   9.387
  621POPC   PO411172  18.629  23.481   9.404
  621POPC   GL111173  18.897  23.691   9.094
  621POPC   GL211174  19.018  24.015   9.267
  621POPC   C1A11175  19.252  23.658   8.753
  621POPC   D2A11176  19.348  23.605   8.315
  621POPC   C3A11177  18.954  23.508   8.100
  621POPC   C4A11178  18.952  23.267   7.738
  621POPC   C1B11179  19.037  24.111   8.840
  621POPC   C2B11180  18.906  23.910   8.458
  621POPC   C3B11181  19.008  24.018   8.053
  621POPC   C4B11182  18.937  23.803   7.682
  622POPC   NC311183  22.029  34.364   9.454
  622POPC   PO411184  22.433  34.954   9.562
  622POPC   GL111185  22.280  34.686   9.173
  622POPC   GL211186  22.480  34.363   9.133
  622POPC   C1A11187  22.069  34.512   8.799
  622POPC   D2A11188  21.903  34.676   8.423
  622POPC   C3A11189  22.005  34.557   8.047
  622POPC   C4A11190  21.946  34.685   7.683
  622POPC   C1B11191  22.429  34.145   8.735
  622POPC   C2B11192  22.339  34.272   8.288
  622POPC   C3B11193  22.288  34.183   7.818
  622POPC   C4B11194  22.254  33.953   7.404
  623POPC   NC311195  41.853  24.828   9.587
  623POPC   PO411196  41.373  24.404   9.593
  623POPC   GL111197  41.655  24.452   9.293
  623POPC   GL211198  41.875  24.161   9.298
  623POPC   C1A11199  41.632  24.724   8.936
  623POPC   D2A11200  41.493  24.583   8.514
  623POPC   C3A11201  41.763  24.659   8.159
  623POPC   C4A11202  41.662  24.611   7.718
  623POPC   C1B11203  41.750  24.224   8.856
  623POPC   C2B11204  41.837  24.180   8.408
  623POPC   C3B11205  41.609  24.201   8.037
  623POPC   C4B11206  41.566  24.112   7.602
  624POPC   NC311207  15.572  13.590   9.430
  624POPC   PO411208  14.995  13.206   9.585
  624POPC   GL111209  15.018  13.494   9.229
  624POPC   GL211210  15.218  13.750   9.114
  624POPC   C1A11211  15.033  13.407   8.786
  624POPC   D2A11212  15.301  13.305   8.421
  624POPC   C3A11213  15.233  13.488   8.033
  624POPC   C4A11214  15.066  13.683   7.662
  624POPC   C1B11215  15.447  13.768   8.710
  624POPC   C2B11216  15.505  13.976   8.286
  624POPC   C3B11217  15.521  13.849   7.824
  624POPC   C4B11218  15.445  13.806   7.324
  625POPC   NC311219  17.027  34.867   9.502
  625POPC   PO411220  16.494  35.192   9.709
  625POPC   GL111221  16.587  35.398   9.273
  625POPC   GL211222  16.424  35.737   9.211
  625POPC   C1A11223  16.800  35.307   8.858
  625POPC   D2A11224  16.778  35.104   8.438
  625POPC   C3A11225  16.800  35.332   8.042
  625POPC   C4A11226  16.960  35.073   7.724
  625POPC   C1B11227  16.318  35.480   8.826
  625POPC   C2B11228  16.402  35.479   8.368
  625POPC   C3B11229  16.414  35.745   7.964
  625POPC   C4B11230  16.411  35.777   7.483
  626POPC   NC311231  19.498  36.005   9.783
  626POPC   PO411232  19.040  35.750   9.417
  626POPC   GL111233  19.054  35.971   9.060
  626POPC   GL211234  19.265  36.234   9.156
  626POPC   C1A11235  18.822  36.153   8.721
  626POPC   D2A11236  18.983  36.271   8.313
  626POPC   C3A11237  18.865  36.025   7.979
  626POPC   C4A11238  19.037  36.098   7.579
  626POPC   C1B11239  19.282  36.404   8.749
  626POPC   C2B11240  19.349  36.645   8.388
  626POPC   C3B11241  19.363  36.515   8.009
  626POPC   C4B11242  19.342  36.511   7.610
  627POPC   NC311243   8.695  15.788   9.438
  627POPC   PO411244   9.330  16.058   9.649
  627POPC   GL111245   9.063  16.098   9.267
  627POPC   GL211246   9.010  15.796   9.061
  627POPC   C1A11247   9.126  16.222   8.823
  627POPC   D2A11248   9.206  15.969   8.445
  627POPC   C3A11249   9.096  16.222   8.072
  627POPC   C4A11250   8.920  16.117   7.678
  627POPC   C1B11251   8.761  15.868   8.723
  627POPC   C2B11252   8.699  15.987   8.344
  627POPC   C3B11253   8.629  15.805   7.987
  627POPC   C4B11254   8.696  15.604   7.658
  628POPC   NC311255   0.750  34.012   9.504
  628POPC   PO411256   0.287  33.569   9.521
  628POPC   GL111257   0.230  33.790   9.147
  628POPC   GL211258   0.375  34.078   9.157
  628POPC   C1A11259   0.283  33.783   8.710
  628POPC   D2A11260   0.164  33.631   8.317
  628POPC   C3A11261   0.418  33.820   8.034
  628POPC   C4A11262   0.398  34.062   7.676
  628POPC   C1B11263   0.714  34.018   8.878
  628POPC   C2B11264   0.725  33.979   8.462
  628POPC   C3B11265   0.869  34.062   8.063
  628POPC   C4B11266   0.846  33.815   7.708
  629POPC   NC311267   0.112  44.727   9.418
  629POPC   PO411268   0.759  44.413   9.504
  629POPC   GL111269   0.558  44.563   9.143
  629POPC   GL211270   0.251  44.367   9.072
  629POPC   C1A11271   0.543  44.515   8.696
  629POPC   D2A11272   0.820  44.477   8.335
  629POPC   C3A11273   0.676  44.655   7.997
  629POPC   C4A11274   0.521  44.538   7.644
  629POPC   C1B11275   0.028  44.654   8.783
  629POPC   C2B11276   0.112  44.843   8.377
  629POPC   C3B11277   0.158  44.565   8.035
  629POPC   C4B11278  44.919  44.514   7.675
  630POPC   NC311279  44.743  23.196   9.547
  630POPC   PO411280  44.334  22.750   9.615
  630POPC   GL111281  44.649  22.808   9.218
  630POPC   GL211282  44.976  23.028   9.121
  630POPC   C1A11283  44.594  22.934   8.784
  630POPC   D2A11284  44.535  23.141   8.393
  630POPC   C3A11285  44.305  22.868   8.113
  630POPC   C4A11286  44.466  22.489   7.952
  630POPC   C1B11287   0.074  22.695   8.826
  630POPC   C2B11288   0.006  22.610   8.386
  630POPC   C3B11289  44.930  22.945   8.089
  630POPC   C4B11290  44.652  22.993   7.760
  631POPC   NC311291  37.350  39.292   9.468
  631POPC   PO411292  36.784  39.679   9.641
  631POPC   GL111293  36.951  39.557   9.248
  631POPC   GL211294  36.819  39.226   9.125
  631POPC   C1A11295  37.101  39.492   8.829
  631POPC   D2A11296  36.905  39.313   8.464
  631POPC   C3A11297  36.791  39.475   8.097
  631POPC   C4A11298  37.011  39.466   7.711
  631POPC   C1B11299  36.875  38.930   8.775
  631POPC   C2B11300  36.975  38.817   8.384
  631POPC   C3B11301  36.949  39.020   8.025
  631POPC   C4B11302  36.873  38.917   7.638
  632POPC   NC311303  29.982  13.330   9.563
  632POPC   PO411304  30.255  13.929   9.341
  632POPC   GL111305  30.098  13.723   9.030
  632POPC   GL211306  29.842  13.503   9.107
  632POPC   C1A11307  30.118  13.806   8.637
  632POPC   D2A11308  29.865  13.741   8.295
  632POPC   C3A11309  29.962  13.520   7.963
  632POPC   C4A11310  30.189  13.813   7.732
  632POPC   C1B11311  29.635  13.575   8.729
  632POPC   C2B11312  29.413  13.525   8.326
  632POPC   C3B11313  29.378  13.714   7.943
  632POPC   C4B11314  29.549  13.490   7.657
  633POPC   NC311315   7.869  15.875   9.736
  633POPC   PO411316   8.441  16.201   9.493
  633POPC   GL111317   8.449  16.044   9.074
  633POPC   GL211318   8.331  15.726   9.060
  633POPC   C1A11319   8.264  16.018   8.654
  633POPC   D2A11320   8.210  15.782   8.273
  633POPC   C3A11321   8.174  16.017   7.898
  633POPC   C4A11322   7.946  16.097   7.553
  633POPC   C1B11323   8.057  15.552   8.718
  633POPC   C2B11324   7.708  15.720   8.406
  633POPC   C3B11325   7.782  15.681   7.941
  633POPC   C4B11326   8.217  15.501   7.817
  634POPC   NC311327  14.311   8.853   9.468
  634POPC   PO411328  14.910   9.181   9.563
  634POPC   GL111329  14.596   9.187   9.190
  634POPC   GL211330  14.232   9.225   9.134
  634POPC   C1A11331  14.596   9.141   8.742
  634POPC   D2A11332  14.712   8.988   8.332
  634POPC   C3A11333  14.589   9.339   8.166
  634POPC   C4A11334  14.393   9.330   7.806
  634POPC   C1B11335  14.131   8.944   8.813
  634POPC   C2B11336  14.207   9.037   8.394
  634POPC   C3B11337  14.247   8.860   7.985
  634POPC   C4B11338  14.027   9.005   7.626
  635POPC   NC311339  12.672  36.799   9.493
  635POPC   PO411340  13.134  36.433   9.277
  635POPC   GL111341  13.025  36.623   9.003
  635POPC   GL211342  13.039  36.935   9.139
  635POPC   C1A11343  12.925  36.483   8.636
  635POPC   D2A11344  12.898  36.737   8.315
  635POPC   C3A11345  12.952  36.587   7.926
  635POPC   C4A11346  13.026  36.966   7.726
  635POPC   C1B11347  12.921  37.040   8.739
  635POPC   C2B11348  12.635  37.168   8.433
  635POPC   C3B11349  12.771  37.258   8.051
  635POPC   C4B11350  12.642  37.270   7.619
  636POPC   NC311351   4.868  28.818   9.448
  636POPC   PO411352   5.221  29.366   9.419
  636POPC   GL111353   5.162  29.106   9.098
  636POPC   GL211354   5.267  28.762   9.139
  636POPC   C1A11355   5.141  29.189   8.688
  636POPC   D2A11356   4.929  29.417   8.409
  636POPC   C3A11357   4.763  29.413   8.052
  636POPC   C4A11358   4.984  29.142   7.819
  636POPC   C1B11359   5.111  28.677   8.721
  636POPC   C2B11360   5.190  28.861   8.310
  636POPC   C3B11361   5.330  28.775   7.882
  636POPC   C4B11362   5.220  28.872   7.463
  637POPC   NC311363  31.534  20.541   9.446
  637POPC   PO411364  31.728  21.145   9.567
  637POPC   GL111365  31.576  20.941   9.147
  637POPC   GL211366  31.271  21.074   9.027
  637POPC   C1A11367  31.643  20.587   8.796
  637POPC   D2A11368  31.477  20.328   8.415
  637POPC   C3A11369  31.629  20.461   7.991
  637POPC   C4A11370  31.691  20.876   7.846
  637POPC   C1B11371  31.218  20.835   8.697
  637POPC   C2B11372  31.437  20.845   8.325
  637POPC   C3B11373  31.194  20.743   7.985
  637POPC   C4B11374  31.269  20.618   7.594
  638POPC   NC311375  10.955  14.587   9.540
  638POPC   PO411376  10.474  14.090   9.484
  638POPC   GL111377  10.570  14.332   9.130
  638POPC   GL211378  10.273  14.449   9.055
  638POPC   C1A11379  10.618  14.492   8.689
  638POPC   D2A11380  10.693  14.717   8.291
  638POPC   C3A11381  10.515  14.479   7.920
  638POPC   C4A11382  10.559  14.006   7.848
  638POPC   C1B11383  10.127  14.262   8.714
  638POPC   C2B11384   9.961  14.372   8.333
  638POPC   C3B11385  10.063  14.257   7.910
  638POPC   C4B11386  10.271  14.264   7.489
  639POPC   NC311387  14.704  11.221   9.545
  639POPC   PO411388  13.969  11.248   9.509
  639POPC   GL111389  14.237  11.373   9.147
  639POPC   GL211390  14.620  11.346   9.062
  639POPC   C1A11391  14.245  11.264   8.727
  639POPC   D2A11392  14.573  11.311   8.443
  639POPC   C3A11393  14.279  11.375   8.126
  639POPC   C4A11394  13.989  11.207   7.825
  639POPC   C1B11395  14.646  10.949   8.853
  639POPC   C2B11396  14.732  10.788   8.431
  639POPC   C3B11397  14.484  10.900   8.102
  639POPC   C4B11398  14.560  11.173   7.750
  640POPC   NC311399  16.537  17.552   9.558
  640POPC   PO411400  17.087  17.855   9.412
  640POPC   GL111401  16.821  17.595   9.091
  640POPC   GL211402  16.461  17.522   9.071
  640POPC   C1A11403  16.922  17.271   8.758
  640POPC   D2A11404  16.911  17.035   8.365
  640POPC   C3A11405  16.919  17.313   8.001
  640POPC   C4A11406  16.854  17.221   7.546
  640POPC   C1B11407  16.406  17.220   8.786
  640POPC   C2B11408  16.515  17.354   8.414
  640POPC   C3B11409  16.577  17.655   8.157
  640POPC   C4B11410  16.548  17.587   7.726
  641POPC   NC311411  12.415  19.687   9.453
  641POPC   PO411412  13.019  19.932   9.523
  641POPC   GL111413  12.836  19.769   9.143
  641POPC   GL211414  13.035  19.496   9.009
  641POPC   C1A11415  12.853  19.862   8.715
  641POPC   D2A11416  13.121  19.765   8.396
  641POPC   C3A11417  12.899  19.736   8.009
  641POPC   C4A11418  12.750  20.126   7.833
  641POPC   C1B11419  12.703  19.352   8.770
  641POPC   C2B11420  12.568  19.397   8.382
  641POPC   C3B11421  12.409  19.493   8.021
  641POPC   C4B11422  12.646  19.378   7.708
  642POPC   NC311423  38.314  38.703   9.908
  642POPC   PO411424  38.684  38.670   9.378
  642POPC   GL111425  38.461  38.410   9.070
  642POPC   GL211426  38.596  38.103   8.999
  642POPC   C1A11427  38.447  38.414   8.610
  642POPC   D2A11428  38.302  38.779   8.350
  642POPC   C3A11429  38.154  38.644   7.955
  642POPC   C4A11430  37.991  38.303   7.742
  642POPC   C1B11431  38.854  38.070   8.684
  642POPC   C2B11432  38.744  37.885   8.308
  642POPC   C3B11433  38.735  37.966   7.891
  642POPC   C4B11434  38.513  38.332   7.739
  643POPC   NC311435  18.427  15.649   9.764
  643POPC   PO411436  17.998  16.189   9.683
  643POPC   GL111437  17.983  15.918   9.285
  643POPC   GL211438  18.303  15.711   9.235
  643POPC   C1A11439  18.110  15.955   8.822
  643POPC   D2A11440  18.166  16.225   8.459
  643POPC   C3A11441  18.203  15.988   8.081
  643POPC   C4A11442  18.491  16.119   7.781
  643POPC   C1B11443  18.352  15.493   8.791
  643POPC   C2B11444  18.299  15.551   8.351
  643POPC   C3B11445  18.510  15.510   7.964
  643POPC   C4B11446  18.515  15.656   7.529
  644POPC   NC311447  22.074  33.681   9.939
  644POPC   PO411448  22.290  33.974   9.418
  644POPC   GL111449  22.239  33.673   9.114
  644POPC   GL211450  21.911  33.626   9.047
  644POPC   C1A11451  22.459  33.567   8.774
  644POPC   D2A11452  22.418  33.767   8.397
  644POPC   C3A11453  22.075  33.789   8.124
  644POPC   C4A11454  22.318  33.653   7.814
  644POPC   C1B11455  21.968  33.620   8.608
  644POPC   C2B11456  21.856  33.307   8.302
  644POPC   C3B11457  21.864  33.363   7.888
  644POPC   C4B11458  21.862  33.674   7.602
  645POPC   NC311459  14.649  31.645   9.573
  645POPC   PO411460  14.205  31.158   9.469
  645POPC   GL111461  14.381  31.266   9.065
  645POPC   GL211462  14.404  31.613   9.121
  645POPC   C1A11463  14.517  31.232   8.600
  645POPC   D2A11464  14.714  31.151   8.155
  645POPC   C3A11465  14.589  31.480   7.858
  645POPC   C4A11466  14.140  31.650   7.897
  645POPC   C1B11467  14.521  31.770   8.719
  645POPC   C2B11468  14.444  31.734   8.303
  645POPC   C3B11469  14.532  31.982   7.944
  645POPC   C4B11470  14.495  31.882   7.508
  646POPC   NC311471  24.112  35.039   9.517
  646POPC   PO411472  24.532  35.629   9.640
  646POPC   GL111473  24.631  35.273   9.321
  646POPC   GL211474  24.360  35.201   9.079
  646POPC   C1A11475  24.819  35.165   8.893
  646POPC   D2A11476  24.524  35.129   8.524
  646POPC   C3A11477  24.629  35.308   8.120
  646POPC   C4A11478  24.433  35.396   7.753
  646POPC   C1B11479  24.126  34.939   8.831
  646POPC   C2B11480  24.017  35.015   8.428
  646POPC   C3B11481  24.244  34.999   8.069
  646POPC   C4B11482  24.216  34.940   7.669
  647POPC   NC311483  37.659   5.395   9.594
  647POPC   PO411484  37.408   4.751   9.559
  647POPC   GL111485  37.627   4.880   9.169
  647POPC   GL211486  37.873   5.145   9.205
  647POPC   C1A11487  37.783   4.930   8.741
  647POPC   D2A11488  38.071   5.040   8.397
  647POPC   C3A11489  37.866   4.990   8.040
  647POPC   C4A11490  37.565   5.032   7.729
  647POPC   C1B11491  37.925   5.404   8.829
  647POPC   C2B11492  37.711   5.382   8.453
  647POPC   C3B11493  37.801   5.481   8.030
  647POPC   C4B11494  37.645   5.528   7.622
  648POPC   NC311495  19.969   2.647   9.647
  648POPC   PO411496  20.249   2.853   9.087
  648POPC   GL111497  19.940   2.637   8.972
  648POPC   GL211498  19.688   2.622   9.197
  648POPC   C1A11499  19.701   2.399   8.703
  648POPC   D2A11500  19.685   2.359   8.276
  648POPC   C3A11501  19.960   2.658   8.130
  648POPC   C4A11502  19.989   2.623   7.720
  648POPC   C1B11503  19.483   2.846   8.848
  648POPC   C2B11504  19.608   2.916   8.442
  648POPC   C3B11505  19.475   2.827   8.050
  648POPC   C4B11506  19.702   3.050   7.780
  649POPC   NC311507  34.435   9.581   9.319
  649POPC   PO411508  34.527   8.909   9.407
  649POPC   GL111509  34.759   8.878   9.061
  649POPC   GL211510  34.530   8.686   8.873
  649POPC   C1A11511  34.903   8.967   8.646
  649POPC   D2A11512  34.639   8.886   8.320
  649POPC   C3A11513  34.700   9.140   7.984
  649POPC   C4A11514  34.674   8.794   7.739
  649POPC   C1B11515  34.395   9.109   8.747
  649POPC   C2B11516  34.364   9.312   8.367
  649POPC   C3B11517  34.190   9.225   7.989
  649POPC   C4B11518  34.337   9.232   7.596
  650POPC   NC311519  17.416  17.208   9.535
  650POPC   PO411520  17.444  16.508   9.603
  650POPC   GL111521  17.391  16.703   9.236
  650POPC   GL211522  17.663  16.838   9.154
  650POPC   C1A11523  17.363  16.557   8.809
  650POPC   D2A11524  17.304  16.704   8.404
  650POPC   C3A11525  17.316  16.408   8.080
  650POPC   C4A11526  17.481  16.672   7.790
  650POPC   C1B11527  17.432  17.042   8.791
  650POPC   C2B11528  17.359  17.266   8.424
  650POPC   C3B11529  17.415  17.138   8.012
  650POPC   C4B11530  17.357  17.118   7.582
  651POPC   NC311531  31.238  38.723   9.537
  651POPC   PO411532  31.766  38.269   9.511
  651POPC   GL111533  31.537  38.241   9.100
  651POPC   GL211534  31.262  38.495   9.086
  651POPC   C1A11535  31.399  38.242   8.664
  651POPC   D2A11536  31.610  38.229   8.268
  651POPC   C3A11537  31.410  38.261   7.855
  651POPC   C4A11538  31.217  38.562   7.566
  651POPC   C1B11539  31.228  38.747   8.696
  651POPC   C2B11540  31.483  38.742   8.316
  651POPC   C3B11541  31.467  38.905   7.890
  651POPC   C4B11542  31.634  38.888   7.467
  652POPC   NC311543  24.873  38.643   9.644
  652POPC   PO411544  24.442  38.151   9.632
  652POPC   GL111545  24.349  38.352   9.222
  652POPC   GL211546  24.672  38.522   9.185
  652POPC   C1A11547  24.334  38.507   8.781
  652POPC   D2A11548  24.210  38.659   8.365
  652POPC   C3A11549  24.210  38.435   7.962
  652POPC   C4A11550  24.156  38.711   7.569
  652POPC   C1B11551  24.855  38.577   8.793
  652POPC   C2B11552  24.710  38.527   8.382
  652POPC   C3B11553  24.622  38.703   7.992
  652POPC   C4B11554  24.666  38.563   7.563
  653POPC   NC311555  32.844   6.385   9.446
  653POPC   PO411556  33.474   6.693   9.662
  653POPC   GL111557  33.219   6.682   9.234
  653POPC   GL211558  33.275   6.385   9.087
  653POPC   C1A11559  32.914   6.687   8.846
  653POPC   D2A11560  32.814   6.523   8.436
  653POPC   C3A11561  32.764   6.838   8.084
  653POPC   C4A11562  32.703   6.472   7.734
  653POPC   C1B11563  33.405   6.643   8.752
  653POPC   C2B11564  33.275   6.745   8.362
  653POPC   C3B11565  33.121   6.514   8.017
  653POPC   C4B11566  33.056   6.777   7.601
  654POPC   NC311567  41.556   2.230   9.535
  654POPC   PO411568  41.727   1.551   9.462
  654POPC   GL111569  41.486   1.831   9.141
  654POPC   GL211570  41.524   2.196   9.035
  654POPC   C1A11571  41.368   1.845   8.691
  654POPC   D2A11572  41.125   1.832   8.319
  654POPC   C3A11573  41.412   1.828   8.016
  654POPC   C4A11574  41.315   2.082   7.718
  654POPC   C1B11575  41.835   2.079   8.747
  654POPC   C2B11576  41.863   1.970   8.344
  654POPC   C3B11577  41.922   1.929   7.921
  654POPC   C4B11578  41.769   2.227   7.599
  655POPC   NC311579  44.207  39.933   9.670
  655POPC   PO411580  43.581  40.251   9.510
  655POPC   GL111581  43.819  40.033   9.162
  655POPC   GL211582  44.141  40.141   9.217
  655POPC   C1A11583  43.621  39.890   8.765
  655POPC   D2A11584  43.779  40.005   8.366
  655POPC   C3A11585  43.563  40.020   7.973
  655POPC   C4A11586  43.952  39.968   7.746
  655POPC   C1B11587  44.290  40.328   8.877
  655POPC   C2B11588  44.263  40.179   8.477
  655POPC   C3B11589  44.400  40.316   8.099
  655POPC   C4B11590  44.300  40.337   7.690
  656POPC   NC311591   6.578  22.051   9.676
  656POPC   PO411592   6.638  22.688   9.607
  656POPC   GL111593   6.430  22.373   9.296
  656POPC   GL211594   6.557  22.044   9.176
  656POPC   C1A11595   6.368  22.373   8.828
  656POPC   D2A11596   6.592  22.253   8.469
  656POPC   C3A11597   6.521  22.424   8.077
  656POPC   C4A11598   6.293  22.103   7.919
  656POPC   C1B11599   6.835  21.963   8.830
  656POPC   C2B11600   6.953  21.874   8.402
  656POPC   C3B11601   6.825  21.985   7.962
  656POPC   C4B11602   6.905  21.887   7.514
  657POPC   NC311603  25.811   4.782   9.407
  657POPC   PO411604  26.277   5.233   9.499
  657POPC   GL111605  26.063   5.153   9.155
  657POPC   GL211606  26.106   4.833   9.005
  657POPC   C1A11607  26.081   5.332   8.767
  657POPC   D2A11608  26.252   5.264   8.397
  657POPC   C3A11609  25.891   5.276   8.196
  657POPC   C4A11610  25.844   5.364   7.792
  657POPC   C1B11611  25.888   4.871   8.593
  657POPC   C2B11612  25.864   4.778   8.140
  657POPC   C3B11613  26.134   4.770   7.747
  657POPC   C4B11614  26.310   4.781   7.294
  658POPC   NC311615  20.336  11.517   9.635
  658POPC   PO411616  19.773  11.048   9.519
  658POPC   GL111617  20.078  11.135   9.224
  658POPC   GL211618  20.017  11.498   9.235
  658POPC   C1A11619  19.907  11.077   8.835
  658POPC   D2A11620  19.636  11.323   8.625
  658POPC   C3A11621  19.716  11.310   8.171
  658POPC   C4A11622  19.577  11.435   7.789
  658POPC   C1B11623  20.159  11.507   8.810
  658POPC   C2B11624  20.150  11.325   8.437
  658POPC   C3B11625  20.218  11.482   8.063
  658POPC   C4B11626  20.067  11.249   7.732
  659POPC   NC311627   2.174   0.875   9.757
  659POPC   PO411628   2.036   0.282   9.586
  659POPC   GL111629   2.012   0.607   9.256
  659POPC   GL211630   1.769   0.444   9.090
  659POPC   C1A11631   2.066   0.763   8.799
  659POPC   D2A11632   2.237   0.789   8.383
  659POPC   C3A11633   2.164   0.400   8.174
  659POPC   C4A11634   2.122   0.364   7.711
  659POPC   C1B11635   1.600   0.599   8.714
  659POPC   C2B11636   1.739   0.678   8.320
  659POPC   C3B11637   1.933   0.791   7.951
  659POPC   C4B11638   1.844   0.766   7.535
  660POPC   NC311639  23.400  40.210   9.557
  660POPC   PO411640  22.812  39.846   9.432
  660POPC   GL111641  23.065  40.052   9.164
  660POPC   GL211642  23.113  39.758   8.944
  660POPC   C1A11643  23.164  40.243   8.786
  660POPC   D2A11644  23.071  40.038   8.351
  660POPC   C3A11645  22.944  40.282   7.958
  660POPC   C4A11646  23.029  40.104   7.531
  660POPC   C1B11647  22.744  39.902   8.734
  660POPC   C2B11648  22.548  39.826   8.348
  660POPC   C3B11649  22.769  39.813   7.960
  660POPC   C4B11650  22.618  39.790   7.571
  661POPC   NC311651  15.884  31.495   9.606
  661POPC   PO411652  16.411  31.769   9.378
  661POPC   GL111653  15.996  31.652   9.124
  661POPC   GL211654  15.598  31.620   9.196
  661POPC   C1A11655  15.988  31.474   8.703
  661POPC   D2A11656  15.845  31.310   8.307
  661POPC   C3A11657  16.100  31.455   7.963
  661POPC   C4A11658  16.290  31.290   7.594
  661POPC   C1B11659  15.541  31.699   8.776
  661POPC   C2B11660  15.720  31.806   8.364
  661POPC   C3B11661  15.621  31.646   7.955
  661POPC   C4B11662  15.806  31.648   7.541
  662POPC   NC311663  30.981  31.176   9.361
  662POPC   PO411664  31.434  31.603   9.674
  662POPC   GL111665  31.419  31.438   9.266
  662POPC   GL211666  31.284  31.714   9.088
  662POPC   C1A11667  31.437  31.223   8.861
  662POPC   D2A11668  31.381  31.368   8.440
  662POPC   C3A11669  31.697  31.403   8.137
  662POPC   C4A11670  31.583  31.163   7.783
  662POPC   C1B11671  31.702  31.660   8.848
  662POPC   C2B11672  32.000  31.763   8.500
  662POPC   C3B11673  31.984  31.855   8.043
  662POPC   C4B11674  31.690  31.783   7.695
  663POPC   NC311675  28.583  26.864   9.702
  663POPC   PO411676  29.179  26.591   9.460
  663POPC   GL111677  29.222  26.817   9.103
  663POPC   GL211678  28.843  26.931   9.066
  663POPC   C1A11679  29.144  26.795   8.685
  663POPC   D2A11680  28.928  26.937   8.357
  663POPC   C3A11681  29.089  26.730   8.048
  663POPC   C4A11682  29.122  26.609   7.669
  663POPC   C1B11683  28.778  27.265   8.729
  663POPC   C2B11684  29.002  27.434   8.331
  663POPC   C3B11685  28.849  27.272   7.937
  663POPC   C4B11686  28.608  26.871   7.928
  664POPC   NC311687  43.333  24.367   9.537
  664POPC   PO411688  42.784  23.916   9.354
  664POPC   GL111689  42.912  24.322   9.126
  664POPC   GL211690  42.644  24.576   9.132
  664POPC   C1A11691  43.310  24.431   8.857
  664POPC   D2A11692  43.541  24.576   8.466
  664POPC   C3A11693  43.374  24.395   8.106
  664POPC   C4A11694  43.220  24.460   7.717
  664POPC   C1B11695  42.652  24.756   8.711
  664POPC   C2B11696  42.751  24.814   8.256
  664POPC   C3B11697  42.631  24.844   7.816
  664POPC   C4B11698  42.792  24.560   7.467
  665POPC   NC311699   6.934  10.903   9.520
  665POPC   PO411700   6.486  10.435   9.642
  665POPC   GL111701   6.511  10.593   9.235
  665POPC   GL211702   6.376  10.925   9.168
  665POPC   C1A11703   6.427  10.512   8.812
  665POPC   D2A11704   6.688  10.431   8.464
  665POPC   C3A11705   6.459  10.459   8.101
  665POPC   C4A11706   6.608  10.375   7.720
  665POPC   C1B11707   6.682  10.956   8.803
  665POPC   C2B11708   6.608  10.923   8.334
  665POPC   C3B11709   6.820  10.802   7.959
  665POPC   C4B11710   7.060  10.985   7.632
  666POPC   NC311711  33.520  10.779   9.511
  666POPC   PO411712  33.821  10.150   9.507
  666POPC   GL111713  33.832  10.469   9.241
  666POPC   GL211714  34.163  10.572   9.236
  666POPC   C1A11715  33.717  10.560   8.822
  666POPC   D2A11716  33.580  10.371   8.454
  666POPC   C3A11717  33.896  10.510   8.154
  666POPC   C4A11718  33.726  10.566   7.794
  666POPC   C1B11719  34.146  10.257   8.897
  666POPC   C2B11720  34.055  10.142   8.466
  666POPC   C3B11721  34.231  10.164   8.027
  666POPC   C4B11722  34.074  10.256   7.603
  667POPC   NC311723  44.813   3.991   9.562
  667POPC   PO411724  44.487   4.598   9.547
  667POPC   GL111725  44.599   4.289   9.194
  667POPC   GL211726  44.881   4.074   9.070
  667POPC   C1A11727  44.480   4.151   8.772
  667POPC   D2A11728  44.693   4.001   8.367
  667POPC   C3A11729  44.479   4.031   7.958
  667POPC   C4A11730  44.539   4.336   7.631
  667POPC   C1B11731  44.967   4.343   8.731
  667POPC   C2B11732   0.016   4.458   8.305
  667POPC   C3B11733  44.942   4.272   7.912
  667POPC   C4B11734   0.008   4.360   7.435
  668POPC   NC311735   0.771   2.269   9.317
  668POPC   PO411736   0.392   1.824   9.561
  668POPC   GL111737   0.341   1.991   9.171
  668POPC   GL211738   0.644   1.838   9.065
  668POPC   C1A11739   0.216   1.950   8.739
  668POPC   D2A11740  44.896   1.955   8.382
  668POPC   C3A11741   0.106   2.043   7.977
  668POPC   C4A11742   0.392   2.051   7.609
  668POPC   C1B11743   0.768   2.074   8.707
  668POPC   C2B11744   0.642   2.249   8.361
  668POPC   C3B11745   0.752   2.159   7.946
  668POPC   C4B11746   0.933   2.030   7.555
  669POPC   NC311747  35.444  20.796   9.375
  669POPC   PO411748  35.374  20.155   9.303
  669POPC   GL111749  35.403  20.450   9.001
  669POPC   GL211750  35.209  20.786   8.942
  669POPC   C1A11751  35.471  20.481   8.588
  669POPC   D2A11752  35.565  20.658   8.219
  669POPC   C3A11753  35.461  20.370   7.930
  669POPC   C4A11754  35.267  20.355   7.550
  669POPC   C1B11755  34.961  20.917   8.620
  669POPC   C2B11756  35.078  20.820   8.251
  669POPC   C3B11757  35.021  20.660   7.872
  669POPC   C4B11758  35.048  20.827   7.448
  670POPC   NC311759  18.861   9.613   9.572
  670POPC   PO411760  19.309  10.085   9.403
  670POPC   GL111761  19.045   9.821   9.137
  670POPC   GL211762  19.115   9.444   9.156
  670POPC   C1A11763  19.105   9.758   8.696
  670POPC   D2A11764  19.443   9.839   8.399
  670POPC   C3A11765  19.309   9.820   7.971
  670POPC   C4A11766  19.453  10.163   7.736
  670POPC   C1B11767  18.725   9.475   8.917
  670POPC   C2B11768  18.747   9.455   8.476
  670POPC   C3B11769  18.811   9.660   8.093
  670POPC   C4B11770  18.861   9.554   7.675
  671POPC   NC311771  23.164  36.155   9.644
  671POPC   PO411772  22.526  35.926   9.560
  671POPC   GL111773  22.768  36.120   9.232
  671POPC   GL211774  23.129  36.032   9.134
  671POPC   C1A11775  22.677  36.215   8.804
  671POPC   D2A11776  22.924  35.955   8.534
  671POPC   C3A11777  23.016  36.003   8.102
  671POPC   C4A11778  22.920  36.020   7.668
  671POPC   C1B11779  23.157  36.377   8.802
  671POPC   C2B11780  23.036  36.464   8.342
  671POPC   C3B11781  23.158  36.454   7.876
  671POPC   C4B11782  23.238  36.359   7.408
  672POPC   NC311783  13.577  28.035   9.638
  672POPC   PO411784  13.687  28.645   9.373
  672POPC   GL111785  13.794  28.329   9.135
  672POPC   GL211786  13.549  28.070   9.113
  672POPC   C1A11787  13.807  28.324   8.719
  672POPC   D2A11788  13.602  28.545   8.398
  672POPC   C3A11789  13.722  28.315   8.054
  672POPC   C4A11790  13.536  28.269   7.665
  672POPC   C1B11791  13.299  28.344   8.779
  672POPC   C2B11792  13.065  28.242   8.372
  672POPC   C3B11793  13.156  28.444   7.975
  672POPC   C4B11794  13.235  28.737   7.620
  673POPC   NC311795   6.818  15.300   9.582
  673POPC   PO411796   6.179  15.499   9.461
  673POPC   GL111797   6.509  15.450   9.201
  673POPC   GL211798   6.703  15.133   9.130
  673POPC   C1A11799   6.438  15.498   8.819
  673POPC   D2A11800   6.472  15.294   8.459
  673POPC   C3A11801   6.767  15.411   8.178
  673POPC   C4A11802   6.481  15.453   7.861
  673POPC   C1B11803   6.497  14.935   8.829
  673POPC   C2B11804   6.661  14.824   8.429
  673POPC   C3B11805   6.571  14.956   8.060
  673POPC   C4B11806   6.912  14.949   7.865
  674POPC   NC311807  22.191  14.179   9.637
  674POPC   PO411808  21.801  14.654   9.597
  674POPC   GL111809  22.072  14.514   9.186
  674POPC   GL211810  22.282  14.194   9.145
  674POPC   C1A11811  22.038  14.352   8.734
  674POPC   D2A11812  21.895  14.069   8.393
  674POPC   C3A11813  22.005  14.158   7.967
  674POPC   C4A11814  22.173  14.503   7.815
  674POPC   C1B11815  22.505  14.110   8.777
  674POPC   C2B11816  22.614  14.209   8.404
  674POPC   C3B11817  22.602  14.382   8.064
  674POPC   C4B11818  22.491  14.099   7.775
  675POPC   NC311819   4.478   5.341   9.382
  675POPC   PO411820   3.916   5.253   9.752
  675POPC   GL111821   3.988   5.023   9.294
  675POPC   GL211822   4.319   4.826   9.248
  675POPC   C1A11823   4.141   5.077   8.832
  675POPC   D2A11824   4.018   5.170   8.418
  675POPC   C3A11825   4.228   5.152   8.047
  675POPC   C4A11826   4.197   5.268   7.654
  675POPC   C1B11827   4.597   4.867   8.846
  675POPC   C2B11828   4.534   5.017   8.421
  675POPC   C3B11829   4.676   4.945   7.956
  675POPC   C4B11830   4.599   5.021   7.480
  676POPC   NC311831  14.081  37.455   9.392
  676POPC   PO411832  14.675  37.181   9.503
  676POPC   GL111833  14.586  37.519   9.221
  676POPC   GL211834  14.483  37.897   9.189
  676POPC   C1A11835  14.427  37.499   8.832
  676POPC   D2A11836  14.374  37.797   8.533
  676POPC   C3A11837  14.469  37.672   8.119
  676POPC   C4A11838  14.268  37.412   7.790
  676POPC   C1B11839  14.103  38.035   8.921
  676POPC   C2B11840  14.016  38.169   8.493
  676POPC   C3B11841  13.881  38.164   8.059
  676POPC   C4B11842  14.104  37.905   7.788
  677POPC   NC311843   6.108   1.448   9.298
  677POPC   PO411844   5.695   1.020   9.678
  677POPC   GL111845   5.816   1.038   9.244
  677POPC   GL211846   6.157   0.952   9.184
  677POPC   C1A11847   5.756   1.107   8.826
  677POPC   D2A11848   5.743   1.374   8.458
  677POPC   C3A11849   5.753   1.167   8.066
  677POPC   C4A11850   5.702   1.372   7.712
  677POPC   C1B11851   6.281   0.945   8.744
  677POPC   C2B11852   6.228   1.214   8.331
  677POPC   C3B11853   6.174   1.383   7.912
  677POPC   C4B11854   6.092   1.050   7.606
  678POPC   NC311855  13.354  25.411   9.652
  678POPC   PO411856  12.805  25.249   9.274
  678POPC   GL111857  13.032  25.441   8.976
  678POPC   GL211858  12.934  25.750   9.098
  678POPC   C1A11859  12.983  25.351   8.530
  678POPC   D2A11860  12.659  25.207   8.218
  678POPC   C3A11861  12.812  24.935   7.864
  678POPC   C4A11862  13.205  24.937   7.585
  678POPC   C1B11863  12.604  25.667   8.773
  678POPC   C2B11864  12.437  25.759   8.372
  678POPC   C3B11865  12.584  25.645   7.945
  678POPC   C4B11866  13.008  25.421   7.896
  679POPC   NC311867   9.307  41.132   9.540
  679POPC   PO411868   9.687  40.520   9.544
  679POPC   GL111869   9.754  40.618   9.154
  679POPC   GL211870   9.571  40.913   9.158
  679POPC   C1A11871   9.817  40.731   8.743
  679POPC   D2A11872   9.823  40.528   8.366
  679POPC   C3A11873  10.098  40.604   8.050
  679POPC   C4A11874   9.820  40.510   7.734
  679POPC   C1B11875   9.374  41.059   8.773
  679POPC   C2B11876   9.529  40.950   8.374
  679POPC   C3B11877   9.633  40.974   7.956
  679POPC   C4B11878   9.381  41.317   7.859
  680POPC   NC311879   1.351  26.435   9.611
  680POPC   PO411880   1.064  27.011   9.576
  680POPC   GL111881   1.241  26.863   9.185
  680POPC   GL211882   1.577  27.027   9.169
  680POPC   C1A11883   1.034  26.824   8.768
  680POPC   D2A11884   0.888  26.609   8.403
  680POPC   C3A11885   1.024  26.740   8.010
  680POPC   C4A11886   0.946  26.599   7.595
  680POPC   C1B11887   1.408  27.192   8.769
  680POPC   C2B11888   1.285  27.022   8.354
  680POPC   C3B11889   1.459  27.218   7.930
  680POPC   C4B11890   1.579  27.181   7.429
  681POPC   NC311891  42.639  32.575   9.553
  681POPC   PO411892  42.037  32.263   9.573
  681POPC   GL111893  42.270  32.291   9.183
  681POPC   GL211894  42.601  32.320   9.121
  681POPC   C1A11895  42.267  32.441   8.749
  681POPC   D2A11896  42.037  32.300   8.378
  681POPC   C3A11897  42.318  32.227   8.025
  681POPC   C4A11898  42.386  32.127   7.584
  681POPC   C1B11899  42.754  32.621   8.843
  681POPC   C2B11900  42.654  32.696   8.415
  681POPC   C3B11901  42.893  32.678   8.040
  681POPC   C4B11902  42.618  32.565   7.714
  682POPC   NC311903  21.444  20.594   9.549
  682POPC   PO411904  21.992  20.882   9.631
  682POPC   GL111905  21.707  20.813   9.200
  682POPC   GL211906  21.680  20.423   9.136
  682POPC   C1A11907  21.382  20.686   8.827
  682POPC   D2A11908  21.393  20.898   8.411
  682POPC   C3A11909  21.207  20.913   8.003
  682POPC   C4A11910  21.505  20.904   7.700
  682POPC   C1B11911  21.618  20.214   8.736
  682POPC   C2B11912  21.352  20.341   8.383
  682POPC   C3B11913  21.433  20.448   7.948
  682POPC   C4B11914  21.190  20.547   7.538
  683POPC   NC311915   2.937   6.012   9.967
  683POPC   PO411916   2.425   5.867   9.584
  683POPC   GL111917   2.537   5.905   9.154
  683POPC   GL211918   2.868   5.806   9.060
  683POPC   C1A11919   2.614   6.144   8.771
  683POPC   D2A11920   2.499   5.999   8.391
  683POPC   C3A11921   2.637   6.109   8.025
  683POPC   C4A11922   2.505   5.944   7.681
  683POPC   C1B11923   2.747   5.665   8.697
  683POPC   C2B11924   2.662   5.504   8.320
  683POPC   C3B11925   2.802   5.624   7.951
  683POPC   C4B11926   3.019   5.835   7.635
  684POPC   NC311927  24.499  41.902   9.424
  684POPC   PO411928  24.040  41.371   9.498
  684POPC   GL111929  24.307  41.427   9.135
  684POPC   GL211930  24.623  41.214   9.106
  684POPC   C1A11931  24.580  41.624   8.808
  684POPC   D2A11932  24.511  41.858   8.442
  684POPC   C3A11933  24.557  41.598   8.075
  684POPC   C4A11934  24.509  41.708   7.652
  684POPC   C1B11935  24.397  41.121   8.747
  684POPC   C2B11936  24.682  41.210   8.447
  684POPC   C3B11937  24.669  41.092   8.049
  684POPC   C4B11938  24.407  41.211   7.729
  685POPC   NC311939   7.998  25.081   9.469
  685POPC   PO411940   8.338  25.541   9.451
  685POPC   GL111941   8.225  25.350   9.102
  685POPC   GL211942   7.892  25.464   9.102
  685POPC   C1A11943   8.315  25.131   8.739
  685POPC   D2A11944   8.455  25.341   8.356
  685POPC   C3A11945   8.289  25.333   7.944
  685POPC   C4A11946   8.219  25.464   7.527
  685POPC   C1B11947   7.839  25.239   8.746
  685POPC   C2B11948   7.953  25.270   8.349
  685POPC   C3B11949   7.809  25.132   7.978
  685POPC   C4B11950   7.783  25.230   7.573
  686POPC   NC311951   6.879  44.588   9.912
  686POPC   PO411952   6.341  44.641   9.516
  686POPC   GL111953   6.563  44.436   9.202
  686POPC   GL211954   6.309  44.271   8.988
  686POPC   C1A11955   6.871  44.606   8.888
  686POPC   D2A11956   6.953  44.769   8.484
  686POPC   C3A11957   7.074  44.485   8.157
  686POPC   C4A11958   6.847  44.586   7.777
  686POPC   C1B11959   6.373  44.682   8.786
  686POPC   C2B11960   6.481  44.974   8.433
  686POPC   C3B11961   6.452  44.806   8.022
  686POPC   C4B11962   6.365  44.414   7.783
  687POPC   NC311963  24.198  13.202   9.576
  687POPC   PO411964  24.372  12.537   9.440
  687POPC   GL111965  24.395  12.833   9.123
  687POPC   GL211966  24.509  13.194   9.152
  687POPC   C1A11967  24.597  12.801   8.720
  687POPC   D2A11968  24.377  12.864   8.348
  687POPC   C3A11969  24.514  12.869   7.960
  687POPC   C4A11970  24.799  12.607   7.748
  687POPC   C1B11971  24.254  13.191   8.775
  687POPC   C2B11972  24.073  13.261   8.388
  687POPC   C3B11973  24.124  13.216   7.978
  687POPC   C4B11974  24.023  12.875   7.788
  688POPC   NC311975  43.862  26.126   9.545
  688POPC   PO411976  44.309  25.589   9.323
  688POPC   GL111977  44.004  25.832   9.162
  688POPC   GL211978  43.675  25.725   9.134
  688POPC   C1A11979  43.842  26.135   8.881
  688POPC   D2A11980  43.807  26.020   8.464
  688POPC   C3A11981  43.676  26.296   8.156
  688POPC   C4A11982  43.902  26.139   7.802
  688POPC   C1B11983  43.439  25.789   8.767
  688POPC   C2B11984  43.489  25.594   8.374
  688POPC   C3B11985  43.807  25.659   8.081
  688POPC   C4B11986  44.181  25.635   7.838
  689POPC   NC311987  44.391  33.474   9.418
  689POPC   PO411988  44.801  32.993   9.654
  689POPC   GL111989  44.844  33.117   9.197
  689POPC   GL211990  44.887  33.428   9.202
  689POPC   C1A11991  44.778  32.898   8.754
  689POPC   D2A11992  44.852  32.655   8.365
  689POPC   C3A11993  44.711  32.819   7.967
  689POPC   C4A11994  44.763  32.932   7.529
  689POPC   C1B11995   0.023  33.343   8.754
  689POPC   C2B11996  44.891  33.188   8.323
  689POPC   C3B11997   0.017  33.268   7.888
  689POPC   C4B11998   0.015  33.362   7.431
  690POPC   NC311999  10.865  12.770   9.502
  690POPC   PO412000  10.313  13.164   9.506
  690POPC   GL112001  10.560  13.043   9.181
  690POPC   GL212002  10.427  12.701   9.162
  690POPC   C1A12003  10.655  12.921   8.759
  690POPC   D2A12004  10.506  12.759   8.335
  690POPC   C3A12005  10.671  13.042   8.007
  690POPC   C4A12006  10.659  13.160   7.558
  690POPC   C1B12007  10.235  12.599   8.760
  690POPC   C2B12008  10.131  12.387   8.365
  690POPC   C3B12009  10.161  12.570   7.984
  690POPC   C4B12010  10.540  12.609   7.783
  691POPC   NC312011  16.147  35.424   9.553
  691POPC   PO412012  15.673  34.963   9.680
  691POPC   GL112013  15.844  35.090   9.286
  691POPC   GL212014  16.211  35.045   9.196
  691POPC   C1A12015  15.843  35.302   8.911
  691POPC   D2A12016  15.704  35.282   8.517
  691POPC   C3A12017  15.931  35.422   8.170
  691POPC   C4A12018  15.641  35.413   7.856
  691POPC   C1B12019  16.430  34.949   8.804
  691POPC   C2B12020  16.280  34.972   8.380
  691POPC   C3B12021  16.438  34.965   7.971
  691POPC   C4B12022  16.401  35.296   7.683
  692POPC   NC312023  14.784  27.197   9.167
  692POPC   PO412024  15.052  27.723   9.468
  692POPC   GL112025  14.972  27.673   9.093
  692POPC   GL212026  15.269  27.461   9.030
  692POPC   C1A12027  15.069  27.838   8.710
  692POPC   D2A12028  15.368  27.614   8.443
  692POPC   C3A12029  15.097  27.424   8.147
  692POPC   C4A12030  15.035  27.587   7.730
  692POPC   C1B12031  15.526  27.192   8.730
  692POPC   C2B12032  15.514  27.124   8.256
  692POPC   C3B12033  15.445  27.298   7.801
  692POPC   C4B12034  15.361  27.037   7.449
  693POPC   NC312035  23.904  28.821   9.550
  693POPC   PO412036  24.233  29.420   9.476
  693POPC   GL112037  24.410  29.205   9.146
  693POPC   GL212038  24.099  29.012   9.107
  693POPC   C1A12039  24.712  29.247   8.772
  693POPC   D2A12040  24.897  29.100   8.382
  693POPC   C3A12041  24.662  28.986   8.037
  693POPC   C4A12042  24.637  29.342   7.740
  693POPC   C1B12043  24.234  29.127   8.686
  693POPC   C2B12044  24.263  29.203   8.277
  693POPC   C3B12045  24.205  29.125   7.864
  693POPC   C4B12046  24.007  28.983   7.541
  694POPC   NC312047  15.472  43.132   9.508
  694POPC   PO412048  14.868  42.875   9.400
  694POPC   GL112049  14.873  43.137   9.050
  694POPC   GL212050  15.235  43.182   9.054
  694POPC   C1A12051  14.926  43.197   8.606
  694POPC   D2A12052  14.797  43.358   8.200
  694POPC   C3A12053  14.948  43.060   7.904
  694POPC   C4A12054  15.229  42.727   7.850
  694POPC   C1B12055  15.426  43.348   8.705
  694POPC   C2B12056  15.326  43.288   8.272
  694POPC   C3B12057  15.498  43.135   7.932
  694POPC   C4B12058  15.557  43.131   7.490
  695POPC   NC312059  37.007  29.569   9.562
  695POPC   PO412060  37.191  30.208   9.495
  695POPC   GL112061  36.916  29.941   9.204
  695POPC   GL212062  36.679  29.611   9.181
  695POPC   C1A12063  36.850  29.879   8.789
  695POPC   D2A12064  37.081  29.699   8.478
  695POPC   C3A12065  37.006  29.866   8.088
  695POPC   C4A12066  36.794  29.888   7.742
  695POPC   C1B12067  36.439  29.590   8.846
  695POPC   C2B12068  36.608  29.464   8.453
  695POPC   C3B12069  36.685  29.459   8.036
  695POPC   C4B12070  36.367  29.607   7.743
  696POPC   NC312071  26.060   7.038   9.766
  696POPC   PO412072  26.155   7.645   9.433
  696POPC   GL112073  26.109   7.472   9.028
  696POPC   GL212074  25.798   7.373   9.115
  696POPC   C1A12075  26.223   7.400   8.576
  696POPC   D2A12076  26.371   7.220   8.139
  696POPC   C3A12077  26.144   7.333   7.730
  696POPC   C4A12078  25.759   7.166   7.518
  696POPC   C1B12079  25.715   7.451   8.694
  696POPC   C2B12080  25.831   7.307   8.258
  696POPC   C3B12081  25.753   7.593   7.913
  696POPC   C4B12082  25.476   7.588   7.595
  697POPC   NC312083   1.441  10.147   9.440
  697POPC   PO412084   0.859  10.547   9.527
  697POPC   GL112085   1.053  10.667   9.170
  697POPC   GL212086   1.403  10.722   9.278
  697POPC   C1A12087   0.975  10.477   8.771
  697POPC   D2A12088   1.177  10.344   8.419
  697POPC   C3A12089   1.000  10.498   8.077
  697POPC   C4A12090   0.877  10.402   7.702
  697POPC   C1B12091   1.482  10.648   8.840
  697POPC   C2B12092   1.419  10.791   8.407
  697POPC   C3B12093   1.489  10.600   8.002
  697POPC   C4B12094   1.625  10.769   7.625
  698POPC   NC312095  39.980   8.790   9.368
  698POPC   PO412096  39.708   9.434   9.482
  698POPC   GL112097  39.812   9.264   9.058
  698POPC   GL212098  40.129   9.050   8.957
  698POPC   C1A12099  39.968   9.390   8.634
  698POPC   D2A12100  40.322   9.228   8.381
  698POPC   C3A12101  40.153   9.315   7.998
  698POPC   C4A12102  39.863   9.077   7.715
  698POPC   C1B12103  40.236   8.633   8.753
  698POPC   C2B12104  40.062   8.379   8.435
  698POPC   C3B12105  39.997   8.567   8.075
  698POPC   C4B12106  40.268   8.832   7.929
  699POPC   NC312107  12.173  20.657   9.427
  699POPC   PO412108  12.023  20.012   9.478
  699POPC   GL112109  12.103  20.231   9.090
  699POPC   GL212110  11.842  20.498   9.050
  699POPC   C1A12111  12.263  20.291   8.652
  699POPC   D2A12112  12.146  20.466   8.235
  699POPC   C3A12113  12.397  20.524   7.860
  699POPC   C4A12114  12.493  20.496   7.414
  699POPC   C1B12115  11.925  20.725   8.641
  699POPC   C2B12116  11.756  20.793   8.203
  699POPC   C3B12117  11.889  20.780   7.762
  699POPC   C4B12118  11.816  20.785   7.295
  700POPC   NC312119  36.075  11.463   9.555
  700POPC   PO412120  36.505  10.968   9.740
  700POPC   GL112121  36.364  11.081   9.268
  700POPC   GL212122  36.044  11.227   9.120
  700POPC   C1A12123  36.367  11.104   8.776
  700POPC   D2A12124  36.433  11.449   8.436
  700POPC   C3A12125  36.262  11.348   8.041
  700POPC   C4A12126  36.303  11.088   7.714
  700POPC   C1B12127  35.962  11.434   8.747
  700POPC   C2B12128  35.974  11.638   8.360
  700POPC   C3B12129  35.747  11.635   8.013
  700POPC   C4B12130  35.874  11.431   7.698
  701POPC   NC312131  22.507  38.753   9.524
  701POPC   PO412132  21.923  38.396   9.720
  701POPC   GL112133  22.171  38.373   9.318
  701POPC   GL212134  22.418  38.126   9.302
  701POPC   C1A12135  22.254  38.523   8.894
  701POPC   D2A12136  22.442  38.469   8.473
  701POPC   C3A12137  22.253  38.581   8.093
  701POPC   C4A12138  22.330  38.623   7.661
  701POPC   C1B12139  22.392  38.028   8.859
  701POPC   C2B12140  22.440  37.949   8.414
  701POPC   C3B12141  22.527  38.128   8.039
  701POPC   C4B12142  22.178  38.157   7.790
  702POPC   NC312143  27.901  15.544   9.509
  702POPC   PO412144  27.608  14.957   9.601
  702POPC   GL112145  27.413  15.077   9.217
  702POPC   GL212146  27.334  15.444   9.210
  702POPC   C1A12147  27.594  15.199   8.835
  702POPC   D2A12148  27.734  15.058   8.484
  702POPC   C3A12149  27.526  15.100   8.100
  702POPC   C4A12150  27.629  15.307   7.735
  702POPC   C1B12151  27.194  15.482   8.772
  702POPC   C2B12152  27.156  15.256   8.422
  702POPC   C3B12153  27.212  15.504   8.033
  702POPC   C4B12154  27.350  15.737   7.669
  703POPC   NC312155  37.796  28.960   9.479
  703POPC   PO412156  37.480  29.539   9.521
  703POPC   GL112157  37.655  29.345   9.152
  703POPC   GL212158  37.989  29.200   9.089
  703POPC   C1A12159  37.460  29.202   8.789
  703POPC   D2A12160  37.528  29.078   8.389
  703POPC   C3A12161  37.716  29.345   8.110
  703POPC   C4A12162  37.580  29.192   7.727
  703POPC   C1B12163  37.937  28.997   8.720
  703POPC   C2B12164  38.073  28.997   8.323
  703POPC   C3B12165  38.009  28.960   7.898
  703POPC   C4B12166  38.064  29.099   7.482
  704POPC   NC312167  40.330  19.867   9.370
  704POPC   PO412168  41.045  19.986   9.251
  704POPC   GL112169  40.692  19.936   9.018
  704POPC   GL212170  40.657  19.591   9.069
  704POPC   C1A12171  40.614  20.098   8.632
  704POPC   D2A12172  40.955  20.130   8.326
  704POPC   C3A12173  40.779  20.009   7.949
  704POPC   C4A12174  40.587  20.314   7.748
  704POPC   C1B12175  40.364  19.575   8.729
  704POPC   C2B12176  40.408  19.715   8.313
  704POPC   C3B12177  40.606  19.532   7.968
  704POPC   C4B12178  40.659  19.661   7.552
  705POPC   NC312179  31.734  41.953   9.561
  705POPC   PO412180  31.470  41.345   9.415
  705POPC   GL112181  31.534  41.670   9.146
  705POPC   GL212182  31.877  41.639   9.156
  705POPC   C1A12183  31.382  41.751   8.722
  705POPC   D2A12184  31.128  41.582   8.380
  705POPC   C3A12185  31.270  41.604   7.974
  705POPC   C4A12186  31.438  41.280   7.767
  705POPC   C1B12187  31.759  41.378   8.766
  705POPC   C2B12188  31.609  41.367   8.315
  705POPC   C3B12189  31.801  41.569   7.940
  705POPC   C4B12190  32.126  41.360   7.757
  706POPC   NC312191  25.524  25.469   9.423
  706POPC   PO412192  25.004  25.184   9.670
  706POPC   GL112193  25.090  25.278   9.228
  706POPC   GL212194  24.915  25.527   9.150
  706POPC   C1A12195  25.295  25.303   8.807
  706POPC   D2A12196  25.410  25.120   8.440
  706POPC   C3A12197  25.445  25.412   8.110
  706POPC   C4A12198  25.560  25.315   7.727
  706POPC   C1B12199  24.884  25.585   8.765
  706POPC   C2B12200  25.024  25.485   8.395
  706POPC   C3B12201  24.859  25.471   8.001
  706POPC   C4B12202  25.123  25.549   7.663
  707POPC   NC312203  17.240  14.405   9.616
  707POPC   PO412204  17.896  14.383   9.605
  707POPC   GL112205  17.678  14.226   9.270
  707POPC   GL212206  17.503  14.542   9.212
  707POPC   C1A12207  17.737  14.244   8.839
  707POPC   D2A12208  17.831  14.515   8.504
  707POPC   C3A12209  17.789  14.241   8.172
  707POPC   C4A12210  17.586  14.133   7.785
  707POPC   C1B12211  17.326  14.550   8.814
  707POPC   C2B12212  17.346  14.346   8.426
  707POPC   C3B12213  17.399  14.530   8.026
  707POPC   C4B12214  17.376  14.563   7.585
  708POPC   NC312215  30.806   8.762   9.301
  708POPC   PO412216  31.248   9.305   9.441
  708POPC   GL112217  30.975   9.229   9.114
  708POPC   GL212218  30.625   9.161   9.068
  708POPC   C1A12219  30.968   8.987   8.726
  708POPC   D2A12220  30.711   8.977   8.382
  708POPC   C3A12221  30.662   9.040   7.938
  708POPC   C4A12222  30.603   8.760   7.576
  708POPC   C1B12223  30.416   9.296   8.704
  708POPC   C2B12224  30.492   9.436   8.281
  708POPC   C3B12225  30.237   9.339   7.922
  708POPC   C4B12226  30.265   9.178   7.512
  709POPC   NC312227  11.737   4.299   9.681
  709POPC   PO412228  11.219   4.561   9.823
  709POPC   GL112229  11.332   4.472   9.362
  709POPC   GL212230  11.001   4.504   9.289
  709POPC   C1A12231  11.294   4.206   8.938
  709POPC   D2A12232  11.469   4.234   8.496
  709POPC   C3A12233  11.402   4.031   8.093
  709POPC   C4A12234  11.329   4.164   7.701
  709POPC   C1B12235  10.862   4.492   8.894
  709POPC   C2B12236  11.036   4.520   8.503
  709POPC   C3B12237  11.022   4.519   8.046
  709POPC   C4B12238  10.851   4.454   7.615
  710POPC   NC312239   8.285  39.142   9.468
  710POPC   PO412240   7.659  39.060   9.521
  710POPC   GL112241   7.892  39.253   9.130
  710POPC   GL212242   8.021  39.625   9.153
  710POPC   C1A12243   7.981  39.114   8.703
  710POPC   D2A12244   7.843  39.132   8.250
  710POPC   C3A12245   8.134  38.883   7.949
  710POPC   C4A12246   8.278  38.991   7.553
  710POPC   C1B12247   8.186  39.585   8.743
  710POPC   C2B12248   8.325  39.339   8.385
  710POPC   C3B12249   8.226  39.374   7.966
  710POPC   C4B12250   8.397  39.526   7.590
  711POPC   NC312251  32.180  39.707   9.444
  711POPC   PO412252  32.512  40.268   9.237
  711POPC   GL112253  32.232  39.964   8.995
  711POPC   GL212254  31.970  39.691   8.998
  711POPC   C1A12255  32.200  39.905   8.564
  711POPC   D2A12256  32.458  40.207   8.392
  711POPC   C3A12257  32.441  40.311   7.982
  711POPC   C4A12258  32.736  40.334   7.664
  711POPC   C1B12259  31.805  39.560   8.602
  711POPC   C2B12260  31.784  39.835   8.231
  711POPC   C3B12261  32.048  39.964   7.918
  711POPC   C4B12262  32.471  39.824   7.851
  712POPC   NC312263   5.044  20.237   9.503
  712POPC   PO412264   5.205  20.961   9.440
  712POPC   GL112265   5.033  20.659   9.180
  712POPC   GL212266   5.314  20.438   9.119
  712POPC   C1A12267   5.030  20.634   8.744
  712POPC   D2A12268   5.220  20.765   8.354
  712POPC   C3A12269   4.984  20.754   7.989
  712POPC   C4A12270   5.090  20.714   7.560
  712POPC   C1B12271   5.274  20.182   8.700
  712POPC   C2B12272   5.063  20.275   8.283
  712POPC   C3B12273   5.020  20.259   7.818
  712POPC   C4B12274   5.250  20.254   7.405
  713POPC   NC312275  26.913  41.608   9.525
  713POPC   PO412276  26.384  41.292   9.585
  713POPC   GL112277  26.569  41.464   9.176
  713POPC   GL212278  26.924  41.357   9.078
  713POPC   C1A12279  26.657  41.691   8.757
  713POPC   D2A12280  26.616  41.951   8.388
  713POPC   C3A12281  26.674  41.671   8.108
  713POPC   C4A12282  26.479  41.506   7.760
  713POPC   C1B12283  27.157  41.606   8.788
  713POPC   C2B12284  27.095  41.727   8.419
  713POPC   C3B12285  27.183  41.536   8.111
  713POPC   C4B12286  26.985  41.556   7.732
  714POPC   NC312287  21.207  25.654   9.520
  714POPC   PO412288  21.213  24.988   9.500
  714POPC   GL112289  21.546  25.143   9.205
  714POPC   GL212290  21.426  25.460   9.097
  714POPC   C1A12291  21.762  25.129   8.789
  714POPC   D2A12292  21.794  25.307   8.356
  714POPC   C3A12293  21.795  25.033   7.975
  714POPC   C4A12294  21.800  25.216   7.542
  714POPC   C1B12295  21.152  25.150   8.869
  714POPC   C2B12296  21.138  25.150   8.434
  714POPC   C3B12297  20.972  25.151   8.034
  714POPC   C4B12298  21.309  25.121   7.764
  715POPC   NC312299   7.579  44.980   9.417
  715POPC   PO412300   7.105  44.529   9.528
  715POPC   GL112301   7.216  44.322   9.126
  715POPC   GL212302   7.443  44.611   9.086
  715POPC   C1A12303   7.290  44.389   8.660
  715POPC   D2A12304   7.461  44.822   8.557
  715POPC   C3A12305   7.332  44.951   8.173
  715POPC   C4A12306   7.314  44.812   7.758
  715POPC   C1B12307   7.788  44.528   8.823
  715POPC   C2B12308   7.750  44.420   8.412
  715POPC   C3B12309   7.712  44.624   8.025
  715POPC   C4B12310   8.000  44.677   7.705
  716POPC   NC312311  10.465  27.297   9.833
  716POPC   PO412312  10.887  27.709   9.658
  716POPC   GL112313  10.649  27.442   9.295
  716POPC   GL212314  10.284  27.394   9.180
  716POPC   C1A12315  10.604  27.550   8.823
  716POPC   D2A12316  10.359  27.622   8.415
  716POPC   C3A12317  10.645  27.622   8.056
  716POPC   C4A12318  10.740  27.802   7.674
  716POPC   C1B12319  10.245  27.205   8.740
  716POPC   C2B12320  10.219  27.083   8.324
  716POPC   C3B12321  10.261  27.306   7.971
  716POPC   C4B12322  10.338  27.230   7.561
  717POPC   NC312323  24.816  22.485   9.597
  717POPC   PO412324  24.338  22.099   9.810
  717POPC   GL112325  24.514  22.177   9.324
  717POPC   GL212326  24.684  21.953   9.114
  717POPC   C1A12327  24.576  22.473   8.938
  717POPC   D2A12328  24.710  22.544   8.484
  717POPC   C3A12329  24.525  22.372   8.108
  717POPC   C4A12330  24.501  22.167   7.718
  717POPC   C1B12331  24.422  22.021   8.792
  717POPC   C2B12332  24.601  21.992   8.443
  717POPC   C3B12333  24.633  21.828   8.065
  717POPC   C4B12334  24.941  21.922   7.751
  718POPC   NC312335  41.041  18.284   9.540
  718POPC   PO412336  40.602  18.747   9.657
  718POPC   GL112337  40.656  18.554   9.203
  718POPC   GL212338  40.960  18.365   9.042
  718POPC   C1A12339  40.484  18.445   8.791
  718POPC   D2A12340  40.745  18.272   8.476
  718POPC   C3A12341  40.667  18.325   8.058
  718POPC   C4A12342  40.882  18.404   7.694
  718POPC   C1B12343  40.747  17.983   8.917
  718POPC   C2B12344  40.805  17.746   8.548
  718POPC   C3B12345  40.800  17.825   8.118
  718POPC   C4B12346  40.990  17.906   7.723
  719POPC   NC312347  14.855  19.310   9.444
  719POPC   PO412348  15.415  18.899   9.428
  719POPC   GL112349  15.263  18.910   9.040
  719POPC   GL212350  14.951  19.021   9.031
  719POPC   C1A12351  15.319  19.047   8.581
  719POPC   D2A12352  15.457  19.311   8.184
  719POPC   C3A12353  15.571  19.054   7.801
  719POPC   C4A12354  15.506  18.789   7.403
  719POPC   C1B12355  14.857  19.224   8.695
  719POPC   C2B12356  14.739  18.998   8.364
  719POPC   C3B12357  14.972  19.148   8.048
  719POPC   C4B12358  15.069  18.938   7.680
  720POPC   NC312359  17.529  17.761   9.377
  720POPC   PO412360  17.877  17.151   9.522
  720POPC   GL112361  17.660  17.336   9.118
  720POPC   GL212362  17.288  17.400   9.101
  720POPC   C1A12363  17.730  17.470   8.713
  720POPC   D2A12364  18.044  17.562   8.436
  720POPC   C3A12365  17.834  17.472   8.078
  720POPC   C4A12366  17.672  17.537   7.685
  720POPC   C1B12367  17.252  17.697   8.781
  720POPC   C2B12368  17.432  17.783   8.413
  720POPC   C3B12369  17.321  17.637   8.050
  720POPC   C4B12370  17.178  17.586   7.650
  721POPC   NC312371   4.883   0.219   9.524
  721POPC   PO412372   5.499   0.344   9.741
  721POPC   GL112373   5.267   0.552   9.350
  721POPC   GL212374   4.934   0.729   9.424
  721POPC   C1A12375   5.213   0.463   8.876
  721POPC   D2A12376   5.130   0.176   8.533
  721POPC   C3A12377   5.194   0.429   8.169
  721POPC   C4A12378   5.267   0.275   7.771
  721POPC   C1B12379   5.034   0.913   9.023
  721POPC   C2B12380   4.936   0.842   8.583
  721POPC   C3B12381   4.887   0.863   8.140
  721POPC   C4B12382   5.119   0.771   7.787
  722POPC   NC312383  17.386  33.432   9.333
  722POPC   PO412384  17.832  33.543   9.800
  722POPC   GL112385  17.794  33.149   9.382
  722POPC   GL212386  17.537  32.882   9.267
  722POPC   C1A12387  17.649  33.119   8.839
  722POPC   D2A12388  17.591  33.262   8.360
  722POPC   C3A12389  17.613  32.984   7.967
  722POPC   C4A12390  17.925  32.904   7.628
  722POPC   C1B12391  17.230  32.836   8.909
  722POPC   C2B12392  17.157  32.965   8.471
  722POPC   C3B12393  17.083  32.944   8.033
  722POPC   C4B12394  17.088  32.608   7.709
  723POPC   NC312395  24.053  24.801   9.562
  723POPC   PO412396  24.695  24.360   9.450
  723POPC   GL112397  24.465  24.550   9.122
  723POPC   GL212398  24.165  24.377   9.051
  723POPC   C1A12399  24.232  24.915   8.925
  723POPC   D2A12400  24.145  25.031   8.513
  723POPC   C3A12401  24.358  24.774   8.188
  723POPC   C4A12402  24.716  24.771   7.881
  723POPC   C1B12403  24.257  24.498   8.628
  723POPC   C2B12404  24.341  24.263   8.285
  723POPC   C3B12405  24.473  24.328   7.902
  723POPC   C4B12406  24.269  24.633   7.686
  724POPC   NC312407   4.028  37.497   9.511
  724POPC   PO412408   4.486  37.978   9.458
  724POPC   GL112409   4.290  37.726   9.133
  724POPC   GL212410   3.939  37.841   9.134
  724POPC   C1A12411   4.406  37.491   8.732
  724POPC   D2A12412   4.556  37.354   8.290
  724POPC   C3A12413   4.320  37.549   7.918
  724POPC   C4A12414   4.375  37.579   7.446
  724POPC   C1B12415   4.140  38.014   8.753
  724POPC   C2B12416   3.988  37.918   8.348
  724POPC   C3B12417   3.915  38.047   7.936
  724POPC   C4B12418   4.226  38.034   7.622
  725POPC   NC312419  40.190   1.090   9.606
  725POPC   PO412420  39.566   1.315   9.529
  725POPC   GL112421  39.888   1.381   9.221
  725POPC   GL212422  40.025   1.064   9.113
  725POPC   C1A12423  40.182   1.512   8.897
  725POPC   D2A12424  40.306   1.372   8.488
  725POPC   C3A12425  40.093   1.491   8.137
  725POPC   C4A12426  40.184   1.442   7.739
  725POPC   C1B12427  39.872   1.167   8.699
  725POPC   C2B12428  39.981   1.022   8.291
  725POPC   C3B12429  39.891   1.035   7.862
  725POPC   C4B12430  39.909   0.903   7.438
  726POPC   NC312431  11.556  10.726  10.026
  726POPC   PO412432  11.253  10.328   9.621
  726POPC   GL112433  11.345  10.408   9.177
  726POPC   GL212434  11.578  10.139   9.154
  726POPC   C1A12435  11.197  10.654   8.844
  726POPC   D2A12436  10.935  10.700   8.472
  726POPC   C3A12437  11.038  10.508   8.081
  726POPC   C4A12438  11.320  10.602   7.749
  726POPC   C1B12439  11.500  10.252   8.708
  726POPC   C2B12440  11.480  10.235   8.235
  726POPC   C3B12441  11.704  10.260   7.824
  726POPC   C4B12442  11.595  10.153   7.383
  727POPC   NC312443  34.378  25.844   9.550
  727POPC   PO412444  34.869  26.296   9.476
  727POPC   GL112445  34.657  26.090   9.171
  727POPC   GL212446  34.367  26.263   9.240
  727POPC   C1A12447  34.662  25.976   8.737
  727POPC   D2A12448  34.866  26.208   8.369
  727POPC   C3A12449  34.675  26.188   7.976
  727POPC   C4A12450  34.435  25.845   7.793
  727POPC   C1B12451  34.265  26.299   8.855
  727POPC   C2B12452  34.361  26.283   8.450
  727POPC   C3B12453  34.273  26.477   8.096
  727POPC   C4B12454  34.246  26.326   7.715
  728POPC   NC312455  26.544  23.076   9.445
  728POPC   PO412456  26.895  22.536   9.516
  728POPC   GL112457  26.950  22.846   9.168
  728POPC   GL212458  27.238  22.585   9.115
  728POPC   C1A12459  26.619  22.933   8.810
  728POPC   D2A12460  26.471  23.118   8.396
  728POPC   C3A12461  26.844  23.230   8.161
  728POPC   C4A12462  27.029  23.095   7.771
  728POPC   C1B12463  27.026  22.630   8.698
  728POPC   C2B12464  26.665  22.625   8.369
  728POPC   C3B12465  26.746  22.694   7.918
  728POPC   C4B12466  27.169  22.614   7.718
  729POPC   NC312467  26.379  25.659   9.444
  729POPC   PO412468  26.251  25.017   9.512
  729POPC   GL112469  26.085  25.018   9.129
  729POPC   GL212470  25.959  25.332   9.160
  729POPC   C1A12471  25.834  25.016   8.747
  729POPC   D2A12472  25.737  24.699   8.467
  729POPC   C3A12473  25.720  24.916   8.075
  729POPC   C4A12474  25.999  25.063   7.768
  729POPC   C1B12475  26.196  25.366   8.770
  729POPC   C2B12476  26.101  25.390   8.337
  729POPC   C3B12477  26.227  25.486   7.924
  729POPC   C4B12478  25.946  25.600   7.599
  730POPC   NC312479   0.392  15.399   9.543
  730POPC   PO412480   0.877  14.866   9.592
  730POPC   GL112481   0.703  14.855   9.161
  730POPC   GL212482   0.388  15.063   9.154
  730POPC   C1A12483   0.620  14.958   8.717
  730POPC   D2A12484   0.334  14.891   8.357
  730POPC   C3A12485   0.610  14.958   7.997
  730POPC   C4A12486   0.665  14.975   7.556
  730POPC   C1B12487   0.160  15.196   8.773
  730POPC   C2B12488   0.207  15.388   8.351
  730POPC   C3B12489   0.169  15.226   7.928
  730POPC   C4B12490   0.039  15.541   7.646
  731POPC   NC312491  43.584  43.588   9.341
  731POPC   PO412492  43.019  43.623   9.320
  731POPC   GL112493  43.234  43.819   9.034
  731POPC   GL212494  43.426  44.096   9.221
  731POPC   C1A12495  43.143  43.801   8.599
  731POPC   D2A12496  42.772  43.724   8.347
  731POPC   C3A12497  42.866  43.665   7.920
  731POPC   C4A12498  42.971  44.064   7.691
  731POPC   C1B12499  43.444  44.189   8.775
  731POPC   C2B12500  43.530  44.131   8.335
  731POPC   C3B12501  43.431  43.898   7.958
  731POPC   C4B12502  43.347  43.757   7.509
  732POPC   NC312503  34.244  30.293   9.787
  732POPC   PO412504  34.573  30.220   9.202
  732POPC   GL112505  34.599  30.686   9.116
  732POPC   GL212506  34.280  30.698   9.145
  732POPC   C1A12507  34.816  30.853   8.806
  732POPC   D2A12508  34.795  30.621   8.477
  732POPC   C3A12509  34.688  30.716   8.101
  732POPC   C4A12510  34.931  30.629   7.779
  732POPC   C1B12511  34.330  30.575   8.701
  732POPC   C2B12512  34.387  30.301   8.337
  732POPC   C3B12513  34.358  30.350   7.893
  732POPC   C4B12514  34.412  30.738   7.656
  733POPC   NC312515   9.842  28.598   9.558
  733POPC   PO412516   9.447  28.116   9.528
  733POPC   GL112517   9.703  28.331   9.136
  733POPC   GL212518   9.970  28.650   9.067
  733POPC   C1A12519   9.932  28.200   8.746
  733POPC   D2A12520   9.926  27.977   8.350
  733POPC   C3A12521   9.790  28.168   7.938
  733POPC   C4A12522   9.785  28.582   7.744
  733POPC   C1B12523   9.652  28.626   8.732
  733POPC   C2B12524   9.629  28.433   8.329
  733POPC   C3B12525   9.345  28.613   8.022
  733POPC   C4B12526   9.279  28.633   7.594
  734POPC   NC312527  37.633  16.363   9.465
  734POPC   PO412528  38.193  16.824   9.459
  734POPC   GL112529  37.850  16.909   9.177
  734POPC   GL212530  37.519  16.898   9.233
  734POPC   C1A12531  37.741  16.666   8.847
  734POPC   D2A12532  38.010  16.562   8.544
  734POPC   C3A12533  37.809  16.773   8.251
  734POPC   C4A12534  37.537  16.682   7.944
  734POPC   C1B12535  37.298  16.960   8.849
  734POPC   C2B12536  37.313  16.848   8.431
  734POPC   C3B12537  37.261  17.085   8.063
  734POPC   C4B12538  37.233  16.962   7.638
  735POPC   NC312539  24.067   1.161   9.276
  735POPC   PO412540  23.670   0.821   9.702
  735POPC   GL112541  23.597   1.032   9.248
  735POPC   GL212542  23.583   1.398   9.197
  735POPC   C1A12543  23.434   1.110   8.795
  735POPC   D2A12544  23.628   1.227   8.356
  735POPC   C3A12545  23.452   1.137   7.939
  735POPC   C4A12546  23.604   0.858   7.580
  735POPC   C1B12547  23.726   1.528   8.759
  735POPC   C2B12548  23.997   1.593   8.390
  735POPC   C3B12549  23.902   1.584   7.951
  735POPC   C4B12550  24.119   1.505   7.577
  736POPC   NC312551  28.142  42.192   9.611
  736POPC   PO412552  28.763  42.384   9.608
  736POPC   GL112553  28.532  42.323   9.208
  736POPC   GL212554  28.158  42.364   9.138
  736POPC   C1A12555  28.626  42.413   8.776
  736POPC   D2A12556  28.779  42.506   8.383
  736POPC   C3A12557  28.502  42.518   8.050
  736POPC   C4A12558  28.625  42.280   7.704
  736POPC   C1B12559  28.139  42.492   8.707
  736POPC   C2B12560  28.330  42.180   8.422
  736POPC   C3B12561  28.184  42.133   8.026
  736POPC   C4B12562  27.981  42.513   7.858
  737POPC   NC312563  27.886  41.361   9.452
  737POPC   PO412564  27.343  41.668   9.419
  737POPC   GL112565  27.523  41.465   9.106
  737POPC   GL212566  27.397  41.128   9.093
  737POPC   C1A12567  27.685  41.544   8.722
  737POPC   D2A12568  27.608  41.800   8.385
  737POPC   C3A12569  27.708  41.588   8.014
  737POPC   C4A12570  27.457  41.701   7.702
  737POPC   C1B12571  27.327  41.157   8.639
  737POPC   C2B12572  27.196  40.977   8.240
  737POPC   C3B12573  27.280  41.150   7.818
  737POPC   C4B12574  27.662  41.257   7.582
  738POPC   NC312575  31.799  43.662   9.573
  738POPC   PO412576  31.495  43.083   9.613
  738POPC   GL112577  31.462  42.963   9.182
  738POPC   GL212578  31.777  42.796   9.097
  738POPC   C1A12579  31.327  43.041   8.776
  738POPC   D2A12580  31.477  42.907   8.423
  738POPC   C3A12581  31.585  43.112   8.090
  738POPC   C4A12582  31.473  43.335   7.737
  738POPC   C1B12583  31.895  42.916   8.723
  738POPC   C2B12584  31.968  42.757   8.343
  738POPC   C3B12585  31.975  42.806   7.922
  738POPC   C4B12586  31.639  42.854   7.658
  739POPC   NC312587  10.329  36.503   9.599
  739POPC   PO412588  10.743  35.991   9.548
  739POPC   GL112589  10.746  36.242   9.194
  739POPC   GL212590  10.402  36.240   9.160
  739POPC   C1A12591  10.712  36.139   8.754
  739POPC   D2A12592  10.859  36.337   8.391
  739POPC   C3A12593  10.738  36.131   8.017
  739POPC   C4A12594  10.941  35.966   7.652
  739POPC   C1B12595  10.288  36.397   8.765
  739POPC   C2B12596  10.358  36.233   8.351
  739POPC   C3B12597  10.277  36.401   7.934
  739POPC   C4B12598  10.167  36.216   7.524
  740POPC   NC312599  30.149  33.525   9.320
  740POPC   PO412600  29.620  33.906   9.592
  740POPC   GL112601  29.779  33.973   9.153
  740POPC   GL212602  30.087  33.978   9.097
  740POPC   C1A12603  29.874  34.201   8.719
  740POPC   D2A12604  29.823  33.994   8.354
  740POPC   C3A12605  29.767  34.092   7.955
  740POPC   C4A12606  29.501  33.774   7.783
  740POPC   C1B12607  30.151  33.726   8.704
  740POPC   C2B12608  30.138  33.611   8.297
  740POPC   C3B12609  30.261  33.909   8.001
  740POPC   C4B12610  30.068  33.758   7.699
  741POPC   NC312611  15.552  42.474   9.553
  741POPC   PO412612  15.049  42.183   9.548
  741POPC   GL112613  15.128  42.346   9.190
  741POPC   GL212614  15.434  42.181   9.142
  741POPC   C1A12615  14.950  42.506   8.818
  741POPC   D2A12616  15.145  42.685   8.446
  741POPC   C3A12617  15.199  42.337   8.168
  741POPC   C4A12618  14.917  42.337   7.822
  741POPC   C1B12619  15.378  42.230   8.714
  741POPC   C2B12620  15.391  41.927   8.411
  741POPC   C3B12621  15.467  41.924   7.996
  741POPC   C4B12622  15.424  42.225   7.682
  742POPC   NC312623  23.667  44.393   9.484
  742POPC   PO412624  23.634   0.039   9.505
  742POPC   GL112625  23.782  44.805   9.131
  742POPC   GL212626  23.779  44.448   8.990
  742POPC   C1A12627  23.957  44.858   8.742
  742POPC   D2A12628  23.709  44.592   8.490
  742POPC   C3A12629  23.682  44.795   8.139
  742POPC   C4A12630  23.628  44.913   7.720
  742POPC   C1B12631  24.139  44.394   8.676
  742POPC   C2B12632  24.191  44.649   8.277
  742POPC   C3B12633  24.035  44.609   7.831
  742POPC   C4B12634  24.209  44.394   7.485
  743POPC   NC312635  36.454   1.193   9.494
  743POPC   PO412636  37.125   1.365   9.505
  743POPC   GL112637  36.859   1.236   9.190
  743POPC   GL212638  36.753   1.572   9.144
  743POPC   C1A12639  36.813   1.011   8.798
  743POPC   D2A12640  36.995   1.187   8.408
  743POPC   C3A12641  36.749   1.226   8.026
  743POPC   C4A12642  36.755   0.958   7.679
  743POPC   C1B12643  36.680   1.494   8.719
  743POPC   C2B12644  36.903   1.682   8.357
  743POPC   C3B12645  37.172   1.531   8.018
  743POPC   C4B12646  37.087   1.383   7.628
  744POPC   NC312647  10.724  24.687   9.504
  744POPC   PO412648  10.709  24.007   9.532
  744POPC   GL112649  10.693  24.312   9.121
  744POPC   GL212650  10.644  24.691   9.008
  744POPC   C1A12651  10.741  24.308   8.651
  744POPC   D2A12652  10.887  24.129   8.282
  744POPC   C3A12653  10.668  24.246   7.905
  744POPC   C4A12654  10.506  24.344   7.526
  744POPC   C1B12655  10.298  24.536   8.734
  744POPC   C2B12656  10.382  24.387   8.293
  744POPC   C3B12657  10.198  24.533   7.910
  744POPC   C4B12658  10.188  24.732   7.484
  745POPC   NC312659  41.316   3.908   9.886
  745POPC   PO412660  41.752   4.153   9.467
  745POPC   GL112661  41.824   4.155   9.091
  745POPC   GL212662  41.506   4.319   9.032
  745POPC   C1A12663  41.857   4.179   8.675
  745POPC   D2A12664  41.585   4.361   8.386
  745POPC   C3A12665  41.605   4.157   8.002
  745POPC   C4A12666  41.782   4.360   7.654
  745POPC   C1B12667  41.210   4.223   8.757
  745POPC   C2B12668  41.082   4.457   8.471
  745POPC   C3B12669  41.216   4.592   8.092
  745POPC   C4B12670  41.254   4.410   7.731
  746POPC   NC312671  23.483  15.756  10.241
  746POPC   PO412672  23.512  15.998   9.561
  746POPC   GL112673  23.779  15.905   9.222
  746POPC   GL212674  24.009  15.612   9.359
  746POPC   C1A12675  23.783  16.048   8.772
  746POPC   D2A12676  23.581  15.981   8.353
  746POPC   C3A12677  23.772  16.164   7.963
  746POPC   C4A12678  23.644  15.980   7.554
  746POPC   C1B12679  23.976  15.546   8.932
  746POPC   C2B12680  23.909  15.601   8.501
  746POPC   C3B12681  23.879  15.675   8.073
  746POPC   C4B12682  24.116  15.490   7.734
  747POPC   NC312683  31.946  24.278   9.446
  747POPC   PO412684  31.474  24.693   9.629
  747POPC   GL112685  31.389  24.529   9.231
  747POPC   GL212686  31.469  24.193   9.216
  747POPC   C1A12687  31.481  24.689   8.824
  747POPC   D2A12688  31.364  24.909   8.442
  747POPC   C3A12689  31.387  24.699   8.060
  747POPC   C4A12690  31.791  24.581   7.873
  747POPC   C1B12691  31.247  24.169   8.834
  747POPC   C2B12692  31.367  24.332   8.458
  747POPC   C3B12693  31.487  24.203   8.095
  747POPC   C4B12694  31.264  24.245   7.759
  748POPC   NC312695   6.286  13.469   9.540
  748POPC   PO412696   5.630  13.622   9.620
  748POPC   GL112697   5.857  13.515   9.218
  748POPC   GL212698   5.856  13.854   9.091
  748POPC   C1A12699   5.855  13.252   8.797
  748POPC   D2A12700   6.085  13.193   8.397
  748POPC   C3A12701   5.879  13.236   7.965
  748POPC   C4A12702   5.950  13.477   7.573
  748POPC   C1B12703   5.575  13.670   8.793
  748POPC   C2B12704   5.618  13.496   8.381
  748POPC   C3B12705   5.676  13.699   7.989
  748POPC   C4B12706   5.963  14.031   7.847
  749POPC   NC312707  38.386   9.345   9.533
  749POPC   PO412708  37.938   9.931   9.415
  749POPC   GL112709  38.305   9.839   9.129
  749POPC   GL212710  38.441   9.471   9.052
  749POPC   C1A12711  38.586   9.844   8.743
  749POPC   D2A12712  38.562   9.549   8.402
  749POPC   C3A12713  38.736   9.717   8.036
  749POPC   C4A12714  38.731   9.775   7.582
  749POPC   C1B12715  38.139   9.564   8.734
  749POPC   C2B12716  37.995   9.399   8.398
  749POPC   C3B12717  38.098   9.600   8.064
  749POPC   C4B12718  38.369   9.493   7.771
  750POPC   NC312719  26.129  20.607   9.543
  750POPC   PO412720  25.460  20.323   9.400
  750POPC   GL112721  25.834  20.404   9.185
  750POPC   GL212722  25.865  20.775   9.150
  750POPC   C1A12723  26.004  20.305   8.811
  750POPC   D2A12724  25.737  20.281   8.447
  750POPC   C3A12725  25.832  20.480   8.099
  750POPC   C4A12726  26.003  20.576   7.718
  750POPC   C1B12727  26.204  20.804   8.853
  750POPC   C2B12728  26.200  20.626   8.449
  750POPC   C3B12729  26.348  20.680   8.059
  750POPC   C4B12730  26.623  20.477   7.791
  751POPC   NC312731  43.834  39.019   9.808
  751POPC   PO412732  44.150  38.472   9.489
  751POPC   GL112733  43.838  38.404   9.152
  751POPC   GL212734  44.024  38.153   9.044
  751POPC   C1A12735  43.745  38.453   8.682
  751POPC   D2A12736  44.070  38.492   8.314
  751POPC   C3A12737  43.979  38.588   7.852
  751POPC   C4A12738  44.190  38.533   7.416
  751POPC   C1B12739  43.868  37.968   8.715
  751POPC   C2B12740  43.763  38.061   8.310
  751POPC   C3B12741  43.874  38.058   7.895
  751POPC   C4B12742  43.797  38.223   7.485
  752POPC   NC312743   5.245  27.212   9.580
  752POPC   PO412744   4.784  27.732   9.600
  752POPC   GL112745   4.988  27.785   9.204
  752POPC   GL212746   5.020  27.443   9.178
  752POPC   C1A12747   5.249  27.741   8.818
  752POPC   D2A12748   5.340  27.585   8.376
  752POPC   C3A12749   5.013  27.564   8.019
  752POPC   C4A12750   4.812  27.888   7.762
  752POPC   C1B12751   5.308  27.231   8.883
  752POPC   C2B12752   5.378  27.062   8.473
  752POPC   C3B12753   5.584  27.227   8.103
  752POPC   C4B12754   5.490  27.558   7.832
  753POPC   NC312755  27.732  37.951   9.576
  753POPC   PO412756  27.494  37.349   9.321
  753POPC   GL112757  27.483  37.600   9.002
  753POPC   GL212758  27.527  37.927   9.121
  753POPC   C1A12759  27.659  37.505   8.625
  753POPC   D2A12760  27.819  37.408   8.215
  753POPC   C3A12761  27.549  37.531   7.884
  753POPC   C4A12762  27.698  37.485   7.432
  753POPC   C1B12763  27.373  38.036   8.735
  753POPC   C2B12764  27.410  37.854   8.330
  753POPC   C3B12765  27.376  38.023   7.940
  753POPC   C4B12766  27.377  37.893   7.552
  754POPC   NC312767   3.698   4.843   9.684
  754POPC   PO412768   3.197   5.239   9.491
  754POPC   GL112769   3.467   5.137   9.171
  754POPC   GL212770   3.442   4.822   9.218
  754POPC   C1A12771   3.668   5.319   8.787
  754POPC   D2A12772   3.677   5.541   8.384
  754POPC   C3A12773   3.732   5.296   7.989
  754POPC   C4A12774   3.438   4.991   7.813
  754POPC   C1B12775   3.721   4.807   8.896
  754POPC   C2B12776   3.649   4.847   8.524
  754POPC   C3B12777   3.785   4.789   8.151
  754POPC   C4B12778   3.944   4.833   7.773
  755POPC   NC312779  33.343   8.876   9.393
  755POPC   PO412780  32.908   9.284   9.648
  755POPC   GL112781  32.909   9.142   9.204
  755POPC   GL212782  32.563   9.239   9.127
  755POPC   C1A12783  33.015   8.882   8.793
  755POPC   D2A12784  33.142   8.651   8.383
  755POPC   C3A12785  33.119   8.835   7.983
  755POPC   C4A12786  33.160   8.612   7.588
  755POPC   C1B12787  32.771   9.356   8.768
  755POPC   C2B12788  32.798   9.151   8.420
  755POPC   C3B12789  32.775   9.246   8.059
  755POPC   C4B12790  32.850   9.198   7.691
  756POPC   NC312791   2.377  34.457   9.743
  756POPC   PO412792   3.064  34.428   9.518
  756POPC   GL112793   2.846  34.500   9.077
  756POPC   GL212794   2.522  34.490   9.044
  756POPC   C1A12795   2.750  34.498   8.599
  756POPC   D2A12796   2.946  34.765   8.251
  756POPC   C3A12797   2.826  34.650   7.862
  756POPC   C4A12798   2.897  34.309   7.615
  756POPC   C1B12799   2.315  34.214   8.707
  756POPC   C2B12800   2.338  34.066   8.325
  756POPC   C3B12801   2.459  34.366   8.052
  756POPC   C4B12802   2.392  34.467   7.636
  757POPC   NC312803  11.827  27.375   9.471
  757POPC   PO412804  12.304  27.870   9.531
  757POPC   GL112805  12.173  27.633   9.197
  757POPC   GL212806  11.879  27.834   9.172
  757POPC   C1A12807  12.075  27.573   8.766
  757POPC   D2A12808  12.223  27.309   8.443
  757POPC   C3A12809  12.075  27.435   8.056
  757POPC   C4A12810  12.322  27.336   7.680
  757POPC   C1B12811  12.183  28.059   8.910
  757POPC   C2B12812  12.126  28.000   8.482
  757POPC   C3B12813  12.206  28.020   8.055
  757POPC   C4B12814  12.071  27.804   7.711
  758POPC   NC312815  20.743  18.603   9.484
  758POPC   PO412816  20.910  19.306   9.471
  758POPC   GL112817  20.667  19.108   9.154
  758POPC   GL212818  20.897  18.918   9.091
  758POPC   C1A12819  20.437  19.165   8.775
  758POPC   D2A12820  20.291  19.342   8.390
  758POPC   C3A12821  20.287  19.014   8.131
  758POPC   C4A12822  20.506  18.896   7.775
  758POPC   C1B12823  20.941  19.176   8.726
  758POPC   C2B12824  20.771  19.107   8.359
  758POPC   C3B12825  20.699  19.308   8.026
  758POPC   C4B12826  20.792  19.289   7.653
  759POPC   NC312827  18.140  17.981   9.583
  759POPC   PO412828  18.478  18.485   9.609
  759POPC   GL112829  18.472  18.248   9.200
  759POPC   GL212830  18.424  17.893   9.137
  759POPC   C1A12831  18.370  18.433   8.802
  759POPC   D2A12832  18.003  18.528   8.559
  759POPC   C3A12833  17.996  18.452   8.115
  759POPC   C4A12834  18.321  18.295   7.875
  759POPC   C1B12835  18.245  17.947   8.754
  759POPC   C2B12836  18.381  18.092   8.366
  759POPC   C3B12837  18.242  17.817   8.044
  759POPC   C4B12838  18.052  17.902   7.693
  760POPC   NC312839  36.253  29.486   9.541
  760POPC   PO412840  36.010  28.806   9.506
  760POPC   GL112841  36.215  29.097   9.200
  760POPC   GL212842  36.028  29.428   9.088
  760POPC   C1A12843  36.402  29.094   8.809
  760POPC   D2A12844  36.169  29.199   8.428
  760POPC   C3A12845  36.370  29.077   8.044
  760POPC   C4A12846  36.402  29.117   7.590
  760POPC   C1B12847  35.808  29.691   8.775
  760POPC   C2B12848  35.674  29.766   8.346
  760POPC   C3B12849  35.908  29.618   7.978
  760POPC   C4B12850  35.921  29.182   7.791
  761POPC   NC312851  24.493  14.158   9.619
  761POPC   PO412852  24.552  13.512   9.571
  761POPC   GL112853  24.664  13.728   9.225
  761POPC   GL212854  24.929  13.961   9.313
  761POPC   C1A12855  24.519  13.641   8.816
  761POPC   D2A12856  24.381  13.651   8.393
  761POPC   C3A12857  24.589  13.416   8.079
  761POPC   C4A12858  24.532  13.484   7.643
  761POPC   C1B12859  24.752  14.094   8.887
  761POPC   C2B12860  24.674  14.062   8.427
  761POPC   C3B12861  24.783  13.907   7.983
  761POPC   C4B12862  24.776  13.897   7.502
  762POPC   NC312863  39.838  33.474   9.622
  762POPC   PO412864  40.101  34.158   9.619
  762POPC   GL112865  39.968  33.855   9.291
  762POPC   GL212866  40.162  33.541   9.218
  762POPC   C1A12867  39.818  33.828   8.857
  762POPC   D2A12868  40.062  34.020   8.550
  762POPC   C3A12869  40.077  33.945   8.116
  762POPC   C4A12870  39.970  33.704   7.767
  762POPC   C1B12871  40.369  33.464   8.818
  762POPC   C2B12872  40.387  33.259   8.432
  762POPC   C3B12873  40.333  33.481   8.060
  762POPC   C4B12874  40.492  33.815   7.816
  763POPC   NC312875  21.584  22.991  10.075
  763POPC   PO412876  21.204  22.765   9.512
  763POPC   GL112877  21.420  22.818   9.084
  763POPC   GL212878  21.753  22.678   9.152
  763POPC   C1A12879  21.387  23.133   8.739
  763POPC   D2A12880  21.226  23.165   8.306
  763POPC   C3A12881  21.163  22.798   8.065
  763POPC   C4A12882  21.248  22.855   7.629
  763POPC   C1B12883  21.848  22.898   8.762
  763POPC   C2B12884  21.733  23.040   8.363
  763POPC   C3B12885  21.667  22.783   8.050
  763POPC   C4B12886  21.779  22.806   7.694
  764POPC   NC312887   0.450  10.762   9.458
  764POPC   PO412888   0.254  10.155   9.410
  764POPC   GL112889   0.556  10.362   9.118
  764POPC   GL212890   0.569  10.721   8.986
  764POPC   C1A12891   0.447  10.368   8.680
  764POPC   D2A12892   0.644  10.278   8.370
  764POPC   C3A12893   0.473  10.409   8.020
  764POPC   C4A12894   0.441  10.163   7.655
  764POPC   C1B12895   0.199  10.820   8.724
  764POPC   C2B12896  44.994  10.766   8.314
  764POPC   C3B12897   0.135  10.770   7.873
  764POPC   C4B12898   0.466  10.656   7.540
  765POPC   NC312899  34.965  18.585   9.907
  765POPC   PO412900  35.060  18.150   9.436
  765POPC   GL112901  34.776  18.130   9.124
  765POPC   GL212902  34.483  18.307   9.225
  765POPC   C1A12903  34.761  18.203   8.691
  765POPC   D2A12904  34.954  18.272   8.309
  765POPC   C3A12905  34.696  18.085   7.958
  765POPC   C4A12906  34.408  17.942   7.604
  765POPC   C1B12907  34.301  18.368   8.804
  765POPC   C2B12908  34.336  18.227   8.353
  765POPC   C3B12909  34.243  18.325   7.923
  765POPC   C4B12910  33.860  18.299   7.665
  766POPC   NC312911  22.565  11.490   9.663
  766POPC   PO412912  21.959  11.377   9.542
  766POPC   GL112913  21.886  11.408   9.079
  766POPC   GL212914  22.014  11.095   8.926
  766POPC   C1A12915  21.975  11.538   8.624
  766POPC   D2A12916  21.968  11.289   8.233
  766POPC   C3A12917  21.935  11.421   7.785
  766POPC   C4A12918  22.110  11.510   7.332
  766POPC   C1B12919  22.318  11.137   8.578
  766POPC   C2B12920  22.492  11.237   8.153
  766POPC   C3B12921  22.445  11.330   7.706
  766POPC   C4B12922  22.679  11.353   7.325
  767POPC   NC312923  27.822  35.542   9.794
  767POPC   PO412924  27.426  35.069   9.626
  767POPC   GL112925  27.537  35.389   9.288
  767POPC   GL212926  27.768  35.236   9.063
  767POPC   C1A12927  27.522  35.640   8.868
  767POPC   D2A12928  27.423  35.592   8.419
  767POPC   C3A12929  27.685  35.634   8.037
  767POPC   C4A12930  27.695  35.488   7.580
  767POPC   C1B12931  27.617  35.134   8.727
  767POPC   C2B12932  27.477  35.081   8.341
  767POPC   C3B12933  27.711  35.130   7.993
  767POPC   C4B12934  27.698  34.970   7.623
  768POPC   NC312935  31.251  40.170   9.482
  768POPC   PO412936  31.713  39.700   9.493
  768POPC   GL112937  31.553  39.932   9.166
  768POPC   GL212938  31.780  40.183   9.100
  768POPC   C1A12939  31.289  39.877   8.825
  768POPC   D2A12940  31.345  39.687   8.427
  768POPC   C3A12941  31.211  39.809   8.062
  768POPC   C4A12942  31.061  39.883   7.691
  768POPC   C1B12943  31.728  40.071   8.684
  768POPC   C2B12944  31.463  40.221   8.351
  768POPC   C3B12945  31.548  40.235   7.912
  768POPC   C4B12946  31.758  40.171   7.495
  769POPC   NC312947  23.711  37.398   9.335
  769POPC   PO412948  23.516  38.080   9.530
  769POPC   GL112949  23.519  37.841   9.149
  769POPC   GL212950  23.914  37.824   9.101
  769POPC   C1A12951  23.503  37.631   8.727
  769POPC   D2A12952  23.401  37.799   8.313
  769POPC   C3A12953  23.505  37.583   7.940
  769POPC   C4A12954  23.675  37.553   7.506
  769POPC   C1B12955  24.025  37.676   8.651
  769POPC   C2B12956  24.036  37.591   8.191
  769POPC   C3B12957  24.136  37.603   7.736
  769POPC   C4B12958  24.006  37.934   7.417
  770POPC   NC312959  38.877  32.903   9.560
  770POPC   PO412960  39.482  33.167   9.508
  770POPC   GL112961  39.263  32.855   9.203
  770POPC   GL212962  38.955  32.748   9.082
  770POPC   C1A12963  39.331  32.834   8.753
  770POPC   D2A12964  39.571  33.072   8.452
  770POPC   C3A12965  39.387  33.156   8.041
  770POPC   C4A12966  39.226  32.842   7.743
  770POPC   C1B12967  38.896  33.113   8.876
  770POPC   C2B12968  39.042  33.166   8.462
  770POPC   C3B12969  38.882  33.292   8.085
  770POPC   C4B12970  39.041  33.315   7.667
  771POPC   NC312971  10.902  34.438   9.608
  771POPC   PO412972  10.530  35.015   9.594
  771POPC   GL112973  10.557  34.928   9.166
  771POPC   GL212974  10.677  34.596   9.139
  771POPC   C1A12975  10.705  34.927   8.747
  771POPC   D2A12976  10.627  34.676   8.382
  771POPC   C3A12977  10.543  34.861   7.988
  771POPC   C4A12978  10.363  34.481   7.829
  771POPC   C1B12979  10.809  34.382   8.764
  771POPC   C2B12980  10.963  34.230   8.374
  771POPC   C3B12981  10.794  34.162   7.950
  771POPC   C4B12982  10.608  34.174   7.504
  772POPC   NC312983  28.835  17.808   9.541
  772POPC   PO412984  29.019  17.115   9.564
  772POPC   GL112985  28.992  17.394   9.230
  772POPC   GL212986  28.696  17.333   9.078
  772POPC   C1A12987  29.132  17.284   8.808
  772POPC   D2A12988  29.077  17.088   8.423
  772POPC   C3A12989  29.206  17.280   8.066
  772POPC   C4A12990  28.892  17.266   7.803
  772POPC   C1B12991  28.856  17.715   8.833
  772POPC   C2B12992  29.090  17.704   8.450
  772POPC   C3B12993  28.990  17.745   8.026
  772POPC   C4B12994  29.076  17.699   7.606
  773POPC   NC312995   1.099   3.183   9.387
  773POPC   PO412996   0.962   3.831   9.537
  773POPC   GL112997   1.120   3.646   9.155
  773POPC   GL212998   1.114   3.952   9.061
  773POPC   C1A12999   0.983   3.430   8.748
  773POPC   D2A13000   1.184   3.205   8.374
  773POPC   C3A13001   1.060   3.377   7.952
  773POPC   C4A13002   1.287   3.534   7.577
  773POPC   C1B13003   1.286   3.861   8.689
  773POPC   C2B13004   1.139   3.756   8.314
  773POPC   C3B13005   1.099   3.918   7.914
  773POPC   C4B13006   0.904   3.877   7.500
  774POPC   NC313007  15.339   1.309   9.443
  774POPC   PO413008  14.824   0.954   9.450
  774POPC   GL113009  15.047   1.013   9.097
  774POPC   GL213010  15.038   1.339   9.029
  774POPC   C1A13011  15.196   1.010   8.667
  774POPC   D2A13012  15.054   1.163   8.277
  774POPC   C3A13013  15.290   0.998   7.915
  774POPC   C4A13014  15.248   1.066   7.476
  774POPC   C1B13015  15.231   1.523   8.653
  774POPC   C2B13016  15.267   1.678   8.239
  774POPC   C3B13017  15.250   1.517   7.812
  774POPC   C4B13018  15.458   1.536   7.374
  775POPC   NC313019  24.842  19.778   9.501
  775POPC   PO413020  24.238  19.844   9.746
  775POPC   GL113021  24.265  19.763   9.199
  775POPC   GL213022  24.096  20.089   9.095
  775POPC   C1A13023  24.648  19.733   8.810
  775POPC   D2A13024  25.027  19.767   8.480
  775POPC   C3A13025  24.883  19.716   8.017
  775POPC   C4A13026  24.543  19.969   7.814
  775POPC   C1B13027  24.268  20.041   8.668
  775POPC   C2B13028  24.452  19.767   8.327
  775POPC   C3B13029  24.352  19.523   7.944
  775POPC   C4B13030  24.150  19.700   7.539
  776POPC   NC313031  10.255  38.325   9.527
  776POPC   PO413032  10.826  38.717   9.494
  776POPC   GL113033  10.546  38.571   9.180
  776POPC   GL213034  10.799  38.635   8.960
  776POPC   C1A13035  10.222  38.568   8.844
  776POPC   D2A13036  10.129  38.664   8.408
  776POPC   C3A13037  10.520  38.665   8.166
  776POPC   C4A13038  10.613  38.524   7.748
  776POPC   C1B13039  10.673  38.229   8.801
  776POPC   C2B13040  10.581  38.194   8.400
  776POPC   C3B13041  10.762  38.159   8.063
  776POPC   C4B13042  10.847  38.046   7.677
  777POPC   NC313043  35.405  21.779   9.556
  777POPC   PO413044  35.140  22.432   9.548
  777POPC   GL113045  35.310  22.183   9.157
  777POPC   GL213046  35.545  21.924   9.091
  777POPC   C1A13047  35.391  22.190   8.690
  777POPC   D2A13048  35.249  22.012   8.295
  777POPC   C3A13049  35.295  22.264   7.935
  777POPC   C4A13050  35.216  22.120   7.552
  777POPC   C1B13051  35.825  21.903   8.750
  777POPC   C2B13052  35.758  22.001   8.336
  777POPC   C3B13053  35.644  21.910   7.926
  777POPC   C4B13054  35.648  21.889   7.487
  778POPC   NC313055   0.082  16.106   9.582
  778POPC   PO413056   0.595  15.816   9.722
  778POPC   GL113057   0.432  15.854   9.274
  778POPC   GL213058   0.258  15.598   9.080
  778POPC   C1A13059   0.493  16.015   8.829
  778POPC   D2A13060   0.396  15.888   8.406
  778POPC   C3A13061   0.334  16.189   8.091
  778POPC   C4A13062   0.532  16.113   7.711
  778POPC   C1B13063   0.567  15.490   8.714
  778POPC   C2B13064   0.702  15.448   8.264
  778POPC   C3B13065   0.493  15.635   7.918
  778POPC   C4B13066   0.516  15.447   7.519
  779POPC   NC313067  17.988  26.254   9.599
  779POPC   PO413068  18.312  25.703   9.362
  779POPC   GL113069  18.106  25.999   9.099
  779POPC   GL213070  18.195  26.331   9.142
  779POPC   C1A13071  18.046  25.986   8.667
  779POPC   D2A13072  18.230  25.749   8.364
  779POPC   C3A13073  18.050  25.863   7.980
  779POPC   C4A13074  18.095  26.222   7.728
  779POPC   C1B13075  18.478  26.211   8.784
  779POPC   C2B13076  18.440  26.236   8.326
  779POPC   C3B13077  18.544  26.027   7.914
  779POPC   C4B13078  18.551  26.243   7.494
  780POPC   NC313079  15.655  25.644   9.464
  780POPC   PO413080  15.917  26.218   9.485
  780POPC   GL113081  15.977  26.022   9.115
  780POPC   GL213082  16.076  25.696   9.161
  780POPC   C1A13083  16.204  26.159   8.779
  780POPC   D2A13084  16.284  26.059   8.365
  780POPC   C3A13085  15.991  26.188   8.119
  780POPC   C4A13086  15.818  25.942   7.776
  780POPC   C1B13087  16.245  25.639   8.774
  780POPC   C2B13088  16.080  25.582   8.359
  780POPC   C3B13089  16.281  25.680   7.973
  780POPC   C4B13090  16.351  26.054   7.790
  781POPC   NC313091  20.875  29.034   9.475
  781POPC   PO413092  20.431  29.593   9.608
  781POPC   GL113093  20.517  29.374   9.203
  781POPC   GL213094  20.406  29.024   9.196
  781POPC   C1A13095  20.786  29.191   8.847
  781POPC   D2A13096  20.867  29.019   8.446
  781POPC   C3A13097  20.814  29.316   8.120
  781POPC   C4A13098  20.716  29.323   7.704
  781POPC   C1B13099  20.286  29.167   8.779
  781POPC   C2B13100  20.388  29.296   8.397
  781POPC   C3B13101  20.332  29.130   7.983
  781POPC   C4B13102  20.271  29.134   7.540
  782POPC   NC313103  43.059  29.301   9.473
  782POPC   PO413104  43.548  29.017   9.589
  782POPC   GL113105  43.265  29.046   9.117
  782POPC   GL213106  43.215  29.421   8.988
  782POPC   C1A13107  43.224  29.009   8.678
  782POPC   D2A13108  43.066  29.109   8.258
  782POPC   C3A13109  43.164  28.834   7.900
  782POPC   C4A13110  43.345  28.878   7.472
  782POPC   C1B13111  42.856  29.365   8.765
  782POPC   C2B13112  42.616  29.316   8.406
  782POPC   C3B13113  42.715  29.398   7.974
  782POPC   C4B13114  43.098  29.310   7.760
  783POPC   NC313115  28.679   6.747   9.531
  783POPC   PO413116  27.991   7.032   9.358
  783POPC   GL113117  28.316   6.784   9.143
  783POPC   GL213118  28.624   6.936   9.070
  783POPC   C1A13119  28.372   6.536   8.767
  783POPC   D2A13120  28.345   6.227   8.408
  783POPC   C3A13121  28.386   6.395   7.996
  783POPC   C4A13122  28.128   6.423   7.609
  783POPC   C1B13123  28.433   7.045   8.677
  783POPC   C2B13124  28.426   7.003   8.227
  783POPC   C3B13125  28.679   6.833   7.910
  783POPC   C4B13126  28.610   6.543   7.555
  784POPC   NC313127  20.787  22.960   9.471
  784POPC   PO413128  20.222  22.580   9.463
  784POPC   GL113129  20.362  22.919   9.166
  784POPC   GL213130  20.258  23.246   9.274
  784POPC   C1A13131  20.516  23.002   8.741
  784POPC   D2A13132  20.713  23.043   8.339
  784POPC   C3A13133  20.648  22.683   8.140
  784POPC   C4A13134  20.791  22.633   7.744
  784POPC   C1B13135  20.180  23.379   8.842
  784POPC   C2B13136  20.419  23.445   8.450
  784POPC   C3B13137  20.360  23.262   8.007
  784POPC   C4B13138  20.328  22.834   7.784
  785POPC   NC313139  21.250   5.814   9.530
  785POPC   PO413140  21.344   6.392   9.737
  785POPC   GL113141  21.383   6.237   9.308
  785POPC   GL213142  21.692   5.963   9.312
  785POPC   C1A13143  21.295   5.997   8.892
  785POPC   D2A13144  21.360   5.803   8.447
  785POPC   C3A13145  21.362   5.840   7.966
  785POPC   C4A13146  21.239   5.594   7.588
  785POPC   C1B13147  21.749   6.236   8.986
  785POPC   C2B13148  21.637   6.209   8.582
  785POPC   C3B13149  21.754   6.082   8.203
  785POPC   C4B13150  21.722   6.184   7.775
  786POPC   NC313151  39.815  17.165   9.632
  786POPC   PO413152  39.991  16.446   9.665
  786POPC   GL113153  39.947  16.492   9.235
  786POPC   GL213154  39.780  16.802   9.257
  786POPC   C1A13155  40.212  16.521   8.858
  786POPC   D2A13156  40.023  16.543   8.455
  786POPC   C3A13157  40.144  16.856   8.180
  786POPC   C4A13158  40.228  16.702   7.773
  786POPC   C1B13159  39.890  16.910   8.832
  786POPC   C2B13160  39.663  16.937   8.432
  786POPC   C3B13161  39.666  17.078   8.015
  786POPC   C4B13162  40.037  17.156   7.777
  787POPC   NC313163  28.657  38.229   9.396
  787POPC   PO413164  29.256  38.661   9.564
  787POPC   GL113165  29.122  38.413   9.212
  787POPC   GL213166  29.184  38.608   9.030
  787POPC   C1A13167  28.976  38.238   8.786
  787POPC   D2A13168  28.730  38.091   8.450
  787POPC   C3A13169  28.812  38.179   8.038
  787POPC   C4A13170  29.185  38.190   7.870
  787POPC   C1B13171  29.016  38.870   8.761
  787POPC   C2B13172  29.057  38.629   8.398
  787POPC   C3B13173  29.070  38.719   7.992
  787POPC   C4B13174  29.047  38.661   7.568
  788POPC   NC313175  42.023   5.195   9.301
  788POPC   PO413176  42.500   4.875   9.571
  788POPC   GL113177  42.493   5.051   9.138
  788POPC   GL213178  42.468   5.398   9.122
  788POPC   C1A13179  42.475   4.935   8.706
  788POPC   D2A13180  42.341   5.105   8.324
  788POPC   C3A13181  42.074   4.898   8.059
  788POPC   C4A13182  42.061   5.020   7.656
  788POPC   C1B13183  42.502   5.462   8.683
  788POPC   C2B13184  42.501   5.570   8.241
  788POPC   C3B13185  42.550   5.316   7.857
  788POPC   C4B13186  42.696   5.276   7.419
  789POPC   NC313187  32.774  10.512   9.340
  789POPC   PO413188  33.177  11.079   9.421
  789POPC   GL113189  33.153  10.837   9.099
  789POPC   GL213190  33.305  10.517   9.115
  789POPC   C1A13191  33.288  10.863   8.714
  789POPC   D2A13192  33.098  10.784   8.370
  789POPC   C3A13193  33.282  10.589   8.066
  789POPC   C4A13194  33.014  10.717   7.776
  789POPC   C1B13195  33.030  10.414   8.745
  789POPC   C2B13196  32.986  10.240   8.346
  789POPC   C3B13197  32.908  10.239   7.932
  789POPC   C4B13198  33.262  10.276   7.668
  790POPC   NC313199  30.779  13.862   9.276
  790POPC   PO413200  30.806  13.381   9.754
  790POPC   GL113201  30.658  13.355   9.279
  790POPC   GL213202  30.349  13.317   9.225
  790POPC   C1A13203  30.710  13.437   8.784
  790POPC   D2A13204  30.957  13.662   8.425
  790POPC   C3A13205  30.921  13.466   7.997
  790POPC   C4A13206  30.861  13.583   7.559
  790POPC   C1B13207  30.287  13.155   8.835
  790POPC   C2B13208  30.206  13.348   8.447
  790POPC   C3B13209  30.433  13.588   8.153
  790POPC   C4B13210  30.438  13.380   7.753
  791POPC   NC313211   5.736   6.852   9.395
  791POPC   PO413212   5.326   6.281   9.430
  791POPC   GL113213   5.630   6.401   9.154
  791POPC   GL213214   5.515   6.696   8.964
  791POPC   C1A13215   5.940   6.442   8.813
  791POPC   D2A13216   6.025   6.609   8.407
  791POPC   C3A13217   5.948   6.362   8.062
  791POPC   C4A13218   5.629   6.289   7.762
  791POPC   C1B13219   5.768   6.968   8.690
  791POPC   C2B13220   5.693   6.931   8.236
  791POPC   C3B13221   5.874   6.814   7.803
  791POPC   C4B13222   5.959   6.944   7.382
  792POPC   NC313223  21.860   1.902   9.360
  792POPC   PO413224  22.439   2.256   9.484
  792POPC   GL113225  22.260   2.149   9.109
  792POPC   GL213226  21.941   2.322   9.021
  792POPC   C1A13227  22.307   2.105   8.680
  792POPC   D2A13228  22.040   2.155   8.339
  792POPC   C3A13229  22.157   1.899   8.012
  792POPC   C4A13230  22.536   1.585   8.017
  792POPC   C1B13231  21.781   1.978   8.737
  792POPC   C2B13232  21.644   1.852   8.337
  792POPC   C3B13233  21.649   2.050   7.954
  792POPC   C4B13234  21.820   1.808   7.627
  793POPC   NC313235  15.968  43.776   9.590
  793POPC   PO413236  15.933  44.404   9.522
  793POPC   GL113237  15.834  44.046   9.180
  793POPC   GL213238  16.102  43.739   9.110
  793POPC   C1A13239  15.585  43.819   8.855
  793POPC   D2A13240  15.556  43.931   8.407
  793POPC   C3A13241  15.609  43.662   8.031
  793POPC   C4A13242  15.727  43.603   7.592
  793POPC   C1B13243  16.051  43.955   8.712
  793POPC   C2B13244  16.027  43.776   8.309
  793POPC   C3B13245  16.120  43.555   7.939
  793POPC   C4B13246  16.531  43.479   7.800
  794POPC   NC313247   4.704  38.395   9.568
  794POPC   PO413248   4.091  38.634   9.702
  794POPC   GL113249   4.245  38.518   9.322
  794POPC   GL213250   4.524  38.757   9.263
  794POPC   C1A13251   3.976  38.526   8.965
  794POPC   D2A13252   3.824  38.373   8.583
  794POPC   C3A13253   4.124  38.419   8.220
  794POPC   C4A13254   4.031  38.509   7.761
  794POPC   C1B13255   4.484  38.536   8.856
  794POPC   C2B13256   4.615  38.357   8.461
  794POPC   C3B13257   4.609  38.295   8.005
  794POPC   C4B13258   4.510  38.681   7.781
  795POPC   NC313259  33.353  30.288   9.778
  795POPC   PO413260  33.828  29.831   9.460
  795POPC   GL113261  33.872  30.137   9.154
  795POPC   GL213262  33.636  30.038   8.938
  795POPC   C1A13263  34.093  30.129   8.752
  795POPC   D2A13264  34.124  29.835   8.441
  795POPC   C3A13265  33.980  30.042   8.105
  795POPC   C4A13266  33.881  30.057   7.697
  795POPC   C1B13267  33.305  30.031   8.681
  795POPC   C2B13268  33.452  29.871   8.292
  795POPC   C3B13269  33.399  29.934   7.874
  795POPC   C4B13270  33.449  29.922   7.419
  796POPC   NC313271   4.764  43.479   9.310
  796POPC   PO413272   4.976  44.120   9.411
  796POPC   GL113273   4.977  43.864   9.069
  796POPC   GL213274   5.219  43.591   9.133
  796POPC   C1A13275   4.914  43.970   8.650
  796POPC   D2A13276   5.251  44.107   8.387
  796POPC   C3A13277   5.027  44.127   8.009
  796POPC   C4A13278   4.822  43.780   7.800
  796POPC   C1B13279   5.333  43.676   8.698
  796POPC   C2B13280   5.205  43.575   8.265
  796POPC   C3B13281   5.346  43.737   7.874
  796POPC   C4B13282   5.558  44.127   7.975
  797POPC   NC313283  16.932  19.983   9.551
  797POPC   PO413284  16.456  19.531   9.633
  797POPC   GL113285  16.559  19.687   9.235
  797POPC   GL213286  16.880  19.578   9.174
  797POPC   C1A13287  16.436  19.816   8.814
  797POPC   D2A13288  16.754  19.918   8.490
  797POPC   C3A13289  16.764  19.850   8.022
  797POPC   C4A13290  16.713  20.166   7.687
  797POPC   C1B13291  17.109  19.678   8.803
  797POPC   C2B13292  17.212  19.724   8.358
  797POPC   C3B13293  17.176  19.540   7.941
  797POPC   C4B13294  17.177  19.664   7.502
  798POPC   NC313295  13.160  38.591   9.523
  798POPC   PO413296  13.002  37.976   9.419
  798POPC   GL113297  13.137  38.321   9.073
  798POPC   GL213298  13.175  38.738   9.051
  798POPC   C1A13299  12.787  38.490   8.805
  798POPC   D2A13300  12.410  38.561   8.555
  798POPC   C3A13301  12.502  38.318   8.200
  798POPC   C4A13302  12.659  38.514   7.860
  798POPC   C1B13303  13.232  38.661   8.606
  798POPC   C2B13304  13.061  38.456   8.211
  798POPC   C3B13305  13.172  38.527   7.761
  798POPC   C4B13306  13.308  38.849   7.417
  799POPC   NC313307   7.848  32.069   9.616
  799POPC   PO413308   8.265  32.534   9.439
  799POPC   GL113309   7.990  32.561   9.122
  799POPC   GL213310   7.947  32.218   9.098
  799POPC   C1A13311   8.206  32.472   8.717
  799POPC   D2A13312   8.236  32.159   8.388
  799POPC   C3A13313   8.354  32.330   7.995
  799POPC   C4A13314   8.066  32.428   7.692
  799POPC   C1B13315   7.734  32.322   8.686
  799POPC   C2B13316   7.756  32.276   8.221
  799POPC   C3B13317   7.962  32.006   7.940
  799POPC   C4B13318   7.949  31.979   7.480
  800POPC   NC313319  19.760  10.050   9.550
  800POPC   PO413320  20.010   9.373   9.439
  800POPC   GL113321  19.872   9.623   9.124
  800POPC   GL213322  19.553   9.718   9.146
  800POPC   C1A13323  19.881   9.937   8.806
  800POPC   D2A13324  20.069   9.854   8.406
  800POPC   C3A13325  19.843   9.939   8.033
  800POPC   C4A13326  19.942   9.798   7.618
  800POPC   C1B13327  19.529   9.462   8.758
  800POPC   C2B13328  19.697   9.416   8.301
  800POPC   C3B13329  19.639   9.460   7.840
  800POPC   C4B13330  19.685   9.411   7.362
  801POPC   NC313331  23.619  34.289   9.618
  801POPC   PO413332  23.630  34.980   9.567
  801POPC   GL113333  23.746  34.855   9.187
  801POPC   GL213334  23.518  34.587   9.203
  801POPC   C1A13335  23.611  34.857   8.762
  801POPC   D2A13336  23.751  34.575   8.448
  801POPC   C3A13337  23.758  34.788   8.067
  801POPC   C4A13338  23.811  34.612   7.692
  801POPC   C1B13339  23.447  34.338   8.845
  801POPC   C2B13340  23.340  34.239   8.421
  801POPC   C3B13341  23.411  34.410   7.998
  801POPC   C4B13342  23.318  34.463   7.550
  802POPC   NC313343  16.796  37.189   9.711
  802POPC   PO413344  16.454  36.648   9.454
  802POPC   GL113345  16.562  36.915   9.071
  802POPC   GL213346  16.656  37.242   9.175
  802POPC   C1A13347  16.895  37.039   8.761
  802POPC   D2A13348  17.004  36.757   8.436
  802POPC   C3A13349  16.799  36.863   8.082
  802POPC   C4A13350  16.817  37.131   7.764
  802POPC   C1B13351  16.364  37.265   8.816
  802POPC   C2B13352  16.479  37.062   8.469
  802POPC   C3B13353  16.373  37.156   8.091
  802POPC   C4B13354  16.370  37.370   7.734
  803POPC   NC313355  44.980  41.281   9.362
  803POPC   PO413356   0.124  40.688   9.641
  803POPC   GL113357  44.797  40.785   9.268
  803POPC   GL213358  44.514  41.054   9.279
  803POPC   C1A13359  44.722  40.600   8.853
  803POPC   D2A13360  44.781  40.352   8.471
  803POPC   C3A13361  44.821  40.600   8.091
  803POPC   C4A13362  44.586  40.739   7.764
  803POPC   C1B13363  44.613  41.114   8.835
  803POPC   C2B13364  44.817  40.961   8.470
  803POPC   C3B13365  44.764  41.107   8.092
  803POPC   C4B13366  44.967  41.217   7.717
  804POPC   NC313367  20.403   5.511   9.435
  804POPC   PO413368  20.822   6.025   9.407
  804POPC   GL113369  20.556   5.836   9.055
  804POPC   GL213370  20.577   5.451   8.967
  804POPC   C1A13371  20.315   5.811   8.689
  804POPC   D2A13372  20.003   5.942   8.438
  804POPC   C3A13373  20.125   6.215   8.122
  804POPC   C4A13374  20.365   6.109   7.752
  804POPC   C1B13375  20.977   5.582   8.897
  804POPC   C2B13376  20.852   5.824   8.572
  804POPC   C3B13377  20.900   5.972   8.173
  804POPC   C4B13378  20.874   5.915   7.747
  805POPC   NC313379  44.175  13.488   9.435
  805POPC   PO413380  43.668  13.892   9.449
  805POPC   GL113381  43.854  13.698   9.137
  805POPC   GL213382  44.056  13.997   9.075
  805POPC   C1A13383  44.089  13.554   8.767
  805POPC   D2A13384  44.247  13.390   8.375
  805POPC   C3A13385  44.231  13.687   8.048
  805POPC   C4A13386  44.054  13.653   7.660
  805POPC   C1B13387  43.759  13.931   8.721
  805POPC   C2B13388  43.782  13.718   8.354
  805POPC   C3B13389  43.684  13.850   7.970
  805POPC   C4B13390  43.531  13.669   7.634
  806POPC   NC313391  31.218  21.230   9.503
  806POPC   PO413392  30.633  21.566   9.658
  806POPC   GL113393  30.526  21.583   9.206
  806POPC   GL213394  30.678  21.256   9.205
  806POPC   C1A13395  30.343  21.428   8.808
  806POPC   D2A13396  30.505  21.266   8.409
  806POPC   C3A13397  30.466  21.472   8.006
  806POPC   C4A13398  30.844  21.638   7.763
  806POPC   C1B13399  30.872  21.299   8.804
  806POPC   C2B13400  31.032  21.206   8.396
  806POPC   C3B13401  30.847  21.115   8.000
  806POPC   C4B13402  31.064  21.081   7.583
  807POPC   NC313403   5.732   2.354   9.493
  807POPC   PO413404   6.169   2.889   9.489
  807POPC   GL113405   6.089   2.576   9.196
  807POPC   GL213406   5.750   2.738   9.117
  807POPC   C1A13407   5.991   2.455   8.768
  807POPC   D2A13408   6.074   2.752   8.398
  807POPC   C3A13409   6.130   2.578   7.988
  807POPC   C4A13410   5.847   2.375   7.709
  807POPC   C1B13411   5.978   3.041   8.812
  807POPC   C2B13412   5.895   3.241   8.368
  807POPC   C3B13413   5.915   3.077   7.902
  807POPC   C4B13414   5.685   2.860   7.529
  808POPC   NC313415  31.953  33.609   9.452
  808POPC   PO413416  32.635  33.650   9.485
  808POPC   GL113417  32.361  33.631   9.146
  808POPC   GL213418  32.139  33.973   9.145
  808POPC   C1A13419  32.267  33.698   8.732
  808POPC   D2A13420  32.246  33.969   8.385
  808POPC   C3A13421  32.265  33.660   8.057
  808POPC   C4A13422  32.360  33.495   7.682
  808POPC   C1B13423  31.833  34.056   8.799
  808POPC   C2B13424  31.693  34.117   8.344
  808POPC   C3B13425  31.934  34.019   7.978
  808POPC   C4B13426  32.315  34.085   7.725
  809POPC   NC313427  20.730  42.411   9.513
  809POPC   PO413428  20.157  42.076   9.479
  809POPC   GL113429  20.421  42.224   9.156
  809POPC   GL213430  20.280  42.537   9.227
  809POPC   C1A13431  20.785  42.283   8.864
  809POPC   D2A13432  21.038  42.363   8.507
  809POPC   C3A13433  20.812  42.193   8.165
  809POPC   C4A13434  20.720  42.275   7.730
  809POPC   C1B13435  20.440  42.663   8.849
  809POPC   C2B13436  20.615  42.637   8.451
  809POPC   C3B13437  20.476  42.553   8.067
  809POPC   C4B13438  20.610  42.777   7.725
  810POPC   NC313439  35.636  42.980   9.472
  810POPC   PO413440  35.248  43.463   9.506
  810POPC   GL113441  35.162  43.340   9.108
  810POPC   GL213442  35.279  43.017   9.113
  810POPC   C1A13443  35.142  43.281   8.673
  810POPC   D2A13444  35.356  43.252   8.286
  810POPC   C3A13445  35.058  43.301   7.966
  810POPC   C4A13446  35.106  43.188   7.529
  810POPC   C1B13447  35.100  42.798   8.806
  810POPC   C2B13448  34.971  42.892   8.383
  810POPC   C3B13449  35.136  42.801   7.983
  810POPC   C4B13450  35.299  42.688   7.602
  811POPC   NC313451  27.316  10.986   9.347
  811POPC   PO413452  27.565  11.648   9.623
  811POPC   GL113453  27.790  11.520   9.172
  811POPC   GL213454  27.729  11.152   9.045
  811POPC   C1A13455  27.811  11.521   8.707
  811POPC   D2A13456  27.596  11.352   8.339
  811POPC   C3A13457  27.685  11.540   7.923
  811POPC   C4A13458  27.607  11.624   7.467
  811POPC   C1B13459  27.840  10.813   8.721
  811POPC   C2B13460  27.955  10.799   8.276
  811POPC   C3B13461  27.739  11.038   7.933
  811POPC   C4B13462  27.666  11.097   7.467
  812POPC   NC313463  14.178  26.553   9.613
  812POPC   PO413464  14.585  27.129   9.598
  812POPC   GL113465  14.311  26.943   9.269
  812POPC   GL213466  14.420  26.585   9.161
  812POPC   C1A13467  14.196  26.950   8.806
  812POPC   D2A13468  14.529  26.850   8.440
  812POPC   C3A13469  14.453  26.994   7.987
  812POPC   C4A13470  14.068  27.063   7.697
  812POPC   C1B13471  14.271  26.449   8.741
  812POPC   C2B13472  14.094  26.601   8.343
  812POPC   C3B13473  14.257  26.521   7.936
  812POPC   C4B13474  14.360  26.214   7.617
  813POPC   NC313475  18.802   4.599   9.509
  813POPC   PO413476  18.439   5.105   9.569
  813POPC   GL113477  18.445   5.209   9.134
  813POPC   GL213478  18.203   4.964   8.949
  813POPC   C1A13479  18.549   5.242   8.710
  813POPC   D2A13480  18.398   4.931   8.449
  813POPC   C3A13481  18.259   5.166   8.117
  813POPC   C4A13482  18.358   5.164   7.691
  813POPC   C1B13483  17.872   4.728   8.733
  813POPC   C2B13484  17.849   4.915   8.332
  813POPC   C3B13485  17.836   4.844   7.914
  813POPC   C4B13486  17.880   5.059   7.520
  814POPC   NC313487  41.789  30.284   9.472
  814POPC   PO413488  41.789  30.946   9.517
  814POPC   GL113489  41.584  30.786   9.167
  814POPC   GL213490  41.437  30.434   9.139
  814POPC   C1A13491  41.433  30.785   8.755
  814POPC   D2A13492  41.413  30.574   8.369
  814POPC   C3A13493  41.481  30.827   8.011
  814POPC   C4A13494  41.863  30.994   7.933
  814POPC   C1B13495  41.827  30.455   8.852
  814POPC   C2B13496  41.843  30.314   8.454
  814POPC   C3B13497  41.848  30.489   8.065
  814POPC   C4B13498  41.817  30.376   7.669
  815POPC   NC313499  20.159  41.591   9.554
  815POPC   PO413500  20.887  41.573   9.500
  815POPC   GL113501  20.710  41.594   9.115
  815POPC   GL213502  20.350  41.712   9.097
  815POPC   C1A13503  20.598  41.472   8.725
  815POPC   D2A13504  20.710  41.692   8.358
  815POPC   C3A13505  20.744  41.394   8.044
  815POPC   C4A13506  20.586  41.201   7.690
  815POPC   C1B13507  20.402  41.959   8.692
  815POPC   C2B13508  20.261  41.941   8.237
  815POPC   C3B13509  20.475  41.822   7.854
  815POPC   C4B13510  20.704  41.821   7.465
  816POPC   NC313511  24.673  16.571   9.520
  816POPC   PO413512  24.488  17.206   9.481
  816POPC   GL113513  24.523  16.901   9.136
  816POPC   GL213514  24.752  16.600   9.022
  816POPC   C1A13515  24.539  16.952   8.709
  816POPC   D2A13516  24.764  16.787   8.396
  816POPC   C3A13517  24.502  16.931   8.126
  816POPC   C4A13518  24.483  16.839   7.733
  816POPC   C1B13519  24.364  16.458   8.869
  816POPC   C2B13520  24.297  16.538   8.464
  816POPC   C3B13521  24.492  16.411   8.094
  816POPC   C4B13522  24.207  16.423   7.767
  817POPC   NC313523   2.539   1.849   9.452
  817POPC   PO413524   2.288   1.245   9.493
  817POPC   GL113525   2.672   1.353   9.187
  817POPC   GL213526   3.067   1.377   9.243
  817POPC   C1A13527   2.877   1.101   8.821
  817POPC   D2A13528   2.723   0.947   8.443
  817POPC   C3A13529   2.771   1.249   8.128
  817POPC   C4A13530   2.763   1.104   7.720
  817POPC   C1B13531   3.251   1.435   8.813
  817POPC   C2B13532   3.141   1.574   8.379
  817POPC   C3B13533   2.976   1.707   7.970
  817POPC   C4B13534   3.037   1.518   7.550
  818POPC   NC313535  44.281   8.121   9.469
  818POPC   PO413536  44.882   8.420   9.529
  818POPC   GL113537  44.777   8.310   9.146
  818POPC   GL213538  44.653   7.996   9.127
  818POPC   C1A13539  44.692   8.375   8.731
  818POPC   D2A13540  44.567   8.289   8.341
  818POPC   C3A13541  44.623   8.542   8.009
  818POPC   C4A13542  44.512   8.487   7.576
  818POPC   C1B13543  44.594   7.829   8.734
  818POPC   C2B13544  44.688   7.791   8.306
  818POPC   C3B13545  44.748   8.014   7.925
  818POPC   C4B13546  44.539   7.983   7.523
  819POPC   NC313547  19.504  41.097   9.444
  819POPC   PO413548  19.708  41.654   9.652
  819POPC   GL113549  19.823  41.681   9.199
  819POPC   GL213550  19.770  41.355   9.043
  819POPC   C1A13551  19.935  41.772   8.786
  819POPC   D2A13552  20.005  41.489   8.459
  819POPC   C3A13553  19.800  41.614   8.093
  819POPC   C4A13554  19.973  41.751   7.713
  819POPC   C1B13555  19.373  41.268   8.821
  819POPC   C2B13556  19.283  41.143   8.410
  819POPC   C3B13557  19.476  41.221   8.014
  819POPC   C4B13558  19.819  41.255   7.718
  820POPC   NC313559  36.551  36.734   9.347
  820POPC   PO413560  35.878  36.695   9.492
  820POPC   GL113561  36.067  36.992   9.231
  820POPC   GL213562  36.296  36.899   8.958
  820POPC   C1A13563  35.902  37.206   8.870
  820POPC   D2A13564  36.094  37.031   8.517
  820POPC   C3A13565  36.091  37.221   8.161
  820POPC   C4A13566  36.338  37.020   7.819
  820POPC   C1B13567  35.897  36.683   8.840
  820POPC   C2B13568  35.741  36.638   8.456
  820POPC   C3B13569  35.953  36.741   8.109
  820POPC   C4B13570  36.030  36.627   7.752
  821POPC   NC313571  15.568  24.710   9.690
  821POPC   PO413572  16.145  24.601   9.689
  821POPC   GL113573  16.139  24.569   9.262
  821POPC   GL213574  16.423  24.685   9.242
  821POPC   C1A13575  16.030  24.360   8.859
  821POPC   D2A13576  15.766  24.472   8.485
  821POPC   C3A13577  15.866  24.264   8.079
  821POPC   C4A13578  15.856  24.443   7.656
  821POPC   C1B13579  16.411  24.706   8.815
  821POPC   C2B13580  16.258  24.568   8.444
  821POPC   C3B13581  16.149  24.678   8.061
  821POPC   C4B13582  16.288  24.727   7.672
  822POPC   NC313583  40.602  40.210   9.445
  822POPC   PO413584  40.980  39.659   9.494
  822POPC   GL113585  40.948  39.949   9.158
  822POPC   GL213586  41.236  40.133   8.991
  822POPC   C1A13587  40.760  39.914   8.782
  822POPC   D2A13588  40.907  39.766   8.408
  822POPC   C3A13589  40.663  39.648   8.081
  822POPC   C4A13590  40.488  39.701   7.688
  822POPC   C1B13591  41.027  40.340   8.638
  822POPC   C2B13592  40.674  40.243   8.386
  822POPC   C3B13593  40.830  40.131   8.025
  822POPC   C4B13594  40.702  40.243   7.641
  823POPC   NC313595   6.460  28.825   9.380
  823POPC   PO413596   6.593  29.406   9.485
  823POPC   GL113597   6.710  29.187   9.123
  823POPC   GL213598   7.027  29.018   9.160
  823POPC   C1A13599   6.519  29.077   8.740
  823POPC   D2A13600   6.569  29.296   8.371
  823POPC   C3A13601   6.399  29.207   8.020
  823POPC   C4A13602   6.491  29.304   7.631
  823POPC   C1B13603   6.948  28.801   8.753
  823POPC   C2B13604   6.723  28.796   8.321
  823POPC   C3B13605   6.717  28.851   7.860
  823POPC   C4B13606   6.627  28.813   7.428
  824POPC   NC313607  20.666  17.105   9.847
  824POPC   PO413608  20.766  16.620   9.431
  824POPC   GL113609  20.648  16.696   9.070
  824POPC   GL213610  20.323  16.696   9.100
  824POPC   C1A13611  20.666  16.657   8.660
  824POPC   D2A13612  20.529  16.894   8.330
  824POPC   C3A13613  20.664  16.755   7.976
  824POPC   C4A13614  20.460  16.715   7.642
  824POPC   C1B13615  20.326  17.026   8.790
  824POPC   C2B13616  20.705  17.258   8.641
  824POPC   C3B13617  20.906  17.290   8.231
  824POPC   C4B13618  20.896  17.177   7.801
  825POPC   NC313619  13.049   9.420   9.433
  825POPC   PO413620  12.388   9.426   9.555
  825POPC   GL113621  12.606   9.668   9.168
  825POPC   GL213622  12.926   9.898   9.144
  825POPC   C1A13623  12.789   9.648   8.734
  825POPC   D2A13624  12.880   9.841   8.340
  825POPC   C3A13625  12.852   9.648   7.958
  825POPC   C4A13626  13.122   9.641   7.604
  825POPC   C1B13627  12.847  10.174   8.753
  825POPC   C2B13628  12.551  10.218   8.393
  825POPC   C3B13629  12.642  10.151   7.951
  825POPC   C4B13630  12.788  10.338   7.565
  826POPC   NC313631   1.485  34.035   9.578
  826POPC   PO413632   0.970  33.615   9.578
  826POPC   GL113633   1.156  33.821   9.213
  826POPC   GL213634   1.526  33.814   9.114
  826POPC   C1A13635   1.117  33.706   8.782
  826POPC   D2A13636   1.167  33.761   8.352
  826POPC   C3A13637   0.856  33.546   8.173
  826POPC   C4A13638   0.991  33.351   7.843
  826POPC   C1B13639   1.442  34.089   8.759
  826POPC   C2B13640   1.249  34.252   8.428
  826POPC   C3B13641   1.424  34.110   8.060
  826POPC   C4B13642   1.344  33.718   7.832
  827POPC   NC313643   7.556  23.891   9.730
  827POPC   PO413644   7.333  23.266   9.415
  827POPC   GL113645   7.401  23.589   9.118
  827POPC   GL213646   7.474  23.945   9.182
  827POPC   C1A13647   7.300  23.629   8.689
  827POPC   D2A13648   7.526  23.805   8.398
  827POPC   C3A13649   7.615  23.565   8.092
  827POPC   C4A13650   7.559  23.537   7.676
  827POPC   C1B13651   7.091  24.019   8.902
  827POPC   C2B13652   7.071  24.048   8.437
  827POPC   C3B13653   7.228  23.920   8.005
  827POPC   C4B13654   7.585  24.012   7.846
  828POPC   NC313655   4.598   4.433   9.533
  828POPC   PO413656   4.129   4.036   9.596
  828POPC   GL113657   4.271   4.168   9.212
  828POPC   GL213658   4.595   4.054   9.157
  828POPC   C1A13659   4.256   4.478   8.886
  828POPC   D2A13660   4.134   4.678   8.522
  828POPC   C3A13661   4.312   4.619   8.137
  828POPC   C4A13662   4.378   4.581   7.702
  828POPC   C1B13663   4.408   4.012   8.735
  828POPC   C2B13664   4.551   4.131   8.327
  828POPC   C3B13665   4.360   4.106   7.923
  828POPC   C4B13666   3.954   3.843   7.910
  829POPC   NC313667   9.746  24.492   9.578
  829POPC   PO413668  10.276  24.799   9.369
  829POPC   GL113669   9.879  24.721   9.126
  829POPC   GL213670   9.489  24.623   9.167
  829POPC   C1A13671   9.750  24.465   8.772
  829POPC   D2A13672   9.899  24.442   8.384
  829POPC   C3A13673   9.747  24.289   8.047
  829POPC   C4A13674   9.729  24.558   7.703
  829POPC   C1B13675   9.234  24.460   8.836
  829POPC   C2B13676   9.325  24.358   8.409
  829POPC   C3B13677   9.325  24.569   8.021
  829POPC   C4B13678   9.226  24.351   7.631
  830POPC   NC313679  23.557   2.122   9.478
  830POPC   PO413680  24.026   1.610   9.319
  830POPC   GL113681  23.857   1.965   9.089
  830POPC   GL213682  23.513   1.906   9.025
  830POPC   C1A13683  23.802   2.024   8.637
  830POPC   D2A13684  23.591   1.865   8.272
  830POPC   C3A13685  23.697   2.076   7.905
  830POPC   C4A13686  23.701   1.906   7.474
  830POPC   C1B13687  23.300   2.293   8.868
  830POPC   C2B13688  23.181   2.573   8.513
  830POPC   C3B13689  23.208   2.592   8.066
  830POPC   C4B13690  23.411   2.444   7.694
  831POPC   NC313691   1.522   7.686   9.346
  831POPC   PO413692   1.234   7.091   9.544
  831POPC   GL113693   1.158   7.283   9.164
  831POPC   GL213694   1.040   7.623   9.192
  831POPC   C1A13695   1.298   7.203   8.776
  831POPC   D2A13696   1.505   7.263   8.419
  831POPC   C3A13697   1.279   7.255   8.056
  831POPC   C4A13698   1.375   7.278   7.635
  831POPC   C1B13699   1.274   7.724   8.778
  831POPC   C2B13700   1.225   7.676   8.368
  831POPC   C3B13701   1.303   7.757   7.944
  831POPC   C4B13702   1.284   7.750   7.508
  832POPC   NC313703  44.342  21.564   9.541
  832POPC   PO413704  44.930  21.668   9.207
  832POPC   GL113705  44.525  21.620   9.064
  832POPC   GL213706  44.469  21.259   9.081
  832POPC   C1A13707  44.492  21.557   8.640
  832POPC   D2A13708  44.776  21.245   8.480
  832POPC   C3A13709  44.974  21.463   8.139
  832POPC   C4A13710  44.977  21.404   7.703
  832POPC   C1B13711  44.274  21.089   8.693
  832POPC   C2B13712  44.303  21.216   8.284
  832POPC   C3B13713  44.485  21.288   7.893
  832POPC   C4B13714  44.252  21.205   7.539
  833POPC   NC313715  42.519  44.317   9.338
  833POPC   PO413716  42.652  44.964   9.563
  833POPC   GL113717  42.584  44.858   9.125
  833POPC   GL213718  42.255  44.702   9.104
  833POPC   C1A13719  42.601  44.611   8.738
  833POPC   D2A13720  42.406  44.542   8.375
  833POPC   C3A13721  42.588  44.573   8.006
  833POPC   C4A13722  42.353  44.694   7.670
  833POPC   C1B13723  42.152  44.355   8.784
  833POPC   C2B13724  41.933  44.321   8.374
  833POPC   C3B13725  42.093  44.389   7.972
  833POPC   C4B13726  41.982  44.352   7.547
  834POPC   NC313727  36.264   4.079   9.697
  834POPC   PO413728  36.262   3.770   9.135
  834POPC   GL113729  36.226   4.201   9.031
  834POPC   GL213730  36.153   4.543   9.111
  834POPC   C1A13731  36.200   4.279   8.614
  834POPC   D2A13732  35.863   4.188   8.357
  834POPC   C3A13733  35.856   4.336   7.959
  834POPC   C4A13734  35.878   4.025   7.682
  834POPC   C1B13735  35.892   4.654   8.765
  834POPC   C2B13736  36.032   4.679   8.331
  834POPC   C3B13737  36.343   4.426   8.130
  834POPC   C4B13738  36.293   4.313   7.692
  835POPC   NC313739  25.799  10.130   9.680
  835POPC   PO413740  26.155  10.659   9.622
  835POPC   GL113741  26.230  10.392   9.264
  835POPC   GL213742  26.176  10.663   9.054
  835POPC   C1A13743  26.025  10.199   8.869
  835POPC   D2A13744  25.969  10.363   8.423
  835POPC   C3A13745  25.899  10.095   8.021
  835POPC   C4A13746  25.890  10.091   7.564
  835POPC   C1B13747  26.432  10.448   8.714
  835POPC   C2B13748  26.490  10.342   8.283
  835POPC   C3B13749  26.198  10.519   7.984
  835POPC   C4B13750  26.164  10.521   7.559
  836POPC   NC313751  28.180  23.143   9.701
  836POPC   PO413752  28.711  22.687   9.751
  836POPC   GL113753  28.505  23.030   9.342
  836POPC   GL213754  28.123  22.963   9.242
  836POPC   C1A13755  28.444  22.974   8.850
  836POPC   D2A13756  28.292  22.646   8.558
  836POPC   C3A13757  28.296  22.809   8.130
  836POPC   C4A13758  28.570  23.075   7.900
  836POPC   C1B13759  27.935  23.108   8.881
  836POPC   C2B13760  28.083  23.155   8.476
  836POPC   C3B13761  27.893  23.145   8.077
  836POPC   C4B13762  28.088  23.036   7.708
  837POPC   NC313763   8.665  29.743   9.439
  837POPC   PO413764   8.903  30.356   9.661
  837POPC   GL113765   8.876  30.112   9.185
  837POPC   GL213766   9.136  29.832   9.124
  837POPC   C1A13767   8.761  29.828   8.789
  837POPC   D2A13768   8.797  29.480   8.470
  837POPC   C3A13769   8.863  29.576   8.023
  837POPC   C4A13770   8.640  29.824   7.732
  837POPC   C1B13771   9.226  30.005   8.689
  837POPC   C2B13772   9.041  30.020   8.271
  837POPC   C3B13773   9.110  30.006   7.805
  837POPC   C4B13774   9.000  30.108   7.369
  838POPC   NC313775  23.575   4.614   9.715
  838POPC   PO413776  23.994   4.055   9.566
  838POPC   GL113777  23.628   4.255   9.337
  838POPC   GL213778  23.882   4.448   9.222
  838POPC   C1A13779  23.459   4.289   8.904
  838POPC   D2A13780  23.516   4.640   8.602
  838POPC   C3A13781  23.548   4.529   8.171
  838POPC   C4A13782  23.510   4.086   8.058
  838POPC   C1B13783  23.917   4.113   8.898
  838POPC   C2B13784  23.825   4.220   8.474
  838POPC   C3B13785  24.007   4.300   8.064
  838POPC   C4B13786  23.817   4.216   7.685
  839POPC   NC313787   1.566  32.433   9.504
  839POPC   PO413788   1.033  31.945   9.608
  839POPC   GL113789   1.186  32.122   9.250
  839POPC   GL213790   1.004  32.409   9.185
  839POPC   C1A13791   1.347  32.005   8.861
  839POPC   D2A13792   1.143  32.077   8.481
  839POPC   C3A13793   1.325  32.106   8.068
  839POPC   C4A13794   1.236  32.090   7.619
  839POPC   C1B13795   1.257  32.509   8.806
  839POPC   C2B13796   1.384  32.764   8.456
  839POPC   C3B13797   1.413  32.612   8.047
  839POPC   C4B13798   1.307  32.584   7.623
  840POPC   NC313799   2.383   6.331   9.446
  840POPC   PO413800   2.945   6.719   9.643
  840POPC   GL113801   2.793   6.625   9.245
  840POPC   GL213802   2.889   6.291   9.167
  840POPC   C1A13803   2.773   6.614   8.804
  840POPC   D2A13804   2.871   6.420   8.397
  840POPC   C3A13805   2.717   6.604   8.014
  840POPC   C4A13806   2.752   6.808   7.613
  840POPC   C1B13807   3.121   6.127   8.763
  840POPC   C2B13808   3.025   5.939   8.345
  840POPC   C3B13809   3.134   6.187   7.981
  840POPC   C4B13810   2.929   6.339   7.596
  841POPC   NC313811  34.124  18.829   9.597
  841POPC   PO413812  34.070  19.396   9.525
  841POPC   GL113813  33.852  19.091   9.197
  841POPC   GL213814  33.986  18.748   9.114
  841POPC   C1A13815  33.679  18.959   8.753
  841POPC   D2A13816  33.574  18.796   8.329
  841POPC   C3A13817  33.579  19.105   7.993
  841POPC   C4A13818  33.895  19.250   7.745
  841POPC   C1B13819  34.180  18.859   8.727
  841POPC   C2B13820  34.079  18.745   8.297
  841POPC   C3B13821  33.964  18.758   7.867
  841POPC   C4B13822  34.105  18.868   7.453
  842POPC   NC313823   3.463  19.780   9.526
  842POPC   PO413824   2.886  20.213   9.409
  842POPC   GL113825   3.213  20.031   9.181
  842POPC   GL213826   3.226  20.249   9.014
  842POPC   C1A13827   3.566  19.860   8.896
  842POPC   D2A13828   3.785  19.778   8.509
  842POPC   C3A13829   3.565  19.612   8.161
  842POPC   C4A13830   3.655  19.840   7.810
  842POPC   C1B13831   3.117  20.012   8.670
  842POPC   C2B13832   3.186  20.018   8.257
  842POPC   C3B13833   3.203  20.146   7.852
  842POPC   C4B13834   3.303  19.981   7.465
  843POPC   NC313835  19.895  37.016   9.636
  843POPC   PO413836  19.562  36.422   9.578
  843POPC   GL113837  19.681  36.701   9.222
  843POPC   GL213838  19.859  37.062   9.139
  843POPC   C1A13839  19.662  36.748   8.785
  843POPC   D2A13840  19.876  36.681   8.419
  843POPC   C3A13841  19.746  36.857   8.079
  843POPC   C4A13842  19.794  36.764   7.674
  843POPC   C1B13843  20.015  37.139   8.726
  843POPC   C2B13844  20.194  37.104   8.326
  843POPC   C3B13845  20.325  37.281   7.956
  843POPC   C4B13846  20.169  37.080   7.593
  844POPC   NC313847  13.960   4.211   9.347
  844POPC   PO413848  14.629   4.317   9.457
  844POPC   GL113849  14.384   4.448   9.127
  844POPC   GL213850  14.086   4.632   9.096
  844POPC   C1A13851  14.278   4.199   8.772
  844POPC   D2A13852  14.486   4.204   8.402
  844POPC   C3A13853  14.297   4.248   8.021
  844POPC   C4A13854  14.532   4.085   7.679
  844POPC   C1B13855  14.225   4.718   8.698
  844POPC   C2B13856  14.081   4.646   8.295
  844POPC   C3B13857  14.123   4.759   7.872
  844POPC   C4B13858  14.181   4.449   7.571
  845POPC   NC313859  23.964  38.238   9.571
  845POPC   PO413860  23.678  38.873   9.625
  845POPC   GL113861  23.657  38.704   9.180
  845POPC   GL213862  23.709  38.343   9.144
  845POPC   C1A13863  23.818  38.616   8.745
  845POPC   D2A13864  23.733  38.833   8.400
  845POPC   C3A13865  23.770  38.637   8.064
  845POPC   C4A13866  23.671  38.832   7.723
  845POPC   C1B13867  23.697  38.112   8.753
  845POPC   C2B13868  23.834  38.062   8.342
  845POPC   C3B13869  23.897  38.026   7.925
  845POPC   C4B13870  23.824  38.349   7.626
  846POPC   NC313871  21.786  42.333   9.623
  846POPC   PO413872  21.174  42.531   9.468
  846POPC   GL113873  21.492  42.414   9.203
  846POPC   GL213874  21.437  42.046   9.249
  846POPC   C1A13875  21.452  42.281   8.800
  846POPC   D2A13876  21.557  42.312   8.403
  846POPC   C3A13877  21.315  42.291   8.062
  846POPC   C4A13878  21.604  42.242   7.725
  846POPC   C1B13879  21.137  41.905   8.918
  846POPC   C2B13880  21.212  41.896   8.454
  846POPC   C3B13881  21.092  41.798   8.026
  846POPC   C4B13882  21.145  42.009   7.654
  847POPC   NC313883  15.483  40.976   9.561
  847POPC   PO413884  16.149  40.912   9.474
  847POPC   GL113885  15.894  40.699   9.172
  847POPC   GL213886  16.194  40.527   9.074
  847POPC   C1A13887  15.774  40.858   8.754
  847POPC   D2A13888  15.926  41.124   8.403
  847POPC   C3A13889  15.753  40.983   7.993
  847POPC   C4A13890  15.633  40.632   7.696
  847POPC   C1B13891  16.250  40.624   8.644
  847POPC   C2B13892  15.983  40.614   8.300
  847POPC   C3B13893  16.013  40.412   7.939
  847POPC   C4B13894  16.397  40.494   7.756
  848POPC   NC313895  31.063  29.693   9.411
  848POPC   PO413896  30.595  30.130   9.525
  848POPC   GL113897  30.724  29.990   9.133
  848POPC   GL213898  31.000  30.180   9.093
  848POPC   C1A13899  30.782  29.721   8.773
  848POPC   D2A13900  30.617  29.512   8.414
  848POPC   C3A13901  30.868  29.601   8.085
  848POPC   C4A13902  30.780  29.675   7.691
  848POPC   C1B13903  30.959  30.281   8.683
  848POPC   C2B13904  30.998  30.065   8.306
  848POPC   C3B13905  30.772  30.155   7.926
  848POPC   C4B13906  30.688  30.190   7.499
  849POPC   NC313907  40.209  23.045   9.695
  849POPC   PO413908  40.932  22.963   9.634
  849POPC   GL113909  40.856  22.903   9.239
  849POPC   GL213910  40.598  22.695   9.265
  849POPC   C1A13911  41.012  22.826   8.839
  849POPC   D2A13912  40.823  22.992   8.488
  849POPC   C3A13913  40.887  22.825   8.091
  849POPC   C4A13914  41.093  23.036   7.746
  849POPC   C1B13915  40.484  22.829   8.869
  849POPC   C2B13916  40.317  22.912   8.479
  849POPC   C3B13917  40.319  23.134   8.118
  849POPC   C4B13918  40.563  23.065   7.770
  850POPC   NC313919  41.107  11.633   9.529
  850POPC   PO413920  40.752  11.182   9.216
  850POPC   GL113921  40.974  11.418   8.943
  850POPC   GL213922  41.143  11.730   9.038
  850POPC   C1A13923  40.868  11.160   8.590
  850POPC   D2A13924  40.613  10.928   8.329
  850POPC   C3A13925  40.616  11.227   8.012
  850POPC   C4A13926  40.434  11.523   7.776
  850POPC   C1B13927  41.331  11.769   8.689
  850POPC   C2B13928  41.085  11.575   8.438
  850POPC   C3B13929  41.090  11.314   8.134
  850POPC   C4B13930  40.982  11.535   7.747
  851POPC   NC313931  36.700   9.929   9.587
  851POPC   PO413932  37.201   9.600   9.668
  851POPC   GL113933  37.037   9.894   9.234
  851POPC   GL213934  36.714   9.704   9.122
  851POPC   C1A13935  37.007   9.918   8.768
  851POPC   D2A13936  36.765   9.859   8.412
  851POPC   C3A13937  36.990   9.762   8.038
  851POPC   C4A13938  36.842   9.855   7.642
  851POPC   C1B13939  36.559   9.455   8.760
  851POPC   C2B13940  36.571   9.247   8.339
  851POPC   C3B13941  36.595   9.434   7.924
  851POPC   C4B13942  36.707   9.385   7.479
  852POPC   NC313943  17.374  20.729   9.535
  852POPC   PO413944  17.797  20.343   9.862
  852POPC   GL113945  17.795  20.482   9.388
  852POPC   GL213946  17.763  20.177   9.204
  852POPC   C1A13947  17.590  20.566   8.923
  852POPC   D2A13948  17.430  20.476   8.474
  852POPC   C3A13949  17.567  20.770   8.134
  852POPC   C4A13950  17.733  20.742   7.702
  852POPC   C1B13951  17.932  20.199   8.747
  852POPC   C2B13952  17.914  20.429   8.362
  852POPC   C3B13953  17.791  20.313   7.963
  852POPC   C4B13954  18.044  20.334   7.605
  853POPC   NC313955  39.676  32.739   9.490
  853POPC   PO413956  40.202  33.143   9.565
  853POPC   GL113957  40.061  32.928   9.193
  853POPC   GL213958  39.726  32.999   9.055
  853POPC   C1A13959  40.043  32.648   8.844
  853POPC   D2A13960  40.017  32.854   8.442
  853POPC   C3A13961  40.242  32.717   8.086
  853POPC   C4A13962  40.288  33.024   7.797
  853POPC   C1B13963  39.882  33.319   8.834
  853POPC   C2B13964  39.938  33.495   8.436
  853POPC   C3B13965  39.899  33.230   8.072
  853POPC   C4B13966  39.790  33.203   7.641
  854POPC   NC313967  35.119  41.223   9.431
  854POPC   PO413968  35.470  41.828   9.458
  854POPC   GL113969  35.340  41.587   9.091
  854POPC   GL213970  35.469  41.241   9.036
  854POPC   C1A13971  35.212  41.704   8.663
  854POPC   D2A13972  35.457  41.782   8.299
  854POPC   C3A13973  35.420  41.708   7.875
  854POPC   C4A13974  35.619  41.568   7.497
  854POPC   C1B13975  35.140  41.196   8.691
  854POPC   C2B13976  35.209  41.333   8.237
  854POPC   C3B13977  35.526  41.206   7.899
  854POPC   C4B13978  35.392  41.123   7.451
  855POPC   NC313979  20.261  43.288   9.615
  855POPC   PO413980  19.917  43.834   9.358
  855POPC   GL113981  20.097  43.737   9.002
  855POPC   GL213982  20.314  44.010   8.908
  855POPC   C1A13983  19.965  43.782   8.598
  855POPC   D2A13984  19.568  43.809   8.423
  855POPC   C3A13985  19.539  43.511   8.099
  855POPC   C4A13986  19.816  43.475   7.709
  855POPC   C1B13987  20.179  44.245   8.630
  855POPC   C2B13988  20.080  44.121   8.244
  855POPC   C3B13989  19.848  43.897   7.981
  855POPC   C4B13990  19.481  43.891   7.739
  856POPC   NC313991  41.351  21.029   9.508
  856POPC   PO413992  41.329  21.667   9.549
  856POPC   GL113993  41.491  21.466   9.197
  856POPC   GL213994  41.800  21.322   9.112
  856POPC   C1A13995  41.379  21.385   8.791
  856POPC   D2A13996  41.550  21.121   8.514
  856POPC   C3A13997  41.473  21.208   8.077
  856POPC   C4A13998  41.385  21.548   7.760
  856POPC   C1B13999  41.799  21.676   8.815
  856POPC   C2B14000  41.665  21.634   8.373
  856POPC   C3B14001  41.823  21.751   7.959
  856POPC   C4B14002  41.821  21.659   7.515
  857POPC   NC314003  24.299  24.095   9.461
  857POPC   PO414004  24.786  23.631   9.487
  857POPC   GL114005  24.655  23.897   9.153
  857POPC   GL214006  24.351  23.776   9.082
  857POPC   C1A14007  24.778  23.804   8.721
  857POPC   D2A14008  24.757  23.972   8.311
  857POPC   C3A14009  24.862  23.771   7.949
  857POPC   C4A14010  24.666  23.707   7.525
  857POPC   C1B14011  24.290  23.978   8.724
  857POPC   C2B14012  24.186  23.790   8.332
  857POPC   C3B14013  24.356  23.845   7.927
  857POPC   C4B14014  24.149  23.769   7.538
  858POPC   NC314015  43.959   1.829   9.623
  858POPC   PO414016  43.570   2.328   9.529
  858POPC   GL114017  43.816   2.153   9.181
  858POPC   GL214018  43.721   1.799   9.141
  858POPC   C1A14019  43.710   2.126   8.731
  858POPC   D2A14020  43.904   2.246   8.349
  858POPC   C3A14021  43.734   2.110   7.998
  858POPC   C4A14022  44.017   1.863   7.806
  858POPC   C1B14023  44.054   1.733   8.819
  858POPC   C2B14024  44.022   1.733   8.363
  858POPC   C3B14025  43.691   1.598   8.101
  858POPC   C4B14026  43.544   1.536   7.678
  859POPC   NC314027  23.973  12.309   9.323
  859POPC   PO414028  23.575  11.839   9.617
  859POPC   GL114029  23.683  11.907   9.177
  859POPC   GL214030  23.589  12.204   8.972
  859POPC   C1A14031  23.836  11.804   8.748
  859POPC   D2A14032  23.980  11.879   8.325
  859POPC   C3A14033  23.628  12.033   8.019
  859POPC   C4A14034  23.356  11.807   7.628
  859POPC   C1B14035  23.800  12.306   8.582
  859POPC   C2B14036  24.123  12.371   8.259
  859POPC   C3B14037  23.977  12.382   7.836
  859POPC   C4B14038  23.743  12.137   7.544
  860POPC   NC314039  22.812  15.517   9.672
  860POPC   PO414040  23.331  15.047   9.481
  860POPC   GL114041  23.040  15.216   9.180
  860POPC   GL214042  22.670  15.228   9.266
  860POPC   C1A14043  23.180  15.207   8.753
  860POPC   D2A14044  23.181  14.994   8.358
  860POPC   C3A14045  22.959  15.166   7.984
  860POPC   C4A14046  22.968  14.917   7.608
  860POPC   C1B14047  22.656  15.182   8.804
  860POPC   C2B14048  22.802  15.380   8.431
  860POPC   C3B14049  22.599  15.554   8.074
  860POPC   C4B14050  22.445  15.391   7.717
  861POPC   NC314051  35.607  22.509   9.466
  861POPC   PO414052  35.841  21.937   9.504
  861POPC   GL114053  36.073  22.035   9.171
  861POPC   GL214054  35.867  22.319   9.049
  861POPC   C1A14055  36.333  21.898   8.815
  861POPC   D2A14056  36.287  22.045   8.401
  861POPC   C3A14057  36.133  21.792   8.088
  861POPC   C4A14058  36.114  21.933   7.695
  861POPC   C1B14059  35.869  22.417   8.598
  861POPC   C2B14060  35.892  22.435   8.129
  861POPC   C3B14061  35.945  22.406   7.678
  861POPC   C4B14062  36.258  22.543   7.360
  862POPC   NC314063  14.014  18.833   9.699
  862POPC   PO414064  13.368  18.996   9.467
  862POPC   GL114065  13.769  18.992   9.240
  862POPC   GL214066  13.757  18.715   8.935
  862POPC   C1A14067  13.922  19.189   8.898
  862POPC   D2A14068  13.642  19.041   8.551
  862POPC   C3A14069  13.774  19.010   8.133
  862POPC   C4A14070  13.686  19.226   7.769
  862POPC   C1B14071  13.391  18.588   8.682
  862POPC   C2B14072  13.284  18.745   8.299
  862POPC   C3B14073  13.338  18.860   7.884
  862POPC   C4B14074  13.374  18.910   7.421
  863POPC   NC314075  24.956  27.610   9.368
  863POPC   PO414076  25.517  27.862   9.558
  863POPC   GL114077  25.369  27.797   9.108
  863POPC   GL214078  25.229  27.438   8.985
  863POPC   C1A14079  25.407  27.881   8.655
  863POPC   D2A14080  25.175  27.798   8.265
  863POPC   C3A14081  25.380  27.579   7.932
  863POPC   C4A14082  25.715  27.266   7.850
  863POPC   C1B14083  24.912  27.653   8.714
  863POPC   C2B14084  24.684  27.626   8.321
  863POPC   C3B14085  24.827  27.678   7.874
  863POPC   C4B14086  24.913  27.483   7.462
  864POPC   NC314087  16.093   3.566   9.762
  864POPC   PO414088  15.503   3.274   9.630
  864POPC   GL114089  15.781   3.303   9.263
  864POPC   GL214090  15.966   3.624   9.206
  864POPC   C1A14091  15.661   3.457   8.839
  864POPC   D2A14092  15.814   3.686   8.472
  864POPC   C3A14093  15.841   3.454   8.083
  864POPC   C4A14094  15.990   3.618   7.715
  864POPC   C1B14095  16.170   3.465   8.816
  864POPC   C2B14096  16.288   3.429   8.382
  864POPC   C3B14097  16.346   3.321   7.946
  864POPC   C4B14098  16.362   3.314   7.499
  865POPC   NC314099  19.097  29.128   9.586
  865POPC   PO414100  18.583  29.309   9.422
  865POPC   GL114101  18.910  29.121   9.093
  865POPC   GL214102  19.276  29.014   9.111
  865POPC   C1A14103  18.937  28.964   8.676
  865POPC   D2A14104  18.723  28.816   8.303
  865POPC   C3A14105  18.763  29.093   7.933
  865POPC   C4A14106  18.736  29.202   7.488
  865POPC   C1B14107  19.496  28.899   8.721
  865POPC   C2B14108  19.501  29.100   8.295
  865POPC   C3B14109  19.449  29.080   7.822
  865POPC   C4B14110  19.233  29.212   7.433
  866POPC   NC314111  41.666  38.518   9.498
  866POPC   PO414112  41.161  38.085   9.691
  866POPC   GL114113  41.379  38.256   9.154
  866POPC   GL214114  41.646  38.572   9.003
  866POPC   C1A14115  41.325  38.362   8.693
  866POPC   D2A14116  41.546  38.306   8.275
  866POPC   C3A14117  41.309  38.242   7.861
  866POPC   C4A14118  41.266  38.110   7.425
  866POPC   C1B14119  41.953  38.857   8.774
  866POPC   C2B14120  42.177  38.962   8.393
  866POPC   C3B14121  42.026  38.818   7.994
  866POPC   C4B14122  41.731  38.530   7.833
  867POPC   NC314123   7.671  10.728   9.966
  867POPC   PO414124   7.504  10.312   9.497
  867POPC   GL114125   7.322  10.575   9.191
  867POPC   GL214126   7.593  10.705   8.973
  867POPC   C1A14127   7.074  10.524   8.810
  867POPC   D2A14128   7.102  10.762   8.429
  867POPC   C3A14129   7.302  10.595   8.091
  867POPC   C4A14130   7.121  10.460   7.719
  867POPC   C1B14131   7.567  10.317   8.783
  867POPC   C2B14132   7.557  10.221   8.355
  867POPC   C3B14133   7.676  10.296   7.924
  867POPC   C4B14134   7.570  10.354   7.515
  868POPC   NC314135  41.114  25.231   9.516
  868POPC   PO414136  41.807  25.291   9.573
  868POPC   GL114137  41.716  25.200   9.154
  868POPC   GL214138  41.376  25.199   9.088
  868POPC   C1A14139  41.786  25.209   8.709
  868POPC   D2A14140  42.022  25.510   8.447
  868POPC   C3A14141  41.839  25.412   8.060
  868POPC   C4A14142  41.584  25.262   7.742
  868POPC   C1B14143  41.311  25.041   8.701
  868POPC   C2B14144  41.494  25.070   8.295
  868POPC   C3B14145  41.292  24.902   7.961
  868POPC   C4B14146  40.978  25.073   7.689
  869POPC   NC314147  24.531  27.251   9.726
  869POPC   PO414148  24.589  27.887   9.460
  869POPC   GL114149  24.445  27.758   9.104
  869POPC   GL214150  24.576  27.459   9.054
  869POPC   C1A14151  24.425  27.873   8.698
  869POPC   D2A14152  24.357  28.036   8.273
  869POPC   C3A14153  24.306  27.693   7.957
  869POPC   C4A14154  24.432  27.656   7.525
  869POPC   C1B14155  24.341  27.358   8.705
  869POPC   C2B14156  24.203  27.305   8.301
  869POPC   C3B14157  24.532  27.243   8.015
  869POPC   C4B14158  24.569  27.158   7.637
  870POPC   NC314159  26.393  40.777   9.549
  870POPC   PO414160  26.929  40.460   9.483
  870POPC   GL114161  26.949  40.825   9.183
  870POPC   GL214162  26.621  40.932   9.128
  870POPC   C1A14163  26.947  40.825   8.731
  870POPC   D2A14164  26.733  40.541   8.474
  870POPC   C3A14165  26.683  40.630   8.054
  870POPC   C4A14166  26.940  40.772   7.745
  870POPC   C1B14167  26.548  41.176   8.769
  870POPC   C2B14168  26.818  41.288   8.445
  870POPC   C3B14169  26.770  41.170   8.019
  870POPC   C4B14170  26.439  40.987   7.761
  871POPC   NC314171  11.954  44.973   9.543
  871POPC   PO414172  12.348  44.526   9.764
  871POPC   GL114173  12.242  44.543   9.294
  871POPC   GL214174  11.866  44.563   9.207
  871POPC   C1A14175  12.192  44.809   8.900
  871POPC   D2A14176  12.029  44.949   8.482
  871POPC   C3A14177  12.247  44.740   8.141
  871POPC   C4A14178  12.225  44.726   7.690
  871POPC   C1B14179  11.870  44.438   8.753
  871POPC   C2B14180  11.769  44.536   8.299
  871POPC   C3B14181  11.775  44.822   7.915
  871POPC   C4B14182  11.752  44.709   7.450
  872POPC   NC314183  25.502  16.214   9.411
  872POPC   PO414184  25.006  15.775   9.499
  872POPC   GL114185  25.152  15.937   9.103
  872POPC   GL214186  25.177  16.294   9.015
  872POPC   C1A14187  25.158  15.825   8.681
  872POPC   D2A14188  25.458  15.799   8.378
  872POPC   C3A14189  25.288  15.895   8.008
  872POPC   C4A14190  25.125  15.615   7.696
  872POPC   C1B14191  25.535  16.183   8.728
  872POPC   C2B14192  25.568  16.302   8.283
  872POPC   C3B14193  25.703  16.178   7.864
  872POPC   C4B14194  25.544  15.875   7.567
  873POPC   NC314195  10.319  21.953   9.453
  873POPC   PO414196  10.482  22.560   9.383
  873POPC   GL114197  10.320  22.335   9.060
  873POPC   GL214198  10.437  21.965   8.975
  873POPC   C1A14199  10.345  22.322   8.626
  873POPC   D2A14200  10.429  21.972   8.403
  873POPC   C3A14201  10.554  22.122   8.013
  873POPC   C4A14202  10.429  22.520   7.808
  873POPC   C1B14203  10.051  21.912   8.819
  873POPC   C2B14204   9.878  21.921   8.424
  873POPC   C3B14205  10.080  21.852   8.037
  873POPC   C4B14206  10.159  21.605   7.664
  874POPC   NC314207  13.708  40.586   9.465
  874POPC   PO414208  13.168  40.983   9.325
  874POPC   GL114209  13.548  40.931   9.138
  874POPC   GL214210  13.396  40.613   9.060
  874POPC   C1A14211  13.814  40.771   8.791
  874POPC   D2A14212  13.930  40.543   8.438
  874POPC   C3A14213  13.814  40.811   8.079
  874POPC   C4A14214  13.649  40.746   7.675
  874POPC   C1B14215  13.289  40.830   8.718
  874POPC   C2B14216  13.429  40.714   8.373
  874POPC   C3B14217  13.260  40.589   8.018
  874POPC   C4B14218  13.103  40.820   7.713
  875POPC   NC314219  40.373  15.738   9.553
  875POPC   PO414220  39.751  15.985   9.457
  875POPC   GL114221  40.044  15.793   9.166
  875POPC   GL214222  40.258  16.090   9.147
  875POPC   C1A14223  40.279  15.757   8.766
  875POPC   D2A14224  40.002  15.650   8.446
  875POPC   C3A14225  40.094  15.759   8.045
  875POPC   C4A14226  39.934  15.859   7.671
  875POPC   C1B14227  39.910  16.118   8.779
  875POPC   C2B14228  39.822  16.095   8.314
  875POPC   C3B14229  40.010  16.280   7.961
  875POPC   C4B14230  40.434  16.247   7.761
  876POPC   NC314231  39.560   5.892   9.617
  876POPC   PO414232  39.015   5.622   9.516
  876POPC   GL114233  39.286   5.809   9.200
  876POPC   GL214234  39.306   6.192   9.262
  876POPC   C1A14235  39.373   5.593   8.818
  876POPC   D2A14236  39.172   5.584   8.413
  876POPC   C3A14237  39.347   5.711   8.015
  876POPC   C4A14238  39.469   5.469   7.636
  876POPC   C1B14239  39.142   6.322   8.887
  876POPC   C2B14240  39.161   6.118   8.520
  876POPC   C3B14241  39.149   6.217   8.132
  876POPC   C4B14242  39.023   6.052   7.760
  877POPC   NC314243  42.457  11.933   9.679
  877POPC   PO414244  42.449  11.229   9.841
  877POPC   GL114245  42.283  11.115   9.372
  877POPC   GL214246  42.488  11.323   9.111
  877POPC   C1A14247  42.059  11.102   8.924
  877POPC   D2A14248  42.126  11.131   8.473
  877POPC   C3A14249  41.956  11.248   8.100
  877POPC   C4A14250  41.988  11.161   7.699
  877POPC   C1B14251  42.572  11.121   8.702
  877POPC   C2B14252  42.581  11.107   8.243
  877POPC   C3B14253  42.479  11.307   7.843
  877POPC   C4B14254  42.562  11.147   7.421
  878POPC   NC314255   4.117  22.803   9.388
  878POPC   PO414256   3.516  23.163   9.541
  878POPC   GL114257   3.681  23.012   9.167
  878POPC   GL214258   3.668  22.639   9.168
  878POPC   C1A14259   3.574  23.099   8.757
  878POPC   D2A14260   3.799  23.111   8.391
  878POPC   C3A14261   3.561  23.156   8.011
  878POPC   C4A14262   3.718  23.210   7.644
  878POPC   C1B14263   3.381  22.629   8.801
  878POPC   C2B14264   3.370  22.794   8.373
  878POPC   C3B14265   3.443  22.662   7.944
  878POPC   C4B14266   3.404  22.462   7.515
  879POPC   NC314267  11.858  28.153   9.555
  879POPC   PO414268  12.348  28.550   9.398
  879POPC   GL114269  12.067  28.686   9.101
  879POPC   GL214270  11.821  28.428   9.119
  879POPC   C1A14271  12.135  28.515   8.682
  879POPC   D2A14272  12.130  28.690   8.276
  879POPC   C3A14273  12.276  28.531   7.870
  879POPC   C4A14274  12.359  28.664   7.386
  879POPC   C1B14275  11.695  28.206   8.750
  879POPC   C2B14276  11.736  28.259   8.294
  879POPC   C3B14277  11.755  28.205   7.842
  879POPC   C4B14278  12.018  28.290   7.491
  880POPC   NC314279  18.063  20.719   9.815
  880POPC   PO414280  18.330  20.167   9.453
  880POPC   GL114281  18.200  20.412   9.084
  880POPC   GL214282  18.468  20.504   8.937
  880POPC   C1A14283  18.065  20.726   8.760
  880POPC   D2A14284  18.079  20.946   8.339
  880POPC   C3A14285  18.178  20.669   7.960
  880POPC   C4A14286  18.168  20.793   7.448
  880POPC   C1B14287  18.561  20.889   8.774
  880POPC   C2B14288  18.610  20.999   8.385
  880POPC   C3B14289  18.682  20.657   8.107
  880POPC   C4B14290  18.627  20.657   7.675
  881POPC   NC314291  42.645  36.906   9.547
  881POPC   PO414292  43.328  36.851   9.571
  881POPC   GL114293  43.074  36.969   9.187
  881POPC   GL214294  42.733  37.120   9.091
  881POPC   C1A14295  43.206  36.986   8.753
  881POPC   D2A14296  43.351  37.115   8.334
  881POPC   C3A14297  43.285  36.758   8.052
  881POPC   C4A14298  43.274  36.575   7.639
  881POPC   C1B14299  42.740  36.735   8.839
  881POPC   C2B14300  42.938  36.639   8.450
  881POPC   C3B14301  42.752  36.663   8.063
  881POPC   C4B14302  42.747  37.016   7.823
  882POPC   NC314303  39.003   4.298   9.812
  882POPC   PO414304  39.296   4.726   9.364
  882POPC   GL114305  39.085   4.543   9.082
  882POPC   GL214306  38.992   4.240   9.287
  882POPC   C1A14307  39.185   4.588   8.668
  882POPC   D2A14308  39.410   4.658   8.289
  882POPC   C3A14309  39.254   4.575   7.907
  882POPC   C4A14310  39.336   4.186   7.739
  882POPC   C1B14311  38.904   4.141   8.856
  882POPC   C2B14312  39.094   4.151   8.434
  882POPC   C3B14313  38.921   4.228   8.056
  882POPC   C4B14314  38.818   4.181   7.629
  883POPC   NC314315  40.483  11.165   9.577
  883POPC   PO414316  39.809  11.306   9.525
  883POPC   GL114317  39.936  11.331   9.101
  883POPC   GL214318  40.291  11.363   9.091
  883POPC   C1A14319  39.960  11.300   8.652
  883POPC   D2A14320  39.706  11.165   8.326
  883POPC   C3A14321  39.749  11.366   8.000
  883POPC   C4A14322  39.936  11.595   7.713
  883POPC   C1B14323  40.245  10.937   8.874
  883POPC   C2B14324  40.115  10.842   8.441
  883POPC   C3B14325  40.142  11.058   8.033
  883POPC   C4B14326  39.982  10.921   7.627
  884POPC   NC314327  14.370  17.708   9.598
  884POPC   PO414328  14.566  16.984   9.541
  884POPC   GL114329  14.334  17.312   9.227
  884POPC   GL214330  14.119  17.670   9.163
  884POPC   C1A14331  14.496  17.544   8.848
  884POPC   D2A14332  14.322  17.636   8.428
  884POPC   C3A14333  14.476  17.467   8.042
  884POPC   C4A14334  14.740  17.235   7.750
  884POPC   C1B14335  14.105  17.899   8.813
  884POPC   C2B14336  14.163  18.115   8.406
  884POPC   C3B14337  14.116  17.871   8.016
  884POPC   C4B14338  14.341  17.775   7.652
  885POPC   NC314339  12.476   1.848   9.477
  885POPC   PO414340  12.090   2.387   9.458
  885POPC   GL114341  12.220   2.187   9.110
  885POPC   GL214342  12.167   1.817   9.068
  885POPC   C1A14343  12.023   2.159   8.707
  885POPC   D2A14344  12.047   1.931   8.343
  885POPC   C3A14345  12.149   2.088   7.945
  885POPC   C4A14346  11.791   2.209   7.710
  885POPC   C1B14347  11.921   1.619   8.718
  885POPC   C2B14348  11.922   1.387   8.364
  885POPC   C3B14349  12.011   1.561   8.006
  885POPC   C4B14350  11.808   1.694   7.679
  886POPC   NC314351  35.935   9.443   9.549
  886POPC   PO414352  36.229   8.854   9.369
  886POPC   GL114353  36.341   9.077   9.025
  886POPC   GL214354  36.049   9.247   9.078
  886POPC   C1A14355  36.190   9.005   8.599
  886POPC   D2A14356  35.766   8.934   8.449
  886POPC   C3A14357  35.774   8.762   8.057
  886POPC   C4A14358  36.096   8.809   7.737
  886POPC   C1B14359  36.039   9.467   8.734
  886POPC   C2B14360  35.859   9.432   8.344
  886POPC   C3B14361  36.064   9.250   8.013
  886POPC   C4B14362  36.240   9.260   7.606
  887POPC   NC314363  33.736  15.856   9.573
  887POPC   PO414364  34.124  15.360   9.328
  887POPC   GL114365  33.985  15.721   9.114
  887POPC   GL214366  33.915  16.083   9.153
  887POPC   C1A14367  34.028  15.816   8.698
  887POPC   D2A14368  33.864  15.877   8.322
  887POPC   C3A14369  34.032  15.894   7.927
  887POPC   C4A14370  33.688  15.944   7.642
  887POPC   C1B14371  33.873  16.300   8.735
  887POPC   C2B14372  33.962  16.379   8.284
  887POPC   C3B14373  33.892  16.383   7.836
  887POPC   C4B14374  34.033  16.494   7.411
  888POPC   NC314375  36.376  43.166   9.492
  888POPC   PO414376  35.974  42.688   9.374
  888POPC   GL114377  35.993  43.099   9.120
  888POPC   GL214378  35.691  43.348   9.114
  888POPC   C1A14379  36.247  43.226   8.766
  888POPC   D2A14380  36.373  43.058   8.360
  888POPC   C3A14381  36.252  43.358   8.061
  888POPC   C4A14382  36.214  43.115   7.716
  888POPC   C1B14383  35.629  43.144   8.754
  888POPC   C2B14384  35.867  43.126   8.425
  888POPC   C3B14385  35.820  43.081   8.043
  888POPC   C4B14386  35.522  43.162   7.781
  889POPC   NC314387  32.014   3.024   9.615
  889POPC   PO414388  32.597   2.738   9.534
  889POPC   GL114389  32.372   2.805   9.160
  889POPC   GL214390  32.128   3.049   9.129
  889POPC   C1A14391  32.411   2.880   8.732
  889POPC   D2A14392  32.247   2.719   8.391
  889POPC   C3A14393  32.483   2.893   8.066
  889POPC   C4A14394  32.387   2.748   7.669
  889POPC   C1B14395  31.901   2.768   8.846
  889POPC   C2B14396  31.765   2.889   8.424
  889POPC   C3B14397  31.975   2.968   8.010
  889POPC   C4B14398  31.847   3.221   7.676
  890POPC   NC314399  12.743  17.746   9.526
  890POPC   PO414400  13.005  17.132   9.621
  890POPC   GL114401  12.976  17.362   9.250
  890POPC   GL214402  13.175  17.644   9.175
  890POPC   C1A14403  12.665  17.443   8.915
  890POPC   D2A14404  12.749  17.605   8.478
  890POPC   C3A14405  12.911  17.310   8.169
  890POPC   C4A14406  12.678  17.398   7.798
  890POPC   C1B14407  13.157  17.497   8.778
  890POPC   C2B14408  13.294  17.604   8.401
  890POPC   C3B14409  13.127  17.757   8.024
  890POPC   C4B14410  13.085  17.647   7.589
  891POPC   NC314411  27.911   6.552   9.377
  891POPC   PO414412  27.338   6.703   9.718
  891POPC   GL114413  27.285   6.595   9.277
  891POPC   GL214414  27.514   6.848   9.198
  891POPC   C1A14415  27.224   6.688   8.813
  891POPC   D2A14416  27.396   6.861   8.409
  891POPC   C3A14417  27.281   6.630   8.030
  891POPC   C4A14418  27.634   6.413   7.814
  891POPC   C1B14419  27.732   6.882   8.797
  891POPC   C2B14420  28.004   6.774   8.473
  891POPC   C3B14421  28.002   6.722   8.041
  891POPC   C4B14422  28.203   6.935   7.718
  892POPC   NC314423  43.449   1.396   9.317
  892POPC   PO414424  43.229   0.778   9.493
  892POPC   GL114425  42.983   0.782   9.122
  892POPC   GL214426  43.092   1.133   9.051
  892POPC   C1A14427  42.817   0.893   8.723
  892POPC   D2A14428  43.183   1.009   8.483
  892POPC   C3A14429  43.144   0.914   8.061
  892POPC   C4A14430  43.445   1.041   7.717
  892POPC   C1B14431  43.173   1.475   8.743
  892POPC   C2B14432  43.147   1.696   8.396
  892POPC   C3B14433  43.215   1.418   8.079
  892POPC   C4B14434  43.025   1.520   7.742
  893POPC   NC314435  36.662  11.360   9.940
  893POPC   PO414436  36.950  11.140   9.394
  893POPC   GL114437  36.855  11.413   9.108
  893POPC   GL214438  37.110  11.658   8.992
  893POPC   C1A14439  36.810  11.316   8.725
  893POPC   D2A14440  36.958  11.204   8.366
  893POPC   C3A14441  36.700  11.047   8.078
  893POPC   C4A14442  36.748  11.322   7.768
  893POPC   C1B14443  37.290  11.260   8.805
  893POPC   C2B14444  37.464  11.115   8.418
  893POPC   C3B14445  37.270  11.088   7.985
  893POPC   C4B14446  37.149  11.114   7.534
  894POPC   NC314447  34.463  21.249   9.456
  894POPC   PO414448  35.111  21.117   9.371
  894POPC   GL114449  34.795  21.281   9.057
  894POPC   GL214450  34.574  21.625   9.126
  894POPC   C1A14451  34.536  21.192   8.709
  894POPC   D2A14452  34.649  21.110   8.272
  894POPC   C3A14453  34.509  21.378   7.952
  894POPC   C4A14454  34.245  21.197   7.660
  894POPC   C1B14455  34.641  21.695   8.682
  894POPC   C2B14456  34.741  21.859   8.279
  894POPC   C3B14457  35.002  21.775   7.907
  894POPC   C4B14458  34.899  21.730   7.457
  895POPC   NC314459  14.180  33.660   9.473
  895POPC   PO414460  14.821  33.610   9.490
  895POPC   GL114461  14.719  33.758   9.131
  895POPC   GL214462  14.398  33.866   9.063
  895POPC   C1A14463  14.699  33.602   8.732
  895POPC   D2A14464  14.557  33.796   8.388
  895POPC   C3A14465  14.667  33.592   8.035
  895POPC   C4A14466  14.516  33.579   7.638
  895POPC   C1B14467  14.105  33.795   8.741
  895POPC   C2B14468  14.068  33.721   8.317
  895POPC   C3B14469  14.217  33.864   7.916
  895POPC   C4B14470  13.975  34.020   7.537
  896POPC   NC314471   7.645   1.527   9.268
  896POPC   PO414472   7.408   0.976   9.514
  896POPC   GL114473   7.339   1.085   9.134
  896POPC   GL214474   7.076   1.312   9.273
  896POPC   C1A14475   7.637   1.065   8.774
  896POPC   D2A14476   7.817   1.081   8.343
  896POPC   C3A14477   7.582   1.135   7.969
  896POPC   C4A14478   7.288   0.863   7.817
  896POPC   C1B14479   7.014   1.302   8.826
  896POPC   C2B14480   7.242   1.191   8.458
  896POPC   C3B14481   7.174   1.458   8.115
  896POPC   C4B14482   7.100   1.342   7.713
  897POPC   NC314483  31.214   2.957   9.570
  897POPC   PO414484  31.651   2.415   9.536
  897POPC   GL114485  31.440   2.633   9.180
  897POPC   GL214486  31.102   2.564   9.178
  897POPC   C1A14487  31.327   2.739   8.736
  897POPC   D2A14488  31.412   2.490   8.348
  897POPC   C3A14489  31.552   2.687   7.965
  897POPC   C4A14490  31.409   2.976   7.626
  897POPC   C1B14491  30.893   2.415   8.793
  897POPC   C2B14492  30.986   2.192   8.380
  897POPC   C3B14493  30.909   2.314   7.971
  897POPC   C4B14494  31.091   2.610   7.771
  898POPC   NC314495  18.000  13.921   9.563
  898POPC   PO414496  17.794  13.294   9.514
  898POPC   GL114497  18.098  13.519   9.220
  898POPC   GL214498  18.003  13.838   9.049
  898POPC   C1A14499  18.388  13.483   8.839
  898POPC   D2A14500  18.521  13.353   8.400
  898POPC   C3A14501  18.350  13.530   7.981
  898POPC   C4A14502  18.572  13.934   7.811
  898POPC   C1B14503  18.203  14.057   8.682
  898POPC   C2B14504  18.288  14.104   8.223
  898POPC   C3B14505  18.062  13.940   7.878
  898POPC   C4B14506  17.837  13.596   7.764
  899POPC   NC314507   7.142  42.752   9.385
  899POPC   PO414508   7.465  42.106   9.541
  899POPC   GL114509   7.490  42.285   9.127
  899POPC   GL214510   7.302  42.537   8.964
  899POPC   C1A14511   7.594  42.160   8.748
  899POPC   D2A14512   7.672  42.030   8.362
  899POPC   C3A14513   7.472  42.298   8.087
  899POPC   C4A14514   7.244  42.498   7.763
  899POPC   C1B14515   7.577  42.704   8.674
  899POPC   C2B14516   7.446  42.802   8.256
  899POPC   C3B14517   7.698  42.759   7.911
  899POPC   C4B14518   7.646  42.683   7.491
  900POPC   NC314519  34.263  10.167   9.661
  900POPC   PO414520  34.780   9.876   9.407
  900POPC   GL114521  34.807   9.795   9.011
  900POPC   GL214522  34.476   9.886   8.910
  900POPC   C1A14523  34.722   9.522   8.674
  900POPC   D2A14524  34.590   9.780   8.343
  900POPC   C3A14525  34.873   9.674   8.028
  900POPC   C4A14526  34.765   9.525   7.635
  900POPC   C1B14527  34.175   9.680   8.666
  900POPC   C2B14528  34.086   9.701   8.230
  900POPC   C3B14529  34.344   9.685   7.887
  900POPC   C4B14530  34.470   9.945   7.590
  901POPC   NC314531  35.629  44.671   9.571
  901POPC   PO414532  35.001  44.957   9.728
  901POPC   GL114533  35.212  44.869   9.325
  901POPC   GL214534  34.975  44.829   9.101
  901POPC   C1A14535  35.467  44.676   8.940
  901POPC   D2A14536  35.661  44.780   8.530
  901POPC   C3A14537  35.568  44.533   8.159
  901POPC   C4A14538  35.415  44.798   7.847
  901POPC   C1B14539  35.124  44.945   8.690
  901POPC   C2B14540  35.119  44.673   8.336
  901POPC   C3B14541  34.970  44.584   7.935
  901POPC   C4B14542  34.923  44.884   7.679
  902POPC   NC314543  30.240  11.144   9.606
  902POPC   PO414544  30.924  11.240   9.543
  902POPC   GL114545  30.631  11.033   9.256
  902POPC   GL214546  30.464  11.313   9.133
  902POPC   C1A14547  30.657  10.999   8.789
  902POPC   D2A14548  30.895  11.198   8.441
  902POPC   C3A14549  30.781  11.143   8.032
  902POPC   C4A14550  30.732  11.182   7.554
  902POPC   C1B14551  30.402  11.523   8.749
  902POPC   C2B14552  30.401  11.364   8.324
  902POPC   C3B14553  30.480  11.531   7.923
  902POPC   C4B14554  30.264  11.533   7.566
  903POPC   NC314555  43.176  37.751   9.504
  903POPC   PO414556  42.543  37.450   9.465
  903POPC   GL114557  42.788  37.637   9.142
  903POPC   GL214558  43.058  37.867   9.038
  903POPC   C1A14559  42.963  37.460   8.757
  903POPC   D2A14560  43.104  37.645   8.377
  903POPC   C3A14561  43.074  37.406   7.978
  903POPC   C4A14562  43.232  37.098   7.673
  903POPC   C1B14563  42.746  37.999   8.765
  903POPC   C2B14564  42.738  38.133   8.339
  903POPC   C3B14565  42.889  37.897   7.967
  903POPC   C4B14566  43.005  37.718   7.529
  904POPC   NC314567  26.712  23.879   9.436
  904POPC   PO414568  27.035  23.271   9.515
  904POPC   GL114569  26.816  23.431   9.136
  904POPC   GL214570  26.916  23.800   8.992
  904POPC   C1A14571  26.799  23.422   8.678
  904POPC   D2A14572  26.784  23.800   8.426
  904POPC   C3A14573  26.937  23.725   7.998
  904POPC   C4A14574  26.672  23.481   7.734
  904POPC   C1B14575  27.222  23.988   8.715
  904POPC   C2B14576  27.157  24.133   8.310
  904POPC   C3B14577  27.013  24.227   7.919
  904POPC   C4B14578  26.686  24.042   7.639
  905POPC   NC314579   5.870  14.028   9.584
  905POPC   PO414580   5.656  14.649   9.520
  905POPC   GL114581   5.845  14.739   9.140
  905POPC   GL214582   5.792  14.372   9.097
  905POPC   C1A14583   6.018  14.636   8.727
  905POPC   D2A14584   5.898  14.331   8.374
  905POPC   C3A14585   5.934  14.526   7.975
  905POPC   C4A14586   6.101  14.438   7.544
  905POPC   C1B14587   5.529  14.203   8.776
  905POPC   C2B14588   5.495  14.002   8.396
  905POPC   C3B14589   5.464  14.162   7.995
  905POPC   C4B14590   5.617  14.337   7.629
  906POPC   NC314591  39.552  29.260   9.485
  906POPC   PO414592  38.967  28.932   9.610
  906POPC   GL114593  39.077  29.099   9.203
  906POPC   GL214594  39.425  28.989   9.059
  906POPC   C1A14595  38.940  29.262   8.794
  906POPC   D2A14596  39.214  29.265   8.435
  906POPC   C3A14597  38.994  29.224   8.061
  906POPC   C4A14598  38.971  29.296   7.639
  906POPC   C1B14599  39.592  29.352   8.792
  906POPC   C2B14600  39.713  29.405   8.351
  906POPC   C3B14601  39.485  29.298   7.971
  906POPC   C4B14602  39.415  28.845   7.899
  907POPC   NC314603  43.495   7.161   9.558
  907POPC   PO414604  42.974   7.593   9.389
  907POPC   GL114605  43.021   7.454   9.030
  907POPC   GL214606  43.341   7.354   9.046
  907POPC   C1A14607  42.920   7.462   8.638
  907POPC   D2A14608  42.811   7.231   8.324
  907POPC   C3A14609  42.870   7.475   7.967
  907POPC   C4A14610  43.197   7.283   7.749
  907POPC   C1B14611  43.394   7.584   8.648
  907POPC   C2B14612  43.235   7.763   8.283
  907POPC   C3B14613  43.325   7.766   7.876
  907POPC   C4B14614  43.572   7.607   7.574
  908POPC   NC314615   8.404  27.953   9.400
  908POPC   PO414616   8.088  28.447   9.739
  908POPC   GL114617   8.110  28.322   9.256
  908POPC   GL214618   7.897  28.114   9.353
  908POPC   C1A14619   8.254  28.410   8.808
  908POPC   D2A14620   8.264  28.550   8.368
  908POPC   C3A14621   8.386  28.502   7.945
  908POPC   C4A14622   8.431  28.446   7.486
  908POPC   C1B14623   7.860  28.126   8.855
  908POPC   C2B14624   7.783  28.367   8.471
  908POPC   C3B14625   7.836  28.562   8.078
  908POPC   C4B14626   7.928  28.414   7.651
  909POPC   NC314627  40.033  31.814   9.619
  909POPC   PO414628  39.454  31.403   9.512
  909POPC   GL114629  39.779  31.558   9.230
  909POPC   GL214630  40.141  31.461   9.195
  909POPC   C1A14631  39.859  31.591   8.794
  909POPC   D2A14632  39.763  31.393   8.417
  909POPC   C3A14633  39.819  31.598   8.059
  909POPC   C4A14634  39.862  31.435   7.679
  909POPC   C1B14635  40.314  31.248   8.830
  909POPC   C2B14636  40.277  31.100   8.421
  909POPC   C3B14637  40.177  31.201   8.014
  909POPC   C4B14638  40.360  31.394   7.651
  910POPC   NC314639  36.694  30.310   9.493
  910POPC   PO414640  36.952  30.843   9.420
  910POPC   GL114641  36.975  30.777   9.030
  910POPC   GL214642  37.031  30.445   9.081
  910POPC   C1A14643  36.712  30.909   8.679
  910POPC   D2A14644  36.528  30.951   8.262
  910POPC   C3A14645  36.811  30.806   7.966
  910POPC   C4A14646  36.948  30.904   7.571
  910POPC   C1B14647  36.705  30.397   8.809
  910POPC   C2B14648  36.797  30.213   8.418
  910POPC   C3B14649  36.736  30.315   8.017
  910POPC   C4B14650  36.906  30.401   7.641
  911POPC   NC314651  24.304   5.947   9.710
  911POPC   PO414652  24.675   5.411   9.588
  911POPC   GL114653  24.425   5.640   9.275
  911POPC   GL214654  24.732   5.584   9.067
  911POPC   C1A14655  24.378   5.941   8.899
  911POPC   D2A14656  24.733   6.027   8.578
  911POPC   C3A14657  24.655   6.154   8.131
  911POPC   C4A14658  24.446   6.058   7.734
  911POPC   C1B14659  24.536   5.504   8.651
  911POPC   C2B14660  24.357   5.707   8.280
  911POPC   C3B14661  24.363   5.571   7.848
  911POPC   C4B14662  24.211   5.548   7.411
  912POPC   NC314663   1.574   6.784   9.775
  912POPC   PO414664   2.245   6.850   9.615
  912POPC   GL114665   2.077   6.887   9.204
  912POPC   GL214666   2.014   6.568   9.169
  912POPC   C1A14667   2.284   6.788   8.800
  912POPC   D2A14668   2.384   6.505   8.481
  912POPC   C3A14669   2.187   6.547   8.118
  912POPC   C4A14670   1.972   6.742   7.834
  912POPC   C1B14671   1.843   6.457   8.802
  912POPC   C2B14672   1.565   6.430   8.476
  912POPC   C3B14673   1.589   6.205   8.106
  912POPC   C4B14674   1.779   6.280   7.742
  913POPC   NC314675  32.845  34.048   9.557
  913POPC   PO414676  33.445  34.232   9.410
  913POPC   GL114677  33.307  33.966   9.093
  913POPC   GL214678  33.060  33.760   9.191
  913POPC   C1A14679  33.285  33.834   8.675
  913POPC   D2A14680  33.142  33.906   8.264
  913POPC   C3A14681  33.206  33.572   7.983
  913POPC   C4A14682  33.362  33.578   7.527
  913POPC   C1B14683  32.796  33.704   8.822
  913POPC   C2B14684  32.679  33.678   8.387
  913POPC   C3B14685  32.723  33.857   7.968
  913POPC   C4B14686  32.857  33.639   7.611
  914POPC   NC314687  14.282  39.805   9.712
  914POPC   PO414688  14.488  39.246   9.428
  914POPC   GL114689  14.285  39.337   9.118
  914POPC   GL214690  14.191  39.662   9.205
  914POPC   C1A14691  14.329  39.157   8.725
  914POPC   D2A14692  14.532  39.162   8.354
  914POPC   C3A14693  14.362  39.218   7.957
  914POPC   C4A14694  14.599  39.437   7.653
  914POPC   C1B14695  14.363  39.715   8.801
  914POPC   C2B14696  14.325  39.630   8.415
  914POPC   C3B14697  14.238  39.730   8.027
  914POPC   C4B14698  14.120  39.589   7.657
  915POPC   NC314699  20.914  35.866   9.595
  915POPC   PO414700  20.461  36.400   9.552
  915POPC   GL114701  20.500  36.312   9.160
  915POPC   GL214702  20.820  36.178   9.202
  915POPC   C1A14703  20.644  36.452   8.791
  915POPC   D2A14704  20.748  36.220   8.407
  915POPC   C3A14705  20.656  36.375   8.015
  915POPC   C4A14706  20.632  36.157   7.649
  915POPC   C1B14707  21.031  36.132   8.830
  915POPC   C2B14708  21.057  35.816   8.549
  915POPC   C3B14709  21.048  35.822   8.116
  915POPC   C4B14710  20.902  35.734   7.703
  916POPC   NC314711  22.214  14.883   9.519
  916POPC   PO414712  22.362  15.464   9.767
  916POPC   GL114713  22.161  15.351   9.297
  916POPC   GL214714  21.961  15.045   9.122
  916POPC   C1A14715  22.166  15.399   8.823
  916POPC   D2A14716  22.287  15.225   8.402
  916POPC   C3A14717  22.042  15.389   8.052
  916POPC   C4A14718  22.028  15.664   7.731
  916POPC   C1B14719  22.215  14.849   8.792
  916POPC   C2B14720  22.232  14.655   8.372
  916POPC   C3B14721  22.030  14.884   8.084
  916POPC   C4B14722  22.072  15.037   7.669
  917POPC   NC314723   3.846  21.213   9.530
  917POPC   PO414724   3.381  21.645   9.523
  917POPC   GL114725   3.435  21.325   9.215
  917POPC   GL214726   3.772  21.298   9.036
  917POPC   C1A14727   3.321  21.278   8.793
  917POPC   D2A14728   3.661  21.296   8.512
  917POPC   C3A14729   3.481  21.213   8.145
  917POPC   C4A14730   3.386  21.321   7.750
  917POPC   C1B14731   3.993  21.622   8.781
  917POPC   C2B14732   3.903  21.810   8.392
  917POPC   C3B14733   3.835  21.569   8.014
  917POPC   C4B14734   3.865  21.189   7.782
  918POPC   NC314735  20.018  36.301   9.504
  918POPC   PO414736  19.780  35.671   9.625
  918POPC   GL114737  19.682  35.960   9.264
  918POPC   GL214738  19.972  36.099   9.053
  918POPC   C1A14739  19.545  35.945   8.809
  918POPC   D2A14740  19.670  36.216   8.449
  918POPC   C3A14741  19.644  36.079   8.021
  918POPC   C4A14742  19.328  35.800   7.881
  918POPC   C1B14743  20.179  36.171   8.657
  918POPC   C2B14744  20.155  36.157   8.237
  918POPC   C3B14745  20.136  36.159   7.812
  918POPC   C4B14746  20.205  36.115   7.364
  919POPC   NC314747  36.353  43.981   9.570
  919POPC   PO414748  35.966  43.431   9.519
  919POPC   GL114749  35.999  43.769   9.227
  919POPC   GL214750  36.271  43.619   9.095
  919POPC   C1A14751  35.929  43.886   8.808
  919POPC   D2A14752  36.145  43.727   8.439
  919POPC   C3A14753  35.943  43.853   8.049
  919POPC   C4A14754  35.857  43.545   7.746
  919POPC   C1B14755  36.431  43.994   8.842
  919POPC   C2B14756  36.586  44.014   8.404
  919POPC   C3B14757  36.440  43.869   7.986
  919POPC   C4B14758  36.199  44.081   7.657
  920POPC   NC314759  18.891   6.422   9.459
  920POPC   PO414760  19.568   6.692   9.601
  920POPC   GL114761  19.340   6.567   9.246
  920POPC   GL214762  19.138   6.871   9.254
  920POPC   C1A14763  19.181   6.412   8.820
  920POPC   D2A14764  18.845   6.485   8.472
  920POPC   C3A14765  18.925   6.305   8.015
  920POPC   C4A14766  19.050   6.175   7.576
  920POPC   C1B14767  19.041   6.909   8.829
  920POPC   C2B14768  19.260   6.776   8.451
  920POPC   C3B14769  19.050   6.776   8.092
  920POPC   C4B14770  18.957   6.678   7.630
  921POPC   NC314771  21.427  14.776   9.882
  921POPC   PO414772  21.637  15.293   9.415
  921POPC   GL114773  21.341  15.275   9.091
  921POPC   GL214774  21.486  15.080   8.923
  921POPC   C1A14775  21.075  15.451   8.791
  921POPC   D2A14776  21.201  15.571   8.379
  921POPC   C3A14777  21.165  15.266   8.089
  921POPC   C4A14778  21.214  15.266   7.653
  921POPC   C1B14779  21.330  15.063   8.552
  921POPC   C2B14780  21.637  15.166   8.279
  921POPC   C3B14781  21.591  15.035   7.891
  921POPC   C4B14782  21.218  14.787   7.817
  922POPC   NC314783  23.250   1.243   9.568
  922POPC   PO414784  22.531   1.093   9.689
  922POPC   GL114785  22.725   1.112   9.258
  922POPC   GL214786  22.906   1.429   9.236
  922POPC   C1A14787  22.885   1.139   8.801
  922POPC   D2A14788  23.127   1.051   8.393
  922POPC   C3A14789  22.872   1.043   8.022
  922POPC   C4A14790  22.886   1.344   7.716
  922POPC   C1B14791  23.191   1.529   8.912
  922POPC   C2B14792  23.255   1.549   8.519
  922POPC   C3B14793  23.124   1.561   8.125
  922POPC   C4B14794  23.403   1.655   7.821
  923POPC   NC314795  22.742  44.013   9.507
  923POPC   PO414796  22.991  43.524   9.209
  923POPC   GL114797  22.907  43.927   9.027
  923POPC   GL214798  22.978  44.288   9.143
  923POPC   C1A14799  22.951  43.996   8.618
  923POPC   D2A14800  22.776  44.013   8.247
  923POPC   C3A14801  22.910  43.762   7.937
  923POPC   C4A14802  22.767  43.932   7.555
  923POPC   C1B14803  23.319  44.272   8.816
  923POPC   C2B14804  23.354  44.126   8.338
  923POPC   C3B14805  23.201  44.186   7.881
  923POPC   C4B14806  23.188  44.154   7.395
  924POPC   NC314807  31.957  11.048   9.540
  924POPC   PO414808  32.237  10.421   9.487
  924POPC   GL114809  32.107  10.721   9.145
  924POPC   GL214810  32.044  10.434   8.956
  924POPC   C1A14811  32.265  10.861   8.707
  924POPC   D2A14812  32.596  10.658   8.384
  924POPC   C3A14813  32.492  10.580   7.924
  924POPC   C4A14814  32.094  10.433   7.708
  924POPC   C1B14815  32.382  10.142   8.894
  924POPC   C2B14816  32.505  10.130   8.481
  924POPC   C3B14817  32.373  10.081   8.065
  924POPC   C4B14818  32.525  10.042   7.670
  925POPC   NC314819  42.877  26.886   9.534
  925POPC   PO414820  43.420  27.182   9.405
  925POPC   GL114821  43.139  26.954   9.115
  925POPC   GL214822  42.817  27.084   9.077
  925POPC   C1A14823  43.153  26.755   8.733
  925POPC   D2A14824  43.492  26.804   8.434
  925POPC   C3A14825  43.339  26.694   8.026
  925POPC   C4A14826  43.183  26.648   7.589
  925POPC   C1B14827  42.864  27.206   8.684
  925POPC   C2B14828  43.044  27.049   8.296
  925POPC   C3B14829  42.998  27.054   7.844
  925POPC   C4B14830  42.884  27.005   7.388
  926POPC   NC314831  11.005  39.843   9.527
  926POPC   PO414832  11.413  40.380   9.577
  926POPC   GL114833  11.309  40.105   9.159
  926POPC   GL214834  11.119  39.754   9.054
  926POPC   C1A14835  11.542  40.117   8.741
  926POPC   D2A14836  11.678  40.253   8.303
  926POPC   C3A14837  11.363  40.204   7.974
  926POPC   C4A14838  11.427  40.096   7.496
  926POPC   C1B14839  11.085  39.928   8.643
  926POPC   C2B14840  11.321  39.791   8.262
  926POPC   C3B14841  11.207  39.751   7.804
  926POPC   C4B14842  11.147  39.680   7.341
  927POPC   NC314843  10.866  28.120   9.430
  927POPC   PO414844  10.178  28.319   9.424
  927POPC   GL114845  10.465  28.448   9.105
  927POPC   GL214846  10.820  28.447   9.036
  927POPC   C1A14847  10.441  28.536   8.700
  927POPC   D2A14848  10.356  28.231   8.419
  927POPC   C3A14849  10.138  28.472   8.138
  927POPC   C4A14850  10.424  28.502   7.818
  927POPC   C1B14851  10.673  28.069   8.818
  927POPC   C2B14852  10.801  27.900   8.459
  927POPC   C3B14853  10.750  28.133   8.094
  927POPC   C4B14854  10.887  28.294   7.722
  928POPC   NC314855  16.476  20.873   9.551
  928POPC   PO414856  16.956  20.445   9.502
  928POPC   GL114857  16.771  20.703   9.184
  928POPC   GL214858  17.061  20.892   9.161
  928POPC   C1A14859  16.527  20.633   8.800
  928POPC   D2A14860  16.642  20.406   8.411
  928POPC   C3A14861  16.559  20.562   7.983
  928POPC   C4A14862  16.792  20.637   7.538
  928POPC   C1B14863  17.061  20.667   8.774
  928POPC   C2B14864  17.014  20.758   8.354
  928POPC   C3B14865  17.087  20.580   7.974
  928POPC   C4B14866  17.237  20.860   7.698
  929POPC   NC314867   0.850  27.452   9.563
  929POPC   PO414868   1.535  27.725   9.524
  929POPC   GL114869   1.267  27.782   9.190
  929POPC   GL214870   1.212  27.412   9.198
  929POPC   C1A14871   1.153  27.682   8.758
  929POPC   D2A14872   1.247  27.510   8.350
  929POPC   C3A14873   1.165  27.656   7.938
  929POPC   C4A14874   1.308  27.586   7.547
  929POPC   C1B14875   0.865  27.277   8.931
  929POPC   C2B14876   0.792  27.391   8.525
  929POPC   C3B14877   0.890  27.234   8.104
  929POPC   C4B14878   1.030  27.146   7.672
  930POPC   NC314879  42.894  19.546   9.434
  930POPC   PO414880  43.291  20.089   9.404
  930POPC   GL114881  43.198  19.830   9.098
  930POPC   GL214882  43.270  19.486   9.109
  930POPC   C1A14883  43.293  19.788   8.692
  930POPC   D2A14884  43.107  19.678   8.359
  930POPC   C3A14885  43.412  19.741   8.115
  930POPC   C4A14886  43.449  20.093   7.877
  930POPC   C1B14887  43.070  19.311   8.741
  930POPC   C2B14888  42.990  19.184   8.309
  930POPC   C3B14889  42.969  19.326   7.878
  930POPC   C4B14890  43.064  19.748   7.736
  931POPC   NC314891  33.499  11.347   9.221
  931POPC   PO414892  33.953  10.942   9.521
  931POPC   GL114893  33.824  10.968   9.117
  931POPC   GL214894  34.013  11.229   9.070
  931POPC   C1A14895  33.742  11.069   8.678
  931POPC   D2A14896  33.616  10.880   8.306
  931POPC   C3A14897  33.709  11.108   7.934
  931POPC   C4A14898  33.508  11.553   7.845
  931POPC   C1B14899  34.201  11.328   8.688
  931POPC   C2B14900  33.988  11.317   8.309
  931POPC   C3B14901  34.016  11.504   7.940
  931POPC   C4B14902  34.280  11.669   7.698
  932POPC   NC314903  37.706  13.972   9.452
  932POPC   PO414904  37.618  14.615   9.637
  932POPC   GL114905  37.723  14.621   9.181
  932POPC   GL214906  37.899  14.290   9.120
  932POPC   C1A14907  37.512  14.411   8.828
  932POPC   D2A14908  37.596  14.219   8.437
  932POPC   C3A14909  37.796  14.447   8.126
  932POPC   C4A14910  37.593  14.333   7.798
  932POPC   C1B14911  38.018  14.347   8.702
  932POPC   C2B14912  38.129  14.166   8.343
  932POPC   C3B14913  37.974  14.007   7.923
  932POPC   C4B14914  37.991  14.252   7.508
  933POPC   NC314915   7.729  22.041   9.482
  933POPC   PO414916   7.024  22.050   9.459
  933POPC   GL114917   7.291  22.173   9.093
  933POPC   GL214918   7.662  22.297   9.054
  933POPC   C1A14919   7.175  22.348   8.682
  933POPC   D2A14920   7.040  22.348   8.238
  933POPC   C3A14921   7.311  22.204   7.913
  933POPC   C4A14922   7.460  22.458   7.571
  933POPC   C1B14923   7.644  21.959   8.789
  933POPC   C2B14924   7.458  22.022   8.403
  933POPC   C3B14925   7.789  22.112   8.136
  933POPC   C4B14926   7.814  22.120   7.712
  934POPC   NC314927  41.179   7.388   9.440
  934POPC   PO414928  40.547   7.477   9.380
  934POPC   GL114929  40.813   7.575   9.083
  934POPC   GL214930  40.504   7.627   8.895
  934POPC   C1A14931  41.131   7.550   8.767
  934POPC   D2A14932  41.101   7.321   8.391
  934POPC   C3A14933  41.015   7.452   7.981
  934POPC   C4A14934  40.954   7.719   7.616
  934POPC   C1B14935  40.658   7.280   8.688
  934POPC   C2B14936  40.597   7.409   8.296
  934POPC   C3B14937  40.519   7.379   7.889
  934POPC   C4B14938  40.785   7.152   7.629
  935POPC   NC314939  10.017   3.964   9.523
  935POPC   PO414940   9.693   4.512   9.409
  935POPC   GL114941   9.864   4.224   9.105
  935POPC   GL214942   9.639   3.958   9.091
  935POPC   C1A14943   9.857   4.309   8.664
  935POPC   D2A14944  10.044   4.448   8.270
  935POPC   C3A14945   9.723   4.521   7.945
  935POPC   C4A14946   9.505   4.804   7.646
  935POPC   C1B14947   9.854   3.808   8.768
  935POPC   C2B14948   9.866   3.917   8.341
  935POPC   C3B14949   9.963   4.063   7.945
  935POPC   C4B14950   9.602   3.918   7.786
  936POPC   NC314951  17.901  16.642   9.577
  936POPC   PO414952  18.599  16.847   9.439
  936POPC   GL114953  18.335  16.907   9.092
  936POPC   GL214954  18.123  16.619   9.099
  936POPC   C1A14955  18.414  16.692   8.681
  936POPC   D2A14956  18.578  16.552   8.268
  936POPC   C3A14957  18.324  16.656   7.903
  936POPC   C4A14958  18.341  16.974   7.558
  936POPC   C1B14959  17.872  16.722   8.707
  936POPC   C2B14960  17.779  16.965   8.333
  936POPC   C3B14961  17.904  16.990   7.884
  936POPC   C4B14962  17.913  16.690   7.546
  937POPC   NC314963  11.797   3.561   9.378
  937POPC   PO414964  12.314   3.896   9.306
  937POPC   GL114965  12.230   3.499   9.038
  937POPC   GL214966  11.942   3.273   8.991
  937POPC   C1A14967  12.126   3.457   8.555
  937POPC   D2A14968  12.157   3.608   8.120
  937POPC   C3A14969  12.133   3.423   7.695
  937POPC   C4A14970  12.129   3.756   7.334
  937POPC   C1B14971  11.758   3.090   8.608
  937POPC   C2B14972  11.825   3.091   8.153
  937POPC   C3B14973  11.674   3.130   7.740
  937POPC   C4B14974  11.876   3.039   7.307
  938POPC   NC314975  44.905  20.474   9.832
  938POPC   PO414976  44.531  21.078   9.561
  938POPC   GL114977  44.708  20.824   9.246
  938POPC   GL214978  44.748  20.469   9.312
  938POPC   C1A14979  44.636  20.785   8.848
  938POPC   D2A14980  44.646  20.580   8.483
  938POPC   C3A14981  44.627  20.833   8.130
  938POPC   C4A14982  44.626  20.560   7.796
  938POPC   C1B14983  44.871  20.326   8.894
  938POPC   C2B14984   0.141  20.359   8.524
  938POPC   C3B14985   0.025  20.497   8.135
  938POPC   C4B14986   0.077  20.258   7.850
  939POPC   NC314987  10.169  39.321   9.511
  939POPC   PO414988   9.469  39.258   9.468
  939POPC   GL114989   9.739  39.212   9.095
  939POPC   GL214990   9.972  39.443   9.060
  939POPC   C1A14991   9.727  39.235   8.664
  939POPC   D2A14992   9.950  39.169   8.295
  939POPC   C3A14993   9.723  39.155   7.929
  939POPC   C4A14994   9.997  38.999   7.635
  939POPC   C1B14995  10.122  39.639   8.730
  939POPC   C2B14996   9.934  39.686   8.370
  939POPC   C3B14997  10.067  39.581   7.995
  939POPC   C4B14998   9.919  39.516   7.613
  940POPC   NC314999  17.572  23.854   9.484
  940POPC   PO415000  17.174  23.370   9.380
  940POPC   GL115001  17.548  23.422   9.159
  940POPC   GL215002  17.499  23.768   9.003
  940POPC   C1A15003  17.791  23.450   8.769
  940POPC   D2A15004  17.536  23.802   8.516
  940POPC   C3A15005  17.610  23.931   8.129
  940POPC   C4A15006  17.583  23.539   7.895
  940POPC   C1B15007  17.191  23.516   8.760
  940POPC   C2B15008  17.008  23.340   8.415
  940POPC   C3B15009  17.071  23.480   7.982
  940POPC   C4B15010  17.220  23.890   7.818
  941POPC   NC315011  27.271  17.834   9.524
  941POPC   PO415012  26.650  17.488   9.585
  941POPC   GL115013  26.872  17.422   9.199
  941POPC   GL215014  26.919  17.759   9.143
  941POPC   C1A15015  26.867  17.417   8.750
  941POPC   D2A15016  26.578  17.278   8.426
  941POPC   C3A15017  26.755  17.500   8.049
  941POPC   C4A15018  26.808  17.267   7.652
  941POPC   C1B15019  26.949  17.958   8.746
  941POPC   C2B15020  27.094  17.865   8.330
  941POPC   C3B15021  27.163  18.070   7.950
  941POPC   C4B15022  27.027  17.804   7.651
  942POPC   NC315023  18.479   5.806   9.416
  942POPC   PO415024  17.980   5.414   9.218
  942POPC   GL115025  18.224   5.689   8.992
  942POPC   GL215026  18.133   6.062   9.102
  942POPC   C1A15027  18.646   5.743   8.777
  942POPC   D2A15028  18.736   5.993   8.418
  942POPC   C3A15029  18.555   5.920   8.033
  942POPC   C4A15030  18.231   5.894   7.705
  942POPC   C1B15031  18.260   6.053   8.653
  942POPC   C2B15032  18.097   5.985   8.270
  942POPC   C3B15033  17.976   6.247   7.965
  942POPC   C4B15034  17.753   6.123   7.655
  943POPC   NC315035  12.401   7.255   9.689
  943POPC   PO415036  13.011   7.516   9.584
  943POPC   GL115037  12.829   7.570   9.225
  943POPC   GL215038  12.636   7.267   9.214
  943POPC   C1A15039  13.012   7.739   8.828
  943POPC   D2A15040  13.293   7.642   8.457
  943POPC   C3A15041  13.156   7.745   8.044
  943POPC   C4A15042  13.127   7.523   7.653
  943POPC   C1B15043  12.833   7.265   8.812
  943POPC   C2B15044  12.977   7.230   8.404
  943POPC   C3B15045  12.819   7.355   8.021
  943POPC   C4B15046  12.552   7.307   7.642
  944POPC   NC315047  13.106  34.433   9.775
  944POPC   PO415048  12.467  34.596   9.543
  944POPC   GL115049  12.789  34.407   9.288
  944POPC   GL215050  13.018  34.661   9.237
  944POPC   C1A15051  12.847  34.437   8.828
  944POPC   D2A15052  12.707  34.354   8.432
  944POPC   C3A15053  12.895  34.557   8.103
  944POPC   C4A15054  12.819  34.502   7.697
  944POPC   C1B15055  13.286  34.716   8.862
  944POPC   C2B15056  13.295  34.502   8.465
  944POPC   C3B15057  13.409  34.680   8.080
  944POPC   C4B15058  13.222  34.813   7.709
  945POPC   NC315059  23.846  19.864   9.513
  945POPC   PO415060  24.017  19.302   9.333
  945POPC   GL115061  23.792  19.667   9.042
  945POPC   GL215062  23.448  19.788   9.210
  945POPC   C1A15063  23.790  19.801   8.592
  945POPC   D2A15064  23.961  19.767   8.175
  945POPC   C3A15065  23.976  20.066   7.842
  945POPC   C4A15066  24.129  20.184   7.378
  945POPC   C1B15067  23.300  19.767   8.826
  945POPC   C2B15068  23.273  19.657   8.433
  945POPC   C3B15069  23.535  19.497   8.127
  945POPC   C4B15070  23.446  19.678   7.725
  946POPC   NC315071   9.881  27.948   9.414
  946POPC   PO415072   9.987  27.277   9.596
  946POPC   GL115073   9.762  27.472   9.230
  946POPC   GL215074   9.454  27.290   9.236
  946POPC   C1A15075   9.866  27.624   8.779
  946POPC   D2A15076   9.864  27.456   8.348
  946POPC   C3A15077   9.947  27.685   7.947
  946POPC   C4A15078  10.283  28.010   7.915
  946POPC   C1B15079   9.469  27.285   8.799
  946POPC   C2B15080   9.345  27.379   8.399
  946POPC   C3B15081   9.524  27.336   7.998
  946POPC   C4B15082   9.326  27.187   7.624
  947POPC   NC315083  10.881  38.267   9.447
  947POPC   PO415084  11.578  38.327   9.604
  947POPC   GL115085  11.334  38.414   9.229
  947POPC   GL215086  11.528  38.654   9.043
  947POPC   C1A15087  11.188  38.333   8.815
  947POPC   D2A15088  10.967  38.514   8.471
  947POPC   C3A15089  11.149  38.487   8.067
  947POPC   C4A15090  11.257  38.376   7.641
  947POPC   C1B15091  11.680  38.237   8.889
  947POPC   C2B15092  11.548  38.111   8.486
  947POPC   C3B15093  11.613  38.292   8.105
  947POPC   C4B15094  11.733  38.212   7.727
  948POPC   NC315095  10.155  41.012   9.936
  948POPC   PO415096  10.171  41.455   9.485
  948POPC   GL115097  10.343  41.430   9.098
  948POPC   GL215098  10.619  41.180   9.215
  948POPC   C1A15099  10.485  41.761   8.783
  948POPC   D2A15100  10.794  41.839   8.469
  948POPC   C3A15101  10.691  41.867   8.039
  948POPC   C4A15102  10.346  41.728   7.761
  948POPC   C1B15103  10.706  41.247   8.786
  948POPC   C2B15104  10.470  41.372   8.445
  948POPC   C3B15105  10.573  41.374   8.053
  948POPC   C4B15106  10.542  41.248   7.640
  949POPC   NC315107  12.143   5.412   9.479
  949POPC   PO415108  11.834   4.744   9.528
  949POPC   GL115109  11.938   5.028   9.233
  949POPC   GL215110  12.275   5.044   9.151
  949POPC   C1A15111  11.939   5.233   8.836
  949POPC   D2A15112  11.808   5.052   8.490
  949POPC   C3A15113  11.933   5.195   8.092
  949POPC   C4A15114  11.704   4.965   7.791
  949POPC   C1B15115  12.457   4.957   8.820
  949POPC   C2B15116  12.311   5.043   8.442
  949POPC   C3B15117  12.448   5.071   8.038
  949POPC   C4B15118  12.218   4.954   7.730
  950POPC   NC315119  32.753  15.674   9.568
  950POPC   PO415120  33.305  16.060   9.526
  950POPC   GL115121  33.430  15.847   9.144
  950POPC   GL215122  33.165  15.607   9.252
  950POPC   C1A15123  33.512  15.937   8.690
  950POPC   D2A15124  33.473  16.183   8.269
  950POPC   C3A15125  33.259  15.940   7.954
  950POPC   C4A15126  32.809  15.887   7.844
  950POPC   C1B15127  33.155  15.561   8.810
  950POPC   C2B15128  32.966  15.518   8.414
  950POPC   C3B15129  33.104  15.446   7.999
  950POPC   C4B15130  33.413  15.512   7.692
  951POPC   NC315131  27.449  13.809   9.704
  951POPC   PO415132  27.723  13.209   9.667
  951POPC   GL115133  27.639  13.417   9.266
  951POPC   GL215134  27.496  13.718   9.180
  951POPC   C1A15135  27.811  13.462   8.833
  951POPC   D2A15136  27.755  13.659   8.406
  951POPC   C3A15137  27.663  13.383   8.071
  951POPC   C4A15138  27.964  13.164   7.858
  951POPC   C1B15139  27.496  13.921   8.775
  951POPC   C2B15140  27.553  14.125   8.340
  951POPC   C3B15141  27.480  13.845   7.971
  951POPC   C4B15142  27.287  13.758   7.563
  952POPC   NC315143  14.969   7.048   9.469
  952POPC   PO415144  15.542   7.467   9.462
  952POPC   GL115145  15.292   7.258   9.133
  952POPC   GL215146  15.539   7.043   9.013
  952POPC   C1A15147  15.111   7.283   8.697
  952POPC   D2A15148  14.957   7.570   8.315
  952POPC   C3A15149  14.933   7.414   7.918
  952POPC   C4A15150  15.297   7.190   7.802
  952POPC   C1B15151  15.618   7.391   8.732
  952POPC   C2B15152  15.490   7.598   8.367
  952POPC   C3B15153  15.386   7.693   7.939
  952POPC   C4B15154  15.463   7.588   7.493
  953POPC   NC315155  23.521  23.041   9.423
  953POPC   PO415156  24.005  23.636   9.456
  953POPC   GL115157  24.004  23.407   9.051
  953POPC   GL215158  23.679  23.304   8.976
  953POPC   C1A15159  24.020  23.088   8.688
  953POPC   D2A15160  23.810  22.688   8.549
  953POPC   C3A15161  23.861  22.650   8.112
  953POPC   C4A15162  23.896  22.967   7.771
  953POPC   C1B15163  23.426  22.992   8.766
  953POPC   C2B15164  23.322  22.796   8.378
  953POPC   C3B15165  23.412  22.855   7.936
  953POPC   C4B15166  23.447  22.989   7.515
  954POPC   NC315167  31.579   2.062   9.826
  954POPC   PO415168  30.977   1.790   9.604
  954POPC   GL115169  31.234   2.075   9.266
  954POPC   GL215170  31.546   2.017   9.213
  954POPC   C1A15171  31.350   2.204   8.803
  954POPC   D2A15172  31.434   1.968   8.418
  954POPC   C3A15173  31.664   2.138   8.065
  954POPC   C4A15174  31.385   2.204   7.765
  954POPC   C1B15175  31.746   1.843   8.824
  954POPC   C2B15176  31.923   1.837   8.401
  954POPC   C3B15177  31.786   1.632   8.040
  954POPC   C4B15178  31.473   1.682   7.755
  955POPC   NC315179  18.753  44.258   9.648
  955POPC   PO415180  18.320  43.775   9.673
  955POPC   GL115181  18.258  43.666   9.242
  955POPC   GL215182  18.570  43.799   9.174
  955POPC   C1A15183  18.388  43.511   8.799
  955POPC   D2A15184  18.680  43.513   8.459
  955POPC   C3A15185  18.468  43.475   8.059
  955POPC   C4A15186  18.414  43.247   7.657
  955POPC   C1B15187  18.596  43.970   8.761
  955POPC   C2B15188  18.365  43.869   8.375
  955POPC   C3B15189  18.440  43.927   7.869
  955POPC   C4B15190  18.085  44.083   7.596
  956POPC   NC315191  36.743  38.312   9.472
  956POPC   PO415192  37.040  38.940   9.499
  956POPC   GL115193  36.806  38.718   9.203
  956POPC   GL215194  37.069  38.527   9.091
  956POPC   C1A15195  36.673  38.460   8.801
  956POPC   D2A15196  36.485  38.437   8.401
  956POPC   C3A15197  36.620  38.626   8.027
  956POPC   C4A15198  36.777  38.419   7.696
  956POPC   C1B15199  37.185  38.439   8.671
  956POPC   C2B15200  37.011  38.337   8.247
  956POPC   C3B15201  37.192  38.600   7.905
  956POPC   C4B15202  37.284  38.674   7.439
  957POPC   NC315203   9.026   3.537   9.575
  957POPC   PO415204   9.042   2.934   9.507
  957POPC   GL115205   8.996   3.188   9.157
  957POPC   GL215206   8.785   3.452   9.101
  957POPC   C1A15207   9.110   3.180   8.726
  957POPC   D2A15208   9.118   3.463   8.387
  957POPC   C3A15209   9.011   3.354   8.002
  957POPC   C4A15210   9.238   3.502   7.670
  957POPC   C1B15211   8.840   3.695   8.746
  957POPC   C2B15212   8.803   3.892   8.349
  957POPC   C3B15213   8.655   3.746   7.923
  957POPC   C4B15214   8.583   3.327   7.724
  958POPC   NC315215  26.951   9.554   9.817
  958POPC   PO415216  27.332   9.850   9.442
  958POPC   GL115217  27.185   9.759   9.075
  958POPC   GL215218  27.052   9.468   9.078
  958POPC   C1A15219  26.863   9.857   8.774
  958POPC   D2A15220  26.687   9.721   8.392
  958POPC   C3A15221  26.707   9.933   8.023
  958POPC   C4A15222  26.353  10.058   7.784
  958POPC   C1B15223  27.192   9.488   8.625
  958POPC   C2B15224  27.114   9.551   8.169
  958POPC   C3B15225  27.031   9.511   7.714
  958POPC   C4B15226  27.243   9.559   7.313
  959POPC   NC315227  14.863  20.999   9.433
  959POPC   PO415228  15.157  20.358   9.465
  959POPC   GL115229  15.273  20.372   9.088
  959POPC   GL215230  15.178  20.695   9.051
  959POPC   C1A15231  15.231  20.319   8.672
  959POPC   D2A15232  15.173  20.611   8.390
  959POPC   C3A15233  15.001  20.414   8.089
  959POPC   C4A15234  15.007  20.419   7.722
  959POPC   C1B15235  15.514  20.775   8.732
  959POPC   C2B15236  15.609  20.884   8.298
  959POPC   C3B15237  15.301  20.829   7.952
  959POPC   C4B15238  15.234  21.101   7.635
  960POPC   NC315239  17.900  11.282   9.479
  960POPC   PO415240  17.311  11.093   9.412
  960POPC   GL115241  17.339  11.233   8.995
  960POPC   GL215242  17.615  11.471   9.032
  960POPC   C1A15243  17.102  11.106   8.610
  960POPC   D2A15244  17.137  11.032   8.155
  960POPC   C3A15245  17.600  10.975   7.960
  960POPC   C4A15246  17.806  11.068   7.517
  960POPC   C1B15247  17.504  11.494   8.589
  960POPC   C2B15248  17.719  11.656   8.226
  960POPC   C3B15249  17.697  11.453   7.859
  960POPC   C4B15250  17.277  11.299   7.741
  961POPC   NC315251  22.039  33.365   9.467
  961POPC   PO415252  22.225  32.630   9.481
  961POPC   GL115253  22.117  32.955   9.155
  961POPC   GL215254  21.753  33.080   9.084
  961POPC   C1A15255  22.125  33.146   8.742
  961POPC   D2A15256  22.357  33.249   8.388
  961POPC   C3A15257  22.294  33.132   7.962
  961POPC   C4A15258  22.220  33.265   7.525
  961POPC   C1B15259  21.856  32.703   8.782
  961POPC   C2B15260  21.778  32.626   8.312
  961POPC   C3B15261  21.797  32.841   7.911
  961POPC   C4B15262  21.546  32.737   7.529
  962POPC   NC315263  32.210  20.071   9.756
  962POPC   PO415264  32.583  19.660   9.533
  962POPC   GL115265  32.332  19.998   9.273
  962POPC   GL215266  31.967  19.980   9.191
  962POPC   C1A15267  32.360  20.013   8.837
  962POPC   D2A15268  32.595  19.855   8.501
  962POPC   C3A15269  32.328  19.768   8.155
  962POPC   C4A15270  32.391  19.625   7.739
  962POPC   C1B15271  31.859  20.083   8.706
  962POPC   C2B15272  31.937  20.111   8.236
  962POPC   C3B15273  31.957  19.905   7.813
  962POPC   C4B15274  32.019  19.705   7.397
  963POPC   NC315275  26.554  15.470   9.472
  963POPC   PO415276  25.996  15.908   9.570
  963POPC   GL115277  26.100  15.944   9.156
  963POPC   GL215278  26.179  15.624   9.171
  963POPC   C1A15279  26.126  16.092   8.720
  963POPC   D2A15280  25.944  15.966   8.322
  963POPC   C3A15281  26.165  15.952   7.933
  963POPC   C4A15282  26.054  15.973   7.492
  963POPC   C1B15283  26.361  15.642   8.790
  963POPC   C2B15284  26.327  15.628   8.390
  963POPC   C3B15285  26.237  15.444   8.027
  963POPC   C4B15286  26.337  15.554   7.633
  964POPC   NC315287  33.089  28.877   9.567
  964POPC   PO415288  33.266  29.588   9.620
  964POPC   GL115289  33.140  29.310   9.299
  964POPC   GL215290  33.427  29.477   9.155
  964POPC   C1A15291  32.864  29.092   8.961
  964POPC   D2A15292  33.023  28.868   8.587
  964POPC   C3A15293  32.912  28.924   8.128
  964POPC   C4A15294  32.698  29.107   7.761
  964POPC   C1B15295  33.387  29.171   8.847
  964POPC   C2B15296  33.301  29.305   8.450
  964POPC   C3B15297  33.362  29.209   8.060
  964POPC   C4B15298  33.386  29.457   7.685
  965POPC   NC315299  27.410  25.442   9.794
  965POPC   PO415300  27.217  24.936   9.393
  965POPC   GL115301  27.349  24.969   9.014
  965POPC   GL215302  27.666  25.120   8.984
  965POPC   C1A15303  27.330  25.065   8.585
  965POPC   D2A15304  27.591  24.937   8.284
  965POPC   C3A15305  27.359  25.069   7.970
  965POPC   C4A15306  27.578  25.294   7.680
  965POPC   C1B15307  27.640  25.448   8.650
  965POPC   C2B15308  27.559  25.469   8.217
  965POPC   C3B15309  27.888  25.627   7.959
  965POPC   C4B15310  28.064  25.454   7.596
  966POPC   NC315311  32.288  36.240   9.296
  966POPC   PO415312  32.859  36.077   9.676
  966POPC   GL115313  32.963  36.233   9.247
  966POPC   GL215314  32.708  36.229   8.992
  966POPC   C1A15315  33.186  36.351   8.837
  966POPC   D2A15316  33.193  36.442   8.383
  966POPC   C3A15317  32.913  36.350   8.021
  966POPC   C4A15318  33.080  36.243   7.616
  966POPC   C1B15319  32.925  35.924   8.679
  966POPC   C2B15320  33.016  35.834   8.220
  966POPC   C3B15321  33.106  35.756   7.767
  966POPC   C4B15322  33.081  35.795   7.300
  967POPC   NC315323   0.838  43.309   9.946
  967POPC   PO415324   0.418  42.863   9.622
  967POPC   GL115325   0.354  42.966   9.174
  967POPC   GL215326   0.380  43.294   9.105
  967POPC   C1A15327   0.519  42.932   8.758
  967POPC   D2A15328   0.623  43.166   8.388
  967POPC   C3A15329   0.528  42.977   7.990
  967POPC   C4A15330   0.165  42.865   7.758
  967POPC   C1B15331   0.229  43.385   8.675
  967POPC   C2B15332   0.379  43.614   8.290
  967POPC   C3B15333   0.328  43.555   7.847
  967POPC   C4B15334   0.588  43.342   7.553
  968POPC   NC315335  22.988  21.582   9.563
  968POPC   PO415336  22.363  21.315   9.638
  968POPC   GL115337  22.636  21.264   9.262
  968POPC   GL215338  23.015  21.271   9.168
  968POPC   C1A15339  22.677  21.068   8.862
  968POPC   D2A15340  22.560  21.095   8.466
  968POPC   C3A15341  22.816  21.305   8.183
  968POPC   C4A15342  22.781  21.319   7.738
  968POPC   C1B15343  22.903  21.532   8.775
  968POPC   C2B15344  22.662  21.768   8.428
  968POPC   C3B15345  22.782  21.775   7.995
  968POPC   C4B15346  23.187  21.639   7.838
  969POPC   NC315347   4.145  32.763   9.339
  969POPC   PO415348   4.374  33.387   9.504
  969POPC   GL115349   4.357  33.203   9.118
  969POPC   GL215350   3.971  33.231   9.117
  969POPC   C1A15351   4.513  32.932   8.766
  969POPC   D2A15352   4.661  33.106   8.358
  969POPC   C3A15353   4.488  32.896   8.000
  969POPC   C4A15354   4.510  32.901   7.547
  969POPC   C1B15355   4.093  33.219   8.674
  969POPC   C2B15356   4.175  33.220   8.254
  969POPC   C3B15357   4.405  33.378   7.913
  969POPC   C4B15358   4.325  33.354   7.487
  970POPC   NC315359  17.794  27.069   9.473
  970POPC   PO415360  17.173  27.132   9.526
  970POPC   GL115361  17.396  26.869   9.181
  970POPC   GL215362  17.772  26.822   9.048
  970POPC   C1A15363  17.389  26.782   8.727
  970POPC   D2A15364  17.559  26.895   8.339
  970POPC   C3A15365  17.360  26.658   8.072
  970POPC   C4A15366  17.131  26.919   7.861
  970POPC   C1B15367  17.753  27.186   8.785
  970POPC   C2B15368  17.985  27.339   8.452
  970POPC   C3B15369  17.990  27.139   8.056
  970POPC   C4B15370  17.660  26.967   7.816
  971POPC   NC315371  14.220  24.917   9.571
  971POPC   PO415372  13.780  25.389   9.445
  971POPC   GL115373  14.119  25.258   9.091
  971POPC   GL215374  14.357  24.961   9.082
  971POPC   C1A15375  14.417  25.397   8.746
  971POPC   D2A15376  14.609  25.636   8.362
  971POPC   C3A15377  14.558  25.418   7.942
  971POPC   C4A15378  14.412  25.236   7.540
  971POPC   C1B15379  14.203  24.935   8.656
  971POPC   C2B15380  14.405  25.083   8.305
  971POPC   C3B15381  14.494  24.880   7.915
  971POPC   C4B15382  14.523  24.744   7.447
  972POPC   NC315383  29.443  34.356   9.545
  972POPC   PO415384  28.992  34.902   9.574
  972POPC   GL115385  29.184  34.732   9.164
  972POPC   GL215386  29.171  34.408   9.121
  972POPC   C1A15387  29.079  34.617   8.682
  972POPC   D2A15388  28.877  34.405   8.325
  972POPC   C3A15389  28.950  34.655   7.972
  972POPC   C4A15390  29.046  34.546   7.562
  972POPC   C1B15391  29.380  34.199   8.794
  972POPC   C2B15392  29.414  34.336   8.373
  972POPC   C3B15393  29.275  34.231   7.949
  972POPC   C4B15394  29.538  34.374   7.590
  973POPC   NC315395  30.006  35.179   9.474
  973POPC   PO415396  29.544  35.608   9.671
  973POPC   GL115397  29.669  35.481   9.215
  973POPC   GL215398  30.033  35.593   9.154
  973POPC   C1A15399  29.752  35.168   8.837
  973POPC   D2A15400  29.970  35.141   8.415
  973POPC   C3A15401  29.753  35.112   8.031
  973POPC   C4A15402  29.567  35.388   7.747
  973POPC   C1B15403  29.933  35.622   8.721
  973POPC   C2B15404  29.908  35.910   8.406
  973POPC   C3B15405  30.051  35.904   8.014
  973POPC   C4B15406  30.057  35.493   7.868
  974POPC   NC315407  28.913  23.653   9.460
  974POPC   PO415408  29.615  23.799   9.510
  974POPC   GL115409  29.340  23.870   9.162
  974POPC   GL215410  29.369  23.518   9.096
  974POPC   C1A15411  29.203  24.040   8.743
  974POPC   D2A15412  29.140  23.949   8.287
  974POPC   C3A15413  29.386  23.603   8.116
  974POPC   C4A15414  29.233  23.386   7.768
  974POPC   C1B15415  29.030  23.543   8.806
  974POPC   C2B15416  28.997  23.434   8.391
  974POPC   C3B15417  28.817  23.514   8.003
  974POPC   C4B15418  28.590  23.859   7.899
  975POPC   NC315419  34.579  39.606   9.554
  975POPC   PO415420  34.190  40.196   9.567
  975POPC   GL115421  34.336  39.908   9.195
  975POPC   GL215422  34.710  39.818   9.113
  975POPC   C1A15423  34.291  39.885   8.741
  975POPC   D2A15424  34.043  40.141   8.440
  975POPC   C3A15425  34.228  40.323   8.073
  975POPC   C4A15426  34.411  40.213   7.704
  975POPC   C1B15427  34.831  39.827   8.698
  975POPC   C2B15428  34.600  39.726   8.327
  975POPC   C3B15429  34.363  39.755   7.907
  975POPC   C4B15430  34.557  39.738   7.466
  976POPC   NC315431  43.392  32.274   9.515
  976POPC   PO415432  42.788  32.091   9.540
  976POPC   GL115433  43.028  32.036   9.190
  976POPC   GL215434  43.355  31.881   9.149
  976POPC   C1A15435  42.901  32.069   8.784
  976POPC   D2A15436  43.027  32.343   8.468
  976POPC   C3A15437  43.032  32.079   8.116
  976POPC   C4A15438  43.043  32.201   7.710
  976POPC   C1B15439  43.379  32.260   8.869
  976POPC   C2B15440  43.529  32.478   8.491
  976POPC   C3B15441  43.389  32.438   8.089
  976POPC   C4B15442  43.538  32.369   7.715
  977POPC   NC315443  12.360  30.530   9.539
  977POPC   PO415444  11.835  30.947   9.429
  977POPC   GL115445  12.142  30.877   9.144
  977POPC   GL215446  12.129  30.581   9.096
  977POPC   C1A15447  12.000  30.892   8.708
  977POPC   D2A15448  12.111  30.921   8.311
  977POPC   C3A15449  11.810  30.946   7.996
  977POPC   C4A15450  12.058  31.053   7.682
  977POPC   C1B15451  11.758  30.479   8.842
  977POPC   C2B15452  11.780  30.317   8.449
  977POPC   C3B15453  11.986  30.459   8.087
  977POPC   C4B15454  11.927  30.575   7.642
  978POPC   NC315455  26.799  44.162   9.756
  978POPC   PO415456  26.426  43.760   9.352
  978POPC   GL115457  26.833  43.839   9.177
  978POPC   GL215458  27.023  43.534   9.283
  978POPC   C1A15459  26.826  43.989   8.731
  978POPC   D2A15460  26.720  43.888   8.291
  978POPC   C3A15461  26.600  44.136   7.958
  978POPC   C4A15462  26.451  44.035   7.560
  978POPC   C1B15463  26.952  43.467   8.846
  978POPC   C2B15464  27.125  43.634   8.470
  978POPC   C3B15465  27.019  43.534   8.073
  978POPC   C4B15466  26.804  43.720   7.760
  979POPC   NC315467  25.229  26.678   9.607
  979POPC   PO415468  24.827  27.159   9.382
  979POPC   GL115469  25.139  26.902   9.157
  979POPC   GL215470  25.501  26.882   9.218
  979POPC   C1A15471  25.134  26.766   8.742
  979POPC   D2A15472  24.992  26.493   8.417
  979POPC   C3A15473  25.155  26.733   8.113
  979POPC   C4A15474  25.221  27.108   7.852
  979POPC   C1B15475  25.631  26.634   8.873
  979POPC   C2B15476  25.757  26.768   8.456
  979POPC   C3B15477  25.643  26.792   8.032
  979POPC   C4B15478  25.429  26.655   7.684
  980POPC   NC315479  18.187  10.328   9.390
  980POPC   PO415480  18.406   9.668   9.526
  980POPC   GL115481  18.296   9.679   9.142
  980POPC   GL215482  18.069   9.896   9.184
  980POPC   C1A15483  18.455   9.914   8.811
  980POPC   D2A15484  18.403   9.847   8.406
  980POPC   C3A15485  18.498  10.057   8.058
  980POPC   C4A15486  18.385   9.835   7.694
  980POPC   C1B15487  17.932   9.849   8.775
  980POPC   C2B15488  17.947  10.089   8.405
  980POPC   C3B15489  17.992   9.833   8.043
  980POPC   C4B15490  17.721   9.764   7.685
  981POPC   NC315491  25.411  40.662   9.700
  981POPC   PO415492  25.513  41.289   9.776
  981POPC   GL115493  25.514  41.011   9.343
  981POPC   GL215494  25.251  40.735   9.227
  981POPC   C1A15495  25.561  40.934   8.861
  981POPC   D2A15496  25.620  40.687   8.450
  981POPC   C3A15497  25.529  40.882   8.032
  981POPC   C4A15498  25.132  40.845   7.779
  981POPC   C1B15499  25.190  40.569   8.810
  981POPC   C2B15500  24.974  40.412   8.420
  981POPC   C3B15501  25.182  40.389   8.003
  981POPC   C4B15502  25.330  40.385   7.553
  982POPC   NC315503  39.484  37.473   9.366
  982POPC   PO415504  39.980  37.959   9.487
  982POPC   GL115505  40.021  37.852   9.082
  982POPC   GL215506  39.901  37.546   9.103
  982POPC   C1A15507  39.776  37.800   8.692
  982POPC   D2A15508  39.717  38.078   8.349
  982POPC   C3A15509  39.962  37.949   8.001
  982POPC   C4A15510  39.910  38.048   7.602
  982POPC   C1B15511  40.226  37.460   8.791
  982POPC   C2B15512  40.176  37.297   8.379
  982POPC   C3B15513  39.938  37.360   7.990
  982POPC   C4B15514  40.301  37.350   7.747
  983POPC   NC315515  17.160  11.536   9.378
  983POPC   PO415516  16.506  11.535   9.388
  983POPC   GL115517  16.761  11.506   9.061
  983POPC   GL215518  16.829  11.164   9.082
  983POPC   C1A15519  16.984  11.599   8.681
  983POPC   D2A15520  17.093  11.517   8.239
  983POPC   C3A15521  16.785  11.383   7.899
  983POPC   C4A15522  16.665  11.567   7.489
  983POPC   C1B15523  16.527  11.211   8.723
  983POPC   C2B15524  16.615  11.088   8.313
  983POPC   C3B15525  16.415  10.982   7.941
  983POPC   C4B15526  16.417  11.129   7.515
  984POPC   NC315527  29.854  41.082   9.690
  984POPC   PO415528  30.210  40.599   9.655
  984POPC   GL115529  29.969  40.787   9.262
  984POPC   GL215530  30.040  41.129   9.164
  984POPC   C1A15531  29.648  40.708   8.890
  984POPC   D2A15532  29.711  40.425   8.518
  984POPC   C3A15533  29.716  40.633   8.097
  984POPC   C4A15534  30.049  40.862   7.848
  984POPC   C1B15535  30.122  40.833   8.782
  984POPC   C2B15536  30.137  40.904   8.349
  984POPC   C3B15537  30.238  41.276   8.082
  984POPC   C4B15538  30.382  41.319   7.677
  985POPC   NC315539  37.286  36.854   9.531
  985POPC   PO415540  36.745  37.152   9.365
  985POPC   GL115541  37.082  37.084   9.103
  985POPC   GL215542  37.054  36.715   9.088
  985POPC   C1A15543  37.114  37.084   8.651
  985POPC   D2A15544  37.025  36.760   8.315
  985POPC   C3A15545  36.875  36.950   7.929
  985POPC   C4A15546  37.159  37.268   7.751
  985POPC   C1B15547  36.928  36.452   8.747
  985POPC   C2B15548  37.092  36.240   8.393
  985POPC   C3B15549  36.977  36.341   7.978
  985POPC   C4B15550  36.778  36.533   7.604
  986POPC   NC315551  36.409  17.478   9.605
  986POPC   PO415552  36.032  18.021   9.628
  986POPC   GL115553  36.343  17.876   9.257
  986POPC   GL215554  36.538  17.551   9.138
  986POPC   C1A15555  36.139  17.716   8.861
  986POPC   D2A15556  35.938  17.571   8.476
  986POPC   C3A15557  36.001  17.806   8.101
  986POPC   C4A15558  35.955  17.648   7.695
  986POPC   C1B15559  36.330  17.239   8.861
  986POPC   C2B15560  36.359  17.270   8.426
  986POPC   C3B15561  36.148  17.294   8.030
  986POPC   C4B15562  36.257  17.106   7.614
  987POPC   NC315563  12.555  26.699   9.454
  987POPC   PO415564  12.922  27.119   9.446
  987POPC   GL115565  12.968  26.809   9.136
  987POPC   GL215566  13.340  26.695   9.159
  987POPC   C1A15567  12.732  26.817   8.749
  987POPC   D2A15568  12.821  26.861   8.314
  987POPC   C3A15569  12.531  27.075   8.066
  987POPC   C4A15570  12.436  26.832   7.708
  987POPC   C1B15571  13.259  26.737   8.714
  987POPC   C2B15572  13.066  26.450   8.426
  987POPC   C3B15573  13.026  26.489   7.989
  987POPC   C4B15574  12.964  26.877   7.807
  988POPC   NC315575  37.119   0.852   9.475
  988POPC   PO415576  37.830   1.066   9.543
  988POPC   GL115577  37.721   1.157   9.146
  988POPC   GL215578  37.808   0.820   9.067
  988POPC   C1A15579  37.887   1.471   8.843
  988POPC   D2A15580  38.018   1.556   8.440
  988POPC   C3A15581  37.861   1.212   8.199
  988POPC   C4A15582  37.969   1.263   7.809
  988POPC   C1B15583  37.690   1.014   8.665
  988POPC   C2B15584  37.418   0.899   8.360
  988POPC   C3B15585  37.257   1.016   7.977
  988POPC   C4B15586  37.518   1.150   7.655
  989POPC   NC315587  32.148  20.899   9.663
  989POPC   PO415588  32.510  21.545   9.592
  989POPC   GL115589  32.483  21.501   9.161
  989POPC   GL215590  32.679  21.764   9.096
  989POPC   C1A15591  32.160  21.367   8.807
  989POPC   D2A15592  32.027  21.544   8.423
  989POPC   C3A15593  32.288  21.472   8.096
  989POPC   C4A15594  32.244  21.631   7.670
  989POPC   C1B15595  32.669  21.408   8.721
  989POPC   C2B15596  32.446  21.086   8.453
  989POPC   C3B15597  32.605  20.997   8.033
  989POPC   C4B15598  32.670  21.316   7.751
  990POPC   NC315599  13.608  39.871   9.607
  990POPC   PO415600  13.270  40.421   9.534
  990POPC   GL115601  13.467  40.134   9.194
  990POPC   GL215602  13.765  39.923   9.140
  990POPC   C1A15603  13.632  40.254   8.781
  990POPC   D2A15604  13.443  40.211   8.402
  990POPC   C3A15605  13.685  40.310   8.062
  990POPC   C4A15606  13.510  40.246   7.710
  990POPC   C1B15607  13.860  39.763   8.754
  990POPC   C2B15608  13.893  39.938   8.351
  990POPC   C3B15609  13.700  39.798   7.941
  990POPC   C4B15610  13.730  39.840   7.472
  991POPC   NC315611  21.142  13.874   9.687
  991POPC   PO415612  21.446  13.238   9.538
  991POPC   GL115613  21.311  13.541   9.211
  991POPC   GL215614  21.055  13.854   9.195
  991POPC   C1A15615  21.429  13.763   8.823
  991POPC   D2A15616  21.600  13.643   8.417
  991POPC   C3A15617  21.581  13.878   8.023
  991POPC   C4A15618  21.448  13.718   7.636
  991POPC   C1B15619  20.938  13.595   8.861
  991POPC   C2B15620  21.089  13.634   8.454
  991POPC   C3B15621  21.205  13.543   8.047
  991POPC   C4B15622  20.968  13.711   7.681
  992POPC   NC315623  25.913  27.687   9.705
  992POPC   PO415624  26.413  27.294   9.740
  992POPC   GL115625  26.230  27.517   9.299
  992POPC   GL215626  25.859  27.588   9.218
  992POPC   C1A15627  26.184  27.764   8.863
  992POPC   D2A15628  26.533  27.865   8.517
  992POPC   C3A15629  26.472  27.832   8.076
  992POPC   C4A15630  26.210  27.791   7.731
  992POPC   C1B15631  25.707  27.490   8.818
  992POPC   C2B15632  25.634  27.469   8.380
  992POPC   C3B15633  25.837  27.739   8.102
  992POPC   C4B15634  25.660  28.008   7.822
  993POPC   NC315635  18.882  18.281   9.502
  993POPC   PO415636  19.480  18.003   9.253
  993POPC   GL115637  19.198  18.314   9.087
  993POPC   GL215638  19.371  18.634   9.157
  993POPC   C1A15639  18.875  18.273   8.747
  993POPC   D2A15640  18.928  18.481   8.304
  993POPC   C3A15641  18.821  18.404   7.843
  993POPC   C4A15642  18.987  18.398   7.382
  993POPC   C1B15643  19.081  18.749   8.791
  993POPC   C2B15644  19.196  18.966   8.445
  993POPC   C3B15645  19.397  18.706   8.174
  993POPC   C4B15646  19.292  18.533   7.812
  994POPC   NC315647  36.559  12.834   9.419
  994POPC   PO415648  37.187  12.898   9.328
  994POPC   GL115649  36.971  12.675   9.026
  994POPC   GL215650  36.635  12.599   8.978
  994POPC   C1A15651  36.960  12.781   8.613
  994POPC   D2A15652  37.150  12.936   8.254
  994POPC   C3A15653  36.946  12.708   7.944
  994POPC   C4A15654  37.045  12.948   7.608
  994POPC   C1B15655  36.523  12.987   8.759
  994POPC   C2B15656  36.670  13.110   8.355
  994POPC   C3B15657  36.630  13.094   7.920
  994POPC   C4B15658  36.579  12.741   7.595
  995POPC   NC315659  36.516  16.576   9.356
  995POPC   PO415660  37.211  16.647   9.518
  995POPC   GL115661  37.065  16.621   9.140
  995POPC   GL215662  37.309  16.364   9.049
  995POPC   C1A15663  36.804  16.802   8.804
  995POPC   D2A15664  36.803  16.976   8.390
  995POPC   C3A15665  36.900  16.737   8.043
  995POPC   C4A15666  36.730  16.939   7.686
  995POPC   C1B15667  37.064  16.378   8.667
  995POPC   C2B15668  36.653  16.435   8.462
  995POPC   C3B15669  36.572  16.323   8.048
  995POPC   C4B15670  36.786  16.427   7.648
  996POPC   NC315671   6.061  39.572   9.840
  996POPC   PO415672   5.577  39.238   9.458
  996POPC   GL115673   5.842  39.213   9.104
  996POPC   GL215674   6.194  39.202   9.174
  996POPC   C1A15675   5.904  39.433   8.706
  996POPC   D2A15676   5.650  39.319   8.379
  996POPC   C3A15677   5.797  39.316   7.980
  996POPC   C4A15678   5.553  39.526   7.693
  996POPC   C1B15679   6.186  39.005   8.769
  996POPC   C2B15680   6.072  39.031   8.338
  996POPC   C3B15681   6.136  38.931   7.897
  996POPC   C4B15682   6.101  38.838   7.452
  997POPC   NC315683  31.894  35.332   9.437
  997POPC   PO415684  31.335  35.668   9.638
  997POPC   GL115685  31.504  35.637   9.221
  997POPC   GL215686  31.473  35.936   9.050
  997POPC   C1A15687  31.518  35.418   8.821
  997POPC   D2A15688  31.227  35.192   8.497
  997POPC   C3A15689  31.403  35.119   8.088
  997POPC   C4A15690  31.564  35.244   7.687
  997POPC   C1B15691  31.656  35.901   8.660
  997POPC   C2B15692  31.535  35.604   8.347
  997POPC   C3B15693  31.440  35.646   7.951
  997POPC   C4B15694  31.759  35.769   7.688
  998POPC   NC315695  26.411  30.152   9.419
  998POPC   PO415696  25.896  29.729   9.559
  998POPC   GL115697  26.079  29.710   9.162
  998POPC   GL215698  25.983  30.032   9.157
  998POPC   C1A15699  25.866  29.664   8.759
  998POPC   D2A15700  25.885  29.506   8.343
  998POPC   C3A15701  25.969  29.763   7.983
  998POPC   C4A15702  26.154  29.621   7.657
  998POPC   C1B15703  26.118  30.123   8.781
  998POPC   C2B15704  25.981  30.075   8.385
  998POPC   C3B15705  25.919  30.268   7.981
  998POPC   C4B15706  26.133  30.152   7.645
  999POPC   NC315707  16.374  43.156   9.649
  999POPC   PO415708  15.832  42.830   9.540
  999POPC   GL115709  15.788  43.047   9.106
  999POPC   GL215710  15.714  43.409   9.134
  999POPC   C1A15711  15.717  42.938   8.648
  999POPC   D2A15712  15.889  42.771   8.239
  999POPC   C3A15713  15.727  42.654   7.831
  999POPC   C4A15714  15.924  42.784   7.420
  999POPC   C1B15715  15.938  43.434   8.717
  999POPC   C2B15716  15.865  43.279   8.282
  999POPC   C3B15717  15.975  43.097   7.843
  999POPC   C4B15718  16.079  43.276   7.439
 1000POPC   NC315719  14.561   0.555   9.434
 1000POPC   PO415720  13.913   0.326   9.355
 1000POPC   GL115721  14.199   0.440   9.057
 1000POPC   GL215722  14.282   0.770   9.046
 1000POPC   C1A15723  14.562   0.381   8.781
 1000POPC   D2A15724  14.769   0.087   8.492
 1000POPC   C3A15725  14.463  44.970   8.166
 1000POPC   C4A15726  14.192   0.195   7.865
 1000POPC   C1B15727  14.280   0.999   8.647
 1000POPC   C2B15728  14.023   0.894   8.250
 1000POPC   C3B15729  14.203   0.705   7.888
 1000POPC   C4B15730  14.610   0.680   7.696
 1001POPC   NC315731  42.400  24.158   9.415
 1001POPC   PO415732  42.293  24.779   9.476
 1001POPC   GL115733  42.113  24.596   9.094
 1001POPC   GL215734  42.251  24.280   8.946
 1001POPC   C1A15735  42.029  24.609   8.640
 1001POPC   D2A15736  42.343  24.532   8.364
 1001POPC   C3A15737  42.298  24.200   8.136
 1001POPC   C4A15738  42.109  24.426   7.823
 1001POPC   C1B15739  42.629  24.223   8.706
 1001POPC   C2B15740  42.934  24.350   8.406
 1001POPC   C3B15741  42.784  24.362   7.967
 1001POPC   C4B15742  42.507  24.168   7.650
 1002POPC   NC315743  30.535  20.501   9.461
 1002POPC   PO415744  31.116  20.737   9.385
 1002POPC   GL115745  30.806  20.790   9.025
 1002POPC   GL215746  30.529  20.550   8.955
 1002POPC   C1A15747  30.705  20.814   8.558
 1002POPC   D2A15748  30.518  20.431   8.345
 1002POPC   C3A15749  30.441  20.515   7.908
 1002POPC   C4A15750  30.739  20.722   7.659
 1002POPC   C1B15751  30.906  20.381   8.714
 1002POPC   C2B15752  30.966  20.127   8.363
 1002POPC   C3B15753  31.070  20.239   7.976
 1002POPC   C4B15754  30.874  20.254   7.640
 1003POPC   NC315755   0.630  12.590   9.389
 1003POPC   PO415756   1.228  12.960   9.546
 1003POPC   GL115757   1.237  13.178   9.146
 1003POPC   GL215758   0.986  12.945   9.072
 1003POPC   C1A15759   1.326  13.040   8.710
 1003POPC   D2A15760   1.187  12.736   8.403
 1003POPC   C3A15761   1.402  12.768   8.062
 1003POPC   C4A15762   1.410  13.142   7.874
 1003POPC   C1B15763   0.677  12.897   8.748
 1003POPC   C2B15764   0.658  12.712   8.423
 1003POPC   C3B15765   0.765  12.835   8.069
 1003POPC   C4B15766   1.016  12.688   7.772
 1004POPC   NC315767  35.137   8.877   9.426
 1004POPC   PO415768  35.480   9.494   9.553
 1004POPC   GL115769  35.537   9.253   9.181
 1004POPC   GL215770  35.668   8.905   9.159
 1004POPC   C1A15771  35.554   9.324   8.751
 1004POPC   D2A15772  35.318   9.224   8.396
 1004POPC   C3A15773  35.486   9.189   7.978
 1004POPC   C4A15774  35.126   9.154   7.676
 1004POPC   C1B15775  35.391   8.822   8.791
 1004POPC   C2B15776  35.301   8.710   8.357
 1004POPC   C3B15777  35.242   8.736   7.929
 1004POPC   C4B15778  35.578   8.804   7.593
 1005POPC   NC315779  25.822  13.079   9.373
 1005POPC   PO415780  26.193  12.683   9.739
 1005POPC   GL115781  26.183  12.796   9.211
 1005POPC   GL215782  25.886  12.702   9.049
 1005POPC   C1A15783  26.099  13.059   8.792
 1005POPC   D2A15784  25.905  12.897   8.417
 1005POPC   C3A15785  26.097  13.001   8.038
 1005POPC   C4A15786  25.939  12.957   7.661
 1005POPC   C1B15787  26.109  12.507   8.758
 1005POPC   C2B15788  25.948  12.386   8.409
 1005POPC   C3B15789  25.902  12.529   8.012
 1005POPC   C4B15790  26.257  12.567   7.778
 1006POPC   NC315791  32.779   1.412   9.484
 1006POPC   PO415792  33.177   0.903   9.509
 1006POPC   GL115793  33.167   1.189   9.177
 1006POPC   GL215794  33.428   1.105   8.968
 1006POPC   C1A15795  33.063   1.422   8.806
 1006POPC   D2A15796  32.869   1.497   8.425
 1006POPC   C3A15797  33.049   1.369   8.043
 1006POPC   C4A15798  32.907   1.567   7.708
 1006POPC   C1B15799  33.126   0.872   8.748
 1006POPC   C2B15800  32.924   0.976   8.361
 1006POPC   C3B15801  32.738   0.880   7.962
 1006POPC   C4B15802  32.854   0.895   7.519
 1007POPC   NC315803  20.930  19.767   9.322
 1007POPC   PO415804  21.466  19.806   9.717
 1007POPC   GL115805  21.550  19.733   9.266
 1007POPC   GL215806  21.373  19.994   9.130
 1007POPC   C1A15807  21.777  19.611   8.865
 1007POPC   D2A15808  21.866  19.804   8.460
 1007POPC   C3A15809  21.722  19.614   8.068
 1007POPC   C4A15810  21.559  19.872   7.758
 1007POPC   C1B15811  21.315  19.780   8.711
 1007POPC   C2B15812  21.328  19.857   8.267
 1007POPC   C3B15813  21.102  20.052   7.924
 1007POPC   C4B15814  21.085  19.683   7.761
 1008POPC   NC315815  24.447   1.775   9.418
 1008POPC   PO415816  24.055   2.361   9.487
 1008POPC   GL115817  24.432   2.227   9.198
 1008POPC   GL215818  24.342   1.935   8.957
 1008POPC   C1A15819  24.703   2.229   8.778
 1008POPC   D2A15820  24.691   1.900   8.463
 1008POPC   C3A15821  24.679   1.917   8.001
 1008POPC   C4A15822  24.574   1.710   7.613
 1008POPC   C1B15823  24.190   2.330   8.776
 1008POPC   C2B15824  24.357   2.362   8.380
 1008POPC   C3B15825  24.180   2.026   8.123
 1008POPC   C4B15826  24.161   2.005   7.679
 1009POPC   NC315827   8.453  40.002   9.470
 1009POPC   PO415828   9.099  40.181   9.617
 1009POPC   GL115829   9.005  40.074   9.191
 1009POPC   GL215830   8.740  40.318   9.159
 1009POPC   C1A15831   9.129  39.911   8.772
 1009POPC   D2A15832   9.376  40.080   8.406
 1009POPC   C3A15833   9.176  39.972   7.992
 1009POPC   C4A15834   8.745  39.948   7.809
 1009POPC   C1B15835   8.843  40.327   8.736
 1009POPC   C2B15836   8.848  40.176   8.334
 1009POPC   C3B15837   8.911  40.412   7.960
 1009POPC   C4B15838   8.686  40.403   7.573
 1010POPC   NC315839  15.628   2.817   9.677
 1010POPC   PO415840  16.275   2.697   9.738
 1010POPC   GL115841  16.054   2.868   9.357
 1010POPC   GL215842  15.755   2.683   9.203
 1010POPC   C1A15843  15.987   2.998   8.900
 1010POPC   D2A15844  15.855   3.139   8.496
 1010POPC   C3A15845  16.032   2.932   8.143
 1010POPC   C4A15846  15.927   3.048   7.743
 1010POPC   C1B15847  15.599   2.520   8.801
 1010POPC   C2B15848  15.595   2.704   8.376
 1010POPC   C3B15849  15.648   2.601   7.918
 1010POPC   C4B15850  15.954   2.423   7.604
 1011POPC   NC315851  33.361   3.684   9.779
 1011POPC   PO415852  33.479   3.176   9.364
 1011POPC   GL115853  33.710   3.324   9.002
 1011POPC   GL215854  33.848   3.712   9.030
 1011POPC   C1A15855  33.937   3.273   8.619
 1011POPC   D2A15856  33.769   3.188   8.213
 1011POPC   C3A15857  33.834   3.474   7.919
 1011POPC   C4A15858  33.808   3.406   7.513
 1011POPC   C1B15859  33.600   3.680   8.672
 1011POPC   C2B15860  33.634   3.800   8.291
 1011POPC   C3B15861  33.525   3.879   7.914
 1011POPC   C4B15862  33.709   3.896   7.551
 1012POPC   NC315863  10.354  23.702   9.568
 1012POPC   PO415864  10.848  23.321   9.644
 1012POPC   GL115865  10.687  23.525   9.222
 1012POPC   GL215866  10.305  23.493   9.113
 1012POPC   C1A15867  10.592  23.850   8.879
 1012POPC   D2A15868  10.464  23.882   8.423
 1012POPC   C3A15869  10.641  23.751   8.018
 1012POPC   C4A15870  10.728  23.360   7.829
 1012POPC   C1B15871  10.329  23.423   8.681
 1012POPC   C2B15872  10.109  23.401   8.289
 1012POPC   C3B15873  10.202  23.551   7.911
 1012POPC   C4B15874  10.232  23.999   7.827
 1013POPC   NC315875  11.556  13.060   9.491
 1013POPC   PO415876  11.227  12.449   9.449
 1013POPC   GL115877  11.368  12.692   9.118
 1013POPC   GL215878  11.516  13.008   9.003
 1013POPC   C1A15879  11.126  12.715   8.756
 1013POPC   D2A15880  10.999  12.871   8.373
 1013POPC   C3A15881  11.024  12.650   7.990
 1013POPC   C4A15882  11.125  12.974   7.701
 1013POPC   C1B15883  11.451  13.068   8.594
 1013POPC   C2B15884  11.727  13.089   8.281
 1013POPC   C3B15885  11.611  13.097   7.864
 1013POPC   C4B15886  11.684  12.859   7.525
 1014POPC   NC315887  44.467  44.724   9.645
 1014POPC   PO415888  44.944  44.293   9.471
 1014POPC   GL115889  44.654  44.354   9.156
 1014POPC   GL215890  44.581  44.711   9.100
 1014POPC   C1A15891  44.554  44.370   8.728
 1014POPC   D2A15892  44.702  44.557   8.386
 1014POPC   C3A15893  44.509  44.455   8.051
 1014POPC   C4A15894  44.455  44.293   7.686
 1014POPC   C1B15895  44.619  44.976   8.663
 1014POPC   C2B15896  44.609  44.989   8.150
 1014POPC   C3B15897  44.683  44.978   7.674
 1014POPC   C4B15898  44.548   0.153   7.240
 1015POPC   NC315899  44.042  29.383   9.308
 1015POPC   PO415900  43.863  29.966   9.583
 1015POPC   GL115901  43.915  29.877   9.154
 1015POPC   GL215902  44.227  29.987   9.124
 1015POPC   C1A15903  43.844  30.086   8.751
 1015POPC   D2A15904  43.989  30.117   8.329
 1015POPC   C3A15905  43.899  29.824   7.996
 1015POPC   C4A15906  43.752  29.761   7.586
 1015POPC   C1B15907  44.344  30.230   8.734
 1015POPC   C2B15908  44.486  30.262   8.279
 1015POPC   C3B15909  44.247  30.201   7.878
 1015POPC   C4B15910  44.248  29.865   7.541
 1016POPC   NC315911  34.411  31.337   9.558
 1016POPC   PO415912  35.069  31.041   9.485
 1016POPC   GL115913  34.810  31.293   9.184
 1016POPC   GL215914  34.460  31.500   9.089
 1016POPC   C1A15915  34.824  31.376   8.755
 1016POPC   D2A15916  34.503  31.518   8.513
 1016POPC   C3A15917  34.607  31.507   8.100
 1016POPC   C4A15918  34.701  31.757   7.753
 1016POPC   C1B15919  34.408  31.122   8.893
 1016POPC   C2B15920  34.438  31.008   8.465
 1016POPC   C3B15921  34.326  31.068   8.038
 1016POPC   C4B15922  34.429  31.299   7.679
 1017POPC   NC315923  30.377  15.037   9.519
 1017POPC   PO415924  30.963  14.938   9.573
 1017POPC   GL115925  30.735  15.058   9.160
 1017POPC   GL215926  30.410  15.274   9.087
 1017POPC   C1A15927  30.782  15.094   8.725
 1017POPC   D2A15928  30.790  14.862   8.356
 1017POPC   C3A15929  30.848  15.173   8.065
 1017POPC   C4A15930  30.650  15.181   7.707
 1017POPC   C1B15931  30.374  15.396   8.682
 1017POPC   C2B15932  30.396  15.249   8.303
 1017POPC   C3B15933  30.452  15.557   7.989
 1017POPC   C4B15934  30.836  15.668   7.770
 1018POPC   NC315935  41.402  34.420   9.896
 1018POPC   PO415936  41.860  34.754   9.497
 1018POPC   GL115937  41.671  34.613   9.091
 1018POPC   GL215938  41.717  34.308   8.924
 1018POPC   C1A15939  41.387  34.655   8.757
 1018POPC   D2A15940  41.597  34.617   8.398
 1018POPC   C3A15941  41.403  34.467   8.061
 1018POPC   C4A15942  41.477  34.609   7.680
 1018POPC   C1B15943  41.907  34.250   8.538
 1018POPC   C2B15944  41.882  34.280   8.098
 1018POPC   C3B15945  41.901  34.274   7.663
 1018POPC   C4B15946  41.984  34.357   7.225
 1019POPC   NC315947  26.481  26.890   9.505
 1019POPC   PO415948  25.764  26.589   9.560
 1019POPC   GL115949  26.027  26.629   9.234
 1019POPC   GL215950  26.036  26.979   9.242
 1019POPC   C1A15951  26.144  26.674   8.794
 1019POPC   D2A15952  26.260  26.970   8.458
 1019POPC   C3A15953  26.133  26.875   8.024
 1019POPC   C4A15954  25.929  26.846   7.603
 1019POPC   C1B15955  26.127  27.216   8.883
 1019POPC   C2B15956  26.139  27.466   8.473
 1019POPC   C3B15957  26.190  27.378   8.064
 1019POPC   C4B15958  26.183  27.289   7.650
 1020POPC   NC315959  26.302  41.761   9.711
 1020POPC   PO415960  25.690  41.795   9.482
 1020POPC   GL115961  25.926  41.625   9.153
 1020POPC   GL215962  25.714  41.383   9.069
 1020POPC   C1A15963  26.175  41.595   8.830
 1020POPC   D2A15964  26.307  41.491   8.422
 1020POPC   C3A15965  26.160  41.758   8.063
 1020POPC   C4A15966  25.986  41.632   7.676
 1020POPC   C1B15967  25.668  41.631   8.711
 1020POPC   C2B15968  25.701  41.692   8.283
 1020POPC   C3B15969  25.610  41.441   7.964
 1020POPC   C4B15970  25.405  41.254   7.646
 1021POPC   NC315971   7.724  11.513   9.452
 1021POPC   PO415972   7.322  10.968   9.767
 1021POPC   GL115973   7.403  11.082   9.305
 1021POPC   GL215974   7.459  11.397   9.054
 1021POPC   C1A15975   7.216  11.009   8.876
 1021POPC   D2A15976   7.472  11.170   8.527
 1021POPC   C3A15977   7.377  11.088   8.071
 1021POPC   C4A15978   7.537  10.839   7.693
 1021POPC   C1B15979   7.426  11.692   8.681
 1021POPC   C2B15980   7.482  11.607   8.264
 1021POPC   C3B15981   7.792  11.382   8.081
 1021POPC   C4B15982   7.704  11.480   7.688
 1022POPC   NC315983  40.014  14.113   9.322
 1022POPC   PO415984  39.585  14.626   9.330
 1022POPC   GL115985  39.799  14.433   8.987
 1022POPC   GL215986  40.190  14.380   8.931
 1022POPC   C1A15987  39.811  14.441   8.571
 1022POPC   D2A15988  40.098  14.256   8.389
 1022POPC   C3A15989  39.884  14.072   8.067
 1022POPC   C4A15990  39.762  14.345   7.774
 1022POPC   C1B15991  40.255  14.715   8.646
 1022POPC   C2B15992  40.213  14.735   8.194
 1022POPC   C3B15993  40.252  14.411   7.909
 1022POPC   C4B15994  40.599  14.163   7.804
 1023POPC   NC315995  29.534  12.711   9.449
 1023POPC   PO415996  30.198  12.913   9.522
 1023POPC   GL115997  29.909  12.988   9.173
 1023POPC   GL215998  29.940  12.664   9.100
 1023POPC   C1A15999  29.838  12.965   8.700
 1023POPC   D2A16000  30.178  12.837   8.423
 1023POPC   C3A16001  30.177  13.021   8.017
 1023POPC   C4A16002  29.814  13.071   7.748
 1023POPC   C1B16003  29.563  12.553   8.843
 1023POPC   C2B16004  29.550  12.522   8.432
 1023POPC   C3B16005  29.759  12.712   8.131
 1023POPC   C4B16006  29.623  12.597   7.764
 1024POPC   NC316007  23.010  37.940   9.568
 1024POPC   PO416008  23.197  37.336   9.353
 1024POPC   GL116009  22.980  37.617   9.086
 1024POPC   GL216010  22.849  37.943   9.105
 1024POPC   C1A16011  22.764  37.691   8.692
 1024POPC   D2A16012  22.662  37.477   8.334
 1024POPC   C3A16013  22.912  37.550   8.015
 1024POPC   C4A16014  22.851  37.265   7.724
 1024POPC   C1B16015  23.150  38.013   8.749
 1024POPC   C2B16016  22.969  38.066   8.321
 1024POPC   C3B16017  23.038  38.023   7.870
 1024POPC   C4B16018  23.045  38.099   7.379
 1025POPC   NC316019  11.199  36.033   9.453
 1025POPC   PO416020  11.416  36.624   9.726
 1025POPC   GL116021  11.393  36.475   9.264
 1025POPC   GL216022  11.615  36.307   8.987
 1025POPC   C1A16023  11.146  36.361   8.865
 1025POPC   D2A16024  11.378  36.276   8.474
 1025POPC   C3A16025  11.256  36.084   8.093
 1025POPC   C4A16026  11.453  36.295   7.753
 1025POPC   C1B16027  11.428  35.911   8.814
 1025POPC   C2B16028  11.368  35.660   8.447
 1025POPC   C3B16029  11.485  35.630   8.017
 1025POPC   C4B16030  11.399  35.787   7.589
 1026POPC   NC316031  35.422  40.486   9.461
 1026POPC   PO416032  34.855  40.832   9.497
 1026POPC   GL116033  35.145  40.820   9.130
 1026POPC   GL216034  35.082  40.504   9.082
 1026POPC   C1A16035  35.410  40.760   8.756
 1026POPC   D2A16036  35.558  40.981   8.397
 1026POPC   C3A16037  35.559  40.665   8.120
 1026POPC   C4A16038  35.612  40.701   7.671
 1026POPC   C1B16039  34.906  40.699   8.679
 1026POPC   C2B16040  35.057  40.854   8.283
 1026POPC   C3B16041  35.168  40.858   7.854
 1026POPC   C4B16042  34.954  40.912   7.478
 1027POPC   NC316043  31.064  43.288   9.515
 1027POPC   PO416044  30.500  42.982   9.490
 1027POPC   GL116045  30.256  42.998   9.108
 1027POPC   GL216046  30.323  42.669   9.003
 1027POPC   C1A16047  30.297  43.282   8.729
 1027POPC   D2A16048  30.477  43.440   8.330
 1027POPC   C3A16049  30.449  43.132   7.960
 1027POPC   C4A16050  30.449  43.152   7.474
 1027POPC   C1B16051  30.543  42.827   8.624
 1027POPC   C2B16052  30.897  43.084   8.444
 1027POPC   C3B16053  31.100  42.944   8.069
 1027POPC   C4B16054  30.922  43.108   7.716
 1028POPC   NC316055  28.991  42.597   9.254
 1028POPC   PO416056  29.261  42.049   9.404
 1028POPC   GL116057  28.994  42.126   9.032
 1028POPC   GL216058  29.272  42.224   8.878
 1028POPC   C1A16059  28.914  42.041   8.574
 1028POPC   D2A16060  29.175  42.201   8.238
 1028POPC   C3A16061  29.142  42.081   7.815
 1028POPC   C4A16062  29.419  42.191   7.450
 1028POPC   C1B16063  29.335  42.559   8.597
 1028POPC   C2B16064  29.554  42.582   8.191
 1028POPC   C3B16065  29.266  42.578   7.856
 1028POPC   C4B16066  28.861  42.741   7.780
 1029POPC   NC316067   5.219   5.407   9.537
 1029POPC   PO416068   4.783   4.857   9.474
 1029POPC   GL116069   5.046   5.013   9.129
 1029POPC   GL216070   5.422   4.961   9.115
 1029POPC   C1A16071   5.097   4.789   8.745
 1029POPC   D2A16072   5.056   4.992   8.364
 1029POPC   C3A16073   5.173   4.808   7.981
 1029POPC   C4A16074   5.072   5.051   7.637
 1029POPC   C1B16075   5.442   5.151   8.700
 1029POPC   C2B16076   5.546   5.101   8.273
 1029POPC   C3B16077   5.286   5.327   8.000
 1029POPC   C4B16078   5.401   5.453   7.625
 1030POPC   NC316079  36.809  40.875   9.462
 1030POPC   PO416080  37.372  40.485   9.578
 1030POPC   GL116081  37.202  40.720   9.188
 1030POPC   GL216082  36.866  40.560   9.043
 1030POPC   C1A16083  37.031  40.955   8.811
 1030POPC   D2A16084  37.105  40.727   8.450
 1030POPC   C3A16085  36.866  40.582   8.095
 1030POPC   C4A16086  36.899  40.857   7.728
 1030POPC   C1B16087  36.718  40.389   8.628
 1030POPC   C2B16088  36.555  40.162   8.238
 1030POPC   C3B16089  36.515  40.274   7.783
 1030POPC   C4B16090  36.553  40.612   7.447
 1031POPC   NC316091  33.397  42.074   9.716
 1031POPC   PO416092  33.768  41.545   9.572
 1031POPC   GL116093  33.765  41.513   9.117
 1031POPC   GL216094  33.867  41.861   9.118
 1031POPC   C1A16095  34.077  41.410   8.760
 1031POPC   D2A16096  34.171  41.116   8.428
 1031POPC   C3A16097  33.865  41.153   8.102
 1031POPC   C4A16098  33.675  41.490   7.831
 1031POPC   C1B16099  33.817  41.857   8.681
 1031POPC   C2B16100  33.931  41.621   8.311
 1031POPC   C3B16101  34.079  41.795   7.942
 1031POPC   C4B16102  34.135  41.667   7.528
 1032POPC   NC316103  14.625  30.950   9.452
 1032POPC   PO416104  14.350  30.360   9.552
 1032POPC   GL116105  14.396  30.543   9.204
 1032POPC   GL216106  14.750  30.514   9.200
 1032POPC   C1A16107  14.370  30.792   8.856
 1032POPC   D2A16108  14.138  30.805   8.502
 1032POPC   C3A16109  14.186  31.131   8.212
 1032POPC   C4A16110  14.303  31.073   7.798
 1032POPC   C1B16111  14.888  30.601   8.802
 1032POPC   C2B16112  14.673  30.719   8.441
 1032POPC   C3B16113  14.443  30.648   8.083
 1032POPC   C4B16114  14.639  30.689   7.691
 1033POPC   NC316115   1.814  21.776   9.592
 1033POPC   PO416116   1.808  21.109   9.624
 1033POPC   GL116117   2.008  21.368   9.261
 1033POPC   GL216118   1.897  21.713   9.095
 1033POPC   C1A16119   2.081  21.334   8.806
 1033POPC   D2A16120   1.876  21.513   8.417
 1033POPC   C3A16121   2.119  21.495   8.033
 1033POPC   C4A16122   2.248  21.165   7.776
 1033POPC   C1B16123   2.143  21.845   8.706
 1033POPC   C2B16124   2.317  21.905   8.272
 1033POPC   C3B16125   2.129  21.975   7.842
 1033POPC   C4B16126   1.807  21.885   7.496
 1034POPC   NC316127  36.543  41.565   9.405
 1034POPC   PO416128  37.157  41.250   9.521
 1034POPC   GL116129  36.922  41.311   9.159
 1034POPC   GL216130  36.986  41.683   9.148
 1034POPC   C1A16131  36.609  41.262   8.793
 1034POPC   D2A16132  36.562  41.574   8.468
 1034POPC   C3A16133  36.777  41.628   8.086
 1034POPC   C4A16134  36.510  41.711   7.750
 1034POPC   C1B16135  36.996  41.573   8.726
 1034POPC   C2B16136  36.990  41.250   8.390
 1034POPC   C3B16137  37.131  41.276   7.953
 1034POPC   C4B16138  36.985  41.561   7.606
 1035POPC   NC316139  27.791  43.844   9.582
 1035POPC   PO416140  27.252  44.145   9.765
 1035POPC   GL116141  27.403  44.039   9.301
 1035POPC   GL216142  27.773  43.988   9.095
 1035POPC   C1A16143  27.319  43.880   8.884
 1035POPC   D2A16144  27.621  43.800   8.543
 1035POPC   C3A16145  27.491  43.851   8.150
 1035POPC   C4A16146  27.275  43.883   7.794
 1035POPC   C1B16147  28.037  44.055   8.722
 1035POPC   C2B16148  27.911  44.178   8.288
 1035POPC   C3B16149  27.922  43.971   7.882
 1035POPC   C4B16150  27.960  44.071   7.458
 1036POPC   NC316151  11.032  18.100   9.533
 1036POPC   PO416152  11.543  18.513   9.511
 1036POPC   GL116153  11.392  18.276   9.170
 1036POPC   GL216154  11.172  18.558   9.094
 1036POPC   C1A16155  11.455  18.361   8.721
 1036POPC   D2A16156  11.326  18.545   8.344
 1036POPC   C3A16157  11.505  18.315   8.022
 1036POPC   C4A16158  11.335  18.143   7.652
 1036POPC   C1B16159  11.019  18.740   8.714
 1036POPC   C2B16160  10.805  18.645   8.320
 1036POPC   C3B16161  10.913  18.558   7.913
 1036POPC   C4B16162  11.284  18.655   7.721
 1037POPC   NC316163  44.222  25.395   9.726
 1037POPC   PO416164  44.986  25.293   9.616
 1037POPC   GL116165  44.720  25.274   9.232
 1037POPC   GL216166  44.378  25.085   9.283
 1037POPC   C1A16167  44.760  25.518   8.829
 1037POPC   D2A16168  44.947  25.408   8.448
 1037POPC   C3A16169  44.759  25.447   8.022
 1037POPC   C4A16170  44.823  25.242   7.591
 1037POPC   C1B16171  44.392  25.160   8.806
 1037POPC   C2B16172  44.521  25.100   8.366
 1037POPC   C3B16173  44.490  25.002   7.916
 1037POPC   C4B16174  44.304  25.215   7.581
 1038POPC   NC316175  24.990   7.596   9.570
 1038POPC   PO416176  24.340   7.357   9.520
 1038POPC   GL116177  24.461   7.241   9.081
 1038POPC   GL216178  24.788   7.372   9.102
 1038POPC   C1A16179  24.505   7.238   8.631
 1038POPC   D2A16180  24.370   7.548   8.302
 1038POPC   C3A16181  24.508   7.418   7.923
 1038POPC   C4A16182  24.868   7.142   7.863
 1038POPC   C1B16183  24.644   7.719   8.807
 1038POPC   C2B16184  24.581   7.988   8.425
 1038POPC   C3B16185  24.515   7.944   7.963
 1038POPC   C4B16186  24.427   7.815   7.534
 1039POPC   NC316187  15.000  17.054   9.384
 1039POPC   PO416188  15.037  17.715   9.520
 1039POPC   GL116189  15.151  17.489   9.181
 1039POPC   GL216190  15.475  17.339   9.267
 1039POPC   C1A16191  14.998  17.394   8.762
 1039POPC   D2A16192  14.825  17.667   8.444
 1039POPC   C3A16193  14.963  17.618   8.035
 1039POPC   C4A16194  15.251  17.360   7.844
 1039POPC   C1B16195  15.485  17.562   8.832
 1039POPC   C2B16196  15.338  17.596   8.413
 1039POPC   C3B16197  15.645  17.549   8.131
 1039POPC   C4B16198  15.649  17.702   7.735
 1040POPC   NC316199  19.493  28.612   9.412
 1040POPC   PO416200  20.100  28.236   9.461
 1040POPC   GL116201  19.748  28.253   9.165
 1040POPC   GL216202  19.721  27.931   9.041
 1040POPC   C1A16203  19.607  28.335   8.722
 1040POPC   D2A16204  19.647  28.587   8.345
 1040POPC   C3A16205  19.566  28.483   7.910
 1040POPC   C4A16206  19.640  28.073   7.790
 1040POPC   C1B16207  20.093  28.177   8.824
 1040POPC   C2B16208  20.211  28.362   8.478
 1040POPC   C3B16209  20.047  28.390   8.085
 1040POPC   C4B16210  20.170  28.309   7.687
 1041POPC   NC316211  19.114  39.339   9.404
 1041POPC   PO416212  19.015  38.672   9.364
 1041POPC   GL116213  19.075  38.999   9.039
 1041POPC   GL216214  18.780  39.246   9.008
 1041POPC   C1A16215  19.331  39.143   8.691
 1041POPC   D2A16216  19.137  39.003   8.323
 1041POPC   C3A16217  19.284  38.870   7.941
 1041POPC   C4A16218  18.908  38.936   7.763
 1041POPC   C1B16219  18.989  39.551   8.725
 1041POPC   C2B16220  19.144  39.535   8.305
 1041POPC   C3B16221  18.918  39.458   7.927
 1041POPC   C4B16222  18.749  39.663   7.551
 1042POPC   NC316223  24.343  20.638   9.604
 1042POPC   PO416224  24.575  20.111   9.323
 1042POPC   GL116225  24.578  20.527   9.162
 1042POPC   GL216226  24.587  20.927   9.257
 1042POPC   C1A16227  24.548  20.564   8.764
 1042POPC   D2A16228  24.493  20.752   8.403
 1042POPC   C3A16229  24.463  20.386   8.168
 1042POPC   C4A16230  24.325  20.418   7.785
 1042POPC   C1B16231  24.641  21.060   8.847
 1042POPC   C2B16232  24.792  21.170   8.438
 1042POPC   C3B16233  24.821  20.976   8.050
 1042POPC   C4B16234  24.760  20.649   7.803
 1043POPC   NC316235  33.400  29.965   9.363
 1043POPC   PO416236  32.861  30.075   9.677
 1043POPC   GL116237  32.877  30.094   9.232
 1043POPC   GL216238  32.979  29.772   9.187
 1043POPC   C1A16239  32.778  29.992   8.782
 1043POPC   D2A16240  32.956  29.823   8.377
 1043POPC   C3A16241  32.696  29.958   8.039
 1043POPC   C4A16242  32.725  30.386   7.854
 1043POPC   C1B16243  33.035  29.548   8.811
 1043POPC   C2B16244  32.811  29.315   8.456
 1043POPC   C3B16245  32.941  29.465   8.020
 1043POPC   C4B16246  32.947  29.736   7.665
 1044POPC   NC316247   0.287  13.883   9.424
 1044POPC   PO416248   0.207  13.295   9.662
 1044POPC   GL116249   0.382  13.484   9.153
 1044POPC   GL216250   0.504  13.851   8.981
 1044POPC   C1A16251   0.263  13.530   8.700
 1044POPC   D2A16252   0.136  13.816   8.371
 1044POPC   C3A16253   0.182  13.562   8.005
 1044POPC   C4A16254   0.467  13.387   7.675
 1044POPC   C1B16255   0.877  13.940   8.744
 1044POPC   C2B16256   0.926  13.717   8.347
 1044POPC   C3B16257   0.748  13.800   7.925
 1044POPC   C4B16258   0.935  13.641   7.558
 1045POPC   NC316259  12.100  17.068   9.493
 1045POPC   PO416260  11.591  16.777   9.800
 1045POPC   GL116261  11.865  16.652   9.317
 1045POPC   GL216262  11.940  16.923   9.058
 1045POPC   C1A16263  12.106  16.510   8.878
 1045POPC   D2A16264  11.882  16.587   8.462
 1045POPC   C3A16265  12.078  16.466   8.063
 1045POPC   C4A16266  12.271  16.499   7.664
 1045POPC   C1B16267  12.387  16.958   8.909
 1045POPC   C2B16268  12.598  17.102   8.537
 1045POPC   C3B16269  12.398  17.162   8.159
 1045POPC   C4B16270  12.152  16.952   7.871
 1046POPC   NC316271  35.466   5.398   9.417
 1046POPC   PO416272  35.082   4.879   9.562
 1046POPC   GL116273  35.286   4.975   9.194
 1046POPC   GL216274  35.656   4.903   9.206
 1046POPC   C1A16275  35.106   5.020   8.802
 1046POPC   D2A16276  35.238   5.275   8.475
 1046POPC   C3A16277  35.094   5.055   8.137
 1046POPC   C4A16278  35.090   4.998   7.726
 1046POPC   C1B16279  35.613   5.073   8.774
 1046POPC   C2B16280  35.591   4.935   8.321
 1046POPC   C3B16281  35.550   5.113   7.897
 1046POPC   C4B16282  35.643   5.149   7.458
 1047POPC   NC316283   4.476  29.602   9.493
 1047POPC   PO416284   4.433  28.966   9.494
 1047POPC   GL116285   4.321  29.214   9.184
 1047POPC   GL216286   4.660  29.310   9.106
 1047POPC   C1A16287   4.222  29.303   8.765
 1047POPC   D2A16288   4.378  29.459   8.403
 1047POPC   C3A16289   4.117  29.260   8.102
 1047POPC   C4A16290   4.131  29.196   7.678
 1047POPC   C1B16291   4.666  28.990   8.778
 1047POPC   C2B16292   4.668  28.981   8.327
 1047POPC   C3B16293   4.520  28.971   7.907
 1047POPC   C4B16294   4.710  28.770   7.568
 1048POPC   NC316295   6.785  17.404   9.587
 1048POPC   PO416296   6.103  17.276   9.645
 1048POPC   GL116297   6.356  17.560   9.317
 1048POPC   GL216298   6.545  17.305   9.159
 1048POPC   C1A16299   6.561  17.725   8.899
 1048POPC   D2A16300   6.643  17.438   8.578
 1048POPC   C3A16301   6.557  17.483   8.165
 1048POPC   C4A16302   6.461  17.705   7.803
 1048POPC   C1B16303   6.939  17.187   8.920
 1048POPC   C2B16304   7.104  17.220   8.507
 1048POPC   C3B16305   6.998  17.198   8.106
 1048POPC   C4B16306   6.762  17.249   7.765
 1049POPC   NC316307   9.529  16.379   9.358
 1049POPC   PO416308   9.789  16.926   9.584
 1049POPC   GL116309   9.839  16.744   9.171
 1049POPC   GL216310   9.642  17.001   9.098
 1049POPC   C1A16311   9.814  16.533   8.735
 1049POPC   D2A16312   9.898  16.637   8.274
 1049POPC   C3A16313   9.629  16.539   7.925
 1049POPC   C4A16314   9.703  16.542   7.443
 1049POPC   C1B16315   9.892  17.048   8.775
 1049POPC   C2B16316   9.827  17.146   8.392
 1049POPC   C3B16317   9.892  17.221   8.017
 1049POPC   C4B16318   9.848  16.938   7.710
 1050POPC   NC316319   3.298  13.094   9.383
 1050POPC   PO416320   3.543  12.419   9.429
 1050POPC   GL116321   3.287  12.641   9.118
 1050POPC   GL216322   3.580  12.780   9.050
 1050POPC   C1A16323   3.210  12.986   8.749
 1050POPC   D2A16324   3.039  12.998   8.322
 1050POPC   C3A16325   3.272  13.010   7.939
 1050POPC   C4A16326   3.297  12.700   7.600
 1050POPC   C1B16327   3.638  12.704   8.621
 1050POPC   C2B16328   3.615  13.091   8.384
 1050POPC   C3B16329   3.701  13.288   7.997
 1050POPC   C4B16330   3.692  13.063   7.616
 1051POPC   NC316331  16.254  16.026   9.564
 1051POPC   PO416332  15.618  15.802   9.431
 1051POPC   GL116333  15.809  15.971   9.074
 1051POPC   GL216334  16.095  16.200   9.094
 1051POPC   C1A16335  16.021  15.952   8.673
 1051POPC   D2A16336  16.104  15.968   8.287
 1051POPC   C3A16337  15.880  15.867   7.953
 1051POPC   C4A16338  15.668  15.844   7.586
 1051POPC   C1B16339  16.303  16.366   8.659
 1051POPC   C2B16340  16.306  16.415   8.205
 1051POPC   C3B16341  16.346  16.099   7.864
 1051POPC   C4B16342  16.187  15.886   7.525
 1052POPC   NC316343   4.555   3.740   9.590
 1052POPC   PO416344   3.875   3.524   9.510
 1052POPC   GL116345   4.083   3.423   9.148
 1052POPC   GL216346   4.426   3.379   9.218
 1052POPC   C1A16347   4.184   3.316   8.741
 1052POPC   D2A16348   4.274   3.105   8.396
 1052POPC   C3A16349   4.335   3.322   8.033
 1052POPC   C4A16350   4.007   3.365   7.749
 1052POPC   C1B16351   4.601   3.559   8.856
 1052POPC   C2B16352   4.545   3.621   8.412
 1052POPC   C3B16353   4.689   3.741   8.005
 1052POPC   C4B16354   4.441   3.663   7.670
 1053POPC   NC316355  34.524  19.427   9.596
 1053POPC   PO416356  34.559  18.699   9.678
 1053POPC   GL116357  34.484  18.823   9.200
 1053POPC   GL216358  34.357  19.125   9.195
 1053POPC   C1A16359  34.694  18.744   8.774
 1053POPC   D2A16360  34.567  18.672   8.388
 1053POPC   C3A16361  34.749  18.619   8.012
 1053POPC   C4A16362  34.549  18.662   7.686
 1053POPC   C1B16363  34.519  19.233   8.805
 1053POPC   C2B16364  34.423  19.171   8.398
 1053POPC   C3B16365  34.391  19.027   7.993
 1053POPC   C4B16366  34.495  19.155   7.581
 1054POPC   NC316367   5.328  29.813   9.508
 1054POPC   PO416368   4.645  30.049   9.533
 1054POPC   GL116369   4.894  29.772   9.257
 1054POPC   GL216370   5.055  30.053   9.117
 1054POPC   C1A16371   4.905  29.661   8.833
 1054POPC   D2A16372   5.197  29.837   8.510
 1054POPC   C3A16373   5.191  29.701   8.076
 1054POPC   C4A16374   4.954  29.816   7.760
 1054POPC   C1B16375   5.366  30.213   8.809
 1054POPC   C2B16376   5.542  30.191   8.406
 1054POPC   C3B16377   5.311  30.182   8.042
 1054POPC   C4B16378   5.442  30.006   7.706
 1055POPC   NC316379  27.424   7.154   9.642
 1055POPC   PO416380  27.734   7.648   9.810
 1055POPC   GL116381  27.598   7.618   9.313
 1055POPC   GL216382  27.437   7.347   9.178
 1055POPC   C1A16383  27.734   7.562   8.851
 1055POPC   D2A16384  27.750   7.297   8.469
 1055POPC   C3A16385  27.648   7.547   8.103
 1055POPC   C4A16386  27.567   7.436   7.672
 1055POPC   C1B16387  27.338   7.207   8.792
 1055POPC   C2B16388  27.232   7.370   8.385
 1055POPC   C3B16389  27.297   7.168   8.014
 1055POPC   C4B16390  27.625   6.949   7.786
 1056POPC   NC316391  21.608  39.623   9.517
 1056POPC   PO416392  21.637  40.233   9.725
 1056POPC   GL116393  21.371  40.200   9.294
 1056POPC   GL216394  21.333  39.870   9.189
 1056POPC   C1A16395  21.255  40.169   8.800
 1056POPC   D2A16396  21.533  40.116   8.443
 1056POPC   C3A16397  21.358  40.093   8.043
 1056POPC   C4A16398  21.644  40.331   7.827
 1056POPC   C1B16399  21.491  39.723   8.784
 1056POPC   C2B16400  21.193  39.741   8.425
 1056POPC   C3B16401  21.218  39.562   8.037
 1056POPC   C4B16402  21.460  39.550   7.663
 1057POPC   NC316403  32.370  28.716   9.559
 1057POPC   PO416404  31.749  28.420   9.578
 1057POPC   GL116405  32.070  28.428   9.227
 1057POPC   GL216406  32.438  28.309   9.210
 1057POPC   C1A16407  32.183  28.375   8.782
 1057POPC   D2A16408  32.054  28.184   8.405
 1057POPC   C3A16409  32.079  28.402   8.011
 1057POPC   C4A16410  32.142  28.258   7.601
 1057POPC   C1B16411  32.654  28.588   8.892
 1057POPC   C2B16412  32.548  28.672   8.471
 1057POPC   C3B16413  32.583  28.519   8.045
 1057POPC   C4B16414  32.403  28.670   7.697
 1058POPC   NC316415  30.622  26.348   9.444
 1058POPC   PO416416  30.442  25.674   9.383
 1058POPC   GL116417  30.659  25.868   9.021
 1058POPC   GL216418  31.023  25.743   8.949
 1058POPC   C1A16419  30.515  26.203   8.740
 1058POPC   D2A16420  30.309  26.200   8.337
 1058POPC   C3A16421  30.637  26.206   8.096
 1058POPC   C4A16422  30.800  26.069   7.749
 1058POPC   C1B16423  31.035  26.059   8.653
 1058POPC   C2B16424  31.096  25.959   8.242
 1058POPC   C3B16425  31.274  25.906   7.862
 1058POPC   C4B16426  31.070  25.710   7.499
 1059POPC   NC316427  24.264  43.374   9.600
 1059POPC   PO416428  24.757  42.988   9.542
 1059POPC   GL116429  24.583  43.248   9.220
 1059POPC   GL216430  24.239  43.092   9.191
 1059POPC   C1A16431  24.695  43.189   8.803
 1059POPC   D2A16432  24.959  43.112   8.450
 1059POPC   C3A16433  24.764  43.145   8.056
 1059POPC   C4A16434  24.656  42.834   7.777
 1059POPC   C1B16435  24.152  42.975   8.804
 1059POPC   C2B16436  24.343  43.041   8.421
 1059POPC   C3B16437  24.180  42.932   8.030
 1059POPC   C4B16438  24.325  43.230   7.766
 1060POPC   NC316439   0.645  26.787   9.547
 1060POPC   PO416440  44.969  26.944   9.771
 1060POPC   GL116441   0.025  26.950   9.257
 1060POPC   GL216442   0.248  26.695   9.196
 1060POPC   C1A16443   0.320  27.081   8.863
 1060POPC   D2A16444   0.543  26.978   8.469
 1060POPC   C3A16445   0.379  27.187   8.107
 1060POPC   C4A16446   0.571  26.972   7.791
 1060POPC   C1B16447   0.429  26.582   8.763
 1060POPC   C2B16448   0.373  26.468   8.342
 1060POPC   C3B16449   0.577  26.502   7.973
 1060POPC   C4B16450   0.443  26.547   7.537
 1061POPC   NC316451   5.663  37.866   9.638
 1061POPC   PO416452   5.940  37.287   9.638
 1061POPC   GL116453   5.785  37.534   9.185
 1061POPC   GL216454   5.584  37.871   9.151
 1061POPC   C1A16455   5.800  37.735   8.710
 1061POPC   D2A16456   5.985  37.918   8.313
 1061POPC   C3A16457   5.961  37.658   7.918
 1061POPC   C4A16458   6.183  37.663   7.522
 1061POPC   C1B16459   5.356  37.976   8.796
 1061POPC   C2B16460   5.524  38.117   8.383
 1061POPC   C3B16461   5.633  38.037   7.959
 1061POPC   C4B16462   5.632  37.832   7.523
 1062POPC   NC316463   6.332  26.131   9.437
 1062POPC   PO416464   6.772  25.735   9.491
 1062POPC   GL116465   6.520  25.759   9.112
 1062POPC   GL216466   6.584  26.140   9.005
 1062POPC   C1A16467   6.503  25.813   8.643
 1062POPC   D2A16468   6.749  26.016   8.330
 1062POPC   C3A16469   6.775  25.713   8.008
 1062POPC   C4A16470   6.901  25.698   7.600
 1062POPC   C1B16471   6.256  26.432   8.813
 1062POPC   C2B16472   6.148  26.536   8.403
 1062POPC   C3B16473   6.454  26.407   8.139
 1062POPC   C4B16474   6.514  26.119   7.802
 1063POPC   NC316475  31.599  33.463   9.908
 1063POPC   PO416476  31.732  34.048   9.532
 1063POPC   GL116477  31.559  33.755   9.195
 1063POPC   GL216478  31.238  33.657   9.097
 1063POPC   C1A16479  31.747  33.547   8.852
 1063POPC   D2A16480  31.856  33.627   8.432
 1063POPC   C3A16481  31.610  33.636   8.073
 1063POPC   C4A16482  31.858  33.588   7.715
 1063POPC   C1B16483  31.369  33.830   8.701
 1063POPC   C2B16484  31.200  33.844   8.322
 1063POPC   C3B16485  31.291  34.034   7.962
 1063POPC   C4B16486  31.569  34.252   7.751
 1064POPC   NC316487  29.635  39.736   9.399
 1064POPC   PO416488  30.106  39.171   9.431
 1064POPC   GL116489  30.004  39.411   9.094
 1064POPC   GL216490  29.677  39.319   9.122
 1064POPC   C1A16491  30.007  39.145   8.725
 1064POPC   D2A16492  29.890  38.986   8.327
 1064POPC   C3A16493  30.212  39.073   8.029
 1064POPC   C4A16494  30.267  38.974   7.612
 1064POPC   C1B16495  29.567  39.403   8.724
 1064POPC   C2B16496  29.793  39.503   8.388
 1064POPC   C3B16497  29.833  39.395   7.997
 1064POPC   C4B16498  29.801  39.167   7.608
 1065POPC   NC316499  31.392  32.031   9.501
 1065POPC   PO416500  31.986  31.978   9.377
 1065POPC   GL116501  31.676  32.346   9.212
 1065POPC   GL216502  31.353  32.299   9.058
 1065POPC   C1A16503  31.743  32.607   8.839
 1065POPC   D2A16504  31.812  32.475   8.414
 1065POPC   C3A16505  31.505  32.310   8.131
 1065POPC   C4A16506  31.558  32.372   7.701
 1065POPC   C1B16507  31.569  32.133   8.709
 1065POPC   C2B16508  31.502  31.854   8.366
 1065POPC   C3B16509  31.259  31.824   7.984
 1065POPC   C4B16510  31.237  32.001   7.581
 1066POPC   NC316511  43.991  34.003   9.809
 1066POPC   PO416512  43.514  33.527   9.565
 1066POPC   GL116513  43.899  33.667   9.257
 1066POPC   GL216514  44.236  33.857   9.109
 1066POPC   C1A16515  43.988  33.534   8.809
 1066POPC   D2A16516  43.870  33.725   8.416
 1066POPC   C3A16517  44.011  33.612   8.019
 1066POPC   C4A16518  44.008  33.755   7.603
 1066POPC   C1B16519  43.963  34.067   8.778
 1066POPC   C2B16520  43.799  34.249   8.415
 1066POPC   C3B16521  43.978  34.162   8.023
 1066POPC   C4B16522  43.814  34.218   7.661
 1067POPC   NC316523  37.909   7.248   9.858
 1067POPC   PO416524  37.385   7.262   9.494
 1067POPC   GL116525  37.487   7.385   9.121
 1067POPC   GL216526  37.828   7.387   9.187
 1067POPC   C1A16527  37.456   7.181   8.742
 1067POPC   D2A16528  37.610   7.372   8.396
 1067POPC   C3A16529  37.326   7.447   8.093
 1067POPC   C4A16530  37.325   7.167   7.759
 1067POPC   C1B16531  37.873   7.526   8.802
 1067POPC   C2B16532  37.918   7.798   8.447
 1067POPC   C3B16533  37.793   7.703   8.051
 1067POPC   C4B16534  37.867   7.302   7.867
 1068POPC   NC316535   0.986  24.307   9.476
 1068POPC   PO416536   0.460  24.789   9.498
 1068POPC   GL116537   0.583  24.567   9.166
 1068POPC   GL216538   0.272  24.701   8.981
 1068POPC   C1A16539   0.741  24.608   8.764
 1068POPC   D2A16540   0.551  24.792   8.404
 1068POPC   C3A16541   0.570  24.498   8.092
 1068POPC   C4A16542   0.847  24.298   7.807
 1068POPC   C1B16543  44.974  24.424   8.747
 1068POPC   C2B16544  44.989  24.147   8.363
 1068POPC   C3B16545  44.979  24.238   7.903
 1068POPC   C4B16546   0.309  24.429   7.661
 1069POPC   NC316547  10.106  35.014   9.422
 1069POPC   PO416548   9.655  34.533   9.548
 1069POPC   GL116549   9.823  34.613   9.126
 1069POPC   GL216550  10.173  34.570   9.100
 1069POPC   C1A16551   9.794  34.488   8.667
 1069POPC   D2A16552   9.549  34.335   8.282
 1069POPC   C3A16553   9.635  34.573   7.884
 1069POPC   C4A16554   9.527  34.834   7.522
 1069POPC   C1B16555  10.219  34.776   8.695
 1069POPC   C2B16556  10.099  34.727   8.232
 1069POPC   C3B16557  10.016  34.928   7.818
 1069POPC   C4B16558   9.985  35.083   7.390
 1070POPC   NC316559   0.149  19.011   9.614
 1070POPC   PO416560   0.673  19.390   9.528
 1070POPC   GL116561   0.410  19.210   9.190
 1070POPC   GL216562   0.278  18.882   9.122
 1070POPC   C1A16563   0.232  19.354   8.819
 1070POPC   D2A16564   0.405  19.352   8.427
 1070POPC   C3A16565   0.250  19.022   8.169
 1070POPC   C4A16566   0.486  19.102   7.805
 1070POPC   C1B16567   0.332  18.852   8.676
 1070POPC   C2B16568   0.493  18.579   8.341
 1070POPC   C3B16569   0.623  18.604   7.902
 1070POPC   C4B16570   0.517  18.702   7.458
 1071POPC   NC316571  37.807  19.565   9.640
 1071POPC   PO416572  38.321  20.053   9.563
 1071POPC   GL116573  38.276  19.894   9.210
 1071POPC   GL216574  38.217  19.585   9.329
 1071POPC   C1A16575  38.396  20.001   8.805
 1071POPC   D2A16576  38.465  19.703   8.498
 1071POPC   C3A16577  38.486  19.867   8.103
 1071POPC   C4A16578  38.551  19.534   7.839
 1071POPC   C1B16579  38.110  19.552   8.877
 1071POPC   C2B16580  37.964  19.679   8.445
 1071POPC   C3B16581  38.119  19.462   8.115
 1071POPC   C4B16582  38.052  19.422   7.701
 1072POPC   NC316583  29.219  33.662   9.663
 1072POPC   PO416584  29.019  34.173   9.538
 1072POPC   GL116585  29.257  33.916   9.212
 1072POPC   GL216586  29.452  33.591   9.178
 1072POPC   C1A16587  29.146  33.745   8.795
 1072POPC   D2A16588  29.292  33.850   8.376
 1072POPC   C3A16589  28.978  33.814   8.073
 1072POPC   C4A16590  29.011  33.633   7.683
 1072POPC   C1B16591  29.648  33.688   8.733
 1072POPC   C2B16592  29.636  33.477   8.276
 1072POPC   C3B16593  29.435  33.270   7.870
 1072POPC   C4B16594  29.117  33.164   7.505
 1073POPC   NC316595  21.512  17.597   9.640
 1073POPC   PO416596  20.904  17.547   9.248
 1073POPC   GL116597  21.255  17.431   9.054
 1073POPC   GL216598  21.523  17.670   9.115
 1073POPC   C1A16599  21.245  17.353   8.624
 1073POPC   D2A16600  21.451  17.208   8.285
 1073POPC   C3A16601  21.341  17.395   7.921
 1073POPC   C4A16602  21.700  17.335   7.742
 1073POPC   C1B16603  21.393  17.834   8.714
 1073POPC   C2B16604  21.476  17.764   8.261
 1073POPC   C3B16605  21.480  17.881   7.832
 1073POPC   C4B16606  21.232  17.756   7.466
 1074POPC   NC316607  19.308  17.721   9.568
 1074POPC   PO416608  18.626  17.811   9.582
 1074POPC   GL116609  18.873  17.576   9.287
 1074POPC   GL216610  18.971  17.852   9.123
 1074POPC   C1A16611  18.971  17.314   8.916
 1074POPC   D2A16612  18.697  17.180   8.557
 1074POPC   C3A16613  18.773  17.451   8.206
 1074POPC   C4A16614  19.125  17.562   7.946
 1074POPC   C1B16615  19.187  17.780   8.726
 1074POPC   C2B16616  19.412  17.987   8.400
 1074POPC   C3B16617  19.249  18.068   7.991
 1074POPC   C4B16618  19.063  17.967   7.615
 1075POPC   NC316619   7.328  12.368   9.430
 1075POPC   PO416620   7.279  11.690   9.449
 1075POPC   GL116621   7.510  11.932   9.137
 1075POPC   GL216622   7.883  11.965   9.208
 1075POPC   C1A16623   7.351  12.192   8.778
 1075POPC   D2A16624   7.143  12.224   8.373
 1075POPC   C3A16625   7.267  12.012   7.997
 1075POPC   C4A16626   7.521  12.303   7.841
 1075POPC   C1B16627   7.866  12.079   8.773
 1075POPC   C2B16628   7.655  12.082   8.371
 1075POPC   C3B16629   7.882  11.983   8.012
 1075POPC   C4B16630   8.025  12.352   7.772
 1076POPC   NC316631   9.090  20.396   9.818
 1076POPC   PO416632   9.171  20.680   9.221
 1076POPC   GL116633   8.851  20.517   9.006
 1076POPC   GL216634   8.635  20.249   9.180
 1076POPC   C1A16635   8.881  20.503   8.585
 1076POPC   D2A16636   8.619  20.614   8.259
 1076POPC   C3A16637   8.911  20.855   8.028
 1076POPC   C4A16638   8.964  20.945   7.613
 1076POPC   C1B16639   8.654  20.086   8.752
 1076POPC   C2B16640   8.792  20.085   8.313
 1076POPC   C3B16641   8.669  20.245   7.893
 1076POPC   C4B16642   8.795  20.326   7.435
 1077POPC   NC316643  25.438  30.004   9.541
 1077POPC   PO416644  24.777  30.193   9.502
 1077POPC   GL116645  25.051  30.087   9.193
 1077POPC   GL216646  25.364  30.262   9.125
 1077POPC   C1A16647  25.123  29.895   8.816
 1077POPC   D2A16648  24.941  29.950   8.433
 1077POPC   C3A16649  25.080  29.737   8.062
 1077POPC   C4A16650  25.183  29.949   7.606
 1077POPC   C1B16651  25.604  30.108   8.793
 1077POPC   C2B16652  25.488  29.910   8.426
 1077POPC   C3B16653  25.498  30.004   8.012
 1077POPC   C4B16654  25.527  29.594   7.863
 1078POPC   NC316655  39.450  36.203   9.462
 1078POPC   PO416656  38.882  35.860   9.630
 1078POPC   GL116657  38.979  36.014   9.201
 1078POPC   GL216658  38.705  35.852   9.041
 1078POPC   C1A16659  39.222  36.203   8.811
 1078POPC   D2A16660  39.590  36.146   8.509
 1078POPC   C3A16661  39.551  36.261   8.065
 1078POPC   C4A16662  39.241  36.240   7.768
 1078POPC   C1B16663  38.761  35.989   8.613
 1078POPC   C2B16664  39.115  36.049   8.320
 1078POPC   C3B16665  39.214  35.788   7.995
 1078POPC   C4B16666  38.816  35.859   7.807
 1079POPC   NC316667  41.139  28.723   9.391
 1079POPC   PO416668  41.774  28.863   9.647
 1079POPC   GL116669  41.587  28.989   9.254
 1079POPC   GL216670  41.436  29.359   9.176
 1079POPC   C1A16671  41.727  29.087   8.858
 1079POPC   D2A16672  41.545  28.978   8.483
 1079POPC   C3A16673  41.717  29.165   8.150
 1079POPC   C4A16674  41.678  29.111   7.739
 1079POPC   C1B16675  41.242  29.347   8.766
 1079POPC   C2B16676  41.299  29.410   8.323
 1079POPC   C3B16677  41.222  29.074   8.037
 1079POPC   C4B16678  41.103  29.178   7.656
 1080POPC   NC316679   5.790  26.401   9.467
 1080POPC   PO416680   6.091  25.734   9.464
 1080POPC   GL116681   5.830  25.950   9.196
 1080POPC   GL216682   6.079  25.955   8.958
 1080POPC   C1A16683   5.624  26.132   8.831
 1080POPC   D2A16684   5.751  25.990   8.424
 1080POPC   C3A16685   5.682  26.224   8.023
 1080POPC   C4A16686   6.012  26.446   7.854
 1080POPC   C1B16687   6.067  25.562   8.717
 1080POPC   C2B16688   6.056  25.580   8.283
 1080POPC   C3B16689   6.117  25.941   8.063
 1080POPC   C4B16690   5.989  25.984   7.657
 1081POPC   NC316691  40.386   2.010   9.449
 1081POPC   PO416692  39.703   2.305   9.538
 1081POPC   GL116693  39.984   2.255   9.193
 1081POPC   GL216694  39.958   1.892   9.157
 1081POPC   C1A16695  40.243   2.151   8.806
 1081POPC   D2A16696  40.136   1.855   8.509
 1081POPC   C3A16697  40.124   2.017   8.112
 1081POPC   C4A16698  40.279   1.933   7.711
 1081POPC   C1B16699  39.713   1.715   8.783
 1081POPC   C2B16700  39.656   1.709   8.297
 1081POPC   C3B16701  39.779   1.762   7.828
 1081POPC   C4B16702  39.596   1.869   7.428
 1082POPC   NC316703   2.136   4.274   9.685
 1082POPC   PO416704   1.676   4.639   9.497
 1082POPC   GL116705   1.909   4.393   9.209
 1082POPC   GL216706   2.249   4.380   9.183
 1082POPC   C1A16707   1.872   4.581   8.805
 1082POPC   D2A16708   1.738   4.570   8.381
 1082POPC   C3A16709   1.987   4.282   8.141
 1082POPC   C4A16710   2.009   4.347   7.682
 1082POPC   C1B16711   2.278   4.237   8.742
 1082POPC   C2B16712   2.510   4.221   8.345
 1082POPC   C3B16713   2.421   4.158   7.917
 1082POPC   C4B16714   2.179   3.814   7.806
 1083POPC   NC316715  42.196  27.038   9.560
 1083POPC   PO416716  42.649  26.469   9.521
 1083POPC   GL116717  42.437  26.767   9.205
 1083POPC   GL216718  42.065  26.768   9.150
 1083POPC   C1A16719  42.381  27.036   8.824
 1083POPC   D2A16720  42.442  27.206   8.388
 1083POPC   C3A16721  42.591  26.824   8.151
 1083POPC   C4A16722  42.684  26.653   7.729
 1083POPC   C1B16723  41.911  26.839   8.738
 1083POPC   C2B16724  42.051  26.894   8.311
 1083POPC   C3B16725  42.154  26.815   7.874
 1083POPC   C4B16726  42.038  26.523   7.561
 1084POPC   NC316727   4.274  13.224   9.559
 1084POPC   PO416728   4.053  13.950   9.546
 1084POPC   GL116729   4.306  13.692   9.305
 1084POPC   GL216730   4.081  13.457   9.165
 1084POPC   C1A16731   4.523  13.695   8.926
 1084POPC   D2A16732   4.547  13.868   8.550
 1084POPC   C3A16733   4.629  13.660   8.172
 1084POPC   C4A16734   4.393  13.726   7.794
 1084POPC   C1B16735   4.064  13.551   8.762
 1084POPC   C2B16736   4.354  13.383   8.507
 1084POPC   C3B16737   4.205  13.345   8.115
 1084POPC   C4B16738   4.165  13.214   7.719
 1085POPC   NC316739  29.457  14.812   9.254
 1085POPC   PO416740  29.677  15.387   9.514
 1085POPC   GL116741  29.874  15.119   9.201
 1085POPC   GL216742  29.595  15.186   8.944
 1085POPC   C1A16743  30.056  15.018   8.790
 1085POPC   D2A16744  29.871  15.140   8.356
 1085POPC   C3A16745  30.054  15.210   7.925
 1085POPC   C4A16746  30.189  15.437   7.568
 1085POPC   C1B16747  29.618  14.803   8.650
 1085POPC   C2B16748  29.701  14.559   8.316
 1085POPC   C3B16749  29.763  14.786   7.957
 1085POPC   C4B16750  30.057  14.771   7.613
 1086POPC   NC316751  38.174  29.987   9.455
 1086POPC   PO416752  38.828  29.840   9.474
 1086POPC   GL116753  38.552  29.851   9.131
 1086POPC   GL216754  38.528  30.201   9.138
 1086POPC   C1A16755  38.601  29.731   8.697
 1086POPC   D2A16756  38.859  29.631   8.363
 1086POPC   C3A16757  38.643  29.579   7.974
 1086POPC   C4A16758  38.409  29.871   7.779
 1086POPC   C1B16759  38.474  30.230   8.681
 1086POPC   C2B16760  38.543  30.046   8.268
 1086POPC   C3B16761  38.397  30.331   7.959
 1086POPC   C4B16762  38.207  30.308   7.583
 1087POPC   NC316763  31.808  27.973   9.446
 1087POPC   PO416764  31.477  27.348   9.492
 1087POPC   GL116765  31.623  27.575   9.112
 1087POPC   GL216766  31.489  27.900   9.048
 1087POPC   C1A16767  31.506  27.533   8.660
 1087POPC   D2A16768  31.668  27.235   8.318
 1087POPC   C3A16769  31.866  27.381   7.907
 1087POPC   C4A16770  31.643  27.399   7.476
 1087POPC   C1B16771  31.588  28.058   8.662
 1087POPC   C2B16772  31.345  27.947   8.292
 1087POPC   C3B16773  31.433  27.683   7.920
 1087POPC   C4B16774  31.405  27.844   7.497
 1088POPC   NC316775  15.845   7.944   9.256
 1088POPC   PO416776  16.220   8.204   9.689
 1088POPC   GL116777  16.129   8.427   9.183
 1088POPC   GL216778  15.808   8.361   8.991
 1088POPC   C1A16779  16.197   8.308   8.678
 1088POPC   D2A16780  16.047   8.026   8.332
 1088POPC   C3A16781  15.959   8.200   7.910
 1088POPC   C4A16782  16.083   8.568   7.679
 1088POPC   C1B16783  15.615   8.090   8.667
 1088POPC   C2B16784  15.532   8.107   8.244
 1088POPC   C3B16785  15.503   8.407   7.947
 1088POPC   C4B16786  15.499   8.106   7.620
 1089POPC   NC316787  24.053  22.036   9.470
 1089POPC   PO416788  24.355  21.354   9.537
 1089POPC   GL116789  24.524  21.469   9.154
 1089POPC   GL216790  24.242  21.698   9.134
 1089POPC   C1A16791  24.523  21.532   8.719
 1089POPC   D2A16792  24.284  21.272   8.484
 1089POPC   C3A16793  24.424  21.330   8.114
 1089POPC   C4A16794  24.473  21.239   7.724
 1089POPC   C1B16795  24.024  21.657   8.728
 1089POPC   C2B16796  24.158  21.762   8.314
 1089POPC   C3B16797  24.169  21.691   7.864
 1089POPC   C4B16798  24.423  21.724   7.490
 1090POPC   NC316799  39.375  11.427   9.613
 1090POPC   PO416800  38.840  11.118   9.367
 1090POPC   GL116801  39.116  11.027   9.075
 1090POPC   GL216802  39.307  11.318   9.118
 1090POPC   C1A16803  39.069  11.191   8.676
 1090POPC   D2A16804  39.152  11.513   8.402
 1090POPC   C3A16805  39.250  11.357   8.030
 1090POPC   C4A16806  39.087  11.138   7.702
 1090POPC   C1B16807  39.514  11.509   8.791
 1090POPC   C2B16808  39.620  11.702   8.411
 1090POPC   C3B16809  39.638  11.853   8.026
 1090POPC   C4B16810  39.432  11.690   7.684
 1091POPC   NC316811   0.436  18.312   9.305
 1091POPC   PO416812   0.733  17.963   9.744
 1091POPC   GL116813   0.331  17.825   9.322
 1091POPC   GL216814   0.010  18.039   9.215
 1091POPC   C1A16815   0.245  17.995   8.792
 1091POPC   D2A16816   0.149  18.025   8.352
 1091POPC   C3A16817   0.508  18.106   8.085
 1091POPC   C4A16818   0.534  18.178   7.636
 1091POPC   C1B16819  44.993  18.433   8.820
 1091POPC   C2B16820  44.975  18.610   8.383
 1091POPC   C3B16821   0.136  18.458   7.996
 1091POPC   C4B16822   0.065  18.037   7.832
 1092POPC   NC316823   9.725  43.696   9.636
 1092POPC   PO416824   9.767  44.372   9.499
 1092POPC   GL116825   9.583  44.033   9.281
 1092POPC   GL216826   9.913  43.886   9.205
 1092POPC   C1A16827   9.568  43.953   8.830
 1092POPC   D2A16828   9.754  44.042   8.429
 1092POPC   C3A16829   9.572  43.903   8.028
 1092POPC   C4A16830   9.692  44.089   7.635
 1092POPC   C1B16831   9.988  43.657   8.821
 1092POPC   C2B16832  10.201  43.629   8.423
 1092POPC   C3B16833  10.028  43.670   8.053
 1092POPC   C4B16834   9.983  43.594   7.671
 1093POPC   NC316835  27.347  40.547   9.357
 1093POPC   PO416836  27.968  40.814   9.493
 1093POPC   GL116837  27.825  40.826   9.071
 1093POPC   GL216838  27.911  41.154   8.974
 1093POPC   C1A16839  27.507  40.683   8.744
 1093POPC   D2A16840  27.236  40.430   8.461
 1093POPC   C3A16841  27.269  40.510   8.021
 1093POPC   C4A16842  27.273  40.427   7.564
 1093POPC   C1B16843  27.833  41.046   8.549
 1093POPC   C2B16844  27.675  40.740   8.248
 1093POPC   C3B16845  27.627  40.789   7.793
 1093POPC   C4B16846  27.771  40.799   7.376
 1094POPC   NC316847  16.605   2.981   9.544
 1094POPC   PO416848  17.194   2.839   9.282
 1094POPC   GL116849  16.748   2.845   9.064
 1094POPC   GL216850  16.579   3.170   9.019
 1094POPC   C1A16851  16.404   2.738   8.718
 1094POPC   D2A16852  16.385   2.420   8.352
 1094POPC   C3A16853  16.380   2.531   7.907
 1094POPC   C4A16854  16.641   2.471   7.518
 1094POPC   C1B16855  16.787   3.045   8.600
 1094POPC   C2B16856  16.549   2.954   8.234
 1094POPC   C3B16857  16.671   2.929   7.801
 1094POPC   C4B16858  17.069   2.698   7.636
 1095POPC   NC316859  31.392   6.939   9.622
 1095POPC   PO416860  31.604   6.339   9.540
 1095POPC   GL116861  31.590   6.597   9.203
 1095POPC   GL216862  31.276   6.749   9.170
 1095POPC   C1A16863  31.433   6.486   8.781
 1095POPC   D2A16864  31.300   6.651   8.435
 1095POPC   C3A16865  31.459   6.526   8.088
 1095POPC   C4A16866  31.392   6.645   7.714
 1095POPC   C1B16867  31.171   6.982   8.798
 1095POPC   C2B16868  31.124   7.138   8.404
 1095POPC   C3B16869  31.114   6.942   8.045
 1095POPC   C4B16870  31.160   7.132   7.689
 1096POPC   NC316871  20.157  37.872   9.607
 1096POPC   PO416872  19.671  37.416   9.616
 1096POPC   GL116873  19.914  37.571   9.247
 1096POPC   GL216874  19.688  37.816   9.112
 1096POPC   C1A16875  20.021  37.670   8.781
 1096POPC   D2A16876  20.053  37.948   8.434
 1096POPC   C3A16877  20.043  37.709   8.035
 1096POPC   C4A16878  19.802  37.324   7.892
 1096POPC   C1B16879  19.509  37.666   8.690
 1096POPC   C2B16880  19.541  37.650   8.211
 1096POPC   C3B16881  19.627  37.864   7.784
 1096POPC   C4B16882  19.730  37.895   7.281
 1097POPC   NC316883  36.364  31.080   9.295
 1097POPC   PO416884  36.531  31.593   9.678
 1097POPC   GL116885  36.131  31.508   9.183
 1097POPC   GL216886  35.789  31.641   9.171
 1097POPC   C1A16887  36.164  31.452   8.706
 1097POPC   D2A16888  36.055  31.173   8.333
 1097POPC   C3A16889  36.134  31.306   7.867
 1097POPC   C4A16890  35.988  31.235   7.404
 1097POPC   C1B16891  35.728  31.985   8.905
 1097POPC   C2B16892  35.821  31.801   8.532
 1097POPC   C3B16893  35.810  31.612   8.158
 1097POPC   C4B16894  35.923  31.776   7.775
 1098POPC   NC316895  40.859   9.247   9.231
 1098POPC   PO416896  40.666   9.707   9.578
 1098POPC   GL116897  40.790   9.819   9.161
 1098POPC   GL216898  41.103   9.721   9.059
 1098POPC   C1A16899  40.813  10.031   8.751
 1098POPC   D2A16900  40.852   9.915   8.314
 1098POPC   C3A16901  40.612   9.626   8.175
 1098POPC   C4A16902  40.487   9.720   7.809
 1098POPC   C1B16903  40.866   9.537   8.676
 1098POPC   C2B16904  40.974   9.307   8.330
 1098POPC   C3B16905  41.129   9.479   7.967
 1098POPC   C4B16906  40.920   9.489   7.591
 1099POPC   NC316907  44.898   6.110   9.492
 1099POPC   PO416908  44.176   6.141   9.513
 1099POPC   GL116909  44.474   6.118   9.211
 1099POPC   GL216910  44.347   5.830   9.067
 1099POPC   C1A16911  44.643   6.174   8.817
 1099POPC   D2A16912  44.799   6.167   8.405
 1099POPC   C3A16913  44.448   6.141   8.148
 1099POPC   C4A16914  44.574   6.076   7.742
 1099POPC   C1B16915  44.568   5.608   8.769
 1099POPC   C2B16916  44.597   5.705   8.384
 1099POPC   C3B16917  44.505   5.618   8.010
 1099POPC   C4B16918  44.645   5.614   7.564
 1100POPC   NC316919  11.580  41.482   9.423
 1100POPC   PO416920  12.256  41.353   9.502
 1100POPC   GL116921  12.167  41.613   9.140
 1100POPC   GL216922  11.946  41.386   9.062
 1100POPC   C1A16923  12.133  41.804   8.729
 1100POPC   D2A16924  12.117  41.871   8.272
 1100POPC   C3A16925  11.917  41.503   8.076
 1100POPC   C4A16926  11.737  41.426   7.657
 1100POPC   C1B16927  12.301  41.232   8.825
 1100POPC   C2B16928  12.434  41.147   8.424
 1100POPC   C3B16929  12.435  41.409   8.081
 1100POPC   C4B16930  12.226  41.340   7.695
 1101POPC   NC316931   9.688  15.761   9.551
 1101POPC   PO416932  10.012  16.329   9.419
 1101POPC   GL116933   9.844  16.057   9.119
 1101POPC   GL216934   9.514  15.936   9.102
 1101POPC   C1A16935   9.963  15.986   8.728
 1101POPC   D2A16936   9.701  16.115   8.411
 1101POPC   C3A16937   9.938  16.154   8.086
 1101POPC   C4A16938  10.029  15.953   7.733
 1101POPC   C1B16939   9.545  15.703   8.747
 1101POPC   C2B16940   9.520  15.519   8.370
 1101POPC   C3B16941   9.653  15.730   8.022
 1101POPC   C4B16942   9.504  16.072   7.765
 1102POPC   NC316943  34.390  26.650   9.572
 1102POPC   PO416944  34.959  26.949   9.555
 1102POPC   GL116945  34.744  26.711   9.202
 1102POPC   GL216946  34.379  26.781   9.090
 1102POPC   C1A16947  34.735  26.506   8.796
 1102POPC   D2A16948  34.676  26.684   8.389
 1102POPC   C3A16949  34.628  26.821   7.988
 1102POPC   C4A16950  34.514  26.779   7.558
 1102POPC   C1B16951  34.251  26.766   8.666
 1102POPC   C2B16952  34.201  26.938   8.281
 1102POPC   C3B16953  34.128  26.911   7.837
 1102POPC   C4B16954  34.088  26.995   7.367
 1103POPC   NC316955  31.313  37.989   9.479
 1103POPC   PO416956  31.416  37.347   9.679
 1103POPC   GL116957  31.423  37.465   9.247
 1103POPC   GL216958  31.751  37.477   9.248
 1103POPC   C1A16959  31.503  37.736   8.865
 1103POPC   D2A16960  31.370  37.785   8.420
 1103POPC   C3A16961  31.628  37.765   8.040
 1103POPC   C4A16962  31.245  37.770   7.772
 1103POPC   C1B16963  31.873  37.365   8.847
 1103POPC   C2B16964  31.620  37.339   8.466
 1103POPC   C3B16965  31.370  37.320   8.070
 1103POPC   C4B16966  31.552  37.383   7.647
 1104POPC   NC316967  34.353   2.064   9.515
 1104POPC   PO416968  35.015   2.084   9.458
 1104POPC   GL116969  34.695   2.033   9.146
 1104POPC   GL216970  34.473   1.725   9.107
 1104POPC   C1A16971  34.475   2.166   8.781
 1104POPC   D2A16972  34.481   1.916   8.416
 1104POPC   C3A16973  34.620   2.051   8.015
 1104POPC   C4A16974  34.962   1.813   7.828
 1104POPC   C1B16975  34.130   1.681   8.793
 1104POPC   C2B16976  33.966   1.878   8.420
 1104POPC   C3B16977  34.133   2.188   8.157
 1104POPC   C4B16978  34.099   2.003   7.772
 1105POPC   NC316979   6.974  33.505   9.472
 1105POPC   PO416980   6.262  33.581   9.513
 1105POPC   GL116981   6.563  33.783   9.184
 1105POPC   GL216982   6.902  33.723   9.044
 1105POPC   C1A16983   6.635  33.967   8.720
 1105POPC   D2A16984   6.788  33.759   8.370
 1105POPC   C3A16985   6.739  33.973   7.983
 1105POPC   C4A16986   6.520  33.904   7.595
 1105POPC   C1B16987   7.043  33.449   8.771
 1105POPC   C2B16988   7.091  33.327   8.357
 1105POPC   C3B16989   6.954  33.443   7.976
 1105POPC   C4B16990   6.999  33.699   7.620
 1106POPC   NC316991  25.703  38.368   9.440
 1106POPC   PO416992  26.297  38.340   9.743
 1106POPC   GL116993  26.166  38.255   9.287
 1106POPC   GL216994  26.276  38.499   9.141
 1106POPC   C1A16995  25.908  38.365   8.847
 1106POPC   D2A16996  25.945  38.276   8.443
 1106POPC   C3A16997  25.814  38.348   8.015
 1106POPC   C4A16998  26.068  38.253   7.651
 1106POPC   C1B16999  26.402  38.559   8.733
 1106POPC   C2B17000  26.208  38.727   8.386
 1106POPC   C3B17001  26.278  38.596   7.994
 1106POPC   C4B17002  26.242  38.747   7.567
 1107POPC   NC317003   8.018  43.414   9.610
 1107POPC   PO417004   8.314  44.012   9.802
 1107POPC   GL117005   8.241  43.960   9.329
 1107POPC   GL217006   7.993  43.738   9.220
 1107POPC   C1A17007   8.178  44.176   8.938
 1107POPC   D2A17008   8.167  44.065   8.475
 1107POPC   C3A17009   8.060  44.234   8.047
 1107POPC   C4A17010   8.178  44.130   7.606
 1107POPC   C1B17011   8.130  43.657   8.837
 1107POPC   C2B17012   8.280  43.512   8.458
 1107POPC   C3B17013   8.141  43.698   8.094
 1107POPC   C4B17014   8.353  43.668   7.721
 1108POPC   NC317015  16.917  15.250   9.715
 1108POPC   PO417016  16.403  15.198   9.289
 1108POPC   GL117017  16.661  15.069   8.981
 1108POPC   GL217018  16.889  15.314   8.942
 1108POPC   C1A17019  16.703  15.102   8.520
 1108POPC   D2A17020  16.452  15.156   8.188
 1108POPC   C3A17021  16.586  14.823   7.997
 1108POPC   C4A17022  16.969  14.749   7.806
 1108POPC   C1B17023  16.629  15.568   8.676
 1108POPC   C2B17024  16.886  15.574   8.319
 1108POPC   C3B17025  16.954  15.254   8.068
 1108POPC   C4B17026  16.773  15.202   7.689
 1109POPC   NC317027  14.745  16.455   9.643
 1109POPC   PO417028  14.088  16.480   9.471
 1109POPC   GL117029  14.302  16.725   9.153
 1109POPC   GL217030  14.674  16.721   9.127
 1109POPC   C1A17031  14.394  17.006   8.813
 1109POPC   D2A17032  14.575  17.197   8.478
 1109POPC   C3A17033  14.507  16.954   8.129
 1109POPC   C4A17034  14.313  16.950   7.733
 1109POPC   C1B17035  14.495  16.501   8.756
 1109POPC   C2B17036  14.240  16.560   8.406
 1109POPC   C3B17037  14.370  16.476   7.984
 1109POPC   C4B17038  14.807  16.312   7.828
 1110POPC   NC317039  11.267  13.768   9.516
 1110POPC   PO417040  11.857  13.428   9.577
 1110POPC   GL117041  11.581  13.499   9.202
 1110POPC   GL217042  11.625  13.854   9.155
 1110POPC   C1A17043  11.239  13.456   8.869
 1110POPC   D2A17044  11.001  13.362   8.505
 1110POPC   C3A17045  11.244  13.325   8.143
 1110POPC   C4A17046  11.291  13.463   7.703
 1110POPC   C1B17047  11.318  13.956   8.856
 1110POPC   C2B17048  11.218  13.829   8.448
 1110POPC   C3B17049  11.182  13.846   8.022
 1110POPC   C4B17050  11.170  13.974   7.609
 1111POPC   NC317051  16.666  21.732   9.348
 1111POPC   PO417052  16.387  22.236   9.743
 1111POPC   GL117053  16.663  22.250   9.339
 1111POPC   GL217054  16.430  22.184   9.089
 1111POPC   C1A17055  16.882  22.246   8.868
 1111POPC   D2A17056  16.731  22.432   8.482
 1111POPC   C3A17057  16.661  22.163   8.137
 1111POPC   C4A17058  16.545  22.345   7.731
 1111POPC   C1B17059  16.475  22.005   8.653
 1111POPC   C2B17060  16.851  21.785   8.451
 1111POPC   C3B17061  16.939  21.654   8.022
 1111POPC   C4B17062  16.827  21.914   7.702
 1112POPC   NC317063  12.653  28.212   9.504
 1112POPC   PO417064  12.878  28.863   9.494
 1112POPC   GL117065  12.902  28.531   9.179
 1112POPC   GL217066  13.050  28.198   9.183
 1112POPC   C1A17067  12.733  28.377   8.779
 1112POPC   D2A17068  12.511  28.330   8.384
 1112POPC   C3A17069  12.681  28.210   7.986
 1112POPC   C4A17070  12.565  28.249   7.550
 1112POPC   C1B17071  13.007  27.933   8.795
 1112POPC   C2B17072  13.104  27.716   8.412
 1112POPC   C3B17073  12.989  27.818   8.002
 1112POPC   C4B17074  13.069  28.048   7.626
 1113POPC   NC317075  43.606  30.753   9.493
 1113POPC   PO417076  44.272  30.567   9.647
 1113POPC   GL117077  44.028  30.432   9.269
 1113POPC   GL217078  43.687  30.326   9.184
 1113POPC   C1A17079  43.956  30.606   8.845
 1113POPC   D2A17080  43.809  30.809   8.467
 1113POPC   C3A17081  43.980  30.587   8.119
 1113POPC   C4A17082  44.038  30.685   7.690
 1113POPC   C1B17083  43.456  30.460   8.788
 1113POPC   C2B17084  43.542  30.401   8.366
 1113POPC   C3B17085  43.510  30.665   7.982
 1113POPC   C4B17086  43.565  30.574   7.554
 1114POPC   NC317087  15.526  12.579   9.326
 1114POPC   PO417088  15.769  13.170   9.522
 1114POPC   GL117089  15.603  13.057   9.163
 1114POPC   GL217090  15.885  12.837   9.032
 1114POPC   C1A17091  15.660  13.218   8.766
 1114POPC   D2A17092  15.810  12.993   8.427
 1114POPC   C3A17093  15.629  13.121   8.051
 1114POPC   C4A17094  15.833  13.029   7.719
 1114POPC   C1B17095  15.692  12.546   8.700
 1114POPC   C2B17096  15.878  12.402   8.315
 1114POPC   C3B17097  16.104  12.714   8.078
 1114POPC   C4B17098  16.321  12.783   7.692
 1115POPC   NC317099  22.540   4.416   9.783
 1115POPC   PO417100  23.151   4.553   9.538
 1115POPC   GL117101  23.058   4.374   9.190
 1115POPC   GL217102  22.794   4.190   9.324
 1115POPC   C1A17103  23.025   4.525   8.765
 1115POPC   D2A17104  23.191   4.257   8.462
 1115POPC   C3A17105  23.061   4.345   8.084
 1115POPC   C4A17106  23.300   4.401   7.721
 1115POPC   C1B17107  22.692   4.157   8.891
 1115POPC   C2B17108  22.653   4.199   8.454
 1115POPC   C3B17109  22.570   4.191   8.011
 1115POPC   C4B17110  22.803   4.357   7.658
 1116POPC   NC317111  34.168  24.265   9.694
 1116POPC   PO417112  33.674  24.632   9.565
 1116POPC   GL117113  33.565  24.457   9.225
 1116POPC   GL217114  33.879  24.269   9.236
 1116POPC   C1A17115  33.400  24.515   8.826
 1116POPC   D2A17116  33.464  24.311   8.456
 1116POPC   C3A17117  33.585  24.512   8.120
 1116POPC   C4A17118  33.726  24.371   7.724
 1116POPC   C1B17119  33.910  24.525   8.870
 1116POPC   C2B17120  33.979  24.608   8.436
 1116POPC   C3B17121  34.108  24.567   7.995
 1116POPC   C4B17122  34.213  24.229   7.675
 1117POPC   NC317123  22.768   5.985   9.443
 1117POPC   PO417124  23.467   6.131   9.421
 1117POPC   GL117125  23.355   5.903   9.041
 1117POPC   GL217126  23.019   5.820   9.033
 1117POPC   C1A17127  23.283   5.765   8.585
 1117POPC   D2A17128  22.904   5.825   8.303
 1117POPC   C3A17129  23.017   5.980   7.875
 1117POPC   C4A17130  23.483   6.012   7.754
 1117POPC   C1B17131  22.826   5.541   8.743
 1117POPC   C2B17132  22.674   5.356   8.411
 1117POPC   C3B17133  23.040   5.282   8.218
 1117POPC   C4B17134  23.053   5.476   7.894
 1118POPC   NC317135  30.005  19.395   9.558
 1118POPC   PO417136  29.799  18.751   9.621
 1118POPC   GL117137  29.929  18.988   9.203
 1118POPC   GL217138  29.646  19.020   8.973
 1118POPC   C1A17139  30.052  19.283   8.841
 1118POPC   D2A17140  29.934  19.323   8.388
 1118POPC   C3A17141  30.078  19.157   7.970
 1118POPC   C4A17142  29.985  18.833   7.652
 1118POPC   C1B17143  29.542  19.392   8.723
 1118POPC   C2B17144  29.400  19.430   8.329
 1118POPC   C3B17145  29.655  19.440   7.970
 1118POPC   C4B17146  29.715  19.260   7.547
 1119POPC   NC317147   7.216  11.412   9.805
 1119POPC   PO417148   6.571  11.427   9.560
 1119POPC   GL117149   6.606  11.385   9.135
 1119POPC   GL217150   6.960  11.335   9.226
 1119POPC   C1A17151   6.514  11.434   8.682
 1119POPC   D2A17152   6.456  11.687   8.324
 1119POPC   C3A17153   6.378  11.443   7.955
 1119POPC   C4A17154   6.614  11.205   7.674
 1119POPC   C1B17155   7.002  11.465   8.824
 1119POPC   C2B17156   6.969  11.249   8.472
 1119POPC   C3B17157   6.909  11.298   8.070
 1119POPC   C4B17158   7.197  11.502   7.796
 1120POPC   NC317159  10.172  11.110   9.670
 1120POPC   PO417160   9.606  11.471   9.506
 1120POPC   GL117161   9.848  11.454   9.135
 1120POPC   GL217162   9.590  11.605   8.997
 1120POPC   C1A17163   9.925  11.418   8.666
 1120POPC   D2A17164   9.915  11.590   8.242
 1120POPC   C3A17165   9.863  11.316   7.937
 1120POPC   C4A17166   9.564  11.142   7.715
 1120POPC   C1B17167   9.385  11.605   8.621
 1120POPC   C2B17168   9.435  11.375   8.231
 1120POPC   C3B17169   9.168  11.400   7.877
 1120POPC   C4B17170   9.198  11.411   7.410
 1121POPC   NC317171  35.627  33.340   9.350
 1121POPC   PO417172  35.306  32.718   9.497
 1121POPC   GL117173  35.309  32.859   9.100
 1121POPC   GL217174  35.217  33.188   9.086
 1121POPC   C1A17175  35.129  32.843   8.686
 1121POPC   D2A17176  35.182  33.019   8.246
 1121POPC   C3A17177  35.271  32.743   7.894
 1121POPC   C4A17178  35.636  32.997   7.821
 1121POPC   C1B17179  35.216  33.345   8.668
 1121POPC   C2B17180  35.294  33.574   8.316
 1121POPC   C3B17181  35.378  33.473   7.944
 1121POPC   C4B17182  35.146  33.212   7.752
 1122POPC   NC317183  20.892  24.642   9.494
 1122POPC   PO417184  20.408  24.117   9.407
 1122POPC   GL117185  20.744  24.244   9.152
 1122POPC   GL217186  20.576  24.576   9.103
 1122POPC   C1A17187  20.875  24.377   8.730
 1122POPC   D2A17188  20.664  24.396   8.299
 1122POPC   C3A17189  20.741  24.223   7.871
 1122POPC   C4A17190  20.602  24.536   7.535
 1122POPC   C1B17191  20.354  24.384   8.771
 1122POPC   C2B17192  20.197  24.559   8.404
 1122POPC   C3B17193  20.260  24.468   7.966
 1122POPC   C4B17194  20.127  24.704   7.612
 1123POPC   NC317195  44.806  10.226   9.427
 1123POPC   PO417196  44.641  10.833   9.721
 1123POPC   GL117197  44.705  10.716   9.260
 1123POPC   GL217198   0.054  10.554   9.127
 1123POPC   C1A17199  44.625  10.543   8.847
 1123POPC   D2A17200  44.606  10.279   8.468
 1123POPC   C3A17201  44.568  10.516   8.100
 1123POPC   C4A17202  44.600  10.750   7.730
 1123POPC   C1B17203  44.996  10.188   8.792
 1123POPC   C2B17204   0.107  10.124   8.328
 1123POPC   C3B17205  44.992  10.265   7.889
 1123POPC   C4B17206  44.986  10.054   7.469
 1124POPC   NC317207  21.101   1.172   9.402
 1124POPC   PO417208  21.545   1.610   9.556
 1124POPC   GL117209  21.652   1.351   9.177
 1124POPC   GL217210  21.369   1.193   8.985
 1124POPC   C1A17211  21.697   1.458   8.723
 1124POPC   D2A17212  21.681   1.309   8.304
 1124POPC   C3A17213  21.338   1.202   8.086
 1124POPC   C4A17214  21.320   1.279   7.658
 1124POPC   C1B17215  21.383   1.005   8.596
 1124POPC   C2B17216  21.144   0.780   8.309
 1124POPC   C3B17217  21.124   0.805   7.863
 1124POPC   C4B17218  21.017   0.928   7.440
 1125POPC   NC317219  24.417  41.059   9.553
 1125POPC   PO417220  24.952  40.646   9.657
 1125POPC   GL117221  24.729  40.708   9.229
 1125POPC   GL217222  24.375  40.775   9.125
 1125POPC   C1A17223  24.706  40.713   8.759
 1125POPC   D2A17224  24.475  40.725   8.378
 1125POPC   C3A17225  24.701  40.599   8.010
 1125POPC   C4A17226  24.653  40.775   7.627
 1125POPC   C1B17227  24.145  40.610   8.776
 1125POPC   C2B17228  24.022  40.351   8.425
 1125POPC   C3B17229  24.232  40.395   8.060
 1125POPC   C4B17230  24.174  40.752   7.783
 1126POPC   NC317231  42.616  21.358   9.318
 1126POPC   PO417232  43.120  21.536   9.728
 1126POPC   GL117233  43.077  21.597   9.230
 1126POPC   GL217234  43.396  21.463   9.186
 1126POPC   C1A17235  43.026  21.310   8.782
 1126POPC   D2A17236  43.221  21.155   8.350
 1126POPC   C3A17237  42.967  21.315   7.980
 1126POPC   C4A17238  42.733  21.710   7.945
 1126POPC   C1B17239  43.502  21.424   8.756
 1126POPC   C2B17240  43.534  21.574   8.349
 1126POPC   C3B17241  43.448  21.476   7.938
 1126POPC   C4B17242  43.539  21.697   7.551
 1127POPC   NC317243  30.945   5.388   9.437
 1127POPC   PO417244  30.328   5.076   9.458
 1127POPC   GL117245  30.618   5.160   9.119
 1127POPC   GL217246  30.924   4.945   9.169
 1127POPC   C1A17247  30.900   5.260   8.761
 1127POPC   D2A17248  31.000   5.121   8.352
 1127POPC   C3A17249  30.764   5.278   8.009
 1127POPC   C4A17250  30.457   5.191   7.666
 1127POPC   C1B17251  30.668   4.758   8.831
 1127POPC   C2B17252  30.679   4.594   8.461
 1127POPC   C3B17253  30.668   4.806   8.101
 1127POPC   C4B17254  30.792   4.786   7.686
 1128POPC   NC317255  21.824  32.389   9.428
 1128POPC   PO417256  21.186  32.365   9.625
 1128POPC   GL117257  21.374  32.226   9.235
 1128POPC   GL217258  21.073  32.222   9.087
 1128POPC   C1A17259  21.615  32.165   8.815
 1128POPC   D2A17260  21.603  32.137   8.357
 1128POPC   C3A17261  21.527  32.029   7.921
 1128POPC   C4A17262  21.463  32.223   7.515
 1128POPC   C1B17263  21.142  32.102   8.665
 1128POPC   C2B17264  21.098  32.055   8.225
 1128POPC   C3B17265  21.047  32.135   7.811
 1128POPC   C4B17266  20.975  32.387   7.484
 1129POPC   NC317267  12.469   3.500   9.509
 1129POPC   PO417268  12.935   2.905   9.493
 1129POPC   GL117269  13.021   2.825   9.125
 1129POPC   GL217270  12.878   2.524   9.100
 1129POPC   C1A17271  12.863   2.941   8.742
 1129POPC   D2A17272  12.697   2.811   8.359
 1129POPC   C3A17273  12.922   2.954   8.002
 1129POPC   C4A17274  13.169   2.599   7.839
 1129POPC   C1B17275  12.515   2.553   8.845
 1129POPC   C2B17276  12.387   2.412   8.456
 1129POPC   C3B17277  12.624   2.396   8.072
 1129POPC   C4B17278  12.642   2.633   7.723
 1130POPC   NC317279  15.976  22.127   9.565
 1130POPC   PO417280  15.902  22.690   9.500
 1130POPC   GL117281  15.941  22.347   9.106
 1130POPC   GL217282  15.984  21.936   9.104
 1130POPC   C1A17283  15.887  22.169   8.665
 1130POPC   D2A17284  15.737  22.232   8.228
 1130POPC   C3A17285  16.137  22.249   8.023
 1130POPC   C4A17286  16.335  21.883   7.844
 1130POPC   C1B17287  16.057  21.685   8.724
 1130POPC   C2B17288  16.046  21.802   8.284
 1130POPC   C3B17289  15.820  21.865   7.876
 1130POPC   C4B17290  15.975  21.656   7.526
 1131POPC   NC317291  34.075  28.630   9.558
 1131POPC   PO417292  33.764  27.961   9.601
 1131POPC   GL117293  33.698  28.198   9.229
 1131POPC   GL217294  33.780  28.541   9.141
 1131POPC   C1A17295  33.594  28.141   8.803
 1131POPC   D2A17296  33.846  28.040   8.438
 1131POPC   C3A17297  33.796  28.252   8.045
 1131POPC   C4A17298  33.967  28.190   7.626
 1131POPC   C1B17299  33.924  28.533   8.701
 1131POPC   C2B17300  34.054  28.645   8.267
 1131POPC   C3B17301  33.947  28.662   7.792
 1131POPC   C4B17302  33.845  28.641   7.362
 1132POPC   NC317303  32.981  21.392   9.566
 1132POPC   PO417304  32.459  20.988   9.331
 1132POPC   GL117305  32.871  21.173   9.122
 1132POPC   GL217306  33.098  21.504   9.106
 1132POPC   C1A17307  33.135  21.180   8.743
 1132POPC   D2A17308  32.963  21.133   8.390
 1132POPC   C3A17309  33.175  20.973   8.080
 1132POPC   C4A17310  33.161  21.159   7.705
 1132POPC   C1B17311  33.043  21.759   8.756
 1132POPC   C2B17312  33.250  21.761   8.409
 1132POPC   C3B17313  33.064  21.527   8.092
 1132POPC   C4B17314  33.081  21.645   7.699
 1133POPC   NC317315  23.615  23.964   9.501
 1133POPC   PO417316  23.306  23.420   9.297
 1133POPC   GL117317  23.455  23.759   9.041
 1133POPC   GL217318  23.829  23.958   9.057
 1133POPC   C1A17319  23.375  23.542   8.633
 1133POPC   D2A17320  23.622  23.251   8.372
 1133POPC   C3A17321  23.545  23.368   7.974
 1133POPC   C4A17322  23.310  23.766   7.882
 1133POPC   C1B17323  23.831  23.736   8.692
 1133POPC   C2B17324  23.640  23.801   8.291
 1133POPC   C3B17325  23.847  23.764   7.933
 1133POPC   C4B17326  24.159  23.385   7.922
 1134POPC   NC317327  19.601   4.647   9.330
 1134POPC   PO417328  19.432   5.158   9.678
 1134POPC   GL117329  19.141   4.991   9.319
 1134POPC   GL217330  19.338   4.956   9.032
 1134POPC   C1A17331  18.860   4.887   8.915
 1134POPC   D2A17332  18.937   4.974   8.466
 1134POPC   C3A17333  19.132   4.762   8.121
 1134POPC   C4A17334  18.993   4.904   7.724
 1134POPC   C1B17335  19.520   5.171   8.699
 1134POPC   C2B17336  19.550   5.106   8.271
 1134POPC   C3B17337  19.242   5.293   8.008
 1134POPC   C4B17338  19.275   5.322   7.558
 1135POPC   NC317339  13.214   1.664   9.662
 1135POPC   PO417340  12.791   2.213   9.495
 1135POPC   GL117341  13.083   2.056   9.247
 1135POPC   GL217342  12.866   1.803   9.122
 1135POPC   C1A17343  13.112   2.137   8.818
 1135POPC   D2A17344  13.013   1.788   8.547
 1135POPC   C3A17345  13.080   1.930   8.128
 1135POPC   C4A17346  13.157   1.716   7.772
 1135POPC   C1B17347  12.596   2.029   8.785
 1135POPC   C2B17348  12.565   1.950   8.323
 1135POPC   C3B17349  12.651   1.943   7.861
 1135POPC   C4B17350  12.482   2.188   7.508
 1136POPC   NC317351  15.705  21.164   9.537
 1136POPC   PO417352  16.145  21.696   9.559
 1136POPC   GL117353  16.012  21.415   9.194
 1136POPC   GL217354  16.184  21.105   9.185
 1136POPC   C1A17355  15.771  21.249   8.813
 1136POPC   D2A17356  15.668  21.454   8.420
 1136POPC   C3A17357  15.846  21.388   8.024
 1136POPC   C4A17358  15.711  21.090   7.788
 1136POPC   C1B17359  16.267  21.216   8.773
 1136POPC   C2B17360  16.065  21.132   8.404
 1136POPC   C3B17361  16.159  20.976   8.020
 1136POPC   C4B17362  16.454  20.975   7.719
 1137POPC   NC317363  35.241  34.088   9.713
 1137POPC   PO417364  34.887  33.546   9.454
 1137POPC   GL117365  34.568  33.651   9.108
 1137POPC   GL217366  34.181  33.623   9.005
 1137POPC   C1A17367  34.675  33.694   8.680
 1137POPC   D2A17368  34.708  33.993   8.390
 1137POPC   C3A17369  34.521  33.843   8.040
 1137POPC   C4A17370  34.282  33.896   7.669
 1137POPC   C1B17371  34.285  33.357   8.710
 1137POPC   C2B17372  34.353  33.414   8.291
 1137POPC   C3B17373  34.097  33.549   8.003
 1137POPC   C4B17374  34.102  33.258   7.724
 1138POPC   NC317375  29.702  38.916   9.472
 1138POPC   PO417376  30.174  38.434   9.428
 1138POPC   GL117377  30.014  38.693   9.129
 1138POPC   GL217378  29.674  38.522   9.143
 1138POPC   C1A17379  29.939  38.629   8.719
 1138POPC   D2A17380  29.882  38.305   8.462
 1138POPC   C3A17381  30.049  38.355   8.060
 1138POPC   C4A17382  29.926  38.711   7.872
 1138POPC   C1B17383  29.505  38.199   8.848
 1138POPC   C2B17384  29.369  38.203   8.416
 1138POPC   C3B17385  29.519  38.519   8.142
 1138POPC   C4B17386  29.515  38.512   7.701
 1139POPC   NC317387  41.209   0.546   9.587
 1139POPC   PO417388  41.789   0.465   9.635
 1139POPC   GL117389  41.670   0.438   9.199
 1139POPC   GL217390  41.360   0.635   9.120
 1139POPC   C1A17391  41.702   0.511   8.730
 1139POPC   D2A17392  41.508   0.371   8.313
 1139POPC   C3A17393  41.791   0.295   7.952
 1139POPC   C4A17394  41.748   0.298   7.486
 1139POPC   C1B17395  41.181   0.528   8.712
 1139POPC   C2B17396  40.976   0.473   8.314
 1139POPC   C3B17397  41.102   0.200   8.008
 1139POPC   C4B17398  41.347   0.469   7.761
 1140POPC   NC317399  44.635   5.034   9.530
 1140POPC   PO417400  44.674   5.686   9.429
 1140POPC   GL117401  44.407   5.312   9.139
 1140POPC   GL217402  44.359   4.936   9.128
 1140POPC   C1A17403  44.379   5.139   8.658
 1140POPC   D2A17404  44.666   5.192   8.282
 1140POPC   C3A17405  44.588   5.171   7.815
 1140POPC   C4A17406  44.440   5.192   7.345
 1140POPC   C1B17407  44.552   4.667   8.838
 1140POPC   C2B17408  44.469   4.540   8.424
 1140POPC   C3B17409  44.635   4.711   8.065
 1140POPC   C4B17410  44.881   4.759   7.729
 1141POPC   NC317411  35.488   0.943   9.430
 1141POPC   PO417412  35.689   1.499   9.225
 1141POPC   GL117413  35.360   1.343   8.989
 1141POPC   GL217414  35.225   1.003   8.984
 1141POPC   C1A17415  35.443   1.253   8.582
 1141POPC   D2A17416  35.149   1.221   8.285
 1141POPC   C3A17417  35.284   1.437   7.951
 1141POPC   C4A17418  35.722   1.514   7.755
 1141POPC   C1B17419  35.320   0.761   8.599
 1141POPC   C2B17420  35.570   0.650   8.255
 1141POPC   C3B17421  35.506   0.980   8.012
 1141POPC   C4B17422  35.301   1.058   7.640
 1142POPC   NC317423  39.725  25.844   9.501
 1142POPC   PO417424  40.361  26.126   9.549
 1142POPC   GL117425  40.126  25.963   9.211
 1142POPC   GL217426  40.056  26.235   9.054
 1142POPC   C1A17427  40.060  25.793   8.786
 1142POPC   D2A17428  39.879  25.801   8.367
 1142POPC   C3A17429  40.037  26.025   7.988
 1142POPC   C4A17430  40.091  25.898   7.559
 1142POPC   C1B17431  39.825  26.428   8.737
 1142POPC   C2B17432  39.700  26.315   8.335
 1142POPC   C3B17433  39.788  26.551   7.986
 1142POPC   C4B17434  39.957  26.431   7.604
 1143POPC   NC317435   0.072   7.954   9.427
 1143POPC   PO417436   0.820   8.000   9.494
 1143POPC   GL117437   0.589   8.207   9.149
 1143POPC   GL217438   0.309   8.421   9.234
 1143POPC   C1A17439   0.595   8.480   8.786
 1143POPC   D2A17440   0.511   8.287   8.410
 1143POPC   C3A17441   0.627   8.420   8.034
 1143POPC   C4A17442   0.717   8.475   7.627
 1143POPC   C1B17443   0.169   8.206   8.835
 1143POPC   C2B17444   0.043   8.109   8.433
 1143POPC   C3B17445   0.249   7.998   8.060
 1143POPC   C4B17446   0.261   8.250   7.712
 1144POPC   NC317447  40.668  38.539   9.552
 1144POPC   PO417448  41.279  38.720   9.329
 1144POPC   GL117449  40.933  38.468   9.117
 1144POPC   GL217450  40.655  38.655   9.069
 1144POPC   C1A17451  40.802  38.338   8.680
 1144POPC   D2A17452  41.034  38.237   8.299
 1144POPC   C3A17453  40.809  38.329   7.946
 1144POPC   C4A17454  40.427  38.152   7.763
 1144POPC   C1B17455  40.942  38.819   8.767
 1144POPC   C2B17456  41.079  38.738   8.384
 1144POPC   C3B17457  41.148  38.725   7.976
 1144POPC   C4B17458  40.837  38.800   7.738
 1145POPC   NC317459  41.272  15.733   9.396
 1145POPC   PO417460  41.573  16.406   9.480
 1145POPC   GL117461  41.604  16.075   9.214
 1145POPC   GL217462  41.900  15.886   9.242
 1145POPC   C1A17463  41.584  15.846   8.815
 1145POPC   D2A17464  41.464  15.665   8.421
 1145POPC   C3A17465  41.505  15.870   8.017
 1145POPC   C4A17466  41.315  16.059   7.679
 1145POPC   C1B17467  42.004  16.228   8.944
 1145POPC   C2B17468  42.008  16.283   8.529
 1145POPC   C3B17469  41.878  16.191   8.141
 1145POPC   C4B17470  41.809  16.346   7.740
 1146POPC   NC317471   2.863  38.811   9.613
 1146POPC   PO417472   2.529  38.246   9.461
 1146POPC   GL117473   2.685  38.539   9.132
 1146POPC   GL217474   3.000  38.705   9.148
 1146POPC   C1A17475   2.907  38.388   8.740
 1146POPC   D2A17476   2.975  38.121   8.360
 1146POPC   C3A17477   2.810  38.295   7.991
 1146POPC   C4A17478   2.499  38.379   7.683
 1146POPC   C1B17479   3.024  38.899   8.778
 1146POPC   C2B17480   2.853  38.777   8.400
 1146POPC   C3B17481   3.095  38.756   8.041
 1146POPC   C4B17482   3.019  38.602   7.662
 1147POPC   NC317483  35.830  20.045   9.366
 1147POPC   PO417484  36.365  19.698   9.510
 1147POPC   GL117485  36.304  19.754   9.081
 1147POPC   GL217486  36.197  20.066   8.989
 1147POPC   C1A17487  36.102  19.646   8.704
 1147POPC   D2A17488  36.014  19.940   8.368
 1147POPC   C3A17489  36.211  19.897   7.962
 1147POPC   C4A17490  35.961  19.817   7.606
 1147POPC   C1B17491  36.475  19.982   8.605
 1147POPC   C2B17492  36.662  20.069   8.184
 1147POPC   C3B17493  36.524  20.318   7.873
 1147POPC   C4B17494  36.240  20.282   7.546
 1148POPC   NC317495  24.259   5.230   9.627
 1148POPC   PO417496  24.659   4.693   9.682
 1148POPC   GL117497  24.787   4.978   9.302
 1148POPC   GL217498  24.477   5.129   9.167
 1148POPC   C1A17499  24.867   5.134   8.850
 1148POPC   D2A17500  24.966   5.132   8.396
 1148POPC   C3A17501  24.699   5.215   8.051
 1148POPC   C4A17502  24.378   5.036   7.830
 1148POPC   C1B17503  24.359   5.013   8.731
 1148POPC   C2B17504  24.231   5.193   8.317
 1148POPC   C3B17505  23.955   5.302   7.967
 1148POPC   C4B17506  23.957   5.122   7.558
 1149POPC   NC317507  26.693   8.678   9.578
 1149POPC   PO417508  27.159   9.173   9.617
 1149POPC   GL117509  26.852   9.044   9.248
 1149POPC   GL217510  26.573   8.857   9.121
 1149POPC   C1A17511  26.887   9.088   8.784
 1149POPC   D2A17512  26.962   8.904   8.373
 1149POPC   C3A17513  27.069   9.048   7.952
 1149POPC   C4A17514  26.791   9.103   7.564
 1149POPC   C1B17515  26.383   8.830   8.749
 1149POPC   C2B17516  26.489   8.721   8.355
 1149POPC   C3B17517  26.615   8.801   7.932
 1149POPC   C4B17518  26.493   8.687   7.497
 1150POPC   NC317519  27.034  40.011   9.499
 1150POPC   PO417520  26.336  39.949   9.456
 1150POPC   GL117521  26.631  40.116   9.187
 1150POPC   GL217522  26.779  39.783   9.115
 1150POPC   C1A17523  26.924  40.235   8.856
 1150POPC   D2A17524  26.899  39.978   8.506
 1150POPC   C3A17525  26.913  40.168   8.121
 1150POPC   C4A17526  26.799  40.277   7.689
 1150POPC   C1B17527  26.543  39.629   8.785
 1150POPC   C2B17528  26.482  39.714   8.373
 1150POPC   C3B17529  26.532  39.644   7.944
 1150POPC   C4B17530  26.921  39.778   7.806
 1151POPC   NC317531  38.861  28.493   9.451
 1151POPC   PO417532  39.350  27.903   9.470
 1151POPC   GL117533  39.096  28.129   9.159
 1151POPC   GL217534  39.243  28.485   9.097
 1151POPC   C1A17535  38.982  28.258   8.726
 1151POPC   D2A17536  39.211  28.541   8.455
 1151POPC   C3A17537  39.402  28.352   8.136
 1151POPC   C4A17538  39.206  28.411   7.756
 1151POPC   C1B17539  38.928  28.750   8.850
 1151POPC   C2B17540  38.864  28.888   8.422
 1151POPC   C3B17541  38.891  28.739   8.000
 1151POPC   C4B17542  38.699  28.485   7.697
 1152POPC   NC317543  43.507   8.051   9.839
 1152POPC   PO417544  43.887   8.377   9.436
 1152POPC   GL117545  43.859   7.970   9.189
 1152POPC   GL217546  44.186   7.758   9.107
 1152POPC   C1A17547  43.733   7.959   8.755
 1152POPC   D2A17548  43.555   8.147   8.412
 1152POPC   C3A17549  43.804   8.301   8.099
 1152POPC   C4A17550  43.798   7.980   7.828
 1152POPC   C1B17551  44.205   8.125   8.807
 1152POPC   C2B17552  44.139   8.037   8.368
 1152POPC   C3B17553  44.260   8.163   7.918
 1152POPC   C4B17554  44.061   8.273   7.491
 1153POPC   NC317555  31.773  10.404   9.400
 1153POPC   PO417556  31.069  10.266   9.371
 1153POPC   GL117557  31.370  10.507   9.133
 1153POPC   GL217558  31.575  10.234   8.967
 1153POPC   C1A17559  31.636  10.706   8.813
 1153POPC   D2A17560  31.556  10.491   8.441
 1153POPC   C3A17561  31.736  10.599   8.066
 1153POPC   C4A17562  31.513  10.674   7.712
 1153POPC   C1B17563  31.197  10.265   8.732
 1153POPC   C2B17564  31.104  10.204   8.336
 1153POPC   C3B17565  31.308  10.305   7.994
 1153POPC   C4B17566  31.125  10.355   7.593
 1154POPC   NC317567  16.514  24.331   9.612
 1154POPC   PO417568  16.832  24.871   9.578
 1154POPC   GL117569  16.931  24.636   9.190
 1154POPC   GL217570  16.748  24.345   9.045
 1154POPC   C1A17571  16.918  24.749   8.742
 1154POPC   D2A17572  16.763  24.485   8.406
 1154POPC   C3A17573  16.677  24.612   7.992
 1154POPC   C4A17574  16.700  24.456   7.571
 1154POPC   C1B17575  16.497  24.155   8.684
 1154POPC   C2B17576  16.388  24.129   8.207
 1154POPC   C3B17577  16.277  24.184   7.754
 1154POPC   C4B17578  16.234  24.330   7.309
 1155POPC   NC317579   4.886  24.962   9.574
 1155POPC   PO417580   5.018  25.628   9.434
 1155POPC   GL117581   5.211  25.365   9.120
 1155POPC   GL217582   5.075  25.025   9.107
 1155POPC   C1A17583   5.316  25.204   8.707
 1155POPC   D2A17584   5.070  25.187   8.349
 1155POPC   C3A17585   5.241  25.358   7.975
 1155POPC   C4A17586   5.346  25.518   7.567
 1155POPC   C1B17587   4.781  25.299   8.853
 1155POPC   C2B17588   4.602  25.396   8.443
 1155POPC   C3B17589   4.692  25.257   8.008
 1155POPC   C4B17590   4.917  25.222   7.598
 1156POPC   NC317591  13.393   0.876   9.763
 1156POPC   PO417592  13.765   1.309   9.466
 1156POPC   GL117593  13.552   1.191   9.081
 1156POPC   GL217594  13.854   1.044   8.952
 1156POPC   C1A17595  13.364   1.379   8.655
 1156POPC   D2A17596  13.221   1.437   8.218
 1156POPC   C3A17597  13.432   1.297   7.848
 1156POPC   C4A17598  13.666   1.621   7.585
 1156POPC   C1B17599  13.827   1.220   8.590
 1156POPC   C2B17600  13.759   1.462   8.268
 1156POPC   C3B17601  13.938   1.340   7.906
 1156POPC   C4B17602  13.816   0.967   7.699
 1157POPC   NC317603  21.339  36.751   9.666
 1157POPC   PO417604  21.583  37.410   9.512
 1157POPC   GL117605  21.467  37.129   9.093
 1157POPC   GL217606  21.353  36.793   9.164
 1157POPC   C1A17607  21.532  36.951   8.709
 1157POPC   D2A17608  21.551  36.704   8.394
 1157POPC   C3A17609  21.595  36.915   8.025
 1157POPC   C4A17610  21.809  36.787   7.695
 1157POPC   C1B17611  21.040  36.886   8.832
 1157POPC   C2B17612  20.975  36.671   8.462
 1157POPC   C3B17613  21.108  36.648   8.063
 1157POPC   C4B17614  21.126  36.971   7.805
 1158POPC   NC317615   3.570  33.434   9.543
 1158POPC   PO417616   3.665  32.800   9.324
 1158POPC   GL117617   3.305  33.033   9.134
 1158POPC   GL217618   3.351  33.386   9.078
 1158POPC   C1A17619   3.155  32.969   8.691
 1158POPC   D2A17620   3.232  32.651   8.344
 1158POPC   C3A17621   3.471  32.849   7.975
 1158POPC   C4A17622   3.369  33.308   7.854
 1158POPC   C1B17623   3.576  33.338   8.708
 1158POPC   C2B17624   3.656  33.240   8.277
 1158POPC   C3B17625   3.873  33.412   7.903
 1158POPC   C4B17626   3.846  33.475   7.433
 1159POPC   NC317627  14.147   7.171   9.392
 1159POPC   PO417628  14.767   7.511   9.560
 1159POPC   GL117629  14.668   7.357   9.138
 1159POPC   GL217630  14.406   7.124   8.959
 1159POPC   C1A17631  14.640   7.463   8.695
 1159POPC   D2A17632  14.564   7.231   8.298
 1159POPC   C3A17633  14.420   7.539   8.010
 1159POPC   C4A17634  14.077   7.719   7.733
 1159POPC   C1B17635  13.971   7.083   8.769
 1159POPC   C2B17636  14.007   7.050   8.336
 1159POPC   C3B17637  14.047   7.211   7.959
 1159POPC   C4B17638  13.780   7.032   7.708
 1160POPC   NC317639  13.193  12.401   9.338
 1160POPC   PO417640  13.533  11.850   9.482
 1160POPC   GL117641  13.621  11.992   9.061
 1160POPC   GL217642  13.305  12.038   8.989
 1160POPC   C1A17643  13.635  12.204   8.665
 1160POPC   D2A17644  13.345  12.102   8.400
 1160POPC   C3A17645  13.558  12.114   8.049
 1160POPC   C4A17646  13.868  12.169   7.734
 1160POPC   C1B17647  13.431  11.676   8.724
 1160POPC   C2B17648  13.388  11.586   8.319
 1160POPC   C3B17649  13.184  11.773   7.987
 1160POPC   C4B17650  13.258  12.015   7.612
 1161POPC   NC317651   6.947   9.164   9.641
 1161POPC   PO417652   6.440   8.697   9.482
 1161POPC   GL117653   6.426   8.897   9.095
 1161POPC   GL217654   6.603   9.206   9.218
 1161POPC   C1A17655   6.391   8.887   8.642
 1161POPC   D2A17656   6.780   8.781   8.394
 1161POPC   C3A17657   6.628   8.708   7.993
 1161POPC   C4A17658   6.295   8.920   7.765
 1161POPC   C1B17659   6.776   9.164   8.804
 1161POPC   C2B17660   6.637   9.271   8.364
 1161POPC   C3B17661   6.834   9.162   7.991
 1161POPC   C4B17662   6.772   9.284   7.554
 1162POPC   NC317663  17.495   3.152   9.405
 1162POPC   PO417664  16.932   3.396   9.634
 1162POPC   GL117665  17.273   3.579   9.270
 1162POPC   GL217666  17.538   3.842   9.319
 1162POPC   C1A17667  17.398   3.440   8.803
 1162POPC   D2A17668  17.289   3.392   8.344
 1162POPC   C3A17669  17.527   3.389   7.938
 1162POPC   C4A17670  17.648   3.416   7.498
 1162POPC   C1B17671  17.691   3.826   8.894
 1162POPC   C2B17672  17.699   3.714   8.415
 1162POPC   C3B17673  17.704   3.865   7.981
 1162POPC   C4B17674  17.919   3.822   7.599
 1163POPC   NC317675   8.560  19.549   9.843
 1163POPC   PO417676   8.935  19.124   9.510
 1163POPC   GL117677   8.940  18.929   9.148
 1163POPC   GL217678   8.593  18.939   9.084
 1163POPC   C1A17679   9.236  18.979   8.835
 1163POPC   D2A17680   9.315  19.240   8.491
 1163POPC   C3A17681   9.163  19.052   8.139
 1163POPC   C4A17682   9.083  18.833   7.754
 1163POPC   C1B17683   8.753  19.156   8.722
 1163POPC   C2B17684   8.643  19.023   8.329
 1163POPC   C3B17685   8.707  19.131   7.909
 1163POPC   C4B17686   9.075  19.363   7.745
 1164POPC   NC317687  34.087  32.720   9.395
 1164POPC   PO417688  33.905  33.377   9.366
 1164POPC   GL117689  33.571  33.127   9.113
 1164POPC   GL217690  33.329  33.383   8.962
 1164POPC   C1A17691  33.622  32.863   8.733
 1164POPC   D2A17692  33.836  32.657   8.382
 1164POPC   C3A17693  33.829  32.837   7.996
 1164POPC   C4A17694  34.023  32.777   7.629
 1164POPC   C1B17695  33.740  33.414   8.731
 1164POPC   C2B17696  33.859  33.229   8.347
 1164POPC   C3B17697  33.637  33.305   7.960
 1164POPC   C4B17698  33.641  33.136   7.565
 1165POPC   NC317699  18.488  20.606   9.427
 1165POPC   PO417700  19.176  20.651   9.513
 1165POPC   GL117701  19.195  20.542   9.125
 1165POPC   GL217702  18.899  20.686   9.084
 1165POPC   C1A17703  19.396  20.363   8.774
 1165POPC   D2A17704  19.291  20.506   8.384
 1165POPC   C3A17705  19.320  20.302   8.020
 1165POPC   C4A17706  18.973  20.292   7.757
 1165POPC   C1B17707  19.076  20.845   8.699
 1165POPC   C2B17708  19.098  20.970   8.253
 1165POPC   C3B17709  19.121  20.767   7.847
 1165POPC   C4B17710  19.049  20.862   7.406
 1166POPC   NC317711  18.338   6.914   9.483
 1166POPC   PO417712  18.425   6.266   9.496
 1166POPC   GL117713  18.428   6.522   9.150
 1166POPC   GL217714  18.081   6.603   9.173
 1166POPC   C1A17715  18.511   6.795   8.792
 1166POPC   D2A17716  18.464   6.839   8.329
 1166POPC   C3A17717  18.436   6.422   8.125
 1166POPC   C4A17718  18.551   6.310   7.677
 1166POPC   C1B17719  18.069   6.492   8.775
 1166POPC   C2B17720  17.817   6.407   8.449
 1166POPC   C3B17721  17.971   6.706   8.184
 1166POPC   C4B17722  18.213   6.759   7.807
 1167POPC   NC317723  44.254   2.735   9.927
 1167POPC   PO417724  44.793   2.652   9.573
 1167POPC   GL117725  44.728   2.897   9.176
 1167POPC   GL217726  44.467   3.167   9.160
 1167POPC   C1A17727  44.672   2.685   8.768
 1167POPC   D2A17728  44.956   2.450   8.496
 1167POPC   C3A17729  44.825   2.494   8.106
 1167POPC   C4A17730  44.969   2.584   7.686
 1167POPC   C1B17731  44.618   3.195   8.736
 1167POPC   C2B17732  44.489   3.050   8.316
 1167POPC   C3B17733  44.592   2.923   7.886
 1167POPC   C4B17734  44.487   2.644   7.517
 1168POPC   NC317735  14.681  12.782   9.538
 1168POPC   PO417736  14.224  13.289   9.644
 1168POPC   GL117737  14.254  12.883   9.254
 1168POPC   GL217738  14.519  12.610   9.107
 1168POPC   C1A17739  14.211  12.784   8.757
 1168POPC   D2A17740  14.475  12.723   8.369
 1168POPC   C3A17741  14.478  13.023   8.009
 1168POPC   C4A17742  14.170  13.030   7.692
 1168POPC   C1B17743  14.640  12.307   8.770
 1168POPC   C2B17744  14.715  12.274   8.315
 1168POPC   C3B17745  14.750  12.565   7.955
 1168POPC   C4B17746  14.580  12.742   7.561
 1169POPC   NC317747  21.645   0.373   9.181
 1169POPC   PO417748  22.157   0.591   9.485
 1169POPC   GL117749  22.187   0.338   9.114
 1169POPC   GL217750  22.532   0.223   9.141
 1169POPC   C1A17751  22.052   0.324   8.684
 1169POPC   D2A17752  22.168   0.520   8.317
 1169POPC   C3A17753  22.002   0.341   7.965
 1169POPC   C4A17754  21.837   0.395   7.552
 1169POPC   C1B17755  22.555   0.399   8.744
 1169POPC   C2B17756  22.582   0.232   8.343
 1169POPC   C3B17757  22.551   0.368   7.926
 1169POPC   C4B17758  22.316   0.185   7.598
 1170POPC   NC317759  32.031  38.681   9.558
 1170POPC   PO417760  32.542  38.404   9.299
 1170POPC   GL117761  32.091  38.366   9.131
 1170POPC   GL217762  31.820  38.661   9.110
 1170POPC   C1A17763  31.905  38.284   8.712
 1170POPC   D2A17764  32.110  38.215   8.296
 1170POPC   C3A17765  31.951  38.333   7.885
 1170POPC   C4A17766  32.378  38.334   7.765
 1170POPC   C1B17767  32.118  38.735   8.793
 1170POPC   C2B17768  32.050  38.699   8.416
 1170POPC   C3B17769  32.237  38.719   8.066
 1170POPC   C4B17770  31.985  38.965   7.840
 1171POPC   NC317771   2.793   9.315   9.362
 1171POPC   PO417772   2.594   9.909   9.540
 1171POPC   GL117773   2.777   9.979   9.167
 1171POPC   GL217774   3.036   9.749   9.184
 1171POPC   C1A17775   2.719   9.778   8.756
 1171POPC   D2A17776   2.570   9.782   8.346
 1171POPC   C3A17777   2.705   9.506   8.003
 1171POPC   C4A17778   2.564   9.729   7.669
 1171POPC   C1B17779   3.182   9.970   8.808
 1171POPC   C2B17780   3.220   9.871   8.390
 1171POPC   C3B17781   2.963   9.930   8.046
 1171POPC   C4B17782   3.121   9.991   7.694
 1172POPC   NC317783  18.216  42.420   9.590
 1172POPC   PO417784  18.609  42.918   9.598
 1172POPC   GL117785  18.610  42.447   9.269
 1172POPC   GL217786  18.249  42.284   9.112
 1172POPC   C1A17787  18.648  42.211   8.822
 1172POPC   D2A17788  18.369  42.229   8.468
 1172POPC   C3A17789  18.556  42.168   8.072
 1172POPC   C4A17790  18.368  41.960   7.709
 1172POPC   C1B17791  17.975  42.465   8.794
 1172POPC   C2B17792  18.078  42.651   8.391
 1172POPC   C3B17793  18.065  42.350   8.055
 1172POPC   C4B17794  17.933  42.231   7.655
 1173POPC   NC317795  20.157  24.502   9.453
 1173POPC   PO417796  19.529  24.785   9.566
 1173POPC   GL117797  19.671  24.626   9.206
 1173POPC   GL217798  19.527  24.325   9.158
 1173POPC   C1A17799  19.903  24.641   8.838
 1173POPC   D2A17800  19.714  24.750   8.458
 1173POPC   C3A17801  19.849  24.774   8.044
 1173POPC   C4A17802  19.692  24.969   7.660
 1173POPC   C1B17803  19.420  24.428   8.738
 1173POPC   C2B17804  19.396  24.108   8.420
 1173POPC   C3B17805  19.504  24.047   7.986
 1173POPC   C4B17806  19.751  24.367   7.766
 1174POPC   NC317807   9.214  24.830   9.542
 1174POPC   PO417808   8.925  24.286   9.667
 1174POPC   GL117809   8.913  24.252   9.240
 1174POPC   GL217810   8.803  24.589   9.186
 1174POPC   C1A17811   8.806  24.179   8.819
 1174POPC   D2A17812   8.780  24.375   8.453
 1174POPC   C3A17813   8.890  24.281   8.072
 1174POPC   C4A17814   8.713  24.427   7.698
 1174POPC   C1B17815   8.938  24.889   8.860
 1174POPC   C2B17816   9.064  24.794   8.444
 1174POPC   C3B17817   8.874  24.813   8.043
 1174POPC   C4B17818   9.017  24.807   7.672
 1175POPC   NC317819   2.059  31.575   9.572
 1175POPC   PO417820   1.512  31.178   9.467
 1175POPC   GL117821   1.828  31.344   9.162
 1175POPC   GL217822   2.188  31.356   9.137
 1175POPC   C1A17823   1.965  31.612   8.789
 1175POPC   D2A17824   2.107  31.456   8.405
 1175POPC   C3A17825   1.968  31.634   8.080
 1175POPC   C4A17826   2.128  31.846   7.749
 1175POPC   C1B17827   2.111  31.118   8.775
 1175POPC   C2B17828   2.407  31.007   8.433
 1175POPC   C3B17829   2.434  31.259   8.068
 1175POPC   C4B17830   2.199  31.324   7.740
 1176POPC   NC317831  10.265  18.983   9.521
 1176POPC   PO417832  10.753  18.488   9.440
 1176POPC   GL117833  10.697  18.819   9.102
 1176POPC   GL217834  10.423  19.061   9.069
 1176POPC   C1A17835  10.472  18.763   8.675
 1176POPC   D2A17836  10.331  18.820   8.227
 1176POPC   C3A17837  10.586  18.973   7.850
 1176POPC   C4A17838  10.416  18.918   7.402
 1176POPC   C1B17839  10.377  19.279   8.724
 1176POPC   C2B17840  10.544  19.288   8.337
 1176POPC   C3B17841  10.311  19.392   7.997
 1176POPC   C4B17842  10.283  19.362   7.563
 1177POPC   NC317843  21.653   7.428   9.631
 1177POPC   PO417844  21.443   7.787   9.151
 1177POPC   GL117845  21.376   7.344   9.178
 1177POPC   GL217846  21.540   7.047   9.303
 1177POPC   C1A17847  21.208   7.183   8.808
 1177POPC   D2A17848  20.963   7.220   8.388
 1177POPC   C3A17849  21.181   7.465   8.063
 1177POPC   C4A17850  21.640   7.547   7.927
 1177POPC   C1B17851  21.676   7.020   8.881
 1177POPC   C2B17852  21.808   7.084   8.444
 1177POPC   C3B17853  21.708   7.038   8.013
 1177POPC   C4B17854  21.374   7.131   7.740
 1178POPC   NC317855  37.768  40.276   9.432
 1178POPC   PO417856  37.541  39.727   9.518
 1178POPC   GL117857  37.635  39.816   9.094
 1178POPC   GL217858  37.746  40.152   8.948
 1178POPC   C1A17859  37.422  39.867   8.685
 1178POPC   D2A17860  37.653  40.126   8.411
 1178POPC   C3A17861  37.757  39.959   8.022
 1178POPC   C4A17862  37.457  39.909   7.706
 1178POPC   C1B17863  37.903  40.503   8.697
 1178POPC   C2B17864  37.712  40.613   8.298
 1178POPC   C3B17865  37.723  40.447   7.898
 1178POPC   C4B17866  37.880  40.498   7.483
 1179POPC   NC317867  21.365  40.589   9.657
 1179POPC   PO417868  21.813  40.897   9.307
 1179POPC   GL117869  21.455  40.700   9.133
 1179POPC   GL217870  21.129  40.837   9.053
 1179POPC   C1A17871  21.511  40.580   8.717
 1179POPC   D2A17872  21.202  40.533   8.411
 1179POPC   C3A17873  21.285  40.641   8.005
 1179POPC   C4A17874  21.100  40.953   7.762
 1179POPC   C1B17875  21.449  41.073   8.775
 1179POPC   C2B17876  21.555  40.962   8.350
 1179POPC   C3B17877  21.668  40.957   7.922
 1179POPC   C4B17878  21.535  41.196   7.571
 1180POPC   NC317879   2.484  24.808   9.401
 1180POPC   PO417880   3.091  24.435   9.479
 1180POPC   GL117881   2.872  24.403   9.096
 1180POPC   GL217882   2.534  24.235   9.157
 1180POPC   C1A17883   2.931  24.722   8.747
 1180POPC   D2A17884   2.909  24.975   8.344
 1180POPC   C3A17885   2.952  24.668   7.986
 1180POPC   C4A17886   2.915  24.278   7.732
 1180POPC   C1B17887   2.498  24.404   8.749
 1180POPC   C2B17888   2.607  24.558   8.377
 1180POPC   C3B17889   2.503  24.416   8.001
 1180POPC   C4B17890   2.516  24.536   7.589
 1181POPC   NC317891  26.034  24.614   9.480
 1181POPC   PO417892  25.447  24.914   9.274
 1181POPC   GL117893  25.750  24.638   9.062
 1181POPC   GL217894  25.833  24.275   9.120
 1181POPC   C1A17895  26.134  24.559   8.826
 1181POPC   D2A17896  26.200  24.299   8.474
 1181POPC   C3A17897  26.107  24.574   8.144
 1181POPC   C4A17898  25.973  24.543   7.765
 1181POPC   C1B17899  25.644  24.275   8.733
 1181POPC   C2B17900  25.737  24.118   8.349
 1181POPC   C3B17901  25.972  24.096   8.017
 1181POPC   C4B17902  25.787  24.057   7.660
 1182POPC   NC317903  24.060   2.832   9.342
 1182POPC   PO417904  23.455   2.614   9.530
 1182POPC   GL117905  23.647   2.560   9.163
 1182POPC   GL217906  23.614   2.920   9.139
 1182POPC   C1A17907  23.700   2.617   8.725
 1182POPC   D2A17908  23.833   2.436   8.353
 1182POPC   C3A17909  23.728   2.657   8.022
 1182POPC   C4A17910  23.957   2.495   7.686
 1182POPC   C1B17911  23.785   3.140   8.809
 1182POPC   C2B17912  23.776   3.392   8.453
 1182POPC   C3B17913  23.859   3.262   8.053
 1182POPC   C4B17914  23.852   3.020   7.685
 1183POPC   NC317915  41.783  11.008   9.521
 1183POPC   PO417916  41.578  11.607   9.587
 1183POPC   GL117917  41.451  11.359   9.225
 1183POPC   GL217918  41.647  11.626   9.067
 1183POPC   C1A17919  41.374  11.150   8.802
 1183POPC   D2A17920  41.635  11.007   8.451
 1183POPC   C3A17921  41.506  10.979   8.037
 1183POPC   C4A17922  41.436  11.297   7.783
 1183POPC   C1B17923  41.761  11.476   8.674
 1183POPC   C2B17924  41.565  11.507   8.284
 1183POPC   C3B17925  41.720  11.687   7.920
 1183POPC   C4B17926  41.453  11.778   7.607
 1184POPC   NC317927  19.556  15.887   9.536
 1184POPC   PO417928  18.855  15.712   9.572
 1184POPC   GL117929  19.101  15.714   9.213
 1184POPC   GL217930  19.233  16.060   9.167
 1184POPC   C1A17931  18.963  15.623   8.785
 1184POPC   D2A17932  18.806  15.431   8.420
 1184POPC   C3A17933  19.001  15.648   8.089
 1184POPC   C4A17934  18.939  15.852   7.705
 1184POPC   C1B17935  19.428  15.829   8.821
 1184POPC   C2B17936  19.384  15.871   8.378
 1184POPC   C3B17937  19.366  16.008   7.962
 1184POPC   C4B17938  19.228  16.256   7.628
 1185POPC   NC317939  22.353  19.219   9.492
 1185POPC   PO417940  22.439  18.582   9.379
 1185POPC   GL117941  22.174  18.779   9.093
 1185POPC   GL217942  22.205  19.153   9.010
 1185POPC   C1A17943  22.229  18.769   8.667
 1185POPC   D2A17944  22.447  18.813   8.310
 1185POPC   C3A17945  22.244  18.883   7.961
 1185POPC   C4A17946  22.214  19.248   7.752
 1185POPC   C1B17947  21.816  19.039   8.791
 1185POPC   C2B17948  21.791  18.882   8.367
 1185POPC   C3B17949  21.746  19.105   7.977
 1185POPC   C4B17950  21.765  19.384   7.593
 1186POPC   NC317951  35.946  38.910   9.389
 1186POPC   PO417952  35.452  38.378   9.534
 1186POPC   GL117953  35.597  38.574   9.169
 1186POPC   GL217954  35.274  38.672   9.136
 1186POPC   C1A17955  35.588  38.452   8.732
 1186POPC   D2A17956  35.511  38.373   8.281
 1186POPC   C3A17957  35.614  38.568   7.939
 1186POPC   C4A17958  35.573  38.229   7.638
 1186POPC   C1B17959  35.254  38.869   8.810
 1186POPC   C2B17960  35.171  38.675   8.482
 1186POPC   C3B17961  35.156  38.752   8.097
 1186POPC   C4B17962  35.105  38.619   7.713
 1187POPC   NC317963   9.730  41.828   9.545
 1187POPC   PO417964   9.762  41.103   9.691
 1187POPC   GL117965   9.725  41.373   9.284
 1187POPC   GL217966   9.415  41.439   9.146
 1187POPC   C1A17967   9.828  41.293   8.839
 1187POPC   D2A17968   9.716  41.461   8.448
 1187POPC   C3A17969  10.035  41.596   8.164
 1187POPC   C4A17970   9.894  41.499   7.753
 1187POPC   C1B17971   9.484  41.756   8.831
 1187POPC   C2B17972   9.364  41.886   8.408
 1187POPC   C3B17973   9.505  41.819   7.982
 1187POPC   C4B17974   9.574  41.817   7.509
 1188POPC   NC317975  25.045  24.761   9.449
 1188POPC   PO417976  25.547  24.279   9.533
 1188POPC   GL117977  25.308  24.400   9.125
 1188POPC   GL217978  25.008  24.242   9.025
 1188POPC   C1A17979  25.223  24.581   8.684
 1188POPC   D2A17980  25.287  24.664   8.228
 1188POPC   C3A17981  25.529  24.426   7.981
 1188POPC   C4A17982  25.374  24.352   7.583
 1188POPC   C1B17983  24.731  24.319   8.711
 1188POPC   C2B17984  24.805  24.486   8.313
 1188POPC   C3B17985  24.992  24.326   7.936
 1188POPC   C4B17986  24.852  24.282   7.535
 1189POPC   NC317987  16.232  34.814   9.649
 1189POPC   PO417988  16.224  34.128   9.691
 1189POPC   GL117989  16.194  34.362   9.298
 1189POPC   GL217990  15.928  34.590   9.249
 1189POPC   C1A17991  16.115  34.292   8.845
 1189POPC   D2A17992  16.170  34.476   8.424
 1189POPC   C3A17993  16.036  34.458   7.985
 1189POPC   C4A17994  16.236  34.644   7.618
 1189POPC   C1B17995  15.953  34.783   8.811
 1189POPC   C2B17996  15.794  34.803   8.359
 1189POPC   C3B17997  15.915  34.958   7.945
 1189POPC   C4B17998  15.749  34.789   7.579
 1190POPC   NC317999  13.797   0.796   9.374
 1190POPC   PO418000  13.331   0.413   9.676
 1190POPC   GL118001  13.400   0.437   9.213
 1190POPC   GL218002  13.670   0.547   8.959
 1190POPC   C1A18003  13.249   0.318   8.790
 1190POPC   D2A18004  13.338   0.494   8.367
 1190POPC   C3A18005  13.665   0.334   8.061
 1190POPC   C4A18006  13.426   0.212   7.715
 1190POPC   C1B18007  13.443   0.858   8.711
 1190POPC   C2B18008  13.499   0.984   8.269
 1190POPC   C3B18009  13.402   0.735   7.899
 1190POPC   C4B18010  13.428   0.703   7.456
 1191POPC   NC318011   5.517  31.565   9.363
 1191POPC   PO418012   5.048  31.160   9.590
 1191POPC   GL118013   5.077  31.384   9.173
 1191POPC   GL218014   5.399  31.272   8.982
 1191POPC   C1A18015   5.195  31.691   8.810
 1191POPC   D2A18016   5.421  31.663   8.436
 1191POPC   C3A18017   5.272  31.773   8.016
 1191POPC   C4A18018   4.912  31.697   7.721
 1191POPC   C1B18019   5.090  31.167   8.713
 1191POPC   C2B18020   4.957  30.873   8.436
 1191POPC   C3B18021   4.864  31.052   8.067
 1191POPC   C4B18022   5.163  31.282   7.863
 1192POPC   NC318023  16.129  10.523   9.495
 1192POPC   PO418024  16.842  10.474   9.645
 1192POPC   GL118025  16.609  10.575   9.241
 1192POPC   GL218026  16.614  10.264   9.028
 1192POPC   C1A18027  16.747  10.703   8.805
 1192POPC   D2A18028  16.880  10.405   8.466
 1192POPC   C3A18029  16.775  10.616   8.101
 1192POPC   C4A18030  16.868  10.862   7.767
 1192POPC   C1B18031  16.382  10.130   8.641
 1192POPC   C2B18032  16.499  10.143   8.191
 1192POPC   C3B18033  16.530  10.323   7.777
 1192POPC   C4B18034  16.298  10.247   7.417
 1193POPC   NC318035  44.519  35.270   9.535
 1193POPC   PO418036  44.930  35.695   9.581
 1193POPC   GL118037  44.769  35.580   9.162
 1193POPC   GL218038  44.767  35.228   9.099
 1193POPC   C1A18039  44.908  35.578   8.724
 1193POPC   D2A18040  44.764  35.480   8.313
 1193POPC   C3A18041  44.987  35.613   7.944
 1193POPC   C4A18042  44.670  35.520   7.651
 1193POPC   C1B18043  44.610  34.998   8.772
 1193POPC   C2B18044  44.426  35.071   8.393
 1193POPC   C3B18045  44.571  35.054   7.976
 1193POPC   C4B18046  44.296  35.062   7.643
 1194POPC   NC318047  14.364  15.829   9.386
 1194POPC   PO418048  14.325  15.104   9.526
 1194POPC   GL118049  14.601  15.158   9.176
 1194POPC   GL218050  14.637  15.490   9.118
 1194POPC   C1A18051  14.595  14.955   8.754
 1194POPC   D2A18052  14.269  15.020   8.425
 1194POPC   C3A18053  14.433  15.068   8.010
 1194POPC   C4A18054  14.573  15.196   7.580
 1194POPC   C1B18055  14.539  15.459   8.704
 1194POPC   C2B18056  14.638  15.546   8.304
 1194POPC   C3B18057  14.498  15.562   7.905
 1194POPC   C4B18058  14.086  15.593   7.763
 1195POPC   NC318059  37.700  38.093   9.438
 1195POPC   PO418060  37.279  37.601   9.639
 1195POPC   GL118061  37.449  37.656   9.221
 1195POPC   GL218062  37.805  37.713   9.124
 1195POPC   C1A18063  37.412  37.716   8.787
 1195POPC   D2A18064  37.245  37.566   8.401
 1195POPC   C3A18065  37.521  37.553   8.034
 1195POPC   C4A18066  37.767  37.855   7.800
 1195POPC   C1B18067  37.940  37.592   8.695
 1195POPC   C2B18068  38.009  37.556   8.214
 1195POPC   C3B18069  37.985  37.416   7.774
 1195POPC   C4B18070  37.588  37.456   7.500
 1196POPC   NC318071  28.820  39.827   9.401
 1196POPC   PO418072  29.361  40.151   9.443
 1196POPC   GL118073  29.172  40.025   9.092
 1196POPC   GL218074  29.314  39.741   8.996
 1196POPC   C1A18075  29.031  40.140   8.697
 1196POPC   D2A18076  29.233  40.282   8.334
 1196POPC   C3A18077  29.110  40.015   8.007
 1196POPC   C4A18078  28.948  40.208   7.648
 1196POPC   C1B18079  29.448  39.871   8.587
 1196POPC   C2B18080  29.300  39.579   8.270
 1196POPC   C3B18081  29.394  39.561   7.858
 1196POPC   C4B18082  29.327  39.859   7.566
 1197POPC   NC318083   6.027  27.153   9.537
 1197POPC   PO418084   5.475  26.766   9.546
 1197POPC   GL118085   5.681  26.883   9.187
 1197POPC   GL218086   6.049  26.927   9.110
 1197POPC   C1A18087   5.773  26.640   8.815
 1197POPC   D2A18088   5.595  26.482   8.463
 1197POPC   C3A18089   5.527  26.710   8.119
 1197POPC   C4A18090   5.612  26.756   7.744
 1197POPC   C1B18091   5.825  27.169   8.799
 1197POPC   C2B18092   5.869  26.951   8.419
 1197POPC   C3B18093   5.990  26.930   8.001
 1197POPC   C4B18094   5.838  27.190   7.639
 1198POPC   NC318095  43.118  31.625   9.545
 1198POPC   PO418096  42.705  31.122   9.702
 1198POPC   GL118097  43.042  31.195   9.280
 1198POPC   GL218098  42.909  31.550   9.105
 1198POPC   C1A18099  43.258  31.323   8.843
 1198POPC   D2A18100  43.253  31.709   8.577
 1198POPC   C3A18101  43.143  31.568   8.164
 1198POPC   C4A18102  43.193  31.558   7.733
 1198POPC   C1B18103  42.774  31.558   8.684
 1198POPC   C2B18104  42.854  31.225   8.433
 1198POPC   C3B18105  42.705  31.237   8.044
 1198POPC   C4B18106  42.688  30.903   7.776
 1199POPC   NC318107   6.323   5.728   9.589
 1199POPC   PO418108   6.890   6.194   9.524
 1199POPC   GL118109   6.833   5.870   9.213
 1199POPC   GL218110   6.747   5.537   9.267
 1199POPC   C1A18111   6.859   5.779   8.789
 1199POPC   D2A18112   6.712   6.057   8.486
 1199POPC   C3A18113   6.892   6.238   8.132
 1199POPC   C4A18114   6.729   6.123   7.727
 1199POPC   C1B18115   6.424   5.573   8.942
 1199POPC   C2B18116   6.413   5.644   8.494
 1199POPC   C3B18117   6.637   5.650   8.103
 1199POPC   C4B18118   6.316   5.561   7.801
 1200POPC   NC318119   1.708  29.763   9.407
 1200POPC   PO418120   2.037  30.145   9.758
 1200POPC   GL118121   2.042  30.053   9.196
 1200POPC   GL218122   2.181  30.322   9.110
 1200POPC   C1A18123   1.870  29.878   8.746
 1200POPC   D2A18124   1.917  29.654   8.318
 1200POPC   C3A18125   1.844  29.922   7.923
 1200POPC   C4A18126   1.834  29.876   7.452
 1200POPC   C1B18127   1.830  30.380   8.768
 1200POPC   C2B18128   1.768  30.225   8.340
 1200POPC   C3B18129   1.788  30.462   7.971
 1200POPC   C4B18130   1.502  30.767   7.904
 1201POPC   NC318131  30.283  14.339   9.559
 1201POPC   PO418132  30.895  14.297   9.363
 1201POPC   GL118133  30.536  14.320   9.109
 1201POPC   GL218134  30.399  14.657   9.171
 1201POPC   C1A18135  30.484  14.186   8.692
 1201POPC   D2A18136  30.550  14.397   8.303
 1201POPC   C3A18137  30.552  14.135   7.941
 1201POPC   C4A18138  30.629  14.115   7.503
 1201POPC   C1B18139  30.462  14.705   8.744
 1201POPC   C2B18140  30.217  14.766   8.366
 1201POPC   C3B18141  30.416  14.829   7.990
 1201POPC   C4B18142  30.564  14.625   7.634
 1202POPC   NC318143  31.756  30.573   9.550
 1202POPC   PO418144  31.185  30.838   9.611
 1202POPC   GL118145  31.433  30.842   9.239
 1202POPC   GL218146  31.414  30.485   9.193
 1202POPC   C1A18147  31.657  30.770   8.843
 1202POPC   D2A18148  31.753  30.989   8.491
 1202POPC   C3A18149  31.502  30.867   8.182
 1202POPC   C4A18150  31.650  30.666   7.798
 1202POPC   C1B18151  31.445  30.300   8.824
 1202POPC   C2B18152  31.450  30.427   8.436
 1202POPC   C3B18153  31.298  30.381   8.038
 1202POPC   C4B18154  31.169  30.360   7.635
 1203POPC   NC318155  26.378  42.438   9.369
 1203POPC   PO418156  26.042  42.137   9.806
 1203POPC   GL118157  26.060  42.077   9.340
 1203POPC   GL218158  26.360  41.925   9.199
 1203POPC   C1A18159  25.936  42.075   8.909
 1203POPC   D2A18160  26.072  41.990   8.503
 1203POPC   C3A18161  25.938  42.261   8.158
 1203POPC   C4A18162  25.816  42.130   7.745
 1203POPC   C1B18163  26.454  42.165   8.810
 1203POPC   C2B18164  26.304  42.467   8.499
 1203POPC   C3B18165  26.367  42.557   8.072
 1203POPC   C4B18166  26.322  42.313   7.717
 1204POPC   NC318167  28.011  17.850   9.423
 1204POPC   PO418168  27.480  17.378   9.521
 1204POPC   GL118169  27.379  17.515   9.138
 1204POPC   GL218170  27.693  17.618   9.100
 1204POPC   C1A18171  27.353  17.654   8.716
 1204POPC   D2A18172  27.604  17.773   8.358
 1204POPC   C3A18173  27.490  17.697   7.976
 1204POPC   C4A18174  27.257  17.395   7.805
 1204POPC   C1B18175  27.829  17.456   8.705
 1204POPC   C2B18176  28.078  17.574   8.337
 1204POPC   C3B18177  28.026  17.702   7.931
 1204POPC   C4B18178  27.788  17.430   7.681
 1205POPC   NC318179  16.371  42.362   9.401
 1205POPC   PO418180  15.783  42.095   9.658
 1205POPC   GL118181  15.928  42.194   9.231
 1205POPC   GL218182  15.947  42.539   9.122
 1205POPC   C1A18183  15.896  42.148   8.777
 1205POPC   D2A18184  15.772  42.266   8.343
 1205POPC   C3A18185  15.979  42.099   7.961
 1205POPC   C4A18186  15.919  42.273   7.545
 1205POPC   C1B18187  16.106  42.604   8.671
 1205POPC   C2B18188  16.270  42.436   8.269
 1205POPC   C3B18189  16.233  42.562   7.800
 1205POPC   C4B18190  16.310  42.483   7.306
 1206POPC   NC318191  41.137  14.182   9.544
 1206POPC   PO418192  41.756  14.450   9.487
 1206POPC   GL118193  41.473  14.353   9.181
 1206POPC   GL218194  41.475  13.995   9.217
 1206POPC   C1A18195  41.588  14.385   8.757
 1206POPC   D2A18196  41.372  14.488   8.375
 1206POPC   C3A18197  41.615  14.393   8.024
 1206POPC   C4A18198  41.845  14.254   7.712
 1206POPC   C1B18199  41.697  13.873   8.857
 1206POPC   C2B18200  41.739  14.000   8.423
 1206POPC   C3B18201  41.458  13.931   8.091
 1206POPC   C4B18202  41.400  14.022   7.685
 1207POPC   NC318203  25.015  13.439   9.492
 1207POPC   PO418204  25.372  14.018   9.670
 1207POPC   GL118205  25.447  13.996   9.212
 1207POPC   GL218206  25.440  13.632   9.177
 1207POPC   C1A18207  25.564  13.923   8.764
 1207POPC   D2A18208  25.497  13.613   8.440
 1207POPC   C3A18209  25.514  13.787   7.994
 1207POPC   C4A18210  25.265  13.898   7.621
 1207POPC   C1B18211  25.101  13.722   8.875
 1207POPC   C2B18212  24.916  13.608   8.491
 1207POPC   C3B18213  25.109  13.494   8.135
 1207POPC   C4B18214  25.014  13.483   7.744
 1208POPC   NC318215  38.914  15.668   9.415
 1208POPC   PO418216  39.259  15.125   9.469
 1208POPC   GL118217  39.396  15.099   9.051
 1208POPC   GL218218  39.641  15.397   9.069
 1208POPC   C1A18219  39.288  14.891   8.647
 1208POPC   D2A18220  39.262  14.967   8.191
 1208POPC   C3A18221  39.104  15.371   8.056
 1208POPC   C4A18222  38.825  15.433   7.714
 1208POPC   C1B18223  39.577  15.356   8.628
 1208POPC   C2B18224  39.620  15.417   8.208
 1208POPC   C3B18225  39.610  15.458   7.803
 1208POPC   C4B18226  39.400  15.124   7.707
 1209POPC   NC318227   5.494  32.977   9.488
 1209POPC   PO418228   6.030  32.670   9.717
 1209POPC   GL118229   5.952  33.127   9.343
 1209POPC   GL218230   5.670  33.102   9.051
 1209POPC   C1A18231   6.090  33.241   8.861
 1209POPC   D2A18232   5.735  33.152   8.543
 1209POPC   C3A18233   5.891  33.093   8.141
 1209POPC   C4A18234   6.165  33.054   7.784
 1209POPC   C1B18235   5.478  32.756   8.826
 1209POPC   C2B18236   5.330  32.579   8.460
 1209POPC   C3B18237   5.508  32.702   8.095
 1209POPC   C4B18238   5.664  32.879   7.748
 1210POPC   NC318239   0.223  21.884   9.494
 1210POPC   PO418240   0.673  22.320   9.681
 1210POPC   GL118241   0.502  22.253   9.286
 1210POPC   GL218242   0.620  21.987   9.193
 1210POPC   C1A18243   0.587  22.383   8.871
 1210POPC   D2A18244   0.510  22.614   8.527
 1210POPC   C3A18245   0.440  22.431   8.136
 1210POPC   C4A18246   0.493  22.293   7.738
 1210POPC   C1B18247   0.738  21.893   8.832
 1210POPC   C2B18248   0.507  22.009   8.502
 1210POPC   C3B18249   0.578  21.918   8.109
 1210POPC   C4B18250   0.794  21.850   7.737
 1211POPC   NC318251   2.555  11.498   9.347
 1211POPC   PO418252   2.710  12.094   9.475
 1211POPC   GL118253   2.851  11.975   9.098
 1211POPC   GL218254   3.190  12.128   8.966
 1211POPC   C1A18255   2.764  12.122   8.674
 1211POPC   D2A18256   2.509  12.121   8.302
 1211POPC   C3A18257   2.692  12.061   7.889
 1211POPC   C4A18258   2.635  11.941   7.449
 1211POPC   C1B18259   3.109  12.491   8.667
 1211POPC   C2B18260   2.818  12.530   8.316
 1211POPC   C3B18261   2.954  12.496   7.900
 1211POPC   C4B18262   2.958  12.316   7.453
 1212POPC   NC318263  11.004  19.588   9.735
 1212POPC   PO418264  10.414  20.089   9.660
 1212POPC   GL118265  10.224  19.911   9.273
 1212POPC   GL218266  10.361  19.570   9.146
 1212POPC   C1A18267  10.185  19.918   8.817
 1212POPC   D2A18268  10.214  19.685   8.442
 1212POPC   C3A18269  10.519  19.835   8.144
 1212POPC   C4A18270  10.308  19.869   7.741
 1212POPC   C1B18271  10.655  19.702   8.759
 1212POPC   C2B18272  10.961  19.631   8.444
 1212POPC   C3B18273  10.932  19.475   8.066
 1212POPC   C4B18274  10.718  19.555   7.726
 1213POPC   NC318275   9.478  25.592   9.582
 1213POPC   PO418276   9.671  24.944   9.559
 1213POPC   GL118277   9.551  25.129   9.215
 1213POPC   GL218278   9.692  25.422   9.139
 1213POPC   C1A18279   9.686  25.047   8.789
 1213POPC   D2A18280   9.564  24.825   8.452
 1213POPC   C3A18281   9.778  24.876   8.096
 1213POPC   C4A18282   9.707  25.124   7.763
 1213POPC   C1B18283   9.929  25.510   8.766
 1213POPC   C2B18284   9.963  25.324   8.389
 1213POPC   C3B18285   9.870  25.514   8.028
 1213POPC   C4B18286  10.028  25.467   7.594
 1214POPC   NC318287  28.689  44.265   9.718
 1214POPC   PO418288  28.244  43.868   9.494
 1214POPC   GL118289  28.360  43.837   9.096
 1214POPC   GL218290  28.651  43.648   9.204
 1214POPC   C1A18291  28.615  43.956   8.750
 1214POPC   D2A18292  28.758  43.956   8.329
 1214POPC   C3A18293  28.404  44.072   8.081
 1214POPC   C4A18294  28.402  44.247   7.693
 1214POPC   C1B18295  28.516  43.452   8.805
 1214POPC   C2B18296  28.360  43.612   8.435
 1214POPC   C3B18297  28.465  43.570   8.022
 1214POPC   C4B18298  28.330  43.740   7.646
 1215POPC   NC318299  41.831  36.579   9.473
 1215POPC   PO418300  42.240  37.031   9.729
 1215POPC   GL118301  42.086  36.985   9.251
 1215POPC   GL218302  42.328  36.800   9.133
 1215POPC   C1A18303  42.093  37.066   8.770
 1215POPC   D2A18304  42.430  36.939   8.472
 1215POPC   C3A18305  42.297  36.959   8.060
 1215POPC   C4A18306  42.158  37.275   7.814
 1215POPC   C1B18307  42.150  36.572   8.807
 1215POPC   C2B18308  42.001  36.630   8.399
 1215POPC   C3B18309  42.078  36.518   7.986
 1215POPC   C4B18310  42.403  36.591   7.687
 1216POPC   NC318311  34.051  14.914   9.456
 1216POPC   PO418312  33.650  15.394   9.715
 1216POPC   GL118313  33.622  15.386   9.259
 1216POPC   GL218314  33.723  15.092   9.121
 1216POPC   C1A18315  33.656  15.451   8.789
 1216POPC   D2A18316  33.481  15.513   8.371
 1216POPC   C3A18317  33.791  15.457   8.040
 1216POPC   C4A18318  33.911  15.502   7.603
 1216POPC   C1B18319  33.611  14.896   8.716
 1216POPC   C2B18320  33.622  15.016   8.261
 1216POPC   C3B18321  33.725  15.014   7.798
 1216POPC   C4B18322  33.933  14.712   7.473
 1217POPC   NC318323   3.211  26.799   9.303
 1217POPC   PO418324   3.945  26.899   9.405
 1217POPC   GL118325   3.658  26.951   9.096
 1217POPC   GL218326   3.633  26.609   9.067
 1217POPC   C1A18327   3.511  26.898   8.656
 1217POPC   D2A18328   3.673  26.709   8.265
 1217POPC   C3A18329   3.569  26.809   7.815
 1217POPC   C4A18330   3.758  26.893   7.350
 1217POPC   C1B18331   3.432  26.338   8.739
 1217POPC   C2B18332   3.380  26.281   8.287
 1217POPC   C3B18333   3.669  26.267   7.938
 1217POPC   C4B18334   3.905  26.477   7.608
 1218POPC   NC318335   4.385  27.529   9.748
 1218POPC   PO418336   4.193  27.863   9.228
 1218POPC   GL118337   4.514  27.588   9.181
 1218POPC   GL218338   4.356  27.433   8.951
 1218POPC   C1A18339   4.752  27.663   8.783
 1218POPC   D2A18340   4.564  27.922   8.498
 1218POPC   C3A18341   4.472  27.690   8.142
 1218POPC   C4A18342   4.392  27.516   7.750
 1218POPC   C1B18343   4.394  27.313   8.537
 1218POPC   C2B18344   4.061  27.204   8.300
 1218POPC   C3B18345   3.893  27.419   7.976
 1218POPC   C4B18346   3.998  27.223   7.619
 1219POPC   NC318347  18.843  12.489   9.487
 1219POPC   PO418348  18.772  13.114   9.408
 1219POPC   GL118349  18.997  12.871   9.104
 1219POPC   GL218350  18.957  12.544   9.011
 1219POPC   C1A18351  19.103  12.885   8.672
 1219POPC   D2A18352  19.026  12.726   8.298
 1219POPC   C3A18353  19.186  12.939   7.966
 1219POPC   C4A18354  19.048  13.207   7.670
 1219POPC   C1B18355  18.689  12.468   8.693
 1219POPC   C2B18356  18.776  12.284   8.323
 1219POPC   C3B18357  18.738  12.539   7.931
 1219POPC   C4B18358  18.913  12.703   7.556
 1220POPC   NC318359  26.506   9.552   9.472
 1220POPC   PO418360  25.839   9.680   9.572
 1220POPC   GL118361  26.049   9.578   9.181
 1220POPC   GL218362  26.281   9.310   9.102
 1220POPC   C1A18363  26.039   9.689   8.759
 1220POPC   D2A18364  26.212   9.918   8.438
 1220POPC   C3A18365  26.222   9.651   8.110
 1220POPC   C4A18366  25.994   9.578   7.729
 1220POPC   C1B18367  26.505   9.442   8.790
 1220POPC   C2B18368  26.549   9.232   8.430
 1220POPC   C3B18369  26.647   9.327   8.029
 1220POPC   C4B18370  26.508   9.572   7.707
 1221POPC   NC318371  41.672  17.104   9.911
 1221POPC   PO418372  41.237  17.348   9.515
 1221POPC   GL118373  41.581  17.265   9.191
 1221POPC   GL218374  41.649  17.583   9.005
 1221POPC   C1A18375  41.577  17.154   8.749
 1221POPC   D2A18376  41.569  17.531   8.476
 1221POPC   C3A18377  41.759  17.396   8.097
 1221POPC   C4A18378  41.604  17.109   7.848
 1221POPC   C1B18379  41.793  17.959   8.765
 1221POPC   C2B18380  41.801  18.113   8.325
 1221POPC   C3B18381  41.737  17.887   7.935
 1221POPC   C4B18382  41.366  17.622   7.888
 1222POPC   NC318383  35.535  11.334   9.248
 1222POPC   PO418384  34.911  11.098   9.502
 1222POPC   GL118385  35.077  11.172   9.107
 1222POPC   GL218386  35.104  11.543   9.054
 1222POPC   C1A18387  35.217  11.152   8.676
 1222POPC   D2A18388  35.557  11.323   8.438
 1222POPC   C3A18389  35.545  11.155   8.034
 1222POPC   C4A18390  35.325  10.959   7.684
 1222POPC   C1B18391  35.159  11.657   8.628
 1222POPC   C2B18392  35.196  11.581   8.176
 1222POPC   C3B18393  35.217  11.486   7.759
 1222POPC   C4B18394  35.103  11.697   7.364
 1223POPC   NC318395  18.908  14.123   9.534
 1223POPC   PO418396  19.460  14.558   9.526
 1223POPC   GL118397  19.236  14.335   9.216
 1223POPC   GL218398  19.021  14.547   9.099
 1223POPC   C1A18399  19.259  14.163   8.811
 1223POPC   D2A18400  19.443  14.333   8.432
 1223POPC   C3A18401  19.327  14.187   8.037
 1223POPC   C4A18402  19.043  14.187   7.693
 1223POPC   C1B18403  19.278  14.691   8.778
 1223POPC   C2B18404  19.413  14.847   8.395
 1223POPC   C3B18405  19.188  14.663   8.097
 1223POPC   C4B18406  18.962  14.698   7.758
 1224POPC   NC318407   8.605   1.134   9.501
 1224POPC   PO418408   9.242   1.194   9.452
 1224POPC   GL118409   8.946   1.291   9.160
 1224POPC   GL218410   9.099   1.561   9.105
 1224POPC   C1A18411   8.777   1.327   8.751
 1224POPC   D2A18412   8.847   1.081   8.405
 1224POPC   C3A18413   8.879   1.227   8.009
 1224POPC   C4A18414   9.037   0.993   7.654
 1224POPC   C1B18415   9.298   1.426   8.778
 1224POPC   C2B18416   9.360   1.161   8.449
 1224POPC   C3B18417   9.395   1.106   8.019
 1224POPC   C4B18418   9.293   1.456   7.764
 1225POPC   NC318419   9.426  11.037   9.580
 1225POPC   PO418420   8.746  11.214   9.602
 1225POPC   GL118421   8.920  11.172   9.179
 1225POPC   GL218422   9.243  11.290   9.180
 1225POPC   C1A18423   8.985  11.293   8.738
 1225POPC   D2A18424   8.938  11.503   8.341
 1225POPC   C3A18425   8.673  11.347   8.020
 1225POPC   C4A18426   8.784  11.140   7.664
 1225POPC   C1B18427   9.479  11.139   8.814
 1225POPC   C2B18428   9.289  10.945   8.443
 1225POPC   C3B18429   9.239  10.828   7.989
 1225POPC   C4B18430   9.194  10.873   7.513
 1226POPC   NC318431  26.947  26.169   9.623
 1226POPC   PO418432  26.306  26.134   9.413
 1226POPC   GL118433  26.602  25.996   9.107
 1226POPC   GL218434  26.972  25.957   9.131
 1226POPC   C1A18435  26.504  25.753   8.750
 1226POPC   D2A18436  26.617  25.559   8.354
 1226POPC   C3A18437  27.048  25.717   8.195
 1226POPC   C4A18438  27.014  26.004   7.826
 1226POPC   C1B18439  26.921  26.011   8.649
 1226POPC   C2B18440  26.694  26.079   8.259
 1226POPC   C3B18441  26.737  26.414   7.943
 1226POPC   C4B18442  26.968  26.444   7.526
 1227POPC   NC318443   5.585   9.895   9.471
 1227POPC   PO418444   6.133   9.544   9.597
 1227POPC   GL118445   6.036   9.683   9.143
 1227POPC   GL218446   5.749   9.932   8.994
 1227POPC   C1A18447   6.050   9.714   8.677
 1227POPC   D2A18448   5.718   9.827   8.405
 1227POPC   C3A18449   5.951   9.686   8.090
 1227POPC   C4A18450   5.970   9.704   7.687
 1227POPC   C1B18451   6.000  10.219   8.718
 1227POPC   C2B18452   6.086  10.162   8.293
 1227POPC   C3B18453   5.804  10.131   7.930
 1227POPC   C4B18454   5.776  10.152   7.474
 1228POPC   NC318455   3.269   6.423   9.452
 1228POPC   PO418456   3.864   6.499   9.316
 1228POPC   GL118457   3.658   6.696   9.014
 1228POPC   GL218458   3.296   6.571   8.965
 1228POPC   C1A18459   3.628   6.750   8.584
 1228POPC   D2A18460   3.356   6.527   8.328
 1228POPC   C3A18461   3.604   6.383   7.993
 1228POPC   C4A18462   3.818   6.624   7.745
 1228POPC   C1B18463   3.163   6.901   8.692
 1228POPC   C2B18464   3.330   7.131   8.364
 1228POPC   C3B18465   3.552   6.926   8.061
 1228POPC   C4B18466   3.222   6.710   7.833
 1229POPC   NC318467  36.508  32.905   9.538
 1229POPC   PO418468  36.081  33.467   9.425
 1229POPC   GL118469  36.121  33.080   9.218
 1229POPC   GL218470  35.847  32.829   9.257
 1229POPC   C1A18471  36.285  32.999   8.820
 1229POPC   D2A18472  36.188  33.142   8.416
 1229POPC   C3A18473  36.361  33.169   8.023
 1229POPC   C4A18474  36.161  33.275   7.655
 1229POPC   C1B18475  35.765  32.962   8.833
 1229POPC   C2B18476  35.831  32.801   8.422
 1229POPC   C3B18477  36.152  32.646   8.163
 1229POPC   C4B18478  36.121  32.774   7.750
 1230POPC   NC318479   9.402  18.853   9.520
 1230POPC   PO418480   9.910  19.225   9.661
 1230POPC   GL118481   9.868  19.074   9.198
 1230POPC   GL218482   9.647  18.793   9.094
 1230POPC   C1A18483   9.981  18.962   8.758
 1230POPC   D2A18484  10.009  19.185   8.377
 1230POPC   C3A18485   9.692  19.015   8.179
 1230POPC   C4A18486   9.549  19.040   7.803
 1230POPC   C1B18487   9.537  18.559   8.780
 1230POPC   C2B18488   9.348  18.669   8.428
 1230POPC   C3B18489   9.417  18.575   8.031
 1230POPC   C4B18490   9.541  18.578   7.610
 1231POPC   NC318491  28.401  41.226   9.629
 1231POPC   PO418492  28.517  40.514   9.517
 1231POPC   GL118493  28.598  40.754   9.155
 1231POPC   GL218494  28.357  40.998   9.174
 1231POPC   C1A18495  28.738  40.940   8.749
 1231POPC   D2A18496  28.817  40.725   8.351
 1231POPC   C3A18497  28.641  40.905   7.963
 1231POPC   C4A18498  28.604  40.793   7.512
 1231POPC   C1B18499  28.250  40.829   8.759
 1231POPC   C2B18500  28.290  40.643   8.355
 1231POPC   C3B18501  28.112  40.716   7.968
 1231POPC   C4B18502  28.138  40.991   7.639
 1232POPC   NC318503   4.819  32.367   9.477
 1232POPC   PO418504   5.353  31.969   9.492
 1232POPC   GL118505   5.410  32.295   9.189
 1232POPC   GL218506   5.139  32.506   9.094
 1232POPC   C1A18507   5.369  32.179   8.768
 1232POPC   D2A18508   5.101  32.093   8.424
 1232POPC   C3A18509   5.206  32.288   8.040
 1232POPC   C4A18510   5.111  32.150   7.652
 1232POPC   C1B18511   4.893  32.432   8.746
 1232POPC   C2B18512   4.826  32.616   8.338
 1232POPC   C3B18513   4.775  32.506   7.922
 1232POPC   C4B18514   4.730  32.464   7.487
 1233POPC   NC318515   1.164  14.176   9.498
 1233POPC   PO418516   1.629  14.663   9.528
 1233POPC   GL118517   1.270  14.672   9.184
 1233POPC   GL218518   1.008  14.425   9.100
 1233POPC   C1A18519   1.115  14.789   8.776
 1233POPC   D2A18520   1.089  14.526   8.436
 1233POPC   C3A18521   1.207  14.642   8.032
 1233POPC   C4A18522   1.036  14.497   7.649
 1233POPC   C1B18523   1.311  14.243   8.829
 1233POPC   C2B18524   1.308  14.053   8.434
 1233POPC   C3B18525   1.141  14.128   8.038
 1233POPC   C4B18526   1.294  14.038   7.646
 1234POPC   NC318527  27.385  16.277   9.756
 1234POPC   PO418528  26.777  16.010   9.464
 1234POPC   GL118529  26.628  15.905   9.130
 1234POPC   GL218530  26.524  16.215   9.038
 1234POPC   C1A18531  26.829  15.846   8.754
 1234POPC   D2A18532  26.849  15.664   8.372
 1234POPC   C3A18533  26.657  15.863   8.058
 1234POPC   C4A18534  26.975  16.060   7.849
 1234POPC   C1B18535  26.843  16.361   8.755
 1234POPC   C2B18536  26.955  16.250   8.349
 1234POPC   C3B18537  27.005  16.523   8.013
 1234POPC   C4B18538  26.996  16.468   7.550
 1235POPC   NC318539  29.225  36.682   9.672
 1235POPC   PO418540  28.896  37.212   9.438
 1235POPC   GL118541  29.100  36.973   9.177
 1235POPC   GL218542  29.331  36.737   9.140
 1235POPC   C1A18543  28.970  36.767   8.788
 1235POPC   D2A18544  29.045  36.925   8.406
 1235POPC   C3A18545  28.869  36.718   8.073
 1235POPC   C4A18546  29.071  36.734   7.708
 1235POPC   C1B18547  29.382  37.078   8.790
 1235POPC   C2B18548  29.473  37.204   8.370
 1235POPC   C3B18549  29.643  37.227   7.923
 1235POPC   C4B18550  29.455  37.040   7.539
 1236POPC   NC318551  42.114  15.513   9.530
 1236POPC   PO418552  42.533  14.964   9.561
 1236POPC   GL118553  42.360  15.113   9.204
 1236POPC   GL218554  41.980  15.116   9.190
 1236POPC   C1A18555  42.459  14.939   8.826
 1236POPC   D2A18556  42.254  14.844   8.470
 1236POPC   C3A18557  42.354  15.014   8.096
 1236POPC   C4A18558  42.352  14.936   7.675
 1236POPC   C1B18559  42.085  15.266   8.773
 1236POPC   C2B18560  41.904  15.285   8.359
 1236POPC   C3B18561  41.932  15.202   7.909
 1236POPC   C4B18562  42.248  15.425   7.721
 1237POPC   NC318563   3.818  30.838   9.497
 1237POPC   PO418564   4.468  30.666   9.392
 1237POPC   GL118565   4.140  30.652   9.093
 1237POPC   GL218566   4.020  30.998   9.052
 1237POPC   C1A18567   4.265  30.443   8.701
 1237POPC   D2A18568   4.565  30.525   8.361
 1237POPC   C3A18569   4.487  30.644   7.917
 1237POPC   C4A18570   4.574  30.598   7.475
 1237POPC   C1B18571   3.926  30.809   8.643
 1237POPC   C2B18572   4.063  30.716   8.219
 1237POPC   C3B18573   4.053  30.931   7.800
 1237POPC   C4B18574   4.188  30.881   7.345
 1238POPC   NC318575  14.882   3.079   9.510
 1238POPC   PO418576  15.274   2.500   9.625
 1238POPC   GL118577  15.268   2.811   9.264
 1238POPC   GL218578  15.049   2.706   8.996
 1238POPC   C1A18579  15.427   2.989   8.826
 1238POPC   D2A18580  15.166   3.017   8.450
 1238POPC   C3A18581  15.379   3.039   8.025
 1238POPC   C4A18582  15.441   3.061   7.559
 1238POPC   C1B18583  15.120   2.500   8.607
 1238POPC   C2B18584  15.135   2.588   8.181
 1238POPC   C3B18585  15.175   2.377   7.841
 1238POPC   C4B18586  14.896   2.343   7.533
 1239POPC   NC318587  34.748  22.694   9.476
 1239POPC   PO418588  34.311  23.150   9.639
 1239POPC   GL118589  34.365  22.964   9.192
 1239POPC   GL218590  34.405  22.612   9.104
 1239POPC   C1A18591  34.646  22.943   8.777
 1239POPC   D2A18592  34.796  22.840   8.320
 1239POPC   C3A18593  34.863  23.104   7.938
 1239POPC   C4A18594  35.114  23.043   7.549
 1239POPC   C1B18595  34.288  22.568   8.712
 1239POPC   C2B18596  34.436  22.492   8.343
 1239POPC   C3B18597  34.450  22.722   7.978
 1239POPC   C4B18598  34.134  22.957   7.774
 1240POPC   NC318599  39.011  33.676   9.425
 1240POPC   PO418600  39.592  33.885   9.672
 1240POPC   GL118601  39.459  33.904   9.231
 1240POPC   GL218602  39.541  33.559   9.192
 1240POPC   C1A18603  39.220  33.846   8.815
 1240POPC   D2A18604  38.911  33.678   8.473
 1240POPC   C3A18605  39.104  33.776   8.055
 1240POPC   C4A18606  39.382  34.071   7.810
 1240POPC   C1B18607  39.366  33.352   8.845
 1240POPC   C2B18608  39.407  33.544   8.441
 1240POPC   C3B18609  39.592  33.651   8.081
 1240POPC   C4B18610  39.468  33.591   7.657
 1241POPC   NC318611   2.387  20.246   9.277
 1241POPC   PO418612   2.707  20.863   9.482
 1241POPC   GL118613   2.508  20.736   9.156
 1241POPC   GL218614   2.733  20.506   9.002
 1241POPC   C1A18615   2.372  20.819   8.762
 1241POPC   D2A18616   2.634  20.691   8.436
 1241POPC   C3A18617   2.522  20.833   8.066
 1241POPC   C4A18618   2.632  20.849   7.642
 1241POPC   C1B18619   3.031  20.536   8.688
 1241POPC   C2B18620   3.221  20.514   8.353
 1241POPC   C3B18621   2.981  20.570   8.060
 1241POPC   C4B18622   3.075  20.614   7.683
 1242POPC   NC318623  34.523  20.456   9.568
 1242POPC   PO418624  35.107  20.685   9.769
 1242POPC   GL118625  34.940  20.636   9.337
 1242POPC   GL218626  34.913  20.329   9.152
 1242POPC   C1A18627  34.646  20.755   8.977
 1242POPC   D2A18628  34.495  20.666   8.523
 1242POPC   C3A18629  34.278  20.819   8.112
 1242POPC   C4A18630  34.563  20.823   7.728
 1242POPC   C1B18631  34.963  20.421   8.694
 1242POPC   C2B18632  35.082  20.300   8.269
 1242POPC   C3B18633  34.933  20.138   7.860
 1242POPC   C4B18634  34.772  20.399   7.484
 1243POPC   NC318635  43.868   9.928   9.607
 1243POPC   PO418636  43.992   9.284   9.700
 1243POPC   GL118637  43.868   9.499   9.306
 1243POPC   GL218638  44.093   9.788   9.177
 1243POPC   C1A18639  43.795   9.460   8.872
 1243POPC   D2A18640  43.917   9.653   8.500
 1243POPC   C3A18641  43.941   9.440   8.102
 1243POPC   C4A18642  43.763   9.556   7.741
 1243POPC   C1B18643  43.815  10.013   8.897
 1243POPC   C2B18644  43.603  10.077   8.485
 1243POPC   C3B18645  43.759   9.942   8.091
 1243POPC   C4B18646  43.824  10.055   7.680
 1244POPC   NC318647   7.774  16.969   9.755
 1244POPC   PO418648   7.303  17.431   9.546
 1244POPC   GL118649   7.320  17.497   9.147
 1244POPC   GL218650   6.987  17.630   9.149
 1244POPC   C1A18651   7.514  17.342   8.782
 1244POPC   D2A18652   7.604  17.494   8.401
 1244POPC   C3A18653   7.481  17.371   8.028
 1244POPC   C4A18654   7.682  17.395   7.623
 1244POPC   C1B18655   7.070  17.671   8.733
 1244POPC   C2B18656   7.137  17.710   8.306
 1244POPC   C3B18657   7.000  17.667   7.899
 1244POPC   C4B18658   7.156  17.535   7.491
 1245POPC   NC318659  13.318  28.951   9.331
 1245POPC   PO418660  12.701  29.356   9.643
 1245POPC   GL118661  12.724  29.220   9.141
 1245POPC   GL218662  12.564  28.897   9.025
 1245POPC   C1A18663  12.863  29.344   8.690
 1245POPC   D2A18664  13.249  29.218   8.461
 1245POPC   C3A18665  13.193  29.053   8.043
 1245POPC   C4A18666  12.927  29.171   7.724
 1245POPC   C1B18667  12.947  28.860   8.802
 1245POPC   C2B18668  12.999  28.743   8.417
 1245POPC   C3B18669  12.715  28.711   8.111
 1245POPC   C4B18670  12.751  28.673   7.726
 1246POPC   NC318671  44.995  17.094   9.460
 1246POPC   PO418672  44.660  17.670   9.627
 1246POPC   GL118673  44.561  17.749   9.206
 1246POPC   GL218674  44.624  17.398   9.190
 1246POPC   C1A18675  44.827  17.716   8.834
 1246POPC   D2A18676  44.929  17.549   8.435
 1246POPC   C3A18677  44.688  17.688   8.053
 1246POPC   C4A18678  44.785  17.696   7.597
 1246POPC   C1B18679  44.505  17.326   8.760
 1246POPC   C2B18680  44.681  17.059   8.475
 1246POPC   C3B18681  44.885  17.135   8.140
 1246POPC   C4B18682  44.771  17.233   7.770
 1247POPC   NC318683   8.157  21.093   9.420
 1247POPC   PO418684   8.665  20.599   9.647
 1247POPC   GL118685   8.466  20.720   9.271
 1247POPC   GL218686   8.592  21.013   9.100
 1247POPC   C1A18687   8.369  20.590   8.834
 1247POPC   D2A18688   8.164  20.881   8.549
 1247POPC   C3A18689   8.159  20.827   8.107
 1247POPC   C4A18690   8.031  20.755   7.703
 1247POPC   C1B18691   8.688  20.968   8.674
 1247POPC   C2B18692   8.544  21.131   8.291
 1247POPC   C3B18693   8.504  21.098   7.832
 1247POPC   C4B18694   8.536  20.698   7.692
 1248POPC   NC318695   6.910  22.470   9.300
 1248POPC   PO418696   6.717  23.077   9.301
 1248POPC   GL118697   6.509  22.813   9.041
 1248POPC   GL218698   6.104  22.702   9.117
 1248POPC   C1A18699   6.771  22.699   8.683
 1248POPC   D2A18700   7.051  22.827   8.360
 1248POPC   C3A18701   6.859  22.824   7.987
 1248POPC   C4A18702   6.961  22.715   7.590
 1248POPC   C1B18703   6.109  22.858   8.730
 1248POPC   C2B18704   6.332  22.753   8.422
 1248POPC   C3B18705   6.319  22.926   8.054
 1248POPC   C4B18706   6.447  22.944   7.655
 1249POPC   NC318707  38.350   7.961   9.506
 1249POPC   PO418708  38.599   8.508   9.490
 1249POPC   GL118709  38.440   8.325   9.157
 1249POPC   GL218710  38.174   8.514   9.113
 1249POPC   C1A18711  38.623   8.151   8.788
 1249POPC   D2A18712  38.480   7.997   8.398
 1249POPC   C3A18713  38.632   8.167   7.995
 1249POPC   C4A18714  38.470   7.921   7.693
 1249POPC   C1B18715  38.323   8.562   8.716
 1249POPC   C2B18716  38.507   8.528   8.364
 1249POPC   C3B18717  38.322   8.591   8.015
 1249POPC   C4B18718  38.305   8.507   7.603
 1250POPC   NC318719  16.025  19.386   9.693
 1250POPC   PO418720  15.651  19.814   9.323
 1250POPC   GL118721  15.968  19.933   9.083
 1250POPC   GL218722  16.233  20.128   9.207
 1250POPC   C1A18723  15.925  19.834   8.678
 1250POPC   D2A18724  15.647  19.898   8.376
 1250POPC   C3A18725  15.777  19.889   7.962
 1250POPC   C4A18726  15.621  19.571   7.678
 1250POPC   C1B18727  16.201  20.261   8.758
 1250POPC   C2B18728  16.218  20.085   8.350
 1250POPC   C3B18729  16.286  20.032   7.933
 1250POPC   C4B18730  16.211  20.255   7.546
 1251POPC   NC318731  22.672  27.337   9.474
 1251POPC   PO418732  23.346  27.635   9.517
 1251POPC   GL118733  23.007  27.657   9.224
 1251POPC   GL218734  23.183  27.886   9.037
 1251POPC   C1A18735  22.884  27.439   8.834
 1251POPC   D2A18736  22.729  27.521   8.439
 1251POPC   C3A18737  22.999  27.554   8.088
 1251POPC   C4A18738  23.051  27.509   7.665
 1251POPC   C1B18739  23.479  28.011   8.727
 1251POPC   C2B18740  23.398  27.837   8.332
 1251POPC   C3B18741  23.442  27.765   7.897
 1251POPC   C4B18742  23.334  27.853   7.454
 1252POPC   NC318743  36.636  31.984   9.436
 1252POPC   PO418744  37.221  32.302   9.530
 1252POPC   GL118745  37.017  32.212   9.159
 1252POPC   GL218746  37.237  32.378   8.972
 1252POPC   C1A18747  36.846  32.154   8.734
 1252POPC   D2A18748  36.947  32.402   8.373
 1252POPC   C3A18749  37.232  32.202   8.105
 1252POPC   C4A18750  36.966  32.024   7.806
 1252POPC   C1B18751  37.131  32.713   8.737
 1252POPC   C2B18752  37.093  32.907   8.367
 1252POPC   C3B18753  37.173  32.699   7.986
 1252POPC   C4B18754  36.935  32.499   7.687
 1253POPC   NC318755  29.926  35.887   9.571
 1253POPC   PO418756  29.514  36.391   9.473
 1253POPC   GL118757  29.843  36.246   9.223
 1253POPC   GL218758  29.679  35.978   9.109
 1253POPC   C1A18759  30.071  36.142   8.840
 1253POPC   D2A18760  30.015  36.417   8.484
 1253POPC   C3A18761  29.779  36.339   8.133
 1253POPC   C4A18762  30.047  36.367   7.768
 1253POPC   C1B18763  29.483  35.872   8.736
 1253POPC   C2B18764  29.409  35.972   8.307
 1253POPC   C3B18765  29.556  35.920   7.855
 1253POPC   C4B18766  29.515  35.780   7.415
 1254POPC   NC318767   2.227  10.633   9.685
 1254POPC   PO418768   2.783  10.405   9.524
 1254POPC   GL118769   2.749  10.510   9.135
 1254POPC   GL218770   2.475  10.668   9.078
 1254POPC   C1A18771   2.680  10.297   8.778
 1254POPC   D2A18772   2.868  10.212   8.460
 1254POPC   C3A18773   2.656  10.363   8.121
 1254POPC   C4A18774   2.738  10.319   7.716
 1254POPC   C1B18775   2.756  10.804   8.732
 1254POPC   C2B18776   2.946  10.704   8.372
 1254POPC   C3B18777   3.024  10.841   7.955
 1254POPC   C4B18778   2.849  10.785   7.551
 1255POPC   NC318779  41.349  22.959   9.400
 1255POPC   PO418780  41.921  22.822   9.614
 1255POPC   GL118781  41.787  22.811   9.184
 1255POPC   GL218782  41.775  23.151   9.011
 1255POPC   C1A18783  41.601  22.722   8.772
 1255POPC   D2A18784  41.776  22.965   8.413
 1255POPC   C3A18785  41.667  22.771   8.053
 1255POPC   C4A18786  41.633  22.791   7.618
 1255POPC   C1B18787  41.406  23.206   8.696
 1255POPC   C2B18788  41.309  23.134   8.224
 1255POPC   C3B18789  41.564  23.243   7.838
 1255POPC   C4B18790  41.562  23.240   7.369
 1256POPC   NC318791   2.562   8.039   9.683
 1256POPC   PO418792   3.039   8.507   9.608
 1256POPC   GL118793   2.952   8.072   9.353
 1256POPC   GL218794   2.619   8.038   9.173
 1256POPC   C1A18795   3.027   7.878   8.913
 1256POPC   D2A18796   2.877   7.905   8.464
 1256POPC   C3A18797   3.067   8.123   8.172
 1256POPC   C4A18798   2.979   8.157   7.740
 1256POPC   C1B18799   2.693   8.260   8.777
 1256POPC   C2B18800   2.560   8.409   8.355
 1256POPC   C3B18801   2.655   8.506   7.910
 1256POPC   C4B18802   2.539   8.389   7.466
 1257POPC   NC318803  25.368  39.503   9.616
 1257POPC   PO418804  25.386  40.213   9.583
 1257POPC   GL118805  25.314  40.147   9.172
 1257POPC   GL218806  25.467  39.827   9.219
 1257POPC   C1A18807  25.211  40.070   8.747
 1257POPC   D2A18808  25.431  40.146   8.398
 1257POPC   C3A18809  25.281  39.872   8.100
 1257POPC   C4A18810  25.135  39.961   7.736
 1257POPC   C1B18811  25.605  39.787   8.817
 1257POPC   C2B18812  25.629  39.655   8.421
 1257POPC   C3B18813  25.608  39.492   8.000
 1257POPC   C4B18814  25.399  39.556   7.642
 1258POPC   NC318815   2.700  15.799   9.678
 1258POPC   PO418816   3.369  16.077   9.655
 1258POPC   GL118817   3.127  15.898   9.289
 1258POPC   GL218818   2.878  16.121   9.321
 1258POPC   C1A18819   2.955  15.742   8.867
 1258POPC   D2A18820   2.628  15.778   8.523
 1258POPC   C3A18821   2.796  15.814   8.126
 1258POPC   C4A18822   3.011  15.677   7.745
 1258POPC   C1B18823   2.652  16.152   8.950
 1258POPC   C2B18824   2.829  16.247   8.557
 1258POPC   C3B18825   2.894  16.315   8.132
 1258POPC   C4B18826   2.668  16.305   7.763
 1259POPC   NC318827   1.366   4.140   9.493
 1259POPC   PO418828   1.020   4.691   9.505
 1259POPC   GL118829   1.172   4.462   9.139
 1259POPC   GL218830   1.464   4.315   9.016
 1259POPC   C1A18831   1.051   4.312   8.709
 1259POPC   D2A18832   1.294   4.311   8.333
 1259POPC   C3A18833   1.155   4.468   7.924
 1259POPC   C4A18834   0.790   4.304   7.744
 1259POPC   C1B18835   1.709   4.130   8.671
 1259POPC   C2B18836   1.629   3.947   8.271
 1259POPC   C3B18837   1.559   4.162   7.896
 1259POPC   C4B18838   1.332   4.157   7.517
 1260POPC   NC318839  34.307  13.465   9.495
 1260POPC   PO418840  34.760  13.943   9.520
 1260POPC   GL118841  34.639  13.770   9.172
 1260POPC   GL218842  34.746  13.435   9.237
 1260POPC   C1A18843  34.559  13.905   8.771
 1260POPC   D2A18844  34.367  13.816   8.394
 1260POPC   C3A18845  34.560  13.849   8.042
 1260POPC   C4A18846  34.534  13.625   7.720
 1260POPC   C1B18847  34.495  13.362   8.867
 1260POPC   C2B18848  34.643  13.373   8.463
 1260POPC   C3B18849  34.754  13.317   8.076
 1260POPC   C4B18850  34.967  13.342   7.670
 1261POPC   NC318851  23.160  29.010   9.905
 1261POPC   PO418852  22.842  29.218   9.293
 1261POPC   GL118853  23.138  29.142   8.967
 1261POPC   GL218854  23.226  28.779   8.928
 1261POPC   C1A18855  23.208  29.301   8.583
 1261POPC   D2A18856  22.980  29.281   8.203
 1261POPC   C3A18857  23.092  29.424   7.809
 1261POPC   C4A18858  22.873  29.100   7.598
 1261POPC   C1B18859  23.120  28.793   8.547
 1261POPC   C2B18860  23.368  28.931   8.270
 1261POPC   C3B18861  23.178  28.902   7.938
 1261POPC   C4B18862  23.160  28.671   7.624
 1262POPC   NC318863  11.693  16.342   9.666
 1262POPC   PO418864  11.712  15.712   9.421
 1262POPC   GL118865  12.061  15.805   9.174
 1262POPC   GL218866  11.959  16.146   9.195
 1262POPC   C1A18867  12.172  15.797   8.731
 1262POPC   D2A18868  11.855  15.835   8.349
 1262POPC   C3A18869  11.975  15.896   7.923
 1262POPC   C4A18870  12.268  15.623   7.723
 1262POPC   C1B18871  11.784  16.145   8.737
 1262POPC   C2B18872  11.531  16.230   8.327
 1262POPC   C3B18873  11.602  16.493   7.936
 1262POPC   C4B18874  11.826  16.266   7.590
 1263POPC   NC318875  41.585  25.775   9.553
 1263POPC   PO418876  41.305  26.393   9.390
 1263POPC   GL118877  41.412  26.068   9.058
 1263POPC   GL218878  41.322  25.705   9.136
 1263POPC   C1A18879  41.441  26.088   8.572
 1263POPC   D2A18880  41.240  26.368   8.258
 1263POPC   C3A18881  41.355  26.320   7.800
 1263POPC   C4A18882  41.753  26.126   7.667
 1263POPC   C1B18883  41.568  25.638   8.827
 1263POPC   C2B18884  41.478  25.571   8.421
 1263POPC   C3B18885  41.530  25.849   8.089
 1263POPC   C4B18886  41.405  25.768   7.696
 1264POPC   NC318887  11.076  26.538   9.604
 1264POPC   PO418888  11.518  27.011   9.408
 1264POPC   GL118889  11.364  26.673   9.135
 1264POPC   GL218890  11.114  26.396   9.130
 1264POPC   C1A18891  11.424  26.797   8.706
 1264POPC   D2A18892  11.292  27.112   8.453
 1264POPC   C3A18893  11.490  27.138   8.057
 1264POPC   C4A18894  11.577  26.731   7.865
 1264POPC   C1B18895  10.973  26.574   8.753
 1264POPC   C2B18896  10.997  26.698   8.310
 1264POPC   C3B18897  11.039  26.722   7.852
 1264POPC   C4B18898  10.969  26.694   7.390
 1265POPC   NC318899  28.796  41.940   9.464
 1265POPC   PO418900  28.192  41.654   9.642
 1265POPC   GL118901  28.301  41.839   9.253
 1265POPC   GL218902  28.104  41.629   9.043
 1265POPC   C1A18903  28.509  41.895   8.848
 1265POPC   D2A18904  28.557  41.690   8.428
 1265POPC   C3A18905  28.684  41.924   8.082
 1265POPC   C4A18906  28.439  41.794   7.709
 1265POPC   C1B18907  28.390  41.353   8.809
 1265POPC   C2B18908  28.439  41.168   8.389
 1265POPC   C3B18909  28.298  41.331   7.982
 1265POPC   C4B18910  28.549  41.281   7.604
 1266POPC   NC318911  39.642  16.203   9.845
 1266POPC   PO418912  39.012  16.124   9.559
 1266POPC   GL118913  39.120  16.033   9.120
 1266POPC   GL218914  39.026  16.360   9.014
 1266POPC   C1A18915  39.444  15.875   8.815
 1266POPC   D2A18916  39.307  15.766   8.404
 1266POPC   C3A18917  39.464  15.892   8.017
 1266POPC   C4A18918  39.197  15.788   7.682
 1266POPC   C1B18919  39.082  16.191   8.625
 1266POPC   C2B18920  39.130  16.269   8.214
 1266POPC   C3B18921  39.205  16.281   7.813
 1266POPC   C4B18922  39.598  16.234   7.624
 1267POPC   NC318923   2.124  22.149   9.284
 1267POPC   PO418924   1.605  22.312   9.626
 1267POPC   GL118925   1.643  22.231   9.151
 1267POPC   GL218926   1.865  22.456   8.982
 1267POPC   C1A18927   1.644  22.069   8.719
 1267POPC   D2A18928   1.903  22.244   8.375
 1267POPC   C3A18929   1.727  22.249   7.947
 1267POPC   C4A18930   1.919  22.392   7.546
 1267POPC   C1B18931   2.236  22.506   8.745
 1267POPC   C2B18932   2.403  22.568   8.383
 1267POPC   C3B18933   2.427  22.360   8.032
 1267POPC   C4B18934   2.406  22.475   7.627
 1268POPC   NC318935  20.370   4.666   9.969
 1268POPC   PO418936  20.627   5.130   9.578
 1268POPC   GL118937  20.551   4.981   9.168
 1268POPC   GL218938  20.893   5.037   9.004
 1268POPC   C1A18939  20.437   4.957   8.737
 1268POPC   D2A18940  20.657   4.764   8.377
 1268POPC   C3A18941  20.697   5.091   8.050
 1268POPC   C4A18942  20.348   5.195   7.794
 1268POPC   C1B18943  20.844   5.212   8.571
 1268POPC   C2B18944  20.496   5.443   8.383
 1268POPC   C3B18945  20.511   5.641   7.975
 1268POPC   C4B18946  20.741   5.460   7.593
 1269POPC   NC318947  34.990  42.100   9.435
 1269POPC   PO418948  35.239  42.745   9.541
 1269POPC   GL118949  35.263  42.493   9.208
 1269POPC   GL218950  35.576  42.411   9.227
 1269POPC   C1A18951  35.340  42.183   8.859
 1269POPC   D2A18952  35.534  42.262   8.478
 1269POPC   C3A18953  35.254  42.235   8.138
 1269POPC   C4A18954  35.380  42.205   7.731
 1269POPC   C1B18955  35.585  42.650   8.839
 1269POPC   C2B18956  35.463  42.764   8.418
 1269POPC   C3B18957  35.596  42.622   8.020
 1269POPC   C4B18958  35.830  42.785   7.620
 1270POPC   NC318959  31.650  42.651   9.552
 1270POPC   PO418960  31.289  42.111   9.496
 1270POPC   GL118961  31.413  42.399   9.188
 1270POPC   GL218962  31.630  42.165   9.074
 1270POPC   C1A18963  31.486  42.543   8.781
 1270POPC   D2A18964  31.647  42.354   8.442
 1270POPC   C3A18965  31.547  42.552   8.077
 1270POPC   C4A18966  31.352  42.452   7.731
 1270POPC   C1B18967  31.852  41.945   8.761
 1270POPC   C2B18968  31.758  41.862   8.346
 1270POPC   C3B18969  31.553  42.037   7.971
 1270POPC   C4B18970  31.527  42.050   7.493
 1271POPC   NC318971   0.503  38.915   9.425
 1271POPC   PO418972   0.634  39.548   9.681
 1271POPC   GL118973   0.361  39.382   9.350
 1271POPC   GL218974   0.700  39.375   9.167
 1271POPC   C1A18975   0.291  39.277   8.876
 1271POPC   D2A18976   0.632  39.144   8.566
 1271POPC   C3A18977   0.650  38.962   8.179
 1271POPC   C4A18978   0.462  38.942   7.774
 1271POPC   C1B18979   0.670  39.620   8.764
 1271POPC   C2B18980   0.367  39.540   8.421
 1271POPC   C3B18981   0.250  39.274   8.134
 1271POPC   C4B18982   0.109  39.305   7.753
 1272POPC   NC318983  33.811  26.643   9.752
 1272POPC   PO418984  33.199  26.685   9.506
 1272POPC   GL118985  33.648  26.802   9.305
 1272POPC   GL218986  33.943  26.578   9.258
 1272POPC   C1A18987  33.811  26.922   8.894
 1272POPC   D2A18988  33.778  27.125   8.511
 1272POPC   C3A18989  33.702  26.895   8.137
 1272POPC   C4A18990  33.621  27.002   7.727
 1272POPC   C1B18991  33.773  26.414   8.862
 1272POPC   C2B18992  33.864  26.499   8.422
 1272POPC   C3B18993  33.785  26.412   7.965
 1272POPC   C4B18994  33.842  26.582   7.573
 1273POPC   NC318995  26.662   1.011   9.428
 1273POPC   PO418996  26.871   1.649   9.480
 1273POPC   GL118997  27.013   1.297   9.201
 1273POPC   GL218998  27.279   1.453   9.119
 1273POPC   C1A18999  26.890   1.026   8.818
 1273POPC   D2A19000  26.687   0.985   8.400
 1273POPC   C3A19001  26.907   1.077   7.979
 1273POPC   C4A19002  26.781   1.156   7.539
 1273POPC   C1B19003  27.088   1.481   8.711
 1273POPC   C2B19004  26.879   1.477   8.310
 1273POPC   C3B19005  26.801   1.572   7.875
 1273POPC   C4B19006  27.089   1.626   7.587
 1274POPC   NC319007  39.494  12.416   9.526
 1274POPC   PO419008  39.223  11.844   9.721
 1274POPC   GL119009  39.183  11.829   9.271
 1274POPC   GL219010  39.288  12.142   9.126
 1274POPC   C1A19011  39.070  11.796   8.823
 1274POPC   D2A19012  38.987  12.047   8.442
 1274POPC   C3A19013  39.036  11.847   8.006
 1274POPC   C4A19014  38.951  11.764   7.534
 1274POPC   C1B19015  39.507  12.099   8.715
 1274POPC   C2B19016  39.437  12.231   8.288
 1274POPC   C3B19017  39.346  12.229   7.843
 1274POPC   C4B19018  38.949  12.254   7.644
 1275POPC   NC319019  30.070  42.904   9.624
 1275POPC   PO419020  29.424  43.131   9.671
 1275POPC   GL119021  29.684  43.096   9.295
 1275POPC   GL219022  29.806  42.751   9.215
 1275POPC   C1A19023  29.814  43.226   8.889
 1275POPC   D2A19024  29.734  43.477   8.525
 1275POPC   C3A19025  29.962  43.377   8.177
 1275POPC   C4A19026  29.737  43.226   7.835
 1275POPC   C1B19027  29.852  42.710   8.777
 1275POPC   C2B19028  30.048  42.926   8.424
 1275POPC   C3B19029  30.018  42.828   7.980
 1275POPC   C4B19030  29.983  42.902   7.501
 1276POPC   NC319031  34.311  38.873   9.559
 1276POPC   PO419032  34.863  39.179   9.638
 1276POPC   GL119033  34.665  39.282   9.193
 1276POPC   GL219034  34.346  39.084   9.099
 1276POPC   C1A19035  34.520  39.424   8.783
 1276POPC   D2A19036  34.340  39.163   8.476
 1276POPC   C3A19037  34.512  39.277   8.075
 1276POPC   C4A19038  34.428  39.272   7.660
 1276POPC   C1B19039  34.009  38.927   8.834
 1276POPC   C2B19040  33.875  38.922   8.402
 1276POPC   C3B19041  34.144  38.912   8.028
 1276POPC   C4B19042  34.013  38.992   7.620
 1277POPC   NC319043  24.691  34.248   9.321
 1277POPC   PO419044  24.164  34.523   9.652
 1277POPC   GL119045  24.262  34.621   9.224
 1277POPC   GL219046  24.593  34.748   9.158
 1277POPC   C1A19047  24.285  34.441   8.800
 1277POPC   D2A19048  24.347  34.638   8.409
 1277POPC   C3A19049  24.215  34.484   8.006
 1277POPC   C4A19050  24.556  34.397   7.742
 1277POPC   C1B19051  24.753  34.679   8.728
 1277POPC   C2B19052  24.860  34.812   8.283
 1277POPC   C3B19053  24.721  34.877   7.833
 1277POPC   C4B19054  24.622  34.845   7.368
 1278POPC   NC319055  32.954  14.300   9.403
 1278POPC   PO419056  33.562  13.964   9.332
 1278POPC   GL119057  33.337  14.273   9.057
 1278POPC   GL219058  33.215  14.617   9.079
 1278POPC   C1A19059  33.093  14.307   8.668
 1278POPC   D2A19060  32.864  14.182   8.310
 1278POPC   C3A19061  33.097  14.201   7.953
 1278POPC   C4A19062  32.857  14.115   7.644
 1278POPC   C1B19063  32.826  14.702   8.865
 1278POPC   C2B19064  32.694  14.640   8.432
 1278POPC   C3B19065  32.812  14.624   7.983
 1278POPC   C4B19066  33.033  14.593   7.597
 1279POPC   NC319067  34.415  10.995   9.413
 1279POPC   PO419068  34.720  10.522   9.738
 1279POPC   GL119069  34.725  10.602   9.270
 1279POPC   GL219070  34.586  10.291   9.205
 1279POPC   C1A19071  34.500  10.649   8.848
 1279POPC   D2A19072  34.488  10.408   8.456
 1279POPC   C3A19073  34.540  10.643   8.101
 1279POPC   C4A19074  34.252  10.686   7.784
 1279POPC   C1B19075  34.820  10.264   8.818
 1279POPC   C2B19076  34.932  10.158   8.404
 1279POPC   C3B19077  34.741  10.162   8.000
 1279POPC   C4B19078  34.675  10.409   7.651
 1280POPC   NC319079   1.842  39.579   9.447
 1280POPC   PO419080   2.381  39.103   9.506
 1280POPC   GL119081   2.175  39.182   9.140
 1280POPC   GL219082   2.201  39.539   9.101
 1280POPC   C1A19083   1.987  39.055   8.733
 1280POPC   D2A19084   1.957  39.290   8.324
 1280POPC   C3A19085   1.801  39.098   7.936
 1280POPC   C4A19086   2.053  38.975   7.588
 1280POPC   C1B19087   2.338  39.436   8.703
 1280POPC   C2B19088   2.491  39.464   8.294
 1280POPC   C3B19089   2.326  39.284   7.916
 1280POPC   C4B19090   2.016  39.486   7.662
 1281POPC   NC319091  15.704   5.313   9.505
 1281POPC   PO419092  16.190   4.881   9.563
 1281POPC   GL119093  15.984   5.013   9.187
 1281POPC   GL219094  16.148   5.342   9.199
 1281POPC   C1A19095  16.086   5.096   8.750
 1281POPC   D2A19096  15.859   5.105   8.374
 1281POPC   C3A19097  16.062   5.025   8.008
 1281POPC   C4A19098  15.711   4.998   7.735
 1281POPC   C1B19099  15.795   5.509   8.894
 1281POPC   C2B19100  15.628   5.580   8.465
 1281POPC   C3B19101  15.737   5.457   8.012
 1281POPC   C4B19102  16.045   5.381   7.650
 1282POPC   NC319103  22.578  43.335   9.179
 1282POPC   PO419104  23.073  43.021   9.607
 1282POPC   GL119105  23.202  43.050   9.158
 1282POPC   GL219106  22.921  43.030   8.967
 1282POPC   C1A19107  23.310  43.285   8.730
 1282POPC   D2A19108  23.127  43.531   8.370
 1282POPC   C3A19109  23.151  43.272   7.973
 1282POPC   C4A19110  23.149  42.826   7.816
 1282POPC   C1B19111  22.634  42.973   8.608
 1282POPC   C2B19112  22.491  43.180   8.229
 1282POPC   C3B19113  22.649  43.326   7.824
 1282POPC   C4B19114  22.490  43.539   7.435
 1283POPC   NC319115  14.862  12.135   9.570
 1283POPC   PO419116  15.396  12.504   9.769
 1283POPC   GL119117  15.362  12.102   9.365
 1283POPC   GL219118  15.044  11.976   9.153
 1283POPC   C1A19119  15.420  12.056   8.851
 1283POPC   D2A19120  15.398  12.213   8.425
 1283POPC   C3A19121  15.154  12.249   8.057
 1283POPC   C4A19122  15.396  12.263   7.707
 1283POPC   C1B19123  14.953  11.713   8.827
 1283POPC   C2B19124  14.974  11.834   8.429
 1283POPC   C3B19125  15.163  11.750   8.079
 1283POPC   C4B19126  14.996  11.923   7.678
 1284POPC   NC319127   6.359  32.480   9.421
 1284POPC   PO419128   6.575  31.867   9.475
 1284POPC   GL119129   6.646  32.164   9.133
 1284POPC   GL219130   6.997  32.222   9.056
 1284POPC   C1A19131   6.660  32.481   8.791
 1284POPC   D2A19132   6.521  32.527   8.378
 1284POPC   C3A19133   6.846  32.391   8.147
 1284POPC   C4A19134   6.866  32.265   7.738
 1284POPC   C1B19135   6.896  31.900   8.795
 1284POPC   C2B19136   6.675  31.976   8.479
 1284POPC   C3B19137   6.723  31.902   8.102
 1284POPC   C4B19138   6.793  31.682   7.795
 1285POPC   NC319139  21.219  15.555   9.479
 1285POPC   PO419140  21.574  16.061   9.619
 1285POPC   GL119141  21.427  15.951   9.230
 1285POPC   GL219142  21.641  15.712   9.132
 1285POPC   C1A19143  21.244  15.923   8.815
 1285POPC   D2A19144  21.285  16.152   8.446
 1285POPC   C3A19145  21.265  15.987   8.041
 1285POPC   C4A19146  21.120  16.145   7.636
 1285POPC   C1B19147  21.621  15.549   8.741
 1285POPC   C2B19148  21.696  15.669   8.351
 1285POPC   C3B19149  21.551  15.580   7.948
 1285POPC   C4B19150  21.563  15.873   7.595
 1286POPC   NC319151   4.482  17.829   9.566
 1286POPC   PO419152   4.107  17.307   9.705
 1286POPC   GL119153   4.175  17.568   9.236
 1286POPC   GL219154   4.454  17.718   9.075
 1286POPC   C1A19155   4.251  17.390   8.762
 1286POPC   D2A19156   4.278  17.337   8.339
 1286POPC   C3A19157   4.643  17.284   8.155
 1286POPC   C4A19158   4.617  17.358   7.750
 1286POPC   C1B19159   4.617  17.748   8.669
 1286POPC   C2B19160   4.551  17.772   8.260
 1286POPC   C3B19161   4.351  17.805   7.906
 1286POPC   C4B19162   4.659  17.890   7.673
 1287POPC   NC319163  35.926   8.460   9.365
 1287POPC   PO419164  36.328   7.875   9.478
 1287POPC   GL119165  36.118   7.927   9.114
 1287POPC   GL219166  35.788   7.973   9.165
 1287POPC   C1A19167  36.098   8.153   8.741
 1287POPC   D2A19168  35.890   8.369   8.400
 1287POPC   C3A19169  36.213   8.496   8.136
 1287POPC   C4A19170  36.386   8.397   7.750
 1287POPC   C1B19171  35.700   7.830   8.725
 1287POPC   C2B19172  35.946   7.848   8.328
 1287POPC   C3B19173  36.042   8.047   7.949
 1287POPC   C4B19174  35.878   8.365   7.694
 1288POPC   NC319175  22.404  40.287   9.506
 1288POPC   PO419176  21.880  39.957   9.299
 1288POPC   GL119177  22.193  40.173   9.056
 1288POPC   GL219178  22.408  39.883   9.104
 1288POPC   C1A19179  22.317  40.233   8.631
 1288POPC   D2A19180  22.060  40.059   8.296
 1288POPC   C3A19181  22.277  39.999   7.925
 1288POPC   C4A19182  22.261  40.238   7.554
 1288POPC   C1B19183  22.170  39.757   8.715
 1288POPC   C2B19184  22.039  39.514   8.346
 1288POPC   C3B19185  21.740  39.702   8.071
 1288POPC   C4B19186  21.846  39.899   7.680
 1289POPC   NC319187  32.332  12.518   9.462
 1289POPC   PO419188  31.734  12.346   9.343
 1289POPC   GL119189  32.178  12.107   9.159
 1289POPC   GL219190  32.428  11.845   9.162
 1289POPC   C1A19191  32.140  11.935   8.743
 1289POPC   D2A19192  31.754  11.843   8.546
 1289POPC   C3A19193  31.843  12.007   8.149
 1289POPC   C4A19194  32.161  12.055   7.816
 1289POPC   C1B19195  32.657  11.967   8.786
 1289POPC   C2B19196  32.496  11.939   8.351
 1289POPC   C3B19197  32.477  11.662   7.978
 1289POPC   C4B19198  32.608  11.886   7.638
 1290POPC   NC319199  25.555  17.980   9.492
 1290POPC   PO419200  25.032  18.452   9.489
 1290POPC   GL119201  25.135  18.126   9.140
 1290POPC   GL219202  25.474  18.091   9.010
 1290POPC   C1A19203  25.128  18.013   8.667
 1290POPC   D2A19204  25.181  18.182   8.225
 1290POPC   C3A19205  25.251  17.982   7.809
 1290POPC   C4A19206  25.331  18.108   7.392
 1290POPC   C1B19207  25.526  18.371   8.668
 1290POPC   C2B19208  25.709  18.355   8.269
 1290POPC   C3B19209  25.656  18.301   7.822
 1290POPC   C4B19210  25.538  18.564   7.439
 1291POPC   NC319211   7.379  27.546   9.600
 1291POPC   PO419212   8.039  27.705   9.616
 1291POPC   GL119213   7.652  27.682   9.218
 1291POPC   GL219214   7.219  27.684   9.152
 1291POPC   C1A19215   7.560  27.728   8.780
 1291POPC   D2A19216   7.791  27.822   8.426
 1291POPC   C3A19217   7.650  27.611   8.091
 1291POPC   C4A19218   7.483  27.704   7.722
 1291POPC   C1B19219   7.189  27.356   8.845
 1291POPC   C2B19220   7.214  27.515   8.432
 1291POPC   C3B19221   7.066  27.394   8.056
 1291POPC   C4B19222   7.142  27.357   7.655
 1292POPC   NC319223  10.462  32.633   9.480
 1292POPC   PO419224  10.572  33.295   9.739
 1292POPC   GL119225  10.517  33.131   9.246
 1292POPC   GL219226  10.306  32.874   9.095
 1292POPC   C1A19227  10.650  33.016   8.768
 1292POPC   D2A19228  10.720  33.188   8.340
 1292POPC   C3A19229  10.670  32.897   8.026
 1292POPC   C4A19230  10.444  32.862   7.657
 1292POPC   C1B19231  10.141  32.692   8.763
 1292POPC   C2B19232  10.328  32.801   8.387
 1292POPC   C3B19233  10.102  32.792   8.016
 1292POPC   C4B19234   9.898  32.864   7.628
 1293POPC   NC319235  41.803   6.409   9.315
 1293POPC   PO419236  41.408   6.970   9.427
 1293POPC   GL119237  41.438   6.711   9.078
 1293POPC   GL219238  41.239   6.413   8.988
 1293POPC   C1A19239  41.661   6.720   8.703
 1293POPC   D2A19240  41.895   6.725   8.323
 1293POPC   C3A19241  41.651   6.700   7.932
 1293POPC   C4A19242  41.580   6.958   7.557
 1293POPC   C1B19243  41.535   6.219   8.707
 1293POPC   C2B19244  41.919   6.265   8.511
 1293POPC   C3B19245  42.034   6.316   8.045
 1293POPC   C4B19246  41.878   6.367   7.614
 1294POPC   NC319247   4.872  30.499   9.541
 1294POPC   PO419248   5.440  30.250   9.457
 1294POPC   GL119249   5.221  30.526   9.182
 1294POPC   GL219250   5.205  30.860   9.199
 1294POPC   C1A19251   4.952  30.539   8.830
 1294POPC   D2A19252   5.032  30.338   8.431
 1294POPC   C3A19253   4.995  30.571   8.017
 1294POPC   C4A19254   5.012  30.833   7.619
 1294POPC   C1B19255   5.417  30.772   8.781
 1294POPC   C2B19256   5.429  30.669   8.366
 1294POPC   C3B19257   5.409  30.863   8.008
 1294POPC   C4B19258   5.650  30.959   7.665
 1295POPC   NC319259  15.376  36.796   9.664
 1295POPC   PO419260  14.823  36.595   9.552
 1295POPC   GL119261  15.051  36.764   9.193
 1295POPC   GL219262  15.390  36.659   9.164
 1295POPC   C1A19263  15.248  37.045   8.855
 1295POPC   D2A19264  15.458  37.041   8.431
 1295POPC   C3A19265  15.198  37.099   8.065
 1295POPC   C4A19266  15.200  37.310   7.677
 1295POPC   C1B19267  15.286  36.522   8.752
 1295POPC   C2B19268  15.184  36.596   8.313
 1295POPC   C3B19269  15.347  36.637   7.887
 1295POPC   C4B19270  15.555  36.597   7.467
 1296POPC   NC319271  28.992  40.432   9.489
 1296POPC   PO419272  29.487  40.884   9.503
 1296POPC   GL119273  29.155  40.820   9.199
 1296POPC   GL219274  28.966  41.118   9.159
 1296POPC   C1A19275  29.130  40.628   8.791
 1296POPC   D2A19276  29.345  40.792   8.420
 1296POPC   C3A19277  29.194  40.839   7.990
 1296POPC   C4A19278  29.122  40.674   7.536
 1296POPC   C1B19279  29.281  41.135   8.806
 1296POPC   C2B19280  29.484  41.291   8.440
 1296POPC   C3B19281  29.693  41.140   8.099
 1296POPC   C4B19282  29.529  41.129   7.688
 1297POPC   NC319283  17.060  40.083   9.429
 1297POPC   PO419284  17.773  39.912   9.521
 1297POPC   GL119285  17.533  39.907   9.148
 1297POPC   GL219286  17.234  39.709   9.092
 1297POPC   C1A19287  17.664  39.802   8.739
 1297POPC   D2A19288  17.711  40.026   8.363
 1297POPC   C3A19289  17.672  39.817   8.000
 1297POPC   C4A19290  17.538  39.940   7.621
 1297POPC   C1B19291  17.251  39.478   8.731
 1297POPC   C2B19292  17.289  39.706   8.353
 1297POPC   C3B19293  17.203  39.997   8.037
 1297POPC   C4B19294  17.087  39.759   7.671
 1298POPC   NC319295  39.853  10.550   9.551
 1298POPC   PO419296  40.503  10.654   9.552
 1298POPC   GL119297  40.279  10.418   9.202
 1298POPC   GL219298  39.916  10.325   9.101
 1298POPC   C1A19299  40.245  10.423   8.732
 1298POPC   D2A19300  40.058  10.294   8.345
 1298POPC   C3A19301  40.102  10.560   7.993
 1298POPC   C4A19302  40.225  10.480   7.566
 1298POPC   C1B19303  39.687  10.415   8.748
 1298POPC   C2B19304  39.667  10.601   8.366
 1298POPC   C3B19305  39.639  10.356   8.020
 1298POPC   C4B19306  39.738  10.461   7.600
 1299POPC   NC319307   8.825  33.043   9.616
 1299POPC   PO419308   9.397  33.415   9.833
 1299POPC   GL119309   9.241  33.254   9.413
 1299POPC   GL219310   9.459  33.307   9.192
 1299POPC   C1A19311   9.075  33.130   8.938
 1299POPC   D2A19312   8.969  32.860   8.575
 1299POPC   C3A19313   8.916  33.047   8.138
 1299POPC   C4A19314   9.032  32.892   7.706
 1299POPC   C1B19315   9.555  33.301   8.783
 1299POPC   C2B19316   9.222  33.380   8.490
 1299POPC   C3B19317   9.311  33.388   8.089
 1299POPC   C4B19318   9.032  33.413   7.745
 1300POPC   NC319319  20.536  28.098   9.459
 1300POPC   PO419320  21.036  28.584   9.522
 1300POPC   GL119321  20.714  28.520   9.181
 1300POPC   GL219322  20.351  28.517   9.130
 1300POPC   C1A19323  20.629  28.220   8.810
 1300POPC   D2A19324  20.553  27.962   8.441
 1300POPC   C3A19325  20.536  28.177   8.061
 1300POPC   C4A19326  20.684  28.297   7.637
 1300POPC   C1B19327  20.512  28.722   8.758
 1300POPC   C2B19328  20.421  28.789   8.338
 1300POPC   C3B19329  20.462  28.658   7.938
 1300POPC   C4B19330  20.787  28.810   7.727
 1301POPC   NC319331  40.923  24.465   9.524
 1301POPC   PO419332  40.263  24.414   9.544
 1301POPC   GL119333  40.541  24.508   9.195
 1301POPC   GL219334  40.734  24.204   9.107
 1301POPC   C1A19335  40.684  24.695   8.812
 1301POPC   D2A19336  40.958  24.784   8.447
 1301POPC   C3A19337  40.813  24.721   8.035
 1301POPC   C4A19338  40.695  24.427   7.767
 1301POPC   C1B19339  40.976  24.297   8.701
 1301POPC   C2B19340  41.097  24.331   8.249
 1301POPC   C3B19341  41.195  24.410   7.822
 1301POPC   C4B19342  41.061  24.151   7.499
 1302POPC   NC319343   6.046  21.734   9.475
 1302POPC   PO419344   5.909  21.075   9.298
 1302POPC   GL119345   5.899  21.500   9.060
 1302POPC   GL219346   6.218  21.692   9.015
 1302POPC   C1A19347   5.685  21.658   8.683
 1302POPC   D2A19348   5.615  21.401   8.319
 1302POPC   C3A19349   5.605  21.543   7.899
 1302POPC   C4A19350   5.655  21.278   7.494
 1302POPC   C1B19351   6.160  21.437   8.635
 1302POPC   C2B19352   6.124  21.185   8.270
 1302POPC   C3B19353   6.041  21.295   7.879
 1302POPC   C4B19354   6.316  21.620   7.762
 1303POPC   NC319355  44.651   0.613   9.472
 1303POPC   PO419356  44.286   0.041   9.389
 1303POPC   GL119357  44.552   0.240   9.126
 1303POPC   GL219358  44.878   0.111   9.120
 1303POPC   C1A19359  44.677   0.512   8.789
 1303POPC   D2A19360  44.648   0.784   8.432
 1303POPC   C3A19361  44.533   0.517   8.088
 1303POPC   C4A19362  44.534   0.464   7.648
 1303POPC   C1B19363   0.091   0.193   8.763
 1303POPC   C2B19364  44.953   0.342   8.364
 1303POPC   C3B19365  44.993   0.272   7.935
 1303POPC   C4B19366   0.006   0.334   7.466
 1304POPC   NC319367  17.303  21.527   9.526
 1304POPC   PO419368  17.778  20.996   9.546
 1304POPC   GL119369  17.545  21.048   9.157
 1304POPC   GL219370  17.534  21.401   9.084
 1304POPC   C1A19371  17.683  21.045   8.713
 1304POPC   D2A19372  17.667  21.333   8.403
 1304POPC   C3A19373  17.389  21.258   8.079
 1304POPC   C4A19374  17.586  21.225   7.726
 1304POPC   C1B19375  17.352  21.646   8.725
 1304POPC   C2B19376  17.359  21.744   8.280
 1304POPC   C3B19377  17.436  21.697   7.805
 1304POPC   C4B19378  17.812  21.752   7.521
 1305POPC   NC319379  29.782  28.593   9.728
 1305POPC   PO419380  30.169  28.066   9.577
 1305POPC   GL119381  29.820  28.241   9.305
 1305POPC   GL219382  29.827  27.971   9.078
 1305POPC   C1A19383  29.732  28.450   8.885
 1305POPC   D2A19384  29.909  28.513   8.466
 1305POPC   C3A19385  29.716  28.408   8.083
 1305POPC   C4A19386  29.699  28.587   7.746
 1305POPC   C1B19387  30.219  28.236   8.897
 1305POPC   C2B19388  30.397  28.382   8.474
 1305POPC   C3B19389  30.242  28.445   8.019
 1305POPC   C4B19390  30.115  28.194   7.657
 1306POPC   NC319391  23.562  27.181   9.554
 1306POPC   PO419392  24.202  27.428   9.454
 1306POPC   GL119393  23.976  27.526   9.083
 1306POPC   GL219394  23.682  27.745   9.130
 1306POPC   C1A19395  23.948  27.668   8.654
 1306POPC   D2A19396  23.892  27.777   8.242
 1306POPC   C3A19397  23.859  27.461   7.916
 1306POPC   C4A19398  23.825  27.721   7.547
 1306POPC   C1B19399  23.488  27.515   8.774
 1306POPC   C2B19400  23.571  27.350   8.351
 1306POPC   C3B19401  23.392  27.250   7.929
 1306POPC   C4B19402  23.503  27.345   7.485
 1307POPC   NC319403  13.331  15.949   9.273
 1307POPC   PO419404  13.935  15.695   9.512
 1307POPC   GL119405  13.821  15.901   9.140
 1307POPC   GL219406  13.712  16.230   9.154
 1307POPC   C1A19407  13.631  15.895   8.710
 1307POPC   D2A19408  13.404  15.884   8.336
 1307POPC   C3A19409  13.666  15.724   8.043
 1307POPC   C4A19410  13.646  15.837   7.662
 1307POPC   C1B19411  13.504  16.409   8.770
 1307POPC   C2B19412  13.328  16.407   8.345
 1307POPC   C3B19413  13.468  16.283   7.941
 1307POPC   C4B19414  13.382  16.418   7.538
 1308POPC   NC319415  35.274  31.459   9.520
 1308POPC   PO419416  35.893  31.155   9.450
 1308POPC   GL119417  35.638  31.164   9.105
 1308POPC   GL219418  35.319  31.352   9.042
 1308POPC   C1A19419  35.682  31.317   8.701
 1308POPC   D2A19420  35.400  31.510   8.455
 1308POPC   C3A19421  35.374  31.281   8.126
 1308POPC   C4A19422  35.621  31.357   7.754
 1308POPC   C1B19423  35.158  31.731   8.834
 1308POPC   C2B19424  34.980  31.764   8.350
 1308POPC   C3B19425  35.172  31.681   7.895
 1308POPC   C4B19426  35.211  31.812   7.426
 1309POPC   NC319427  37.684  20.948   9.201
 1309POPC   PO419428  37.379  20.323   9.362
 1309POPC   GL119429  37.402  20.566   9.033
 1309POPC   GL219430  37.739  20.475   9.019
 1309POPC   C1A19431  37.517  20.717   8.618
 1309POPC   D2A19432  37.326  20.594   8.265
 1309POPC   C3A19433  37.483  20.755   7.882
 1309POPC   C4A19434  37.488  20.375   7.718
 1309POPC   C1B19435  38.052  20.545   8.750
 1309POPC   C2B19436  38.248  20.507   8.373
 1309POPC   C3B19437  37.948  20.570   8.065
 1309POPC   C4B19438  37.975  20.457   7.655
 1310POPC   NC319439  10.086  40.995   9.371
 1310POPC   PO419440  10.683  40.599   9.526
 1310POPC   GL119441  10.621  40.659   9.101
 1310POPC   GL219442  10.274  40.597   9.036
 1310POPC   C1A19443  10.696  40.708   8.676
 1310POPC   D2A19444  10.523  40.862   8.319
 1310POPC   C3A19445  10.716  40.713   7.994
 1310POPC   C4A19446  10.469  40.748   7.704
 1310POPC   C1B19447  10.266  40.981   8.759
 1310POPC   C2B19448  10.043  41.066   8.384
 1310POPC   C3B19449  10.153  41.108   7.970
 1310POPC   C4B19450  10.028  40.937   7.598
 1311POPC   NC319451  42.457  29.951   9.550
 1311POPC   PO419452  42.102  29.412   9.509
 1311POPC   GL119453  42.356  29.633   9.160
 1311POPC   GL219454  42.369  30.020   9.060
 1311POPC   C1A19455  42.413  29.651   8.724
 1311POPC   D2A19456  42.580  29.893   8.356
 1311POPC   C3A19457  42.378  29.763   8.029
 1311POPC   C4A19458  42.326  29.641   7.635
 1311POPC   C1B19459  42.316  30.240   8.665
 1311POPC   C2B19460  42.290  30.295   8.207
 1311POPC   C3B19461  42.297  30.172   7.760
 1311POPC   C4B19462  42.687  30.012   7.680
 1312POPC   NC319463  38.484  35.665   9.479
 1312POPC   PO419464  38.482  34.988   9.485
 1312POPC   GL119465  38.349  35.232   9.136
 1312POPC   GL219466  38.164  35.559   9.118
 1312POPC   C1A19467  38.428  35.084   8.738
 1312POPC   D2A19468  38.745  35.069   8.453
 1312POPC   C3A19469  38.496  35.035   8.085
 1312POPC   C4A19470  38.602  35.129   7.696
 1312POPC   C1B19471  38.381  35.596   8.734
 1312POPC   C2B19472  38.475  35.514   8.306
 1312POPC   C3B19473  38.385  35.569   7.850
 1312POPC   C4B19474  38.197  35.646   7.414
 1313POPC   NC319475   0.201  39.823   9.668
 1313POPC   PO419476   0.599  40.226   9.459
 1313POPC   GL119477   0.559  40.120   9.046
 1313POPC   GL219478   0.432  39.834   9.160
 1313POPC   C1A19479   0.296  40.330   8.721
 1313POPC   D2A19480   0.240  40.566   8.358
 1313POPC   C3A19481   0.305  40.407   7.968
 1313POPC   C4A19482   0.024  40.440   7.647
 1313POPC   C1B19483   0.180  39.848   8.776
 1313POPC   C2B19484   0.284  40.025   8.326
 1313POPC   C3B19485   0.288  39.771   7.947
 1313POPC   C4B19486   0.587  39.451   7.795
 1314POPC   NC319487  11.589  11.580   9.445
 1314POPC   PO419488  11.482  10.954   9.637
 1314POPC   GL119489  11.455  10.981   9.193
 1314POPC   GL219490  11.745  11.186   9.118
 1314POPC   C1A19491  11.366  11.124   8.743
 1314POPC   D2A19492  11.039  11.199   8.405
 1314POPC   C3A19493  11.167  11.285   7.991
 1314POPC   C4A19494  11.437  11.599   7.816
 1314POPC   C1B19495  11.745  11.467   8.729
 1314POPC   C2B19496  11.551  11.438   8.339
 1314POPC   C3B19497  11.652  11.150   8.032
 1314POPC   C4B19498  11.843  11.318   7.683
 1315POPC   NC319499  13.975  30.704   9.490
 1315POPC   PO419500  13.523  30.201   9.430
 1315POPC   GL119501  13.561  30.502   9.079
 1315POPC   GL219502  13.876  30.718   9.001
 1315POPC   C1A19503  13.430  30.799   8.758
 1315POPC   D2A19504  13.646  30.923   8.402
 1315POPC   C3A19505  13.408  30.741   8.083
 1315POPC   C4A19506  13.337  31.023   7.771
 1315POPC   C1B19507  13.971  30.338   8.830
 1315POPC   C2B19508  14.041  30.316   8.425
 1315POPC   C3B19509  13.901  30.566   8.099
 1315POPC   C4B19510  13.831  30.946   7.899
 1316POPC   NC319511  40.750   3.192   9.477
 1316POPC   PO419512  40.918   3.869   9.603
 1316POPC   GL119513  40.686   3.634   9.239
 1316POPC   GL219514  40.980   3.495   9.112
 1316POPC   C1A19515  40.580   3.400   8.808
 1316POPC   D2A19516  40.690   3.369   8.321
 1316POPC   C3A19517  40.438   3.408   7.912
 1316POPC   C4A19518  40.547   3.587   7.460
 1316POPC   C1B19519  41.005   3.716   8.725
 1316POPC   C2B19520  40.991   3.975   8.360
 1316POPC   C3B19521  41.091   3.964   7.943
 1316POPC   C4B19522  40.919   3.581   7.841
 1317POPC   NC319523   4.086   7.684   9.493
 1317POPC   PO419524   4.522   7.089   9.512
 1317POPC   GL119525   4.255   7.253   9.183
 1317POPC   GL219526   4.547   7.448   9.120
 1317POPC   C1A19527   4.146   7.453   8.770
 1317POPC   D2A19528   4.076   7.694   8.375
 1317POPC   C3A19529   4.180   7.457   8.027
 1317POPC   C4A19530   4.491   7.420   7.726
 1317POPC   C1B19531   4.551   7.137   8.775
 1317POPC   C2B19532   4.389   7.143   8.367
 1317POPC   C3B19533   4.628   7.027   8.020
 1317POPC   C4B19534   4.590   6.916   7.604
 1318POPC   NC319535  34.669  11.416   9.742
 1318POPC   PO419536  34.068  11.531   9.466
 1318POPC   GL119537  34.377  11.574   9.106
 1318POPC   GL219538  34.633  11.420   9.210
 1318POPC   C1A19539  34.653  11.636   8.747
 1318POPC   D2A19540  34.777  11.391   8.412
 1318POPC   C3A19541  34.498  11.211   8.119
 1318POPC   C4A19542  34.704  11.365   7.776
 1318POPC   C1B19543  34.666  11.129   8.834
 1318POPC   C2B19544  34.821  10.880   8.482
 1318POPC   C3B19545  35.013  11.055   8.102
 1318POPC   C4B19546  34.827  10.877   7.737
 1319POPC   NC319547  24.922   1.379   9.354
 1319POPC   PO419548  25.415   0.974   9.465
 1319POPC   GL119549  25.334   1.222   9.098
 1319POPC   GL219550  25.031   1.069   8.944
 1319POPC   C1A19551  25.384   1.430   8.727
 1319POPC   D2A19552  25.381   1.015   8.554
 1319POPC   C3A19553  25.512   0.915   8.169
 1319POPC   C4A19554  25.414   1.214   7.858
 1319POPC   C1B19555  24.883   1.458   8.721
 1319POPC   C2B19556  24.996   1.513   8.293
 1319POPC   C3B19557  24.926   1.422   7.842
 1319POPC   C4B19558  25.016   1.419   7.378
 1320POPC   NC319559  23.420   5.571   9.435
 1320POPC   PO419560  23.851   5.933   9.811
 1320POPC   GL119561  23.882   5.809   9.325
 1320POPC   GL219562  23.866   6.079   9.087
 1320POPC   C1A19563  23.761   5.655   8.850
 1320POPC   D2A19564  23.849   5.572   8.400
 1320POPC   C3A19565  23.540   5.582   8.033
 1320POPC   C4A19566  23.737   5.585   7.584
 1320POPC   C1B19567  23.617   6.186   8.709
 1320POPC   C2B19568  23.664   6.030   8.281
 1320POPC   C3B19569  23.961   5.878   7.964
 1320POPC   C4B19570  23.972   6.014   7.531
 1321POPC   NC319571  33.861  13.001   9.492
 1321POPC   PO419572  33.350  12.668   9.726
 1321POPC   GL119573  33.570  12.591   9.229
 1321POPC   GL219574  33.836  12.791   9.040
 1321POPC   C1A19575  33.455  12.634   8.747
 1321POPC   D2A19576  33.668  12.936   8.443
 1321POPC   C3A19577  33.666  12.769   8.011
 1321POPC   C4A19578  33.891  12.452   7.773
 1321POPC   C1B19579  34.076  13.069   8.775
 1321POPC   C2B19580  34.141  13.355   8.446
 1321POPC   C3B19581  34.213  13.315   8.009
 1321POPC   C4B19582  34.019  12.974   7.720
 1322POPC   NC319583  28.832  16.209   9.587
 1322POPC   PO419584  28.362  15.685   9.472
 1322POPC   GL119585  28.366  15.901   9.131
 1322POPC   GL219586  28.495  16.231   9.181
 1322POPC   C1A19587  28.243  15.792   8.754
 1322POPC   D2A19588  28.157  15.970   8.376
 1322POPC   C3A19589  28.228  15.775   8.017
 1322POPC   C4A19590  28.402  15.782   7.626
 1322POPC   C1B19591  28.371  16.284   8.761
 1322POPC   C2B19592  28.594  16.261   8.358
 1322POPC   C3B19593  28.453  16.254   7.919
 1322POPC   C4B19594  28.549  16.230   7.473
 1323POPC   NC319595  39.968   2.775   9.412
 1323POPC   PO419596  40.499   2.457   9.354
 1323POPC   GL119597  40.252   2.643   8.990
 1323POPC   GL219598  40.203   3.012   8.942
 1323POPC   C1A19599  40.022   2.680   8.573
 1323POPC   D2A19600  40.116   2.995   8.234
 1323POPC   C3A19601  40.129   2.925   7.801
 1323POPC   C4A19602  39.813   2.655   7.576
 1323POPC   C1B19603  40.476   2.912   8.615
 1323POPC   C2B19604  40.489   2.491   8.446
 1323POPC   C3B19605  40.421   2.602   8.080
 1323POPC   C4B19606  40.216   2.417   7.766
 1324POPC   NC319607  28.088   3.443   9.572
 1324POPC   PO419608  28.704   3.337   9.796
 1324POPC   GL119609  28.551   3.412   9.273
 1324POPC   GL219610  28.195   3.559   9.111
 1324POPC   C1A19611  28.530   3.622   8.780
 1324POPC   D2A19612  28.598   3.523   8.344
 1324POPC   C3A19613  28.313   3.713   8.039
 1324POPC   C4A19614  28.335   3.705   7.542
 1324POPC   C1B19615  28.102   3.345   8.709
 1324POPC   C2B19616  27.985   3.342   8.249
 1324POPC   C3B19617  27.998   3.430   7.787
 1324POPC   C4B19618  28.107   3.209   7.363
 1325POPC   NC319619  19.708  44.139   9.627
 1325POPC   PO419620  20.085  44.691   9.564
 1325POPC   GL119621  19.951  44.659   9.134
 1325POPC   GL219622  19.953  44.305   9.131
 1325POPC   C1A19623  19.856  44.763   8.687
 1325POPC   D2A19624  20.059  44.619   8.313
 1325POPC   C3A19625  20.106  44.834   7.935
 1325POPC   C4A19626  19.906   0.226   7.817
 1325POPC   C1B19627  19.699  44.262   8.752
 1325POPC   C2B19628  19.617  44.304   8.297
 1325POPC   C3B19629  19.848  44.389   7.894
 1325POPC   C4B19630  20.088  44.415   7.564
 1326POPC   NC319631   9.558  17.994   9.465
 1326POPC   PO419632   9.944  18.632   9.462
 1326POPC   GL119633   9.811  18.303   9.183
 1326POPC   GL219634  10.072  18.042   9.095
 1326POPC   C1A19635   9.673  18.067   8.785
 1326POPC   D2A19636   9.506  18.177   8.376
 1326POPC   C3A19637   9.638  18.119   7.947
 1326POPC   C4A19638   9.878  18.166   7.582
 1326POPC   C1B19639  10.054  18.449   8.793
 1326POPC   C2B19640   9.867  18.564   8.389
 1326POPC   C3B19641   9.936  18.581   7.961
 1326POPC   C4B19642  10.070  18.971   7.811
 1327POPC   NC319643  10.934  11.168   9.379
 1327POPC   PO419644  10.510  11.506   9.714
 1327POPC   GL119645  10.415  11.369   9.285
 1327POPC   GL219646  10.677  11.541   9.098
 1327POPC   C1A19647  10.375  11.223   8.849
 1327POPC   D2A19648  10.531  11.402   8.464
 1327POPC   C3A19649  10.318  11.225   8.118
 1327POPC   C4A19650  10.204  11.051   7.678
 1327POPC   C1B19651  10.958  11.584   8.727
 1327POPC   C2B19652  10.891  11.787   8.307
 1327POPC   C3B19653  10.806  11.618   7.878
 1327POPC   C4B19654  10.708  11.134   7.791
 1328POPC   NC319655  43.846  12.549   9.332
 1328POPC   PO419656  43.829  13.174   9.514
 1328POPC   GL119657  43.869  13.171   9.103
 1328POPC   GL219658  43.546  13.018   9.096
 1328POPC   C1A19659  44.089  13.044   8.739
 1328POPC   D2A19660  43.958  12.962   8.302
 1328POPC   C3A19661  44.166  13.127   7.921
 1328POPC   C4A19662  44.031  12.993   7.492
 1328POPC   C1B19663  43.611  12.841   8.691
 1328POPC   C2B19664  43.378  12.770   8.303
 1328POPC   C3B19665  43.503  12.458   8.020
 1328POPC   C4B19666  43.769  12.753   7.853
 1329POPC   NC319667  38.209  17.138   9.806
 1329POPC   PO419668  37.719  17.498   9.520
 1329POPC   GL119669  37.555  17.391   9.126
 1329POPC   GL219670  37.540  17.731   9.080
 1329POPC   C1A19671  37.728  17.207   8.738
 1329POPC   D2A19672  37.772  17.425   8.352
 1329POPC   C3A19673  37.776  17.215   7.998
 1329POPC   C4A19674  37.523  17.376   7.716
 1329POPC   C1B19675  37.864  17.707   8.780
 1329POPC   C2B19676  38.005  17.876   8.368
 1329POPC   C3B19677  37.855  17.757   7.947
 1329POPC   C4B19678  37.830  17.712   7.497
 1330POPC   NC319679  13.584  34.109   9.476
 1330POPC   PO419680  13.366  34.770   9.571
 1330POPC   GL119681  13.557  34.564   9.252
 1330POPC   GL219682  13.807  34.776   9.114
 1330POPC   C1A19683  13.663  34.360   8.850
 1330POPC   D2A19684  13.796  34.597   8.507
 1330POPC   C3A19685  13.784  34.329   8.179
 1330POPC   C4A19686  13.664  34.349   7.754
 1330POPC   C1B19687  14.133  34.829   8.827
 1330POPC   C2B19688  14.282  34.752   8.421
 1330POPC   C3B19689  14.024  34.805   8.070
 1330POPC   C4B19690  13.755  34.859   7.724
 1331POPC   NC319691   6.151  11.605   9.640
 1331POPC   PO419692   5.745  11.096   9.595
 1331POPC   GL119693   5.945  11.315   9.266
 1331POPC   GL219694   5.920  11.684   9.203
 1331POPC   C1A19695   6.043  11.289   8.863
 1331POPC   D2A19696   6.164  11.092   8.513
 1331POPC   C3A19697   5.938  11.172   8.174
 1331POPC   C4A19698   6.066  10.998   7.802
 1331POPC   C1B19699   6.171  11.784   8.851
 1331POPC   C2B19700   5.975  11.629   8.472
 1331POPC   C3B19701   5.988  11.784   8.057
 1331POPC   C4B19702   5.892  11.476   7.775
 1332POPC   NC319703   3.249  30.331   9.780
 1332POPC   PO419704   3.382  30.924   9.622
 1332POPC   GL119705   3.524  30.925   9.108
 1332POPC   GL219706   3.628  30.581   8.990
 1332POPC   C1A19707   3.406  30.863   8.661
 1332POPC   D2A19708   3.556  30.525   8.363
 1332POPC   C3A19709   3.624  30.668   7.952
 1332POPC   C4A19710   3.343  30.944   7.748
 1332POPC   C1B19711   3.219  30.399   8.738
 1332POPC   C2B19712   3.038  30.366   8.334
 1332POPC   C3B19713   3.195  30.392   7.928
 1332POPC   C4B19714   3.484  30.405   7.539
 1333POPC   NC319715  37.246  17.215   9.547
 1333POPC   PO419716  36.815  17.714   9.573
 1333POPC   GL119717  37.047  17.536   9.208
 1333POPC   GL219718  36.938  17.171   9.155
 1333POPC   C1A19719  37.147  17.678   8.793
 1333POPC   D2A19720  37.288  17.382   8.489
 1333POPC   C3A19721  37.200  17.578   8.065
 1333POPC   C4A19722  37.016  17.421   7.661
 1333POPC   C1B19723  36.815  17.316   8.771
 1333POPC   C2B19724  36.814  17.504   8.393
 1333POPC   C3B19725  36.670  17.339   8.018
 1333POPC   C4B19726  36.461  17.556   7.700
 1334POPC   NC319727   2.062  25.707  10.056
 1334POPC   PO419728   1.650  26.007   9.578
 1334POPC   GL119729   1.812  25.954   9.166
 1334POPC   GL219730   1.583  25.704   9.096
 1334POPC   C1A19731   2.102  26.017   8.821
 1334POPC   D2A19732   2.238  25.805   8.459
 1334POPC   C3A19733   2.117  26.017   8.117
 1334POPC   C4A19734   2.144  26.149   7.738
 1334POPC   C1B19735   1.593  26.077   8.752
 1334POPC   C2B19736   1.651  25.982   8.319
 1334POPC   C3B19737   1.671  25.971   7.865
 1334POPC   C4B19738   1.707  26.391   7.715
 1335POPC   NC319739   8.626  23.438   9.520
 1335POPC   PO419740   8.028  23.845   9.664
 1335POPC   GL119741   7.900  23.646   9.272
 1335POPC   GL219742   8.185  23.768   9.065
 1335POPC   C1A19743   7.788  23.655   8.814
 1335POPC   D2A19744   8.043  23.726   8.478
 1335POPC   C3A19745   7.962  23.958   8.166
 1335POPC   C4A19746   8.034  23.817   7.744
 1335POPC   C1B19747   8.472  23.820   8.723
 1335POPC   C2B19748   8.523  23.528   8.434
 1335POPC   C3B19749   8.411  23.702   8.083
 1335POPC   C4B19750   8.447  23.526   7.690
 1336POPC   NC319751  43.394   5.059   9.447
 1336POPC   PO419752  44.092   5.109   9.535
 1336POPC   GL119753  43.856   4.944   9.197
 1336POPC   GL219754  43.658   4.625   9.209
 1336POPC   C1A19755  43.888   5.182   8.832
 1336POPC   D2A19756  43.830   5.079   8.407
 1336POPC   C3A19757  44.164   5.050   8.103
 1336POPC   C4A19758  44.093   5.263   7.690
 1336POPC   C1B19759  43.509   4.792   8.822
 1336POPC   C2B19760  43.345   4.821   8.416
 1336POPC   C3B19761  43.520   4.927   8.008
 1336POPC   C4B19762  43.846   4.790   7.768
 1337POPC   NC319763  21.694   2.752   9.607
 1337POPC   PO419764  21.292   3.265   9.485
 1337POPC   GL119765  21.532   3.118   9.131
 1337POPC   GL219766  21.570   2.739   9.119
 1337POPC   C1A19767  21.420   2.988   8.699
 1337POPC   D2A19768  21.161   2.869   8.362
 1337POPC   C3A19769  21.263   3.121   8.021
 1337POPC   C4A19770  21.646   3.126   7.773
 1337POPC   C1B19771  21.546   2.492   8.740
 1337POPC   C2B19772  21.613   2.445   8.306
 1337POPC   C3B19773  21.420   2.639   7.943
 1337POPC   C4B19774  20.967   2.725   7.841
 1338POPC   NC319775  31.929   5.598   9.546
 1338POPC   PO419776  32.378   6.180   9.461
 1338POPC   GL119777  32.122   5.947   9.174
 1338POPC   GL219778  32.245   5.600   9.157
 1338POPC   C1A19779  32.134   5.932   8.730
 1338POPC   D2A19780  32.160   6.217   8.401
 1338POPC   C3A19781  32.295   6.033   8.028
 1338POPC   C4A19782  32.062   5.652   7.925
 1338POPC   C1B19783  32.402   5.479   8.783
 1338POPC   C2B19784  32.302   5.563   8.373
 1338POPC   C3B19785  32.577   5.607   8.039
 1338POPC   C4B19786  32.599   5.524   7.607
 1339POPC   NC319787   7.103  12.963   9.438
 1339POPC   PO419788   7.721  12.587   9.469
 1339POPC   GL119789   7.476  12.773   9.150
 1339POPC   GL219790   7.578  13.089   9.231
 1339POPC   C1A19791   7.282  12.703   8.758
 1339POPC   D2A19792   7.436  12.746   8.349
 1339POPC   C3A19793   7.224  12.694   7.981
 1339POPC   C4A19794   7.216  12.641   7.569
 1339POPC   C1B19795   7.458  13.187   8.804
 1339POPC   C2B19796   7.134  13.143   8.490
 1339POPC   C3B19797   7.307  13.207   8.075
 1339POPC   C4B19798   7.227  13.130   7.647
 1340POPC   NC319799  36.863  26.671   9.529
 1340POPC   PO419800  36.888  27.341   9.459
 1340POPC   GL119801  36.990  27.001   9.139
 1340POPC   GL219802  37.075  26.644   9.068
 1340POPC   C1A19803  37.082  27.003   8.698
 1340POPC   D2A19804  36.899  26.929   8.319
 1340POPC   C3A19805  36.960  27.101   7.921
 1340POPC   C4A19806  36.840  26.766   7.648
 1340POPC   C1B19807  37.385  26.605   8.745
 1340POPC   C2B19808  37.436  26.850   8.349
 1340POPC   C3B19809  37.255  26.694   7.974
 1340POPC   C4B19810  37.342  26.594   7.553
 1341POPC   NC319811  43.017  20.458   9.487
 1341POPC   PO419812  43.002  21.126   9.391
 1341POPC   GL119813  43.201  20.820   9.157
 1341POPC   GL219814  42.877  20.608   9.032
 1341POPC   C1A19815  43.217  20.790   8.725
 1341POPC   D2A19816  42.885  20.633   8.460
 1341POPC   C3A19817  43.018  20.755   8.070
 1341POPC   C4A19818  43.301  20.960   7.806
 1341POPC   C1B19819  43.073  20.267   8.783
 1341POPC   C2B19820  43.203  20.202   8.347
 1341POPC   C3B19821  42.959  20.219   7.961
 1341POPC   C4B19822  42.719  20.539   7.738
 1342POPC   NC319823  20.547   7.130   9.550
 1342POPC   PO419824  21.202   7.299   9.681
 1342POPC   GL119825  20.877   7.424   9.274
 1342POPC   GL219826  20.514   7.554   9.260
 1342POPC   C1A19827  20.750   7.403   8.824
 1342POPC   D2A19828  20.693   7.670   8.439
 1342POPC   C3A19829  20.659   7.462   8.016
 1342POPC   C4A19830  20.401   7.205   7.727
 1342POPC   C1B19831  20.296   7.629   8.853
 1342POPC   C2B19832  20.192   7.623   8.393
 1342POPC   C3B19833  20.261   7.766   7.976
 1342POPC   C4B19834  20.400   7.784   7.554
 1343POPC   NC319835  32.389  32.107   9.562
 1343POPC   PO419836  32.165  32.771   9.544
 1343POPC   GL119837  32.159  32.468   9.200
 1343POPC   GL219838  32.473  32.444   9.157
 1343POPC   C1A19839  32.090  32.227   8.784
 1343POPC   D2A19840  32.269  32.217   8.344
 1343POPC   C3A19841  32.051  32.361   7.961
 1343POPC   C4A19842  32.044  32.158   7.571
 1343POPC   C1B19843  32.733  32.667   8.835
 1343POPC   C2B19844  32.714  32.665   8.381
 1343POPC   C3B19845  32.548  32.498   8.006
 1343POPC   C4B19846  32.564  32.236   7.653
 1344POPC   NC319847  12.147  35.907   9.598
 1344POPC   PO419848  12.043  35.123   9.449
 1344POPC   GL119849  12.122  35.302   9.081
 1344POPC   GL219850  12.250  35.598   9.203
 1344POPC   C1A19851  12.188  35.156   8.673
 1344POPC   D2A19852  12.008  34.949   8.327
 1344POPC   C3A19853  12.267  35.119   8.049
 1344POPC   C4A19854  12.170  35.086   7.680
 1344POPC   C1B19855  12.406  35.678   8.799
 1344POPC   C2B19856  12.225  35.610   8.411
 1344POPC   C3B19857  11.991  35.524   8.063
 1344POPC   C4B19858  12.210  35.597   7.662
 1345POPC   NC319859  36.440  35.428   9.480
 1345POPC   PO419860  35.835  35.091   9.517
 1345POPC   GL119861  36.039  35.307   9.165
 1345POPC   GL219862  36.350  35.118   9.059
 1345POPC   C1A19863  36.064  35.591   8.786
 1345POPC   D2A19864  36.212  35.776   8.383
 1345POPC   C3A19865  36.307  35.499   8.000
 1345POPC   C4A19866  36.504  35.084   7.800
 1345POPC   C1B19867  36.109  35.066   8.708
 1345POPC   C2B19868  35.961  35.282   8.355
 1345POPC   C3B19869  36.008  35.095   7.947
 1345POPC   C4B19870  36.111  35.293   7.562
 1346POPC   NC319871   5.667  17.618   9.513
 1346POPC   PO419872   5.903  18.318   9.487
 1346POPC   GL119873   6.071  18.342   9.126
 1346POPC   GL219874   6.252  18.041   9.160
 1346POPC   C1A19875   5.864  18.375   8.744
 1346POPC   D2A19876   5.660  18.229   8.400
 1346POPC   C3A19877   5.913  18.402   8.094
 1346POPC   C4A19878   5.865  18.454   7.674
 1346POPC   C1B19879   6.124  17.927   8.768
 1346POPC   C2B19880   6.140  18.025   8.388
 1346POPC   C3B19881   5.903  17.886   8.086
 1346POPC   C4B19882   6.059  18.010   7.754
 1347POPC   NC319883  16.300  28.091   9.485
 1347POPC   PO419884  16.541  27.478   9.459
 1347POPC   GL119885  16.715  27.870   9.213
 1347POPC   GL219886  16.918  27.648   9.091
 1347POPC   C1A19887  16.897  28.005   8.750
 1347POPC   D2A19888  17.120  27.820   8.360
 1347POPC   C3A19889  16.871  27.894   7.958
 1347POPC   C4A19890  16.776  28.085   7.495
 1347POPC   C1B19891  16.842  27.512   8.696
 1347POPC   C2B19892  16.895  27.364   8.293
 1347POPC   C3B19893  16.914  27.385   7.912
 1347POPC   C4B19894  16.487  27.454   7.900
 1348POPC   NC319895   8.053  18.575   9.546
 1348POPC   PO419896   8.420  18.000   9.440
 1348POPC   GL119897   8.271  18.079   9.082
 1348POPC   GL219898   8.245  18.434   9.097
 1348POPC   C1A19899   8.376  18.130   8.682
 1348POPC   D2A19900   8.084  18.133   8.377
 1348POPC   C3A19901   8.187  18.232   7.998
 1348POPC   C4A19902   8.043  18.511   7.727
 1348POPC   C1B19903   8.343  18.646   8.739
 1348POPC   C2B19904   8.448  18.522   8.352
 1348POPC   C3B19905   8.397  18.734   7.994
 1348POPC   C4B19906   8.467  18.715   7.537
 1349POPC   NC319907  32.510  25.597   9.510
 1349POPC   PO419908  32.128  24.973   9.457
 1349POPC   GL119909  32.325  25.225   9.156
 1349POPC   GL219910  32.147  25.561   9.140
 1349POPC   C1A19911  32.193  25.283   8.721
 1349POPC   D2A19912  32.301  25.188   8.310
 1349POPC   C3A19913  32.127  25.383   7.983
 1349POPC   C4A19914  31.986  25.191   7.633
 1349POPC   C1B19915  32.532  25.629   8.857
 1349POPC   C2B19916  32.684  25.492   8.452
 1349POPC   C3B19917  32.589  25.581   8.018
 1349POPC   C4B19918  32.436  25.441   7.591
 1350POPC   NC319919   4.174  39.838   9.497
 1350POPC   PO419920   4.574  40.364   9.541
 1350POPC   GL119921   4.348  40.215   9.204
 1350POPC   GL219922   4.513  40.411   8.948
 1350POPC   C1A19923   4.390  39.931   8.853
 1350POPC   D2A19924   4.521  40.157   8.468
 1350POPC   C3A19925   4.279  40.055   8.124
 1350POPC   C4A19926   4.324  39.965   7.690
 1350POPC   C1B19927   4.110  40.312   8.743
 1350POPC   C2B19928   3.905  40.024   8.482
 1350POPC   C3B19929   3.759  39.916   8.080
 1350POPC   C4B19930   3.880  40.188   7.763
 1351POPC   NC319931   7.623  31.192   9.812
 1351POPC   PO419932   7.227  30.721   9.630
 1351POPC   GL119933   7.357  30.611   9.199
 1351POPC   GL219934   7.737  30.579   9.183
 1351POPC   C1A19935   7.247  30.821   8.788
 1351POPC   D2A19936   7.356  30.725   8.382
 1351POPC   C3A19937   7.234  30.994   8.073
 1351POPC   C4A19938   7.424  30.801   7.757
 1351POPC   C1B19939   7.634  30.500   8.757
 1351POPC   C2B19940   7.457  30.213   8.448
 1351POPC   C3B19941   7.394  30.344   8.015
 1351POPC   C4B19942   7.598  30.346   7.614
 1352POPC   NC319943  35.409  15.375   9.593
 1352POPC   PO419944  34.772  15.143   9.515
 1352POPC   GL119945  35.077  15.195   9.156
 1352POPC   GL219946  35.410  15.014   9.217
 1352POPC   C1A19947  35.402  15.393   8.869
 1352POPC   D2A19948  35.480  15.248   8.455
 1352POPC   C3A19949  35.209  15.376   8.117
 1352POPC   C4A19950  35.433  15.316   7.732
 1352POPC   C1B19951  35.274  14.885   8.801
 1352POPC   C2B19952  35.288  14.735   8.409
 1352POPC   C3B19953  35.377  14.896   8.022
 1352POPC   C4B19954  35.084  14.931   7.698
 1353POPC   NC319955  39.285   2.579   9.601
 1353POPC   PO419956  39.542   3.201   9.471
 1353POPC   GL119957  39.314   2.886   9.201
 1353POPC   GL219958  39.541   2.594   9.137
 1353POPC   C1A19959  39.174   2.742   8.802
 1353POPC   D2A19960  39.302   2.657   8.403
 1353POPC   C3A19961  38.978   2.725   8.160
 1353POPC   C4A19962  39.043   2.937   7.775
 1353POPC   C1B19963  39.659   2.938   8.840
 1353POPC   C2B19964  39.634   3.062   8.424
 1353POPC   C3B19965  39.582   2.933   8.008
 1353POPC   C4B19966  39.703   3.142   7.656
 1354POPC   NC319967  16.051  18.393   9.576
 1354POPC   PO419968  15.585  18.121   9.150
 1354POPC   GL119969  15.882  18.401   9.097
 1354POPC   GL219970  15.783  18.696   9.180
 1354POPC   C1A19971  16.117  18.361   8.749
 1354POPC   D2A19972  16.019  18.080   8.421
 1354POPC   C3A19973  16.111  18.333   8.063
 1354POPC   C4A19974  16.052  18.184   7.667
 1354POPC   C1B19975  15.559  18.620   8.749
 1354POPC   C2B19976  15.644  18.427   8.365
 1354POPC   C3B19977  15.655  18.125   8.033
 1354POPC   C4B19978  15.588  18.338   7.640
 1355POPC   NC319979   1.631  37.067   9.473
 1355POPC   PO419980   1.030  36.984   9.403
 1355POPC   GL119981   1.248  36.851   9.058
 1355POPC   GL219982   1.556  36.727   9.096
 1355POPC   C1A19983   1.137  36.724   8.656
 1355POPC   D2A19984   1.147  36.938   8.280
 1355POPC   C3A19985   0.897  36.890   7.904
 1355POPC   C4A19986   0.857  36.908   7.436
 1355POPC   C1B19987   1.678  36.731   8.694
 1355POPC   C2B19988   1.554  36.626   8.293
 1355POPC   C3B19989   1.451  36.796   7.896
 1355POPC   C4B19990   1.645  36.791   7.502
 1356POPC   NC319991  20.882  41.118   9.418
 1356POPC   PO419992  20.698  40.492   9.497
 1356POPC   GL119993  20.526  40.805   9.170
 1356POPC   GL219994  20.414  41.171   9.193
 1356POPC   C1A19995  20.660  40.879   8.764
 1356POPC   D2A19996  20.647  40.642   8.396
 1356POPC   C3A19997  20.694  40.856   8.062
 1356POPC   C4A19998  20.611  40.679   7.701
 1356POPC   C1B19999  20.205  41.116   8.800
 1356POPC   C2B20000  20.398  41.147   8.387
 1356POPC   C3B20001  20.203  41.085   8.018
 1356POPC   C4B20002  20.148  40.871   7.637
 1357POPC   NC320003   3.935  36.665   9.797
 1357POPC   PO420004   3.376  36.863   9.416
 1357POPC   GL120005   3.366  36.926   9.058
 1357POPC   GL220006   3.709  36.965   8.991
 1357POPC   C1A20007   3.262  36.795   8.686
 1357POPC   D2A20008   3.049  36.650   8.368
 1357POPC   C3A20009   3.207  36.790   8.009
 1357POPC   C4A20010   3.317  36.888   7.598
 1357POPC   C1B20011   3.762  36.669   8.658
 1357POPC   C2B20012   3.628  36.830   8.285
 1357POPC   C3B20013   3.740  36.837   7.876
 1357POPC   C4B20014   4.071  36.592   7.728
 1358POPC   NC320015  17.750  42.908   9.493
 1358POPC   PO420016  17.146  43.058   9.533
 1358POPC   GL120017  17.281  43.236   9.157
 1358POPC   GL220018  17.138  42.954   8.999
 1358POPC   C1A20019  17.626  43.076   8.878
 1358POPC   D2A20020  17.611  42.777   8.556
 1358POPC   C3A20021  17.669  42.859   8.094
 1358POPC   C4A20022  17.725  43.149   7.733
 1358POPC   C1B20023  17.214  43.172   8.620
 1358POPC   C2B20024  17.199  42.939   8.285
 1358POPC   C3B20025  17.155  42.683   7.976
 1358POPC   C4B20026  17.275  42.947   7.697
 1359POPC   NC320027  43.152  42.817   9.515
 1359POPC   PO420028  42.827  43.323   9.758
 1359POPC   GL120029  42.962  43.149   9.211
 1359POPC   GL220030  43.335  43.174   9.168
 1359POPC   C1A20031  43.086  43.276   8.751
 1359POPC   D2A20032  42.976  43.271   8.327
 1359POPC   C3A20033  43.117  42.957   8.049
 1359POPC   C4A20034  42.989  43.012   7.621
 1359POPC   C1B20035  43.590  43.280   8.763
 1359POPC   C2B20036  43.466  43.475   8.350
 1359POPC   C3B20037  43.310  43.407   7.921
 1359POPC   C4B20038  43.436  43.236   7.539
 1360POPC   NC320039   7.995  29.694   9.315
 1360POPC   PO420040   8.410  30.132   9.428
 1360POPC   GL120041   8.330  29.978   9.059
 1360POPC   GL220042   7.973  30.104   8.997
 1360POPC   C1A20043   8.281  29.891   8.647
 1360POPC   D2A20044   8.313  30.065   8.228
 1360POPC   C3A20045   8.152  29.826   7.912
 1360POPC   C4A20046   8.279  29.433   7.791
 1360POPC   C1B20047   8.074  30.342   8.601
 1360POPC   C2B20048   7.889  30.345   8.173
 1360POPC   C3B20049   8.081  30.296   7.763
 1360POPC   C4B20050   8.012  30.236   7.309
 1361POPC   NC320051  20.814  36.670   9.444
 1361POPC   PO420052  20.313  37.153   9.500
 1361POPC   GL120053  20.442  36.917   9.180
 1361POPC   GL220054  20.196  36.705   9.252
 1361POPC   C1A20055  20.531  36.984   8.754
 1361POPC   D2A20056  20.707  37.124   8.394
 1361POPC   C3A20057  20.660  36.892   8.058
 1361POPC   C4A20058  20.646  37.010   7.658
 1361POPC   C1B20059  20.166  36.640   8.836
 1361POPC   C2B20060  20.375  36.618   8.406
 1361POPC   C3B20061  20.210  36.655   7.996
 1361POPC   C4B20062  20.372  36.583   7.603
 1362POPC   NC320063  23.339  42.632   9.723
 1362POPC   PO420064  23.834  43.108   9.548
 1362POPC   GL120065  23.707  43.099   9.158
 1362POPC   GL220066  23.614  43.451   9.121
 1362POPC   C1A20067  23.579  42.855   8.781
 1362POPC   D2A20068  23.328  42.914   8.391
 1362POPC   C3A20069  23.595  42.861   8.071
 1362POPC   C4A20070  23.759  42.791   7.684
 1362POPC   C1B20071  23.813  43.372   8.768
 1362POPC   C2B20072  23.849  43.173   8.410
 1362POPC   C3B20073  24.097  43.453   8.172
 1362POPC   C4B20074  23.985  43.609   7.761
 1363POPC   NC320075  13.851  16.134   9.647
 1363POPC   PO420076  14.633  16.002   9.721
 1363POPC   GL120077  14.546  16.245   9.222
 1363POPC   GL220078  14.225  16.207   9.085
 1363POPC   C1A20079  14.541  15.990   8.771
 1363POPC   D2A20080  14.290  16.012   8.424
 1363POPC   C3A20081  14.514  16.014   8.118
 1363POPC   C4A20082  14.414  16.016   7.712
 1363POPC   C1B20083  13.993  16.268   8.745
 1363POPC   C2B20084  13.821  16.224   8.332
 1363POPC   C3B20085  13.974  16.133   7.921
 1363POPC   C4B20086  14.008  16.115   7.437
 1364POPC   NC320087  13.497  11.394   9.538
 1364POPC   PO420088  13.414  10.775   9.449
 1364POPC   GL120089  13.634  11.081   9.135
 1364POPC   GL220090  13.726  11.482   9.113
 1364POPC   C1A20091  13.691  11.205   8.711
 1364POPC   D2A20092  13.833  11.360   8.367
 1364POPC   C3A20093  13.605  11.059   8.152
 1364POPC   C4A20094  13.558  10.909   7.750
 1364POPC   C1B20095  13.939  11.697   8.780
 1364POPC   C2B20096  13.926  11.882   8.366
 1364POPC   C3B20097  13.816  11.689   7.970
 1364POPC   C4B20098  13.506  11.425   7.812
 1365POPC   NC320099  24.382  19.449   9.571
 1365POPC   PO420100  24.781  18.947   9.822
 1365POPC   GL120101  24.628  19.010   9.353
 1365POPC   GL220102  24.479  19.295   9.095
 1365POPC   C1A20103  24.766  18.924   8.906
 1365POPC   D2A20104  24.877  19.000   8.470
 1365POPC   C3A20105  24.531  19.073   8.176
 1365POPC   C4A20106  24.365  18.796   7.851
 1365POPC   C1B20107  24.213  19.516   8.746
 1365POPC   C2B20108  24.075  19.320   8.398
 1365POPC   C3B20109  24.020  19.126   8.030
 1365POPC   C4B20110  24.135  19.197   7.611
 1366POPC   NC320111  33.027  19.725   9.548
 1366POPC   PO420112  32.640  20.292   9.660
 1366POPC   GL120113  32.822  20.102   9.252
 1366POPC   GL220114  33.154  20.037   9.146
 1366POPC   C1A20115  32.836  20.217   8.789
 1366POPC   D2A20116  32.978  20.202   8.375
 1366POPC   C3A20117  32.797  19.976   8.032
 1366POPC   C4A20118  32.861  20.133   7.630
 1366POPC   C1B20119  33.295  19.935   8.740
 1366POPC   C2B20120  33.459  20.060   8.340
 1366POPC   C3B20121  33.304  19.964   7.929
 1366POPC   C4B20122  33.254  19.535   7.790
 1367POPC   NC320123  39.744  38.358   9.479
 1367POPC   PO420124  40.286  38.788   9.428
 1367POPC   GL120125  39.985  38.638   9.143
 1367POPC   GL220126  40.213  38.343   9.140
 1367POPC   C1A20127  39.868  38.337   8.777
 1367POPC   D2A20128  40.101  38.403   8.333
 1367POPC   C3A20129  39.933  38.519   7.902
 1367POPC   C4A20130  39.855  38.510   7.407
 1367POPC   C1B20131  40.289  38.629   8.752
 1367POPC   C2B20132  40.537  38.745   8.412
 1367POPC   C3B20133  40.425  38.634   7.999
 1367POPC   C4B20134  40.350  38.623   7.568
 1368POPC   NC320135  24.107  26.348   9.652
 1368POPC   PO420136  23.557  25.985   9.513
 1368POPC   GL120137  23.718  25.880   9.132
 1368POPC   GL220138  23.510  25.579   9.171
 1368POPC   C1A20139  23.713  26.058   8.695
 1368POPC   D2A20140  23.659  25.820   8.306
 1368POPC   C3A20141  23.725  26.083   7.974
 1368POPC   C4A20142  23.822  26.494   7.841
 1368POPC   C1B20143  23.343  25.736   8.802
 1368POPC   C2B20144  23.204  25.651   8.425
 1368POPC   C3B20145  23.192  25.790   8.035
 1368POPC   C4B20146  23.309  26.003   7.694
 1369POPC   NC320147  13.572   6.358   9.496
 1369POPC   PO420148  13.539   7.034   9.488
 1369POPC   GL120149  13.459   6.730   9.141
 1369POPC   GL220150  13.741   6.442   9.033
 1369POPC   C1A20151  13.533   6.763   8.716
 1369POPC   D2A20152  13.782   6.585   8.442
 1369POPC   C3A20153  13.618   6.699   8.055
 1369POPC   C4A20154  13.232   6.619   7.813
 1369POPC   C1B20155  13.394   6.265   8.744
 1369POPC   C2B20156  13.354   6.286   8.278
 1369POPC   C3B20157  13.516   6.219   7.871
 1369POPC   C4B20158  13.331   6.203   7.415
 1370POPC   NC320159  44.203   5.643   9.498
 1370POPC   PO420160  43.641   5.979   9.736
 1370POPC   GL120161  43.787   5.985   9.210
 1370POPC   GL220162  44.020   6.228   9.009
 1370POPC   C1A20163  43.742   5.935   8.701
 1370POPC   D2A20164  43.912   6.071   8.243
 1370POPC   C3A20165  43.672   5.955   7.866
 1370POPC   C4A20166  43.468   5.547   7.833
 1370POPC   C1B20167  44.229   5.993   8.625
 1370POPC   C2B20168  44.109   5.572   8.486
 1370POPC   C3B20169  43.957   5.554   8.082
 1370POPC   C4B20170  44.141   5.822   7.757
 1371POPC   NC320171  10.682  35.506   9.543
 1371POPC   PO420172  10.013  35.451   9.376
 1371POPC   GL120173  10.386  35.438   9.135
 1371POPC   GL220174  10.600  35.747   9.111
 1371POPC   C1A20175  10.532  35.406   8.727
 1371POPC   D2A20176  10.436  35.156   8.383
 1371POPC   C3A20177  10.224  35.324   8.066
 1371POPC   C4A20178  10.169  35.471   7.686
 1371POPC   C1B20179  10.946  35.696   8.812
 1371POPC   C2B20180  10.918  35.832   8.402
 1371POPC   C3B20181  10.960  35.633   8.023
 1371POPC   C4B20182  10.689  35.350   7.806
 1372POPC   NC320183   6.363  18.334   9.568
 1372POPC   PO420184   6.788  17.858   9.553
 1372POPC   GL120185   6.767  18.125   9.177
 1372POPC   GL220186   6.583  18.457   9.129
 1372POPC   C1A20187   6.862  18.137   8.734
 1372POPC   D2A20188   6.665  17.931   8.380
 1372POPC   C3A20189   6.790  18.129   7.972
 1372POPC   C4A20190   7.114  18.454   7.848
 1372POPC   C1B20191   6.405  18.343   8.729
 1372POPC   C2B20192   6.504  18.413   8.311
 1372POPC   C3B20193   6.373  18.445   7.885
 1372POPC   C4B20194   6.266  18.754   7.574
 1373POPC   NC320195  22.623  42.861   9.481
 1373POPC   PO420196  23.112  42.367   9.432
 1373POPC   GL120197  22.890  42.539   9.126
 1373POPC   GL220198  22.579  42.387   9.265
 1373POPC   C1A20199  23.012  42.611   8.684
 1373POPC   D2A20200  22.880  42.663   8.240
 1373POPC   C3A20201  23.006  42.334   7.939
 1373POPC   C4A20202  23.031  42.286   7.495
 1373POPC   C1B20203  22.653  42.132   8.887
 1373POPC   C2B20204  22.859  42.155   8.475
 1373POPC   C3B20205  22.573  42.243   8.142
 1373POPC   C4B20206  22.536  42.125   7.718
 1374POPC   NC320207   3.487  24.154   9.553
 1374POPC   PO420208   3.806  24.820   9.481
 1374POPC   GL120209   3.573  24.563   9.173
 1374POPC   GL220210   3.714  24.237   9.122
 1374POPC   C1A20211   3.320  24.394   8.817
 1374POPC   D2A20212   3.091  24.315   8.423
 1374POPC   C3A20213   3.325  24.330   8.019
 1374POPC   C4A20214   3.335  24.494   7.565
 1374POPC   C1B20215   3.835  24.400   8.753
 1374POPC   C2B20216   3.662  24.329   8.419
 1374POPC   C3B20217   3.799  24.134   8.118
 1374POPC   C4B20218   3.764  24.352   7.766
 1375POPC   NC320219   6.785  14.330   9.639
 1375POPC   PO420220   6.519  14.927   9.578
 1375POPC   GL120221   6.649  14.592   9.216
 1375POPC   GL220222   6.729  14.178   9.178
 1375POPC   C1A20223   6.736  14.477   8.780
 1375POPC   D2A20224   6.402  14.374   8.491
 1375POPC   C3A20225   6.444  14.443   8.060
 1375POPC   C4A20226   6.568  14.622   7.673
 1375POPC   C1B20227   6.599  13.988   8.791
 1375POPC   C2B20228   6.761  14.022   8.424
 1375POPC   C3B20229   6.595  13.928   8.055
 1375POPC   C4B20230   6.588  14.118   7.689
 1376POPC   NC320231  27.977  18.542   9.552
 1376POPC   PO420232  27.400  18.920   9.631
 1376POPC   GL120233  27.502  18.906   9.233
 1376POPC   GL220234  27.835  18.996   9.348
 1376POPC   C1A20235  27.488  19.204   8.888
 1376POPC   D2A20236  27.285  19.235   8.486
 1376POPC   C3A20237  27.434  19.076   8.108
 1376POPC   C4A20238  27.600  19.355   7.834
 1376POPC   C1B20239  27.911  18.904   8.912
 1376POPC   C2B20240  27.844  19.088   8.517
 1376POPC   C3B20241  27.974  19.105   8.107
 1376POPC   C4B20242  27.798  18.867   7.782
 1377POPC   NC320243  40.589  34.162   9.628
 1377POPC   PO420244  40.911  33.571   9.591
 1377POPC   GL120245  40.736  33.561   9.190
 1377POPC   GL220246  41.016  33.321   9.153
 1377POPC   C1A20247  40.657  33.883   8.854
 1377POPC   D2A20248  40.512  33.833   8.408
 1377POPC   C3A20249  40.731  34.128   8.144
 1377POPC   C4A20250  40.931  34.079   7.746
 1377POPC   C1B20251  41.107  33.591   8.820
 1377POPC   C2B20252  41.020  33.832   8.475
 1377POPC   C3B20253  40.954  33.680   8.087
 1377POPC   C4B20254  41.239  33.630   7.763
 1378POPC   NC320255  22.657   3.680   9.352
 1378POPC   PO420256  23.257   3.559   9.598
 1378POPC   GL120257  23.085   3.450   9.211
 1378POPC   GL220258  23.127   3.820   9.110
 1378POPC   C1A20259  22.906   3.354   8.813
 1378POPC   D2A20260  23.135   3.350   8.429
 1378POPC   C3A20261  22.934   3.404   8.042
 1378POPC   C4A20262  23.111   3.565   7.687
 1378POPC   C1B20263  22.998   3.822   8.664
 1378POPC   C2B20264  22.649   3.639   8.426
 1378POPC   C3B20265  22.468   3.669   8.023
 1378POPC   C4B20266  22.670   3.854   7.635
 1379POPC   NC320267  22.956  29.878   9.467
 1379POPC   PO420268  22.668  29.444   9.855
 1379POPC   GL120269  22.531  29.688   9.338
 1379POPC   GL220270  22.608  30.039   9.136
 1379POPC   C1A20271  22.570  29.633   8.867
 1379POPC   D2A20272  22.816  29.652   8.485
 1379POPC   C3A20273  22.748  29.855   8.075
 1379POPC   C4A20274  22.752  29.816   7.607
 1379POPC   C1B20275  22.961  29.985   8.834
 1379POPC   C2B20276  23.150  30.036   8.440
 1379POPC   C3B20277  23.238  30.097   8.034
 1379POPC   C4B20278  23.244  29.968   7.629
 1380POPC   NC320279  33.781   5.246   9.768
 1380POPC   PO420280  34.026   4.611   9.559
 1380POPC   GL120281  33.969   4.922   9.256
 1380POPC   GL220282  33.640   5.044   9.238
 1380POPC   C1A20283  34.068   5.094   8.842
 1380POPC   D2A20284  34.321   5.201   8.474
 1380POPC   C3A20285  34.022   5.139   8.149
 1380POPC   C4A20286  33.840   5.310   7.766
 1380POPC   C1B20287  33.685   4.757   8.850
 1380POPC   C2B20288  33.658   4.653   8.444
 1380POPC   C3B20289  33.610   4.798   8.043
 1380POPC   C4B20290  33.460   4.916   7.673
 1381POPC   NC320291   6.763  30.730   9.595
 1381POPC   PO420292   6.352  30.298   9.864
 1381POPC   GL120293   6.538  30.318   9.388
 1381POPC   GL220294   6.909  30.369   9.280
 1381POPC   C1A20295   6.570  30.579   8.966
 1381POPC   D2A20296   6.767  30.763   8.575
 1381POPC   C3A20297   6.506  30.810   8.202
 1381POPC   C4A20298   6.574  30.784   7.739
 1381POPC   C1B20299   7.035  30.351   8.854
 1381POPC   C2B20300   6.961  30.311   8.422
 1381POPC   C3B20301   6.943  30.575   8.067
 1381POPC   C4B20302   6.959  30.348   7.703
 1382POPC   NC320303  19.870  16.599   9.515
 1382POPC   PO420304  20.050  15.924   9.468
 1382POPC   GL120305  19.852  15.890   9.094
 1382POPC   GL220306  19.718  16.248   9.092
 1382POPC   C1A20307  20.129  15.869   8.721
 1382POPC   D2A20308  20.348  15.831   8.352
 1382POPC   C3A20309  20.212  15.915   7.942
 1382POPC   C4A20310  19.801  15.774   7.835
 1382POPC   C1B20311  19.741  16.182   8.648
 1382POPC   C2B20312  19.848  16.153   8.221
 1382POPC   C3B20313  19.717  16.371   7.849
 1382POPC   C4B20314  19.717  16.398   7.393
 1383POPC   NC320315  10.717  41.742   9.414
 1383POPC   PO420316  10.373  42.413   9.617
 1383POPC   GL120317  10.291  42.483   9.165
 1383POPC   GL220318  10.559  42.360   9.071
 1383POPC   C1A20319  10.199  42.253   8.744
 1383POPC   D2A20320  10.338  42.048   8.356
 1383POPC   C3A20321  10.353  42.265   7.939
 1383POPC   C4A20322  10.219  42.280   7.479
 1383POPC   C1B20323  10.713  42.304   8.674
 1383POPC   C2B20324  10.771  42.343   8.253
 1383POPC   C3B20325  10.813  42.477   7.855
 1383POPC   C4B20326  10.693  42.572   7.430
 1384POPC   NC320327   0.899  13.306   9.521
 1384POPC   PO420328   1.424  13.783   9.498
 1384POPC   GL120329   1.217  13.820   9.120
 1384POPC   GL220330   0.933  13.633   9.147
 1384POPC   C1A20331   1.287  13.608   8.730
 1384POPC   D2A20332   1.393  13.412   8.339
 1384POPC   C3A20333   1.273  13.632   7.971
 1384POPC   C4A20334   1.440  13.538   7.557
 1384POPC   C1B20335   0.796  13.407   8.788
 1384POPC   C2B20336   0.924  13.201   8.408
 1384POPC   C3B20337   0.889  13.306   7.977
 1384POPC   C4B20338   0.917  13.140   7.567
 1385POPC   NC320339   8.920  14.744   9.288
 1385POPC   PO420340   8.774  14.257   9.601
 1385POPC   GL120341   8.830  14.084   9.160
 1385POPC   GL220342   9.104  14.251   9.001
 1385POPC   C1A20343   8.730  14.012   8.705
 1385POPC   D2A20344   8.571  14.283   8.359
 1385POPC   C3A20345   8.738  14.287   7.984
 1385POPC   C4A20346   8.881  14.383   7.583
 1385POPC   C1B20347   9.275  14.564   8.723
 1385POPC   C2B20348   9.461  14.519   8.353
 1385POPC   C3B20349   9.309  14.516   7.957
 1385POPC   C4B20350   9.428  14.824   7.675
 1386POPC   NC320351  19.472  43.574   9.522
 1386POPC   PO420352  19.227  44.227   9.775
 1386POPC   GL120353  19.274  44.034   9.349
 1386POPC   GL220354  19.054  43.775   9.287
 1386POPC   C1A20355  19.345  43.926   8.889
 1386POPC   D2A20356  19.045  43.960   8.536
 1386POPC   C3A20357  19.166  43.980   8.135
 1386POPC   C4A20358  18.946  43.871   7.758
 1386POPC   C1B20359  18.970  43.573   8.877
 1386POPC   C2B20360  19.187  43.475   8.500
 1386POPC   C3B20361  19.025  43.489   8.088
 1386POPC   C4B20362  19.230  43.428   7.715
 1387POPC   NC320363  15.061  27.287   9.610
 1387POPC   PO420364  14.916  26.743   9.278
 1387POPC   GL120365  15.193  26.934   9.013
 1387POPC   GL220366  15.479  26.742   9.037
 1387POPC   C1A20367  15.101  26.956   8.564
 1387POPC   D2A20368  15.042  26.618   8.260
 1387POPC   C3A20369  15.187  26.735   7.868
 1387POPC   C4A20370  14.938  27.074   7.784
 1387POPC   C1B20371  15.297  26.481   8.706
 1387POPC   C2B20372  15.474  26.336   8.325
 1387POPC   C3B20373  15.568  26.380   7.906
 1387POPC   C4B20374  15.499  26.537   7.474
 1388POPC   NC320375  29.970   3.673   9.564
 1388POPC   PO420376  29.432   3.871   9.366
 1388POPC   GL120377  29.802   3.705   9.080
 1388POPC   GL220378  30.180   3.524   9.133
 1388POPC   C1A20379  29.886   3.473   8.713
 1388POPC   D2A20380  29.676   3.302   8.354
 1388POPC   C3A20381  29.712   3.520   7.998
 1388POPC   C4A20382  29.575   3.520   7.580
 1388POPC   C1B20383  30.254   3.799   8.787
 1388POPC   C2B20384  30.012   3.845   8.388
 1388POPC   C3B20385  30.152   3.748   7.997
 1388POPC   C4B20386  30.087   3.545   7.573
 1389POPC   NC320387  18.202  36.369   9.510
 1389POPC   PO420388  18.307  35.707   9.759
 1389POPC   GL120389  18.406  35.915   9.329
 1389POPC   GL220390  18.616  36.206   9.219
 1389POPC   C1A20391  18.307  35.975   8.864
 1389POPC   D2A20392  18.099  35.892   8.446
 1389POPC   C3A20393  18.301  35.910   8.025
 1389POPC   C4A20394  18.114  35.769   7.629
 1389POPC   C1B20395  18.420  36.490   8.871
 1389POPC   C2B20396  18.403  36.462   8.422
 1389POPC   C3B20397  18.435  36.424   7.989
 1389POPC   C4B20398  18.540  36.161   7.616
 1390POPC   NC320399  11.716   1.419   9.600
 1390POPC   PO420400  12.379   1.456   9.711
 1390POPC   GL120401  12.103   1.349   9.291
 1390POPC   GL220402  11.956   0.982   9.251
 1390POPC   C1A20403  12.175   1.208   8.852
 1390POPC   D2A20404  12.452   0.905   8.635
 1390POPC   C3A20405  12.484   0.987   8.196
 1390POPC   C4A20406  12.308   1.190   7.853
 1390POPC   C1B20407  11.975   0.756   8.820
 1390POPC   C2B20408  11.997   0.895   8.384
 1390POPC   C3B20409  11.872   0.868   7.936
 1390POPC   C4B20410  11.645   1.031   7.570
 1391POPC   NC320411  29.660   0.233   9.400
 1391POPC   PO420412  30.281   0.323   9.470
 1391POPC   GL120413  30.023   0.629   9.180
 1391POPC   GL220414  29.645   0.728   9.201
 1391POPC   C1A20415  29.934   0.791   8.748
 1391POPC   D2A20416  29.926   0.701   8.259
 1391POPC   C3A20417  29.947   0.296   8.190
 1391POPC   C4A20418  29.876   0.104   7.836
 1391POPC   C1B20419  29.432   0.511   8.846
 1391POPC   C2B20420  29.508   0.201   8.525
 1391POPC   C3B20421  29.429   0.249   8.111
 1391POPC   C4B20422  29.523   0.553   7.806
 1392POPC   NC320423  18.150  24.690   9.621
 1392POPC   PO420424  17.936  24.121   9.443
 1392POPC   GL120425  18.214  24.287   9.146
 1392POPC   GL220426  18.242  24.655   9.128
 1392POPC   C1A20427  18.208  24.372   8.713
 1392POPC   D2A20428  18.274  24.658   8.423
 1392POPC   C3A20429  18.429  24.426   8.125
 1392POPC   C4A20430  18.259  24.226   7.788
 1392POPC   C1B20431  18.505  24.870   8.837
 1392POPC   C2B20432  18.711  24.918   8.428
 1392POPC   C3B20433  18.524  24.921   8.038
 1392POPC   C4B20434  18.396  24.702   7.694
 1393POPC   NC320435  33.115  37.892   9.602
 1393POPC   PO420436  32.998  37.187   9.462
 1393POPC   GL120437  32.938  37.541   9.184
 1393POPC   GL220438  32.714  37.788   9.288
 1393POPC   C1A20439  33.078  37.729   8.799
 1393POPC   D2A20440  33.188  37.591   8.375
 1393POPC   C3A20441  33.120  37.843   7.987
 1393POPC   C4A20442  32.975  37.722   7.562
 1393POPC   C1B20443  32.561  37.885   8.866
 1393POPC   C2B20444  32.578  38.058   8.441
 1393POPC   C3B20445  32.625  37.954   7.993
 1393POPC   C4B20446  32.880  38.207   7.683
 1394POPC   NC320447  27.774   2.617   9.299
 1394POPC   PO420448  27.498   2.081   9.671
 1394POPC   GL120449  27.536   2.041   9.236
 1394POPC   GL220450  27.836   2.119   9.232
 1394POPC   C1A20451  27.425   1.864   8.855
 1394POPC   D2A20452  27.630   1.818   8.434
 1394POPC   C3A20453  27.402   1.768   8.048
 1394POPC   C4A20454  27.547   2.076   7.759
 1394POPC   C1B20455  27.909   2.027   8.825
 1394POPC   C2B20456  27.993   2.272   8.474
 1394POPC   C3B20457  27.960   2.155   8.059
 1394POPC   C4B20458  28.032   1.952   7.678
 1395POPC   NC320459   8.362  27.378   9.679
 1395POPC   PO420460   8.203  26.691   9.587
 1395POPC   GL120461   8.071  26.662   9.173
 1395POPC   GL220462   8.250  26.987   9.153
 1395POPC   C1A20463   8.207  26.681   8.738
 1395POPC   D2A20464   8.395  26.531   8.369
 1395POPC   C3A20465   8.147  26.697   8.023
 1395POPC   C4A20466   8.442  26.677   7.695
 1395POPC   C1B20467   8.469  27.130   8.792
 1395POPC   C2B20468   8.372  27.048   8.370
 1395POPC   C3B20469   8.438  27.118   7.947
 1395POPC   C4B20470   8.071  27.057   7.632
 1396POPC   NC320471  17.385  23.163   9.722
 1396POPC   PO420472  17.710  22.668   9.606
 1396POPC   GL120473  17.606  22.897   9.239
 1396POPC   GL220474  17.932  22.739   9.123
 1396POPC   C1A20475  17.443  23.067   8.813
 1396POPC   D2A20476  17.516  23.287   8.396
 1396POPC   C3A20477  17.398  23.087   8.074
 1396POPC   C4A20478  17.151  22.944   7.766
 1396POPC   C1B20479  17.941  22.963   8.782
 1396POPC   C2B20480  17.990  23.075   8.383
 1396POPC   C3B20481  17.875  22.871   8.036
 1396POPC   C4B20482  17.678  22.999   7.668
 1397POPC   NC320483  29.667   6.872   9.445
 1397POPC   PO420484  29.090   6.490   9.492
 1397POPC   GL120485  29.093   6.659   9.117
 1397POPC   GL220486  29.447   6.697   9.028
 1397POPC   C1A20487  28.881   6.683   8.743
 1397POPC   D2A20488  28.915   6.933   8.394
 1397POPC   C3A20489  29.188   6.787   8.067
 1397POPC   C4A20490  29.097   6.769   7.616
 1397POPC   C1B20491  29.374   6.738   8.596
 1397POPC   C2B20492  29.520   6.442   8.360
 1397POPC   C3B20493  29.412   6.287   7.998
 1397POPC   C4B20494  29.437   6.429   7.546
 1398POPC   NC320495  35.167  16.983   9.569
 1398POPC   PO420496  35.637  16.446   9.566
 1398POPC   GL120497  35.471  16.559   9.139
 1398POPC   GL220498  35.286  16.865   9.097
 1398POPC   C1A20499  35.269  16.490   8.742
 1398POPC   D2A20500  35.450  16.606   8.345
 1398POPC   C3A20501  35.191  16.506   8.006
 1398POPC   C4A20502  35.049  16.564   7.598
 1398POPC   C1B20503  35.327  16.999   8.682
 1398POPC   C2B20504  35.100  16.958   8.277
 1398POPC   C3B20505  35.198  16.999   7.843
 1398POPC   C4B20506  34.908  17.020   7.435
 1399POPC   NC320507  15.952  36.591   9.483
 1399POPC   PO420508  15.629  37.180   9.647
 1399POPC   GL120509  15.738  37.011   9.240
 1399POPC   GL220510  16.075  36.926   9.136
 1399POPC   C1A20511  15.721  36.807   8.806
 1399POPC   D2A20512  15.717  36.576   8.418
 1399POPC   C3A20513  15.794  36.832   8.076
 1399POPC   C4A20514  15.613  37.042   7.712
 1399POPC   C1B20515  16.204  36.630   8.795
 1399POPC   C2B20516  16.221  36.657   8.351
 1399POPC   C3B20517  16.352  36.682   7.928
 1399POPC   C4B20518  16.112  36.932   7.700
 1400POPC   NC320519  43.634  19.262   9.476
 1400POPC   PO420520  44.120  18.825   9.376
 1400POPC   GL120521  43.855  18.985   9.076
 1400POPC   GL220522  43.955  19.291   9.092
 1400POPC   C1A20523  43.887  18.965   8.635
 1400POPC   D2A20524  44.044  18.988   8.235
 1400POPC   C3A20525  43.854  18.840   7.843
 1400POPC   C4A20526  43.752  18.808   7.378
 1400POPC   C1B20527  43.631  19.378   8.801
 1400POPC   C2B20528  43.512  19.277   8.395
 1400POPC   C3B20529  43.748  19.364   8.013
 1400POPC   C4B20530  43.651  19.656   7.668
 1401POPC   NC320531  33.574   6.223   9.835
 1401POPC   PO420532  34.122   6.587   9.634
 1401POPC   GL120533  33.944   6.547   9.218
 1401POPC   GL220534  33.722   6.781   9.125
 1401POPC   C1A20535  33.869   6.432   8.777
 1401POPC   D2A20536  33.668   6.402   8.359
 1401POPC   C3A20537  33.837   6.647   8.034
 1401POPC   C4A20538  34.046   7.009   7.895
 1401POPC   C1B20539  33.781   6.981   8.687
 1401POPC   C2B20540  33.658   7.097   8.259
 1401POPC   C3B20541  33.446   6.895   7.897
 1401POPC   C4B20542  33.478   6.444   7.701
 1402POPC   NC320543  14.062  27.260   9.639
 1402POPC   PO420544  14.460  27.629   9.193
 1402POPC   GL120545  14.527  27.686   8.825
 1402POPC   GL220546  14.590  28.039   8.898
 1402POPC   C1A20547  14.401  27.358   8.545
 1402POPC   D2A20548  14.100  27.261   8.236
 1402POPC   C3A20549  14.267  27.503   7.913
 1402POPC   C4A20550  14.560  27.491   7.619
 1402POPC   C1B20551  14.260  28.008   8.532
 1402POPC   C2B20552  13.968  27.830   8.213
 1402POPC   C3B20553  13.960  27.885   7.757
 1402POPC   C4B20554  14.349  27.959   7.488
 1403POPC   NC320555   6.390  20.870   9.357
 1403POPC   PO420556   6.560  21.619   9.503
 1403POPC   GL120557   6.686  21.499   9.108
 1403POPC   GL220558   6.421  21.246   9.043
 1403POPC   C1A20559   6.713  21.479   8.672
 1403POPC   D2A20560   6.513  21.629   8.305
 1403POPC   C3A20561   6.789  21.496   8.014
 1403POPC   C4A20562   6.759  21.422   7.624
 1403POPC   C1B20563   6.466  21.030   8.678
 1403POPC   C2B20564   6.626  21.102   8.269
 1403POPC   C3B20565   6.482  21.041   7.816
 1403POPC   C4B20566   6.572  21.082   7.335
 1404POPC   NC320567  29.187  19.987   9.538
 1404POPC   PO420568  29.600  19.475   9.364
 1404POPC   GL120569  29.445  19.775   9.088
 1404POPC   GL220570  29.084  19.776   9.083
 1404POPC   C1A20571  29.515  20.099   8.777
 1404POPC   D2A20572  29.370  20.187   8.353
 1404POPC   C3A20573  29.364  19.848   8.041
 1404POPC   C4A20574  29.384  19.651   7.608
 1404POPC   C1B20575  29.055  19.875   8.649
 1404POPC   C2B20576  28.900  19.687   8.253
 1404POPC   C3B20577  28.922  19.741   7.802
 1404POPC   C4B20578  28.818  19.663   7.342
 1405POPC   NC320579  19.580  33.430   9.437
 1405POPC   PO420580  19.856  32.924   9.639
 1405POPC   GL120581  19.957  32.886   9.201
 1405POPC   GL220582  19.923  33.215   9.102
 1405POPC   C1A20583  19.949  32.814   8.744
 1405POPC   D2A20584  19.996  33.003   8.321
 1405POPC   C3A20585  19.752  32.885   7.960
 1405POPC   C4A20586  19.825  33.012   7.528
 1405POPC   C1B20587  19.919  33.346   8.683
 1405POPC   C2B20588  19.614  33.348   8.291
 1405POPC   C3B20589  19.527  33.328   7.818
 1405POPC   C4B20590  19.532  33.394   7.359
 1406POPC   NC320591  25.105   5.411   9.443
 1406POPC   PO420592  25.521   5.935   9.492
 1406POPC   GL120593  25.534   5.743   9.110
 1406POPC   GL220594  25.269   5.563   9.000
 1406POPC   C1A20595  25.411   6.010   8.760
 1406POPC   D2A20596  25.322   5.909   8.362
 1406POPC   C3A20597  25.398   6.105   8.000
 1406POPC   C4A20598  25.122   6.109   7.648
 1406POPC   C1B20599  25.049   5.584   8.639
 1406POPC   C2B20600  24.873   5.657   8.241
 1406POPC   C3B20601  24.867   5.704   7.807
 1406POPC   C4B20602  25.085   5.639   7.390
 1407POPC   NC320603  44.613  42.196   9.528
 1407POPC   PO420604  44.607  42.890   9.427
 1407POPC   GL120605  44.639  42.505   9.140
 1407POPC   GL220606  44.414  42.160   9.085
 1407POPC   C1A20607  44.810  42.369   8.792
 1407POPC   D2A20608  44.715  42.638   8.492
 1407POPC   C3A20609  44.859  42.532   8.129
 1407POPC   C4A20610  44.735  42.630   7.753
 1407POPC   C1B20611  44.521  41.935   8.756
 1407POPC   C2B20612  44.736  41.999   8.396
 1407POPC   C3B20613  44.596  42.090   8.010
 1407POPC   C4B20614  44.690  42.145   7.616
 1408POPC   NC320615  43.952  24.657   9.685
 1408POPC   PO420616  43.365  24.886   9.443
 1408POPC   GL120617  43.686  24.527   9.211
 1408POPC   GL220618  44.073  24.471   9.238
 1408POPC   C1A20619  43.853  24.352   8.809
 1408POPC   D2A20620  44.121  24.244   8.459
 1408POPC   C3A20621  43.903  24.257   8.082
 1408POPC   C4A20622  43.722  24.365   7.730
 1408POPC   C1B20623  44.158  24.741   8.939
 1408POPC   C2B20624  44.062  24.827   8.523
 1408POPC   C3B20625  44.179  24.677   8.145
 1408POPC   C4B20626  44.091  24.727   7.718
 1409POPC   NC320627  11.092  40.822   9.299
 1409POPC   PO420628  11.114  41.473   9.458
 1409POPC   GL120629  11.146  41.307   9.068
 1409POPC   GL220630  11.475  41.243   8.952
 1409POPC   C1A20631  11.139  41.504   8.656
 1409POPC   D2A20632  11.182  41.632   8.230
 1409POPC   C3A20633  11.389  41.369   8.003
 1409POPC   C4A20634  11.220  41.487   7.593
 1409POPC   C1B20635  11.605  41.697   8.805
 1409POPC   C2B20636  11.632  41.853   8.382
 1409POPC   C3B20637  11.581  41.853   7.928
 1409POPC   C4B20638  11.541  41.873   7.467
 1410POPC   NC320639  32.584  13.438   9.436
 1410POPC   PO420640  31.908  13.482   9.637
 1410POPC   GL120641  32.106  13.454   9.243
 1410POPC   GL220642  32.248  13.808   9.257
 1410POPC   C1A20643  32.237  13.293   8.838
 1410POPC   D2A20644  32.573  13.370   8.572
 1410POPC   C3A20645  32.511  13.385   8.126
 1410POPC   C4A20646  32.238  13.377   7.789
 1410POPC   C1B20647  32.407  13.782   8.846
 1410POPC   C2B20648  32.431  13.872   8.412
 1410POPC   C3B20649  32.247  13.826   8.035
 1410POPC   C4B20650  32.462  13.821   7.671
 1411POPC   NC320651   9.736  10.356   9.713
 1411POPC   PO420652   9.815   9.717   9.672
 1411POPC   GL120653   9.976   9.708   9.248
 1411POPC   GL220654   9.965  10.044   9.265
 1411POPC   C1A20655   9.954   9.741   8.747
 1411POPC   D2A20656   9.767  10.018   8.391
 1411POPC   C3A20657   9.658   9.854   7.959
 1411POPC   C4A20658   9.495   9.510   7.703
 1411POPC   C1B20659   9.824  10.224   8.872
 1411POPC   C2B20660  10.097  10.365   8.570
 1411POPC   C3B20661  10.064  10.341   8.133
 1411POPC   C4B20662  10.126  10.004   7.831
 1412POPC   NC320663  35.220  16.273   9.453
 1412POPC   PO420664  35.085  15.629   9.401
 1412POPC   GL120665  35.343  15.872   9.145
 1412POPC   GL220666  35.689  16.064   9.209
 1412POPC   C1A20667  35.106  15.972   8.777
 1412POPC   D2A20668  34.888  15.857   8.386
 1412POPC   C3A20669  35.077  15.985   8.031
 1412POPC   C4A20670  35.258  15.793   7.700
 1412POPC   C1B20671  35.615  16.115   8.786
 1412POPC   C2B20672  35.403  16.109   8.398
 1412POPC   C3B20673  35.563  16.147   8.014
 1412POPC   C4B20674  35.454  16.273   7.623
 1413POPC   NC320675  29.485  19.037   9.448
 1413POPC   PO420676  28.813  18.933   9.363
 1413POPC   GL120677  29.119  18.925   9.069
 1413POPC   GL220678  29.195  19.276   9.082
 1413POPC   C1A20679  29.264  18.952   8.654
 1413POPC   D2A20680  29.586  18.938   8.363
 1413POPC   C3A20681  29.421  19.007   7.973
 1413POPC   C4A20682  29.422  18.867   7.559
 1413POPC   C1B20683  28.987  19.365   8.673
 1413POPC   C2B20684  28.984  19.130   8.259
 1413POPC   C3B20685  28.962  19.226   7.838
 1413POPC   C4B20686  29.090  19.238   7.418
 1414POPC   NC320687  10.294  18.348   9.440
 1414POPC   PO420688  10.665  17.828   9.623
 1414POPC   GL120689  10.611  18.020   9.204
 1414POPC   GL220690  10.892  18.141   9.052
 1414POPC   C1A20691  10.474  18.142   8.770
 1414POPC   D2A20692  10.328  18.328   8.388
 1414POPC   C3A20693  10.268  18.159   7.996
 1414POPC   C4A20694  10.415  18.490   7.731
 1414POPC   C1B20695  10.960  18.242   8.632
 1414POPC   C2B20696  10.792  18.140   8.250
 1414POPC   C3B20697  10.756  18.075   7.829
 1414POPC   C4B20698  10.841  18.265   7.493
 1415POPC   NC320699  23.291  32.542   9.285
 1415POPC   PO420700  22.891  32.074   9.512
 1415POPC   GL120701  22.812  31.947   9.108
 1415POPC   GL220702  22.863  32.320   9.043
 1415POPC   C1A20703  22.681  31.993   8.662
 1415POPC   D2A20704  22.544  32.262   8.321
 1415POPC   C3A20705  22.502  32.001   7.943
 1415POPC   C4A20706  22.579  32.018   7.467
 1415POPC   C1B20707  23.160  32.157   8.752
 1415POPC   C2B20708  23.065  32.304   8.390
 1415POPC   C3B20709  23.053  32.448   8.027
 1415POPC   C4B20710  22.985  32.098   7.766
 1416POPC   NC320711  42.201   4.102   9.463
 1416POPC   PO420712  42.108   4.714   9.204
 1416POPC   GL120713  42.189   4.481   8.898
 1416POPC   GL220714  42.350   4.180   8.982
 1416POPC   C1A20715  42.408   4.443   8.540
 1416POPC   D2A20716  42.454   4.175   8.218
 1416POPC   C3A20717  42.131   4.367   8.038
 1416POPC   C4A20718  42.296   4.583   7.693
 1416POPC   C1B20719  42.333   3.911   8.641
 1416POPC   C2B20720  42.026   3.892   8.300
 1416POPC   C3B20721  42.022   3.876   7.875
 1416POPC   C4B20722  42.320   4.081   7.670
 1417POPC   NC320723  29.238  20.977   9.408
 1417POPC   PO420724  29.450  20.412   9.682
 1417POPC   GL120725  29.155  20.446   9.292
 1417POPC   GL220726  28.811  20.626   9.261
 1417POPC   C1A20727  29.039  20.381   8.849
 1417POPC   D2A20728  29.048  20.649   8.483
 1417POPC   C3A20729  29.011  20.478   8.087
 1417POPC   C4A20730  29.315  20.306   7.834
 1417POPC   C1B20731  28.695  20.842   8.870
 1417POPC   C2B20732  28.565  20.798   8.441
 1417POPC   C3B20733  28.810  20.951   8.106
 1417POPC   C4B20734  29.030  20.847   7.712
 1418POPC   NC320735  17.552  38.502   9.589
 1418POPC   PO420736  18.263  38.395   9.551
 1418POPC   GL120737  18.090  38.491   9.157
 1418POPC   GL220738  17.816  38.306   9.203
 1418POPC   C1A20739  18.272  38.486   8.732
 1418POPC   D2A20740  18.351  38.261   8.335
 1418POPC   C3A20741  18.208  38.547   8.068
 1418POPC   C4A20742  18.427  38.736   7.758
 1418POPC   C1B20743  17.902  38.134   8.816
 1418POPC   C2B20744  17.841  38.358   8.428
 1418POPC   C3B20745  17.693  38.225   8.046
 1418POPC   C4B20746  17.888  38.349   7.692
 1419POPC   NC320747   3.946  12.380   9.648
 1419POPC   PO420748   4.415  12.817   9.759
 1419POPC   GL120749   4.360  12.773   9.286
 1419POPC   GL220750   4.037  12.857   9.258
 1419POPC   C1A20751   4.456  12.980   8.872
 1419POPC   D2A20752   4.641  12.944   8.448
 1419POPC   C3A20753   4.463  12.888   8.036
 1419POPC   C4A20754   4.649  13.233   7.864
 1419POPC   C1B20755   3.960  13.051   8.846
 1419POPC   C2B20756   4.111  12.935   8.438
 1419POPC   C3B20757   3.941  12.829   8.042
 1419POPC   C4B20758   4.101  12.721   7.647
 1420POPC   NC320759  44.982  21.256   9.428
 1420POPC   PO420760   0.594  21.575   9.455
 1420POPC   GL120761   0.392  21.530   9.023
 1420POPC   GL220762   0.140  21.253   8.945
 1420POPC   C1A20763   0.293  21.521   8.557
 1420POPC   D2A20764   0.453  21.257   8.225
 1420POPC   C3A20765   0.460  21.458   7.857
 1420POPC   C4A20766   0.273  21.828   7.713
 1420POPC   C1B20767   0.559  21.101   8.720
 1420POPC   C2B20768   0.892  21.028   8.344
 1420POPC   C3B20769   0.780  21.002   7.870
 1420POPC   C4B20770   0.458  21.085   7.511
 1421POPC   NC320771  16.993  28.479   9.633
 1421POPC   PO420772  16.356  28.537   9.645
 1421POPC   GL120773  16.618  28.439   9.262
 1421POPC   GL220774  16.825  28.716   9.168
 1421POPC   C1A20775  16.514  28.335   8.827
 1421POPC   D2A20776  16.548  28.109   8.405
 1421POPC   C3A20777  16.598  28.378   8.065
 1421POPC   C4A20778  16.490  28.456   7.659
 1421POPC   C1B20779  16.994  28.528   8.754
 1421POPC   C2B20780  17.042  28.326   8.321
 1421POPC   C3B20781  17.061  28.352   7.850
 1421POPC   C4B20782  16.934  28.567   7.438
 1422POPC   NC320783  37.879  10.374   9.524
 1422POPC   PO420784  38.462  10.620   9.578
 1422POPC   GL120785  38.414  10.705   9.126
 1422POPC   GL220786  38.210  10.393   9.081
 1422POPC   C1A20787  38.711  10.817   8.772
 1422POPC   D2A20788  38.783  10.731   8.338
 1422POPC   C3A20789  38.412  10.562   8.136
 1422POPC   C4A20790  38.265  10.509   7.726
 1422POPC   C1B20791  38.462  10.368   8.674
 1422POPC   C2B20792  38.756  10.200   8.338
 1422POPC   C3B20793  38.713  10.202   7.894
 1422POPC   C4B20794  38.305  10.004   7.798
 1423POPC   NC320795  25.011  44.013   9.688
 1423POPC   PO420796  25.467  43.563   9.545
 1423POPC   GL120797  25.266  43.743   9.170
 1423POPC   GL220798  24.946  43.930   9.198
 1423POPC   C1A20799  25.266  44.043   8.796
 1423POPC   D2A20800  25.244  44.294   8.407
 1423POPC   C3A20801  25.311  43.990   8.113
 1423POPC   C4A20802  25.437  43.994   7.709
 1423POPC   C1B20803  24.850  43.708   8.830
 1423POPC   C2B20804  24.865  43.941   8.457
 1423POPC   C3B20805  24.825  44.069   8.071
 1423POPC   C4B20806  24.943  43.955   7.676
 1424POPC   NC320807  20.424   8.516   9.563
 1424POPC   PO420808  20.637   9.103   9.618
 1424POPC   GL120809  20.491   8.964   9.237
 1424POPC   GL220810  20.738   8.702   9.210
 1424POPC   C1A20811  20.393   8.961   8.778
 1424POPC   D2A20812  20.286   8.687   8.403
 1424POPC   C3A20813  20.472   8.804   7.974
 1424POPC   C4A20814  20.433   8.941   7.520
 1424POPC   C1B20815  20.898   8.966   8.881
 1424POPC   C2B20816  20.791   8.986   8.445
 1424POPC   C3B20817  20.989   8.901   8.080
 1424POPC   C4B20818  20.917   8.915   7.637
 1425POPC   NC320819   2.943   0.113   9.568
 1425POPC   PO420820   2.680  44.573   9.757
 1425POPC   GL120821   2.823  44.612   9.305
 1425POPC   GL220822   2.944  44.919   9.116
 1425POPC   C1A20823   2.833  44.535   8.841
 1425POPC   D2A20824   2.908  44.792   8.498
 1425POPC   C3A20825   2.686  44.641   8.152
 1425POPC   C4A20826   2.776  44.612   7.738
 1425POPC   C1B20827   2.542  44.952   8.855
 1425POPC   C2B20828   2.383  44.991   8.413
 1425POPC   C3B20829   2.457   0.047   7.949
 1425POPC   C4B20830   2.853   0.111   7.790
 1426POPC   NC320831  12.594  37.788   9.339
 1426POPC   PO420832  12.944  37.251   9.532
 1426POPC   GL120833  12.905  37.438   9.102
 1426POPC   GL220834  13.166  37.689   9.029
 1426POPC   C1A20835  12.884  37.557   8.642
 1426POPC   D2A20836  12.993  37.691   8.222
 1426POPC   C3A20837  12.884  38.052   7.949
 1426POPC   C4A20838  12.562  38.098   7.597
 1426POPC   C1B20839  13.333  37.338   8.768
 1426POPC   C2B20840  13.237  37.151   8.366
 1426POPC   C3B20841  13.282  37.329   8.005
 1426POPC   C4B20842  13.062  37.600   7.717
 1427POPC   NC320843  41.984  39.254   9.471
 1427POPC   PO420844  42.650  39.042   9.465
 1427POPC   GL120845  42.434  39.334   9.201
 1427POPC   GL220846  42.712  39.542   9.192
 1427POPC   C1A20847  42.230  39.334   8.781
 1427POPC   D2A20848  42.155  39.557   8.381
 1427POPC   C3A20849  42.203  39.325   8.024
 1427POPC   C4A20850  42.103  39.154   7.634
 1427POPC   C1B20851  42.772  39.340   8.818
 1427POPC   C2B20852  42.616  39.264   8.417
 1427POPC   C3B20853  42.733  39.460   8.056
 1427POPC   C4B20854  42.572  39.396   7.670
 1428POPC   NC320855  20.013  12.969   9.391
 1428POPC   PO420856  19.399  12.684   9.424
 1428POPC   GL120857  19.669  12.628   9.098
 1428POPC   GL220858  20.033  12.611   9.048
 1428POPC   C1A20859  19.595  12.734   8.671
 1428POPC   D2A20860  19.519  12.655   8.233
 1428POPC   C3A20861  19.699  12.850   7.894
 1428POPC   C4A20862  19.571  13.282   7.795
 1428POPC   C1B20863  20.064  12.935   8.732
 1428POPC   C2B20864  20.005  12.695   8.374
 1428POPC   C3B20865  20.179  12.581   8.032
 1428POPC   C4B20866  20.149  12.811   7.644
 1429POPC   NC320867   2.338  37.164   9.480
 1429POPC   PO420868   1.817  36.638   9.520
 1429POPC   GL120869   2.066  36.786   9.210
 1429POPC   GL220870   1.981  37.103   9.082
 1429POPC   C1A20871   2.229  36.750   8.797
 1429POPC   D2A20872   2.072  36.899   8.409
 1429POPC   C3A20873   2.180  36.715   8.045
 1429POPC   C4A20874   1.847  36.472   7.896
 1429POPC   C1B20875   1.705  37.250   8.762
 1429POPC   C2B20876   1.615  37.144   8.330
 1429POPC   C3B20877   1.839  37.146   7.938
 1429POPC   C4B20878   1.787  37.289   7.514
 1430POPC   NC320879  18.410  17.294   9.456
 1430POPC   PO420880  17.967  17.689   9.283
 1430POPC   GL120881  18.157  17.434   9.001
 1430POPC   GL220882  18.485  17.408   8.969
 1430POPC   C1A20883  18.153  17.138   8.679
 1430POPC   D2A20884  18.290  16.994   8.286
 1430POPC   C3A20885  18.327  17.297   8.006
 1430POPC   C4A20886  18.158  17.421   7.650
 1430POPC   C1B20887  18.685  17.709   8.699
 1430POPC   C2B20888  18.878  17.942   8.357
 1430POPC   C3B20889  18.729  17.934   7.986
 1430POPC   C4B20890  18.617  17.635   7.705
 1431POPC   NC320891  13.072  35.993   9.503
 1431POPC   PO420892  12.388  36.335   9.611
 1431POPC   GL120893  12.671  36.191   9.241
 1431POPC   GL220894  12.543  36.475   9.101
 1431POPC   C1A20895  12.861  35.957   8.838
 1431POPC   D2A20896  12.714  35.839   8.394
 1431POPC   C3A20897  12.956  35.993   8.004
 1431POPC   C4A20898  13.378  35.830   7.856
 1431POPC   C1B20899  12.473  36.232   8.703
 1431POPC   C2B20900  12.579  36.321   8.266
 1431POPC   C3B20901  12.502  36.318   7.834
 1431POPC   C4B20902  12.680  36.325   7.405
 1432POPC   NC320903  32.786  24.225   9.890
 1432POPC   PO420904  33.109  23.701   9.605
 1432POPC   GL120905  32.935  23.578   9.204
 1432POPC   GL220906  33.168  23.789   9.095
 1432POPC   C1A20907  32.788  23.713   8.760
 1432POPC   D2A20908  32.716  23.556   8.350
 1432POPC   C3A20909  32.822  23.733   7.935
 1432POPC   C4A20910  32.881  24.105   7.676
 1432POPC   C1B20911  33.225  23.469   8.779
 1432POPC   C2B20912  33.174  23.360   8.377
 1432POPC   C3B20913  33.312  23.573   8.033
 1432POPC   C4B20914  33.562  23.378   7.759
 1433POPC   NC320915  39.927  36.837   9.672
 1433POPC   PO420916  39.901  37.449   9.630
 1433POPC   GL120917  40.064  37.103   9.258
 1433POPC   GL220918  39.951  36.727   9.193
 1433POPC   C1A20919  40.020  36.994   8.780
 1433POPC   D2A20920  40.178  36.775   8.409
 1433POPC   C3A20921  40.198  36.925   8.002
 1433POPC   C4A20922  40.007  36.968   7.585
 1433POPC   C1B20923  39.651  36.624   8.855
 1433POPC   C2B20924  39.676  36.640   8.399
 1433POPC   C3B20925  39.689  36.779   7.959
 1433POPC   C4B20926  39.651  36.589   7.538
 1434POPC   NC320927  18.790   8.604   9.454
 1434POPC   PO420928  19.228   9.099   9.553
 1434POPC   GL120929  19.152   8.896   9.205
 1434POPC   GL220930  18.799   9.007   9.133
 1434POPC   C1A20931  19.130   8.623   8.866
 1434POPC   D2A20932  18.926   8.660   8.496
 1434POPC   C3A20933  19.099   8.763   8.114
 1434POPC   C4A20934  19.212   8.734   7.696
 1434POPC   C1B20935  19.047   9.116   8.766
 1434POPC   C2B20936  19.261   9.163   8.436
 1434POPC   C3B20937  19.151   9.272   8.046
 1434POPC   C4B20938  18.827   9.049   7.784
 1435POPC   NC320939  41.927  34.285   9.386
 1435POPC   PO420940  42.496  34.591   9.625
 1435POPC   GL120941  42.294  34.588   9.189
 1435POPC   GL220942  42.120  34.883   9.078
 1435POPC   C1A20943  42.347  34.355   8.775
 1435POPC   D2A20944  42.367  34.182   8.331
 1435POPC   C3A20945  42.385  34.451   7.950
 1435POPC   C4A20946  42.464  34.925   7.861
 1435POPC   C1B20947  41.996  34.723   8.725
 1435POPC   C2B20948  42.130  34.698   8.327
 1435POPC   C3B20949  41.960  34.767   7.935
 1435POPC   C4B20950  41.930  34.778   7.509
 1436POPC   NC320951  20.857   3.300   9.620
 1436POPC   PO420952  20.375   2.882   9.597
 1436POPC   GL120953  20.746   2.875   9.226
 1436POPC   GL220954  20.995   3.129   9.092
 1436POPC   C1A20955  20.837   2.636   8.784
 1436POPC   D2A20956  20.532   2.496   8.415
 1436POPC   C3A20957  20.471   2.634   7.945
 1436POPC   C4A20958  20.418   2.523   7.472
 1436POPC   C1B20959  20.808   3.116   8.656
 1436POPC   C2B20960  20.688   3.054   8.217
 1436POPC   C3B20961  20.803   3.254   7.832
 1436POPC   C4B20962  20.824   3.289   7.375
 1437POPC   NC320963  29.441   2.835   9.428
 1437POPC   PO420964  28.966   2.448   9.421
 1437POPC   GL120965  29.013   2.651   9.106
 1437POPC   GL220966  29.037   2.953   9.124
 1437POPC   C1A20967  28.835   2.667   8.742
 1437POPC   D2A20968  28.915   2.878   8.415
 1437POPC   C3A20969  29.065   2.586   8.150
 1437POPC   C4A20970  29.019   2.605   7.732
 1437POPC   C1B20971  29.330   2.992   8.796
 1437POPC   C2B20972  29.430   2.853   8.412
 1437POPC   C3B20973  29.414   3.020   8.018
 1437POPC   C4B20974  29.436   2.922   7.598
 1438POPC   NC320975  42.067  37.397   9.525
 1438POPC   PO420976  41.984  37.998   9.713
 1438POPC   GL120977  42.126  37.767   9.204
 1438POPC   GL220978  41.982  37.486   9.038
 1438POPC   C1A20979  42.220  37.907   8.769
 1438POPC   D2A20980  42.055  37.962   8.367
 1438POPC   C3A20981  42.296  37.825   8.023
 1438POPC   C4A20982  42.111  37.733   7.618
 1438POPC   C1B20983  42.409  37.452   8.840
 1438POPC   C2B20984  42.557  37.626   8.470
 1438POPC   C3B20985  42.571  37.391   8.143
 1438POPC   C4B20986  42.609  37.491   7.746
 1439POPC   NC320987  39.681  21.402   9.764
 1439POPC   PO420988  40.212  21.666   9.385
 1439POPC   GL120989  40.124  21.301   9.161
 1439POPC   GL220990  40.511  21.265   9.156
 1439POPC   C1A20991  39.919  21.363   8.744
 1439POPC   D2A20992  40.105  21.372   8.336
 1439POPC   C3A20993  39.876  21.396   7.954
 1439POPC   C4A20994  39.723  21.775   7.855
 1439POPC   C1B20995  40.412  21.202   8.730
 1439POPC   C2B20996  40.584  21.186   8.308
 1439POPC   C3B20997  40.356  21.232   7.917
 1439POPC   C4B20998  40.282  21.248   7.442
 1440POPC   NC320999  25.803  13.890   9.586
 1440POPC   PO421000  26.202  13.355   9.433
 1440POPC   GL121001  25.943  13.539   9.157
 1440POPC   GL221002  25.960  13.887   9.109
 1440POPC   C1A21003  25.906  13.544   8.740
 1440POPC   D2A21004  25.998  13.383   8.368
 1440POPC   C3A21005  25.685  13.301   8.071
 1440POPC   C4A21006  25.907  13.454   7.769
 1440POPC   C1B21007  26.075  14.051   8.731
 1440POPC   C2B21008  25.942  13.890   8.326
 1440POPC   C3B21009  26.003  13.932   7.884
 1440POPC   C4B21010  25.740  13.820   7.471
 1441POPC   NC321011  36.203  34.778   9.476
 1441POPC   PO421012  35.611  34.340   9.553
 1441POPC   GL121013  35.856  34.494   9.197
 1441POPC   GL221014  35.835  34.834   9.098
 1441POPC   C1A21015  36.195  34.548   8.862
 1441POPC   D2A21016  36.197  34.635   8.422
 1441POPC   C3A21017  36.272  34.246   8.212
 1441POPC   C4A21018  36.546  34.135   7.847
 1441POPC   C1B21019  35.724  34.727   8.704
 1441POPC   C2B21020  35.698  34.843   8.301
 1441POPC   C3B21021  35.899  34.596   7.992
 1441POPC   C4B21022  36.309  34.618   7.875
 1442POPC   NC321023   7.583  40.271  10.026
 1442POPC   PO421024   7.972  40.010   9.502
 1442POPC   GL121025   8.133  40.204   9.134
 1442POPC   GL221026   7.775  40.204   9.058
 1442POPC   C1A21027   8.438  40.032   8.791
 1442POPC   D2A21028   8.461  39.826   8.367
 1442POPC   C3A21029   8.258  39.873   7.970
 1442POPC   C4A21030   8.260  40.151   7.669
 1442POPC   C1B21031   7.990  40.205   8.661
 1442POPC   C2B21032   8.161  40.260   8.288
 1442POPC   C3B21033   7.842  40.217   7.954
 1442POPC   C4B21034   7.800  40.209   7.483
 1443POPC   NC321035   7.058  22.924   9.590
 1443POPC   PO421036   7.666  22.593   9.479
 1443POPC   GL121037   7.374  22.704   9.147
 1443POPC   GL221038   7.110  22.896   9.069
 1443POPC   C1A21039   7.459  22.784   8.705
 1443POPC   D2A21040   7.514  22.535   8.324
 1443POPC   C3A21041   7.408  22.765   7.970
 1443POPC   C4A21042   7.708  23.058   7.796
 1443POPC   C1B21043   7.082  23.168   8.718
 1443POPC   C2B21044   7.368  23.225   8.383
 1443POPC   C3B21045   7.225  23.243   7.980
 1443POPC   C4B21046   7.259  23.126   7.574
 1444POPC   NC321047  40.080  28.669   9.850
 1444POPC   PO421048  40.021  29.305   9.586
 1444POPC   GL121049  39.950  29.272   9.154
 1444POPC   GL221050  40.227  29.463   9.072
 1444POPC   C1A21051  40.038  29.045   8.755
 1444POPC   D2A21052  40.232  29.055   8.332
 1444POPC   C3A21053  39.926  29.067   7.994
 1444POPC   C4A21054  39.860  28.824   7.605
 1444POPC   C1B21055  40.120  29.555   8.637
 1444POPC   C2B21056  40.151  29.578   8.173
 1444POPC   C3B21057  40.345  29.331   7.880
 1444POPC   C4B21058  40.269  29.145   7.496
 1445POPC   NC321059   3.439   0.608   9.512
 1445POPC   PO421060   3.980   0.894   9.224
 1445POPC   GL121061   3.737   0.471   9.116
 1445POPC   GL221062   3.338   0.324   9.090
 1445POPC   C1A21063   3.705   0.291   8.715
 1445POPC   D2A21064   3.628   0.554   8.376
 1445POPC   C3A21065   3.733   0.459   7.987
 1445POPC   C4A21066   3.508   0.726   7.760
 1445POPC   C1B21067   3.323  44.957   8.799
 1445POPC   C2B21068   3.348   0.081   8.407
 1445POPC   C3B21069   3.226   0.288   8.091
 1445POPC   C4B21070   3.384   0.175   7.746
 1446POPC   NC321071   9.998   3.302   9.580
 1446POPC   PO421072   9.568   3.783   9.552
 1446POPC   GL121073   9.440   3.489   9.250
 1446POPC   GL221074   9.757   3.444   9.133
 1446POPC   C1A21075   9.383   3.588   8.818
 1446POPC   D2A21076   9.644   3.450   8.486
 1446POPC   C3A21077   9.545   3.493   8.074
 1446POPC   C4A21078   9.726   3.429   7.638
 1446POPC   C1B21079  10.067   3.334   8.820
 1446POPC   C2B21080  10.171   3.511   8.429
 1446POPC   C3B21081  10.051   3.569   8.023
 1446POPC   C4B21082  10.246   3.405   7.680
 1447POPC   NC321083  21.164  35.156   9.571
 1447POPC   PO421084  20.610  35.485   9.598
 1447POPC   GL121085  20.701  35.616   9.204
 1447POPC   GL221086  20.391  35.820   9.232
 1447POPC   C1A21087  20.798  35.438   8.794
 1447POPC   D2A21088  20.869  35.381   8.344
 1447POPC   C3A21089  20.566  35.347   8.018
 1447POPC   C4A21090  20.848  35.210   7.721
 1447POPC   C1B21091  20.576  35.917   8.831
 1447POPC   C2B21092  20.539  35.761   8.453
 1447POPC   C3B21093  20.533  35.865   8.058
 1447POPC   C4B21094  20.372  35.721   7.701
 1448POPC   NC321095  44.979  37.567   9.443
 1448POPC   PO421096  44.292  37.529   9.483
 1448POPC   GL121097  44.372  37.763   9.103
 1448POPC   GL221098  44.651  37.933   9.239
 1448POPC   C1A21099  44.528  37.726   8.685
 1448POPC   D2A21100  44.852  37.508   8.433
 1448POPC   C3A21101  44.863  37.716   8.037
 1448POPC   C4A21102  44.462  37.757   7.821
 1448POPC   C1B21103  44.813  38.093   8.862
 1448POPC   C2B21104   0.010  37.990   8.479
 1448POPC   C3B21105   0.048  38.286   8.159
 1448POPC   C4B21106  44.868  38.157   7.783
 1449POPC   NC321107  37.315  20.701   9.612
 1449POPC   PO421108  36.682  20.643   9.593
 1449POPC   GL121109  36.912  20.565   9.204
 1449POPC   GL221110  36.868  20.873   9.143
 1449POPC   C1A21111  36.993  20.661   8.714
 1449POPC   D2A21112  36.770  20.572   8.303
 1449POPC   C3A21113  36.983  20.553   7.891
 1449POPC   C4A21114  37.071  20.711   7.482
 1449POPC   C1B21115  36.679  21.071   8.769
 1449POPC   C2B21116  36.535  21.032   8.361
 1449POPC   C3B21117  36.743  20.989   7.992
 1449POPC   C4B21118  36.720  21.131   7.615
 1450POPC   NC321119  15.576  38.335   9.447
 1450POPC   PO421120  16.082  37.939   9.541
 1450POPC   GL121121  16.101  38.359   9.276
 1450POPC   GL221122  15.848  38.650   9.198
 1450POPC   C1A21123  16.183  38.463   8.830
 1450POPC   D2A21124  16.044  38.258   8.450
 1450POPC   C3A21125  16.150  38.352   8.026
 1450POPC   C4A21126  15.804  38.195   7.793
 1450POPC   C1B21127  15.820  38.812   8.807
 1450POPC   C2B21128  16.005  38.766   8.402
 1450POPC   C3B21129  15.804  38.726   8.008
 1450POPC   C4B21130  15.960  38.707   7.613
 1451POPC   NC321131   6.938  23.468   9.255
 1451POPC   PO421132   6.571  24.025   9.294
 1451POPC   GL121133   6.515  23.730   9.008
 1451POPC   GL221134   6.381  23.460   9.209
 1451POPC   C1A21135   6.766  23.633   8.649
 1451POPC   D2A21136   6.969  23.570   8.282
 1451POPC   C3A21137   6.736  23.843   8.006
 1451POPC   C4A21138   6.846  24.063   7.625
 1451POPC   C1B21139   6.392  23.285   8.764
 1451POPC   C2B21140   6.645  23.174   8.377
 1451POPC   C3B21141   6.707  23.310   7.921
 1451POPC   C4B21142   6.552  23.613   7.583
 1452POPC   NC321143  40.077  18.055   9.677
 1452POPC   PO421144  40.242  17.411   9.598
 1452POPC   GL121145  40.037  17.314   9.190
 1452POPC   GL221146  39.987  17.646   9.181
 1452POPC   C1A21147  39.831  17.400   8.776
 1452POPC   D2A21148  39.903  17.414   8.361
 1452POPC   C3A21149  39.563  17.582   8.135
 1452POPC   C4A21150  39.747  17.566   7.771
 1452POPC   C1B21151  40.246  17.688   8.778
 1452POPC   C2B21152  40.339  17.732   8.347
 1452POPC   C3B21153  40.228  17.580   7.954
 1452POPC   C4B21154  40.271  17.538   7.476
 1453POPC   NC321155  37.978  39.549   9.495
 1453POPC   PO421156  37.778  38.921   9.456
 1453POPC   GL121157  37.663  39.048   9.091
 1453POPC   GL221158  37.300  38.993   9.053
 1453POPC   C1A21159  37.615  39.375   8.815
 1453POPC   D2A21160  37.396  39.399   8.434
 1453POPC   C3A21161  37.570  39.477   8.071
 1453POPC   C4A21162  37.766  39.486   7.705
 1453POPC   C1B21163  37.444  38.891   8.638
 1453POPC   C2B21164  37.442  38.954   8.181
 1453POPC   C3B21165  37.374  39.112   7.766
 1453POPC   C4B21166  37.605  39.094   7.420
 1454POPC   NC321167  41.201   1.498   9.432
 1454POPC   PO421168  41.130   2.148   9.399
 1454POPC   GL121169  40.856   1.826   9.197
 1454POPC   GL221170  40.703   2.112   9.063
 1454POPC   C1A21171  40.670   1.604   8.806
 1454POPC   D2A21172  40.798   1.429   8.369
 1454POPC   C3A21173  40.657   1.625   7.963
 1454POPC   C4A21174  40.599   1.620   7.480
 1454POPC   C1B21175  40.893   2.051   8.728
 1454POPC   C2B21176  40.630   1.959   8.406
 1454POPC   C3B21177  40.612   2.138   8.043
 1454POPC   C4B21178  40.808   2.045   7.691
 1455POPC   NC321179  28.057   7.556   9.484
 1455POPC   PO421180  28.692   7.407   9.655
 1455POPC   GL121181  28.505   7.397   9.248
 1455POPC   GL221182  28.854   7.390   9.158
 1455POPC   C1A21183  28.242   7.492   8.857
 1455POPC   D2A21184  28.096   7.697   8.466
 1455POPC   C3A21185  28.145   7.418   8.121
 1455POPC   C4A21186  28.060   7.493   7.703
 1455POPC   C1B21187  28.725   7.646   8.843
 1455POPC   C2B21188  28.582   7.497   8.452
 1455POPC   C3B21189  28.623   7.598   8.048
 1455POPC   C4B21190  28.531   7.313   7.766
 1456POPC   NC321191  12.609   4.082   9.606
 1456POPC   PO421192  13.051   4.578   9.615
 1456POPC   GL121193  13.037   4.423   9.186
 1456POPC   GL221194  12.976   4.098   9.210
 1456POPC   C1A21195  12.724   4.294   8.820
 1456POPC   D2A21196  12.419   4.527   8.539
 1456POPC   C3A21197  12.505   4.521   8.088
 1456POPC   C4A21198  12.496   4.507   7.644
 1456POPC   C1B21199  13.030   3.875   8.815
 1456POPC   C2B21200  13.007   3.766   8.398
 1456POPC   C3B21201  13.124   3.889   7.974
 1456POPC   C4B21202  12.805   4.125   7.809
 1457POPC   NC321203   7.132  28.473   9.319
 1457POPC   PO421204   6.477  28.382   9.512
 1457POPC   GL121205   6.652  28.393   9.114
 1457POPC   GL221206   6.884  28.098   9.091
 1457POPC   C1A21207   6.509  28.537   8.718
 1457POPC   D2A21208   6.537  28.319   8.326
 1457POPC   C3A21209   6.811  28.364   8.009
 1457POPC   C4A21210   6.467  28.408   7.724
 1457POPC   C1B21211   6.893  28.176   8.662
 1457POPC   C2B21212   6.829  27.879   8.329
 1457POPC   C3B21213   7.039  27.890   7.934
 1457POPC   C4B21214   6.805  28.029   7.598
 1458POPC   NC321215  36.168   2.342   9.536
 1458POPC   PO421216  36.462   1.684   9.539
 1458POPC   GL121217  36.361   1.924   9.154
 1458POPC   GL221218  36.011   2.087   9.098
 1458POPC   C1A21219  36.238   1.809   8.722
 1458POPC   D2A21220  36.044   1.858   8.296
 1458POPC   C3A21221  36.358   1.908   7.954
 1458POPC   C4A21222  36.378   2.197   7.591
 1458POPC   C1B21223  35.708   2.292   8.800
 1458POPC   C2B21224  35.431   2.263   8.439
 1458POPC   C3B21225  35.648   2.333   8.045
 1458POPC   C4B21226  35.894   2.053   7.823
 1459POPC   NC321227   8.578  26.612   9.294
 1459POPC   PO421228   9.105  26.957   9.647
 1459POPC   GL121229   9.090  26.908   9.225
 1459POPC   GL221230   8.785  27.092   9.195
 1459POPC   C1A21231   9.048  26.669   8.830
 1459POPC   D2A21232   9.157  26.842   8.417
 1459POPC   C3A21233   8.987  26.638   8.089
 1459POPC   C4A21234   9.186  26.546   7.714
 1459POPC   C1B21235   8.973  27.170   8.789
 1459POPC   C2B21236   8.839  27.252   8.396
 1459POPC   C3B21237   9.022  27.169   8.028
 1459POPC   C4B21238   8.873  26.948   7.703
 1460POPC   NC321239  41.257  36.150   9.661
 1460POPC   PO421240  41.859  36.118   9.586
 1460POPC   GL121241  41.625  36.207   9.194
 1460POPC   GL221242  41.375  35.926   9.212
 1460POPC   C1A21243  41.676  36.384   8.739
 1460POPC   D2A21244  41.538  36.189   8.346
 1460POPC   C3A21245  41.728  36.163   7.968
 1460POPC   C4A21246  41.615  36.516   7.753
 1460POPC   C1B21247  41.358  36.002   8.784
 1460POPC   C2B21248  41.210  35.785   8.403
 1460POPC   C3B21249  41.316  35.873   7.995
 1460POPC   C4B21250  41.108  35.960   7.651
 1461POPC   NC321251  38.853  12.981   9.663
 1461POPC   PO421252  38.987  12.394   9.465
 1461POPC   GL121253  39.211  12.669   9.182
 1461POPC   GL221254  39.190  13.045   9.226
 1461POPC   C1A21255  39.227  12.538   8.772
 1461POPC   D2A21256  39.178  12.802   8.431
 1461POPC   C3A21257  39.056  12.561   8.091
 1461POPC   C4A21258  39.098  12.740   7.691
 1461POPC   C1B21259  39.155  13.232   8.803
 1461POPC   C2B21260  39.110  13.334   8.377
 1461POPC   C3B21261  39.289  13.130   8.026
 1461POPC   C4B21262  39.211  13.263   7.623
 1462POPC   NC321263   8.663  29.000   9.470
 1462POPC   PO421264   9.091  29.499   9.518
 1462POPC   GL121265   9.147  29.310   9.132
 1462POPC   GL221266   8.875  29.101   9.011
 1462POPC   C1A21267   9.299  29.498   8.768
 1462POPC   D2A21268   9.291  29.550   8.351
 1462POPC   C3A21269   9.128  29.159   8.171
 1462POPC   C4A21270   9.142  29.106   7.745
 1462POPC   C1B21271   8.669  28.998   8.614
 1462POPC   C2B21272   8.748  28.722   8.288
 1462POPC   C3B21273   8.847  28.734   7.881
 1462POPC   C4B21274   8.813  28.813   7.438
 1463POPC   NC321275  37.186  44.296   9.590
 1463POPC   PO421276  36.766  43.813   9.760
 1463POPC   GL121277  36.737  43.734   9.292
 1463POPC   GL221278  36.889  44.038   9.139
 1463POPC   C1A21279  36.721  43.566   8.842
 1463POPC   D2A21280  36.642  43.493   8.382
 1463POPC   C3A21281  36.910  43.697   8.054
 1463POPC   C4A21282  36.793  43.789   7.610
 1463POPC   C1B21283  37.253  44.190   8.846
 1463POPC   C2B21284  37.401  44.292   8.413
 1463POPC   C3B21285  37.288  44.344   7.983
 1463POPC   C4B21286  37.117  44.166   7.586
 1464POPC   NC321287  24.059  40.145   9.370
 1464POPC   PO421288  23.554  39.782   9.674
 1464POPC   GL121289  23.557  39.902   9.162
 1464POPC   GL221290  23.696  40.211   9.028
 1464POPC   C1A21291  23.521  39.912   8.664
 1464POPC   D2A21292  23.515  40.282   8.378
 1464POPC   C3A21293  23.448  40.179   7.917
 1464POPC   C4A21294  23.533  40.099   7.455
 1464POPC   C1B21295  24.022  39.965   8.751
 1464POPC   C2B21296  23.945  39.772   8.372
 1464POPC   C3B21297  23.922  39.976   8.000
 1464POPC   C4B21298  23.976  39.824   7.575
 1465POPC   NC321299  23.157  14.687   9.251
 1465POPC   PO421300  22.507  14.482   9.490
 1465POPC   GL121301  22.745  14.427   9.096
 1465POPC   GL221302  22.637  14.752   9.075
 1465POPC   C1A21303  23.021  14.268   8.710
 1465POPC   D2A21304  23.119  14.215   8.242
 1465POPC   C3A21305  23.063  14.524   7.900
 1465POPC   C4A21306  23.057  14.449   7.389
 1465POPC   C1B21307  22.680  14.660   8.650
 1465POPC   C2B21308  22.674  14.887   8.293
 1465POPC   C3B21309  22.525  14.883   7.885
 1465POPC   C4B21310  22.609  14.565   7.572
 1466POPC   NC321311  10.771  39.180   9.482
 1466POPC   PO421312  10.145  38.788   9.475
 1466POPC   GL121313  10.276  39.012   9.122
 1466POPC   GL221314  10.480  39.329   9.095
 1466POPC   C1A21315  10.224  39.095   8.718
 1466POPC   D2A21316  10.518  39.166   8.400
 1466POPC   C3A21317  10.376  39.150   7.976
 1466POPC   C4A21318  10.435  39.478   7.665
 1466POPC   C1B21319  10.868  39.288   8.837
 1466POPC   C2B21320  10.957  39.474   8.439
 1466POPC   C3B21321  10.829  39.400   8.050
 1466POPC   C4B21322  10.944  39.341   7.662
 1467POPC   NC321323   4.108  26.457   9.428
 1467POPC   PO421324   3.980  25.805   9.501
 1467POPC   GL121325   4.277  25.999   9.162
 1467POPC   GL221326   4.538  25.736   9.039
 1467POPC   C1A21327   4.304  26.258   8.771
 1467POPC   D2A21328   4.039  26.223   8.410
 1467POPC   C3A21329   4.205  26.303   8.007
 1467POPC   C4A21330   4.186  26.063   7.638
 1467POPC   C1B21331   4.580  25.866   8.628
 1467POPC   C2B21332   4.404  25.861   8.213
 1467POPC   C3B21333   4.465  25.682   7.833
 1467POPC   C4B21334   4.890  25.689   7.752
 1468POPC   NC321335  17.245  13.288   9.389
 1468POPC   PO421336  17.148  12.742   9.824
 1468POPC   GL121337  17.207  12.769   9.340
 1468POPC   GL221338  17.524  12.896   9.177
 1468POPC   C1A21339  17.202  12.613   8.897
 1468POPC   D2A21340  17.329  12.445   8.497
 1468POPC   C3A21341  17.076  12.538   8.101
 1468POPC   C4A21342  17.197  12.801   7.730
 1468POPC   C1B21343  17.665  12.797   8.734
 1468POPC   C2B21344  17.813  12.647   8.305
 1468POPC   C3B21345  17.738  12.810   7.867
 1468POPC   C4B21346  17.960  12.788   7.447
 1469POPC   NC321347  44.876  12.083   9.515
 1469POPC   PO421348  44.205  12.251   9.441
 1469POPC   GL121349  44.515  12.224   9.153
 1469POPC   GL221350  44.605  11.879   9.159
 1469POPC   C1A21351  44.622  12.191   8.728
 1469POPC   D2A21352  44.704  12.396   8.360
 1469POPC   C3A21353  44.641  12.198   8.014
 1469POPC   C4A21354  44.667  12.417   7.681
 1469POPC   C1B21355  44.898  11.761   8.834
 1469POPC   C2B21356   0.074  12.051   8.528
 1469POPC   C3B21357   0.120  12.020   8.098
 1469POPC   C4B21358   0.005  11.697   7.825
 1470POPC   NC321359  15.478  27.907   9.458
 1470POPC   PO421360  14.995  28.310   9.687
 1470POPC   GL121361  15.172  28.505   9.258
 1470POPC   GL221362  15.091  28.170   9.156
 1470POPC   C1A21363  15.213  28.791   8.818
 1470POPC   D2A21364  14.994  28.771   8.428
 1470POPC   C3A21365  15.199  28.756   8.023
 1470POPC   C4A21366  14.913  28.740   7.654
 1470POPC   C1B21367  15.293  28.298   8.775
 1470POPC   C2B21368  15.214  28.299   8.334
 1470POPC   C3B21369  15.234  27.958   8.029
 1470POPC   C4B21370  15.310  27.989   7.566
 1471POPC   NC321371  37.051  11.674   9.498
 1471POPC   PO421372  36.739  12.395   9.457
 1471POPC   GL121373  36.910  12.151   9.150
 1471POPC   GL221374  36.705  11.908   9.247
 1471POPC   C1A21375  36.955  12.231   8.725
 1471POPC   D2A21376  37.078  12.381   8.314
 1471POPC   C3A21377  37.123  12.191   7.890
 1471POPC   C4A21378  36.860  12.326   7.507
 1471POPC   C1B21379  36.648  11.805   8.847
 1471POPC   C2B21380  36.925  11.764   8.517
 1471POPC   C3B21381  36.817  11.670   8.126
 1471POPC   C4B21382  36.724  11.850   7.736
 1472POPC   NC321383   6.804  27.011   9.492
 1472POPC   PO421384   6.258  26.592   9.451
 1472POPC   GL121385   6.545  26.779   9.082
 1472POPC   GL221386   6.546  27.165   9.061
 1472POPC   C1A21387   6.695  26.730   8.602
 1472POPC   D2A21388   6.974  26.525   8.263
 1472POPC   C3A21389   6.853  26.530   7.832
 1472POPC   C4A21390   6.428  26.687   7.722
 1472POPC   C1B21391   6.305  27.044   8.700
 1472POPC   C2B21392   6.376  27.016   8.297
 1472POPC   C3B21393   6.715  26.970   8.074
 1472POPC   C4B21394   6.796  27.020   7.670
 1473POPC   NC321395   4.843  21.280   9.565
 1473POPC   PO421396   4.228  20.997   9.653
 1473POPC   GL121397   4.296  21.188   9.249
 1473POPC   GL221398   4.123  20.927   9.121
 1473POPC   C1A21399   4.473  21.478   8.924
 1473POPC   D2A21400   4.611  21.552   8.495
 1473POPC   C3A21401   4.330  21.551   8.158
 1473POPC   C4A21402   4.318  21.469   7.725
 1473POPC   C1B21403   4.130  21.115   8.699
 1473POPC   C2B21404   4.079  21.122   8.239
 1473POPC   C3B21405   4.317  20.991   7.859
 1473POPC   C4B21406   4.198  21.082   7.385
 1474POPC   NC321407  27.105  22.141   9.395
 1474POPC   PO421408  26.546  21.840   9.450
 1474POPC   GL121409  26.706  22.076   9.077
 1474POPC   GL221410  26.713  22.413   9.068
 1474POPC   C1A21411  26.799  22.175   8.624
 1474POPC   D2A21412  26.986  22.062   8.240
 1474POPC   C3A21413  26.731  21.947   7.905
 1474POPC   C4A21414  26.792  22.257   7.634
 1474POPC   C1B21415  26.392  22.445   8.788
 1474POPC   C2B21416  26.320  22.183   8.442
 1474POPC   C3B21417  26.404  22.311   8.011
 1474POPC   C4B21418  26.359  22.513   7.590
 1475POPC   NC321419  12.126  13.304   9.928
 1475POPC   PO421420  11.981  12.753   9.578
 1475POPC   GL121421  12.019  12.852   9.161
 1475POPC   GL221422  12.337  12.692   9.123
 1475POPC   C1A21423  11.924  12.842   8.711
 1475POPC   D2A21424  11.976  12.587   8.326
 1475POPC   C3A21425  12.024  12.824   7.936
 1475POPC   C4A21426  12.218  12.897   7.524
 1475POPC   C1B21427  12.361  12.541   8.697
 1475POPC   C2B21428  12.516  12.463   8.266
 1475POPC   C3B21429  12.371  12.481   7.822
 1475POPC   C4B21430  12.483  12.506   7.352
 1476POPC   NC321431  14.403   7.785   9.622
 1476POPC   PO421432  14.322   8.390   9.393
 1476POPC   GL121433  14.647   8.384   9.109
 1476POPC   GL221434  14.568   8.703   8.994
 1476POPC   C1A21435  14.700   8.030   8.827
 1476POPC   D2A21436  14.528   7.903   8.442
 1476POPC   C3A21437  14.599   8.202   8.149
 1476POPC   C4A21438  14.611   7.955   7.817
 1476POPC   C1B21439  14.281   8.445   8.705
 1476POPC   C2B21440  14.079   8.216   8.339
 1476POPC   C3B21441  14.164   8.223   7.892
 1476POPC   C4B21442  14.181   8.533   7.555
 1477POPC   NC321443  36.062  26.115   9.552
 1477POPC   PO421444  36.222  25.505   9.533
 1477POPC   GL121445  36.047  25.782   9.125
 1477POPC   GL221446  36.038  26.180   9.033
 1477POPC   C1A21447  36.002  25.837   8.627
 1477POPC   D2A21448  35.914  26.164   8.253
 1477POPC   C3A21449  36.055  26.127   7.786
 1477POPC   C4A21450  36.198  26.148   7.332
 1477POPC   C1B21451  36.316  26.243   8.624
 1477POPC   C2B21452  36.414  26.116   8.161
 1477POPC   C3B21453  36.634  26.093   7.709
 1477POPC   C4B21454  36.668  25.939   7.266
 1478POPC   NC321455  36.787   7.978   9.526
 1478POPC   PO421456  36.975   8.636   9.528
 1478POPC   GL121457  36.888   8.347   9.170
 1478POPC   GL221458  36.532   8.246   9.166
 1478POPC   C1A21459  37.050   8.114   8.797
 1478POPC   D2A21460  37.108   8.269   8.383
 1478POPC   C3A21461  37.088   8.041   8.011
 1478POPC   C4A21462  36.868   8.375   7.869
 1478POPC   C1B21463  36.575   7.923   8.838
 1478POPC   C2B21464  36.532   8.117   8.446
 1478POPC   C3B21465  36.552   8.018   8.044
 1478POPC   C4B21466  36.642   7.901   7.628
 1479POPC   NC321467  25.396  37.434   9.627
 1479POPC   PO421468  25.718  37.937   9.667
 1479POPC   GL121469  25.517  37.745   9.249
 1479POPC   GL221470  25.124  37.706   9.201
 1479POPC   C1A21471  25.437  37.550   8.834
 1479POPC   D2A21472  25.195  37.655   8.485
 1479POPC   C3A21473  25.408  37.532   8.111
 1479POPC   C4A21474  25.165  37.531   7.781
 1479POPC   C1B21475  24.994  38.034   8.832
 1479POPC   C2B21476  24.815  38.011   8.434
 1479POPC   C3B21477  24.910  37.913   8.011
 1479POPC   C4B21478  24.957  37.964   7.541
 1480POPC   NC321479  25.856  38.291   9.941
 1480POPC   PO421480  25.337  38.596   9.630
 1480POPC   GL121481  25.204  38.554   9.213
 1480POPC   GL221482  25.295  38.208   9.177
 1480POPC   C1A21483  25.368  38.533   8.793
 1480POPC   D2A21484  25.209  38.346   8.423
 1480POPC   C3A21485  25.321  38.541   8.032
 1480POPC   C4A21486  25.076  38.851   7.836
 1480POPC   C1B21487  25.506  38.046   8.761
 1480POPC   C2B21488  25.538  37.992   8.289
 1480POPC   C3B21489  25.378  38.053   7.865
 1480POPC   C4B21490  25.592  38.216   7.497
 1481POPC   NC321491  23.234  36.887   9.432
 1481POPC   PO421492  23.834  36.989   9.512
 1481POPC   GL121493  23.641  36.936   9.093
 1481POPC   GL221494  23.392  37.168   8.933
 1481POPC   C1A21495  23.771  36.969   8.655
 1481POPC   D2A21496  23.671  37.264   8.337
 1481POPC   C3A21497  23.833  37.186   7.917
 1481POPC   C4A21498  23.894  37.096   7.483
 1481POPC   C1B21499  23.263  36.864   8.623
 1481POPC   C2B21500  23.485  36.712   8.252
 1481POPC   C3B21501  23.599  36.730   7.808
 1481POPC   C4B21502  23.548  36.748   7.367
 1482POPC   NC321503   8.145  12.419   9.412
 1482POPC   PO421504   8.276  11.756   9.484
 1482POPC   GL121505   8.423  12.012   9.126
 1482POPC   GL221506   8.584  12.363   9.152
 1482POPC   C1A21507   8.377  11.939   8.685
 1482POPC   D2A21508   8.241  12.183   8.336
 1482POPC   C3A21509   8.440  12.131   7.936
 1482POPC   C4A21510   8.261  11.892   7.642
 1482POPC   C1B21511   8.289  12.431   8.796
 1482POPC   C2B21512   8.314  12.696   8.463
 1482POPC   C3B21513   8.380  12.619   8.043
 1482POPC   C4B21514   8.458  12.529   7.592
 1483POPC   NC321515   4.845   2.845   9.458
 1483POPC   PO421516   5.307   2.447   9.341
 1483POPC   GL121517   5.204   2.758   9.087
 1483POPC   GL221518   5.327   3.055   9.233
 1483POPC   C1A21519   4.962   2.735   8.739
 1483POPC   D2A21520   5.037   2.803   8.322
 1483POPC   C3A21521   5.147   2.544   8.031
 1483POPC   C4A21522   4.892   2.681   7.711
 1483POPC   C1B21523   5.459   3.095   8.775
 1483POPC   C2B21524   5.337   3.212   8.342
 1483POPC   C3B21525   5.272   3.031   7.884
 1483POPC   C4B21526   5.193   2.964   7.411
 1484POPC   NC321527  31.843  39.420   9.839
 1484POPC   PO421528  32.414  39.345   9.611
 1484POPC   GL121529  32.148  39.194   9.307
 1484POPC   GL221530  32.335  38.899   9.208
 1484POPC   C1A21531  32.114  39.231   8.868
 1484POPC   D2A21532  32.296  39.215   8.467
 1484POPC   C3A21533  32.174  39.507   8.181
 1484POPC   C4A21534  32.052  39.471   7.785
 1484POPC   C1B21535  32.591  38.950   8.805
 1484POPC   C2B21536  32.651  38.896   8.329
 1484POPC   C3B21537  32.489  39.138   7.935
 1484POPC   C4B21538  32.563  39.045   7.461
 1485POPC   NC321539  29.725  40.435   9.520
 1485POPC   PO421540  30.132  39.922   9.379
 1485POPC   GL121541  30.007  40.237   9.135
 1485POPC   GL221542  29.686  40.125   9.035
 1485POPC   C1A21543  30.168  40.306   8.756
 1485POPC   D2A21544  30.469  40.146   8.484
 1485POPC   C3A21545  30.351  40.427   8.154
 1485POPC   C4A21546  30.047  40.355   7.841
 1485POPC   C1B21547  29.933  39.841   8.764
 1485POPC   C2B21548  29.990  39.984   8.342
 1485POPC   C3B21549  29.770  39.914   7.959
 1485POPC   C4B21550  29.819  39.695   7.561
 1486POPC   NC321551   2.978  34.883   9.435
 1486POPC   PO421552   3.610  34.871   9.684
 1486POPC   GL121553   3.621  34.672   9.219
 1486POPC   GL221554   3.316  34.667   9.122
 1486POPC   C1A21555   3.681  34.417   8.804
 1486POPC   D2A21556   3.928  34.305   8.404
 1486POPC   C3A21557   3.728  34.285   7.962
 1486POPC   C4A21558   3.747  34.508   7.525
 1486POPC   C1B21559   3.230  34.668   8.683
 1486POPC   C2B21560   3.418  34.534   8.293
 1486POPC   C3B21561   3.339  34.599   7.828
 1486POPC   C4B21562   3.250  34.614   7.366
 1487POPC   NC321563   8.097  28.784   9.423
 1487POPC   PO421564   8.363  29.371   9.411
 1487POPC   GL121565   8.262  29.175   9.083
 1487POPC   GL221566   8.416  28.846   9.030
 1487POPC   C1A21567   8.334  29.378   8.708
 1487POPC   D2A21568   8.305  29.544   8.294
 1487POPC   C3A21569   7.903  29.417   8.120
 1487POPC   C4A21570   7.945  29.033   7.901
 1487POPC   C1B21571   8.102  28.887   8.706
 1487POPC   C2B21572   8.224  29.049   8.327
 1487POPC   C3B21573   8.564  29.130   8.060
 1487POPC   C4B21574   8.398  28.938   7.676
 1488POPC   NC321575  28.283   4.514   9.426
 1488POPC   PO421576  28.488   3.890   9.377
 1488POPC   GL121577  28.278   4.119   9.081
 1488POPC   GL221578  28.072   4.437   8.962
 1488POPC   C1A21579  28.342   4.106   8.677
 1488POPC   D2A21580  28.207   4.294   8.339
 1488POPC   C3A21581  28.542   4.155   8.120
 1488POPC   C4A21582  28.527   4.134   7.711
 1488POPC   C1B21583  28.446   4.621   8.727
 1488POPC   C2B21584  28.629   4.615   8.295
 1488POPC   C3B21585  28.372   4.612   7.912
 1488POPC   C4B21586  28.146   4.824   7.567
 1489POPC   NC321587  40.529   4.124   9.529
 1489POPC   PO421588  41.218   4.410   9.591
 1489POPC   GL121589  40.934   4.379   9.244
 1489POPC   GL221590  40.904   4.073   9.122
 1489POPC   C1A21591  40.699   4.486   8.852
 1489POPC   D2A21592  40.484   4.360   8.460
 1489POPC   C3A21593  40.738   4.359   8.105
 1489POPC   C4A21594  40.696   4.511   7.717
 1489POPC   C1B21595  40.566   3.983   8.879
 1489POPC   C2B21596  40.523   3.828   8.514
 1489POPC   C3B21597  40.553   3.863   8.105
 1489POPC   C4B21598  40.602   4.016   7.722
 1490POPC   NC321599  30.072  34.041   9.625
 1490POPC   PO421600  30.023  34.718   9.493
 1490POPC   GL121601  30.036  34.564   9.084
 1490POPC   GL221602  29.708  34.459   9.131
 1490POPC   C1A21603  30.108  34.664   8.637
 1490POPC   D2A21604  29.898  34.501   8.262
 1490POPC   C3A21605  29.951  34.587   7.821
 1490POPC   C4A21606  30.108  34.242   7.573
 1490POPC   C1B21607  29.588  34.673   8.803
 1490POPC   C2B21608  29.556  34.834   8.424
 1490POPC   C3B21609  29.471  34.695   8.003
 1490POPC   C4B21610  29.540  34.895   7.602
 1491POPC   NC321611   3.744  18.294   9.296
 1491POPC   PO421612   4.399  18.290   9.630
 1491POPC   GL121613   4.237  18.178   9.231
 1491POPC   GL221614   4.151  18.522   9.123
 1491POPC   C1A21615   4.272  18.122   8.780
 1491POPC   D2A21616   4.599  18.228   8.486
 1491POPC   C3A21617   4.521  18.262   8.045
 1491POPC   C4A21618   4.490  18.368   7.597
 1491POPC   C1B21619   3.917  18.494   8.730
 1491POPC   C2B21620   3.971  18.304   8.364
 1491POPC   C3B21621   3.983  18.640   8.128
 1491POPC   C4B21622   4.171  18.750   7.754
 1492POPC   NC321623  34.678  14.378   9.668
 1492POPC   PO421624  34.036  14.476   9.624
 1492POPC   GL121625  34.412  14.258   9.229
 1492POPC   GL221626  34.718  14.321   9.129
 1492POPC   C1A21627  34.363  14.381   8.756
 1492POPC   D2A21628  34.480  14.697   8.428
 1492POPC   C3A21629  34.323  14.425   8.097
 1492POPC   C4A21630  34.415  14.261   7.738
 1492POPC   C1B21631  34.857  14.506   8.721
 1492POPC   C2B21632  34.707  14.245   8.377
 1492POPC   C3B21633  34.874  14.231   7.972
 1492POPC   C4B21634  34.876  14.429   7.586
 1493POPC   NC321635  28.710  18.543   9.599
 1493POPC   PO421636  28.234  18.172   9.658
 1493POPC   GL121637  28.487  18.156   9.280
 1493POPC   GL221638  28.387  18.494   9.210
 1493POPC   C1A21639  28.465  18.065   8.814
 1493POPC   D2A21640  28.403  18.361   8.455
 1493POPC   C3A21641  28.368  18.160   8.030
 1493POPC   C4A21642  28.554  18.408   7.679
 1493POPC   C1B21643  28.080  18.413   8.882
 1493POPC   C2B21644  27.921  18.576   8.485
 1493POPC   C3B21645  28.079  18.571   8.074
 1493POPC   C4B21646  28.065  18.455   7.632
 1494POPC   NC321647  25.810  23.909   9.472
 1494POPC   PO421648  26.319  23.492   9.453
 1494POPC   GL121649  26.354  23.681   9.086
 1494POPC   GL221650  25.992  23.663   9.070
 1494POPC   C1A21651  26.299  23.543   8.669
 1494POPC   D2A21652  26.110  23.732   8.353
 1494POPC   C3A21653  26.410  23.823   8.059
 1494POPC   C4A21654  26.231  23.786   7.688
 1494POPC   C1B21655  25.750  23.774   8.740
 1494POPC   C2B21656  25.590  23.614   8.365
 1494POPC   C3B21657  25.761  23.610   7.956
 1494POPC   C4B21658  25.567  23.607   7.564
 1495POPC   NC321659   0.908  39.887   9.497
 1495POPC   PO421660   1.483  39.756   9.194
 1495POPC   GL121661   1.072  39.948   9.034
 1495POPC   GL221662   1.030  40.302   9.159
 1495POPC   C1A21663   0.890  40.087   8.653
 1495POPC   D2A21664   1.099  39.923   8.291
 1495POPC   C3A21665   0.935  39.857   7.884
 1495POPC   C4A21666   1.253  39.897   7.579
 1495POPC   C1B21667   1.346  40.322   8.814
 1495POPC   C2B21668   1.234  40.433   8.388
 1495POPC   C3B21669   1.057  40.362   7.993
 1495POPC   C4B21670   1.315  40.461   7.665
 1496POPC   NC321671  20.232  15.525   9.323
 1496POPC   PO421672  19.694  15.219   9.587
 1496POPC   GL121673  19.813  15.274   9.184
 1496POPC   GL221674  20.071  15.115   9.079
 1496POPC   C1A21675  19.816  15.474   8.783
 1496POPC   D2A21676  19.841  15.656   8.372
 1496POPC   C3A21677  20.084  15.426   8.097
 1496POPC   C4A21678  19.998  15.295   7.680
 1496POPC   C1B21679  20.292  14.961   8.772
 1496POPC   C2B21680  20.340  14.986   8.370
 1496POPC   C3B21681  20.270  14.959   7.959
 1496POPC   C4B21682  20.016  14.777   7.634
 1497POPC   NC321683  39.658  30.937   9.475
 1497POPC   PO421684  38.969  30.697   9.578
 1497POPC   GL121685  39.230  30.738   9.233
 1497POPC   GL221686  39.220  31.074   9.192
 1497POPC   C1A21687  39.402  30.731   8.803
 1497POPC   D2A21688  39.219  30.611   8.416
 1497POPC   C3A21689  39.374  30.690   8.007
 1497POPC   C4A21690  39.229  30.737   7.590
 1497POPC   C1B21691  38.954  30.998   8.838
 1497POPC   C2B21692  38.813  31.030   8.412
 1497POPC   C3B21693  38.972  31.029   7.989
 1497POPC   C4B21694  38.928  31.204   7.581
 1498POPC   NC321695   1.025  10.987   9.632
 1498POPC   PO421696   1.520  11.493   9.584
 1498POPC   GL121697   1.461  11.224   9.210
 1498POPC   GL221698   1.132  11.186   9.163
 1498POPC   C1A21699   1.448  11.163   8.756
 1498POPC   D2A21700   1.452  11.366   8.352
 1498POPC   C3A21701   1.351  11.448   7.915
 1498POPC   C4A21702   1.645  11.266   7.644
 1498POPC   C1B21703   1.040  11.502   8.816
 1498POPC   C2B21704   0.934  11.421   8.370
 1498POPC   C3B21705   1.080  11.056   8.126
 1498POPC   C4B21706   1.122  10.850   7.724
 1499POPC   NC321707  43.303   3.103   9.643
 1499POPC   PO421708  42.888   2.632   9.641
 1499POPC   GL121709  43.134   2.639   9.255
 1499POPC   GL221710  43.469   2.762   9.262
 1499POPC   C1A21711  43.062   2.858   8.864
 1499POPC   D2A21712  43.072   2.706   8.440
 1499POPC   C3A21713  42.920   2.916   8.098
 1499POPC   C4A21714  43.140   2.821   7.741
 1499POPC   C1B21715  43.566   2.789   8.831
 1499POPC   C2B21716  43.588   2.638   8.443
 1499POPC   C3B21717  43.467   2.901   8.127
 1499POPC   C4B21718  43.618   3.005   7.747
 1500POPC   NC321719  19.528  23.404   9.924
 1500POPC   PO421720  19.445  23.973   9.555
 1500POPC   GL121721  19.697  23.843   9.165
 1500POPC   GL221722  19.989  24.087   9.093
 1500POPC   C1A21723  19.768  23.685   8.740
 1500POPC   D2A21724  19.978  23.652   8.327
 1500POPC   C3A21725  19.777  23.533   7.935
 1500POPC   C4A21726  19.371  23.598   7.787
 1500POPC   C1B21727  19.884  24.170   8.669
 1500POPC   C2B21728  19.884  24.202   8.251
 1500POPC   C3B21729  20.053  23.980   7.911
 1500POPC   C4B21730  20.322  24.105   7.583
 1501POPC   NC321731  36.158  40.642   9.393
 1501POPC   PO421732  35.523  40.950   9.471
 1501POPC   GL121733  35.740  40.794   9.129
 1501POPC   GL221734  35.941  40.540   8.930
 1501POPC   C1A21735  35.894  41.027   8.781
 1501POPC   D2A21736  36.128  41.025   8.390
 1501POPC   C3A21737  35.965  40.914   7.987
 1501POPC   C4A21738  36.078  40.529   7.761
 1501POPC   C1B21739  36.365  40.750   8.791
 1501POPC   C2B21740  36.616  40.882   8.437
 1501POPC   C3B21741  36.467  40.876   7.999
 1501POPC   C4B21742  36.364  41.054   7.602
 1502POPC   NC321743   7.428  43.274   9.661
 1502POPC   PO421744   7.600  42.709   9.354
 1502POPC   GL121745   7.484  43.051   9.138
 1502POPC   GL221746   7.661  43.327   9.225
 1502POPC   C1A21747   7.240  43.213   8.799
 1502POPC   D2A21748   7.252  43.505   8.464
 1502POPC   C3A21749   7.152  43.268   8.110
 1502POPC   C4A21750   7.278  43.017   7.795
 1502POPC   C1B21751   7.611  43.550   8.879
 1502POPC   C2B21752   7.775  43.556   8.488
 1502POPC   C3B21753   7.620  43.552   8.118
 1502POPC   C4B21754   7.505  43.464   7.729
 1503POPC   NC321755  30.345   6.186   9.501
 1503POPC   PO421756  29.805   5.791   9.529
 1503POPC   GL121757  29.765   5.930   9.136
 1503POPC   GL221758  29.777   6.296   9.237
 1503POPC   C1A21759  29.862   5.683   8.764
 1503POPC   D2A21760  29.656   5.614   8.357
 1503POPC   C3A21761  29.846   5.703   7.959
 1503POPC   C4A21762  29.658   5.990   7.680
 1503POPC   C1B21763  30.071   6.275   8.900
 1503POPC   C2B21764  29.895   6.139   8.516
 1503POPC   C3B21765  29.933   6.212   8.096
 1503POPC   C4B21766  30.192   6.067   7.782
 1504POPC   NC321767   3.300  16.584   9.519
 1504POPC   PO421768   2.762  16.872   9.662
 1504POPC   GL121769   2.681  16.816   9.191
 1504POPC   GL221770   2.948  16.603   9.143
 1504POPC   C1A21771   2.542  16.632   8.784
 1504POPC   D2A21772   2.407  16.480   8.368
 1504POPC   C3A21773   2.584  16.714   8.044
 1504POPC   C4A21774   2.535  16.843   7.670
 1504POPC   C1B21775   3.065  16.689   8.734
 1504POPC   C2B21776   3.014  16.791   8.292
 1504POPC   C3B21777   3.054  16.796   7.818
 1504POPC   C4B21778   2.942  16.968   7.392
 1505POPC   NC321779  38.958  37.072   9.592
 1505POPC   PO421780  39.594  37.038   9.435
 1505POPC   GL121781  39.254  36.909   9.205
 1505POPC   GL221782  39.108  37.206   9.069
 1505POPC   C1A21783  39.154  36.743   8.821
 1505POPC   D2A21784  39.227  36.903   8.427
 1505POPC   C3A21785  39.208  36.664   8.087
 1505POPC   C4A21786  39.179  36.737   7.666
 1505POPC   C1B21787  39.501  37.150   8.794
 1505POPC   C2B21788  39.676  37.147   8.379
 1505POPC   C3B21789  39.402  37.187   8.001
 1505POPC   C4B21790  39.522  37.135   7.605
 1506POPC   NC321791  34.031  22.780   9.738
 1506POPC   PO421792  33.496  23.055   9.417
 1506POPC   GL121793  33.543  22.780   9.134
 1506POPC   GL221794  33.901  22.723   9.212
 1506POPC   C1A21795  33.399  22.843   8.730
 1506POPC   D2A21796  33.584  23.052   8.378
 1506POPC   C3A21797  33.615  22.904   7.965
 1506POPC   C4A21798  33.677  22.941   7.528
 1506POPC   C1B21799  33.914  22.908   8.776
 1506POPC   C2B21800  34.031  22.812   8.320
 1506POPC   C3B21801  33.945  22.516   7.985
 1506POPC   C4B21802  33.814  22.470   7.533
 1507POPC   NC321803  31.732  22.010   9.635
 1507POPC   PO421804  31.743  22.619   9.396
 1507POPC   GL121805  31.512  22.248   9.221
 1507POPC   GL221806  31.687  21.957   9.141
 1507POPC   C1A21807  31.203  22.045   8.935
 1507POPC   D2A21808  30.981  22.119   8.531
 1507POPC   C3A21809  31.282  22.309   8.223
 1507POPC   C4A21810  31.492  22.223   7.807
 1507POPC   C1B21811  31.794  21.849   8.747
 1507POPC   C2B21812  31.661  21.921   8.316
 1507POPC   C3B21813  31.877  21.894   7.914
 1507POPC   C4B21814  31.746  21.835   7.482
 1508POPC   NC321815  13.195  30.563   9.460
 1508POPC   PO421816  12.636  31.008   9.553
 1508POPC   GL121817  12.679  30.751   9.205
 1508POPC   GL221818  12.630  31.018   9.040
 1508POPC   C1A21819  12.956  30.634   8.865
 1508POPC   D2A21820  13.032  30.659   8.439
 1508POPC   C3A21821  13.029  30.355   8.112
 1508POPC   C4A21822  13.131  30.540   7.698
 1508POPC   C1B21823  12.474  30.713   8.728
 1508POPC   C2B21824  12.455  30.535   8.319
 1508POPC   C3B21825  12.394  30.716   7.907
 1508POPC   C4B21826  12.637  30.594   7.553
 1509POPC   NC321827   5.013  40.223   9.555
 1509POPC   PO421828   5.495  40.384   9.151
 1509POPC   GL121829   5.161  40.020   9.087
 1509POPC   GL221830   4.819  40.014   9.117
 1509POPC   C1A21831   5.306  39.675   8.784
 1509POPC   D2A21832   5.365  39.720   8.318
 1509POPC   C3A21833   5.263  39.915   7.927
 1509POPC   C4A21834   5.170  40.131   7.542
 1509POPC   C1B21835   4.853  39.842   8.673
 1509POPC   C2B21836   4.823  39.828   8.202
 1509POPC   C3B21837   4.768  40.125   7.865
 1509POPC   C4B21838   4.696  40.214   7.401
 1510POPC   NC321839  13.133   4.993   9.820
 1510POPC   PO421840  12.527   5.133   9.567
 1510POPC   GL121841  12.736   4.832   9.256
 1510POPC   GL221842  12.895   5.058   9.149
 1510POPC   C1A21843  12.930   4.742   8.783
 1510POPC   D2A21844  12.790   4.896   8.389
 1510POPC   C3A21845  12.912   4.805   7.962
 1510POPC   C4A21846  12.747   4.963   7.591
 1510POPC   C1B21847  12.849   5.270   8.756
 1510POPC   C2B21848  13.037   5.467   8.422
 1510POPC   C3B21849  12.902   5.315   8.054
 1510POPC   C4B21850  12.944   5.450   7.670
 1511POPC   NC321851   1.009  15.724   9.528
 1511POPC   PO421852   1.332  16.290   9.422
 1511POPC   GL121853   1.390  15.911   9.173
 1511POPC   GL221854   1.712  15.753   9.118
 1511POPC   C1A21855   1.271  15.744   8.776
 1511POPC   D2A21856   0.904  15.826   8.543
 1511POPC   C3A21857   0.922  15.895   8.077
 1511POPC   C4A21858   0.993  15.595   7.753
 1511POPC   C1B21859   1.721  15.996   8.740
 1511POPC   C2B21860   1.486  15.968   8.343
 1511POPC   C3B21861   1.490  15.834   7.888
 1511POPC   C4B21862   1.575  16.187   7.597
 1512POPC   NC321863   3.540  31.351   9.556
 1512POPC   PO421864   3.046  31.070   9.218
 1512POPC   GL121865   3.422  31.411   9.069
 1512POPC   GL221866   3.751  31.550   9.118
 1512POPC   C1A21867   3.716  31.267   8.709
 1512POPC   D2A21868   3.672  31.065   8.276
 1512POPC   C3A21869   3.695  31.286   7.879
 1512POPC   C4A21870   3.566  31.313   7.424
 1512POPC   C1B21871   3.751  31.769   8.731
 1512POPC   C2B21872   3.543  31.799   8.358
 1512POPC   C3B21873   3.519  31.899   7.931
 1512POPC   C4B21874   3.786  31.719   7.640
 1513POPC   NC321875  35.139  10.643   9.584
 1513POPC   PO421876  35.779  11.005   9.475
 1513POPC   GL121877  35.451  10.820   9.216
 1513POPC   GL221878  35.550  10.529   9.095
 1513POPC   C1A21879  35.114  10.693   8.898
 1513POPC   D2A21880  35.287  10.650   8.475
 1513POPC   C3A21881  35.063  10.553   8.098
 1513POPC   C4A21882  35.181  10.463   7.677
 1513POPC   C1B21883  35.790  10.386   8.746
 1513POPC   C2B21884  35.786  10.550   8.372
 1513POPC   C3B21885  35.583  10.532   7.987
 1513POPC   C4B21886  35.755  10.457   7.583
 1514POPC   NC321887  13.007  16.669   9.621
 1514POPC   PO421888  12.302  16.509   9.549
 1514POPC   GL121889  12.633  16.558   9.242
 1514POPC   GL221890  12.786  16.880   9.217
 1514POPC   C1A21891  12.709  16.585   8.792
 1514POPC   D2A21892  12.390  16.648   8.462
 1514POPC   C3A21893  12.555  16.653   8.072
 1514POPC   C4A21894  12.643  16.883   7.710
 1514POPC   C1B21895  12.995  17.022   8.854
 1514POPC   C2B21896  13.146  16.894   8.455
 1514POPC   C3B21897  13.043  16.814   8.025
 1514POPC   C4B21898  13.101  17.127   7.690
 1515POPC   NC321899   6.696  40.918   9.338
 1515POPC   PO421900   6.698  41.491   9.691
 1515POPC   GL121901   6.609  41.454   9.245
 1515POPC   GL221902   6.882  41.661   9.088
 1515POPC   C1A21903   6.530  41.354   8.804
 1515POPC   D2A21904   6.735  41.336   8.390
 1515POPC   C3A21905   6.429  41.364   8.057
 1515POPC   C4A21906   6.530  41.319   7.645
 1515POPC   C1B21907   6.789  41.793   8.651
 1515POPC   C2B21908   6.765  41.827   8.221
 1515POPC   C3B21909   6.888  41.577   7.914
 1515POPC   C4B21910   6.820  41.704   7.489
 1516POPC   NC321911  41.166  13.244   9.742
 1516POPC   PO421912  40.570  13.411   9.456
 1516POPC   GL121913  40.631  13.613   9.073
 1516POPC   GL221914  40.427  13.923   9.062
 1516POPC   C1A21915  40.876  13.665   8.711
 1516POPC   D2A21916  40.757  13.616   8.292
 1516POPC   C3A21917  40.952  13.787   7.912
 1516POPC   C4A21918  40.902  13.369   7.704
 1516POPC   C1B21919  40.400  13.855   8.615
 1516POPC   C2B21920  40.360  13.896   8.157
 1516POPC   C3B21921  40.484  13.666   7.818
 1516POPC   C4B21922  40.595  13.710   7.426
 1517POPC   NC321923  36.442   6.589   9.482
 1517POPC   PO421924  35.869   6.251   9.372
 1517POPC   GL121925  36.119   6.531   9.056
 1517POPC   GL221926  36.410   6.791   9.014
 1517POPC   C1A21927  36.125   6.585   8.607
 1517POPC   D2A21928  36.231   6.352   8.253
 1517POPC   C3A21929  36.011   6.409   7.869
 1517POPC   C4A21930  35.762   6.734   7.876
 1517POPC   C1B21931  36.572   6.806   8.601
 1517POPC   C2B21932  36.329   6.918   8.231
 1517POPC   C3B21933  36.293   6.828   7.801
 1517POPC   C4B21934  36.469   6.873   7.357
 1518POPC   NC321935   0.288  35.903   9.378
 1518POPC   PO421936   0.611  36.492   9.526
 1518POPC   GL121937   0.471  36.307   9.113
 1518POPC   GL221938   0.617  36.008   8.984
 1518POPC   C1A21939   0.265  36.125   8.668
 1518POPC   D2A21940   0.289  35.872   8.284
 1518POPC   C3A21941   0.283  36.122   7.902
 1518POPC   C4A21942   0.302  36.175   7.436
 1518POPC   C1B21943   0.805  36.328   8.753
 1518POPC   C2B21944   0.737  36.158   8.381
 1518POPC   C3B21945   0.783  35.923   8.027
 1518POPC   C4B21946   0.756  36.153   7.676
 1519POPC   NC321947  14.691  28.021   9.476
 1519POPC   PO421948  14.040  28.114   9.547
 1519POPC   GL121949  14.305  28.375   9.246
 1519POPC   GL221950  14.651  28.508   9.291
 1519POPC   C1A21951  14.296  28.461   8.807
 1519POPC   D2A21952  14.131  28.480   8.365
 1519POPC   C3A21953  14.266  28.223   8.020
 1519POPC   C4A21954  14.038  28.359   7.656
 1519POPC   C1B21955  14.806  28.492   8.872
 1519POPC   C2B21956  14.666  28.373   8.461
 1519POPC   C3B21957  14.759  28.431   8.036
 1519POPC   C4B21958  14.814  28.077   7.741
 1520POPC   NC321959  23.106  17.092   9.549
 1520POPC   PO421960  22.697  16.544   9.529
 1520POPC   GL121961  22.978  16.548   9.170
 1520POPC   GL221962  22.963  16.893   9.117
 1520POPC   C1A21963  22.941  16.571   8.703
 1520POPC   D2A21964  22.687  16.574   8.325
 1520POPC   C3A21965  22.857  16.489   7.918
 1520POPC   C4A21966  22.811  16.307   7.516
 1520POPC   C1B21967  23.139  17.047   8.756
 1520POPC   C2B21968  22.992  16.984   8.339
 1520POPC   C3B21969  23.027  16.970   7.888
 1520POPC   C4B21970  23.112  17.125   7.461
 1521POPC   NC321971  31.183   7.908   9.495
 1521POPC   PO421972  30.699   8.348   9.485
 1521POPC   GL121973  30.750   8.203   9.138
 1521POPC   GL221974  30.760   7.872   9.221
 1521POPC   C1A21975  30.665   8.363   8.757
 1521POPC   D2A21976  30.536   8.490   8.346
 1521POPC   C3A21977  30.390   8.196   8.122
 1521POPC   C4A21978  30.707   8.171   7.819
 1521POPC   C1B21979  30.965   7.886   8.806
 1521POPC   C2B21980  30.805   8.029   8.404
 1521POPC   C3B21981  31.014   7.873   8.070
 1521POPC   C4B21982  31.182   8.027   7.696
 1522POPC   NC321983  24.216   4.275   9.921
 1522POPC   PO421984  24.661   3.981   9.526
 1522POPC   GL121985  24.364   4.113   9.162
 1522POPC   GL221986  24.668   4.191   8.879
 1522POPC   C1A21987  24.264   4.462   8.847
 1522POPC   D2A21988  24.376   4.303   8.433
 1522POPC   C3A21989  24.473   4.062   8.063
 1522POPC   C4A21990  24.320   4.130   7.653
 1522POPC   C1B21991  24.737   4.635   8.700
 1522POPC   C2B21992  24.550   4.771   8.314
 1522POPC   C3B21993  24.538   4.560   7.937
 1522POPC   C4B21994  24.847   4.804   7.732
 1523POPC   NC321995   8.530  33.682   9.725
 1523POPC   PO421996   7.922  34.057   9.861
 1523POPC   GL121997   8.036  33.811   9.417
 1523POPC   GL221998   8.361  33.800   9.257
 1523POPC   C1A21999   7.976  33.745   8.926
 1523POPC   D2A22000   8.181  33.736   8.447
 1523POPC   C3A22001   8.063  33.748   7.968
 1523POPC   C4A22002   7.886  33.865   7.531
 1523POPC   C1B22003   8.511  33.737   8.846
 1523POPC   C2B22004   8.675  33.497   8.519
 1523POPC   C3B22005   8.482  33.438   8.118
 1523POPC   C4B22006   8.532  33.719   7.748
 1524POPC   NC322007   2.359  10.248   9.339
 1524POPC   PO422008   1.786  10.609   9.606
 1524POPC   GL122009   1.975  10.654   9.196
 1524POPC   GL222010   1.900  10.984   9.004
 1524POPC   C1A22011   1.991  10.503   8.779
 1524POPC   D2A22012   1.718  10.371   8.427
 1524POPC   C3A22013   1.911  10.272   8.030
 1524POPC   C4A22014   1.726  10.231   7.649
 1524POPC   C1B22015   2.259  10.946   8.733
 1524POPC   C2B22016   2.220  10.730   8.371
 1524POPC   C3B22017   1.975  10.783   8.011
 1524POPC   C4B22018   2.175  10.677   7.643
 1525POPC   NC322019  42.438   2.625   9.491
 1525POPC   PO422020  42.206   3.265   9.402
 1525POPC   GL122021  42.311   2.995   9.114
 1525POPC   GL222022  42.058   2.786   9.150
 1525POPC   C1A22023  42.311   2.912   8.689
 1525POPC   D2A22024  42.508   2.702   8.366
 1525POPC   C3A22025  42.385   2.818   7.961
 1525POPC   C4A22026  42.671   2.592   7.716
 1525POPC   C1B22027  41.873   2.600   8.805
 1525POPC   C2B22028  41.983   2.655   8.378
 1525POPC   C3B22029  41.989   2.452   7.998
 1525POPC   C4B22030  42.172   2.511   7.581
 1526POPC   NC322031  43.868  22.745   9.635
 1526POPC   PO422032  43.494  23.212   9.332
 1526POPC   GL122033  43.811  22.926   9.112
 1526POPC   GL222034  44.175  23.035   9.156
 1526POPC   C1A22035  44.020  22.807   8.691
 1526POPC   D2A22036  43.895  22.582   8.305
 1526POPC   C3A22037  43.799  22.848   7.971
 1526POPC   C4A22038  43.574  22.984   7.631
 1526POPC   C1B22039  44.177  23.299   8.750
 1526POPC   C2B22040  43.986  23.228   8.318
 1526POPC   C3B22041  43.852  23.361   7.886
 1526POPC   C4B22042  44.140  23.328   7.516
 1527POPC   NC322043  33.785   2.517   9.605
 1527POPC   PO422044  34.028   3.133   9.710
 1527POPC   GL122045  33.980   2.953   9.266
 1527POPC   GL222046  33.693   2.760   9.188
 1527POPC   C1A22047  34.024   2.793   8.821
 1527POPC   D2A22048  33.944   2.735   8.407
 1527POPC   C3A22049  34.105   2.680   8.015
 1527POPC   C4A22050  33.977   2.993   7.761
 1527POPC   C1B22051  33.562   2.580   8.837
 1527POPC   C2B22052  33.440   2.761   8.450
 1527POPC   C3B22053  33.563   2.751   8.029
 1527POPC   C4B22054  33.453   3.088   7.758
 1528POPC   NC322055  32.658   9.602   9.452
 1528POPC   PO422056  33.061  10.154   9.383
 1528POPC   GL122057  32.843   9.922   9.102
 1528POPC   GL222058  33.074   9.619   9.116
 1528POPC   C1A22059  32.884   9.856   8.694
 1528POPC   D2A22060  33.121   9.614   8.411
 1528POPC   C3A22061  33.215   9.841   8.055
 1528POPC   C4A22062  32.860   9.710   7.857
 1528POPC   C1B22063  33.287   9.321   8.798
 1528POPC   C2B22064  33.314   9.128   8.394
 1528POPC   C3B22065  33.287   9.329   8.000
 1528POPC   C4B22066  33.293   9.587   7.614
 1529POPC   NC322067  41.385  23.950   9.574
 1529POPC   PO422068  41.507  23.394   9.360
 1529POPC   GL122069  41.536  23.796   9.114
 1529POPC   GL222070  41.277  24.111   9.116
 1529POPC   C1A22071  41.677  23.757   8.683
 1529POPC   D2A22072  41.677  23.480   8.327
 1529POPC   C3A22073  41.681  23.716   7.951
 1529POPC   C4A22074  42.019  23.933   7.786
 1529POPC   C1B22075  41.193  23.844   8.764
 1529POPC   C2B22076  41.318  23.874   8.335
 1529POPC   C3B22077  41.209  23.881   7.916
 1529POPC   C4B22078  41.320  23.659   7.557
 1530POPC   NC322079  41.004  29.673   9.368
 1530POPC   PO422080  40.508  30.117   9.453
 1530POPC   GL122081  40.745  30.051   9.070
 1530POPC   GL222082  40.714  29.705   8.922
 1530POPC   C1A22083  40.683  30.153   8.635
 1530POPC   D2A22084  40.576  29.776   8.376
 1530POPC   C3A22085  40.544  29.814   7.929
 1530POPC   C4A22086  40.561  30.105   7.596
 1530POPC   C1B22087  41.042  29.788   8.585
 1530POPC   C2B22088  41.103  30.164   8.343
 1530POPC   C3B22089  40.884  30.188   7.991
 1530POPC   C4B22090  41.007  29.846   7.709
 1531POPC   NC322091  35.849   3.927   9.283
 1531POPC   PO422092  36.298   3.539   9.631
 1531POPC   GL122093  36.151   3.286   9.177
 1531POPC   GL222094  35.844   3.445   9.045
 1531POPC   C1A22095  36.211   3.298   8.707
 1531POPC   D2A22096  35.992   3.315   8.332
 1531POPC   C3A22097  36.146   3.431   7.950
 1531POPC   C4A22098  35.878   3.520   7.617
 1531POPC   C1B22099  35.856   3.698   8.645
 1531POPC   C2B22100  36.225   3.788   8.427
 1531POPC   C3B22101  36.243   3.937   8.050
 1531POPC   C4B22102  36.356   3.808   7.676
 1532POPC   NC322103  28.738  34.519   9.480
 1532POPC   PO422104  28.340  35.034   9.477
 1532POPC   GL122105  28.456  34.818   9.133
 1532POPC   GL222106  28.101  34.799   9.073
 1532POPC   C1A22107  28.567  34.743   8.694
 1532POPC   D2A22108  28.333  34.498   8.385
 1532POPC   C3A22109  28.479  34.474   7.952
 1532POPC   C4A22110  28.778  34.192   7.798
 1532POPC   C1B22111  28.132  35.022   8.704
 1532POPC   C2B22112  28.324  34.988   8.263
 1532POPC   C3B22113  28.105  34.792   7.886
 1532POPC   C4B22114  28.119  34.740   7.420
 1533POPC   NC322115  43.694  15.801   9.564
 1533POPC   PO422116  44.202  16.309   9.582
 1533POPC   GL122117  43.892  16.239   9.224
 1533POPC   GL222118  43.650  15.958   9.094
 1533POPC   C1A22119  44.014  16.102   8.788
 1533POPC   D2A22120  43.867  15.849   8.419
 1533POPC   C3A22121  43.885  16.104   8.050
 1533POPC   C4A22122  43.986  16.063   7.602
 1533POPC   C1B22123  43.490  16.073   8.695
 1533POPC   C2B22124  43.338  15.794   8.377
 1533POPC   C3B22125  43.478  15.692   7.975
 1533POPC   C4B22126  43.494  16.042   7.731
 1534POPC   NC322127   9.580  27.030   9.669
 1534POPC   PO422128   9.919  26.541   9.345
 1534POPC   GL122129   9.635  26.800   9.164
 1534POPC   GL222130   9.854  27.030   8.999
 1534POPC   C1A22131   9.535  26.760   8.733
 1534POPC   D2A22132   9.684  26.971   8.378
 1534POPC   C3A22133   9.490  26.845   8.004
 1534POPC   C4A22134   9.622  26.781   7.607
 1534POPC   C1B22135  10.042  26.711   8.699
 1534POPC   C2B22136  10.024  26.591   8.249
 1534POPC   C3B22137  10.039  26.866   7.875
 1534POPC   C4B22138  10.081  26.828   7.385
 1535POPC   NC322139   2.060   3.421   9.529
 1535POPC   PO422140   1.804   3.991   9.548
 1535POPC   GL122141   1.642   3.791   9.154
 1535POPC   GL222142   1.586   3.404   9.229
 1535POPC   C1A22143   1.924   3.690   8.786
 1535POPC   D2A22144   2.116   3.832   8.382
 1535POPC   C3A22145   2.190   3.450   8.162
 1535POPC   C4A22146   2.138   3.296   7.751
 1535POPC   C1B22147   1.491   3.406   8.778
 1535POPC   C2B22148   1.671   3.456   8.357
 1535POPC   C3B22149   1.708   3.553   7.884
 1535POPC   C4B22150   1.783   3.449   7.388
 1536POPC   NC322151   1.499  34.809   9.418
 1536POPC   PO422152   1.068  34.335   9.566
 1536POPC   GL122153   1.138  34.322   9.141
 1536POPC   GL222154   1.493  34.361   9.169
 1536POPC   C1A22155   0.922  34.468   8.766
 1536POPC   D2A22156   0.749  34.479   8.356
 1536POPC   C3A22157   1.062  34.535   8.057
 1536POPC   C4A22158   1.134  34.247   7.670
 1536POPC   C1B22159   1.398  34.610   8.777
 1536POPC   C2B22160   1.525  34.671   8.327
 1536POPC   C3B22161   1.507  34.614   7.864
 1536POPC   C4B22162   1.464  34.957   7.577
 1537POPC   NC322163  14.923  33.076   9.619
 1537POPC   PO422164  14.227  32.999   9.693
 1537POPC   GL122165  14.397  32.974   9.267
 1537POPC   GL222166  14.494  33.305   9.243
 1537POPC   C1A22167  14.299  32.814   8.839
 1537POPC   D2A22168  14.124  32.791   8.413
 1537POPC   C3A22169  14.274  32.830   7.975
 1537POPC   C4A22170  14.326  32.724   7.498
 1537POPC   C1B22171  14.270  33.325   8.860
 1537POPC   C2B22172  14.382  33.291   8.417
 1537POPC   C3B22173  14.231  33.343   8.004
 1537POPC   C4B22174  14.126  33.178   7.610
 1538POPC   NC322175  34.168   4.179   9.462
 1538POPC   PO422176  34.783   4.386   9.523
 1538POPC   GL122177  34.602   4.341   9.122
 1538POPC   GL222178  34.654   3.968   9.075
 1538POPC   C1A22179  34.539   4.340   8.665
 1538POPC   D2A22180  34.402   4.226   8.243
 1538POPC   C3A22181  34.487   4.412   7.823
 1538POPC   C4A22182  34.456   4.523   7.376
 1538POPC   C1B22183  34.344   3.858   8.740
 1538POPC   C2B22184  34.139   3.704   8.368
 1538POPC   C3B22185  34.069   3.921   8.003
 1538POPC   C4B22186  34.186   3.818   7.641
 1539POPC   NC322187  35.415  20.341   9.712
 1539POPC   PO422188  35.364  19.620   9.576
 1539POPC   GL122189  35.515  19.710   9.130
 1539POPC   GL222190  35.209  19.872   8.945
 1539POPC   C1A22191  35.675  19.938   8.750
 1539POPC   D2A22192  35.469  19.984   8.378
 1539POPC   C3A22193  35.654  19.854   8.026
 1539POPC   C4A22194  35.464  19.923   7.699
 1539POPC   C1B22195  35.295  19.582   8.682
 1539POPC   C2B22196  35.202  19.442   8.326
 1539POPC   C3B22197  35.185  19.615   7.973
 1539POPC   C4B22198  35.273  19.477   7.574
 1540POPC   NC322199  31.398  28.712   9.793
 1540POPC   PO422200  31.143  28.220   9.410
 1540POPC   GL122201  31.241  28.369   9.000
 1540POPC   GL222202  31.561  28.401   9.099
 1540POPC   C1A22203  31.248  28.400   8.535
 1540POPC   D2A22204  31.630  28.410   8.253
 1540POPC   C3A22205  31.605  28.167   7.910
 1540POPC   C4A22206  31.163  28.163   7.831
 1540POPC   C1B22207  31.717  28.566   8.726
 1540POPC   C2B22208  32.014  28.735   8.440
 1540POPC   C3B22209  31.871  28.870   8.052
 1540POPC   C4B22210  31.659  28.653   7.754
 1541POPC   NC322211  24.734  12.246   9.443
 1541POPC   PO422212  24.199  11.907   9.289
 1541POPC   GL122213  24.535  12.001   9.034
 1541POPC   GL222214  24.869  11.829   9.122
 1541POPC   C1A22215  24.629  12.277   8.668
 1541POPC   D2A22216  24.649  12.436   8.220
 1541POPC   C3A22217  24.454  12.235   7.872
 1541POPC   C4A22218  24.121  11.888   7.842
 1541POPC   C1B22219  24.735  11.748   8.661
 1541POPC   C2B22220  24.548  11.918   8.282
 1541POPC   C3B22221  24.625  11.765   7.873
 1541POPC   C4B22222  24.752  11.724   7.451
 1542POPC   NC322223  17.020  38.001   9.628
 1542POPC   PO422224  16.505  38.486   9.580
 1542POPC   GL122225  16.714  38.434   9.219
 1542POPC   GL222226  16.530  38.180   9.060
 1542POPC   C1A22227  16.685  38.596   8.803
 1542POPC   D2A22228  16.487  38.553   8.413
 1542POPC   C3A22229  16.817  38.547   8.159
 1542POPC   C4A22230  16.804  38.861   7.878
 1542POPC   C1B22231  16.477  38.064   8.626
 1542POPC   C2B22232  16.536  38.038   8.191
 1542POPC   C3B22233  16.612  38.238   7.828
 1542POPC   C4B22234  16.921  38.443   7.586
 1543POPC   NC322235  10.773   4.581   9.744
 1543POPC   PO422236  10.480   3.926   9.601
 1543POPC   GL122237  10.475   4.131   9.204
 1543POPC   GL222238  10.812   4.017   9.161
 1543POPC   C1A22239  10.365   4.365   8.801
 1543POPC   D2A22240  10.540   4.574   8.422
 1543POPC   C3A22241  10.502   4.386   8.017
 1543POPC   C4A22242  10.179   4.483   7.730
 1543POPC   C1B22243  10.823   4.022   8.715
 1543POPC   C2B22244  10.851   4.100   8.285
 1543POPC   C3B22245  10.895   4.018   7.871
 1543POPC   C4B22246  10.924   3.971   7.416
 1544POPC   NC322247  20.143   3.231   9.332
 1544POPC   PO422248  19.531   3.581   9.575
 1544POPC   GL122249  19.762   3.536   9.189
 1544POPC   GL222250  19.644   3.182   9.181
 1544POPC   C1A22251  19.677   3.725   8.778
 1544POPC   D2A22252  19.744   3.925   8.388
 1544POPC   C3A22253  19.861   3.619   8.058
 1544POPC   C4A22254  19.573   3.585   7.719
 1544POPC   C1B22255  19.859   3.243   8.746
 1544POPC   C2B22256  20.157   3.090   8.425
 1544POPC   C3B22257  20.190   3.141   7.983
 1544POPC   C4B22258  20.037   3.383   7.614
 1545POPC   NC322259  15.312  16.110   9.238
 1545POPC   PO422260  15.339  16.760   9.496
 1545POPC   GL122261  15.179  16.659   9.089
 1545POPC   GL222262  15.323  16.938   8.982
 1545POPC   C1A22263  14.924  16.882   8.696
 1545POPC   D2A22264  15.040  17.148   8.296
 1545POPC   C3A22265  15.038  16.879   7.934
 1545POPC   C4A22266  14.965  16.681   7.533
 1545POPC   C1B22267  15.372  16.647   8.613
 1545POPC   C2B22268  15.320  16.537   8.189
 1545POPC   C3B22269  15.437  16.600   7.764
 1545POPC   C4B22270  15.415  16.547   7.319
 1546POPC   NC322271   1.608   8.377   9.825
 1546POPC   PO422272   2.277   8.436   9.658
 1546POPC   GL122273   2.247   8.450   9.179
 1546POPC   GL222274   1.884   8.338   9.097
 1546POPC   C1A22275   2.198   8.389   8.718
 1546POPC   D2A22276   1.986   8.267   8.343
 1546POPC   C3A22277   2.233   8.205   7.986
 1546POPC   C4A22278   2.087   8.275   7.586
 1546POPC   C1B22279   1.636   8.127   8.718
 1546POPC   C2B22280   1.501   8.139   8.245
 1546POPC   C3B22281   1.774   7.977   7.857
 1546POPC   C4B22282   1.748   7.990   7.365
 1547POPC   NC322283  21.857  22.336   9.536
 1547POPC   PO422284  21.520  21.761   9.574
 1547POPC   GL122285  21.784  22.033   9.142
 1547POPC   GL222286  22.135  22.296   9.137
 1547POPC   C1A22287  22.141  21.943   8.798
 1547POPC   D2A22288  22.050  22.023   8.368
 1547POPC   C3A22289  22.314  21.952   8.027
 1547POPC   C4A22290  22.185  21.937   7.598
 1547POPC   C1B22291  21.945  22.402   8.754
 1547POPC   C2B22292  22.006  22.548   8.356
 1547POPC   C3B22293  22.005  22.363   7.950
 1547POPC   C4B22294  21.865  22.326   7.536
 1548POPC   NC322295   4.490  14.137   9.544
 1548POPC   PO422296   4.218  14.694   9.836
 1548POPC   GL122297   4.208  14.647   9.350
 1548POPC   GL222298   4.097  14.322   9.183
 1548POPC   C1A22299   4.330  14.716   8.910
 1548POPC   D2A22300   4.214  14.573   8.478
 1548POPC   C3A22301   4.403  14.646   8.078
 1548POPC   C4A22302   4.242  14.645   7.629
 1548POPC   C1B22303   4.488  14.240   8.905
 1548POPC   C2B22304   4.653  14.362   8.499
 1548POPC   C3B22305   4.537  14.158   8.127
 1548POPC   C4B22306   4.522  14.260   7.740
 1549POPC   NC322307   6.638  40.261   9.701
 1549POPC   PO422308   6.263  40.656   9.339
 1549POPC   GL122309   6.400  40.488   9.000
 1549POPC   GL222310   6.725  40.521   9.045
 1549POPC   C1A22311   6.477  40.554   8.575
 1549POPC   D2A22312   6.472  40.902   8.295
 1549POPC   C3A22313   6.571  40.836   7.860
 1549POPC   C4A22314   6.415  40.463   7.612
 1549POPC   C1B22315   6.946  40.635   8.725
 1549POPC   C2B22316   6.989  40.674   8.297
 1549POPC   C3B22317   6.932  40.478   7.887
 1549POPC   C4B22318   6.895  40.533   7.426
 1550POPC   NC322319  11.584  35.117   9.353
 1550POPC   PO422320  11.131  35.575   9.428
 1550POPC   GL122321  11.372  35.496   9.083
 1550POPC   GL222322  11.717  35.627   9.148
 1550POPC   C1A22323  11.227  35.250   8.747
 1550POPC   D2A22324  10.938  35.294   8.416
 1550POPC   C3A22325  11.128  35.141   8.047
 1550POPC   C4A22326  11.260  35.308   7.676
 1550POPC   C1B22327  11.752  35.452   8.713
 1550POPC   C2B22328  11.565  35.207   8.354
 1550POPC   C3B22329  11.675  35.146   7.938
 1550POPC   C4B22330  11.756  35.431   7.624
 1551POPC   NC322331   8.659  43.815   9.590
 1551POPC   PO422332   9.263  43.743   9.620
 1551POPC   GL122333   9.070  43.872   9.221
 1551POPC   GL222334   8.792  44.118   9.195
 1551POPC   C1A22335   9.075  44.008   8.778
 1551POPC   D2A22336   9.206  44.156   8.376
 1551POPC   C3A22337   9.053  43.892   8.020
 1551POPC   C4A22338   9.177  44.050   7.632
 1551POPC   C1B22339   8.589  43.891   8.874
 1551POPC   C2B22340   8.671  43.929   8.437
 1551POPC   C3B22341   8.537  44.026   8.038
 1551POPC   C4B22342   8.681  44.063   7.627
 1552POPC   NC322343  12.560  25.954   9.381
 1552POPC   PO422344  13.139  26.149   9.553
 1552POPC   GL122345  13.038  26.258   9.111
 1552POPC   GL222346  12.698  26.359   9.067
 1552POPC   C1A22347  12.947  26.031   8.685
 1552POPC   D2A22348  12.940  25.784   8.296
 1552POPC   C3A22349  12.989  25.977   7.892
 1552POPC   C4A22350  12.889  26.157   7.467
 1552POPC   C1B22351  12.561  26.340   8.636
 1552POPC   C2B22352  12.635  26.205   8.214
 1552POPC   C3B22353  12.566  26.351   7.798
 1552POPC   C4B22354  12.385  26.421   7.363
 1553POPC   NC322355  13.960   3.300   9.792
 1553POPC   PO422356  13.743   3.860   9.532
 1553POPC   GL122357  13.620   3.547   9.262
 1553POPC   GL222358  13.295   3.667   9.211
 1553POPC   C1A22359  13.676   3.264   8.886
 1553POPC   D2A22360  13.767   3.078   8.475
 1553POPC   C3A22361  13.735   3.422   8.194
 1553POPC   C4A22362  13.590   3.404   7.781
 1553POPC   C1B22363  13.518   3.754   8.794
 1553POPC   C2B22364  13.486   3.943   8.377
 1553POPC   C3B22365  13.657   3.888   7.956
 1553POPC   C4B22366  14.036   3.942   7.676
 1554POPC   NC322367  33.005   3.000   9.480
 1554POPC   PO422368  33.304   2.369   9.533
 1554POPC   GL122369  33.191   2.621   9.185
 1554POPC   GL222370  32.849   2.609   9.115
 1554POPC   C1A22371  33.140   2.913   8.834
 1554POPC   D2A22372  32.880   3.004   8.498
 1554POPC   C3A22373  33.054   2.860   8.133
 1554POPC   C4A22374  32.916   2.892   7.766
 1554POPC   C1B22375  32.629   2.408   8.782
 1554POPC   C2B22376  32.721   2.540   8.357
 1554POPC   C3B22377  32.716   2.436   7.917
 1554POPC   C4B22378  32.800   2.525   7.436
 1555POPC   NC322379  27.392  44.551   9.563
 1555POPC   PO422380  26.708  44.696   9.562
 1555POPC   GL122381  26.809  44.848   9.150
 1555POPC   GL222382  27.181  44.861   9.168
 1555POPC   C1A22383  26.655  44.808   8.706
 1555POPC   D2A22384  26.704  44.436   8.374
 1555POPC   C3A22385  26.658  44.626   7.916
 1555POPC   C4A22386  26.351  44.881   7.670
 1555POPC   C1B22387  27.132  44.646   8.741
 1555POPC   C2B22388  27.015  44.829   8.332
 1555POPC   C3B22389  27.134  44.760   7.915
 1555POPC   C4B22390  27.189  44.462   7.559
 1556POPC   NC322391  42.266  34.987   9.548
 1556POPC   PO422392  42.556  35.602   9.548
 1556POPC   GL122393  42.347  35.363   9.171
 1556POPC   GL222394  41.971  35.350   9.225
 1556POPC   C1A22395  42.357  35.156   8.721
 1556POPC   D2A22396  42.218  35.265   8.273
 1556POPC   C3A22397  42.488  35.492   7.979
 1556POPC   C4A22398  42.710  35.342   7.650
 1556POPC   C1B22399  41.958  35.466   8.777
 1556POPC   C2B22400  41.727  35.652   8.422
 1556POPC   C3B22401  41.738  35.464   8.026
 1556POPC   C4B22402  42.075  35.262   7.765
 1557POPC   NC322403   5.617  20.729   9.477
 1557POPC   PO422404   6.193  20.390   9.391
 1557POPC   GL122405   6.134  20.609   9.001
 1557POPC   GL222406   5.809  20.583   9.045
 1557POPC   C1A22407   5.973  20.902   8.669
 1557POPC   D2A22408   5.709  20.891   8.296
 1557POPC   C3A22409   5.937  20.663   8.027
 1557POPC   C4A22410   6.309  20.519   7.847
 1557POPC   C1B22411   5.563  20.597   8.701
 1557POPC   C2B22412   5.581  20.362   8.312
 1557POPC   C3B22413   5.438  20.527   7.952
 1557POPC   C4B22414   5.520  20.914   7.804
 1558POPC   NC322415  38.568  20.497   9.608
 1558POPC   PO422416  37.944  20.682   9.460
 1558POPC   GL122417  38.285  20.420   9.182
 1558POPC   GL222418  38.658  20.219   9.196
 1558POPC   C1A22419  38.551  20.554   8.824
 1558POPC   D2A22420  38.627  20.873   8.512
 1558POPC   C3A22421  38.615  20.757   8.099
 1558POPC   C4A22422  38.324  20.813   7.805
 1558POPC   C1B22423  38.884  20.176   8.787
 1558POPC   C2B22424  38.837  20.370   8.403
 1558POPC   C3B22425  38.820  20.273   7.992
 1558POPC   C4B22426  38.440  20.322   7.797
 1559POPC   NC322427  12.036  15.393   9.502
 1559POPC   PO422428  12.181  14.761   9.503
 1559POPC   GL122429  12.014  14.995   9.137
 1559POPC   GL222430  11.813  15.300   9.073
 1559POPC   C1A22431  12.090  15.112   8.691
 1559POPC   D2A22432  12.212  15.447   8.370
 1559POPC   C3A22433  12.441  15.262   8.049
 1559POPC   C4A22434  12.192  15.014   7.769
 1559POPC   C1B22435  11.751  15.516   8.760
 1559POPC   C2B22436  11.697  15.364   8.383
 1559POPC   C3B22437  11.862  15.386   7.983
 1559POPC   C4B22438  11.674  15.067   7.778
 1560POPC   NC322439   0.915  34.815   9.701
 1560POPC   PO422440   0.360  34.406   9.548
 1560POPC   GL122441   0.629  34.524   9.198
 1560POPC   GL222442   0.925  34.784   9.183
 1560POPC   C1A22443   0.422  34.438   8.789
 1560POPC   D2A22444   0.273  34.226   8.420
 1560POPC   C3A22445   0.313  34.442   8.047
 1560POPC   C4A22446   0.652  34.468   7.797
 1560POPC   C1B22447   0.627  34.914   8.843
 1560POPC   C2B22448   0.412  34.840   8.443
 1560POPC   C3B22449   0.611  34.911   8.057
 1560POPC   C4B22450   0.598  34.967   7.625
 1561POPC   NC322451  32.165  34.372   9.505
 1561POPC   PO422452  32.055  34.977   9.705
 1561POPC   GL122453  32.324  34.783   9.253
 1561POPC   GL222454  32.119  34.525   9.033
 1561POPC   C1A22455  32.564  34.564   8.856
 1561POPC   D2A22456  32.368  34.505   8.419
 1561POPC   C3A22457  32.472  34.729   8.017
 1561POPC   C4A22458  32.406  34.639   7.557
 1561POPC   C1B22459  31.892  34.550   8.635
 1561POPC   C2B22460  31.904  34.701   8.223
 1561POPC   C3B22461  32.018  34.500   7.859
 1561POPC   C4B22462  31.900  34.550   7.442
 1562POPC   NC322463  39.698  18.048   9.178
 1562POPC   PO422464  40.232  18.398   9.433
 1562POPC   GL122465  40.015  18.426   9.059
 1562POPC   GL222466  40.193  18.109   9.027
 1562POPC   C1A22467  39.620  18.489   8.714
 1562POPC   D2A22468  39.587  18.679   8.294
 1562POPC   C3A22469  39.809  18.428   8.029
 1562POPC   C4A22470  39.708  18.055   7.779
 1562POPC   C1B22471  40.009  18.133   8.629
 1562POPC   C2B22472  39.892  17.965   8.262
 1562POPC   C3B22473  40.188  18.089   7.971
 1562POPC   C4B22474  40.483  17.964   7.720
 1563POPC   NC322475   7.951  24.150   9.329
 1563POPC   PO422476   7.302  24.254   9.564
 1563POPC   GL122477   7.237  24.426   9.158
 1563POPC   GL222478   7.577  24.469   9.085
 1563POPC   C1A22479   7.091  24.502   8.744
 1563POPC   D2A22480   7.106  24.711   8.367
 1563POPC   C3A22481   7.103  24.410   8.001
 1563POPC   C4A22482   7.376  24.417   7.660
 1563POPC   C1B22483   7.538  24.208   8.722
 1563POPC   C2B22484   7.526  24.302   8.281
 1563POPC   C3B22485   7.851  24.433   7.989
 1563POPC   C4B22486   7.925  24.272   7.584
 1564POPC   NC322487  31.956   0.710   9.351
 1564POPC   PO422488  31.771   0.089   9.301
 1564POPC   GL122489  32.163   0.295   9.102
 1564POPC   GL222490  32.522   0.227   9.243
 1564POPC   C1A22491  32.352   0.569   8.767
 1564POPC   D2A22492  32.421   0.661   8.320
 1564POPC   C3A22493  32.157   0.414   8.019
 1564POPC   C4A22494  32.078   0.433   7.577
 1564POPC   C1B22495  32.520   0.032   8.828
 1564POPC   C2B22496  32.399   0.143   8.405
 1564POPC   C3B22497  32.652   0.274   8.035
 1564POPC   C4B22498  32.714   0.084   7.642
 1565POPC   NC322499   9.368  21.192   9.497
 1565POPC   PO422500   9.950  21.603   9.528
 1565POPC   GL122501   9.766  21.669   9.152
 1565POPC   GL222502   9.460  21.574   9.146
 1565POPC   C1A22503   9.781  21.478   8.741
 1565POPC   D2A22504   9.833  21.205   8.408
 1565POPC   C3A22505  10.093  21.324   8.096
 1565POPC   C4A22506   9.794  21.252   7.778
 1565POPC   C1B22507   9.270  21.531   8.778
 1565POPC   C2B22508   9.296  21.458   8.372
 1565POPC   C3B22509   9.585  21.614   8.086
 1565POPC   C4B22510   9.351  21.717   7.736
 1566POPC   NC322511  42.869  28.365   9.497
 1566POPC   PO422512  42.233  28.319   9.568
 1566POPC   GL122513  42.342  28.359   9.154
 1566POPC   GL222514  42.062  28.641   9.186
 1566POPC   C1A22515  42.528  28.234   8.710
 1566POPC   D2A22516  42.676  28.114   8.266
 1566POPC   C3A22517  42.410  28.151   7.899
 1566POPC   C4A22518  42.514  28.276   7.455
 1566POPC   C1B22519  42.213  28.662   8.776
 1566POPC   C2B22520  42.044  28.852   8.452
 1566POPC   C3B22521  42.042  28.769   8.052
 1566POPC   C4B22522  42.232  28.615   7.716
 1567POPC   NC322523  33.068  20.416   9.766
 1567POPC   PO422524  33.357  20.982   9.561
 1567POPC   GL122525  33.250  20.848   9.130
 1567POPC   GL222526  33.075  20.544   9.227
 1567POPC   C1A22527  32.920  20.736   8.780
 1567POPC   D2A22528  32.761  20.667   8.385
 1567POPC   C3A22529  32.775  20.498   8.001
 1567POPC   C4A22530  32.930  20.688   7.708
 1567POPC   C1B22531  33.319  20.433   8.832
 1567POPC   C2B22532  33.303  20.605   8.431
 1567POPC   C3B22533  33.295  20.469   8.010
 1567POPC   C4B22534  33.440  20.732   7.690
 1568POPC   NC322535  21.090  21.453   9.503
 1568POPC   PO422536  20.413  21.100   9.548
 1568POPC   GL122537  20.583  21.374   9.235
 1568POPC   GL222538  20.257  21.339   9.122
 1568POPC   C1A22539  20.795  21.363   8.823
 1568POPC   D2A22540  20.854  21.115   8.424
 1568POPC   C3A22541  20.845  21.323   8.029
 1568POPC   C4A22542  20.931  21.580   7.673
 1568POPC   C1B22543  20.271  21.481   8.717
 1568POPC   C2B22544  20.418  21.394   8.329
 1568POPC   C3B22545  20.230  21.485   7.964
 1568POPC   C4B22546  20.192  21.562   7.555
 1569POPC   NC322547  35.756  39.729   9.320
 1569POPC   PO422548  35.043  39.850   9.512
 1569POPC   GL122549  35.267  39.749   9.142
 1569POPC   GL222550  35.441  40.086   9.109
 1569POPC   C1A22551  35.482  39.751   8.727
 1569POPC   D2A22552  35.515  40.035   8.350
 1569POPC   C3A22553  35.263  39.854   8.019
 1569POPC   C4A22554  34.861  39.718   7.891
 1569POPC   C1B22555  35.196  40.177   8.740
 1569POPC   C2B22556  35.112  40.361   8.362
 1569POPC   C3B22557  35.214  40.349   7.945
 1569POPC   C4B22558  35.638  40.219   7.864
 1570POPC   NC322559   8.844  38.333   9.651
 1570POPC   PO422560   8.643  38.898   9.607
 1570POPC   GL122561   9.009  38.715   9.321
 1570POPC   GL222562   8.976  38.369   9.145
 1570POPC   C1A22563   9.207  38.800   8.908
 1570POPC   D2A22564   9.298  38.491   8.572
 1570POPC   C3A22565   9.140  38.539   8.158
 1570POPC   C4A22566   8.743  38.637   7.912
 1570POPC   C1B22567   9.181  38.081   8.834
 1570POPC   C2B22568   9.325  38.013   8.366
 1570POPC   C3B22569   9.375  38.150   7.909
 1570POPC   C4B22570   9.302  38.059   7.436
 1571POPC   NC322571  39.537  19.539   9.519
 1571POPC   PO422572  39.915  20.113   9.473
 1571POPC   GL122573  39.916  19.987   9.060
 1571POPC   GL222574  39.883  19.646   9.146
 1571POPC   C1A22575  40.075  19.973   8.626
 1571POPC   D2A22576  39.930  20.016   8.223
 1571POPC   C3A22577  40.234  19.941   7.892
 1571POPC   C4A22578  39.861  20.047   7.696
 1571POPC   C1B22579  39.737  19.628   8.734
 1571POPC   C2B22580  39.930  19.521   8.381
 1571POPC   C3B22581  39.879  19.565   7.960
 1571POPC   C4B22582  40.187  19.496   7.642
 1572POPC   NC322583  11.712  39.520   9.496
 1572POPC   PO422584  11.941  38.898   9.639
 1572POPC   GL122585  11.830  39.057   9.239
 1572POPC   GL222586  12.097  39.284   9.204
 1572POPC   C1A22587  11.732  39.101   8.807
 1572POPC   D2A22588  11.947  38.989   8.421
 1572POPC   C3A22589  11.944  39.201   8.033
 1572POPC   C4A22590  12.253  38.963   7.821
 1572POPC   C1B22591  12.255  39.149   8.799
 1572POPC   C2B22592  12.257  39.398   8.422
 1572POPC   C3B22593  12.438  39.428   8.016
 1572POPC   C4B22594  12.315  39.539   7.625
 1573POPC   NC322595  44.719  22.486   9.637
 1573POPC   PO422596  44.784  21.861   9.701
 1573POPC   GL122597  44.760  22.128   9.276
 1573POPC   GL222598   0.015  22.401   9.235
 1573POPC   C1A22599  44.599  22.098   8.824
 1573POPC   D2A22600  44.593  22.224   8.378
 1573POPC   C3A22601  44.552  21.911   8.024
 1573POPC   C4A22602  44.347  22.086   7.658
 1573POPC   C1B22603   0.128  22.172   8.852
 1573POPC   C2B22604  44.999  21.934   8.485
 1573POPC   C3B22605   0.039  22.101   8.082
 1573POPC   C4B22606  44.963  22.482   7.871
 1574POPC   NC322607   5.976  39.645   9.328
 1574POPC   PO422608   5.516  40.030   9.564
 1574POPC   GL122609   5.635  39.914   9.091
 1574POPC   GL222610   5.916  39.945   8.937
 1574POPC   C1A22611   5.575  40.075   8.612
 1574POPC   D2A22612   5.915  39.916   8.391
 1574POPC   C3A22613   5.812  39.842   7.994
 1574POPC   C4A22614   5.668  40.038   7.620
 1574POPC   C1B22615   6.033  40.310   8.701
 1574POPC   C2B22616   6.126  40.371   8.268
 1574POPC   C3B22617   6.263  40.114   7.969
 1574POPC   C4B22618   6.201  39.860   7.650
 1575POPC   NC322619  31.753  11.887   9.300
 1575POPC   PO422620  32.240  11.421   9.503
 1575POPC   GL122621  32.278  11.309   9.109
 1575POPC   GL222622  32.015  11.538   9.020
 1575POPC   C1A22623  32.435  11.479   8.728
 1575POPC   D2A22624  32.155  11.537   8.386
 1575POPC   C3A22625  32.229  11.207   8.104
 1575POPC   C4A22626  32.212  11.215   7.664
 1575POPC   C1B22627  31.823  11.212   8.780
 1575POPC   C2B22628  31.806  11.031   8.358
 1575POPC   C3B22629  31.774  11.081   7.869
 1575POPC   C4B22630  31.873  10.884   7.436
 1576POPC   NC322631   0.532   5.652   9.453
 1576POPC   PO422632   0.318   5.055   9.507
 1576POPC   GL122633   0.416   5.259   9.130
 1576POPC   GL222634   0.140   5.490   9.107
 1576POPC   C1A22635   0.513   5.268   8.695
 1576POPC   D2A22636   0.555   5.479   8.312
 1576POPC   C3A22637   0.615   5.253   7.933
 1576POPC   C4A22638   0.428   5.306   7.522
 1576POPC   C1B22639  44.993   5.165   8.784
 1576POPC   C2B22640   0.157   5.020   8.342
 1576POPC   C3B22641   0.095   5.185   7.903
 1576POPC   C4B22642  44.937   5.212   7.436
 1577POPC   NC322643  34.930  28.152   9.360
 1577POPC   PO422644  35.040  28.747   9.269
 1577POPC   GL122645  35.327  28.501   9.028
 1577POPC   GL222646  35.145  28.267   8.937
 1577POPC   C1A22647  35.585  28.313   8.686
 1577POPC   D2A22648  35.436  28.136   8.314
 1577POPC   C3A22649  35.565  28.251   7.926
 1577POPC   C4A22650  35.179  28.322   7.743
 1577POPC   C1B22651  34.979  28.578   8.653
 1577POPC   C2B22652  35.082  28.564   8.256
 1577POPC   C3B22653  34.925  28.811   7.975
 1577POPC   C4B22654  34.766  28.641   7.672
 1578POPC   NC322655  31.016  10.730   9.426
 1578POPC   PO422656  30.640  10.371   9.872
 1578POPC   GL122657  30.586  10.487   9.332
 1578POPC   GL222658  30.279  10.372   9.102
 1578POPC   C1A22659  30.745  10.486   8.877
 1578POPC   D2A22660  30.973  10.677   8.543
 1578POPC   C3A22661  30.919  10.616   8.105
 1578POPC   C4A22662  31.034  10.824   7.742
 1578POPC   C1B22663  30.308  10.585   8.681
 1578POPC   C2B22664  30.496  10.802   8.321
 1578POPC   C3B22665  30.507  10.767   7.855
 1578POPC   C4B22666  30.639  10.617   7.466
 1579POPC   NC322667  21.698  35.986   9.494
 1579POPC   PO422668  21.120  36.345   9.587
 1579POPC   GL122669  21.351  36.277   9.231
 1579POPC   GL222670  21.314  35.921   9.165
 1579POPC   C1A22671  21.426  36.440   8.825
 1579POPC   D2A22672  21.355  36.220   8.440
 1579POPC   C3A22673  21.488  36.322   8.068
 1579POPC   C4A22674  21.165  36.209   7.784
 1579POPC   C1B22675  21.535  35.858   8.766
 1579POPC   C2B22676  21.505  35.658   8.327
 1579POPC   C3B22677  21.510  35.840   7.878
 1579POPC   C4B22678  21.454  35.882   7.403
 1580POPC   NC322679   6.316  43.447   9.797
 1580POPC   PO422680   6.033  42.924   9.557
 1580POPC   GL122681   5.969  43.252   9.240
 1580POPC   GL222682   5.613  43.225   9.215
 1580POPC   C1A22683   6.001  43.143   8.798
 1580POPC   D2A22684   6.228  43.072   8.437
 1580POPC   C3A22685   6.002  43.168   8.079
 1580POPC   C4A22686   5.805  42.952   7.707
 1580POPC   C1B22687   5.519  43.235   8.837
 1580POPC   C2B22688   5.656  43.339   8.422
 1580POPC   C3B22689   5.509  43.237   8.003
 1580POPC   C4B22690   5.443  43.284   7.546
 1581POPC   NC322691   0.558   4.653   9.482
 1581POPC   PO422692   0.240   4.070   9.433
 1581POPC   GL122693   0.389   4.201   9.036
 1581POPC   GL222694   0.709   4.288   9.114
 1581POPC   C1A22695   0.544   4.360   8.627
 1581POPC   D2A22696   0.786   4.202   8.278
 1581POPC   C3A22697   0.424   4.210   8.078
 1581POPC   C4A22698   0.340   4.551   7.800
 1581POPC   C1B22699   0.808   4.728   8.879
 1581POPC   C2B22700   0.776   4.881   8.459
 1581POPC   C3B22701   0.747   4.740   8.053
 1581POPC   C4B22702   0.737   4.825   7.606
 1582POPC   NC322703   9.948  31.875   9.498
 1582POPC   PO422704  10.414  31.426   9.494
 1582POPC   GL122705  10.572  31.484   9.104
 1582POPC   GL222706  10.873  31.697   9.189
 1582POPC   C1A22707  10.365  31.483   8.717
 1582POPC   D2A22708  10.350  31.260   8.369
 1582POPC   C3A22709  10.531  31.475   8.039
 1582POPC   C4A22710  10.353  31.504   7.622
 1582POPC   C1B22711  10.683  31.898   8.841
 1582POPC   C2B22712  10.596  31.862   8.434
 1582POPC   C3B22713  10.778  32.034   8.106
 1582POPC   C4B22714  10.781  31.818   7.723
 1583POPC   NC322715  19.182  44.600  10.058
 1583POPC   PO422716  18.703  44.697   9.733
 1583POPC   GL122717  19.047  44.549   9.370
 1583POPC   GL222718  19.440  44.512   9.305
 1583POPC   C1A22719  19.016  44.308   8.978
 1583POPC   D2A22720  19.238  44.413   8.625
 1583POPC   C3A22721  19.127  44.494   8.219
 1583POPC   C4A22722  19.354  44.366   7.859
 1583POPC   C1B22723  19.386  44.789   8.937
 1583POPC   C2B22724  19.378  44.883   8.476
 1583POPC   C3B22725  19.601  44.783   8.110
 1583POPC   C4B22726  19.601  44.770   7.665
 1584POPC   NC322727   4.099   6.868   9.480
 1584POPC   PO422728   4.460   6.348   9.734
 1584POPC   GL122729   4.427   6.394   9.258
 1584POPC   GL222730   4.420   6.749   9.102
 1584POPC   C1A22731   4.390   6.363   8.783
 1584POPC   D2A22732   4.531   6.673   8.448
 1584POPC   C3A22733   4.429   6.553   7.988
 1584POPC   C4A22734   4.281   6.527   7.526
 1584POPC   C1B22735   4.116   6.858   8.742
 1584POPC   C2B22736   4.044   6.743   8.272
 1584POPC   C3B22737   4.137   6.975   7.889
 1584POPC   C4B22738   3.821   7.186   7.673
 1585POPC   NC322739   6.402  20.226   9.763
 1585POPC   PO422740   6.842  20.702   9.496
 1585POPC   GL122741   6.865  20.683   9.080
 1585POPC   GL222742   6.891  21.028   9.055
 1585POPC   C1A22743   6.590  20.538   8.755
 1585POPC   D2A22744   6.378  20.631   8.364
 1585POPC   C3A22745   6.736  20.650   8.093
 1585POPC   C4A22746   6.797  20.673   7.663
 1585POPC   C1B22747   6.957  20.938   8.633
 1585POPC   C2B22748   7.187  20.869   8.283
 1585POPC   C3B22749   7.045  21.056   7.913
 1585POPC   C4B22750   7.082  21.053   7.472
 1586POPC   NC322751  14.555   3.849   9.483
 1586POPC   PO422752  14.407   3.166   9.655
 1586POPC   GL122753  14.470   3.282   9.203
 1586POPC   GL222754  14.112   3.378   9.157
 1586POPC   C1A22755  14.485   3.615   8.863
 1586POPC   D2A22756  14.226   3.733   8.506
 1586POPC   C3A22757  14.422   3.749   8.106
 1586POPC   C4A22758  14.583   3.554   7.752
 1586POPC   C1B22759  14.200   3.210   8.724
 1586POPC   C2B22760  14.244   3.263   8.259
 1586POPC   C3B22761  14.103   3.444   7.833
 1586POPC   C4B22762  13.961   3.438   7.397
 1587POPC   NC322763  10.999  29.761   9.437
 1587POPC   PO422764  11.559  30.073   9.334
 1587POPC   GL122765  11.454  30.085   8.939
 1587POPC   GL222766  11.111  30.075   9.030
 1587POPC   C1A22767  11.398  29.972   8.514
 1587POPC   D2A22768  11.487  29.557   8.385
 1587POPC   C3A22769  11.599  29.482   7.982
 1587POPC   C4A22770  11.573  29.754   7.643
 1587POPC   C1B22771  11.074  29.670   8.778
 1587POPC   C2B22772  11.001  29.684   8.337
 1587POPC   C3B22773  11.195  29.925   8.018
 1587POPC   C4B22774  10.935  29.953   7.640
 1588POPC   NC322775  10.848  42.585   9.431
 1588POPC   PO422776  10.402  43.051   9.612
 1588POPC   GL122777  10.340  43.028   9.174
 1588POPC   GL222778  10.204  43.381   9.207
 1588POPC   C1A22779  10.413  42.787   8.774
 1588POPC   D2A22780  10.325  42.590   8.348
 1588POPC   C3A22781  10.408  42.799   7.927
 1588POPC   C4A22782  10.600  43.074   7.573
 1588POPC   C1B22783  10.389  43.338   8.790
 1588POPC   C2B22784  10.352  43.119   8.378
 1588POPC   C3B22785  10.401  43.331   7.981
 1588POPC   C4B22786  10.502  43.590   7.603
 1589POPC   NC322787  24.070  27.979   9.406
 1589POPC   PO422788  23.492  28.524   9.469
 1589POPC   GL122789  23.510  28.366   9.093
 1589POPC   GL222790  23.844  28.249   9.038
 1589POPC   C1A22791  23.587  28.525   8.683
 1589POPC   D2A22792  23.353  28.363   8.376
 1589POPC   C3A22793  23.457  28.484   8.019
 1589POPC   C4A22794  23.412  28.246   7.736
 1589POPC   C1B22795  23.979  28.176   8.614
 1589POPC   C2B22796  23.907  28.314   8.190
 1589POPC   C3B22797  23.934  28.178   7.753
 1589POPC   C4B22798  24.157  28.024   7.329
 1590POPC   NC322799   7.920  32.913   9.536
 1590POPC   PO422800   8.453  33.210   9.859
 1590POPC   GL122801   8.354  33.080   9.370
 1590POPC   GL222802   8.086  33.313   9.234
 1590POPC   C1A22803   8.413  32.894   8.925
 1590POPC   D2A22804   8.500  33.014   8.478
 1590POPC   C3A22805   8.402  32.854   8.073
 1590POPC   C4A22806   8.179  32.901   7.691
 1590POPC   C1B22807   8.204  33.325   8.788
 1590POPC   C2B22808   8.055  33.241   8.394
 1590POPC   C3B22809   7.942  33.239   7.985
 1590POPC   C4B22810   8.127  33.393   7.618
 1591POPC   NC322811  21.459  28.619   9.335
 1591POPC   PO422812  21.324  27.821   9.281
 1591POPC   GL122813  21.513  28.144   9.141
 1591POPC   GL222814  21.159  28.280   9.106
 1591POPC   C1A22815  21.493  28.327   8.740
 1591POPC   D2A22816  21.210  28.189   8.440
 1591POPC   C3A22817  21.444  28.272   8.105
 1591POPC   C4A22818  21.775  28.465   7.887
 1591POPC   C1B22819  21.026  28.584   8.775
 1591POPC   C2B22820  20.807  28.488   8.395
 1591POPC   C3B22821  20.975  28.432   8.018
 1591POPC   C4B22822  21.281  28.605   7.755
 1592POPC   NC322823   0.820   7.324   9.575
 1592POPC   PO422824   0.219   7.532   9.301
 1592POPC   GL122825   0.305   7.248   8.991
 1592POPC   GL222826   0.630   7.310   9.106
 1592POPC   C1A22827   0.431   7.254   8.548
 1592POPC   D2A22828   0.609   7.637   8.281
 1592POPC   C3A22829   0.454   7.569   7.859
 1592POPC   C4A22830   0.228   7.202   7.778
 1592POPC   C1B22831   0.830   7.484   8.760
 1592POPC   C2B22832   0.935   7.254   8.428
 1592POPC   C3B22833   0.750   7.164   8.077
 1592POPC   C4B22834   0.887   7.325   7.699
 1593POPC   NC322835  31.930   1.294   9.517
 1593POPC   PO422836  32.410   0.841   9.462
 1593POPC   GL122837  32.332   1.194   9.186
 1593POPC   GL222838  32.587   1.437   9.040
 1593POPC   C1A22839  32.105   1.127   8.801
 1593POPC   D2A22840  31.947   1.319   8.423
 1593POPC   C3A22841  32.065   1.180   8.019
 1593POPC   C4A22842  32.052   1.418   7.663
 1593POPC   C1B22843  32.630   1.098   8.771
 1593POPC   C2B22844  32.444   1.172   8.386
 1593POPC   C3B22845  32.537   1.373   8.008
 1593POPC   C4B22846  32.500   1.219   7.616
 1594POPC   NC322847  21.108  27.300   9.284
 1594POPC   PO422848  20.648  27.669   9.638
 1594POPC   GL122849  20.694  27.611   9.219
 1594POPC   GL222850  20.506  27.301   9.240
 1594POPC   C1A22851  20.845  27.743   8.816
 1594POPC   D2A22852  20.867  27.552   8.414
 1594POPC   C3A22853  20.952  27.864   8.091
 1594POPC   C4A22854  20.692  27.785   7.731
 1594POPC   C1B22855  20.580  27.306   8.795
 1594POPC   C2B22856  20.369  27.396   8.427
 1594POPC   C3B22857  20.525  27.375   8.031
 1594POPC   C4B22858  20.268  27.464   7.707
 1595POPC   NC322859  29.777   7.747   9.453
 1595POPC   PO422860  30.313   7.376   9.662
 1595POPC   GL122861  30.120   7.512   9.207
 1595POPC   GL222862  29.820   7.321   9.119
 1595POPC   C1A22863  30.006   7.669   8.784
 1595POPC   D2A22864  29.897   7.437   8.419
 1595POPC   C3A22865  30.053   7.480   8.018
 1595POPC   C4A22866  30.060   7.840   7.710
 1595POPC   C1B22867  29.681   7.114   8.752
 1595POPC   C2B22868  29.496   7.142   8.305
 1595POPC   C3B22869  29.509   7.094   7.824
 1595POPC   C4B22870  29.684   6.882   7.447
 1596POPC   NC322871  23.572  33.036   9.610
 1596POPC   PO422872  24.176  33.237   9.503
 1596POPC   GL122873  23.890  33.048   9.203
 1596POPC   GL222874  24.089  33.064   8.980
 1596POPC   C1A22875  23.636  32.930   8.813
 1596POPC   D2A22876  23.367  33.179   8.507
 1596POPC   C3A22877  23.264  32.926   8.142
 1596POPC   C4A22878  23.561  32.719   7.846
 1596POPC   C1B22879  24.074  33.116   8.560
 1596POPC   C2B22880  23.778  32.992   8.310
 1596POPC   C3B22881  23.721  33.178   7.973
 1596POPC   C4B22882  24.125  33.072   7.796
 1597POPC   NC322883  43.747   3.566   9.696
 1597POPC   PO422884  44.165   3.013   9.583
 1597POPC   GL122885  44.011   3.424   9.149
 1597POPC   GL222886  43.788   3.683   9.205
 1597POPC   C1A22887  43.769   3.479   8.753
 1597POPC   D2A22888  43.815   3.759   8.421
 1597POPC   C3A22889  44.019   3.586   8.057
 1597POPC   C4A22890  43.972   3.361   7.698
 1597POPC   C1B22891  43.473   3.862   8.922
 1597POPC   C2B22892  43.312   3.822   8.499
 1597POPC   C3B22893  43.391   3.883   8.031
 1597POPC   C4B22894  43.669   3.796   7.674
 1598POPC   NC322895  30.201  21.437   9.570
 1598POPC   PO422896  29.499  21.258   9.692
 1598POPC   GL122897  29.735  21.319   9.280
 1598POPC   GL222898  29.960  21.577   9.138
 1598POPC   C1A22899  29.808  21.231   8.816
 1598POPC   D2A22900  29.992  21.291   8.411
 1598POPC   C3A22901  29.709  21.372   8.070
 1598POPC   C4A22902  29.715  21.383   7.620
 1598POPC   C1B22903  29.919  21.731   8.699
 1598POPC   C2B22904  30.090  21.789   8.273
 1598POPC   C3B22905  30.054  21.723   7.819
 1598POPC   C4B22906  30.394  21.665   7.513
 1599POPC   NC322907  22.564  25.532   9.406
 1599POPC   PO422908  23.076  25.244   9.689
 1599POPC   GL122909  23.209  25.177   9.260
 1599POPC   GL222910  22.881  25.213   9.187
 1599POPC   C1A22911  23.188  25.244   8.774
 1599POPC   D2A22912  22.918  25.261   8.362
 1599POPC   C3A22913  23.196  25.281   8.023
 1599POPC   C4A22914  23.141  25.458   7.630
 1599POPC   C1B22915  22.693  25.179   8.805
 1599POPC   C2B22916  22.792  24.824   8.590
 1599POPC   C3B22917  22.802  24.811   8.148
 1599POPC   C4B22918  22.745  25.128   7.827
 1600POPC   NC322919  29.661  14.967   9.747
 1600POPC   PO422920  29.075  15.056   9.386
 1600POPC   GL122921  28.991  15.153   9.009
 1600POPC   GL222922  28.742  15.426   8.995
 1600POPC   C1A22923  29.132  15.012   8.636
 1600POPC   D2A22924  28.988  14.850   8.270
 1600POPC   C3A22925  29.085  14.991   7.870
 1600POPC   C4A22926  28.895  14.932   7.472
 1600POPC   C1B22927  29.032  15.527   8.653
 1600POPC   C2B22928  29.011  15.387   8.242
 1600POPC   C3B22929  29.244  15.477   7.910
 1600POPC   C4B22930  29.592  15.399   7.629
 1601POPC   NC322931  16.435  21.807   9.907
 1601POPC   PO422932  16.849  21.364   9.583
 1601POPC   GL122933  16.699  21.243   9.198
 1601POPC   GL222934  17.020  21.405   9.086
 1601POPC   C1A22935  16.735  21.075   8.788
 1601POPC   D2A22936  16.554  20.979   8.379
 1601POPC   C3A22937  16.470  21.375   8.150
 1601POPC   C4A22938  16.571  21.461   7.723
 1601POPC   C1B22939  17.207  21.172   8.735
 1601POPC   C2B22940  16.979  21.273   8.374
 1601POPC   C3B22941  16.887  21.114   7.972
 1601POPC   C4B22942  17.051  21.313   7.598
 1602POPC   NC322943  36.004   1.728   9.473
 1602POPC   PO422944  36.045   1.006   9.594
 1602POPC   GL122945  36.059   1.080   9.140
 1602POPC   GL222946  35.749   1.001   9.006
 1602POPC   C1A22947  36.192   1.255   8.706
 1602POPC   D2A22948  36.387   1.472   8.311
 1602POPC   C3A22949  36.244   1.395   7.882
 1602POPC   C4A22950  36.154   1.284   7.434
 1602POPC   C1B22951  35.850   0.848   8.627
 1602POPC   C2B22952  35.980   1.045   8.232
 1602POPC   C3B22953  35.937   0.998   7.778
 1602POPC   C4B22954  36.010   0.805   7.390
 1603POPC   NC322955  22.436  29.241   9.498
 1603POPC   PO422956  21.999  28.831   9.625
 1603POPC   GL122957  22.227  28.852   9.171
 1603POPC   GL222958  22.364  29.178   9.015
 1603POPC   C1A22959  22.185  28.882   8.658
 1603POPC   D2A22960  21.983  29.104   8.301
 1603POPC   C3A22961  22.209  29.010   7.920
 1603POPC   C4A22962  22.406  28.968   7.523
 1603POPC   C1B22963  22.642  29.167   8.646
 1603POPC   C2B22964  22.472  29.319   8.270
 1603POPC   C3B22965  22.547  29.402   7.852
 1603POPC   C4B22966  22.425  29.457   7.426
 1604POPC   NC322967  28.125  40.442   9.772
 1604POPC   PO422968  28.370  39.898   9.465
 1604POPC   GL122969  28.472  40.018   9.067
 1604POPC   GL222970  28.709  40.252   9.105
 1604POPC   C1A22971  28.604  39.867   8.661
 1604POPC   D2A22972  28.768  39.711   8.262
 1604POPC   C3A22973  28.583  39.923   7.880
 1604POPC   C4A22974  28.495  40.089   7.451
 1604POPC   C1B22975  28.595  40.411   8.713
 1604POPC   C2B22976  28.651  40.250   8.278
 1604POPC   C3B22977  28.509  40.419   7.857
 1604POPC   C4B22978  28.171  40.474   7.511
 1605POPC   NC322979  12.400   8.790   9.861
 1605POPC   PO422980  12.925   8.915   9.450
 1605POPC   GL122981  12.919   8.880   9.065
 1605POPC   GL222982  12.732   9.192   9.035
 1605POPC   C1A22983  12.761   8.820   8.680
 1605POPC   D2A22984  12.883   8.577   8.377
 1605POPC   C3A22985  12.619   8.594   8.056
 1605POPC   C4A22986  12.718   8.525   7.626
 1605POPC   C1B22987  13.111   9.245   8.777
 1605POPC   C2B22988  13.116   9.386   8.375
 1605POPC   C3B22989  13.202   9.259   7.981
 1605POPC   C4B22990  12.908   9.186   7.687
 1606POPC   NC322991   5.234  36.148   9.681
 1606POPC   PO422992   4.776  35.620   9.619
 1606POPC   GL122993   4.911  36.006   9.295
 1606POPC   GL222994   5.292  36.038   9.195
 1606POPC   C1A22995   4.956  36.275   8.884
 1606POPC   D2A22996   4.952  36.077   8.444
 1606POPC   C3A22997   5.004  36.281   8.060
 1606POPC   C4A22998   4.856  36.446   7.698
 1606POPC   C1B22999   5.417  36.080   8.748
 1606POPC   C2B23000   5.451  36.228   8.333
 1606POPC   C3B23001   5.397  35.966   7.990
 1606POPC   C4B23002   5.140  35.997   7.644
 1607POPC   NC323003   6.425  12.617   9.378
 1607POPC   PO423004   6.709  13.261   9.466
 1607POPC   GL123005   6.714  12.982   9.134
 1607POPC   GL223006   6.992  13.197   9.005
 1607POPC   C1A23007   6.790  12.801   8.736
 1607POPC   D2A23008   6.882  12.656   8.350
 1607POPC   C3A23009   6.738  12.834   7.969
 1607POPC   C4A23010   6.774  12.872   7.537
 1607POPC   C1B23011   6.620  13.272   8.746
 1607POPC   C2B23012   6.626  13.154   8.349
 1607POPC   C3B23013   6.393  13.197   7.992
 1607POPC   C4B23014   6.350  13.129   7.571
 1608POPC   NC323015  11.557  43.282   9.528
 1608POPC   PO423016  11.302  42.689   9.370
 1608POPC   GL123017  11.192  43.098   9.183
 1608POPC   GL223018  10.837  43.150   9.264
 1608POPC   C1A23019  11.309  43.335   8.782
 1608POPC   D2A23020  11.216  43.424   8.333
 1608POPC   C3A23021  11.460  43.473   7.919
 1608POPC   C4A23022  11.379  43.451   7.442
 1608POPC   C1B23023  10.835  43.113   8.807
 1608POPC   C2B23024  10.809  42.856   8.444
 1608POPC   C3B23025  10.844  43.025   8.047
 1608POPC   C4B23026  11.082  43.170   7.710
 1609POPC   NC323027   2.106  36.194   9.540
 1609POPC   PO423028   1.697  35.620   9.453
 1609POPC   GL123029   1.958  35.897   9.147
 1609POPC   GL223030   2.324  35.935   9.125
 1609POPC   C1A23031   1.938  36.319   8.895
 1609POPC   D2A23032   1.989  36.373   8.425
 1609POPC   C3A23033   2.023  35.969   8.159
 1609POPC   C4A23034   1.862  35.973   7.745
 1609POPC   C1B23035   2.223  35.974   8.666
 1609POPC   C2B23036   2.452  36.183   8.285
 1609POPC   C3B23037   2.298  36.249   7.850
 1609POPC   C4B23038   2.309  35.991   7.463
 1610POPC   NC323039  19.447  11.430   9.488
 1610POPC   PO423040  18.802  11.283   9.568
 1610POPC   GL123041  18.993  11.280   9.173
 1610POPC   GL223042  18.848  11.577   9.042
 1610POPC   C1A23043  18.987  11.218   8.711
 1610POPC   D2A23044  19.226  11.242   8.350
 1610POPC   C3A23045  19.073  11.339   7.981
 1610POPC   C4A23046  18.850  11.106   7.655
 1610POPC   C1B23047  19.243  11.645   8.869
 1610POPC   C2B23048  19.358  11.871   8.550
 1610POPC   C3B23049  19.382  11.731   8.165
 1610POPC   C4B23050  19.418  11.933   7.769
 1611POPC   NC323051  19.659   7.040   9.286
 1611POPC   PO423052  20.153   7.414   9.634
 1611POPC   GL123053  20.008   7.402   9.216
 1611POPC   GL223054  20.142   7.175   9.036
 1611POPC   C1A23055  19.843   7.442   8.744
 1611POPC   D2A23056  19.690   7.474   8.313
 1611POPC   C3A23057  19.759   7.720   7.960
 1611POPC   C4A23058  19.991   7.518   7.638
 1611POPC   C1B23059  20.324   7.160   8.602
 1611POPC   C2B23060  20.133   7.170   8.165
 1611POPC   C3B23061  19.918   7.049   7.761
 1611POPC   C4B23062  20.138   6.872   7.399
 1612POPC   NC323063  19.679  16.992   9.962
 1612POPC   PO423064  20.269  16.864   9.610
 1612POPC   GL123065  19.977  17.017   9.245
 1612POPC   GL223066  19.620  16.969   9.254
 1612POPC   C1A23067  19.860  16.733   8.857
 1612POPC   D2A23068  19.829  16.635   8.419
 1612POPC   C3A23069  20.111  16.679   8.054
 1612POPC   C4A23070  19.956  16.867   7.657
 1612POPC   C1B23071  19.401  17.015   8.845
 1612POPC   C2B23072  19.522  17.087   8.406
 1612POPC   C3B23073  19.591  16.857   8.024
 1612POPC   C4B23074  19.384  16.727   7.656
 1613POPC   NC323075  20.382  43.967   9.385
 1613POPC   PO423076  20.725  43.365   9.509
 1613POPC   GL123077  20.545  43.525   9.147
 1613POPC   GL223078  20.851  43.602   9.010
 1613POPC   C1A23079  20.473  43.593   8.689
 1613POPC   D2A23080  20.484  43.888   8.417
 1613POPC   C3A23081  20.338  43.744   8.029
 1613POPC   C4A23082  20.349  44.006   7.690
 1613POPC   C1B23083  20.801  44.015   8.809
 1613POPC   C2B23084  20.943  44.165   8.451
 1613POPC   C3B23085  20.844  43.976   8.077
 1613POPC   C4B23086  20.852  44.010   7.683
 1614POPC   NC323087   1.214  25.679   9.529
 1614POPC   PO423088   0.890  26.313   9.569
 1614POPC   GL123089   1.010  26.017   9.234
 1614POPC   GL223090   1.315  26.128   9.202
 1614POPC   C1A23091   1.164  25.811   8.829
 1614POPC   D2A23092   1.025  25.738   8.421
 1614POPC   C3A23093   1.253  25.755   8.070
 1614POPC   C4A23094   1.020  25.691   7.705
 1614POPC   C1B23095   1.115  26.328   8.852
 1614POPC   C2B23096   1.214  26.223   8.450
 1614POPC   C3B23097   1.324  26.318   8.070
 1614POPC   C4B23098   1.214  26.174   7.715
 1615POPC   NC323099  27.129  33.450   9.792
 1615POPC   PO423100  26.818  34.038   9.658
 1615POPC   GL123101  26.765  34.130   9.201
 1615POPC   GL223102  27.111  34.021   9.128
 1615POPC   C1A23103  26.761  33.904   8.767
 1615POPC   D2A23104  26.554  33.783   8.371
 1615POPC   C3A23105  26.790  33.720   7.955
 1615POPC   C4A23106  26.887  33.372   7.646
 1615POPC   C1B23107  27.227  34.096   8.674
 1615POPC   C2B23108  27.196  33.819   8.282
 1615POPC   C3B23109  27.326  33.673   7.848
 1615POPC   C4B23110  27.368  33.509   7.394
 1616POPC   NC323111  15.650  30.525   9.552
 1616POPC   PO423112  15.071  30.840   9.461
 1616POPC   GL123113  15.280  30.623   9.176
 1616POPC   GL223114  15.320  30.876   8.973
 1616POPC   C1A23115  15.355  30.392   8.787
 1616POPC   D2A23116  15.362  30.377   8.350
 1616POPC   C3A23117  15.121  30.682   8.090
 1616POPC   C4A23118  15.102  30.502   7.674
 1616POPC   C1B23119  15.616  31.122   8.771
 1616POPC   C2B23120  15.445  30.999   8.409
 1616POPC   C3B23121  15.468  31.092   8.023
 1616POPC   C4B23122  15.487  30.804   7.718
 1617POPC   NC323123  23.990  11.586   9.544
 1617POPC   PO423124  24.613  11.384   9.669
 1617POPC   GL123125  24.469  11.476   9.225
 1617POPC   GL223126  24.706  11.343   9.037
 1617POPC   C1A23127  24.287  11.551   8.765
 1617POPC   D2A23128  24.333  11.463   8.315
 1617POPC   C3A23129  24.373  11.333   7.891
 1617POPC   C4A23130  24.273  11.559   7.490
 1617POPC   C1B23131  24.598  11.171   8.641
 1617POPC   C2B23132  24.573  10.981   8.239
 1617POPC   C3B23133  24.741  10.973   7.816
 1617POPC   C4B23134  24.508  11.093   7.447
 1618POPC   NC323135  24.712  25.553   9.623
 1618POPC   PO423136  24.211  25.231   9.515
 1618POPC   GL123137  24.458  25.325   9.202
 1618POPC   GL223138  24.648  25.036   9.221
 1618POPC   C1A23139  24.387  25.436   8.783
 1618POPC   D2A23140  24.550  25.310   8.388
 1618POPC   C3A23141  24.407  25.230   7.972
 1618POPC   C4A23142  24.383  25.498   7.627
 1618POPC   C1B23143  24.807  25.073   8.782
 1618POPC   C2B23144  24.925  24.989   8.321
 1618POPC   C3B23145  25.129  25.056   7.892
 1618POPC   C4B23146  24.786  25.163   7.555
 1619POPC   NC323147  17.870  25.579   9.287
 1619POPC   PO423148  18.295  25.131   9.635
 1619POPC   GL123149  18.284  25.190   9.212
 1619POPC   GL223150  17.973  25.082   9.214
 1619POPC   C1A23151  18.335  25.365   8.789
 1619POPC   D2A23152  18.258  25.191   8.395
 1619POPC   C3A23153  18.348  25.409   8.014
 1619POPC   C4A23154  18.365  25.221   7.645
 1619POPC   C1B23155  17.977  24.975   8.784
 1619POPC   C2B23156  17.826  24.868   8.374
 1619POPC   C3B23157  18.025  24.969   7.984
 1619POPC   C4B23158  17.958  24.940   7.556
 1620POPC   NC323159  30.454  39.572   9.400
 1620POPC   PO423160  30.931  39.078   9.442
 1620POPC   GL123161  30.829  39.310   9.098
 1620POPC   GL223162  30.483  39.225   9.044
 1620POPC   C1A23163  30.829  39.175   8.680
 1620POPC   D2A23164  30.568  39.131   8.368
 1620POPC   C3A23165  30.733  39.070   7.958
 1620POPC   C4A23166  30.677  39.239   7.548
 1620POPC   C1B23167  30.357  39.512   8.687
 1620POPC   C2B23168  30.286  39.543   8.230
 1620POPC   C3B23169  30.249  39.481   7.745
 1620POPC   C4B23170  30.159  39.423   7.302
 1621POPC   NC323171  20.937  31.964   9.611
 1621POPC   PO423172  20.423  32.288   9.581
 1621POPC   GL123173  20.541  32.458   9.198
 1621POPC   GL223174  20.828  32.621   9.293
 1621POPC   C1A23175  20.366  32.421   8.782
 1621POPC   D2A23176  20.297  32.165   8.406
 1621POPC   C3A23177  20.365  32.298   7.993
 1621POPC   C4A23178  20.580  32.112   7.648
 1621POPC   C1B23179  20.858  32.672   8.848
 1621POPC   C2B23180  20.774  32.434   8.472
 1621POPC   C3B23181  20.836  32.516   8.055
 1621POPC   C4B23182  20.591  32.640   7.706
 1622POPC   NC323183  40.370  27.211   9.826
 1622POPC   PO423184  41.007  27.265   9.505
 1622POPC   GL123185  40.837  27.583   9.267
 1622POPC   GL223186  41.129  27.785   9.198
 1622POPC   C1A23187  40.631  27.705   8.877
 1622POPC   D2A23188  40.449  27.782   8.466
 1622POPC   C3A23189  40.732  27.810   8.103
 1622POPC   C4A23190  40.485  27.871   7.756
 1622POPC   C1B23191  41.119  27.508   8.843
 1622POPC   C2B23192  40.842  27.349   8.529
 1622POPC   C3B23193  40.945  27.323   8.119
 1622POPC   C4B23194  41.162  27.557   7.852
 1623POPC   NC323195  27.439  21.580   9.616
 1623POPC   PO423196  27.929  21.157   9.501
 1623POPC   GL123197  27.616  21.388   9.179
 1623POPC   GL223198  27.305  21.664   9.148
 1623POPC   C1A23199  27.783  21.284   8.771
 1623POPC   D2A23200  27.915  21.165   8.357
 1623POPC   C3A23201  27.698  21.338   8.023
 1623POPC   C4A23202  27.822  21.310   7.622
 1623POPC   C1B23203  27.252  21.330   8.833
 1623POPC   C2B23204  27.403  21.202   8.435
 1623POPC   C3B23205  27.242  21.110   8.054
 1623POPC   C4B23206  27.298  21.370   7.701
 1624POPC   NC323207   4.101  42.046   9.511
 1624POPC   PO423208   4.218  41.338   9.502
 1624POPC   GL123209   4.521  41.319   9.179
 1624POPC   GL223210   4.233  41.367   8.975
 1624POPC   C1A23211   4.731  41.353   8.763
 1624POPC   D2A23212   4.900  41.281   8.338
 1624POPC   C3A23213   4.593  41.432   8.055
 1624POPC   C4A23214   4.431  41.386   7.626
 1624POPC   C1B23215   4.398  41.739   8.814
 1624POPC   C2B23216   4.248  41.508   8.450
 1624POPC   C3B23217   4.090  41.534   8.036
 1624POPC   C4B23218   4.342  41.830   7.828
 1625POPC   NC323219  27.323   5.760   9.543
 1625POPC   PO423220  27.936   6.037   9.273
 1625POPC   GL123221  27.480   6.099   9.152
 1625POPC   GL223222  27.313   5.779   9.042
 1625POPC   C1A23223  27.371   6.143   8.701
 1625POPC   D2A23224  27.608   5.907   8.373
 1625POPC   C3A23225  27.448   5.948   7.951
 1625POPC   C4A23226  27.186   5.711   7.741
 1625POPC   C1B23227  27.681   5.585   8.826
 1625POPC   C2B23228  27.762   5.374   8.427
 1625POPC   C3B23229  27.818   5.599   8.017
 1625POPC   C4B23230  27.971   6.037   7.938
 1626POPC   NC323231  30.312  43.865   9.489
 1626POPC   PO423232  31.001  43.746   9.441
 1626POPC   GL123233  30.700  43.975   9.150
 1626POPC   GL223234  30.404  44.222   9.130
 1626POPC   C1A23235  30.634  43.759   8.757
 1626POPC   D2A23236  30.960  43.785   8.452
 1626POPC   C3A23237  30.877  43.928   8.042
 1626POPC   C4A23238  30.610  43.614   7.860
 1626POPC   C1B23239  30.396  44.193   8.662
 1626POPC   C2B23240  30.395  43.999   8.224
 1626POPC   C3B23241  30.444  44.091   7.746
 1626POPC   C4B23242  30.515  44.255   7.300
 1627POPC   NC323243  44.427  11.153   9.458
 1627POPC   PO423244  44.943  11.595   9.572
 1627POPC   GL123245  44.785  11.384   9.178
 1627POPC   GL223246  44.416  11.424   9.042
 1627POPC   C1A23247  44.733  11.054   8.852
 1627POPC   D2A23248  44.479  10.884   8.504
 1627POPC   C3A23249  44.593  11.087   8.120
 1627POPC   C4A23250  44.887  11.202   7.789
 1627POPC   C1B23251  44.390  11.737   8.731
 1627POPC   C2B23252  44.636  11.800   8.339
 1627POPC   C3B23253  44.510  11.606   7.924
 1627POPC   C4B23254  44.384  11.242   7.671
 1628POPC   NC323255  25.255  32.712   9.446
 1628POPC   PO423256  25.620  33.226   9.511
 1628POPC   GL123257  25.424  33.252   9.148
 1628POPC   GL223258  25.086  33.107   9.189
 1628POPC   C1A23259  25.349  33.178   8.738
 1628POPC   D2A23260  25.472  33.020   8.380
 1628POPC   C3A23261  25.290  33.201   8.074
 1628POPC   C4A23262  25.376  33.326   7.685
 1628POPC   C1B23263  24.942  32.891   8.846
 1628POPC   C2B23264  24.962  32.973   8.436
 1628POPC   C3B23265  25.012  32.765   8.079
 1628POPC   C4B23266  25.097  32.896   7.687
 1629POPC   NC323267   9.952   2.293   9.756
 1629POPC   PO423268   9.992   2.918   9.820
 1629POPC   GL123269   9.939   2.695   9.413
 1629POPC   GL223270   9.921   2.965   9.201
 1629POPC   C1A23271   9.726   2.533   8.988
 1629POPC   D2A23272   9.658   2.313   8.570
 1629POPC   C3A23273   9.516   2.507   8.171
 1629POPC   C4A23274   9.769   2.651   7.843
 1629POPC   C1B23275   9.649   3.036   8.818
 1629POPC   C2B23276   9.690   2.967   8.345
 1629POPC   C3B23277   9.926   3.097   7.973
 1629POPC   C4B23278   9.951   2.993   7.501
 1630POPC   NC323279  30.709  36.508   9.444
 1630POPC   PO423280  30.376  35.897   9.469
 1630POPC   GL123281  30.620  36.063   9.114
 1630POPC   GL223282  30.942  35.869   9.018
 1630POPC   C1A23283  30.554  36.324   8.763
 1630POPC   D2A23284  30.392  36.100   8.406
 1630POPC   C3A23285  30.487  36.186   8.023
 1630POPC   C4A23286  30.558  36.494   7.794
 1630POPC   C1B23287  30.855  35.956   8.585
 1630POPC   C2B23288  30.877  36.353   8.332
 1630POPC   C3B23289  31.013  36.288   7.920
 1630POPC   C4B23290  31.030  35.881   7.774
 1631POPC   NC323291   7.874   3.199   9.645
 1631POPC   PO423292   8.560   3.439   9.550
 1631POPC   GL123293   8.272   3.557   9.189
 1631POPC   GL223294   7.911   3.463   9.189
 1631POPC   C1A23295   8.344   3.467   8.776
 1631POPC   D2A23296   8.370   3.660   8.395
 1631POPC   C3A23297   8.124   3.658   8.053
 1631POPC   C4A23298   8.017   3.682   7.657
 1631POPC   C1B23299   7.813   3.649   8.804
 1631POPC   C2B23300   7.822   3.842   8.417
 1631POPC   C3B23301   7.647   3.840   7.987
 1631POPC   C4B23302   7.826   4.147   7.748
 1632POPC   NC323303   2.535   2.369   9.606
 1632POPC   PO423304   3.039   1.899   9.536
 1632POPC   GL123305   2.877   2.135   9.186
 1632POPC   GL223306   2.963   1.829   9.026
 1632POPC   C1A23307   2.649   2.113   8.741
 1632POPC   D2A23308   2.653   2.388   8.348
 1632POPC   C3A23309   2.835   2.230   7.957
 1632POPC   C4A23310   2.631   2.101   7.587
 1632POPC   C1B23311   2.754   1.598   8.747
 1632POPC   C2B23312   2.633   1.718   8.380
 1632POPC   C3B23313   2.420   1.715   8.034
 1632POPC   C4B23314   2.566   1.594   7.675
 1633POPC   NC323315  24.174  35.907   9.505
 1633POPC   PO423316  23.525  35.885   9.581
 1633POPC   GL123317  23.764  36.045   9.212
 1633POPC   GL223318  24.003  35.839   9.025
 1633POPC   C1A23319  23.698  36.151   8.769
 1633POPC   D2A23320  23.425  36.126   8.426
 1633POPC   C3A23321  23.595  36.236   8.042
 1633POPC   C4A23322  23.420  36.029   7.728
 1633POPC   C1B23323  24.187  35.938   8.642
 1633POPC   C2B23324  24.036  36.020   8.230
 1633POPC   C3B23325  23.879  35.837   7.850
 1633POPC   C4B23326  23.753  35.828   7.380
 1634POPC   NC323327  29.827   8.585   9.208
 1634POPC   PO423328  30.391   8.942   9.476
 1634POPC   GL123329  30.196   8.904   9.141
 1634POPC   GL223330  30.339   8.550   9.113
 1634POPC   C1A23331  29.942   9.093   8.777
 1634POPC   D2A23332  29.677   8.983   8.414
 1634POPC   C3A23333  29.783   9.119   7.979
 1634POPC   C4A23334  29.761   8.989   7.536
 1634POPC   C1B23335  30.351   8.778   8.701
 1634POPC   C2B23336  30.201   8.953   8.294
 1634POPC   C3B23337  30.179   8.815   7.847
 1634POPC   C4B23338  30.140   8.704   7.360
 1635POPC   NC323339  38.658  32.307   9.819
 1635POPC   PO423340  38.047  32.001   9.731
 1635POPC   GL123341  38.161  32.330   9.345
 1635POPC   GL223342  38.501  32.275   9.157
 1635POPC   C1A23343  38.113  32.404   8.836
 1635POPC   D2A23344  38.394  32.455   8.451
 1635POPC   C3A23345  38.165  32.403   8.061
 1635POPC   C4A23346  38.133  32.281   7.632
 1635POPC   C1B23347  38.829  32.329   8.804
 1635POPC   C2B23348  38.938  32.631   8.461
 1635POPC   C3B23349  38.873  32.522   8.013
 1635POPC   C4B23350  38.583  32.168   7.892
 1636POPC   NC323351  22.680  26.467   9.318
 1636POPC   PO423352  22.183  26.672   9.694
 1636POPC   GL123353  22.189  26.774   9.244
 1636POPC   GL223354  22.484  26.967   9.166
 1636POPC   C1A23355  21.962  26.741   8.836
 1636POPC   D2A23356  22.091  26.882   8.419
 1636POPC   C3A23357  22.081  26.692   8.033
 1636POPC   C4A23358  22.346  26.489   7.748
 1636POPC   C1B23359  22.403  27.123   8.757
 1636POPC   C2B23360  22.550  27.071   8.339
 1636POPC   C3B23361  22.366  27.100   7.947
 1636POPC   C4B23362  22.521  26.926   7.579
 1637POPC   NC323363   0.305  41.620   9.566
 1637POPC   PO423364  44.650  41.529   9.578
 1637POPC   GL123365  44.742  41.747   9.225
 1637POPC   GL223366  44.459  41.578   9.106
 1637POPC   C1A23367  44.893  41.603   8.809
 1637POPC   D2A23368  44.650  41.483   8.441
 1637POPC   C3A23369  44.774  41.613   7.989
 1637POPC   C4A23370  44.979  41.699   7.551
 1637POPC   C1B23371  44.177  41.433   8.820
 1637POPC   C2B23372  43.999  41.341   8.436
 1637POPC   C3B23373  44.282  41.378   8.112
 1637POPC   C4B23374  44.437  41.219   7.735
 1638POPC   NC323375  35.188   9.857   9.617
 1638POPC   PO423376  35.638  10.363   9.570
 1638POPC   GL123377  35.464  10.062   9.255
 1638POPC   GL223378  35.130  10.220   9.217
 1638POPC   C1A23379  35.308   9.730   8.964
 1638POPC   D2A23380  35.184   9.725   8.528
 1638POPC   C3A23381  35.458   9.674   8.168
 1638POPC   C4A23382  35.299   9.616   7.742
 1638POPC   C1B23383  35.315  10.205   8.782
 1638POPC   C2B23384  35.439  10.165   8.365
 1638POPC   C3B23385  35.257  10.084   7.986
 1638POPC   C4B23386  35.477  10.053   7.610
 1639POPC   NC323387   3.747   3.854   9.819
 1639POPC   PO423388   3.437   4.445   9.573
 1639POPC   GL123389   3.441   4.321   9.149
 1639POPC   GL223390   3.805   4.413   9.169
 1639POPC   C1A23391   3.304   4.514   8.749
 1639POPC   D2A23392   3.407   4.450   8.308
 1639POPC   C3A23393   3.145   4.595   7.953
 1639POPC   C4A23394   3.192   4.484   7.492
 1639POPC   C1B23395   3.789   4.320   8.707
 1639POPC   C2B23396   4.030   4.207   8.333
 1639POPC   C3B23397   3.930   4.344   7.926
 1639POPC   C4B23398   3.587   4.456   7.816
 1640POPC   NC323399   4.897  12.086   9.745
 1640POPC   PO423400   5.264  12.466   9.364
 1640POPC   GL123401   4.994  12.294   9.097
 1640POPC   GL223402   4.885  12.009   9.247
 1640POPC   C1A23403   5.080  12.232   8.657
 1640POPC   D2A23404   4.877  12.043   8.335
 1640POPC   C3A23405   5.141  12.083   7.992
 1640POPC   C4A23406   5.190  12.242   7.613
 1640POPC   C1B23407   5.183  11.828   8.942
 1640POPC   C2B23408   5.233  11.701   8.516
 1640POPC   C3B23409   5.018  11.613   8.098
 1640POPC   C4B23410   4.927  11.727   7.661
 1641POPC   NC323411  44.385   1.487   9.411
 1641POPC   PO423412  44.877   1.052   9.440
 1641POPC   GL123413  44.646   1.141   9.103
 1641POPC   GL223414  44.306   1.025   9.243
 1641POPC   C1A23415  44.807   1.235   8.676
 1641POPC   D2A23416   0.004   1.454   8.308
 1641POPC   C3A23417  44.898   1.203   7.927
 1641POPC   C4A23418  44.924   0.753   7.801
 1641POPC   C1B23419  44.265   1.131   8.774
 1641POPC   C2B23420  44.152   1.193   8.337
 1641POPC   C3B23421  44.416   1.006   8.018
 1641POPC   C4B23422  44.537   0.995   7.588
 1642POPC   NC323423   6.452  25.410   9.506
 1642POPC   PO423424   6.938  24.886   9.433
 1642POPC   GL123425   6.741  25.224   9.142
 1642POPC   GL223426   6.322  25.232   9.061
 1642POPC   C1A23427   6.909  25.557   8.857
 1642POPC   D2A23428   7.056  25.597   8.430
 1642POPC   C3A23429   6.976  25.205   8.192
 1642POPC   C4A23430   6.856  25.229   7.793
 1642POPC   C1B23431   6.504  25.296   8.699
 1642POPC   C2B23432   6.530  25.390   8.323
 1642POPC   C3B23433   6.349  25.246   7.977
 1642POPC   C4B23434   6.338  25.595   7.756
 1643POPC   NC323435  24.995  20.268   9.411
 1643POPC   PO423436  25.233  19.739   9.739
 1643POPC   GL123437  25.321  19.848   9.242
 1643POPC   GL223438  25.052  19.911   9.044
 1643POPC   C1A23439  25.534  19.989   8.826
 1643POPC   D2A23440  25.632  19.780   8.411
 1643POPC   C3A23441  25.390  19.888   8.064
 1643POPC   C4A23442  25.435  19.830   7.633
 1643POPC   C1B23443  25.089  20.257   8.768
 1643POPC   C2B23444  25.220  20.326   8.352
 1643POPC   C3B23445  24.984  20.223   7.985
 1643POPC   C4B23446  24.991  20.095   7.570
 1644POPC   NC323447  36.533  15.675   9.790
 1644POPC   PO423448  36.839  15.099   9.584
 1644POPC   GL123449  36.859  15.170   9.121
 1644POPC   GL223450  36.561  15.281   9.024
 1644POPC   C1A23451  36.911  15.442   8.696
 1644POPC   D2A23452  36.682  15.343   8.286
 1644POPC   C3A23453  36.911  15.432   7.892
 1644POPC   C4A23454  37.296  15.256   7.726
 1644POPC   C1B23455  36.726  14.968   8.690
 1644POPC   C2B23456  37.022  14.962   8.389
 1644POPC   C3B23457  36.964  14.867   8.000
 1644POPC   C4B23458  36.836  14.957   7.664
 1645POPC   NC323459  39.633  37.789   9.767
 1645POPC   PO423460  39.013  37.534   9.477
 1645POPC   GL123461  39.152  37.833   9.176
 1645POPC   GL223462  39.522  37.957   9.181
 1645POPC   C1A23463  39.127  37.636   8.776
 1645POPC   D2A23464  39.248  37.428   8.418
 1645POPC   C3A23465  39.037  37.561   8.041
 1645POPC   C4A23466  39.198  37.595   7.639
 1645POPC   C1B23467  39.364  38.090   8.774
 1645POPC   C2B23468  39.245  37.929   8.362
 1645POPC   C3B23469  39.428  37.935   7.938
 1645POPC   C4B23470  39.510  38.321   7.730
 1646POPC   NC323471   6.986  13.616   9.594
 1646POPC   PO423472   6.356  13.940   9.603
 1646POPC   GL123473   6.368  13.796   9.184
 1646POPC   GL223474   6.686  13.617   9.115
 1646POPC   C1A23475   6.229  13.600   8.820
 1646POPC   D2A23476   6.423  13.618   8.429
 1646POPC   C3A23477   6.185  13.637   8.065
 1646POPC   C4A23478   6.443  13.618   7.682
 1646POPC   C1B23479   6.974  13.626   8.716
 1646POPC   C2B23480   6.945  13.577   8.253
 1646POPC   C3B23481   6.846  13.355   7.878
 1646POPC   C4B23482   6.817  13.366   7.408
 1647POPC   NC323483  11.950  36.360  10.027
 1647POPC   PO423484  11.732  36.073   9.426
 1647POPC   GL123485  12.021  36.383   9.265
 1647POPC   GL223486  12.185  36.105   9.119
 1647POPC   C1A23487  12.077  36.515   8.830
 1647POPC   D2A23488  12.056  36.327   8.419
 1647POPC   C3A23489  11.941  36.488   7.987
 1647POPC   C4A23490  12.121  36.576   7.581
 1647POPC   C1B23491  11.947  35.940   8.787
 1647POPC   C2B23492  11.809  35.899   8.371
 1647POPC   C3B23493  12.127  36.000   8.035
 1647POPC   C4B23494  11.844  35.958   7.736
 1648POPC   NC323495   4.848  41.391   9.586
 1648POPC   PO423496   5.482  41.276   9.269
 1648POPC   GL123497   5.134  41.343   9.069
 1648POPC   GL223498   5.003  41.630   9.174
 1648POPC   C1A23499   5.223  41.507   8.666
 1648POPC   D2A23500   5.433  41.282   8.339
 1648POPC   C3A23501   5.282  41.446   7.960
 1648POPC   C4A23502   4.947  41.325   7.713
 1648POPC   C1B23503   4.897  41.862   8.844
 1648POPC   C2B23504   4.731  41.768   8.424
 1648POPC   C3B23505   4.867  41.867   7.995
 1648POPC   C4B23506   5.069  41.791   7.595
 1649POPC   NC323507  11.911   9.356   9.663
 1649POPC   PO423508  11.842  10.022   9.597
 1649POPC   GL123509  11.791   9.688   9.303
 1649POPC   GL223510  12.096   9.812   9.120
 1649POPC   C1A23511  11.785   9.492   8.897
 1649POPC   D2A23512  11.928   9.711   8.543
 1649POPC   C3A23513  11.880   9.611   8.097
 1649POPC   C4A23514  12.040   9.284   7.816
 1649POPC   C1B23515  12.355   9.912   8.749
 1649POPC   C2B23516  12.385   9.720   8.321
 1649POPC   C3B23517  12.345   9.711   7.878
 1649POPC   C4B23518  12.602   9.840   7.530
 1650POPC   NC323519  43.028  35.515   9.527
 1650POPC   PO423520  43.259  34.892   9.526
 1650POPC   GL123521  43.119  35.122   9.191
 1650POPC   GL223522  43.375  35.365   9.178
 1650POPC   C1A23523  42.923  35.344   8.841
 1650POPC   D2A23524  42.730  35.366   8.423
 1650POPC   C3A23525  42.990  35.268   8.073
 1650POPC   C4A23526  43.267  35.504   7.768
 1650POPC   C1B23527  43.438  35.184   8.788
 1650POPC   C2B23528  43.442  35.291   8.353
 1650POPC   C3B23529  43.467  35.050   7.978
 1650POPC   C4B23530  43.167  34.987   7.676
 1651POPC   NC323531  18.541  27.238   9.421
 1651POPC   PO423532  18.077  26.706   9.512
 1651POPC   GL123533  18.281  26.845   9.157
 1651POPC   GL223534  18.166  27.174   9.076
 1651POPC   C1A23535  18.206  26.661   8.764
 1651POPC   D2A23536  18.029  26.827   8.454
 1651POPC   C3A23537  18.052  26.631   8.053
 1651POPC   C4A23538  18.461  26.535   7.898
 1651POPC   C1B23539  18.416  27.126   8.678
 1651POPC   C2B23540  18.517  26.917   8.270
 1651POPC   C3B23541  18.479  27.029   7.822
 1651POPC   C4B23542  18.126  27.105   7.554
 1652POPC   NC323543   1.904   1.593   9.598
 1652POPC   PO423544   1.738   0.915   9.585
 1652POPC   GL123545   1.770   1.047   9.119
 1652POPC   GL223546   2.034   1.305   9.077
 1652POPC   C1A23547   1.832   1.194   8.637
 1652POPC   D2A23548   1.916   1.615   8.423
 1652POPC   C3A23549   1.938   1.513   8.005
 1652POPC   C4A23550   1.722   1.203   7.745
 1652POPC   C1B23551   2.348   1.264   8.755
 1652POPC   C2B23552   2.313   1.300   8.339
 1652POPC   C3B23553   2.296   1.159   7.926
 1652POPC   C4B23554   2.148   1.364   7.549
 1653POPC   NC323555   9.275  40.568   9.770
 1653POPC   PO423556   8.845  41.053   9.631
 1653POPC   GL123557   8.979  40.798   9.266
 1653POPC   GL223558   9.237  40.533   9.266
 1653POPC   C1A23559   8.836  40.819   8.849
 1653POPC   D2A23560   8.885  41.042   8.498
 1653POPC   C3A23561   9.078  40.954   8.115
 1653POPC   C4A23562   9.164  40.822   7.732
 1653POPC   C1B23563   9.297  40.565   8.847
 1653POPC   C2B23564   9.173  40.577   8.436
 1653POPC   C3B23565   9.405  40.504   8.068
 1653POPC   C4B23566   9.343  40.345   7.664
 1654POPC   NC323567  31.665   4.820   9.377
 1654POPC   PO423568  32.272   5.175   9.502
 1654POPC   GL123569  32.227   5.047   9.106
 1654POPC   GL223570  31.923   5.193   9.134
 1654POPC   C1A23571  32.405   4.975   8.702
 1654POPC   D2A23572  32.631   5.154   8.368
 1654POPC   C3A23573  32.467   5.110   7.946
 1654POPC   C4A23574  32.439   5.061   7.500
 1654POPC   C1B23575  31.938   5.262   8.701
 1654POPC   C2B23576  32.063   5.090   8.305
 1654POPC   C3B23577  31.967   5.150   7.872
 1654POPC   C4B23578  31.968   4.912   7.469
 1655POPC   NC323579  14.073  38.300   9.571
 1655POPC   PO423580  13.588  38.800   9.543
 1655POPC   GL123581  13.635  38.527   9.234
 1655POPC   GL223582  13.959  38.656   9.152
 1655POPC   C1A23583  13.665  38.371   8.824
 1655POPC   D2A23584  13.511  38.269   8.401
 1655POPC   C3A23585  13.532  38.650   8.154
 1655POPC   C4A23586  13.666  38.763   7.757
 1655POPC   C1B23587  14.150  38.628   8.725
 1655POPC   C2B23588  14.119  38.634   8.235
 1655POPC   C3B23589  14.177  38.760   7.772
 1655POPC   C4B23590  14.258  38.645   7.301
 1656POPC   NC323591  27.133  34.344   9.540
 1656POPC   PO423592  26.570  34.690   9.563
 1656POPC   GL123593  26.779  34.680   9.149
 1656POPC   GL223594  27.068  34.522   9.074
 1656POPC   C1A23595  26.782  34.926   8.746
 1656POPC   D2A23596  26.591  34.932   8.335
 1656POPC   C3A23597  26.687  34.641   7.993
 1656POPC   C4A23598  26.831  34.712   7.536
 1656POPC   C1B23599  26.813  34.413   8.705
 1656POPC   C2B23600  26.860  34.213   8.311
 1656POPC   C3B23601  27.081  34.176   7.927
 1656POPC   C4B23602  26.755  34.241   7.687
 1657POPC   NC323603  25.541  12.496   9.509
 1657POPC   PO423604  25.375  13.155   9.410
 1657POPC   GL123605  25.417  12.874   9.079
 1657POPC   GL223606  25.608  13.150   8.901
 1657POPC   C1A23607  25.516  12.700   8.665
 1657POPC   D2A23608  25.402  12.934   8.281
 1657POPC   C3A23609  25.488  12.781   7.844
 1657POPC   C4A23610  25.230  12.547   7.485
 1657POPC   C1B23611  25.189  13.208   8.710
 1657POPC   C2B23612  24.876  13.095   8.384
 1657POPC   C3B23613  25.000  13.012   7.968
 1657POPC   C4B23614  25.172  13.045   7.562
 1658POPC   NC323615  33.657  14.188   9.728
 1658POPC   PO423616  33.859  13.510   9.548
 1658POPC   GL123617  33.923  13.394   9.142
 1658POPC   GL223618  34.117  13.694   9.052
 1658POPC   C1A23619  33.730  13.475   8.742
 1658POPC   D2A23620  33.740  13.636   8.320
 1658POPC   C3A23621  33.710  13.294   8.047
 1658POPC   C4A23622  33.629  13.371   7.639
 1658POPC   C1B23623  33.971  13.942   8.688
 1658POPC   C2B23624  33.962  14.100   8.265
 1658POPC   C3B23625  34.051  13.801   7.892
 1658POPC   C4B23626  34.192  13.869   7.441
 1659POPC   NC323627  40.664  40.913   9.286
 1659POPC   PO423628  41.039  40.386   9.426
 1659POPC   GL123629  40.792  40.478   9.054
 1659POPC   GL223630  40.845  40.797   8.806
 1659POPC   C1A23631  40.464  40.508   8.766
 1659POPC   D2A23632  40.512  40.751   8.388
 1659POPC   C3A23633  40.865  40.660   8.114
 1659POPC   C4A23634  40.656  40.743   7.738
 1659POPC   C1B23635  40.790  41.177   8.556
 1659POPC   C2B23636  40.753  41.167   8.125
 1659POPC   C3B23637  40.873  41.220   7.744
 1659POPC   C4B23638  40.837  41.495   7.416
 1660POPC   NC323639   1.541  20.750   9.513
 1660POPC   PO423640   1.093  20.298   9.542
 1660POPC   GL123641   1.196  20.522   9.154
 1660POPC   GL223642   0.895  20.670   9.035
 1660POPC   C1A23643   1.266  20.715   8.707
 1660POPC   D2A23644   1.503  20.750   8.329
 1660POPC   C3A23645   1.303  20.979   7.978
 1660POPC   C4A23646   1.257  20.762   7.568
 1660POPC   C1B23647   0.974  20.262   8.801
 1660POPC   C2B23648   1.177  20.280   8.418
 1660POPC   C3B23649   1.027  20.566   8.134
 1660POPC   C4B23650   0.865  20.409   7.765
 1661POPC   NC323651   7.727  26.608   9.620
 1661POPC   PO423652   7.258  27.083   9.559
 1661POPC   GL123653   7.235  26.823   9.183
 1661POPC   GL223654   7.549  26.629   9.130
 1661POPC   C1A23655   7.207  26.742   8.726
 1661POPC   D2A23656   7.116  27.002   8.381
 1661POPC   C3A23657   7.246  26.913   7.937
 1661POPC   C4A23658   7.598  27.184   7.773
 1661POPC   C1B23659   7.692  26.549   8.693
 1661POPC   C2B23660   7.517  26.577   8.256
 1661POPC   C3B23661   7.636  26.541   7.813
 1661POPC   C4B23662   7.986  26.568   7.525
 1662POPC   NC323663  40.775  28.042   9.495
 1662POPC   PO423664  40.338  28.492   9.518
 1662POPC   GL123665  40.457  28.356   9.149
 1662POPC   GL223666  40.810  28.398   9.138
 1662POPC   C1A23667  40.572  28.203   8.748
 1662POPC   D2A23668  40.820  28.232   8.391
 1662POPC   C3A23669  40.595  28.310   8.015
 1662POPC   C4A23670  40.675  28.503   7.648
 1662POPC   C1B23671  40.958  28.598   8.764
 1662POPC   C2B23672  41.152  28.672   8.390
 1662POPC   C3B23673  41.052  28.537   8.012
 1662POPC   C4B23674  41.160  28.687   7.650
 1663POPC   NC323675  28.685  19.360   9.270
 1663POPC   PO423676  28.313  18.871   9.615
 1663POPC   GL123677  28.320  19.015   9.202
 1663POPC   GL223678  28.149  19.350   9.154
 1663POPC   C1A23679  28.409  18.823   8.815
 1663POPC   D2A23680  28.327  18.876   8.406
 1663POPC   C3A23681  28.589  18.794   8.057
 1663POPC   C4A23682  28.319  18.889   7.719
 1663POPC   C1B23683  28.260  19.313   8.738
 1663POPC   C2B23684  28.540  19.330   8.400
 1663POPC   C3B23685  28.455  19.325   7.984
 1663POPC   C4B23686  28.091  19.381   7.689
 1664POPC   NC323687  13.733  17.885   9.547
 1664POPC   PO423688  13.928  18.527   9.366
 1664POPC   GL123689  13.802  18.178   9.135
 1664POPC   GL223690  13.482  18.066   9.139
 1664POPC   C1A23691  13.746  18.225   8.714
 1664POPC   D2A23692  13.828  18.526   8.408
 1664POPC   C3A23693  13.828  18.326   8.035
 1664POPC   C4A23694  13.642  18.527   7.666
 1664POPC   C1B23695  13.274  18.010   8.758
 1664POPC   C2B23696  13.384  18.138   8.362
 1664POPC   C3B23697  13.317  18.307   8.002
 1664POPC   C4B23698  13.444  18.038   7.664
 1665POPC   NC323699   0.679   6.403   9.545
 1665POPC   PO423700   0.456   7.047   9.642
 1665POPC   GL123701   0.494   6.836   9.264
 1665POPC   GL223702   0.857   6.853   9.268
 1665POPC   C1A23703   0.313   6.756   8.840
 1665POPC   D2A23704   0.234   6.395   8.564
 1665POPC   C3A23705   0.332   6.378   8.118
 1665POPC   C4A23706   0.280   6.557   7.720
 1665POPC   C1B23707   0.812   6.953   8.827
 1665POPC   C2B23708   0.720   6.737   8.449
 1665POPC   C3B23709   0.765   6.642   8.018
 1665POPC   C4B23710   0.636   6.884   7.671
 1666POPC   NC323711  12.936  33.492   9.481
 1666POPC   PO423712  12.433  33.000   9.516
 1666POPC   GL123713  12.713  33.059   9.230
 1666POPC   GL223714  13.023  32.980   9.293
 1666POPC   C1A23715  12.717  33.141   8.829
 1666POPC   D2A23716  12.859  33.053   8.465
 1666POPC   C3A23717  12.588  33.027   8.148
 1666POPC   C4A23718  12.758  33.048   7.763
 1666POPC   C1B23719  13.198  32.916   8.841
 1666POPC   C2B23720  13.360  33.042   8.395
 1666POPC   C3B23721  13.238  33.166   7.958
 1666POPC   C4B23722  13.154  33.165   7.473
 1667POPC   NC323723   3.471  15.600   9.568
 1667POPC   PO423724   3.901  15.078   9.447
 1667POPC   GL123725   3.696  15.278   9.100
 1667POPC   GL223726   3.359  15.475   9.081
 1667POPC   C1A23727   3.530  15.024   8.776
 1667POPC   D2A23728   3.648  15.018   8.365
 1667POPC   C3A23729   3.430  14.733   8.081
 1667POPC   C4A23730   3.360  14.821   7.677
 1667POPC   C1B23731   3.473  15.504   8.630
 1667POPC   C2B23732   3.880  15.501   8.418
 1667POPC   C3B23733   3.889  15.353   8.008
 1667POPC   C4B23734   3.470  15.316   7.800
 1668POPC   NC323735  29.368  21.731   9.664
 1668POPC   PO423736  28.904  21.323   9.357
 1668POPC   GL123737  28.979  21.320   8.960
 1668POPC   GL223738  29.315  21.286   8.990
 1668POPC   C1A23739  28.926  21.267   8.519
 1668POPC   D2A23740  29.196  21.506   8.238
 1668POPC   C3A23741  29.190  21.376   7.815
 1668POPC   C4A23742  28.976  21.406   7.445
 1668POPC   C1B23743  29.346  21.016   8.670
 1668POPC   C2B23744  29.323  21.007   8.211
 1668POPC   C3B23745  29.502  20.963   7.798
 1668POPC   C4B23746  29.335  21.070   7.345
 1669POPC   NC323747  27.193  20.766   9.436
 1669POPC   PO423748  26.575  20.513   9.631
 1669POPC   GL123749  26.452  20.410   9.206
 1669POPC   GL223750  26.678  20.720   9.164
 1669POPC   C1A23751  26.560  20.412   8.771
 1669POPC   D2A23752  26.980  20.449   8.596
 1669POPC   C3A23753  26.973  20.449   8.166
 1669POPC   C4A23754  27.119  20.679   7.817
 1669POPC   C1B23755  26.876  20.891   8.801
 1669POPC   C2B23756  26.708  20.833   8.397
 1669POPC   C3B23757  26.731  21.009   7.982
 1669POPC   C4B23758  26.607  20.938   7.544
 1670POPC   NC323759  10.973  44.811   9.650
 1670POPC   PO423760  11.507   0.154   9.519
 1670POPC   GL123761  11.417  44.858   9.181
 1670POPC   GL223762  11.184  44.561   9.228
 1670POPC   C1A23763  11.567  44.849   8.755
 1670POPC   D2A23764  11.512   0.012   8.342
 1670POPC   C3A23765  11.306  44.713   8.117
 1670POPC   C4A23766  11.303  44.709   7.713
 1670POPC   C1B23767  11.373  44.359   8.868
 1670POPC   C2B23768  11.307  44.285   8.427
 1670POPC   C3B23769  10.907  44.398   8.218
 1670POPC   C4B23770  10.806  44.724   7.923
 1671POPC   NC323771  28.062   8.623   9.389
 1671POPC   PO423772  28.526   9.073   9.720
 1671POPC   GL123773  28.418   9.044   9.278
 1671POPC   GL223774  28.552   8.713   9.202
 1671POPC   C1A23775  28.313   9.002   8.820
 1671POPC   D2A23776  28.431   8.866   8.405
 1671POPC   C3A23777  28.225   8.971   8.014
 1671POPC   C4A23778  28.172   9.280   7.652
 1671POPC   C1B23779  28.743   8.674   8.794
 1671POPC   C2B23780  28.779   8.491   8.360
 1671POPC   C3B23781  28.634   8.621   7.934
 1671POPC   C4B23782  28.414   8.807   7.547
 1672POPC   NC323783  39.332  22.343   9.636
 1672POPC   PO423784  39.235  21.696   9.346
 1672POPC   GL123785  39.332  21.938   9.052
 1672POPC   GL223786  39.278  22.275   9.148
 1672POPC   C1A23787  39.334  21.860   8.632
 1672POPC   D2A23788  39.382  21.688   8.249
 1672POPC   C3A23789  39.275  22.009   7.971
 1672POPC   C4A23790  39.492  22.266   7.748
 1672POPC   C1B23791  39.116  22.312   8.756
 1672POPC   C2B23792  39.293  22.356   8.362
 1672POPC   C3B23793  39.126  22.537   7.997
 1672POPC   C4B23794  38.979  22.435   7.593
 1673POPC   NC323795  20.449   9.489   9.473
 1673POPC   PO423796  20.289  10.193   9.569
 1673POPC   GL123797  20.275   9.926   9.193
 1673POPC   GL223798  20.622   9.874   9.148
 1673POPC   C1A23799  20.321   9.642   8.803
 1673POPC   D2A23800  20.507   9.487   8.390
 1673POPC   C3A23801  20.294   9.657   7.984
 1673POPC   C4A23802  20.476   9.766   7.540
 1673POPC   C1B23803  20.767   9.914   8.711
 1673POPC   C2B23804  20.632   9.961   8.291
 1673POPC   C3B23805  20.789   9.782   7.933
 1673POPC   C4B23806  21.115   9.789   7.603
 1674POPC   NC323807  36.108   0.548   9.542
 1674POPC   PO423808  36.077  44.888   9.634
 1674POPC   GL123809  36.022   0.153   9.186
 1674POPC   GL223810  36.016   0.543   9.052
 1674POPC   C1A23811  36.072   0.186   8.696
 1674POPC   D2A23812  35.872   0.205   8.277
 1674POPC   C3A23813  36.039   0.420   7.910
 1674POPC   C4A23814  35.981   0.299   7.468
 1674POPC   C1B23815  36.320   0.740   8.810
 1674POPC   C2B23816  36.289   0.639   8.369
 1674POPC   C3B23817  36.366   0.813   7.958
 1674POPC   C4B23818  36.419   0.570   7.559
 1675POPC   NC323819  40.485  32.243   9.591
 1675POPC   PO423820  39.788  32.234   9.523
 1675POPC   GL123821  39.957  32.046   9.166
 1675POPC   GL223822  40.226  32.271   9.153
 1675POPC   C1A23823  39.992  32.090   8.742
 1675POPC   D2A23824  40.058  32.349   8.407
 1675POPC   C3A23825  39.871  32.260   8.035
 1675POPC   C4A23826  40.008  32.437   7.657
 1675POPC   C1B23827  40.457  32.270   8.762
 1675POPC   C2B23828  40.483  32.083   8.361
 1675POPC   C3B23829  40.383  32.199   7.946
 1675POPC   C4B23830  40.113  31.894   7.745
 1676POPC   NC323831  39.108  26.621   9.624
 1676POPC   PO423832  39.634  26.282   9.366
 1676POPC   GL123833  39.494  26.710   9.239
 1676POPC   GL223834  39.143  26.819   9.165
 1676POPC   C1A23835  39.517  26.991   8.873
 1676POPC   D2A23836  39.577  26.812   8.475
 1676POPC   C3A23837  39.662  27.061   8.132
 1676POPC   C4A23838  39.526  27.042   7.730
 1676POPC   C1B23839  38.994  26.851   8.766
 1676POPC   C2B23840  39.120  26.982   8.375
 1676POPC   C3B23841  39.166  26.810   8.004
 1676POPC   C4B23842  39.028  27.003   7.623
 1677POPC   NC323843  40.336   6.432   9.836
 1677POPC   PO423844  39.719   6.332   9.515
 1677POPC   GL123845  39.738   6.514   9.080
 1677POPC   GL223846  40.042   6.757   9.072
 1677POPC   C1A23847  39.980   6.380   8.694
 1677POPC   D2A23848  39.995   6.573   8.268
 1677POPC   C3A23849  40.015   6.414   7.843
 1677POPC   C4A23850  39.721   6.525   7.505
 1677POPC   C1B23851  39.883   6.889   8.692
 1677POPC   C2B23852  39.715   7.008   8.288
 1677POPC   C3B23853  39.839   6.920   7.839
 1677POPC   C4B23854  39.677   7.036   7.395
 1678POPC   NC323855  36.708  13.929   9.508
 1678POPC   PO423856  37.314  13.717   9.337
 1678POPC   GL123857  36.984  13.462   9.176
 1678POPC   GL223858  36.820  13.751   9.042
 1678POPC   C1A23859  36.984  13.290   8.753
 1678POPC   D2A23860  37.242  13.486   8.427
 1678POPC   C3A23861  37.095  13.477   8.014
 1678POPC   C4A23862  36.927  13.862   7.811
 1678POPC   C1B23863  36.522  13.468   8.893
 1678POPC   C2B23864  36.344  13.465   8.512
 1678POPC   C3B23865  36.599  13.567   8.153
 1678POPC   C4B23866  36.490  13.585   7.737
 1679POPC   NC323867   7.737  23.031   9.337
 1679POPC   PO423868   8.407  22.926   9.561
 1679POPC   GL123869   8.205  22.898   9.205
 1679POPC   GL223870   8.219  23.252   9.206
 1679POPC   C1A23871   8.114  22.795   8.796
 1679POPC   D2A23872   8.351  22.938   8.455
 1679POPC   C3A23873   8.130  22.876   8.093
 1679POPC   C4A23874   8.276  23.003   7.707
 1679POPC   C1B23875   8.183  23.317   8.779
 1679POPC   C2B23876   7.918  23.242   8.405
 1679POPC   C3B23877   8.053  23.369   7.984
 1679POPC   C4B23878   8.005  23.384   7.500
 1680POPC   NC323879  11.562  12.126   9.507
 1680POPC   PO423880  11.114  11.610   9.354
 1680POPC   GL123881  11.392  11.807   9.036
 1680POPC   GL223882  11.432  12.179   9.018
 1680POPC   C1A23883  11.367  11.871   8.604
 1680POPC   D2A23884  11.402  12.153   8.273
 1680POPC   C3A23885  11.171  12.027   7.933
 1680POPC   C4A23886  11.138  11.871   7.494
 1680POPC   C1B23887  11.557  12.473   8.682
 1680POPC   C2B23888  11.459  12.656   8.284
 1680POPC   C3B23889  11.535  12.510   7.872
 1680POPC   C4B23890  11.529  12.172   7.558
 1681POPC   NC323891  35.633  37.098   9.503
 1681POPC   PO423892  35.100  36.725   9.672
 1681POPC   GL123893  35.284  36.798   9.235
 1681POPC   GL223894  35.231  37.158   9.188
 1681POPC   C1A23895  35.444  36.935   8.796
 1681POPC   D2A23896  35.607  37.146   8.430
 1681POPC   C3A23897  35.485  36.914   8.070
 1681POPC   C4A23898  35.513  36.748   7.687
 1681POPC   C1B23899  35.060  37.300   8.786
 1681POPC   C2B23900  35.090  37.100   8.410
 1681POPC   C3B23901  35.002  37.096   7.995
 1681POPC   C4B23902  34.748  37.202   7.662
 1682POPC   NC323903   7.670  15.465   9.261
 1682POPC   PO423904   7.221  15.036   9.504
 1682POPC   GL123905   7.220  15.237   9.124
 1682POPC   GL223906   7.037  15.543   9.177
 1682POPC   C1A23907   7.375  15.202   8.694
 1682POPC   D2A23908   7.134  15.079   8.339
 1682POPC   C3A23909   7.414  14.931   8.015
 1682POPC   C4A23910   7.335  15.006   7.586
 1682POPC   C1B23911   6.925  15.419   8.736
 1682POPC   C2B23912   7.170  15.627   8.430
 1682POPC   C3B23913   7.289  15.466   8.036
 1682POPC   C4B23914   6.986  15.406   7.717
 1683POPC   NC323915   8.997  28.150   9.697
 1683POPC   PO423916   8.520  28.564   9.438
 1683POPC   GL123917   8.881  28.407   9.262
 1683POPC   GL223918   8.659  28.234   9.076
 1683POPC   C1A23919   9.201  28.327   8.929
 1683POPC   D2A23920   9.164  28.481   8.504
 1683POPC   C3A23921   9.121  28.193   8.175
 1683POPC   C4A23922   9.319  28.148   7.778
 1683POPC   C1B23923   8.737  28.507   8.770
 1683POPC   C2B23924   8.684  28.246   8.439
 1683POPC   C3B23925   8.607  28.056   8.066
 1683POPC   C4B23926   8.833  28.258   7.754
 1684POPC   NC323927  42.648  30.787   9.385
 1684POPC   PO423928  43.270  30.426   9.430
 1684POPC   GL123929  43.031  30.589   9.130
 1684POPC   GL223930  42.747  30.340   9.181
 1684POPC   C1A23931  43.028  30.847   8.766
 1684POPC   D2A23932  43.296  30.882   8.413
 1684POPC   C3A23933  43.180  31.059   8.011
 1684POPC   C4A23934  43.156  30.866   7.603
 1684POPC   C1B23935  42.803  30.372   8.740
 1684POPC   C2B23936  43.034  30.203   8.424
 1684POPC   C3B23937  43.149  30.329   8.067
 1684POPC   C4B23938  43.115  30.330   7.662
 1685POPC   NC323939  24.047   0.164   9.356
 1685POPC   PO423940  24.561   0.342   9.724
 1685POPC   GL123941  24.586   0.361   9.259
 1685POPC   GL223942  24.376   0.245   8.990
 1685POPC   C1A23943  24.671   0.632   8.903
 1685POPC   D2A23944  24.521   0.446   8.508
 1685POPC   C3A23945  24.523   0.693   8.150
 1685POPC   C4A23946  24.733   0.651   7.769
 1685POPC   C1B23947  24.065   0.368   8.720
 1685POPC   C2B23948  23.975   0.247   8.351
 1685POPC   C3B23949  24.292   0.178   8.061
 1685POPC   C4B23950  24.096   0.103   7.682
 1686POPC   NC323951  14.147  25.678   9.405
 1686POPC   PO423952  14.430  26.196   9.758
 1686POPC   GL123953  14.521  25.987   9.255
 1686POPC   GL223954  14.770  25.795   9.110
 1686POPC   C1A23955  14.341  25.903   8.777
 1686POPC   D2A23956  14.208  26.075   8.350
 1686POPC   C3A23957  14.254  25.826   7.955
 1686POPC   C4A23958  14.462  25.732   7.547
 1686POPC   C1B23959  14.729  26.210   8.852
 1686POPC   C2B23960  14.673  26.301   8.445
 1686POPC   C3B23961  14.618  26.188   8.048
 1686POPC   C4B23962  14.734  26.532   7.736
 1687POPC   NC323963   3.200   3.095   9.464
 1687POPC   PO423964   3.706   2.642   9.484
 1687POPC   GL123965   3.551   2.868   9.131
 1687POPC   GL223966   3.299   2.619   9.088
 1687POPC   C1A23967   3.460   2.888   8.668
 1687POPC   D2A23968   3.644   3.022   8.271
 1687POPC   C3A23969   3.588   2.738   7.910
 1687POPC   C4A23970   3.418   2.772   7.441
 1687POPC   C1B23971   3.649   2.437   8.843
 1687POPC   C2B23972   3.610   2.331   8.427
 1687POPC   C3B23973   3.830   2.276   8.056
 1687POPC   C4B23974   3.988   2.427   7.692
 1688POPC   NC323975   5.717   7.845   9.515
 1688POPC   PO423976   6.033   7.207   9.481
 1688POPC   GL123977   5.973   7.536   9.184
 1688POPC   GL223978   5.641   7.638   9.064
 1688POPC   C1A23979   6.055   7.470   8.756
 1688POPC   D2A23980   5.837   7.411   8.384
 1688POPC   C3A23981   6.050   7.237   8.037
 1688POPC   C4A23982   6.024   7.397   7.652
 1688POPC   C1B23983   5.762   7.867   8.703
 1688POPC   C2B23984   5.611   7.880   8.315
 1688POPC   C3B23985   5.780   7.720   7.962
 1688POPC   C4B23986   5.540   7.643   7.586
 1689POPC   NC323987   0.864  29.234   9.492
 1689POPC   PO423988   0.231  28.830   9.538
 1689POPC   GL123989   0.440  29.087   9.230
 1689POPC   GL223990   0.299  29.428   9.204
 1689POPC   C1A23991   0.572  29.042   8.789
 1689POPC   D2A23992   0.576  28.753   8.443
 1689POPC   C3A23993   0.497  28.908   8.024
 1689POPC   C4A23994   0.591  29.222   7.717
 1689POPC   C1B23995   0.049  29.540   8.874
 1689POPC   C2B23996   0.312  29.409   8.549
 1689POPC   C3B23997   0.433  29.452   8.151
 1689POPC   C4B23998   0.131  29.531   7.859
 1690POPC   NC323999  37.109  21.380   9.770
 1690POPC   PO424000  36.492  21.230   9.616
 1690POPC   GL124001  36.678  21.339   9.233
 1690POPC   GL224002  37.071  21.332   9.231
 1690POPC   C1A24003  36.787  21.572   8.864
 1690POPC   D2A24004  37.101  21.548   8.554
 1690POPC   C3A24005  36.928  21.504   8.149
 1690POPC   C4A24006  36.891  21.593   7.692
 1690POPC   C1B24007  37.188  21.124   8.820
 1690POPC   C2B24008  37.125  21.061   8.344
 1690POPC   C3B24009  37.203  21.182   7.866
 1690POPC   C4B24010  37.174  21.239   7.406
 1691POPC   NC324011   1.134  22.384   9.598
 1691POPC   PO424012   1.429  21.831   9.348
 1691POPC   GL124013   1.221  21.879   9.016
 1691POPC   GL224014   1.070  22.201   9.125
 1691POPC   C1A24015   1.238  21.754   8.586
 1691POPC   D2A24016   1.353  22.022   8.252
 1691POPC   C3A24017   1.343  21.928   7.812
 1691POPC   C4A24018   1.435  22.230   7.476
 1691POPC   C1B24019   1.100  22.254   8.699
 1691POPC   C2B24020   0.896  22.297   8.345
 1691POPC   C3B24021   0.981  22.268   7.929
 1691POPC   C4B24022   0.923  22.270   7.458
 1692POPC   NC324023  11.725   6.967   9.470
 1692POPC   PO424024  12.014   7.505   9.667
 1692POPC   GL124025  12.266   7.613   9.306
 1692POPC   GL224026  11.993   7.540   9.117
 1692POPC   C1A24027  12.463   7.628   8.878
 1692POPC   D2A24028  12.618   7.615   8.447
 1692POPC   C3A24029  12.341   7.352   8.184
 1692POPC   C4A24030  12.078   7.366   7.815
 1692POPC   C1B24031  12.024   7.449   8.665
 1692POPC   C2B24032  11.823   7.378   8.255
 1692POPC   C3B24033  11.575   7.288   7.851
 1692POPC   C4B24034  11.579   7.155   7.393
 1693POPC   NC324035  20.137  23.718   9.426
 1693POPC   PO424036  20.750  23.425   9.479
 1693POPC   GL124037  20.595  23.691   9.160
 1693POPC   GL224038  20.654  23.432   8.976
 1693POPC   C1A24039  20.386  23.856   8.785
 1693POPC   D2A24040  20.345  24.015   8.370
 1693POPC   C3A24041  20.507  23.766   8.031
 1693POPC   C4A24042  20.652  23.710   7.623
 1693POPC   C1B24043  20.915  23.370   8.674
 1693POPC   C2B24044  20.899  23.575   8.306
 1693POPC   C3B24045  21.032  23.505   7.931
 1693POPC   C4B24046  20.830  23.130   7.828
 1694POPC   NC324047   8.478   2.001   9.552
 1694POPC   PO424048   7.821   1.887   9.515
 1694POPC   GL124049   8.102   1.986   9.136
 1694POPC   GL224050   8.322   2.256   9.140
 1694POPC   C1A24051   8.145   2.188   8.687
 1694POPC   D2A24052   8.171   1.927   8.355
 1694POPC   C3A24053   8.298   1.977   7.945
 1694POPC   C4A24054   7.996   1.722   7.734
 1694POPC   C1B24055   8.645   2.254   8.802
 1694POPC   C2B24056   8.650   2.080   8.389
 1694POPC   C3B24057   8.717   2.306   8.036
 1694POPC   C4B24058   8.591   2.373   7.645
 1695POPC   NC324059   9.045  30.766   9.512
 1695POPC   PO424060   9.355  30.228   9.329
 1695POPC   GL124061   9.163  30.522   9.075
 1695POPC   GL224062   8.790  30.608   9.119
 1695POPC   C1A24063   9.060  30.486   8.680
 1695POPC   D2A24064   9.056  30.735   8.345
 1695POPC   C3A24065   9.096  30.476   8.031
 1695POPC   C4A24066   9.033  30.526   7.642
 1695POPC   C1B24067   8.733  30.856   8.763
 1695POPC   C2B24068   8.559  30.939   8.368
 1695POPC   C3B24069   8.719  30.856   7.974
 1695POPC   C4B24070   9.157  30.964   7.848
 1696POPC   NC324071   2.290  37.859   9.347
 1696POPC   PO424072   1.934  37.401   9.501
 1696POPC   GL124073   1.876  37.620   9.118
 1696POPC   GL224074   1.750  37.957   9.196
 1696POPC   C1A24075   2.144  37.586   8.742
 1696POPC   D2A24076   2.069  37.395   8.348
 1696POPC   C3A24077   2.324  37.391   7.988
 1696POPC   C4A24078   2.049  37.688   7.799
 1696POPC   C1B24079   1.886  38.060   8.786
 1696POPC   C2B24080   1.917  37.886   8.389
 1696POPC   C3B24081   1.638  37.711   8.101
 1696POPC   C4B24082   1.605  37.991   7.743
 1697POPC   NC324083  16.735  23.400   9.533
 1697POPC   PO424084  16.948  24.122   9.603
 1697POPC   GL124085  17.081  23.985   9.182
 1697POPC   GL224086  16.886  23.708   9.120
 1697POPC   C1A24087  17.017  24.010   8.685
 1697POPC   D2A24088  16.816  23.821   8.281
 1697POPC   C3A24089  16.726  23.960   7.824
 1697POPC   C4A24090  16.611  24.005   7.369
 1697POPC   C1B24091  16.659  23.632   8.743
 1697POPC   C2B24092  16.484  23.413   8.396
 1697POPC   C3B24093  16.488  23.519   7.973
 1697POPC   C4B24094  16.720  23.419   7.626
 1698POPC   NC324095   9.595  36.401  10.170
 1698POPC   PO424096   9.898  36.380   9.728
 1698POPC   GL124097   9.885  36.236   9.264
 1698POPC   GL224098  10.016  35.905   9.128
 1698POPC   C1A24099   9.810  36.262   8.785
 1698POPC   D2A24100   9.937  36.507   8.379
 1698POPC   C3A24101   9.763  36.320   7.998
 1698POPC   C4A24102   9.369  36.091   7.897
 1698POPC   C1B24103  10.275  35.867   8.743
 1698POPC   C2B24104  10.436  35.727   8.323
 1698POPC   C3B24105  10.269  35.890   7.941
 1698POPC   C4B24106   9.822  35.843   7.818
 1699POPC   NC324107  32.656   4.909   9.473
 1699POPC   PO424108  33.328   5.085   9.667
 1699POPC   GL124109  33.112   5.066   9.257
 1699POPC   GL224110  33.240   5.395   9.162
 1699POPC   C1A24111  32.940   4.943   8.799
 1699POPC   D2A24112  33.167   4.888   8.374
 1699POPC   C3A24113  32.974   5.047   7.995
 1699POPC   C4A24114  32.952   5.157   7.571
 1699POPC   C1B24115  33.393   5.153   8.805
 1699POPC   C2B24116  33.586   5.176   8.413
 1699POPC   C3B24117  33.418   5.288   8.017
 1699POPC   C4B24118  33.390   5.397   7.547
 1700POPC   NC324119  29.774  15.875   9.549
 1700POPC   PO424120  30.289  16.175   9.445
 1700POPC   GL124121  30.005  15.989   9.113
 1700POPC   GL224122  29.990  15.620   9.142
 1700POPC   C1A24123  29.596  15.919   8.889
 1700POPC   D2A24124  29.555  15.845   8.423
 1700POPC   C3A24125  29.753  16.177   8.155
 1700POPC   C4A24126  29.966  16.248   7.765
 1700POPC   C1B24127  29.893  15.539   8.715
 1700POPC   C2B24128  30.035  15.629   8.301
 1700POPC   C3B24129  29.889  15.740   7.901
 1700POPC   C4B24130  29.840  15.811   7.466
 1701POPC   NC324131  21.913  15.710   9.579
 1701POPC   PO424132  22.572  15.738   9.341
 1701POPC   GL124133  22.159  15.844   9.143
 1701POPC   GL224134  21.932  16.132   9.241
 1701POPC   C1A24135  22.059  15.897   8.722
 1701POPC   D2A24136  22.186  15.800   8.316
 1701POPC   C3A24137  22.354  16.089   8.050
 1701POPC   C4A24138  22.485  15.936   7.675
 1701POPC   C1B24139  21.679  16.202   8.854
 1701POPC   C2B24140  21.774  16.187   8.411
 1701POPC   C3B24141  21.800  16.037   8.016
 1701POPC   C4B24142  22.011  16.155   7.665
 1702POPC   NC324143  21.708  12.763   9.551
 1702POPC   PO424144  21.046  12.623   9.521
 1702POPC   GL124145  21.326  12.868   9.169
 1702POPC   GL224146  21.627  13.080   9.104
 1702POPC   C1A24147  21.519  12.738   8.751
 1702POPC   D2A24148  21.385  12.621   8.306
 1702POPC   C3A24149  21.497  12.757   7.877
 1702POPC   C4A24150  21.346  12.738   7.436
 1702POPC   C1B24151  21.381  13.239   8.729
 1702POPC   C2B24152  21.435  13.148   8.271
 1702POPC   C3B24153  21.595  13.252   7.832
 1702POPC   C4B24154  21.741  13.016   7.438
 1703POPC   NC324155  21.760  26.779   9.566
 1703POPC   PO424156  21.073  26.883   9.522
 1703POPC   GL124157  21.353  26.859   9.194
 1703POPC   GL224158  21.400  26.509   9.317
 1703POPC   C1A24159  21.410  26.942   8.715
 1703POPC   D2A24160  21.177  26.943   8.267
 1703POPC   C3A24161  21.342  26.976   7.797
 1703POPC   C4A24162  21.157  27.022   7.346
 1703POPC   C1B24163  21.496  26.484   8.905
 1703POPC   C2B24164  21.434  26.498   8.462
 1703POPC   C3B24165  21.571  26.622   8.088
 1703POPC   C4B24166  21.548  26.482   7.681
 1704POPC   NC324167  37.964  42.592   9.787
 1704POPC   PO424168  37.460  42.197   9.635
 1704POPC   GL124169  37.645  42.297   9.231
 1704POPC   GL224170  37.620  41.963   9.153
 1704POPC   C1A24171  37.661  42.348   8.761
 1704POPC   D2A24172  37.695  42.575   8.349
 1704POPC   C3A24173  37.754  42.496   7.907
 1704POPC   C4A24174  38.083  42.318   7.618
 1704POPC   C1B24175  37.379  41.919   8.791
 1704POPC   C2B24176  37.549  42.030   8.387
 1704POPC   C3B24177  37.809  41.977   8.056
 1704POPC   C4B24178  37.651  42.039   7.690
 1705POPC   NC324179  17.543  18.761   9.397
 1705POPC   PO424180  17.676  18.118   9.626
 1705POPC   GL124181  17.600  18.266   9.209
 1705POPC   GL224182  17.947  18.191   9.124
 1705POPC   C1A24183  17.541  18.452   8.766
 1705POPC   D2A24184  17.453  18.309   8.356
 1705POPC   C3A24185  17.500  18.485   7.943
 1705POPC   C4A24186  17.185  18.427   7.617
 1705POPC   C1B24187  17.734  17.990   8.777
 1705POPC   C2B24188  17.880  18.037   8.400
 1705POPC   C3B24189  17.723  17.991   8.044
 1705POPC   C4B24190  17.457  18.005   7.734
 1706POPC   NC324191  44.727  26.620   9.560
 1706POPC   PO424192  44.443  27.303   9.378
 1706POPC   GL124193  44.469  26.887   9.158
 1706POPC   GL224194  44.667  26.561   9.079
 1706POPC   C1A24195  44.377  26.784   8.734
 1706POPC   D2A24196  44.573  26.939   8.405
 1706POPC   C3A24197  44.399  26.908   8.011
 1706POPC   C4A24198  44.438  26.524   7.734
 1706POPC   C1B24199  44.937  26.724   8.788
 1706POPC   C2B24200   0.067  26.870   8.408
 1706POPC   C3B24201   0.139  26.749   7.995
 1706POPC   C4B24202  44.842  26.806   7.796
 1707POPC   NC324203  11.821  25.872   9.584
 1707POPC   PO424204  12.266  26.348   9.369
 1707POPC   GL124205  12.098  26.009   9.161
 1707POPC   GL224206  11.845  25.765   9.093
 1707POPC   C1A24207  12.187  25.996   8.758
 1707POPC   D2A24208  12.119  26.198   8.385
 1707POPC   C3A24209  12.132  25.945   8.009
 1707POPC   C4A24210  12.303  25.951   7.610
 1707POPC   C1B24211  11.683  25.833   8.699
 1707POPC   C2B24212  11.655  25.976   8.290
 1707POPC   C3B24213  11.673  25.706   7.955
 1707POPC   C4B24214  11.690  25.728   7.512
 1708POPC   NC324215  36.958  31.271   9.573
 1708POPC   PO424216  36.594  31.617   9.161
 1708POPC   GL124217  36.817  31.287   9.015
 1708POPC   GL224218  37.153  31.255   9.110
 1708POPC   C1A24219  36.929  31.476   8.621
 1708POPC   D2A24220  36.950  31.825   8.321
 1708POPC   C3A24221  37.000  31.566   7.979
 1708POPC   C4A24222  36.694  31.284   7.841
 1708POPC   C1B24223  37.251  31.095   8.735
 1708POPC   C2B24224  37.069  31.079   8.328
 1708POPC   C3B24225  37.240  31.124   7.937
 1708POPC   C4B24226  37.142  31.350   7.528
 1709POPC   NC324227  34.921  14.742   9.331
 1709POPC   PO424228  35.276  14.317   9.767
 1709POPC   GL124229  35.491  14.304   9.348
 1709POPC   GL224230  35.196  14.227   9.232
 1709POPC   C1A24231  35.510  14.434   8.858
 1709POPC   D2A24232  35.711  14.295   8.442
 1709POPC   C3A24233  35.673  14.481   8.035
 1709POPC   C4A24234  35.369  14.499   7.686
 1709POPC   C1B24235  35.096  14.083   8.820
 1709POPC   C2B24236  35.203  14.239   8.431
 1709POPC   C3B24237  35.347  14.116   8.057
 1709POPC   C4B24238  35.582  14.025   7.715
 1710POPC   NC324239  40.792  12.357   9.470
 1710POPC   PO424240  40.579  11.632   9.621
 1710POPC   GL124241  40.653  11.731   9.203
 1710POPC   GL224242  40.753  12.064   9.045
 1710POPC   C1A24243  40.560  11.681   8.762
 1710POPC   D2A24244  40.464  11.976   8.440
 1710POPC   C3A24245  40.696  11.824   8.100
 1710POPC   C4A24246  40.668  11.977   7.703
 1710POPC   C1B24247  40.863  12.455   8.805
 1710POPC   C2B24248  40.957  12.576   8.373
 1710POPC   C3B24249  40.916  12.343   8.004
 1710POPC   C4B24250  40.899  12.439   7.574
 1711POPC   NC324251  41.653  31.802   9.671
 1711POPC   PO424252  41.321  32.276   9.849
 1711POPC   GL124253  41.463  32.144   9.361
 1711POPC   GL224254  41.819  32.009   9.208
 1711POPC   C1A24255  41.432  32.252   8.934
 1711POPC   D2A24256  41.290  32.239   8.515
 1711POPC   C3A24257  41.561  32.454   8.233
 1711POPC   C4A24258  41.589  32.446   7.786
 1711POPC   C1B24259  41.821  31.966   8.739
 1711POPC   C2B24260  41.639  31.941   8.296
 1711POPC   C3B24261  41.863  31.997   7.880
 1711POPC   C4B24262  41.991  31.825   7.422
 1712POPC   NC324263  11.181  27.993   9.883
 1712POPC   PO424264  11.523  28.480   9.666
 1712POPC   GL124265  11.311  28.391   9.283
 1712POPC   GL224266  11.420  28.108   9.202
 1712POPC   C1A24267  11.266  28.528   8.832
 1712POPC   D2A24268  10.972  28.397   8.509
 1712POPC   C3A24269  11.207  28.416   8.130
 1712POPC   C4A24270  11.373  28.524   7.742
 1712POPC   C1B24271  11.195  28.037   8.824
 1712POPC   C2B24272  11.317  27.990   8.418
 1712POPC   C3B24273  11.209  27.933   7.978
 1712POPC   C4B24274  11.307  28.026   7.585
 1713POPC   NC324275   2.022   5.696   9.717
 1713POPC   PO424276   1.755   6.264   9.468
 1713POPC   GL124277   2.015   6.021   9.219
 1713POPC   GL224278   2.001   5.673   9.199
 1713POPC   C1A24279   2.140   6.005   8.799
 1713POPC   D2A24280   2.008   6.169   8.413
 1713POPC   C3A24281   2.129   6.052   8.029
 1713POPC   C4A24282   1.872   5.785   7.858
 1713POPC   C1B24283   1.961   5.532   8.769
 1713POPC   C2B24284   2.124   5.644   8.370
 1713POPC   C3B24285   2.305   5.578   7.975
 1713POPC   C4B24286   2.196   5.555   7.541
 1714POPC   NC324287   9.049  27.405   9.527
 1714POPC   PO424288   8.661  27.843   9.787
 1714POPC   GL124289   8.977  27.889   9.277
 1714POPC   GL224290   9.051  27.570   9.067
 1714POPC   C1A24291   8.916  27.934   8.767
 1714POPC   D2A24292   8.970  27.745   8.346
 1714POPC   C3A24293   8.707  27.567   7.995
 1714POPC   C4A24294   8.820  27.454   7.559
 1714POPC   C1B24295   9.394  27.804   8.940
 1714POPC   C2B24296   9.448  28.005   8.561
 1714POPC   C3B24297   9.475  27.822   8.153
 1714POPC   C4B24298   9.180  27.661   7.863
 1715POPC   NC324299  19.872   5.278   9.716
 1715POPC   PO424300  20.044   4.784   9.294
 1715POPC   GL124301  19.850   5.011   9.047
 1715POPC   GL224302  19.868   5.347   9.202
 1715POPC   C1A24303  19.941   4.911   8.613
 1715POPC   D2A24304  20.204   5.029   8.271
 1715POPC   C3A24305  19.927   4.968   7.940
 1715POPC   C4A24306  19.526   4.937   7.764
 1715POPC   C1B24307  20.105   5.366   8.820
 1715POPC   C2B24308  19.955   5.426   8.447
 1715POPC   C3B24309  20.020   5.511   8.070
 1715POPC   C4B24310  19.695   5.439   7.839
 1716POPC   NC324311  33.862  35.149   9.790
 1716POPC   PO424312  33.594  35.693   9.588
 1716POPC   GL124313  33.809  35.487   9.236
 1716POPC   GL224314  33.882  35.118   9.221
 1716POPC   C1A24315  33.899  35.476   8.791
 1716POPC   D2A24316  33.793  35.564   8.356
 1716POPC   C3A24317  33.883  35.289   8.006
 1716POPC   C4A24318  33.961  35.312   7.570
 1716POPC   C1B24319  34.215  35.080   8.870
 1716POPC   C2B24320  34.240  35.186   8.396
 1716POPC   C3B24321  34.216  34.888   8.006
 1716POPC   C4B24322  34.147  34.846   7.509
 1717POPC   NC324323   2.810  32.896   9.276
 1717POPC   PO424324   3.081  33.468   9.508
 1717POPC   GL124325   2.813  33.394   9.133
 1717POPC   GL224326   2.466  33.250   9.087
 1717POPC   C1A24327   2.777  33.334   8.709
 1717POPC   D2A24328   2.551  33.245   8.353
 1717POPC   C3A24329   2.836  32.964   8.228
 1717POPC   C4A24330   2.988  32.890   7.850
 1717POPC   C1B24331   2.374  32.933   8.763
 1717POPC   C2B24332   2.384  32.759   8.365
 1717POPC   C3B24333   2.441  32.847   7.919
 1717POPC   C4B24334   2.432  33.237   7.685
 1718POPC   NC324335  33.586  41.115   9.455
 1718POPC   PO424336  33.376  40.419   9.479
 1718POPC   GL124337  33.553  40.707   9.134
 1718POPC   GL224338  33.386  41.030   9.012
 1718POPC   C1A24339  33.859  40.653   8.789
 1718POPC   D2A24340  33.967  40.657   8.346
 1718POPC   C3A24341  33.807  40.665   7.934
 1718POPC   C4A24342  33.696  40.741   7.505
 1718POPC   C1B24343  33.639  41.076   8.643
 1718POPC   C2B24344  33.489  40.859   8.281
 1718POPC   C3B24345  33.432  41.013   7.842
 1718POPC   C4B24346  33.536  41.234   7.405
 1719POPC   NC324347  26.693  24.879   9.455
 1719POPC   PO424348  27.008  25.577   9.558
 1719POPC   GL124349  26.882  25.317   9.205
 1719POPC   GL224350  26.537  25.283   9.145
 1719POPC   C1A24351  26.890  25.311   8.755
 1719POPC   D2A24352  26.797  25.071   8.388
 1719POPC   C3A24353  26.894  25.259   8.009
 1719POPC   C4A24354  26.708  25.596   7.826
 1719POPC   C1B24355  26.506  24.950   8.838
 1719POPC   C2B24356  26.271  24.921   8.487
 1719POPC   C3B24357  26.387  25.008   8.096
 1719POPC   C4B24358  26.546  25.041   7.723
 1720POPC   NC324359  12.642  18.741   9.511
 1720POPC   PO424360  12.769  19.366   9.458
 1720POPC   GL124361  12.833  19.059   9.170
 1720POPC   GL224362  12.464  19.053   9.127
 1720POPC   C1A24363  13.100  19.004   8.801
 1720POPC   D2A24364  13.167  19.256   8.439
 1720POPC   C3A24365  12.971  19.187   8.040
 1720POPC   C4A24366  12.916  18.955   7.635
 1720POPC   C1B24367  12.591  18.812   8.782
 1720POPC   C2B24368  12.789  18.867   8.393
 1720POPC   C3B24369  12.870  18.600   8.027
 1720POPC   C4B24370  12.649  18.538   7.644
 1721POPC   NC324371   1.070   9.233   9.603
 1721POPC   PO424372   1.467   8.755   9.605
 1721POPC   GL124373   1.247   8.838   9.174
 1721POPC   GL224374   1.030   9.128   9.081
 1721POPC   C1A24375   1.360   8.972   8.724
 1721POPC   D2A24376   1.349   9.348   8.451
 1721POPC   C3A24377   1.494   9.201   8.048
 1721POPC   C4A24378   1.348   8.837   7.853
 1721POPC   C1B24379   0.858   8.903   8.720
 1721POPC   C2B24380   0.623   8.836   8.329
 1721POPC   C3B24381   0.850   8.886   7.941
 1721POPC   C4B24382   0.944   9.262   7.730
 1722POPC   NC324383   1.733  16.015   9.546
 1722POPC   PO424384   2.293  15.578   9.639
 1722POPC   GL124385   2.285  15.897   9.286
 1722POPC   GL224386   2.046  16.178   9.191
 1722POPC   C1A24387   2.225  15.872   8.832
 1722POPC   D2A24388   2.112  16.008   8.403
 1722POPC   C3A24389   2.261  15.716   8.095
 1722POPC   C4A24390   2.515  15.821   7.712
 1722POPC   C1B24391   2.082  16.380   8.793
 1722POPC   C2B24392   1.899  16.519   8.406
 1722POPC   C3B24393   1.793  16.272   8.048
 1722POPC   C4B24394   2.013  15.985   7.754
 1723POPC   NC324395  12.377  41.811   9.549
 1723POPC   PO424396  13.025  41.490   9.688
 1723POPC   GL124397  12.994  41.463   9.249
 1723POPC   GL224398  12.655  41.366   9.170
 1723POPC   C1A24399  13.098  41.422   8.810
 1723POPC   D2A24400  12.853  41.427   8.436
 1723POPC   C3A24401  13.013  41.629   8.064
 1723POPC   C4A24402  13.189  41.890   7.703
 1723POPC   C1B24403  12.621  41.662   8.851
 1723POPC   C2B24404  12.591  41.883   8.456
 1723POPC   C3B24405  12.556  41.916   8.006
 1723POPC   C4B24406  12.637  41.647   7.681
 1724POPC   NC324407   9.624  23.378   9.529
 1724POPC   PO424408   9.627  24.050   9.505
 1724POPC   GL124409   9.638  23.742   9.147
 1724POPC   GL224410   9.359  23.523   9.123
 1724POPC   C1A24411   9.847  23.654   8.726
 1724POPC   D2A24412   9.973  23.896   8.330
 1724POPC   C3A24413   9.763  23.781   7.954
 1724POPC   C4A24414   9.622  24.045   7.621
 1724POPC   C1B24415   9.436  23.311   8.743
 1724POPC   C2B24416   9.595  23.389   8.328
 1724POPC   C3B24417   9.371  23.457   7.953
 1724POPC   C4B24418   9.556  23.501   7.543
 1725POPC   NC324419  16.175  11.403   9.663
 1725POPC   PO424420  15.726  10.939   9.579
 1725POPC   GL124421  15.900  11.217   9.246
 1725POPC   GL224422  16.243  11.080   9.170
 1725POPC   C1A24423  16.059  11.511   8.916
 1725POPC   D2A24424  16.110  11.484   8.490
 1725POPC   C3A24425  16.180  11.420   8.061
 1725POPC   C4A24426  15.995  11.670   7.771
 1725POPC   C1B24427  16.006  11.038   8.765
 1725POPC   C2B24428  16.095  10.988   8.349
 1725POPC   C3B24429  15.875  10.973   7.979
 1725POPC   C4B24430  15.909  11.197   7.597
 1726POPC   NC324431  38.892  31.167   9.570
 1726POPC   PO424432  38.874  31.845   9.636
 1726POPC   GL124433  38.951  31.565   9.238
 1726POPC   GL224434  39.282  31.586   9.075
 1726POPC   C1A24435  38.919  31.501   8.746
 1726POPC   D2A24436  39.264  31.587   8.408
 1726POPC   C3A24437  39.194  31.606   7.950
 1726POPC   C4A24438  39.035  31.995   7.719
 1726POPC   C1B24439  39.427  31.265   8.785
 1726POPC   C2B24440  39.345  31.090   8.375
 1726POPC   C3B24441  39.496  31.185   7.950
 1726POPC   C4B24442  39.449  31.199   7.486
 1727POPC   NC324443  26.042  37.443   9.613
 1727POPC   PO424444  26.683  37.690   9.582
 1727POPC   GL124445  26.285  37.748   9.301
 1727POPC   GL224446  26.182  37.430   9.135
 1727POPC   C1A24447  25.944  37.856   8.988
 1727POPC   D2A24448  25.858  37.693   8.563
 1727POPC   C3A24449  26.029  37.864   8.163
 1727POPC   C4A24450  25.816  37.826   7.779
 1727POPC   C1B24451  26.215  37.272   8.740
 1727POPC   C2B24452  26.229  37.419   8.331
 1727POPC   C3B24453  25.996  37.380   7.970
 1727POPC   C4B24454  26.124  37.481   7.545
 1728POPC   NC324455  20.412   2.485   9.317
 1728POPC   PO424456  20.732   1.900   9.475
 1728POPC   GL124457  20.576   2.049   9.124
 1728POPC   GL224458  20.386   1.823   9.078
 1728POPC   C1A24459  20.753   2.124   8.731
 1728POPC   D2A24460  20.867   1.899   8.366
 1728POPC   C3A24461  20.693   2.144   8.074
 1728POPC   C4A24462  20.588   2.097   7.690
 1728POPC   C1B24463  20.567   1.655   8.724
 1728POPC   C2B24464  20.422   1.644   8.352
 1728POPC   C3B24465  20.572   1.659   7.968
 1728POPC   C4B24466  20.349   1.626   7.625
 1729POPC   NC324467  10.211  10.482   9.304
 1729POPC   PO424468   9.810  10.814   9.733
 1729POPC   GL124469   9.760  10.794   9.264
 1729POPC   GL224470  10.045  10.981   9.176
 1729POPC   C1A24471   9.502  10.638   8.873
 1729POPC   D2A24472   9.647  10.557   8.449
 1729POPC   C3A24473   9.482  10.353   8.113
 1729POPC   C4A24474   9.702  10.334   7.739
 1729POPC   C1B24475   9.943  10.893   8.760
 1729POPC   C2B24476   9.799  11.029   8.350
 1729POPC   C3B24477   9.844  10.784   7.961
 1729POPC   C4B24478   9.831  10.771   7.476
 1730POPC   NC324479   2.452  40.298   9.553
 1730POPC   PO424480   3.049  39.934   9.428
 1730POPC   GL124481   2.728  40.024   9.193
 1730POPC   GL224482   2.652  39.744   9.008
 1730POPC   C1A24483   2.697  40.198   8.789
 1730POPC   D2A24484   2.879  40.286   8.429
 1730POPC   C3A24485   2.699  40.270   8.038
 1730POPC   C4A24486   2.956  40.255   7.686
 1730POPC   C1B24487   3.017  39.817   8.772
 1730POPC   C2B24488   2.930  39.758   8.347
 1730POPC   C3B24489   2.773  39.773   7.935
 1730POPC   C4B24490   2.479  39.692   7.624
 1731POPC   NC324491  18.292  12.965   9.523
 1731POPC   PO424492  17.673  12.623   9.570
 1731POPC   GL124493  18.074  12.553   9.221
 1731POPC   GL224494  18.475  12.687   9.157
 1731POPC   C1A24495  18.172  12.685   8.753
 1731POPC   D2A24496  18.086  13.078   8.509
 1731POPC   C3A24497  18.163  13.034   8.063
 1731POPC   C4A24498  18.233  12.630   7.859
 1731POPC   C1B24499  18.589  12.962   8.793
 1731POPC   C2B24500  18.537  12.838   8.374
 1731POPC   C3B24501  18.690  13.038   8.039
 1731POPC   C4B24502  18.556  13.033   7.678
 1732POPC   NC324503  34.134  31.868   9.502
 1732POPC   PO424504  33.735  32.401   9.496
 1732POPC   GL124505  33.772  32.350   9.100
 1732POPC   GL224506  34.023  32.106   9.062
 1732POPC   C1A24507  33.680  32.310   8.703
 1732POPC   D2A24508  33.888  32.124   8.348
 1732POPC   C3A24509  33.784  32.015   7.952
 1732POPC   C4A24510  33.782  32.332   7.660
 1732POPC   C1B24511  34.211  31.940   8.692
 1732POPC   C2B24512  34.353  31.929   8.241
 1732POPC   C3B24513  34.255  31.985   7.787
 1732POPC   C4B24514  34.029  32.009   7.370
 1733POPC   NC324515  27.983  24.011   9.381
 1733POPC   PO424516  28.361  23.547   9.573
 1733POPC   GL124517  28.245  23.445   9.168
 1733POPC   GL224518  28.078  23.678   9.018
 1733POPC   C1A24519  28.484  23.472   8.775
 1733POPC   D2A24520  28.549  23.684   8.405
 1733POPC   C3A24521  28.301  23.473   8.107
 1733POPC   C4A24522  28.316  23.485   7.674
 1733POPC   C1B24523  28.242  23.961   8.717
 1733POPC   C2B24524  28.174  24.015   8.277
 1733POPC   C3B24525  28.076  23.885   7.881
 1733POPC   C4B24526  28.254  24.046   7.502
 1734POPC   NC324527  38.928  27.698   9.504
 1734POPC   PO424528  38.229  27.558   9.351
 1734POPC   GL124529  38.361  27.722   9.006
 1734POPC   GL224530  38.727  27.781   9.037
 1734POPC   C1A24531  38.477  27.657   8.582
 1734POPC   D2A24532  38.513  27.967   8.275
 1734POPC   C3A24533  38.389  27.911   7.893
 1734POPC   C4A24534  38.313  27.528   7.776
 1734POPC   C1B24535  38.690  27.317   8.925
 1734POPC   C2B24536  38.674  27.184   8.502
 1734POPC   C3B24537  38.739  27.486   8.162
 1734POPC   C4B24538  38.817  27.510   7.751
 1735POPC   NC324539   5.406  43.953   9.514
 1735POPC   PO424540   5.992  43.707   9.593
 1735POPC   GL124541   5.805  43.930   9.206
 1735POPC   GL224542   5.703  43.701   9.123
 1735POPC   C1A24543   5.845  44.139   8.817
 1735POPC   D2A24544   6.139  44.241   8.464
 1735POPC   C3A24545   6.076  44.074   8.054
 1735POPC   C4A24546   5.914  43.959   7.665
 1735POPC   C1B24547   5.870  43.636   8.770
 1735POPC   C2B24548   5.740  43.853   8.403
 1735POPC   C3B24549   5.797  43.655   8.052
 1735POPC   C4B24550   5.870  43.462   7.696
 1736POPC   NC324551  24.361  27.041   9.268
 1736POPC   PO424552  24.764  26.610   9.575
 1736POPC   GL124553  24.677  26.622   9.104
 1736POPC   GL224554  24.697  26.948   8.924
 1736POPC   C1A24555  24.450  26.494   8.690
 1736POPC   D2A24556  24.250  26.470   8.240
 1736POPC   C3A24557  24.221  26.832   7.952
 1736POPC   C4A24558  24.240  26.797   7.521
 1736POPC   C1B24559  24.790  27.152   8.574
 1736POPC   C2B24560  24.565  26.870   8.350
 1736POPC   C3B24561  24.677  26.623   8.018
 1736POPC   C4B24562  24.889  26.777   7.682
 1737POPC   NC324563  19.896   3.873   9.580
 1737POPC   PO424564  20.104   4.417   9.702
 1737POPC   GL124565  19.953   4.284   9.239
 1737POPC   GL224566  19.689   4.061   9.152
 1737POPC   C1A24567  19.804   4.387   8.768
 1737POPC   D2A24568  19.494   4.620   8.512
 1737POPC   C3A24569  19.611   4.546   8.090
 1737POPC   C4A24570  19.923   4.490   7.763
 1737POPC   C1B24571  20.101   3.982   8.872
 1737POPC   C2B24572  20.256   3.977   8.460
 1737POPC   C3B24573  20.099   4.091   8.056
 1737POPC   C4B24574  19.671   4.064   7.862
 1738POPC   NC324575   0.051   7.107   9.421
 1738POPC   PO424576  44.555   7.635   9.497
 1738POPC   GL124577  44.732   7.476   9.124
 1738POPC   GL224578  44.580   7.137   9.229
 1738POPC   C1A24579  44.988   7.531   8.682
 1738POPC   D2A24580   0.092   7.490   8.221
 1738POPC   C3A24581  44.735   7.455   7.923
 1738POPC   C4A24582  44.396   7.441   7.606
 1738POPC   C1B24583  44.796   7.082   8.830
 1738POPC   C2B24584  44.686   7.179   8.422
 1738POPC   C3B24585  44.901   7.000   8.105
 1738POPC   C4B24586  44.735   6.921   7.726
 1739POPC   NC324587   0.924   1.787   9.646
 1739POPC   PO424588   1.206   2.401   9.494
 1739POPC   GL124589   1.200   2.298   9.057
 1739POPC   GL224590   1.149   1.966   9.096
 1739POPC   C1A24591   1.261   2.311   8.655
 1739POPC   D2A24592   1.147   2.176   8.276
 1739POPC   C3A24593   1.412   2.294   7.958
 1739POPC   C4A24594   1.504   2.160   7.534
 1739POPC   C1B24595   1.051   1.657   8.798
 1739POPC   C2B24596   0.954   1.708   8.369
 1739POPC   C3B24597   1.057   1.730   7.952
 1739POPC   C4B24598   1.115   1.567   7.542
 1740POPC   NC324599  18.224  37.941   9.654
 1740POPC   PO424600  18.012  37.418   9.448
 1740POPC   GL124601  18.252  37.657   9.155
 1740POPC   GL224602  18.308  38.026   9.167
 1740POPC   C1A24603  18.334  37.463   8.785
 1740POPC   D2A24604  18.570  37.534   8.438
 1740POPC   C3A24605  18.341  37.441   8.099
 1740POPC   C4A24606  18.395  37.656   7.719
 1740POPC   C1B24607  18.409  37.962   8.757
 1740POPC   C2B24608  18.121  37.812   8.445
 1740POPC   C3B24609  18.078  37.906   8.028
 1740POPC   C4B24610  18.351  38.168   7.761
 1741POPC   NC324611  21.899  13.330   9.490
 1741POPC   PO424612  22.366  13.768   9.524
 1741POPC   GL124613  22.059  13.723   9.208
 1741POPC   GL224614  22.277  13.713   8.969
 1741POPC   C1A24615  21.844  13.472   8.865
 1741POPC   D2A24616  21.902  13.248   8.501
 1741POPC   C3A24617  21.971  13.474   8.106
 1741POPC   C4A24618  21.943  13.708   7.690
 1741POPC   C1B24619  22.197  13.692   8.557
 1741POPC   C2B24620  22.325  13.828   8.180
 1741POPC   C3B24621  22.410  13.604   7.810
 1741POPC   C4B24622  22.343  13.726   7.357
 1742POPC   NC324623  27.389   4.121   9.581
 1742POPC   PO424624  27.836   4.705   9.456
 1742POPC   GL124625  27.584   4.457   9.222
 1742POPC   GL224626  27.778   4.142   9.251
 1742POPC   C1A24627  27.586   4.319   8.805
 1742POPC   D2A24628  27.585   4.118   8.440
 1742POPC   C3A24629  27.743   4.335   8.094
 1742POPC   C4A24630  27.475   4.366   7.781
 1742POPC   C1B24631  27.873   3.907   8.876
 1742POPC   C2B24632  27.986   3.796   8.476
 1742POPC   C3B24633  27.800   3.811   8.083
 1742POPC   C4B24634  27.964   3.976   7.753
 1743POPC   NC324635  15.495  11.362   9.542
 1743POPC   PO424636  14.885  11.647   9.540
 1743POPC   GL124637  15.104  11.429   9.225
 1743POPC   GL224638  15.404  11.611   9.114
 1743POPC   C1A24639  15.091  11.210   8.826
 1743POPC   D2A24640  15.167  11.352   8.437
 1743POPC   C3A24641  14.960  11.176   8.105
 1743POPC   C4A24642  15.001  11.411   7.755
 1743POPC   C1B24643  15.588  11.373   8.797
 1743POPC   C2B24644  15.657  11.232   8.379
 1743POPC   C3B24645  15.504  11.344   7.972
 1743POPC   C4B24646  15.404  11.223   7.521
 1744POPC   NC324647  38.919  23.942   9.619
 1744POPC   PO424648  39.631  23.711   9.472
 1744POPC   GL124649  39.385  23.784   9.116
 1744POPC   GL224650  39.085  23.974   9.136
 1744POPC   C1A24651  39.397  23.582   8.696
 1744POPC   D2A24652  39.262  23.412   8.297
 1744POPC   C3A24653  39.443  23.664   7.971
 1744POPC   C4A24654  39.615  23.462   7.612
 1744POPC   C1B24655  39.239  24.087   8.716
 1744POPC   C2B24656  39.192  23.932   8.320
 1744POPC   C3B24657  39.003  23.994   7.933
 1744POPC   C4B24658  38.962  24.274   7.566
 1745POPC   NC324659   0.047   8.856   9.629
 1745POPC   PO424660   0.725   8.951   9.435
 1745POPC   GL124661   0.491   8.891   9.093
 1745POPC   GL224662   0.171   9.060   9.179
 1745POPC   C1A24663   0.369   9.079   8.703
 1745POPC   D2A24664   0.229   9.218   8.320
 1745POPC   C3A24665   0.456   9.260   7.947
 1745POPC   C4A24666   0.421   8.906   7.699
 1745POPC   C1B24667   0.043   8.721   8.914
 1745POPC   C2B24668   0.146   8.629   8.504
 1745POPC   C3B24669   0.159   8.639   8.069
 1745POPC   C4B24670  44.974   8.683   7.656
 1746POPC   NC324671   8.110  22.591   9.648
 1746POPC   PO424672   8.212  21.946   9.601
 1746POPC   GL124673   8.271  22.036   9.194
 1746POPC   GL224674   8.170  22.377   9.180
 1746POPC   C1A24675   8.430  21.883   8.799
 1746POPC   D2A24676   8.204  21.844   8.408
 1746POPC   C3A24677   8.474  22.005   8.081
 1746POPC   C4A24678   8.309  21.981   7.686
 1746POPC   C1B24679   8.091  22.270   8.748
 1746POPC   C2B24680   8.286  22.396   8.365
 1746POPC   C3B24681   8.192  22.407   7.929
 1746POPC   C4B24682   7.930  22.620   7.655
 1747POPC   NC324683  31.881  31.565   9.557
 1747POPC   PO424684  32.429  31.700   9.780
 1747POPC   GL124685  32.380  31.640   9.306
 1747POPC   GL224686  32.410  31.927   9.096
 1747POPC   C1A24687  32.294  31.474   8.861
 1747POPC   D2A24688  32.196  31.246   8.473
 1747POPC   C3A24689  32.228  31.408   8.057
 1747POPC   C4A24690  32.017  31.392   7.698
 1747POPC   C1B24691  32.496  31.924   8.693
 1747POPC   C2B24692  32.497  31.682   8.376
 1747POPC   C3B24693  32.550  31.836   7.995
 1747POPC   C4B24694  32.356  31.766   7.638
 1748POPC   NC324695  36.431  39.949   9.458
 1748POPC   PO424696  35.834  40.281   9.384
 1748POPC   GL124697  36.079  40.075   9.100
 1748POPC   GL224698  36.391  40.257   9.020
 1748POPC   C1A24699  35.929  40.049   8.703
 1748POPC   D2A24700  35.975  40.272   8.332
 1748POPC   C3A24701  35.992  39.923   8.083
 1748POPC   C4A24702  36.078  40.007   7.679
 1748POPC   C1B24703  36.426  39.891   8.731
 1748POPC   C2B24704  36.374  39.659   8.337
 1748POPC   C3B24705  36.425  39.713   7.875
 1748POPC   C4B24706  36.541  39.849   7.458
 1749POPC   NC324707  37.990  11.637   9.386
 1749POPC   PO424708  37.381  11.449   9.765
 1749POPC   GL124709  37.480  11.326   9.266
 1749POPC   GL224710  37.591  11.571   9.101
 1749POPC   C1A24711  37.787  11.212   8.822
 1749POPC   D2A24712  37.949  11.370   8.416
 1749POPC   C3A24713  37.737  11.379   8.016
 1749POPC   C4A24714  37.653  11.140   7.654
 1749POPC   C1B24715  37.560  11.653   8.647
 1749POPC   C2B24716  37.315  11.559   8.272
 1749POPC   C3B24717  37.253  11.582   7.850
 1749POPC   C4B24718  37.588  11.815   7.713
 1750POPC   NC324719  28.932  42.791   9.745
 1750POPC   PO424720  28.940  43.441   9.664
 1750POPC   GL124721  29.066  43.118   9.313
 1750POPC   GL224722  28.861  43.202   9.074
 1750POPC   C1A24723  29.320  43.043   8.898
 1750POPC   D2A24724  29.528  43.020   8.487
 1750POPC   C3A24725  29.359  43.286   8.174
 1750POPC   C4A24726  29.224  43.132   7.766
 1750POPC   C1B24727  28.819  42.951   8.710
 1750POPC   C2B24728  29.003  42.947   8.308
 1750POPC   C3B24729  28.769  43.168   8.014
 1750POPC   C4B24730  28.777  43.416   7.641
 1751POPC   NC324731  31.675  25.088   9.521
 1751POPC   PO424732  31.430  25.686   9.518
 1751POPC   GL124733  31.326  25.375   9.186
 1751POPC   GL224734  31.189  25.022   9.211
 1751POPC   C1A24735  31.596  25.263   8.829
 1751POPC   D2A24736  31.787  25.375   8.434
 1751POPC   C3A24737  31.775  25.056   8.134
 1751POPC   C4A24738  31.525  25.092   7.786
 1751POPC   C1B24739  31.093  25.180   8.769
 1751POPC   C2B24740  31.242  25.406   8.356
 1751POPC   C3B24741  31.137  25.399   7.911
 1751POPC   C4B24742  31.129  25.208   7.480
 1752POPC   NC324743  13.305  39.244   9.548
 1752POPC   PO424744  13.921  39.508   9.616
 1752POPC   GL124745  13.776  39.365   9.185
 1752POPC   GL224746  13.571  39.080   9.132
 1752POPC   C1A24747  13.823  39.250   8.723
 1752POPC   D2A24748  13.894  39.411   8.277
 1752POPC   C3A24749  13.744  39.268   7.860
 1752POPC   C4A24750  13.777  39.294   7.404
 1752POPC   C1B24751  13.302  39.167   8.786
 1752POPC   C2B24752  13.241  39.126   8.335
 1752POPC   C3B24753  13.243  39.049   7.896
 1752POPC   C4B24754  13.294  39.328   7.553
 1753POPC   NC324755  33.440  13.511   9.342
 1753POPC   PO424756  32.817  13.842   9.427
 1753POPC   GL124757  32.874  13.974   9.021
 1753POPC   GL224758  33.176  13.798   9.029
 1753POPC   C1A24759  32.890  13.791   8.629
 1753POPC   D2A24760  32.989  13.500   8.329
 1753POPC   C3A24761  32.849  13.730   7.992
 1753POPC   C4A24762  32.855  13.387   7.706
 1753POPC   C1B24763  33.433  13.914   8.686
 1753POPC   C2B24764  33.298  13.888   8.301
 1753POPC   C3B24765  33.338  13.633   7.961
 1753POPC   C4B24766  33.215  13.717   7.570
 1754POPC   NC324767  30.563  42.527   9.442
 1754POPC   PO424768  30.653  41.921   9.409
 1754POPC   GL124769  30.565  42.152   9.091
 1754POPC   GL224770  30.911  42.278   9.142
 1754POPC   C1A24771  30.657  42.324   8.700
 1754POPC   D2A24772  30.535  42.247   8.316
 1754POPC   C3A24773  30.485  42.618   8.096
 1754POPC   C4A24774  30.391  42.665   7.660
 1754POPC   C1B24775  30.992  42.656   8.917
 1754POPC   C2B24776  31.065  42.606   8.485
 1754POPC   C3B24777  30.988  42.441   8.098
 1754POPC   C4B24778  30.879  42.595   7.724
 1755POPC   NC324779   5.252  44.588   9.354
 1755POPC   PO424780   4.638  44.814   9.403
 1755POPC   GL124781   4.794  44.511   9.081
 1755POPC   GL224782   5.117  44.341   8.944
 1755POPC   C1A24783   4.699  44.468   8.672
 1755POPC   D2A24784   4.980  44.539   8.343
 1755POPC   C3A24785   5.026  44.898   8.082
 1755POPC   C4A24786   4.818  44.570   7.840
 1755POPC   C1B24787   5.361  44.610   8.676
 1755POPC   C2B24788   5.490  44.587   8.242
 1755POPC   C3B24789   5.324  44.553   7.818
 1755POPC   C4B24790   5.468  44.706   7.436
 1756POPC   NC324791  15.386   9.115   9.480
 1756POPC   PO424792  15.481   8.504   9.335
 1756POPC   GL124793  15.098   8.755   9.152
 1756POPC   GL224794  15.095   9.158   9.071
 1756POPC   C1A24795  14.996   8.817   8.717
 1756POPC   D2A24796  15.085   9.246   8.559
 1756POPC   C3A24797  15.127   9.309   8.130
 1756POPC   C4A24798  14.903   9.112   7.831
 1756POPC   C1B24799  15.464   8.981   8.850
 1756POPC   C2B24800  15.571   8.922   8.465
 1756POPC   C3B24801  15.363   8.869   8.135
 1756POPC   C4B24802  15.424   9.014   7.745
 1757POPC   NC324803  41.943  23.272   9.501
 1757POPC   PO424804  42.580  22.942   9.452
 1757POPC   GL124805  42.273  22.994   9.163
 1757POPC   GL224806  42.319  23.273   9.124
 1757POPC   C1A24807  42.104  22.841   8.791
 1757POPC   D2A24808  42.119  22.550   8.465
 1757POPC   C3A24809  42.279  22.820   8.164
 1757POPC   C4A24810  42.069  23.001   7.831
 1757POPC   C1B24811  42.502  23.186   8.732
 1757POPC   C2B24812  42.417  23.307   8.348
 1757POPC   C3B24813  42.558  23.228   7.940
 1757POPC   C4B24814  42.456  23.129   7.519
 1758POPC   NC324815   7.101  19.836   9.416
 1758POPC   PO424816   6.445  19.791   9.608
 1758POPC   GL124817   6.620  19.870   9.233
 1758POPC   GL224818   6.761  20.208   9.251
 1758POPC   C1A24819   6.579  19.665   8.849
 1758POPC   D2A24820   6.806  19.667   8.469
 1758POPC   C3A24821   6.534  19.691   8.119
 1758POPC   C4A24822   6.633  19.724   7.707
 1758POPC   C1B24823   6.857  20.098   8.793
 1758POPC   C2B24824   6.643  20.156   8.355
 1758POPC   C3B24825   6.780  20.180   7.892
 1758POPC   C4B24826   6.873  20.232   7.429
 1759POPC   NC324827   0.400  38.581   9.912
 1759POPC   PO424828  44.997  38.182   9.540
 1759POPC   GL124829   0.063  38.411   9.164
 1759POPC   GL224830   0.418  38.458   9.164
 1759POPC   C1A24831   0.162  38.417   8.688
 1759POPC   D2A24832   0.590  38.508   8.456
 1759POPC   C3A24833   0.542  38.477   8.034
 1759POPC   C4A24834   0.268  38.452   7.692
 1759POPC   C1B24835   0.439  38.784   8.836
 1759POPC   C2B24836   0.191  38.867   8.441
 1759POPC   C3B24837   0.011  38.818   8.000
 1759POPC   C4B24838   0.027  38.860   7.516
 1760POPC   NC324839   1.613  12.673   9.552
 1760POPC   PO424840   2.117  13.115   9.469
 1760POPC   GL124841   2.145  12.818   9.138
 1760POPC   GL224842   1.889  12.550   9.123
 1760POPC   C1A24843   1.937  12.905   8.756
 1760POPC   D2A24844   1.777  12.746   8.398
 1760POPC   C3A24845   1.911  12.914   8.035
 1760POPC   C4A24846   2.182  12.879   7.702
 1760POPC   C1B24847   1.538  12.542   8.806
 1760POPC   C2B24848   1.506  12.321   8.397
 1760POPC   C3B24849   1.725  12.392   7.984
 1760POPC   C4B24850   1.720  12.687   7.623
 1761POPC   NC324851  11.622  30.518   9.483
 1761POPC   PO424852  11.043  30.878   9.626
 1761POPC   GL124853  11.324  30.897   9.273
 1761POPC   GL224854  11.276  30.573   9.104
 1761POPC   C1A24855  11.505  30.971   8.855
 1761POPC   D2A24856  11.571  30.799   8.427
 1761POPC   C3A24857  11.244  30.863   8.078
 1761POPC   C4A24858  11.374  31.028   7.674
 1761POPC   C1B24859  11.241  30.463   8.661
 1761POPC   C2B24860  11.314  30.381   8.219
 1761POPC   C3B24861  11.183  30.392   7.773
 1761POPC   C4B24862  11.444  30.571   7.424
 1762POPC   NC324863  28.910   8.993   9.464
 1762POPC   PO424864  29.631   8.930   9.444
 1762POPC   GL124865  29.328   9.190   9.188
 1762POPC   GL224866  29.133   8.945   9.022
 1762POPC   C1A24867  29.340   9.351   8.744
 1762POPC   D2A24868  29.428   9.429   8.297
 1762POPC   C3A24869  29.288   9.054   8.051
 1762POPC   C4A24870  29.055   8.882   7.734
 1762POPC   C1B24871  28.829   9.181   8.811
 1762POPC   C2B24872  28.920   9.037   8.431
 1762POPC   C3B24873  28.751   9.104   8.072
 1762POPC   C4B24874  28.692   9.231   7.682
 1763POPC   NC324875  15.923   7.620   9.703
 1763POPC   PO424876  16.308   7.958   9.204
 1763POPC   GL124877  16.113   7.636   8.946
 1763POPC   GL224878  15.934   7.387   9.145
 1763POPC   C1A24879  16.084   7.539   8.503
 1763POPC   D2A24880  16.346   7.188   8.314
 1763POPC   C3A24881  16.247   7.047   7.918
 1763POPC   C4A24882  16.253   7.431   7.699
 1763POPC   C1B24883  16.043   7.099   8.790
 1763POPC   C2B24884  15.850   7.108   8.366
 1763POPC   C3B24885  15.786   7.334   7.982
 1763POPC   C4B24886  15.765   6.993   7.734
 1764POPC   NC324887  37.757  18.746   9.531
 1764POPC   PO424888  37.563  19.365   9.320
 1764POPC   GL124889  37.801  19.105   9.062
 1764POPC   GL224890  37.983  18.770   9.093
 1764POPC   C1A24891  37.842  19.199   8.623
 1764POPC   D2A24892  37.995  18.966   8.276
 1764POPC   C3A24893  37.729  19.088   7.945
 1764POPC   C4A24894  37.289  19.198   7.860
 1764POPC   C1B24895  37.790  18.711   8.699
 1764POPC   C2B24896  37.491  18.840   8.373
 1764POPC   C3B24897  37.454  18.605   8.018
 1764POPC   C4B24898  37.515  18.751   7.612
 1765POPC   NC324899  23.122  28.862   9.389
 1765POPC   PO424900  23.613  29.122   9.800
 1765POPC   GL124901  23.560  29.097   9.304
 1765POPC   GL224902  23.749  29.359   9.279
 1765POPC   C1A24903  23.633  29.055   8.824
 1765POPC   D2A24904  23.848  28.914   8.443
 1765POPC   C3A24905  23.798  28.858   8.008
 1765POPC   C4A24906  23.558  29.132   7.730
 1765POPC   C1B24907  23.923  29.467   8.898
 1765POPC   C2B24908  23.858  29.444   8.492
 1765POPC   C3B24909  23.821  29.376   8.084
 1765POPC   C4B24910  23.905  29.487   7.651
 1766POPC   NC324911   3.282  24.906   9.458
 1766POPC   PO424912   3.222  25.596   9.687
 1766POPC   GL124913   3.391  25.359   9.236
 1766POPC   GL224914   3.636  25.091   9.104
 1766POPC   C1A24915   3.657  25.492   8.825
 1766POPC   D2A24916   3.703  25.342   8.393
 1766POPC   C3A24917   3.355  25.239   8.145
 1766POPC   C4A24918   3.382  25.418   7.748
 1766POPC   C1B24919   3.417  24.921   8.759
 1766POPC   C2B24920   3.364  24.739   8.352
 1766POPC   C3B24921   3.544  24.790   7.951
 1766POPC   C4B24922   3.790  25.138   7.853
 1767POPC   NC324923  19.374  21.838   9.444
 1767POPC   PO424924  19.970  21.888   9.695
 1767POPC   GL124925  19.831  22.161   9.329
 1767POPC   GL224926  20.089  22.262   9.101
 1767POPC   C1A24927  19.638  22.190   8.887
 1767POPC   D2A24928  19.691  22.037   8.448
 1767POPC   C3A24929  19.507  22.194   8.053
 1767POPC   C4A24930  19.655  22.119   7.644
 1767POPC   C1B24931  20.139  22.024   8.728
 1767POPC   C2B24932  20.204  21.894   8.302
 1767POPC   C3B24933  20.115  21.994   7.853
 1767POPC   C4B24934  20.071  22.012   7.371
 1768POPC   NC324935   9.917  19.615   9.916
 1768POPC   PO424936   9.481  20.128   9.620
 1768POPC   GL124937   9.701  19.945   9.270
 1768POPC   GL224938   9.817  19.592   9.287
 1768POPC   C1A24939   9.679  19.935   8.840
 1768POPC   D2A24940   9.743  20.113   8.447
 1768POPC   C3A24941   9.879  19.902   8.081
 1768POPC   C4A24942   9.767  20.043   7.675
 1768POPC   C1B24943   9.911  19.475   8.848
 1768POPC   C2B24944   9.691  19.586   8.460
 1768POPC   C3B24945   9.513  19.496   8.057
 1768POPC   C4B24946   9.844  19.460   7.791
 1769POPC   NC324947  41.395  33.579   9.526
 1769POPC   PO424948  41.465  34.308   9.458
 1769POPC   GL124949  41.500  33.961   9.218
 1769POPC   GL224950  41.134  33.896   9.225
 1769POPC   C1A24951  41.634  33.691   8.885
 1769POPC   D2A24952  41.487  33.586   8.472
 1769POPC   C3A24953  41.611  33.426   8.080
 1769POPC   C4A24954  41.764  33.741   7.793
 1769POPC   C1B24955  41.159  34.168   8.865
 1769POPC   C2B24956  41.413  34.151   8.510
 1769POPC   C3B24957  41.430  33.960   8.116
 1769POPC   C4B24958  41.424  34.101   7.684
 1770POPC   NC324959  12.311  44.077   9.829
 1770POPC   PO424960  11.833  43.706   9.517
 1770POPC   GL124961  11.975  44.039   9.254
 1770POPC   GL224962  12.335  44.030   9.253
 1770POPC   C1A24963  12.001  43.941   8.812
 1770POPC   D2A24964  12.315  43.784   8.526
 1770POPC   C3A24965  12.111  43.760   8.146
 1770POPC   C4A24966  11.955  43.658   7.743
 1770POPC   C1B24967  12.386  44.271   8.848
 1770POPC   C2B24968  12.229  44.292   8.423
 1770POPC   C3B24969  12.153  44.264   7.995
 1770POPC   C4B24970  12.343  43.976   7.732
 1771POPC   NC324971   5.518  13.104   9.732
 1771POPC   PO424972   6.032  12.825   9.504
 1771POPC   GL124973   5.974  12.871   9.126
 1771POPC   GL224974   6.237  13.152   9.115
 1771POPC   C1A24975   5.742  12.757   8.742
 1771POPC   D2A24976   5.601  12.980   8.366
 1771POPC   C3A24977   5.615  12.807   7.930
 1771POPC   C4A24978   5.630  13.006   7.484
 1771POPC   C1B24979   6.288  12.858   8.743
 1771POPC   C2B24980   6.354  12.715   8.321
 1771POPC   C3B24981   6.131  12.779   7.944
 1771POPC   C4B24982   6.047  12.727   7.528
 1772POPC   NC324983  19.257  13.196   9.400
 1772POPC   PO424984  19.286  13.868   9.479
 1772POPC   GL124985  19.250  13.663   9.131
 1772POPC   GL224986  18.905  13.572   9.175
 1772POPC   C1A24987  19.368  13.662   8.712
 1772POPC   D2A24988  19.150  13.835   8.368
 1772POPC   C3A24989  19.321  13.686   7.976
 1772POPC   C4A24990  19.157  13.696   7.571
 1772POPC   C1B24991  18.936  13.360   8.771
 1772POPC   C2B24992  19.050  13.307   8.327
 1772POPC   C3B24993  18.847  13.533   7.985
 1772POPC   C4B24994  18.676  13.498   7.534
 1773POPC   NC324995  42.643  36.014   9.331
 1773POPC   PO424996  43.310  35.867   9.393
 1773POPC   GL124997  43.298  36.243   9.109
 1773POPC   GL224998  42.994  36.447   9.185
 1773POPC   C1A24999  43.489  36.414   8.725
 1773POPC   D2A25000  43.692  36.165   8.386
 1773POPC   C3A25001  43.517  36.256   7.984
 1773POPC   C4A25002  43.252  36.046   7.693
 1773POPC   C1B25003  42.889  36.234   8.763
 1773POPC   C2B25004  42.736  35.922   8.426
 1773POPC   C3B25005  42.847  35.882   7.977
 1773POPC   C4B25006  42.824  36.290   7.713
 1774POPC   NC325007  43.949   2.600   9.435
 1774POPC   PO425008  43.703   3.184   9.457
 1774POPC   GL125009  43.953   2.950   9.100
 1774POPC   GL225010  44.262   2.714   9.082
 1774POPC   C1A25011  44.116   3.085   8.745
 1774POPC   D2A25012  43.839   3.096   8.435
 1774POPC   C3A25013  44.028   3.047   8.078
 1774POPC   C4A25014  44.085   2.856   7.703
 1774POPC   C1B25015  44.019   2.547   8.772
 1774POPC   C2B25016  44.144   2.683   8.413
 1774POPC   C3B25017  44.300   2.548   8.059
 1774POPC   C4B25018  44.111   2.348   7.724
 1775POPC   NC325019  26.396  12.088   9.832
 1775POPC   PO425020  25.966  12.349   9.385
 1775POPC   GL125021  26.264  12.089   9.185
 1775POPC   GL225022  26.000  12.021   8.955
 1775POPC   C1A25023  26.452  11.857   8.850
 1775POPC   D2A25024  26.213  11.943   8.478
 1775POPC   C3A25025  26.422  11.876   8.105
 1775POPC   C4A25026  26.514  12.119   7.772
 1775POPC   C1B25027  25.700  11.997   8.658
 1775POPC   C2B25028  25.543  12.099   8.284
 1775POPC   C3B25029  25.901  12.022   8.048
 1775POPC   C4B25030  26.029  11.961   7.690
 1776POPC   NC325031   1.374   4.996   9.580
 1776POPC   PO425032   1.149   5.606   9.583
 1776POPC   GL125033   1.237   5.287   9.181
 1776POPC   GL225034   1.369   4.922   9.095
 1776POPC   C1A25035   1.121   5.166   8.723
 1776POPC   D2A25036   1.040   5.338   8.285
 1776POPC   C3A25037   1.112   5.114   7.898
 1776POPC   C4A25038   1.436   5.280   7.640
 1776POPC   C1B25039   1.355   4.711   8.712
 1776POPC   C2B25040   1.276   4.836   8.304
 1776POPC   C3B25041   1.550   4.845   7.953
 1776POPC   C4B25042   1.581   4.623   7.582
 1777POPC   NC325043  23.995  33.675   9.514
 1777POPC   PO425044  23.432  33.845   9.720
 1777POPC   GL125045  23.506  33.858   9.282
 1777POPC   GL225046  23.655  33.519   9.177
 1777POPC   C1A25047  23.362  33.827   8.843
 1777POPC   D2A25048  23.437  33.684   8.421
 1777POPC   C3A25049  23.616  33.941   8.093
 1777POPC   C4A25050  23.730  34.112   7.676
 1777POPC   C1B25051  23.746  33.444   8.754
 1777POPC   C2B25052  23.928  33.541   8.328
 1777POPC   C3B25053  23.949  33.614   7.892
 1777POPC   C4B25054  23.569  33.606   7.670
 1778POPC   NC325055  13.964   8.129   9.261
 1778POPC   PO425056  13.349   8.212   9.507
 1778POPC   GL125057  13.515   8.372   9.122
 1778POPC   GL225058  13.831   8.607   9.180
 1778POPC   C1A25059  13.514   8.151   8.721
 1778POPC   D2A25060  13.523   8.304   8.296
 1778POPC   C3A25061  13.689   8.018   7.999
 1778POPC   C4A25062  13.463   7.891   7.643
 1778POPC   C1B25063  13.766   8.598   8.737
 1778POPC   C2B25064  13.860   8.691   8.330
 1778POPC   C3B25065  13.797   8.576   7.916
 1778POPC   C4B25066  13.443   8.401   7.754
 1779POPC   NC325067  36.425  44.619   9.735
 1779POPC   PO425068  35.936  44.186   9.568
 1779POPC   GL125069  35.986  44.485   9.233
 1779POPC   GL225070  36.307  44.680   9.227
 1779POPC   C1A25071  35.892  44.397   8.805
 1779POPC   D2A25072  36.116  44.254   8.424
 1779POPC   C3A25073  36.063  44.523   8.051
 1779POPC   C4A25074  35.911  44.913   7.836
 1779POPC   C1B25075  36.322  44.647   8.782
 1779POPC   C2B25076  36.462  44.678   8.366
 1779POPC   C3B25077  36.348   0.009   8.095
 1779POPC   C4B25078  36.373   0.068   7.668
 1780POPC   NC325079  23.322  26.398   9.489
 1780POPC   PO425080  23.905  26.806   9.543
 1780POPC   GL125081  23.802  27.017   9.153
 1780POPC   GL225082  23.502  26.789   9.156
 1780POPC   C1A25083  23.869  27.142   8.744
 1780POPC   D2A25084  23.982  26.857   8.442
 1780POPC   C3A25085  23.756  26.946   8.102
 1780POPC   C4A25086  23.759  26.969   7.684
 1780POPC   C1B25087  23.381  26.528   8.796
 1780POPC   C2B25088  23.465  26.611   8.357
 1780POPC   C3B25089  23.289  26.748   7.973
 1780POPC   C4B25090  23.395  26.648   7.553
 1781POPC   NC325091  28.603  38.467   9.896
 1781POPC   PO425092  28.193  38.349   9.373
 1781POPC   GL125093  28.354  38.468   9.054
 1781POPC   GL225094  28.663  38.674   9.115
 1781POPC   C1A25095  28.321  38.180   8.731
 1781POPC   D2A25096  28.163  38.360   8.397
 1781POPC   C3A25097  28.309  38.252   8.009
 1781POPC   C4A25098  28.122  38.537   7.762
 1781POPC   C1B25099  28.609  38.592   8.650
 1781POPC   C2B25100  28.577  38.623   8.232
 1781POPC   C3B25101  28.615  38.609   7.819
 1781POPC   C4B25102  28.634  38.345   7.517
 1782POPC   NC325103  42.274  22.582   9.445
 1782POPC   PO425104  42.254  21.926   9.508
 1782POPC   GL125105  42.349  22.089   9.125
 1782POPC   GL225106  42.666  21.907   9.143
 1782POPC   C1A25107  42.244  21.930   8.696
 1782POPC   D2A25108  42.287  21.713   8.263
 1782POPC   C3A25109  42.299  22.068   7.941
 1782POPC   C4A25110  42.191  22.495   7.770
 1782POPC   C1B25111  42.713  22.138   8.769
 1782POPC   C2B25112  42.690  22.038   8.342
 1782POPC   C3B25113  42.790  22.267   7.963
 1782POPC   C4B25114  42.722  22.353   7.523
 1783POPC   NC325115  23.213  39.614   9.421
 1783POPC   PO425116  22.880  39.067   9.486
 1783POPC   GL125117  22.989  39.226   9.122
 1783POPC   GL225118  23.113  38.892   9.057
 1783POPC   C1A25119  23.046  39.320   8.709
 1783POPC   D2A25120  23.007  39.534   8.320
 1783POPC   C3A25121  22.920  39.315   7.921
 1783POPC   C4A25122  22.591  39.009   7.834
 1783POPC   C1B25123  23.428  38.977   8.791
 1783POPC   C2B25124  23.259  38.980   8.400
 1783POPC   C3B25125  23.276  38.766   8.069
 1783POPC   C4B25126  23.056  38.851   7.731
 1784POPC   NC325127   2.319  42.681   9.248
 1784POPC   PO425128   1.948  42.199   9.619
 1784POPC   GL125129   2.055  42.241   9.224
 1784POPC   GL225130   1.811  42.475   9.133
 1784POPC   C1A25131   2.029  42.192   8.789
 1784POPC   D2A25132   2.107  42.090   8.385
 1784POPC   C3A25133   2.191  42.404   8.099
 1784POPC   C4A25134   1.958  42.343   7.733
 1784POPC   C1B25135   1.598  42.562   8.739
 1784POPC   C2B25136   1.744  42.555   8.331
 1784POPC   C3B25137   1.838  42.800   7.996
 1784POPC   C4B25138   1.757  42.783   7.585
 1785POPC   NC325139  39.347  20.692   9.464
 1785POPC   PO425140  38.667  20.962   9.568
 1785POPC   GL125141  38.889  20.715   9.198
 1785POPC   GL225142  39.132  20.397   9.140
 1785POPC   C1A25143  39.053  20.703   8.756
 1785POPC   D2A25144  39.291  20.610   8.366
 1785POPC   C3A25145  39.098  20.713   7.971
 1785POPC   C4A25146  38.959  20.890   7.550
 1785POPC   C1B25147  39.473  20.381   8.808
 1785POPC   C2B25148  39.777  20.481   8.459
 1785POPC   C3B25149  39.667  20.481   8.004
 1785POPC   C4B25150  39.786  20.517   7.522
 1786POPC   NC325151  16.576  10.122   9.552
 1786POPC   PO425152  16.822   9.520   9.571
 1786POPC   GL125153  16.672   9.735   9.190
 1786POPC   GL225154  16.524   9.479   9.008
 1786POPC   C1A25155  16.813   9.865   8.744
 1786POPC   D2A25156  16.959   9.796   8.297
 1786POPC   C3A25157  16.712   9.782   7.875
 1786POPC   C4A25158  16.762  10.010   7.469
 1786POPC   C1B25159  16.845   9.339   8.698
 1786POPC   C2B25160  16.781   9.304   8.228
 1786POPC   C3B25161  16.951   9.319   7.797
 1786POPC   C4B25162  16.794   9.517   7.410
 1787POPC   NC325163  14.853   2.309   9.774
 1787POPC   PO425164  14.430   1.831   9.644
 1787POPC   GL125165  14.416   1.785   9.207
 1787POPC   GL225166  14.531   2.138   9.190
 1787POPC   C1A25167  14.446   1.863   8.741
 1787POPC   D2A25168  14.465   1.985   8.304
 1787POPC   C3A25169  14.241   1.752   7.998
 1787POPC   C4A25170  14.530   1.612   7.722
 1787POPC   C1B25171  14.652   2.324   8.787
 1787POPC   C2B25172  14.658   2.443   8.390
 1787POPC   C3B25173  14.672   2.434   7.986
 1787POPC   C4B25174  14.474   2.144   7.766
 1788POPC   NC325175  26.399  17.925  10.005
 1788POPC   PO425176  25.973  18.366   9.635
 1788POPC   GL125177  25.891  18.302   9.208
 1788POPC   GL225178  25.697  18.600   9.108
 1788POPC   C1A25179  25.966  18.106   8.788
 1788POPC   D2A25180  26.253  18.210   8.438
 1788POPC   C3A25181  26.129  18.077   8.014
 1788POPC   C4A25182  26.063  17.817   7.647
 1788POPC   C1B25183  26.090  18.609   8.852
 1788POPC   C2B25184  26.117  18.702   8.447
 1788POPC   C3B25185  26.079  18.594   8.017
 1788POPC   C4B25186  26.021  18.608   7.576
 1789POPC   NC325187  33.490  30.950   9.510
 1789POPC   PO425188  33.794  30.427   9.757
 1789POPC   GL125189  33.800  30.621   9.301
 1789POPC   GL225190  33.893  31.017   9.206
 1789POPC   C1A25191  33.673  30.536   8.862
 1789POPC   D2A25192  33.704  30.293   8.466
 1789POPC   C3A25193  33.693  30.455   8.046
 1789POPC   C4A25194  33.924  30.568   7.691
 1789POPC   C1B25195  33.966  30.933   8.764
 1789POPC   C2B25196  33.990  30.755   8.349
 1789POPC   C3B25197  33.808  30.973   7.996
 1789POPC   C4B25198  33.980  31.076   7.626
 1790POPC   NC325199  25.298   2.290   9.523
 1790POPC   PO425200  24.905   1.825   9.338
 1790POPC   GL125201  25.134   2.069   9.050
 1790POPC   GL225202  25.519   2.076   9.061
 1790POPC   C1A25203  25.188   1.922   8.640
 1790POPC   D2A25204  25.459   1.774   8.325
 1790POPC   C3A25205  25.193   1.877   7.995
 1790POPC   C4A25206  25.046   1.883   7.582
 1790POPC   C1B25207  25.638   2.162   8.637
 1790POPC   C2B25208  25.436   2.274   8.283
 1790POPC   C3B25209  25.456   2.307   7.880
 1790POPC   C4B25210  25.550   2.011   7.665
 1791POPC   NC325211   5.479  25.636   9.455
 1791POPC   PO425212   5.420  24.996   9.531
 1791POPC   GL125213   5.640  25.097   9.162
 1791POPC   GL225214   5.828  25.418   9.150
 1791POPC   C1A25215   5.849  25.071   8.778
 1791POPC   D2A25216   6.107  25.086   8.432
 1791POPC   C3A25217   5.809  25.157   8.121
 1791POPC   C4A25218   5.833  24.963   7.758
 1791POPC   C1B25219   5.578  25.623   8.820
 1791POPC   C2B25220   5.449  25.586   8.386
 1791POPC   C3B25221   5.618  25.710   8.003
 1791POPC   C4B25222   5.835  25.501   7.730
 1792POPC   NC325223  34.204  11.970   9.344
 1792POPC   PO425224  34.826  12.140   9.538
 1792POPC   GL125225  34.878  12.023   9.075
 1792POPC   GL225226  34.522  12.076   8.961
 1792POPC   C1A25227  34.887  12.108   8.593
 1792POPC   D2A25228  34.680  12.431   8.302
 1792POPC   C3A25229  34.629  12.289   7.850
 1792POPC   C4A25230  34.268  12.184   7.524
 1792POPC   C1B25231  34.190  11.855   8.691
 1792POPC   C2B25232  34.349  11.681   8.307
 1792POPC   C3B25233  34.675  11.804   8.011
 1792POPC   C4B25234  34.683  11.888   7.528
 1793POPC   NC325235  11.104  17.109   9.414
 1793POPC   PO425236  11.483  17.741   9.558
 1793POPC   GL125237  11.347  17.512   9.209
 1793POPC   GL225238  11.044  17.672   9.222
 1793POPC   C1A25239  11.153  17.353   8.820
 1793POPC   D2A25240  11.210  17.165   8.437
 1793POPC   C3A25241  11.157  17.232   8.040
 1793POPC   C4A25242  11.476  17.384   7.773
 1793POPC   C1B25243  11.256  17.867   8.822
 1793POPC   C2B25244  11.267  17.944   8.334
 1793POPC   C3B25245  11.122  17.735   7.904
 1793POPC   C4B25246  11.282  17.699   7.429
 1794POPC   NC325247  33.834  34.159   9.656
 1794POPC   PO425248  33.704  34.729   9.830
 1794POPC   GL125249  33.782  34.615   9.366
 1794POPC   GL225250  33.495  34.667   9.117
 1794POPC   C1A25251  33.952  34.534   8.932
 1794POPC   D2A25252  34.013  34.749   8.537
 1794POPC   C3A25253  33.871  34.557   8.173
 1794POPC   C4A25254  33.738  34.781   7.786
 1794POPC   C1B25255  33.435  34.372   8.762
 1794POPC   C2B25256  33.409  34.333   8.310
 1794POPC   C3B25257  33.522  34.329   7.869
 1794POPC   C4B25258  33.274  34.476   7.509
 1795POPC   NC325259  38.588   2.336   9.410
 1795POPC   PO425260  38.175   1.683   9.421
 1795POPC   GL125261  38.428   1.903   9.183
 1795POPC   GL225262  38.167   2.173   9.152
 1795POPC   C1A25263  38.642   1.925   8.798
 1795POPC   D2A25264  38.498   1.865   8.377
 1795POPC   C3A25265  38.757   1.806   7.950
 1795POPC   C4A25266  38.608   1.711   7.508
 1795POPC   C1B25267  38.121   1.958   8.766
 1795POPC   C2B25268  38.156   2.203   8.398
 1795POPC   C3B25269  38.263   2.026   7.964
 1795POPC   C4B25270  38.115   1.722   7.670
 1796POPC   NC325271  22.581  39.435   9.385
 1796POPC   PO425272  22.091  38.981   9.384
 1796POPC   GL125273  22.385  39.044   9.074
 1796POPC   GL225274  22.224  39.368   9.027
 1796POPC   C1A25275  22.253  38.983   8.633
 1796POPC   D2A25276  21.910  38.892   8.326
 1796POPC   C3A25277  22.092  39.071   7.953
 1796POPC   C4A25278  21.939  39.397   7.694
 1796POPC   C1B25279  22.546  39.414   8.713
 1796POPC   C2B25280  22.532  39.303   8.285
 1796POPC   C3B25281  22.390  39.482   7.912
 1796POPC   C4B25282  22.381  39.314   7.477
 1797POPC   NC325283  19.468  25.954   9.601
 1797POPC   PO425284  19.975  25.672   9.686
 1797POPC   GL125285  19.731  25.924   9.188
 1797POPC   GL225286  19.999  26.063   8.944
 1797POPC   C1A25287  19.507  26.098   8.806
 1797POPC   D2A25288  19.391  26.288   8.390
 1797POPC   C3A25289  19.520  26.157   7.952
 1797POPC   C4A25290  19.529  26.111   7.477
 1797POPC   C1B25291  20.353  26.327   8.791
 1797POPC   C2B25292  20.500  26.430   8.380
 1797POPC   C3B25293  20.342  26.321   7.965
 1797POPC   C4B25294  19.994  26.128   7.719
 1798POPC   NC325295  20.098  13.722   9.526
 1798POPC   PO425296  20.711  13.786   9.584
 1798POPC   GL125297  20.522  13.763   9.216
 1798POPC   GL225298  20.556  13.389   9.206
 1798POPC   C1A25299  20.401  13.669   8.797
 1798POPC   D2A25300  20.332  13.444   8.429
 1798POPC   C3A25301  20.310  13.676   8.049
 1798POPC   C4A25302  20.497  13.604   7.660
 1798POPC   C1B25303  20.639  13.197   8.794
 1798POPC   C2B25304  20.884  13.171   8.443
 1798POPC   C3B25305  20.745  13.351   8.061
 1798POPC   C4B25306  21.025  13.166   7.749
 1799POPC   NC325307   8.621  32.233   9.318
 1799POPC   PO425308   9.164  32.632   9.458
 1799POPC   GL125309   9.175  32.324   9.113
 1799POPC   GL225310   9.087  31.972   9.159
 1799POPC   C1A25311   8.933  32.331   8.719
 1799POPC   D2A25312   8.628  32.500   8.412
 1799POPC   C3A25313   8.833  32.537   8.023
 1799POPC   C4A25314   9.219  32.404   7.816
 1799POPC   C1B25315   8.890  31.806   8.781
 1799POPC   C2B25316   8.793  31.970   8.371
 1799POPC   C3B25317   8.981  31.879   7.980
 1799POPC   C4B25318   9.075  31.855   7.530
 1800POPC   NC325319  39.668  34.301   9.847
 1800POPC   PO425320  40.045  34.719   9.434
 1800POPC   GL125321  39.946  34.721   9.047
 1800POPC   GL225322  39.660  34.909   9.091
 1800POPC   C1A25323  39.898  34.498   8.640
 1800POPC   D2A25324  39.742  34.336   8.241
 1800POPC   C3A25325  40.034  34.444   7.908
 1800POPC   C4A25326  40.213  34.810   7.695
 1800POPC   C1B25327  39.604  34.904   8.697
 1800POPC   C2B25328  39.678  34.858   8.309
 1800POPC   C3B25329  39.633  34.758   7.918
 1800POPC   C4B25330  39.758  34.731   7.490
 1801POPC   NC325331   8.209  44.396   9.603
 1801POPC   PO425332   7.999  44.953   9.670
 1801POPC   GL125333   8.097  44.738   9.173
 1801POPC   GL225334   8.329   0.021   8.993
 1801POPC   C1A25335   8.296  44.611   8.725
 1801POPC   D2A25336   8.154  44.699   8.309
 1801POPC   C3A25337   8.423  44.823   8.014
 1801POPC   C4A25338   8.451  44.482   7.819
 1801POPC   C1B25339   7.954   0.009   8.668
 1801POPC   C2B25340   7.823   0.100   8.244
 1801POPC   C3B25341   7.742   0.114   7.799
 1801POPC   C4B25342   7.986   0.131   7.396
 1802POPC   NC325343   7.742  19.496   9.472
 1802POPC   PO425344   7.422  20.135   9.527
 1802POPC   GL125345   7.543  19.870   9.178
 1802POPC   GL225346   7.785  20.154   9.145
 1802POPC   C1A25347   7.341  19.648   8.794
 1802POPC   D2A25348   7.272  19.879   8.410
 1802POPC   C3A25349   7.069  19.745   8.032
 1802POPC   C4A25350   7.258  19.447   7.776
 1802POPC   C1B25351   7.623  20.098   8.734
 1802POPC   C2B25352   7.785  20.021   8.331
 1802POPC   C3B25353   7.508  20.114   8.013
 1802POPC   C4B25354   7.277  20.066   7.675
 1803POPC   NC325355  10.731  10.262   9.686
 1803POPC   PO425356  10.473  10.845   9.412
 1803POPC   GL125357  10.690  10.777   9.079
 1803POPC   GL225358  10.839  10.490   9.230
 1803POPC   C1A25359  10.477  10.724   8.706
 1803POPC   D2A25360  10.242  10.792   8.360
 1803POPC   C3A25361  10.403  10.728   8.003
 1803POPC   C4A25362  10.209  10.502   7.672
 1803POPC   C1B25363  10.801  10.320   8.819
 1803POPC   C2B25364  10.595  10.314   8.409
 1803POPC   C3B25365  10.565  10.261   7.990
 1803POPC   C4B25366  10.728  10.527   7.666
 1804POPC   NC325367  44.211   6.573   9.329
 1804POPC   PO425368  44.847   6.671   9.388
 1804POPC   GL125369  44.637   6.621   9.033
 1804POPC   GL225370  44.356   6.810   8.903
 1804POPC   C1A25371  44.763   6.631   8.622
 1804POPC   D2A25372  44.574   6.651   8.260
 1804POPC   C3A25373  44.831   6.472   7.959
 1804POPC   C4A25374  44.852   6.479   7.493
 1804POPC   C1B25375  44.216   6.510   8.622
 1804POPC   C2B25376  44.079   6.562   8.206
 1804POPC   C3B25377  44.339   6.529   7.821
 1804POPC   C4B25378  44.373   6.385   7.407
 1805POPC   NC325379   4.542  11.157   9.636
 1805POPC   PO425380   4.066  11.421   9.205
 1805POPC   GL125381   4.485  11.301   9.148
 1805POPC   GL225382   4.571  11.593   9.333
 1805POPC   C1A25383   4.538  11.183   8.733
 1805POPC   D2A25384   4.234  11.411   8.463
 1805POPC   C3A25385   4.169  11.204   8.087
 1805POPC   C4A25386   4.272  11.115   7.651
 1805POPC   C1B25387   4.669  11.720   8.905
 1805POPC   C2B25388   4.734  11.588   8.517
 1805POPC   C3B25389   4.666  11.277   8.220
 1805POPC   C4B25390   4.506  11.516   7.882
 1806POPC   NC325391  26.276  17.222   9.472
 1806POPC   PO425392  25.997  17.825   9.472
 1806POPC   GL125393  26.121  17.590   9.147
 1806POPC   GL225394  25.854  17.342   9.154
 1806POPC   C1A25395  26.177  17.514   8.731
 1806POPC   D2A25396  26.042  17.730   8.411
 1806POPC   C3A25397  26.214  17.521   8.127
 1806POPC   C4A25398  26.335  17.373   7.780
 1806POPC   C1B25399  25.688  17.658   8.841
 1806POPC   C2B25400  25.565  17.880   8.456
 1806POPC   C3B25401  25.678  17.804   8.025
 1806POPC   C4B25402  25.810  17.425   7.825
 1807POPC   NC325403  40.368  20.864   9.437
 1807POPC   PO425404  40.577  20.255   9.492
 1807POPC   GL125405  40.603  20.449   9.093
 1807POPC   GL225406  40.941  20.398   8.901
 1807POPC   C1A25407  40.544  20.698   8.749
 1807POPC   D2A25408  40.739  20.615   8.376
 1807POPC   C3A25409  40.489  20.745   8.043
 1807POPC   C4A25410  40.532  20.821   7.626
 1807POPC   C1B25411  41.036  20.836   8.761
 1807POPC   C2B25412  41.064  21.035   8.389
 1807POPC   C3B25413  40.965  20.895   7.999
 1807POPC   C4B25414  41.206  21.018   7.685
 1808POPC   NC325415  20.915  27.254   9.766
 1808POPC   PO425416  20.553  26.686   9.482
 1808POPC   GL125417  20.815  26.614   9.100
 1808POPC   GL225418  20.837  26.947   9.058
 1808POPC   C1A25419  20.883  26.679   8.650
 1808POPC   D2A25420  20.660  26.967   8.375
 1808POPC   C3A25421  20.679  26.751   8.000
 1808POPC   C4A25422  21.064  26.541   7.881
 1808POPC   C1B25423  20.422  26.833   8.858
 1808POPC   C2B25424  20.186  26.826   8.512
 1808POPC   C3B25425  20.174  26.985   8.110
 1808POPC   C4B25426  20.317  26.969   7.697
 1809POPC   NC325427   4.628  43.422   9.852
 1809POPC   PO425428   4.042  43.132   9.667
 1809POPC   GL125429   4.113  43.240   9.202
 1809POPC   GL225430   4.436  43.120   9.181
 1809POPC   C1A25431   4.148  42.983   8.780
 1809POPC   D2A25432   4.441  42.703   8.526
 1809POPC   C3A25433   4.446  42.784   8.094
 1809POPC   C4A25434   4.300  43.011   7.721
 1809POPC   C1B25435   4.519  43.313   8.762
 1809POPC   C2B25436   4.628  43.169   8.389
 1809POPC   C3B25437   4.581  43.338   7.994
 1809POPC   C4B25438   4.599  43.388   7.520
 1810POPC   NC325439  12.292  37.468   9.763
 1810POPC   PO425440  11.567  37.345   9.671
 1810POPC   GL125441  11.908  37.411   9.328
 1810POPC   GL225442  12.261  37.427   9.212
 1810POPC   C1A25443  11.961  37.728   8.961
 1810POPC   D2A25444  11.882  37.658   8.525
 1810POPC   C3A25445  12.081  37.707   8.142
 1810POPC   C4A25446  12.168  38.033   7.925
 1810POPC   C1B25447  12.372  37.507   8.745
 1810POPC   C2B25448  12.507  37.790   8.382
 1810POPC   C3B25449  12.546  37.687   7.927
 1810POPC   C4B25450  12.275  37.600   7.592
 1811POPC   NC325451  28.681  24.571   9.400
 1811POPC   PO425452  28.056  24.425   9.205
 1811POPC   GL125453  28.163  24.700   8.896
 1811POPC   GL225454  28.477  24.816   9.015
 1811POPC   C1A25455  28.444  24.535   8.561
 1811POPC   D2A25456  28.648  24.233   8.285
 1811POPC   C3A25457  28.404  24.322   7.913
 1811POPC   C4A25458  28.213  24.704   7.766
 1811POPC   C1B25459  28.475  25.054   8.638
 1811POPC   C2B25460  28.409  24.948   8.205
 1811POPC   C3B25461  28.691  24.753   7.911
 1811POPC   C4B25462  28.932  24.404   7.881
 1812POPC   NC325463  43.594  39.789   9.533
 1812POPC   PO425464  42.943  39.836   9.613
 1812POPC   GL125465  42.997  39.958   9.198
 1812POPC   GL225466  43.308  40.027   9.154
 1812POPC   C1A25467  42.989  39.859   8.802
 1812POPC   D2A25468  42.898  40.112   8.477
 1812POPC   C3A25469  43.066  39.897   8.157
 1812POPC   C4A25470  42.838  39.924   7.828
 1812POPC   C1B25471  43.280  40.290   8.783
 1812POPC   C2B25472  43.347  40.318   8.358
 1812POPC   C3B25473  43.049  40.370   8.014
 1812POPC   C4B25474  43.232  40.265   7.660
 1813POPC   NC325475   0.598  30.639   9.412
 1813POPC   PO425476   0.319  31.012   9.960
 1813POPC   GL125477   0.251  31.020   9.383
 1813POPC   GL225478   0.595  31.073   9.182
 1813POPC   C1A25479   0.236  30.952   8.858
 1813POPC   D2A25480   0.138  30.773   8.433
 1813POPC   C3A25481   0.368  30.796   8.048
 1813POPC   C4A25482   0.325  31.141   7.793
 1813POPC   C1B25483   0.733  30.822   8.814
 1813POPC   C2B25484   0.958  30.705   8.462
 1813POPC   C3B25485   0.879  30.802   8.054
 1813POPC   C4B25486   0.753  30.938   7.649
 1814POPC   NC325487  15.934  15.175   9.551
 1814POPC   PO425488  16.495  15.500   9.703
 1814POPC   GL125489  16.077  15.553   9.264
 1814POPC   GL225490  15.970  15.108   9.068
 1814POPC   C1A25491  15.875  15.510   8.828
 1814POPC   D2A25492  16.137  15.480   8.461
 1814POPC   C3A25493  16.009  15.395   8.044
 1814POPC   C4A25494  15.685  15.359   7.745
 1814POPC   C1B25495  16.207  15.025   8.687
 1814POPC   C2B25496  15.985  14.961   8.325
 1814POPC   C3B25497  15.846  14.914   7.929
 1814POPC   C4B25498  16.206  15.043   7.728
 1815POPC   NC325499  14.144  19.643   9.442
 1815POPC   PO425500  14.764  19.811   9.417
 1815POPC   GL125501  14.491  19.963   9.095
 1815POPC   GL225502  14.135  20.045   9.081
 1815POPC   C1A25503  14.403  20.103   8.670
 1815POPC   D2A25504  14.174  19.910   8.360
 1815POPC   C3A25505  14.244  19.978   7.948
 1815POPC   C4A25506  14.416  19.815   7.576
 1815POPC   C1B25507  13.966  19.724   8.793
 1815POPC   C2B25508  14.078  19.417   8.478
 1815POPC   C3B25509  14.026  19.499   8.065
 1815POPC   C4B25510  13.824  19.747   7.797
 1816POPC   NC325511  34.627  15.519   9.267
 1816POPC   PO425512  34.195  15.956   9.597
 1816POPC   GL125513  34.437  15.994   9.187
 1816POPC   GL225514  34.810  16.043   9.207
 1816POPC   C1A25515  34.521  15.909   8.737
 1816POPC   D2A25516  34.385  16.071   8.325
 1816POPC   C3A25517  34.544  15.845   7.971
 1816POPC   C4A25518  34.827  15.576   7.839
 1816POPC   C1B25519  34.771  16.348   8.849
 1816POPC   C2B25520  34.893  16.367   8.401
 1816POPC   C3B25521  34.705  16.328   7.967
 1816POPC   C4B25522  34.841  16.094   7.587
 1817POPC   NC325523  39.714  23.244   9.428
 1817POPC   PO425524  40.145  22.660   9.473
 1817POPC   GL125525  40.009  22.899   9.151
 1817POPC   GL225526  40.265  23.148   9.197
 1817POPC   C1A25527  39.824  22.868   8.731
 1817POPC   D2A25528  39.844  22.973   8.293
 1817POPC   C3A25529  39.710  22.656   8.000
 1817POPC   C4A25530  39.852  22.588   7.582
 1817POPC   C1B25531  40.178  23.259   8.803
 1817POPC   C2B25532  39.971  23.459   8.461
 1817POPC   C3B25533  39.870  23.425   8.063
 1817POPC   C4B25534  39.927  23.083   7.785
 1818POPC   NC325535  30.302  10.147   9.558
 1818POPC   PO425536  30.551   9.526   9.413
 1818POPC   GL125537  30.675   9.663   9.048
 1818POPC   GL225538  30.681  10.010   9.132
 1818POPC   C1A25539  30.889   9.500   8.696
 1818POPC   D2A25540  31.084   9.701   8.389
 1818POPC   C3A25541  30.801   9.849   8.075
 1818POPC   C4A25542  30.682   9.545   7.771
 1818POPC   C1B25543  30.765  10.004   8.689
 1818POPC   C2B25544  30.603  10.275   8.409
 1818POPC   C3B25545  30.498  10.294   8.023
 1818POPC   C4B25546  30.591  10.144   7.632
 1819POPC   NC325547  22.598   0.622   9.594
 1819POPC   PO425548  23.160   0.837   9.370
 1819POPC   GL125549  22.908   0.617   9.133
 1819POPC   GL225550  23.074   0.312   9.139
 1819POPC   C1A25551  23.000   0.646   8.711
 1819POPC   D2A25552  22.930   0.583   8.294
 1819POPC   C3A25553  23.238   0.682   8.023
 1819POPC   C4A25554  23.154   0.627   7.600
 1819POPC   C1B25555  22.988   0.127   8.740
 1819POPC   C2B25556  23.079   0.087   8.322
 1819POPC   C3B25557  23.041   0.207   7.922
 1819POPC   C4B25558  22.800  44.967   7.656
 1820POPC   NC325559  16.396   9.289   9.491
 1820POPC   PO425560  16.749   8.742   9.460
 1820POPC   GL125561  16.696   9.020   9.154
 1820POPC   GL225562  17.011   9.167   9.187
 1820POPC   C1A25563  16.525   8.931   8.733
 1820POPC   D2A25564  16.324   8.728   8.382
 1820POPC   C3A25565  16.383   8.899   7.979
 1820POPC   C4A25566  16.600   8.587   7.750
 1820POPC   C1B25567  17.017   8.791   8.860
 1820POPC   C2B25568  17.001   8.893   8.461
 1820POPC   C3B25569  16.910   8.841   8.045
 1820POPC   C4B25570  17.049   8.814   7.605
 1821POPC   NC325571  43.941   6.322   9.867
 1821POPC   PO425572  43.928   6.913   9.522
 1821POPC   GL125573  43.692   6.616   9.265
 1821POPC   GL225574  43.570   6.896   9.081
 1821POPC   C1A25575  43.583   6.426   8.856
 1821POPC   D2A25576  43.472   6.592   8.479
 1821POPC   C3A25577  43.567   6.446   8.077
 1821POPC   C4A25578  43.847   6.621   7.756
 1821POPC   C1B25579  43.833   6.910   8.703
 1821POPC   C2B25580  43.979   7.137   8.322
 1821POPC   C3B25581  44.314   7.100   8.012
 1821POPC   C4B25582  44.252   6.959   7.579
 1822POPC   NC325583  17.468  39.496   9.510
 1822POPC   PO425584  17.782  38.912   9.498
 1822POPC   GL125585  17.639  39.153   9.158
 1822POPC   GL225586  17.275  39.181   9.153
 1822POPC   C1A25587  17.752  39.276   8.765
 1822POPC   D2A25588  17.557  39.265   8.381
 1822POPC   C3A25589  17.685  39.303   7.982
 1822POPC   C4A25590  17.481  39.447   7.626
 1822POPC   C1B25591  17.329  38.963   8.759
 1822POPC   C2B25592  17.413  38.773   8.395
 1822POPC   C3B25593  17.288  38.988   8.037
 1822POPC   C4B25594  17.197  39.043   7.641
 1823POPC   NC325595   0.650  32.207   9.525
 1823POPC   PO425596  44.991  32.333   9.329
 1823POPC   GL125597   0.233  32.024   9.056
 1823POPC   GL225598   0.623  32.049   9.039
 1823POPC   C1A25599   0.344  31.836   8.661
 1823POPC   D2A25600   0.628  32.039   8.380
 1823POPC   C3A25601   0.460  32.168   7.991
 1823POPC   C4A25602   0.200  32.020   7.680
 1823POPC   C1B25603   0.745  32.395   8.739
 1823POPC   C2B25604   0.948  32.510   8.334
 1823POPC   C3B25605   0.914  32.370   7.914
 1823POPC   C4B25606   0.567  32.541   7.644
 1824POPC   NC325607   4.078  42.757   9.394
 1824POPC   PO425608   4.521  42.273   9.483
 1824POPC   GL125609   4.256  42.354   9.123
 1824POPC   GL225610   4.443  42.621   9.024
 1824POPC   C1A25611   4.124  42.217   8.709
 1824POPC   D2A25612   4.260  42.005   8.366
 1824POPC   C3A25613   4.061  42.178   8.059
 1824POPC   C4A25614   4.107  42.229   7.620
 1824POPC   C1B25615   4.619  42.274   8.751
 1824POPC   C2B25616   4.713  42.269   8.337
 1824POPC   C3B25617   4.548  42.283   7.956
 1824POPC   C4B25618   4.517  42.535   7.626
 1825POPC   NC325619  13.289   3.203   9.437
 1825POPC   PO425620  12.924   3.736   9.578
 1825POPC   GL125621  12.774   3.637   9.156
 1825POPC   GL225622  12.859   3.322   9.175
 1825POPC   C1A25623  12.648   3.506   8.741
 1825POPC   D2A25624  12.765   3.308   8.375
 1825POPC   C3A25625  12.673   3.566   8.019
 1825POPC   C4A25626  12.586   3.664   7.587
 1825POPC   C1B25627  13.138   3.361   8.837
 1825POPC   C2B25628  13.324   3.351   8.491
 1825POPC   C3B25629  13.201   3.396   8.105
 1825POPC   C4B25630  13.042   3.390   7.724
 1826POPC   NC325631  15.529  40.277   9.296
 1826POPC   PO425632  15.758  39.723   9.530
 1826POPC   GL125633  15.889  39.730   9.118
 1826POPC   GL225634  15.949  40.085   9.090
 1826POPC   C1A25635  15.732  39.842   8.712
 1826POPC   D2A25636  15.880  39.998   8.303
 1826POPC   C3A25637  15.866  39.742   7.931
 1826POPC   C4A25638  15.832  39.966   7.536
 1826POPC   C1B25639  15.806  40.346   8.713
 1826POPC   C2B25640  15.524  40.377   8.348
 1826POPC   C3B25641  15.551  40.183   7.916
 1826POPC   C4B25642  15.419  40.240   7.451
 1827POPC   NC325643  24.780  17.567   9.456
 1827POPC   PO425644  24.205  17.793   9.444
 1827POPC   GL125645  24.366  17.520   9.114
 1827POPC   GL225646  24.714  17.364   8.996
 1827POPC   C1A25647  24.237  17.381   8.772
 1827POPC   D2A25648  24.299  17.627   8.448
 1827POPC   C3A25649  24.250  17.377   8.122
 1827POPC   C4A25650  24.509  17.330   7.767
 1827POPC   C1B25651  24.683  17.782   8.803
 1827POPC   C2B25652  24.708  17.956   8.396
 1827POPC   C3B25653  24.600  17.757   8.052
 1827POPC   C4B25654  24.831  17.704   7.679
 1828POPC   NC325655  20.573  15.256   9.679
 1828POPC   PO425656  21.207  15.133   9.684
 1828POPC   GL125657  20.903  15.069   9.255
 1828POPC   GL225658  20.592  15.228   9.118
 1828POPC   C1A25659  20.825  15.018   8.735
 1828POPC   D2A25660  20.841  14.904   8.264
 1828POPC   C3A25661  20.761  15.096   7.834
 1828POPC   C4A25662  20.797  15.347   7.391
 1828POPC   C1B25663  20.511  15.439   8.685
 1828POPC   C2B25664  20.613  15.401   8.219
 1828POPC   C3B25665  20.465  15.500   7.765
 1828POPC   C4B25666  20.316  15.520   7.315
 1829POPC   NC325667  17.467  41.069   9.457
 1829POPC   PO425668  17.083  40.550   9.489
 1829POPC   GL125669  17.374  40.635   9.153
 1829POPC   GL225670  17.663  40.417   9.150
 1829POPC   C1A25671  17.515  40.920   8.828
 1829POPC   D2A25672  17.436  41.129   8.453
 1829POPC   C3A25673  17.351  40.874   8.098
 1829POPC   C4A25674  17.654  40.844   7.763
 1829POPC   C1B25675  17.531  40.332   8.748
 1829POPC   C2B25676  17.375  40.419   8.335
 1829POPC   C3B25677  17.615  40.353   7.951
 1829POPC   C4B25678  17.623  40.406   7.515
 1830POPC   NC325679  16.301   4.438   9.656
 1830POPC   PO425680  16.972   4.259   9.605
 1830POPC   GL125681  16.786   4.149   9.197
 1830POPC   GL225682  16.582   4.419   9.209
 1830POPC   C1A25683  16.876   4.330   8.779
 1830POPC   D2A25684  17.087   4.355   8.399
 1830POPC   C3A25685  16.918   4.542   8.048
 1830POPC   C4A25686  16.705   4.217   7.855
 1830POPC   C1B25687  16.372   4.284   8.834
 1830POPC   C2B25688  16.482   4.349   8.396
 1830POPC   C3B25689  16.238   4.197   8.080
 1830POPC   C4B25690  16.237   4.216   7.642
 1831POPC   NC325691  26.687  27.044  10.031
 1831POPC   PO425692  26.961  26.814   9.471
 1831POPC   GL125693  26.834  26.480   9.242
 1831POPC   GL225694  26.510  26.515   9.137
 1831POPC   C1A25695  26.950  26.477   8.845
 1831POPC   D2A25696  26.853  26.531   8.444
 1831POPC   C3A25697  27.142  26.768   8.202
 1831POPC   C4A25698  26.999  26.844   7.818
 1831POPC   C1B25699  26.606  26.882   8.869
 1831POPC   C2B25700  26.846  27.021   8.542
 1831POPC   C3B25701  26.635  26.903   8.138
 1831POPC   C4B25702  26.497  26.813   7.680
 1832POPC   NC325703  35.068  27.376   9.459
 1832POPC   PO425704  34.568  27.868   9.568
 1832POPC   GL125705  34.684  27.611   9.220
 1832POPC   GL225706  34.603  27.237   9.240
 1832POPC   C1A25707  34.622  27.594   8.776
 1832POPC   D2A25708  34.715  27.669   8.350
 1832POPC   C3A25709  34.419  27.886   8.130
 1832POPC   C4A25710  34.245  27.757   7.758
 1832POPC   C1B25711  34.681  27.063   8.817
 1832POPC   C2B25712  34.618  27.183   8.414
 1832POPC   C3B25713  34.479  27.318   8.022
 1832POPC   C4B25714  34.452  27.282   7.602
 1833POPC   NC325715  18.133  10.271   9.860
 1833POPC   PO425716  18.392  10.687   9.225
 1833POPC   GL125717  18.402  10.402   8.921
 1833POPC   GL225718  18.085  10.315   8.886
 1833POPC   C1A25719  18.377  10.392   8.471
 1833POPC   D2A25720  18.387  10.799   8.278
 1833POPC   C3A25721  18.628  10.744   7.926
 1833POPC   C4A25722  18.487  10.383   7.673
 1833POPC   C1B25723  17.952  10.656   8.641
 1833POPC   C2B25724  17.904  10.638   8.215
 1833POPC   C3B25725  18.101  10.363   7.996
 1833POPC   C4B25726  18.018  10.160   7.627
 1834POPC   NC325727  24.804  42.533   9.566
 1834POPC   PO425728  24.105  42.240   9.419
 1834POPC   GL125729  24.300  42.168   9.022
 1834POPC   GL225730  24.597  42.337   9.139
 1834POPC   C1A25731  24.378  42.344   8.593
 1834POPC   D2A25732  24.563  42.614   8.254
 1834POPC   C3A25733  24.370  42.451   7.918
 1834POPC   C4A25734  24.288  42.033   7.989
 1834POPC   C1B25735  24.793  42.104   8.835
 1834POPC   C2B25736  24.970  42.126   8.427
 1834POPC   C3B25737  24.803  42.057   8.032
 1834POPC   C4B25738  24.805  42.315   7.711
 1835POPC   NC325739   2.936  25.842   9.400
 1835POPC   PO425740   2.275  25.903   9.670
 1835POPC   GL125741   2.396  25.928   9.229
 1835POPC   GL225742   2.595  26.250   9.217
 1835POPC   C1A25743   2.633  25.882   8.810
 1835POPC   D2A25744   2.958  26.108   8.544
 1835POPC   C3A25745   2.917  26.071   8.082
 1835POPC   C4A25746   2.548  25.875   7.873
 1835POPC   C1B25747   2.489  26.371   8.781
 1835POPC   C2B25748   2.499  26.261   8.343
 1835POPC   C3B25749   2.567  26.430   7.917
 1835POPC   C4B25750   2.591  26.244   7.513
 1836POPC   NC325751  10.904   3.722   9.635
 1836POPC   PO425752  10.439   3.239   9.456
 1836POPC   GL125753  10.535   3.557   9.183
 1836POPC   GL225754  10.214   3.681   9.161
 1836POPC   C1A25755  10.579   3.415   8.752
 1836POPC   D2A25756  10.672   3.627   8.394
 1836POPC   C3A25757  10.569   3.349   8.074
 1836POPC   C4A25758  10.776   3.276   7.689
 1836POPC   C1B25759  10.350   3.859   8.784
 1836POPC   C2B25760  10.353   4.033   8.383
 1836POPC   C3B25761  10.439   3.868   7.975
 1836POPC   C4B25762  10.464   4.083   7.582
 1837POPC   NC325763  22.353  28.494   9.616
 1837POPC   PO425764  21.642  28.333   9.661
 1837POPC   GL125765  21.933  28.386   9.326
 1837POPC   GL225766  22.047  28.050   9.204
 1837POPC   C1A25767  21.950  28.504   8.898
 1837POPC   D2A25768  21.889  28.435   8.428
 1837POPC   C3A25769  22.242  28.535   8.159
 1837POPC   C4A25770  22.237  28.548   7.717
 1837POPC   C1B25771  22.008  28.029   8.752
 1837POPC   C2B25772  22.230  28.032   8.350
 1837POPC   C3B25773  22.158  28.075   7.887
 1837POPC   C4B25774  22.014  28.188   7.450
 1838POPC   NC325775   5.700  12.491   9.532
 1838POPC   PO425776   6.226  12.027   9.477
 1838POPC   GL125777   5.946  12.207   9.183
 1838POPC   GL225778   5.582  12.084   9.210
 1838POPC   C1A25779   6.029  12.329   8.782
 1838POPC   D2A25780   6.165  12.100   8.440
 1838POPC   C3A25781   6.147  12.295   8.076
 1838POPC   C4A25782   6.033  12.236   7.649
 1838POPC   C1B25783   5.675  11.920   8.800
 1838POPC   C2B25784   5.635  12.036   8.379
 1838POPC   C3B25785   5.636  12.242   7.991
 1838POPC   C4B25786   5.617  11.926   7.710
 1839POPC   NC325787  37.340  10.952   9.568
 1839POPC   PO425788  37.949  11.169   9.424
 1839POPC   GL125789  37.690  10.804   9.191
 1839POPC   GL225790  37.689  10.406   9.076
 1839POPC   C1A25791  37.580  10.747   8.746
 1839POPC   D2A25792  37.909  10.832   8.452
 1839POPC   C3A25793  37.733  10.854   8.083
 1839POPC   C4A25794  37.505  10.643   7.829
 1839POPC   C1B25795  37.909  10.350   8.662
 1839POPC   C2B25796  37.703  10.365   8.237
 1839POPC   C3B25797  37.813  10.248   7.796
 1839POPC   C4B25798  38.004  10.196   7.385
 1840POPC   NC325799  17.566  28.653   9.493
 1840POPC   PO425800  17.195  28.076   9.548
 1840POPC   GL125801  17.162  28.150   9.134
 1840POPC   GL225802  17.256  28.455   9.162
 1840POPC   C1A25803  17.375  28.156   8.691
 1840POPC   D2A25804  17.647  28.277   8.338
 1840POPC   C3A25805  17.579  28.244   7.864
 1840POPC   C4A25806  17.740  28.351   7.400
 1840POPC   C1B25807  17.521  28.618   8.825
 1840POPC   C2B25808  17.380  28.694   8.415
 1840POPC   C3B25809  17.572  28.755   8.020
 1840POPC   C4B25810  17.407  28.668   7.629
 1841POPC   NC325811   3.187  40.340   9.246
 1841POPC   PO425812   3.709  39.945   9.493
 1841POPC   GL125813   3.838  40.051   9.116
 1841POPC   GL225814   3.692  40.382   9.170
 1841POPC   C1A25815   3.542  39.922   8.812
 1841POPC   D2A25816   3.333  40.086   8.483
 1841POPC   C3A25817   3.247  40.029   8.055
 1841POPC   C4A25818   3.396  39.941   7.641
 1841POPC   C1B25819   3.630  40.444   8.735
 1841POPC   C2B25820   3.562  40.477   8.284
 1841POPC   C3B25821   3.440  40.446   7.814
 1841POPC   C4B25822   3.395  40.591   7.371
 1842POPC   NC325823   8.461  24.214   9.649
 1842POPC   PO425824   7.901  24.617   9.449
 1842POPC   GL125825   8.223  24.566   9.141
 1842POPC   GL225826   8.393  24.253   9.108
 1842POPC   C1A25827   8.481  24.627   8.781
 1842POPC   D2A25828   8.555  24.842   8.419
 1842POPC   C3A25829   8.223  24.850   8.126
 1842POPC   C4A25830   8.253  24.647   7.731
 1842POPC   C1B25831   8.147  24.219   8.714
 1842POPC   C2B25832   8.269  24.365   8.316
 1842POPC   C3B25833   8.342  24.186   7.924
 1842POPC   C4B25834   8.378  24.099   7.472
 1843POPC   NC325835  42.769  11.177   9.513
 1843POPC   PO425836  42.908  11.844   9.554
 1843POPC   GL125837  43.018  11.521   9.209
 1843POPC   GL225838  43.363  11.319   9.183
 1843POPC   C1A25839  43.025  11.290   8.819
 1843POPC   D2A25840  43.144  11.472   8.440
 1843POPC   C3A25841  43.034  11.292   8.075
 1843POPC   C4A25842  42.856  10.957   7.823
 1843POPC   C1B25843  43.520  11.189   8.732
 1843POPC   C2B25844  43.519  11.170   8.258
 1843POPC   C3B25845  43.477  11.466   7.882
 1843POPC   C4B25846  43.424  11.411   7.404
 1844POPC   NC325847  13.914  10.762   9.456
 1844POPC   PO425848  14.689  10.636   9.484
 1844POPC   GL125849  14.605  10.488   9.099
 1844POPC   GL225850  14.240  10.500   9.119
 1844POPC   C1A25851  14.581  10.364   8.680
 1844POPC   D2A25852  14.308  10.424   8.315
 1844POPC   C3A25853  14.516  10.353   7.918
 1844POPC   C4A25854  14.505  10.285   7.464
 1844POPC   C1B25855  14.202  10.718   8.753
 1844POPC   C2B25856  14.055  10.906   8.400
 1844POPC   C3B25857  14.000  10.734   8.015
 1844POPC   C4B25858  14.266  10.741   7.661
 1845POPC   NC325859  12.950   8.009   9.566
 1845POPC   PO425860  12.390   8.427   9.569
 1845POPC   GL125861  12.772   8.403   9.260
 1845POPC   GL225862  12.724   8.068   9.124
 1845POPC   C1A25863  13.029   8.383   8.858
 1845POPC   D2A25864  13.068   8.106   8.470
 1845POPC   C3A25865  13.046   8.246   8.027
 1845POPC   C4A25866  13.004   8.106   7.589
 1845POPC   C1B25867  12.571   8.120   8.726
 1845POPC   C2B25868  12.595   8.136   8.294
 1845POPC   C3B25869  12.571   8.124   7.886
 1845POPC   C4B25870  12.663   7.768   7.767
 1846POPC   NC325871  19.509  40.097   9.449
 1846POPC   PO425872  20.152  40.039   9.461
 1846POPC   GL125873  19.941  39.835   9.127
 1846POPC   GL225874  19.585  39.833   9.018
 1846POPC   C1A25875  19.963  40.022   8.734
 1846POPC   D2A25876  19.827  40.291   8.437
 1846POPC   C3A25877  19.956  40.148   8.061
 1846POPC   C4A25878  19.867  39.941   7.710
 1846POPC   C1B25879  19.597  39.645   8.602
 1846POPC   C2B25880  19.583  39.802   8.184
 1846POPC   C3B25881  19.426  39.644   7.806
 1846POPC   C4B25882  19.511  39.721   7.386
 1847POPC   NC325883  34.976  19.600   9.316
 1847POPC   PO425884  34.430  19.973   9.580
 1847POPC   GL125885  34.587  19.919   9.192
 1847POPC   GL225886  34.473  19.618   9.125
 1847POPC   C1A25887  34.753  19.978   8.782
 1847POPC   D2A25888  34.608  20.155   8.386
 1847POPC   C3A25889  34.490  19.926   8.015
 1847POPC   C4A25890  34.095  19.977   7.823
 1847POPC   C1B25891  34.346  19.709   8.699
 1847POPC   C2B25892  34.679  19.617   8.423
 1847POPC   C3B25893  34.718  19.429   8.067
 1847POPC   C4B25894  34.767  19.584   7.690
 1848POPC   NC325895  16.203  41.377   9.368
 1848POPC   PO425896  15.491  41.359   9.295
 1848POPC   GL125897  15.744  41.716   9.086
 1848POPC   GL225898  16.120  41.749   9.025
 1848POPC   C1A25899  15.790  41.678   8.620
 1848POPC   D2A25900  15.601  41.480   8.255
 1848POPC   C3A25901  15.835  41.493   7.890
 1848POPC   C4A25902  15.744  41.803   7.583
 1848POPC   C1B25903  16.242  41.447   8.702
 1848POPC   C2B25904  16.216  41.588   8.310
 1848POPC   C3B25905  16.409  41.517   7.966
 1848POPC   C4B25906  16.230  41.695   7.642
 1849POPC   NC325907   9.080  22.727   9.446
 1849POPC   PO425908   9.124  23.426   9.570
 1849POPC   GL125909   9.000  23.175   9.182
 1849POPC   GL225910   8.710  22.985   9.162
 1849POPC   C1A25911   9.032  22.971   8.756
 1849POPC   D2A25912   8.849  23.129   8.359
 1849POPC   C3A25913   9.029  23.005   7.977
 1849POPC   C4A25914   9.302  23.058   7.642
 1849POPC   C1B25915   8.616  22.656   8.848
 1849POPC   C2B25916   8.751  22.624   8.408
 1849POPC   C3B25917   8.621  22.701   7.951
 1849POPC   C4B25918   8.729  22.891   7.492
 1850POPC   NC325919  16.559  40.651   9.445
 1850POPC   PO425920  16.659  41.262   9.328
 1850POPC   GL125921  16.914  40.905   9.105
 1850POPC   GL225922  16.690  40.620   8.965
 1850POPC   C1A25923  17.056  40.751   8.665
 1850POPC   D2A25924  16.717  40.655   8.332
 1850POPC   C3A25925  16.844  40.710   7.892
 1850POPC   C4A25926  17.193  40.639   7.638
 1850POPC   C1B25927  16.580  41.013   8.714
 1850POPC   C2B25928  16.423  41.102   8.292
 1850POPC   C3B25929  16.315  40.995   7.844
 1850POPC   C4B25930  16.379  40.860   7.363
 1851POPC   NC325931  20.315  22.150   9.570
 1851POPC   PO425932  20.876  21.847   9.650
 1851POPC   GL125933  20.694  21.994   9.260
 1851POPC   GL225934  20.356  21.836   9.174
 1851POPC   C1A25935  20.579  22.312   8.929
 1851POPC   D2A25936  20.569  22.245   8.471
 1851POPC   C3A25937  20.948  22.268   8.212
 1851POPC   C4A25938  20.929  22.169   7.784
 1851POPC   C1B25939  20.607  21.828   8.794
 1851POPC   C2B25940  20.797  21.732   8.422
 1851POPC   C3B25941  20.635  21.812   8.024
 1851POPC   C4B25942  20.540  21.904   7.597
 1852POPC   NC325943  20.518  38.436   9.545
 1852POPC   PO425944  21.163  38.674   9.594
 1852POPC   GL125945  20.953  38.545   9.171
 1852POPC   GL225946  20.615  38.674   9.114
 1852POPC   C1A25947  20.741  38.388   8.741
 1852POPC   D2A25948  20.467  38.303   8.388
 1852POPC   C3A25949  20.607  38.407   7.997
 1852POPC   C4A25950  20.719  38.139   7.685
 1852POPC   C1B25951  20.493  38.877   8.748
 1852POPC   C2B25952  20.330  38.825   8.355
 1852POPC   C3B25953  20.175  38.719   7.957
 1852POPC   C4B25954  20.339  38.518   7.563
 1853POPC   NC325955  35.876  18.454   9.514
 1853POPC   PO425956  36.484  18.586   9.213
 1853POPC   GL125957  36.134  18.313   9.071
 1853POPC   GL225958  35.857  18.078   9.162
 1853POPC   C1A25959  36.195  18.171   8.660
 1853POPC   D2A25960  36.509  18.340   8.344
 1853POPC   C3A25961  36.352  18.497   7.932
 1853POPC   C4A25962  36.243  18.507   7.464
 1853POPC   C1B25963  35.662  18.101   8.784
 1853POPC   C2B25964  35.583  17.944   8.395
 1853POPC   C3B25965  35.596  18.144   8.030
 1853POPC   C4B25966  35.966  18.197   7.781
 1854POPC   NC325967  19.055   3.837   9.545
 1854POPC   PO425968  19.183   4.431   9.314
 1854POPC   GL125969  19.179   4.076   9.079
 1854POPC   GL225970  18.853   4.054   9.025
 1854POPC   C1A25971  19.326   4.097   8.659
 1854POPC   D2A25972  19.104   4.247   8.297
 1854POPC   C3A25973  19.198   4.275   7.887
 1854POPC   C4A25974  19.426   4.473   7.609
 1854POPC   C1B25975  18.846   4.383   8.721
 1854POPC   C2B25976  18.655   4.487   8.308
 1854POPC   C3B25977  18.699   4.388   7.842
 1854POPC   C4B25978  18.851   4.031   7.588
 1855POPC   NC325979  15.424   6.259   9.343
 1855POPC   PO425980  14.807   5.955   9.598
 1855POPC   GL125981  15.059   5.926   9.240
 1855POPC   GL225982  14.962   6.215   9.132
 1855POPC   C1A25983  15.260   5.737   8.890
 1855POPC   D2A25984  15.142   5.802   8.473
 1855POPC   C3A25985  14.967   5.777   8.083
 1855POPC   C4A25986  15.336   5.741   7.851
 1855POPC   C1B25987  15.212   6.253   8.738
 1855POPC   C2B25988  15.238   6.282   8.289
 1855POPC   C3B25989  15.208   6.238   7.849
 1855POPC   C4B25990  15.503   6.241   7.503
 1856POPC   NC325991  25.971   2.350   9.512
 1856POPC   PO425992  26.327   2.970   9.530
 1856POPC   GL125993  26.245   2.707   9.207
 1856POPC   GL225994  25.912   2.771   9.234
 1856POPC   C1A25995  26.177   2.818   8.790
 1856POPC   D2A25996  26.039   2.941   8.418
 1856POPC   C3A25997  26.219   2.705   8.068
 1856POPC   C4A25998  26.322   2.898   7.708
 1856POPC   C1B25999  25.767   2.558   8.910
 1856POPC   C2B26000  25.600   2.695   8.538
 1856POPC   C3B26001  25.719   2.670   8.134
 1856POPC   C4B26002  25.824   2.610   7.731
 1857POPC   NC326003   0.030   2.231   9.586
 1857POPC   PO426004  44.403   1.924   9.563
 1857POPC   GL126005  44.773   1.909   9.254
 1857POPC   GL226006  44.936   1.611   9.101
 1857POPC   C1A26007  44.765   2.160   8.872
 1857POPC   D2A26008  44.433   2.264   8.544
 1857POPC   C3A26009  44.402   2.057   8.140
 1857POPC   C4A26010  44.608   2.196   7.764
 1857POPC   C1B26011  44.589   1.684   8.775
 1857POPC   C2B26012  44.513   1.584   8.325
 1857POPC   C3B26013  44.721   1.691   7.919
 1857POPC   C4B26014  44.692   1.476   7.501
 1858POPC   NC326015  15.387  12.975   9.711
 1858POPC   PO426016  15.051  12.513   9.341
 1858POPC   GL126017  15.091  12.915   9.179
 1858POPC   GL226018  14.750  13.082   9.145
 1858POPC   C1A26019  15.227  12.926   8.766
 1858POPC   D2A26020  15.102  12.670   8.410
 1858POPC   C3A26021  15.451  12.651   8.123
 1858POPC   C4A26022  15.364  12.780   7.716
 1858POPC   C1B26023  14.706  12.968   8.755
 1858POPC   C2B26024  14.824  13.136   8.383
 1858POPC   C3B26025  15.015  13.021   8.013
 1858POPC   C4B26026  14.848  13.213   7.656
 1859POPC   NC326027  31.257  14.561   9.517
 1859POPC   PO426028  31.931  14.688   9.550
 1859POPC   GL126029  31.687  14.468   9.195
 1859POPC   GL226030  31.357  14.296   9.078
 1859POPC   C1A26031  31.709  14.510   8.751
 1859POPC   D2A26032  31.481  14.278   8.457
 1859POPC   C3A26033  31.432  14.465   8.061
 1859POPC   C4A26034  31.398  14.213   7.722
 1859POPC   C1B26035  31.041  14.191   8.718
 1859POPC   C2B26036  31.008  14.174   8.253
 1859POPC   C3B26037  30.929  14.518   7.970
 1859POPC   C4B26038  31.119  14.870   7.773
 1860POPC   NC326039  23.325  30.489   9.535
 1860POPC   PO426040  23.962  30.772   9.473
 1860POPC   GL126041  23.660  30.631   9.175
 1860POPC   GL226042  23.702  30.323   9.166
 1860POPC   C1A26043  23.474  30.744   8.814
 1860POPC   D2A26044  23.660  30.861   8.451
 1860POPC   C3A26045  23.507  31.004   8.074
 1860POPC   C4A26046  23.778  30.877   7.760
 1860POPC   C1B26047  23.532  30.226   8.756
 1860POPC   C2B26048  23.641  30.192   8.339
 1860POPC   C3B26049  23.642  30.398   7.916
 1860POPC   C4B26050  23.663  30.485   7.456
 1861POPC   NC326051  44.149  11.776   9.403
 1861POPC   PO426052  43.756  12.263   9.706
 1861POPC   GL126053  43.754  12.066   9.234
 1861POPC   GL226054  43.687  11.715   9.183
 1861POPC   C1A26055  44.018  12.106   8.817
 1861POPC   D2A26056  43.882  12.109   8.372
 1861POPC   C3A26057  44.129  12.095   7.975
 1861POPC   C4A26058  43.945  12.309   7.609
 1861POPC   C1B26059  43.803  11.645   8.744
 1861POPC   C2B26060  43.613  11.681   8.327
 1861POPC   C3B26061  43.628  11.957   7.934
 1861POPC   C4B26062  43.726  11.815   7.504
 1862POPC   NC326063  31.609  13.308   9.338
 1862POPC   PO426064  31.536  12.812   9.795
 1862POPC   GL126065  31.402  12.848   9.305
 1862POPC   GL226066  31.696  12.877   9.105
 1862POPC   C1A26067  31.325  12.784   8.805
 1862POPC   D2A26068  31.610  12.643   8.443
 1862POPC   C3A26069  31.476  12.664   7.988
 1862POPC   C4A26070  31.682  12.488   7.597
 1862POPC   C1B26071  31.707  13.172   8.718
 1862POPC   C2B26072  31.716  13.137   8.275
 1862POPC   C3B26073  31.397  13.216   7.969
 1862POPC   C4B26074  31.219  13.127   7.565
 1863POPC   NC326075  28.314   8.279   9.807
 1863POPC   PO426076  27.979   8.032   9.338
 1863POPC   GL126077  28.288   8.256   9.108
 1863POPC   GL226078  28.635   8.197   9.228
 1863POPC   C1A26079  28.290   8.460   8.714
 1863POPC   D2A26080  28.195   8.444   8.288
 1863POPC   C3A26081  28.091   8.071   8.054
 1863POPC   C4A26082  28.217   8.387   7.750
 1863POPC   C1B26083  28.701   8.156   8.766
 1863POPC   C2B26084  28.506   8.042   8.365
 1863POPC   C3B26085  28.602   8.088   7.911
 1863POPC   C4B26086  28.471   7.784   7.574
 1864POPC   NC326087  24.289  36.896   9.412
 1864POPC   PO426088  24.945  37.286   9.614
 1864POPC   GL126089  24.783  37.085   9.220
 1864POPC   GL226090  24.834  36.722   9.194
 1864POPC   C1A26091  24.567  37.116   8.783
 1864POPC   D2A26092  24.211  37.180   8.463
 1864POPC   C3A26093  24.349  37.195   8.029
 1864POPC   C4A26094  24.704  36.977   7.850
 1864POPC   C1B26095  24.865  36.686   8.734
 1864POPC   C2B26096  24.626  36.802   8.353
 1864POPC   C3B26097  24.215  36.718   8.181
 1864POPC   C4B26098  24.127  36.761   7.761
 1865POPC   NC326099  29.530  28.912   9.326
 1865POPC   PO426100  29.089  29.425   9.482
 1865POPC   GL126101  29.186  29.218   9.084
 1865POPC   GL226102  29.080  28.882   9.085
 1865POPC   C1A26103  29.357  29.224   8.648
 1865POPC   D2A26104  29.124  29.494   8.323
 1865POPC   C3A26105  29.184  29.367   7.911
 1865POPC   C4A26106  29.511  29.065   7.812
 1865POPC   C1B26107  28.877  29.056   8.696
 1865POPC   C2B26108  29.010  28.998   8.275
 1865POPC   C3B26109  28.816  28.916   7.886
 1865POPC   C4B26110  28.911  28.934   7.449
 1866POPC   NC326111  23.900  29.650   9.700
 1866POPC   PO426112  23.379  30.040   9.481
 1866POPC   GL126113  23.523  29.834   9.124
 1866POPC   GL226114  23.857  29.850   9.217
 1866POPC   C1A26115  23.480  29.723   8.687
 1866POPC   D2A26116  23.389  29.629   8.233
 1866POPC   C3A26117  23.666  29.840   7.948
 1866POPC   C4A26118  23.763  29.996   7.568
 1866POPC   C1B26119  23.967  29.955   8.771
 1866POPC   C2B26120  24.040  29.884   8.309
 1866POPC   C3B26121  24.100  30.139   7.920
 1866POPC   C4B26122  24.155  30.317   7.480
 1867POPC   NC326123  40.254  18.864   9.340
 1867POPC   PO426124  39.729  19.161   9.716
 1867POPC   GL126125  39.816  19.134   9.268
 1867POPC   GL226126  39.717  18.847   9.063
 1867POPC   C1A26127  39.958  19.209   8.830
 1867POPC   D2A26128  39.684  19.101   8.550
 1867POPC   C3A26129  39.879  19.069   8.143
 1867POPC   C4A26130  40.298  19.115   7.988
 1867POPC   C1B26131  40.050  18.737   8.672
 1867POPC   C2B26132  40.231  18.476   8.336
 1867POPC   C3B26133  40.274  18.605   7.934
 1867POPC   C4B26134  39.968  18.803   7.700
 1868POPC   NC326135  29.955   7.174   9.886
 1868POPC   PO426136  30.074   6.622   9.517
 1868POPC   GL126137  30.004   6.767   9.095
 1868POPC   GL226138  30.226   7.022   9.192
 1868POPC   C1A26139  29.903   6.680   8.660
 1868POPC   D2A26140  29.957   6.904   8.290
 1868POPC   C3A26141  29.737   6.676   7.969
 1868POPC   C4A26142  29.920   6.465   7.631
 1868POPC   C1B26143  30.216   7.199   8.779
 1868POPC   C2B26144  30.381   7.221   8.356
 1868POPC   C3B26145  30.437   6.973   8.008
 1868POPC   C4B26146  30.073   6.982   7.774
 1869POPC   NC326147  38.953  21.391   9.566
 1869POPC   PO426148  38.259  21.630   9.511
 1869POPC   GL126149  38.490  21.358   9.208
 1869POPC   GL226150  38.822  21.448   9.091
 1869POPC   C1A26151  38.340  21.026   8.926
 1869POPC   D2A26152  38.113  21.014   8.530
 1869POPC   C3A26153  38.316  21.182   8.166
 1869POPC   C4A26154  38.187  21.284   7.736
 1869POPC   C1B26155  38.672  21.357   8.688
 1869POPC   C2B26156  38.514  21.612   8.379
 1869POPC   C3B26157  38.552  21.620   7.947
 1869POPC   C4B26158  38.694  21.211   7.821
 1870POPC   NC326159  32.502  37.060   9.464
 1870POPC   PO426160  31.987  36.534   9.563
 1870POPC   GL126161  32.059  36.677   9.135
 1870POPC   GL226162  32.105  37.010   9.159
 1870POPC   C1A26163  32.190  36.518   8.695
 1870POPC   D2A26164  32.531  36.458   8.378
 1870POPC   C3A26165  32.537  36.782   8.071
 1870POPC   C4A26166  32.198  36.854   7.831
 1870POPC   C1B26167  32.329  37.009   8.789
 1870POPC   C2B26168  32.253  37.315   8.507
 1870POPC   C3B26169  32.328  37.259   8.105
 1870POPC   C4B26170  32.027  37.348   7.806
 1871POPC   NC326171  15.107  18.994   9.755
 1871POPC   PO426172  14.355  19.123   9.562
 1871POPC   GL126173  14.462  19.138   9.163
 1871POPC   GL226174  14.472  19.443   9.123
 1871POPC   C1A26175  14.399  19.043   8.768
 1871POPC   D2A26176  14.139  18.924   8.479
 1871POPC   C3A26177  14.298  19.082   8.097
 1871POPC   C4A26178  14.588  18.885   7.869
 1871POPC   C1B26179  14.475  19.592   8.748
 1871POPC   C2B26180  14.558  19.490   8.371
 1871POPC   C3B26181  14.547  19.547   7.998
 1871POPC   C4B26182  14.634  19.343   7.670
 1872POPC   NC326183  22.340   3.504   9.736
 1872POPC   PO426184  21.875   3.915   9.525
 1872POPC   GL126185  22.071   3.522   9.266
 1872POPC   GL226186  22.315   3.505   9.053
 1872POPC   C1A26187  21.888   3.406   8.822
 1872POPC   D2A26188  22.048   3.536   8.391
 1872POPC   C3A26189  22.043   3.350   7.997
 1872POPC   C4A26190  21.918   3.542   7.623
 1872POPC   C1B26191  22.390   3.275   8.684
 1872POPC   C2B26192  22.365   3.080   8.307
 1872POPC   C3B26193  22.514   3.126   7.910
 1872POPC   C4B26194  22.420   3.404   7.585
 1873POPC   NC326195  11.111  40.675   9.783
 1873POPC   PO426196  11.572  40.996   9.387
 1873POPC   GL126197  11.504  40.671   9.034
 1873POPC   GL226198  11.132  40.524   8.908
 1873POPC   C1A26199  11.478  40.631   8.578
 1873POPC   D2A26200  11.102  40.577   8.328
 1873POPC   C3A26201  11.232  40.694   7.921
 1873POPC   C4A26202  11.573  40.560   7.690
 1873POPC   C1B26203  11.128  40.968   8.680
 1873POPC   C2B26204  10.961  41.144   8.312
 1873POPC   C3B26205  10.976  41.131   7.867
 1873POPC   C4B26206  10.929  40.864   7.541
 1874POPC   NC326207  25.107  35.137   9.512
 1874POPC   PO426208  25.191  35.711   9.430
 1874POPC   GL126209  25.323  35.455   9.137
 1874POPC   GL226210  25.640  35.524   9.103
 1874POPC   C1A26211  25.318  35.249   8.747
 1874POPC   D2A26212  25.026  35.330   8.436
 1874POPC   C3A26213  25.109  35.185   8.026
 1874POPC   C4A26214  24.941  35.299   7.626
 1874POPC   C1B26215  25.539  35.713   8.711
 1874POPC   C2B26216  25.520  35.549   8.341
 1874POPC   C3B26217  25.520  35.498   7.942
 1874POPC   C4B26218  25.456  35.168   7.664
 1875POPC   NC326219   0.653  37.259   9.386
 1875POPC   PO426220   0.880  37.972   9.434
 1875POPC   GL126221   1.248  37.756   9.185
 1875POPC   GL226222   1.348  37.373   9.155
 1875POPC   C1A26223   1.251  37.779   8.727
 1875POPC   D2A26224   0.978  38.125   8.508
 1875POPC   C3A26225   0.946  38.107   8.055
 1875POPC   C4A26226   1.167  37.782   7.892
 1875POPC   C1B26227   1.185  37.255   8.729
 1875POPC   C2B26228   1.203  37.452   8.313
 1875POPC   C3B26229   1.304  37.291   7.905
 1875POPC   C4B26230   0.950  37.354   7.648
 1876POPC   NC326231  24.921  40.216   9.512
 1876POPC   PO426232  24.449  39.920   9.252
 1876POPC   GL126233  24.468  40.276   9.041
 1876POPC   GL226234  24.815  40.251   8.992
 1876POPC   C1A26235  24.483  40.269   8.611
 1876POPC   D2A26236  24.418  39.983   8.332
 1876POPC   C3A26237  24.697  40.103   8.057
 1876POPC   C4A26238  24.411  40.056   7.732
 1876POPC   C1B26239  24.764  39.850   8.694
 1876POPC   C2B26240  24.847  39.653   8.288
 1876POPC   C3B26241  24.750  39.671   7.828
 1876POPC   C4B26242  24.877  39.744   7.363
 1877POPC   NC326243  42.247  31.123   9.513
 1877POPC   PO426244  42.271  30.378   9.460
 1877POPC   GL126245  42.128  30.707   9.217
 1877POPC   GL226246  42.356  30.629   8.984
 1877POPC   C1A26247  41.994  30.969   8.859
 1877POPC   D2A26248  41.982  30.818   8.444
 1877POPC   C3A26249  42.316  30.809   8.154
 1877POPC   C4A26250  42.243  30.667   7.771
 1877POPC   C1B26251  42.529  30.800   8.622
 1877POPC   C2B26252  42.813  30.704   8.281
 1877POPC   C3B26253  42.688  30.444   7.937
 1877POPC   C4B26254  42.670  30.479   7.459
 1878POPC   NC326255  31.075  41.718   9.398
 1878POPC   PO426256  30.710  41.241   9.748
 1878POPC   GL126257  30.848  41.278   9.271
 1878POPC   GL226258  30.634  41.550   9.095
 1878POPC   C1A26259  30.964  41.343   8.801
 1878POPC   D2A26260  30.622  41.541   8.503
 1878POPC   C3A26261  30.739  41.422   8.083
 1878POPC   C4A26262  30.844  41.585   7.693
 1878POPC   C1B26263  30.878  41.863   8.802
 1878POPC   C2B26264  31.054  42.077   8.456
 1878POPC   C3B26265  30.882  41.945   8.065
 1878POPC   C4B26266  30.581  42.175   7.808
 1879POPC   NC326267   2.831   5.524   9.458
 1879POPC   PO426268   2.543   4.884   9.485
 1879POPC   GL126269   2.669   5.123   9.137
 1879POPC   GL226270   2.971   5.277   9.024
 1879POPC   C1A26271   2.538   5.220   8.732
 1879POPC   D2A26272   2.629   4.995   8.398
 1879POPC   C3A26273   2.429   5.093   8.065
 1879POPC   C4A26274   2.536   5.216   7.700
 1879POPC   C1B26275   3.229   5.069   8.732
 1879POPC   C2B26276   3.201   4.944   8.320
 1879POPC   C3B26277   2.954   5.106   8.013
 1879POPC   C4B26278   3.028   5.305   7.645
 1880POPC   NC326279  33.950  38.192   9.481
 1880POPC   PO426280  33.504  38.705   9.460
 1880POPC   GL126281  33.793  38.558   9.142
 1880POPC   GL226282  34.142  38.572   9.182
 1880POPC   C1A26283  33.911  38.428   8.724
 1880POPC   D2A26284  33.636  38.393   8.368
 1880POPC   C3A26285  33.761  38.575   8.007
 1880POPC   C4A26286  33.878  38.248   7.772
 1880POPC   C1B26287  34.414  38.582   8.856
 1880POPC   C2B26288  34.305  38.646   8.444
 1880POPC   C3B26289  34.246  38.355   8.122
 1880POPC   C4B26290  34.367  38.255   7.705
 1881POPC   NC326291   4.074  20.566   9.539
 1881POPC   PO426292   4.590  20.173   9.467
 1881POPC   GL126293   4.504  20.520   9.207
 1881POPC   GL226294   4.204  20.419   9.087
 1881POPC   C1A26295   4.517  20.753   8.815
 1881POPC   D2A26296   4.684  20.671   8.392
 1881POPC   C3A26297   4.541  20.364   8.114
 1881POPC   C4A26298   4.562  20.572   7.729
 1881POPC   C1B26299   3.997  20.597   8.763
 1881POPC   C2B26300   4.186  20.666   8.411
 1881POPC   C3B26301   4.044  20.586   8.035
 1881POPC   C4B26302   3.962  20.710   7.652
 1882POPC   NC326303  38.871  10.653   9.389
 1882POPC   PO426304  39.432  10.380   9.539
 1882POPC   GL126305  39.431  10.619   9.162
 1882POPC   GL226306  39.711  10.853   9.145
 1882POPC   C1A26307  39.188  10.600   8.767
 1882POPC   D2A26308  39.239  10.327   8.432
 1882POPC   C3A26309  39.134  10.476   8.034
 1882POPC   C4A26310  39.287  10.263   7.681
 1882POPC   C1B26311  39.530  10.967   8.749
 1882POPC   C2B26312  39.277  10.901   8.323
 1882POPC   C3B26313  39.487  10.851   7.908
 1882POPC   C4B26314  39.368  10.768   7.457
 1883POPC   NC326315  22.007  31.159   9.368
 1883POPC   PO426316  22.410  31.615   9.510
 1883POPC   GL126317  22.189  31.658   9.132
 1883POPC   GL226318  21.840  31.531   9.076
 1883POPC   C1A26319  22.081  31.768   8.708
 1883POPC   D2A26320  22.309  31.791   8.367
 1883POPC   C3A26321  22.304  31.470   8.076
 1883POPC   C4A26322  22.499  31.559   7.718
 1883POPC   C1B26323  21.834  31.250   8.739
 1883POPC   C2B26324  21.847  31.364   8.328
 1883POPC   C3B26325  21.877  31.720   8.084
 1883POPC   C4B26326  21.997  31.567   7.672
 1884POPC   NC326327  35.250   4.431   9.547
 1884POPC   PO426328  35.946   4.375   9.537
 1884POPC   GL126329  35.668   4.372   9.141
 1884POPC   GL226330  35.353   4.498   9.053
 1884POPC   C1A26331  35.540   4.134   8.746
 1884POPC   D2A26332  35.322   4.008   8.355
 1884POPC   C3A26333  35.345   4.211   7.948
 1884POPC   C4A26334  35.449   4.624   7.812
 1884POPC   C1B26335  35.043   4.343   8.762
 1884POPC   C2B26336  34.909   4.297   8.320
 1884POPC   C3B26337  34.944   4.573   7.998
 1884POPC   C4B26338  34.956   4.523   7.582
 1885POPC   NC326339  20.626  34.394   9.702
 1885POPC   PO426340  21.191  34.705   9.662
 1885POPC   GL126341  20.907  34.697   9.276
 1885POPC   GL226342  20.764  34.361   9.208
 1885POPC   C1A26343  20.735  34.767   8.820
 1885POPC   D2A26344  20.861  34.816   8.362
 1885POPC   C3A26345  20.577  34.814   8.008
 1885POPC   C4A26346  20.288  34.939   7.697
 1885POPC   C1B26347  20.528  34.287   8.820
 1885POPC   C2B26348  20.427  34.495   8.440
 1885POPC   C3B26349  20.493  34.307   8.053
 1885POPC   C4B26350  20.373  34.437   7.683
 1886POPC   NC326351   3.825  43.560   9.520
 1886POPC   PO426352   3.342  44.072   9.538
 1886POPC   GL126353   3.582  44.106   9.163
 1886POPC   GL226354   3.466  43.763   9.043
 1886POPC   C1A26355   3.780  44.043   8.754
 1886POPC   D2A26356   3.718  43.636   8.462
 1886POPC   C3A26357   3.694  43.692   8.008
 1886POPC   C4A26358   3.981  44.045   7.874
 1886POPC   C1B26359   3.313  43.891   8.612
 1886POPC   C2B26360   3.563  44.119   8.270
 1886POPC   C3B26361   3.395  44.103   7.851
 1886POPC   C4B26362   3.085  43.741   7.865
 1887POPC   NC326363   5.652  23.708   9.758
 1887POPC   PO426364   5.021  23.565   9.481
 1887POPC   GL126365   5.210  23.599   9.111
 1887POPC   GL226366   4.943  23.769   8.909
 1887POPC   C1A26367   5.303  23.370   8.775
 1887POPC   D2A26368   5.199  23.624   8.450
 1887POPC   C3A26369   5.365  23.477   8.106
 1887POPC   C4A26370   5.195  23.666   7.755
 1887POPC   C1B26371   4.694  24.050   8.601
 1887POPC   C2B26372   4.797  24.348   8.304
 1887POPC   C3B26373   4.870  24.030   8.031
 1887POPC   C4B26374   4.845  24.042   7.628
 1888POPC   NC326375   2.572  33.489   9.586
 1888POPC   PO426376   1.936  33.848   9.464
 1888POPC   GL126377   2.057  33.734   9.106
 1888POPC   GL226378   2.406  33.737   9.150
 1888POPC   C1A26379   1.910  33.873   8.708
 1888POPC   D2A26380   1.661  33.686   8.379
 1888POPC   C3A26381   1.833  33.744   7.973
 1888POPC   C4A26382   2.081  34.097   7.845
 1888POPC   C1B26383   2.365  33.622   8.731
 1888POPC   C2B26384   2.173  33.586   8.366
 1888POPC   C3B26385   2.336  33.641   7.970
 1888POPC   C4B26386   2.148  33.671   7.541
 1889POPC   NC326387  19.832  18.586   9.560
 1889POPC   PO426388  19.577  18.062   9.766
 1889POPC   GL126389  19.905  18.242   9.228
 1889POPC   GL226390  19.969  18.542   9.077
 1889POPC   C1A26391  19.908  18.171   8.759
 1889POPC   D2A26392  19.998  18.075   8.343
 1889POPC   C3A26393  19.721  18.283   8.058
 1889POPC   C4A26394  19.915  18.142   7.696
 1889POPC   C1B26395  20.126  18.740   8.715
 1889POPC   C2B26396  20.013  18.608   8.352
 1889POPC   C3B26397  20.188  18.494   7.981
 1889POPC   C4B26398  20.239  18.537   7.565
 1890POPC   NC326399  38.424  16.433   9.377
 1890POPC   PO426400  38.620  17.070   9.578
 1890POPC   GL126401  38.606  17.017   9.121
 1890POPC   GL226402  38.539  16.679   8.985
 1890POPC   C1A26403  38.572  17.050   8.679
 1890POPC   D2A26404  38.641  16.869   8.273
 1890POPC   C3A26405  38.292  16.635   8.134
 1890POPC   C4A26406  38.041  16.794   7.795
 1890POPC   C1B26407  38.685  16.505   8.628
 1890POPC   C2B26408  38.622  16.208   8.327
 1890POPC   C3B26409  38.709  16.399   7.950
 1890POPC   C4B26410  38.573  16.820   7.762
 1891POPC   NC326411  17.886  25.381   9.765
 1891POPC   PO426412  17.394  25.574   9.324
 1891POPC   GL126413  17.472  25.149   9.195
 1891POPC   GL226414  17.615  25.329   8.923
 1891POPC   C1A26415  17.425  24.889   8.812
 1891POPC   D2A26416  17.429  25.158   8.462
 1891POPC   C3A26417  17.376  24.919   8.108
 1891POPC   C4A26418  17.472  25.063   7.683
 1891POPC   C1B26419  17.857  25.466   8.601
 1891POPC   C2B26420  17.829  25.404   8.167
 1891POPC   C3B26421  17.899  25.430   7.732
 1891POPC   C4B26422  18.012  25.373   7.306
 1892POPC   NC326423  43.920   0.026   9.667
 1892POPC   PO426424  44.204   0.606   9.634
 1892POPC   GL126425  44.069   0.474   9.239
 1892POPC   GL226426  44.215   0.624   8.977
 1892POPC   C1A26427  43.742   0.429   8.946
 1892POPC   D2A26428  43.731   0.355   8.514
 1892POPC   C3A26429  43.515   0.582   8.208
 1892POPC   C4A26430  43.677   0.439   7.790
 1892POPC   C1B26431  44.188   0.252   8.760
 1892POPC   C2B26432  44.192   0.197   8.348
 1892POPC   C3B26433  44.144   0.232   7.916
 1892POPC   C4B26434  44.084   0.229   7.503
 1893POPC   NC326435   4.325   8.635   9.207
 1893POPC   PO426436   4.439   8.108   9.605
 1893POPC   GL126437   4.213   8.076   9.178
 1893POPC   GL226438   3.959   8.297   9.024
 1893POPC   C1A26439   4.323   7.980   8.740
 1893POPC   D2A26440   4.595   8.119   8.387
 1893POPC   C3A26441   4.507   7.885   7.998
 1893POPC   C4A26442   4.170   7.846   7.717
 1893POPC   C1B26443   4.115   8.469   8.629
 1893POPC   C2B26444   4.009   8.346   8.253
 1893POPC   C3B26445   4.160   8.316   7.884
 1893POPC   C4B26446   4.078   8.478   7.500
 1894POPC   NC326447  40.990  32.104   9.598
 1894POPC   PO426448  40.432  31.829   9.377
 1894POPC   GL126449  40.734  32.111   9.152
 1894POPC   GL226450  41.048  31.965   9.101
 1894POPC   C1A26451  40.937  32.418   8.840
 1894POPC   D2A26452  40.834  32.446   8.402
 1894POPC   C3A26453  41.083  32.508   8.036
 1894POPC   C4A26454  40.883  32.366   7.625
 1894POPC   C1B26455  40.864  31.919   8.680
 1894POPC   C2B26456  40.959  31.924   8.240
 1894POPC   C3B26457  41.191  32.041   7.870
 1894POPC   C4B26458  41.062  31.954   7.385
 1895POPC   NC326459  30.495  34.755   9.485
 1895POPC   PO426460  31.055  34.403   9.557
 1895POPC   GL126461  30.782  34.385   9.225
 1895POPC   GL226462  30.454  34.307   9.228
 1895POPC   C1A26463  30.684  34.563   8.815
 1895POPC   D2A26464  30.619  34.683   8.396
 1895POPC   C3A26465  30.939  34.848   8.090
 1895POPC   C4A26466  30.693  34.745   7.750
 1895POPC   C1B26467  30.483  34.094   8.816
 1895POPC   C2B26468  30.312  34.209   8.425
 1895POPC   C3B26469  30.381  34.406   8.030
 1895POPC   C4B26470  30.610  34.246   7.698
 1896POPC   NC326471  40.030  29.786   9.544
 1896POPC   PO426472  39.672  30.428   9.481
 1896POPC   GL126473  39.844  30.077   9.151
 1896POPC   GL226474  40.191  29.984   9.079
 1896POPC   C1A26475  39.716  29.863   8.762
 1896POPC   D2A26476  39.826  29.937   8.322
 1896POPC   C3A26477  39.667  29.790   7.931
 1896POPC   C4A26478  39.760  29.914   7.448
 1896POPC   C1B26479  40.192  30.071   8.647
 1896POPC   C2B26480  40.262  30.185   8.200
 1896POPC   C3B26481  40.107  29.997   7.809
 1896POPC   C4B26482  40.248  29.710   7.443
 1897POPC   NC326483   5.140  18.320   9.524
 1897POPC   PO426484   4.874  17.818   9.339
 1897POPC   GL126485   4.975  18.051   8.998
 1897POPC   GL226486   5.313  18.193   9.050
 1897POPC   C1A26487   5.106  18.061   8.565
 1897POPC   D2A26488   5.019  18.389   8.244
 1897POPC   C3A26489   4.981  18.272   7.791
 1897POPC   C4A26490   5.106  17.994   7.401
 1897POPC   C1B26491   5.364  18.555   8.745
 1897POPC   C2B26492   5.527  18.705   8.336
 1897POPC   C3B26493   5.432  18.431   7.957
 1897POPC   C4B26494   5.398  18.415   7.499
 1898POPC   NC326495  27.871  35.017   9.491
 1898POPC   PO426496  27.525  34.466   9.368
 1898POPC   GL126497  27.576  34.763   9.111
 1898POPC   GL226498  27.299  34.965   9.126
 1898POPC   C1A26499  27.763  34.644   8.724
 1898POPC   D2A26500  27.871  34.768   8.338
 1898POPC   C3A26501  27.622  34.618   8.006
 1898POPC   C4A26502  27.795  34.406   7.640
 1898POPC   C1B26503  27.264  34.774   8.703
 1898POPC   C2B26504  27.074  34.725   8.330
 1898POPC   C3B26505  27.170  34.835   7.913
 1898POPC   C4B26506  27.299  34.520   7.600
 1899POPC   NC326507  21.726  18.458   9.369
 1899POPC   PO426508  21.084  18.309   9.539
 1899POPC   GL126509  21.232  18.163   9.160
 1899POPC   GL226510  20.941  18.372   9.052
 1899POPC   C1A26511  21.413  18.326   8.796
 1899POPC   D2A26512  21.534  18.251   8.380
 1899POPC   C3A26513  21.502  18.542   8.054
 1899POPC   C4A26514  21.718  18.348   7.735
 1899POPC   C1B26515  20.922  18.215   8.695
 1899POPC   C2B26516  21.048  18.418   8.369
 1899POPC   C3B26517  21.118  18.188   8.052
 1899POPC   C4B26518  21.148  18.243   7.645
 1900POPC   NC326519  27.375  26.598   9.460
 1900POPC   PO426520  27.764  27.082   9.468
 1900POPC   GL126521  27.837  26.819   9.137
 1900POPC   GL226522  27.506  26.805   9.010
 1900POPC   C1A26523  27.959  26.663   8.713
 1900POPC   D2A26524  27.753  26.460   8.340
 1900POPC   C3A26525  27.668  26.742   8.010
 1900POPC   C4A26526  27.681  26.611   7.601
 1900POPC   C1B26527  27.496  26.869   8.571
 1900POPC   C2B26528  27.810  27.099   8.362
 1900POPC   C3B26529  27.805  27.244   7.956
 1900POPC   C4B26530  27.732  27.110   7.503
 1901POPC   NC326531   6.099  23.987   9.376
 1901POPC   PO426532   5.893  23.355   9.593
 1901POPC   GL126533   5.728  23.606   9.192
 1901POPC   GL226534   5.994  23.709   8.972
 1901POPC   C1A26535   5.552  23.833   8.795
 1901POPC   D2A26536   5.810  23.905   8.426
 1901POPC   C3A26537   5.621  23.906   8.047
 1901POPC   C4A26538   5.751  23.585   7.743
 1901POPC   C1B26539   6.166  24.066   8.748
 1901POPC   C2B26540   6.400  23.974   8.395
 1901POPC   C3B26541   6.218  23.895   8.002
 1901POPC   C4B26542   5.963  24.093   7.733
 1902POPC   NC326543   9.271  33.779   9.558
 1902POPC   PO426544   8.702  33.432   9.387
 1902POPC   GL126545   8.976  33.607   9.151
 1902POPC   GL226546   8.870  33.908   9.206
 1902POPC   C1A26547   9.262  33.727   8.864
 1902POPC   D2A26548   9.220  33.897   8.442
 1902POPC   C3A26549   8.943  33.734   8.135
 1902POPC   C4A26550   9.119  33.905   7.765
 1902POPC   C1B26551   8.884  34.066   8.803
 1902POPC   C2B26552   8.654  34.042   8.428
 1902POPC   C3B26553   8.722  34.173   7.999
 1902POPC   C4B26554   8.765  34.169   7.557
 1903POPC   NC326555  20.411  25.518   9.529
 1903POPC   PO426556  20.456  24.832   9.562
 1903POPC   GL126557  20.562  25.094   9.216
 1903POPC   GL226558  20.860  25.333   9.290
 1903POPC   C1A26559  20.448  25.017   8.758
 1903POPC   D2A26560  20.604  24.910   8.321
 1903POPC   C3A26561  20.409  25.089   7.924
 1903POPC   C4A26562  20.444  25.066   7.446
 1903POPC   C1B26563  20.695  25.452   8.889
 1903POPC   C2B26564  20.696  25.405   8.458
 1903POPC   C3B26565  20.661  25.569   8.063
 1903POPC   C4B26566  20.715  25.437   7.661
 1904POPC   NC326567   1.086  41.589   9.634
 1904POPC   PO426568   1.593  41.266   9.567
 1904POPC   GL126569   1.524  41.558   9.213
 1904POPC   GL226570   1.247  41.785   9.215
 1904POPC   C1A26571   1.448  41.668   8.771
 1904POPC   D2A26572   1.530  41.570   8.372
 1904POPC   C3A26573   1.214  41.368   8.158
 1904POPC   C4A26574   1.288  41.483   7.774
 1904POPC   C1B26575   0.970  41.789   8.852
 1904POPC   C2B26576   1.028  41.795   8.395
 1904POPC   C3B26577   0.837  41.719   7.960
 1904POPC   C4B26578   0.897  41.645   7.518
 1905POPC   NC326579  37.008  42.527   9.574
 1905POPC   PO426580  36.693  41.998   9.454
 1905POPC   GL126581  36.835  42.207   9.159
 1905POPC   GL226582  37.154  42.159   9.223
 1905POPC   C1A26583  36.885  42.075   8.763
 1905POPC   D2A26584  37.024  41.955   8.394
 1905POPC   C3A26585  36.818  42.208   8.146
 1905POPC   C4A26586  36.870  42.052   7.741
 1905POPC   C1B26587  37.194  42.464   8.902
 1905POPC   C2B26588  37.223  42.413   8.468
 1905POPC   C3B26589  37.294  42.295   8.021
 1905POPC   C4B26590  36.971  42.544   7.800
 1906POPC   NC326591  36.045  15.711   9.387
 1906POPC   PO426592  36.382  16.219   9.639
 1906POPC   GL126593  36.302  16.098   9.188
 1906POPC   GL226594  36.346  15.762   8.983
 1906POPC   C1A26595  36.168  16.197   8.771
 1906POPC   D2A26596  36.307  16.014   8.384
 1906POPC   C3A26597  36.071  15.995   8.017
 1906POPC   C4A26598  35.942  16.208   7.684
 1906POPC   C1B26599  35.946  15.722   8.772
 1906POPC   C2B26600  35.810  15.815   8.414
 1906POPC   C3B26601  35.637  15.647   8.087
 1906POPC   C4B26602  35.749  15.744   7.704
 1907POPC   NC326603   2.504  22.496   9.661
 1907POPC   PO426604   2.955  22.070   9.487
 1907POPC   GL126605   2.626  22.115   9.224
 1907POPC   GL226606   2.527  22.486   9.162
 1907POPC   C1A26607   2.627  21.969   8.810
 1907POPC   D2A26608   2.726  22.169   8.448
 1907POPC   C3A26609   2.827  22.006   8.069
 1907POPC   C4A26610   2.627  22.010   7.717
 1907POPC   C1B26611   2.866  22.458   8.887
 1907POPC   C2B26612   2.910  22.634   8.505
 1907POPC   C3B26613   2.939  22.515   8.115
 1907POPC   C4B26614   2.931  22.501   7.712
 1908POPC   NC326615  26.394   1.690   9.549
 1908POPC   PO426616  25.697   1.932   9.515
 1908POPC   GL126617  26.041   1.917   9.222
 1908POPC   GL226618  26.037   1.562   9.168
 1908POPC   C1A26619  26.161   2.154   8.842
 1908POPC   D2A26620  26.056   2.416   8.470
 1908POPC   C3A26621  25.936   2.206   8.072
 1908POPC   C4A26622  26.041   2.178   7.640
 1908POPC   C1B26623  25.830   1.714   8.799
 1908POPC   C2B26624  26.012   1.851   8.434
 1908POPC   C3B26625  26.194   1.731   8.061
 1908POPC   C4B26626  25.931   1.681   7.740
 1909POPC   NC326627  33.163   7.034   9.580
 1909POPC   PO426628  33.167   7.715   9.405
 1909POPC   GL126629  33.062   7.321   9.148
 1909POPC   GL226630  33.414   7.185   9.135
 1909POPC   C1A26631  32.778   7.192   8.763
 1909POPC   D2A26632  32.570   7.320   8.353
 1909POPC   C3A26633  32.801   7.657   8.119
 1909POPC   C4A26634  32.928   7.698   7.663
 1909POPC   C1B26635  33.294   7.166   8.680
 1909POPC   C2B26636  33.113   7.227   8.243
 1909POPC   C3B26637  33.151   7.270   7.783
 1909POPC   C4B26638  33.350   7.108   7.366
 1910POPC   NC326639  34.116   6.145   9.505
 1910POPC   PO426640  33.711   5.739   9.847
 1910POPC   GL126641  33.690   5.765   9.377
 1910POPC   GL226642  33.670   6.116   9.274
 1910POPC   C1A26643  33.732   5.489   8.993
 1910POPC   D2A26644  33.929   5.521   8.565
 1910POPC   C3A26645  33.772   5.650   8.167
 1910POPC   C4A26646  33.941   5.812   7.764
 1910POPC   C1B26647  33.918   5.944   8.906
 1910POPC   C2B26648  34.028   6.034   8.477
 1910POPC   C3B26649  34.069   6.191   8.084
 1910POPC   C4B26650  33.972   6.329   7.671
 1911POPC   NC326651  20.491  16.240   9.490
 1911POPC   PO426652  20.693  15.623   9.430
 1911POPC   GL126653  20.473  15.906   9.101
 1911POPC   GL226654  20.236  16.209   9.068
 1911POPC   C1A26655  20.615  16.091   8.740
 1911POPC   D2A26656  20.844  15.910   8.450
 1911POPC   C3A26657  20.749  15.857   8.049
 1911POPC   C4A26658  20.961  15.648   7.805
 1911POPC   C1B26659  20.213  16.396   8.662
 1911POPC   C2B26660  20.474  16.344   8.305
 1911POPC   C3B26661  20.896  16.342   8.150
 1911POPC   C4B26662  20.644  16.271   7.805
 1912POPC   NC326663  36.586  39.201   9.575
 1912POPC   PO426664  36.195  39.596   9.280
 1912POPC   GL126665  36.039  39.327   9.052
 1912POPC   GL226666  36.324  39.091   9.106
 1912POPC   C1A26667  35.985  39.518   8.671
 1912POPC   D2A26668  36.047  39.249   8.375
 1912POPC   C3A26669  36.046  39.388   7.998
 1912POPC   C4A26670  35.911  39.053   7.762
 1912POPC   C1B26671  36.453  39.254   8.706
 1912POPC   C2B26672  36.502  39.056   8.288
 1912POPC   C3B26673  36.436  39.093   7.837
 1912POPC   C4B26674  36.419  38.847   7.434
 1913POPC   NC326675  32.034   4.021   9.538
 1913POPC   PO426676  32.685   4.065   9.783
 1913POPC   GL126677  32.529   4.208   9.327
 1913POPC   GL226678  32.366   4.540   9.245
 1913POPC   C1A26679  32.304   4.112   8.900
 1913POPC   D2A26680  32.126   3.847   8.522
 1913POPC   C3A26681  32.332   3.928   8.112
 1913POPC   C4A26682  32.332   4.228   7.767
 1913POPC   C1B26683  32.091   4.598   8.867
 1913POPC   C2B26684  32.214   4.591   8.420
 1913POPC   C3B26685  32.152   4.675   7.976
 1913POPC   C4B26686  31.864   4.425   7.745
 1914POPC   NC326687  22.892  34.857   9.568
 1914POPC   PO426688  23.167  34.280   9.484
 1914POPC   GL126689  23.007  34.541   9.126
 1914POPC   GL226690  22.763  34.790   9.085
 1914POPC   C1A26691  23.069  34.645   8.684
 1914POPC   D2A26692  23.292  34.797   8.333
 1914POPC   C3A26693  23.070  34.791   7.909
 1914POPC   C4A26694  22.894  34.388   7.824
 1914POPC   C1B26695  22.559  34.662   8.693
 1914POPC   C2B26696  22.683  34.711   8.257
 1914POPC   C3B26697  22.478  34.676   7.858
 1914POPC   C4B26698  22.377  34.753   7.437
 1915POPC   NC326699  23.917  25.595   9.536
 1915POPC   PO426700  23.620  25.001   9.677
 1915POPC   GL126701  23.740  25.083   9.234
 1915POPC   GL226702  23.958  25.347   9.094
 1915POPC   C1A26703  23.676  25.064   8.781
 1915POPC   D2A26704  23.583  25.310   8.400
 1915POPC   C3A26705  23.694  25.121   8.037
 1915POPC   C4A26706  23.985  25.050   7.743
 1915POPC   C1B26707  23.853  25.557   8.746
 1915POPC   C2B26708  24.075  25.509   8.376
 1915POPC   C3B26709  23.994  25.549   7.979
 1915POPC   C4B26710  23.599  25.581   7.821
 1916POPC   NC326711  24.517  44.882   9.724
 1916POPC   PO426712  24.124  44.507   9.389
 1916POPC   GL126713  24.340  44.770   9.141
 1916POPC   GL226714  24.700  44.859   9.213
 1916POPC   C1A26715  24.501  44.763   8.729
 1916POPC   D2A26716  24.638  44.408   8.465
 1916POPC   C3A26717  24.780  44.607   8.114
 1916POPC   C4A26718  24.505  44.783   7.832
 1916POPC   C1B26719  24.855   0.145   8.853
 1916POPC   C2B26720  24.958   0.184   8.412
 1916POPC   C3B26721  24.857   0.140   7.956
 1916POPC   C4B26722  24.926  44.896   7.549
 1917POPC   NC326723  42.073  12.924   9.467
 1917POPC   PO426724  41.359  13.004   9.402
 1917POPC   GL126725  41.480  12.798   9.045
 1917POPC   GL226726  41.827  12.916   8.960
 1917POPC   C1A26727  41.301  12.838   8.655
 1917POPC   D2A26728  41.495  13.069   8.347
 1917POPC   C3A26729  41.367  13.037   7.920
 1917POPC   C4A26730  41.759  13.211   7.732
 1917POPC   C1B26731  41.740  12.582   8.627
 1917POPC   C2B26732  41.556  12.542   8.219
 1917POPC   C3B26733  41.686  12.665   7.799
 1917POPC   C4B26734  41.379  12.670   7.475
 1918POPC   NC326735  40.755  17.326   9.581
 1918POPC   PO426736  41.126  17.845   9.596
 1918POPC   GL126737  40.993  17.585   9.154
 1918POPC   GL226738  41.056  17.185   9.086
 1918POPC   C1A26739  40.636  17.396   8.905
 1918POPC   D2A26740  40.394  17.228   8.535
 1918POPC   C3A26741  40.643  17.295   8.152
 1918POPC   C4A26742  40.690  17.491   7.752
 1918POPC   C1B26743  41.114  17.356   8.676
 1918POPC   C2B26744  41.246  17.199   8.255
 1918POPC   C3B26745  41.090  17.186   7.844
 1918POPC   C4B26746  41.110  17.448   7.478
 1919POPC   NC326747  22.986  23.478   9.616
 1919POPC   PO426748  23.171  24.165   9.612
 1919POPC   GL126749  22.978  23.874   9.250
 1919POPC   GL226750  22.825  23.500   9.139
 1919POPC   C1A26751  22.982  23.827   8.790
 1919POPC   D2A26752  23.121  23.925   8.370
 1919POPC   C3A26753  22.866  23.706   8.101
 1919POPC   C4A26754  22.829  23.605   7.669
 1919POPC   C1B26755  22.964  23.262   8.750
 1919POPC   C2B26756  23.083  23.259   8.296
 1919POPC   C3B26757  23.090  23.234   7.838
 1919POPC   C4B26758  23.307  23.465   7.475
 1920POPC   NC326759  14.665  42.472   9.513
 1920POPC   PO426760  14.280  41.938   9.472
 1920POPC   GL126761  14.295  42.277   9.185
 1920POPC   GL226762  14.625  42.192   9.109
 1920POPC   C1A26763  14.106  42.538   8.847
 1920POPC   D2A26764  14.200  42.470   8.399
 1920POPC   C3A26765  14.030  42.622   7.997
 1920POPC   C4A26766  14.102  42.491   7.563
 1920POPC   C1B26767  14.527  42.162   8.705
 1920POPC   C2B26768  14.696  42.324   8.333
 1920POPC   C3B26769  14.447  42.251   7.984
 1920POPC   C4B26770  14.507  41.907   7.750
 1921POPC   NC326771  28.316  44.305   9.290
 1921POPC   PO426772  28.692  44.726   9.744
 1921POPC   GL126773  28.493  44.786   9.336
 1921POPC   GL226774  28.167  44.798   9.251
 1921POPC   C1A26775  28.527  44.798   8.869
 1921POPC   D2A26776  28.663  44.866   8.431
 1921POPC   C3A26777  28.449  44.602   8.128
 1921POPC   C4A26778  28.411  44.759   7.700
 1921POPC   C1B26779  28.022  44.633   8.826
 1921POPC   C2B26780  27.984  44.814   8.434
 1921POPC   C3B26781  28.075  44.925   8.041
 1921POPC   C4B26782  28.002  44.492   7.849
 1922POPC   NC326783  18.239  38.860   9.471
 1922POPC   PO426784  18.586  39.440   9.449
 1922POPC   GL126785  18.196  39.308   9.199
 1922POPC   GL226786  17.920  39.564   9.165
 1922POPC   C1A26787  18.258  39.095   8.795
 1922POPC   D2A26788  18.655  39.125   8.525
 1922POPC   C3A26789  18.536  39.158   8.093
 1922POPC   C4A26790  18.137  39.084   7.963
 1922POPC   C1B26791  18.154  39.619   8.788
 1922POPC   C2B26792  18.090  39.409   8.403
 1922POPC   C3B26793  18.113  39.593   8.050
 1922POPC   C4B26794  18.252  39.530   7.689
 1923POPC   NC326795  37.123  40.040   9.665
 1923POPC   PO426796  36.581  40.435   9.464
 1923POPC   GL126797  36.866  40.105   9.246
 1923POPC   GL226798  37.259  40.172   9.194
 1923POPC   C1A26799  36.936  39.979   8.856
 1923POPC   D2A26800  36.873  39.813   8.479
 1923POPC   C3A26801  37.181  39.794   8.166
 1923POPC   C4A26802  36.895  39.933   7.873
 1923POPC   C1B26803  37.283  40.363   8.800
 1923POPC   C2B26804  37.155  40.236   8.402
 1923POPC   C3B26805  37.255  40.284   7.983
 1923POPC   C4B26806  36.985  40.342   7.608
 1924POPC   NC326807  35.597  14.522  10.035
 1924POPC   PO426808  36.130  14.401   9.681
 1924POPC   GL126809  36.098  14.489   9.260
 1924POPC   GL226810  35.814  14.681   9.211
 1924POPC   C1A26811  36.040  14.342   8.835
 1924POPC   D2A26812  36.243  14.303   8.432
 1924POPC   C3A26813  36.184  14.501   8.045
 1924POPC   C4A26814  36.040  14.210   7.747
 1924POPC   C1B26815  35.787  14.890   8.817
 1924POPC   C2B26816  35.790  14.835   8.387
 1924POPC   C3B26817  35.906  14.951   7.969
 1924POPC   C4B26818  35.881  14.692   7.623
 1925POPC   NC326819  35.475  28.775   9.419
 1925POPC   PO426820  35.160  29.392   9.500
 1925POPC   GL126821  35.330  29.166   9.094
 1925POPC   GL226822  35.689  29.042   9.046
 1925POPC   C1A26823  35.450  29.307   8.650
 1925POPC   D2A26824  35.267  29.058   8.305
 1925POPC   C3A26825  35.208  29.238   7.914
 1925POPC   C4A26826  34.977  29.116   7.540
 1925POPC   C1B26827  35.494  28.814   8.696
 1925POPC   C2B26828  35.588  28.647   8.296
 1925POPC   C3B26829  35.434  28.757   7.897
 1925POPC   C4B26830  35.690  28.648   7.590
 1926POPC   NC326831  33.602  44.984   9.638
 1926POPC   PO426832  33.921   0.567   9.387
 1926POPC   GL126833  33.736   0.353   9.095
 1926POPC   GL226834  33.686   0.672   8.937
 1926POPC   C1A26835  33.846   0.098   8.741
 1926POPC   D2A26836  33.718   0.195   8.341
 1926POPC   C3A26837  34.017   0.325   8.059
 1926POPC   C4A26838  33.936   0.229   7.673
 1926POPC   C1B26839  33.943   0.589   8.616
 1926POPC   C2B26840  34.019   0.801   8.241
 1926POPC   C3B26841  34.047   0.761   7.782
 1926POPC   C4B26842  34.120   1.063   7.402
 1927POPC   NC326843   7.181   3.121   9.547
 1927POPC   PO426844   7.642   3.603   9.611
 1927POPC   GL126845   7.422   3.663   9.178
 1927POPC   GL226846   7.268   3.331   9.105
 1927POPC   C1A26847   7.273   3.643   8.713
 1927POPC   D2A26848   7.463   3.479   8.345
 1927POPC   C3A26849   7.186   3.570   8.046
 1927POPC   C4A26850   7.163   3.895   7.731
 1927POPC   C1B26851   7.535   3.220   8.784
 1927POPC   C2B26852   7.542   2.979   8.430
 1927POPC   C3B26853   7.457   3.083   7.976
 1927POPC   C4B26854   7.465   3.420   7.657
 1928POPC   NC326855  22.605   1.828   9.395
 1928POPC   PO426856  23.285   1.723   9.505
 1928POPC   GL126857  23.033   1.943   9.167
 1928POPC   GL226858  22.883   2.273   9.205
 1928POPC   C1A26859  22.888   1.888   8.731
 1928POPC   D2A26860  23.159   2.070   8.420
 1928POPC   C3A26861  23.127   2.075   7.976
 1928POPC   C4A26862  22.952   1.824   7.646
 1928POPC   C1B26863  22.776   2.370   8.762
 1928POPC   C2B26864  22.677   2.220   8.314
 1928POPC   C3B26865  22.598   2.083   7.871
 1928POPC   C4B26866  22.627   2.078   7.370
 1929POPC   NC326867   2.615   6.955   9.879
 1929POPC   PO426868   2.680   7.574   9.566
 1929POPC   GL126869   2.767   7.507   9.163
 1929POPC   GL226870   2.847   7.152   9.210
 1929POPC   C1A26871   2.594   7.620   8.764
 1929POPC   D2A26872   2.635   7.464   8.317
 1929POPC   C3A26873   2.700   7.764   7.964
 1929POPC   C4A26874   2.989   7.652   7.611
 1929POPC   C1B26875   2.692   7.121   8.798
 1929POPC   C2B26876   2.735   6.937   8.407
 1929POPC   C3B26877   2.901   7.086   8.044
 1929POPC   C4B26878   2.652   7.294   7.754
 1930POPC   NC326879  43.181   4.088   9.519
 1930POPC   PO426880  43.286   3.538   9.784
 1930POPC   GL126881  43.300   3.530   9.302
 1930POPC   GL226882  43.410   3.250   9.055
 1930POPC   C1A26883  43.019   3.555   8.919
 1930POPC   D2A26884  42.811   3.697   8.549
 1930POPC   C3A26885  43.005   3.512   8.210
 1930POPC   C4A26886  42.840   3.353   7.839
 1930POPC   C1B26887  43.343   3.229   8.588
 1930POPC   C2B26888  43.516   3.407   8.202
 1930POPC   C3B26889  43.332   3.398   7.820
 1930POPC   C4B26890  43.111   3.197   7.414
 1931POPC   NC326891  42.770   7.160   9.391
 1931POPC   PO426892  42.257   7.537   9.510
 1931POPC   GL126893  42.461   7.483   9.142
 1931POPC   GL226894  42.316   7.141   9.141
 1931POPC   C1A26895  42.451   7.362   8.730
 1931POPC   D2A26896  42.362   7.501   8.368
 1931POPC   C3A26897  42.392   7.288   8.039
 1931POPC   C4A26898  42.356   7.362   7.644
 1931POPC   C1B26899  42.023   7.089   8.779
 1931POPC   C2B26900  41.943   7.218   8.327
 1931POPC   C3B26901  41.964   7.096   7.862
 1931POPC   C4B26902  42.033   7.074   7.357
 1932POPC   NC326903  39.390  18.797   9.584
 1932POPC   PO426904  39.026  19.352   9.465
 1932POPC   GL126905  39.262  19.116   9.169
 1932POPC   GL226906  39.433  19.379   9.038
 1932POPC   C1A26907  39.248  18.869   8.758
 1932POPC   D2A26908  38.969  18.830   8.376
 1932POPC   C3A26909  39.159  18.748   7.990
 1932POPC   C4A26910  39.499  18.954   7.827
 1932POPC   C1B26911  39.252  19.377   8.641
 1932POPC   C2B26912  39.305  19.200   8.240
 1932POPC   C3B26913  39.361  19.430   7.898
 1932POPC   C4B26914  39.445  19.793   7.735
 1933POPC   NC326915  29.213  13.999   9.603
 1933POPC   PO426916  29.472  13.384   9.471
 1933POPC   GL126917  29.296  13.678   9.149
 1933POPC   GL226918  28.928  13.779   9.153
 1933POPC   C1A26919  29.120  13.627   8.721
 1933POPC   D2A26920  29.020  13.835   8.343
 1933POPC   C3A26921  28.882  13.614   8.006
 1933POPC   C4A26922  29.046  13.348   7.718
 1933POPC   C1B26923  28.695  13.916   8.759
 1933POPC   C2B26924  28.607  14.105   8.344
 1933POPC   C3B26925  28.811  14.130   7.919
 1933POPC   C4B26926  28.928  14.109   7.476
 1934POPC   NC326927  39.531   9.913   9.524
 1934POPC   PO426928  38.871   9.552   9.551
 1934POPC   GL126929  39.193   9.662   9.225
 1934POPC   GL226930  38.985   9.488   9.006
 1934POPC   C1A26931  39.346   9.854   8.827
 1934POPC   D2A26932  39.076   9.786   8.465
 1934POPC   C3A26933  39.189   9.946   8.067
 1934POPC   C4A26934  39.225   9.750   7.663
 1934POPC   C1B26935  39.358   9.336   8.759
 1934POPC   C2B26936  39.528   9.388   8.328
 1934POPC   C3B26937  39.430   9.325   7.878
 1934POPC   C4B26938  39.566   9.445   7.450
 1935POPC   NC326939   7.887  42.063   9.330
 1935POPC   PO426940   8.227  41.495   9.498
 1935POPC   GL126941   8.236  41.594   9.101
 1935POPC   GL226942   8.315  41.917   9.073
 1935POPC   C1A26943   8.159  41.536   8.659
 1935POPC   D2A26944   8.232  41.460   8.214
 1935POPC   C3A26945   8.012  41.483   7.859
 1935POPC   C4A26946   7.810  41.832   7.920
 1935POPC   C1B26947   8.560  41.865   8.779
 1935POPC   C2B26948   8.345  41.955   8.409
 1935POPC   C3B26949   8.331  41.918   7.982
 1935POPC   C4B26950   8.584  41.680   7.701
 1936POPC   NC326951  11.740  14.646   9.443
 1936POPC   PO426952  11.257  14.229   9.562
 1936POPC   GL126953  11.410  14.358   9.170
 1936POPC   GL226954  11.079  14.371   9.087
 1936POPC   C1A26955  11.535  14.395   8.718
 1936POPC   D2A26956  11.578  14.511   8.263
 1936POPC   C3A26957  11.482  14.256   7.885
 1936POPC   C4A26958  11.607  14.159   7.437
 1936POPC   C1B26959  11.096  14.641   8.784
 1936POPC   C2B26960  11.094  14.375   8.442
 1936POPC   C3B26961  10.985  14.323   8.043
 1936POPC   C4B26962  11.008  14.441   7.642
 1937POPC   NC326963   9.298   0.413   9.529
 1937POPC   PO426964   9.953   0.649   9.546
 1937POPC   GL126965   9.639   0.604   9.199
 1937POPC   GL226966   9.621   0.265   9.087
 1937POPC   C1A26967   9.517   0.629   8.766
 1937POPC   D2A26968   9.842   0.431   8.581
 1937POPC   C3A26969   9.930   0.451   8.173
 1937POPC   C4A26970   9.684   0.437   7.816
 1937POPC   C1B26971   9.571   0.020   8.708
 1937POPC   C2B26972   9.471   0.092   8.260
 1937POPC   C3B26973   9.582  44.942   7.843
 1937POPC   C4B26974   9.883   0.034   7.528
 1938POPC   NC326975   3.197  33.923   9.610
 1938POPC   PO426976   2.515  33.947   9.641
 1938POPC   GL126977   2.806  34.023   9.260
 1938POPC   GL226978   3.084  33.818   9.128
 1938POPC   C1A26979   2.745  33.970   8.792
 1938POPC   D2A26980   2.735  33.733   8.388
 1938POPC   C3A26981   2.739  33.958   8.008
 1938POPC   C4A26982   2.538  33.967   7.598
 1938POPC   C1B26983   3.171  33.679   8.684
 1938POPC   C2B26984   3.131  33.369   8.344
 1938POPC   C3B26985   2.874  33.427   7.982
 1938POPC   C4B26986   3.076  33.730   7.729
 1939POPC   NC326987   3.311   7.481   9.443
 1939POPC   PO426988   3.889   7.272   9.593
 1939POPC   GL126989   3.701   7.190   9.195
 1939POPC   GL226990   3.342   7.068   9.145
 1939POPC   C1A26991   3.659   7.234   8.766
 1939POPC   D2A26992   3.869   7.201   8.389
 1939POPC   C3A26993   3.670   7.445   8.112
 1939POPC   C4A26994   3.598   7.655   7.745
 1939POPC   C1B26995   3.151   7.381   8.833
 1939POPC   C2B26996   3.292   7.620   8.506
 1939POPC   C3B26997   3.179   7.594   8.086
 1939POPC   C4B26998   3.291   7.265   7.789
 1940POPC   NC326999  30.473  19.764  10.134
 1940POPC   PO427000  30.377  20.085   9.558
 1940POPC   GL127001  30.549  20.059   9.160
 1940POPC   GL227002  30.864  20.203   9.173
 1940POPC   C1A27003  30.470  20.088   8.731
 1940POPC   D2A27004  30.445  19.884   8.355
 1940POPC   C3A27005  30.554  20.015   7.951
 1940POPC   C4A27006  30.496  19.816   7.528
 1940POPC   C1B27007  30.929  19.869   8.816
 1940POPC   C2B27008  30.899  19.615   8.408
 1940POPC   C3B27009  30.801  19.570   7.957
 1940POPC   C4B27010  31.021  19.781   7.641
 1941POPC   NC327011  37.345  27.262   9.429
 1941POPC   PO427012  37.795  27.627   9.769
 1941POPC   GL127013  37.695  27.606   9.285
 1941POPC   GL227014  37.559  27.914   9.184
 1941POPC   C1A27015  37.838  27.665   8.823
 1941POPC   D2A27016  38.014  27.842   8.421
 1941POPC   C3A27017  37.876  27.728   7.993
 1941POPC   C4A27018  37.857  27.382   7.683
 1941POPC   C1B27019  37.353  27.855   8.786
 1941POPC   C2B27020  37.492  27.707   8.374
 1941POPC   C3B27021  37.445  27.439   8.008
 1941POPC   C4B27022  37.477  27.695   7.614
 1942POPC   NC327023   5.931  33.909   9.488
 1942POPC   PO427024   5.372  33.425   9.565
 1942POPC   GL127025   5.517  33.590   9.168
 1942POPC   GL227026   5.869  33.575   9.149
 1942POPC   C1A27027   5.698  33.643   8.706
 1942POPC   D2A27028   5.790  33.800   8.292
 1942POPC   C3A27029   5.868  33.572   7.950
 1942POPC   C4A27030   5.682  33.644   7.567
 1942POPC   C1B27031   6.153  33.796   8.861
 1942POPC   C2B27032   6.276  33.774   8.420
 1942POPC   C3B27033   6.213  33.941   8.016
 1942POPC   C4B27034   6.001  34.036   7.664
 1943POPC   NC327035  34.781  44.439   9.386
 1943POPC   PO427036  34.309  43.884   9.578
 1943POPC   GL127037  34.589  43.996   9.195
 1943POPC   GL227038  34.987  43.990   9.195
 1943POPC   C1A27039  34.615  44.034   8.746
 1943POPC   D2A27040  34.512  43.830   8.363
 1943POPC   C3A27041  34.344  44.004   7.978
 1943POPC   C4A27042  34.256  43.943   7.547
 1943POPC   C1B27043  35.043  43.763   8.800
 1943POPC   C2B27044  34.999  43.662   8.353
 1943POPC   C3B27045  34.827  43.761   7.943
 1943POPC   C4B27046  34.820  44.118   7.708
 1944POPC   NC327047  39.483  24.824   9.447
 1944POPC   PO427048  38.884  24.438   9.571
 1944POPC   GL127049  39.167  24.485   9.188
 1944POPC   GL227050  39.481  24.302   9.107
 1944POPC   C1A27051  39.123  24.601   8.741
 1944POPC   D2A27052  38.988  24.423   8.326
 1944POPC   C3A27053  39.151  24.613   7.944
 1944POPC   C4A27054  39.264  24.700   7.488
 1944POPC   C1B27055  39.610  24.439   8.682
 1944POPC   C2B27056  39.488  24.352   8.242
 1944POPC   C3B27057  39.450  24.236   7.791
 1944POPC   C4B27058  39.421  24.255   7.322
 1945POPC   NC327059  37.256  12.446   9.383
 1945POPC   PO427060  37.798  12.940   9.409
 1945POPC   GL127061  37.641  12.819   9.082
 1945POPC   GL227062  37.670  12.497   9.077
 1945POPC   C1A27063  37.833  12.808   8.695
 1945POPC   D2A27064  37.724  13.077   8.382
 1945POPC   C3A27065  37.829  12.907   7.986
 1945POPC   C4A27066  37.480  13.137   7.788
 1945POPC   C1B27067  37.387  12.553   8.726
 1945POPC   C2B27068  37.532  12.599   8.299
 1945POPC   C3B27069  37.421  12.633   7.848
 1945POPC   C4B27070  37.305  12.560   7.388
 1946POPC   NC327071   5.314  27.854   9.572
 1946POPC   PO427072   4.975  28.388   9.327
 1946POPC   GL127073   5.177  28.225   9.021
 1946POPC   GL227074   5.485  28.067   9.140
 1946POPC   C1A27075   5.001  28.156   8.639
 1946POPC   D2A27076   5.131  28.361   8.284
 1946POPC   C3A27077   4.875  28.603   8.017
 1946POPC   C4A27078   5.032  28.375   7.685
 1946POPC   C1B27079   5.625  28.463   8.946
 1946POPC   C2B27080   5.594  28.576   8.531
 1946POPC   C3B27081   5.735  28.623   8.127
 1946POPC   C4B27082   5.501  28.274   7.924
 1947POPC   NC327083  34.333   8.497   9.306
 1947POPC   PO427084  34.650   7.921   9.495
 1947POPC   GL127085  34.722   8.134   9.135
 1947POPC   GL227086  34.921   8.409   9.258
 1947POPC   C1A27087  34.522   8.191   8.734
 1947POPC   D2A27088  34.375   8.463   8.426
 1947POPC   C3A27089  34.517   8.382   8.039
 1947POPC   C4A27090  34.318   8.338   7.663
 1947POPC   C1B27091  34.994   8.487   8.831
 1947POPC   C2B27092  34.897   8.413   8.407
 1947POPC   C3B27093  35.003   8.261   7.989
 1947POPC   C4B27094  34.836   8.312   7.568
 1948POPC   NC327095  25.718  21.584   9.387
 1948POPC   PO427096  26.119  21.070   9.493
 1948POPC   GL127097  26.053  21.277   9.116
 1948POPC   GL227098  26.239  21.580   9.089
 1948POPC   C1A27099  26.048  21.291   8.669
 1948POPC   D2A27100  26.314  21.156   8.323
 1948POPC   C3A27101  26.112  21.143   7.920
 1948POPC   C4A27102  25.768  21.326   7.638
 1948POPC   C1B27103  26.450  21.788   8.759
 1948POPC   C2B27104  26.587  21.731   8.367
 1948POPC   C3B27105  26.404  21.559   7.995
 1948POPC   C4B27106  26.245  21.514   7.578
 1949POPC   NC327107  40.927  30.327   9.474
 1949POPC   PO427108  40.981  30.995   9.409
 1949POPC   GL127109  40.618  30.888   9.115
 1949POPC   GL227110  40.487  30.528   9.097
 1949POPC   C1A27111  40.698  30.924   8.681
 1949POPC   D2A27112  41.067  30.964   8.420
 1949POPC   C3A27113  40.992  30.705   8.076
 1949POPC   C4A27114  41.023  30.847   7.668
 1949POPC   C1B27115  40.286  30.604   8.687
 1949POPC   C2B27116  40.495  30.652   8.273
 1949POPC   C3B27117  40.547  30.573   7.831
 1949POPC   C4B27118  40.571  30.582   7.387
 1950POPC   NC327119  27.503  28.119   9.325
 1950POPC   PO427120  27.366  28.744   9.484
 1950POPC   GL127121  27.580  28.614   9.140
 1950POPC   GL227122  27.907  28.465   9.251
 1950POPC   C1A27123  27.487  28.429   8.750
 1950POPC   D2A27124  27.395  28.260   8.359
 1950POPC   C3A27125  27.504  28.446   7.992
 1950POPC   C4A27126  27.225  28.305   7.729
 1950POPC   C1B27127  27.977  28.620   8.819
 1950POPC   C2B27128  27.797  28.640   8.405
 1950POPC   C3B27129  27.929  28.746   8.048
 1950POPC   C4B27130  27.912  28.590   7.686
 1951POPC   NC327131  27.362   4.894   9.516
 1951POPC   PO427132  27.722   5.492   9.671
 1951POPC   GL127133  27.530   5.352   9.268
 1951POPC   GL227134  27.666   5.068   9.119
 1951POPC   C1A27135  27.269   5.285   8.871
 1951POPC   D2A27136  27.295   5.120   8.462
 1951POPC   C3A27137  27.325   5.395   8.131
 1951POPC   C4A27138  27.482   5.286   7.759
 1951POPC   C1B27139  27.469   4.808   8.842
 1951POPC   C2B27140  27.610   4.705   8.439
 1951POPC   C3B27141  27.426   4.810   8.057
 1951POPC   C4B27142  27.671   4.818   7.723
 1952POPC   NC327143  17.543   5.440   9.395
 1952POPC   PO427144  17.396   6.087   9.562
 1952POPC   GL127145  17.532   5.934   9.187
 1952POPC   GL227146  17.234   5.707   9.091
 1952POPC   C1A27147  17.729   5.999   8.788
 1952POPC   D2A27148  17.516   5.930   8.422
 1952POPC   C3A27149  17.649   5.818   8.035
 1952POPC   C4A27150  17.373   5.559   7.807
 1952POPC   C1B27151  17.178   6.023   8.813
 1952POPC   C2B27152  16.978   6.008   8.404
 1952POPC   C3B27153  17.202   6.075   8.039
 1952POPC   C4B27154  17.283   6.322   7.684
 1953POPC   NC327155   1.932  23.989   9.413
 1953POPC   PO427156   1.677  23.304   9.458
 1953POPC   GL127157   1.897  23.544   9.128
 1953POPC   GL227158   2.255  23.422   8.996
 1953POPC   C1A27159   1.928  23.680   8.709
 1953POPC   D2A27160   2.260  23.521   8.433
 1953POPC   C3A27161   2.134  23.371   8.022
 1953POPC   C4A27162   1.968  23.668   7.737
 1953POPC   C1B27163   2.376  23.866   8.810
 1953POPC   C2B27164   2.150  24.102   8.500
 1953POPC   C3B27165   2.217  23.984   8.101
 1953POPC   C4B27166   2.178  24.167   7.703
 1954POPC   NC327167  10.027  14.230   9.433
 1954POPC   PO427168   9.343  14.545   9.358
 1954POPC   GL127169   9.622  14.352   9.131
 1954POPC   GL227170   9.827  14.653   9.190
 1954POPC   C1A27171   9.625  14.173   8.744
 1954POPC   D2A27172   9.719  13.901   8.424
 1954POPC   C3A27173   9.593  14.094   8.089
 1954POPC   C4A27174   9.607  14.213   7.688
 1954POPC   C1B27175   9.786  14.684   8.746
 1954POPC   C2B27176   9.767  14.937   8.367
 1954POPC   C3B27177   9.804  14.731   7.995
 1954POPC   C4B27178   9.936  14.637   7.603
 1955POPC   NC327179  38.571   5.473   9.533
 1955POPC   PO427180  38.252   6.075   9.594
 1955POPC   GL127181  38.498   5.910   9.279
 1955POPC   GL227182  38.809   6.057   9.278
 1955POPC   C1A27183  38.399   5.820   8.887
 1955POPC   D2A27184  38.267   6.041   8.494
 1955POPC   C3A27185  38.252   5.745   8.166
 1955POPC   C4A27186  38.359   5.540   7.785
 1955POPC   C1B27187  38.903   5.841   8.876
 1955POPC   C2B27188  38.723   5.807   8.473
 1955POPC   C3B27189  38.764   5.593   8.089
 1955POPC   C4B27190  38.961   5.560   7.680
 1956POPC   NC327191   0.841  19.934   9.664
 1956POPC   PO427192   1.386  19.602   9.524
 1956POPC   GL127193   1.219  19.652   9.136
 1956POPC   GL227194   1.252  20.005   9.136
 1956POPC   C1A27195   1.397  19.745   8.719
 1956POPC   D2A27196   1.598  19.771   8.308
 1956POPC   C3A27197   1.321  19.666   7.965
 1956POPC   C4A27198   0.996  19.900   7.755
 1956POPC   C1B27199   1.512  20.245   8.810
 1956POPC   C2B27200   1.686  20.271   8.353
 1956POPC   C3B27201   1.458  20.389   7.936
 1956POPC   C4B27202   1.301  20.256   7.495
 1957POPC   NC327203   5.210   4.684   9.492
 1957POPC   PO427204   4.902   4.069   9.582
 1957POPC   GL127205   5.093   4.238   9.235
 1957POPC   GL227206   4.903   4.499   9.130
 1957POPC   C1A27207   5.272   4.304   8.815
 1957POPC   D2A27208   5.095   4.171   8.425
 1957POPC   C3A27209   5.261   4.260   8.029
 1957POPC   C4A27210   5.002   4.085   7.685
 1957POPC   C1B27211   4.758   4.378   8.767
 1957POPC   C2B27212   4.773   4.575   8.389
 1957POPC   C3B27213   4.784   4.438   7.991
 1957POPC   C4B27214   4.875   4.586   7.605
 1958POPC   NC327215  33.268  31.632   9.532
 1958POPC   PO427216  33.952  31.425   9.529
 1958POPC   GL127217  33.917  31.587   9.137
 1958POPC   GL227218  33.626  31.815   9.177
 1958POPC   C1A27219  34.057  31.452   8.758
 1958POPC   D2A27220  34.012  31.285   8.372
 1958POPC   C3A27221  34.081  31.541   8.022
 1958POPC   C4A27222  33.984  31.579   7.605
 1958POPC   C1B27223  33.705  31.805   8.716
 1958POPC   C2B27224  33.633  31.630   8.290
 1958POPC   C3B27225  33.546  31.523   7.856
 1958POPC   C4B27226  33.519  31.825   7.496
 1959POPC   NC327227  41.749   3.211   9.499
 1959POPC   PO427228  41.896   2.532   9.557
 1959POPC   GL127229  41.532   2.668   9.246
 1959POPC   GL227230  41.581   2.965   9.090
 1959POPC   C1A27231  41.371   2.621   8.779
 1959POPC   D2A27232  41.545   2.378   8.396
 1959POPC   C3A27233  41.481   2.533   7.944
 1959POPC   C4A27234  41.217   2.820   7.657
 1959POPC   C1B27235  41.831   3.101   8.755
 1959POPC   C2B27236  41.682   3.099   8.313
 1959POPC   C3B27237  41.823   2.922   7.916
 1959POPC   C4B27238  42.085   3.003   7.539
 1960POPC   NC327239  25.202  36.860   9.552
 1960POPC   PO427240  25.709  37.250   9.354
 1960POPC   GL127241  25.303  37.197   9.188
 1960POPC   GL227242  25.423  36.865   9.108
 1960POPC   C1A27243  25.092  37.165   8.818
 1960POPC   D2A27244  25.324  37.148   8.463
 1960POPC   C3A27245  25.108  36.942   8.172
 1960POPC   C4A27246  25.234  37.020   7.763
 1960POPC   C1B27247  25.390  36.715   8.735
 1960POPC   C2B27248  25.567  36.631   8.375
 1960POPC   C3B27249  25.422  36.582   7.991
 1960POPC   C4B27250  25.581  36.650   7.625
 1961POPC   NC327251  42.745   6.505   9.637
 1961POPC   PO427252  42.153   6.722   9.398
 1961POPC   GL127253  42.586   6.713   9.184
 1961POPC   GL227254  42.677   6.391   9.139
 1961POPC   C1A27255  42.653   6.801   8.735
 1961POPC   D2A27256  42.378   6.952   8.432
 1961POPC   C3A27257  42.316   6.774   8.061
 1961POPC   C4A27258  42.303   6.756   7.668
 1961POPC   C1B27259  42.342   6.383   8.844
 1961POPC   C2B27260  42.413   6.413   8.424
 1961POPC   C3B27261  42.548   6.320   8.044
 1961POPC   C4B27262  42.411   6.239   7.636
 1962POPC   NC327263  32.059  29.407   9.872
 1962POPC   PO427264  32.641  29.100   9.668
 1962POPC   GL127265  32.436  29.157   9.273
 1962POPC   GL227266  32.097  29.273   9.298
 1962POPC   C1A27267  32.302  28.978   8.879
 1962POPC   D2A27268  32.299  29.181   8.497
 1962POPC   C3A27269  32.358  28.990   8.116
 1962POPC   C4A27270  32.186  29.108   7.714
 1962POPC   C1B27271  32.030  29.443   8.861
 1962POPC   C2B27272  32.015  29.604   8.430
 1962POPC   C3B27273  31.967  29.428   8.040
 1962POPC   C4B27274  31.858  29.476   7.602
 1963POPC   NC327275  13.286  27.394   9.526
 1963POPC   PO427276  13.804  26.853   9.681
 1963POPC   GL127277  13.772  26.975   9.299
 1963POPC   GL227278  13.882  26.665   9.189
 1963POPC   C1A27279  13.635  27.078   8.902
 1963POPC   D2A27280  13.733  26.992   8.485
 1963POPC   C3A27281  13.370  26.940   8.211
 1963POPC   C4A27282  13.479  27.005   7.803
 1963POPC   C1B27283  13.773  26.583   8.788
 1963POPC   C2B27284  13.588  26.504   8.386
 1963POPC   C3B27285  13.530  26.422   7.984
 1963POPC   C4B27286  13.803  26.617   7.761
 1964POPC   NC327287   5.539   5.873   9.352
 1964POPC   PO427288   4.809   5.674   9.527
 1964POPC   GL127289   5.051   5.846   9.236
 1964POPC   GL227290   5.154   5.531   9.044
 1964POPC   C1A27291   4.997   5.962   8.818
 1964POPC   D2A27292   5.037   5.799   8.377
 1964POPC   C3A27293   4.694   5.892   8.095
 1964POPC   C4A27294   4.645   6.159   7.731
 1964POPC   C1B27295   5.415   5.674   8.717
 1964POPC   C2B27296   5.538   5.617   8.328
 1964POPC   C3B27297   5.391   5.860   7.979
 1964POPC   C4B27298   5.050   5.829   7.717
 1965POPC   NC327299  14.605  13.580   9.559
 1965POPC   PO427300  14.104  13.344   9.134
 1965POPC   GL127301  14.509  13.542   9.061
 1965POPC   GL227302  14.656  13.874   9.117
 1965POPC   C1A27303  14.580  13.606   8.649
 1965POPC   D2A27304  14.335  13.340   8.407
 1965POPC   C3A27305  14.214  13.563   8.075
 1965POPC   C4A27306  14.433  13.486   7.729
 1965POPC   C1B27307  14.936  13.973   8.777
 1965POPC   C2B27308  15.021  13.768   8.414
 1965POPC   C3B27309  14.743  13.667   8.091
 1965POPC   C4B27310  14.642  13.958   7.737
 1966POPC   NC327311  10.248   9.570   9.770
 1966POPC   PO427312  10.258  10.257   9.688
 1966POPC   GL127313  10.489  10.059   9.256
 1966POPC   GL227314  10.479   9.684   9.181
 1966POPC   C1A27315  10.389  10.016   8.790
 1966POPC   D2A27316  10.299   9.911   8.326
 1966POPC   C3A27317  10.588   9.764   7.955
 1966POPC   C4A27318  10.780  10.009   7.608
 1966POPC   C1B27319  10.455   9.515   8.707
 1966POPC   C2B27320  10.416   9.383   8.246
 1966POPC   C3B27321  10.236   9.451   7.785
 1966POPC   C4B27322  10.266   9.322   7.325
 1967POPC   NC327323  31.968  14.218   9.548
 1967POPC   PO427324  32.576  14.545   9.512
 1967POPC   GL127325  32.472  14.280   9.188
 1967POPC   GL227326  32.197  14.487   9.121
 1967POPC   C1A27327  32.531  14.272   8.746
 1967POPC   D2A27328  32.259  14.368   8.390
 1967POPC   C3A27329  32.446  14.281   7.998
 1967POPC   C4A27330  32.401  14.342   7.567
 1967POPC   C1B27331  32.038  14.142   8.875
 1967POPC   C2B27332  31.908  14.005   8.458
 1967POPC   C3B27333  31.849  14.157   8.051
 1967POPC   C4B27334  31.978  14.098   7.641
 1968POPC   NC327335   1.621   0.461   9.576
 1968POPC   PO427336   1.010   0.295   9.574
 1968POPC   GL127337   1.269   0.352   9.208
 1968POPC   GL227338   1.331   0.720   9.141
 1968POPC   C1A27339   1.304   0.191   8.795
 1968POPC   D2A27340   0.938   0.278   8.573
 1968POPC   C3A27341   0.862   0.547   8.213
 1968POPC   C4A27342   0.909   0.434   7.789
 1968POPC   C1B27343   1.117   0.756   8.707
 1968POPC   C2B27344   1.264   0.865   8.257
 1968POPC   C3B27345   1.418   0.635   7.874
 1968POPC   C4B27346   1.371   0.195   7.781
 1969POPC   NC327347  17.858  43.721   9.623
 1969POPC   PO427348  17.205  43.837   9.504
 1969POPC   GL127349  17.545  43.700   9.193
 1969POPC   GL227350  17.835  43.955   9.178
 1969POPC   C1A27351  17.882  43.498   8.937
 1969POPC   D2A27352  18.010  43.495   8.469
 1969POPC   C3A27353  17.712  43.405   8.155
 1969POPC   C4A27354  17.531  43.607   7.712
 1969POPC   C1B27355  18.041  43.939   8.779
 1969POPC   C2B27356  17.868  44.018   8.394
 1969POPC   C3B27357  17.975  43.825   8.043
 1969POPC   C4B27358  18.037  43.547   7.765
 1970POPC   NC327359  14.337  32.563   9.565
 1970POPC   PO427360  14.582  31.998   9.860
 1970POPC   GL127361  14.522  32.112   9.357
 1970POPC   GL227362  14.525  32.422   9.107
 1970POPC   C1A27363  14.185  32.071   9.002
 1970POPC   D2A27364  14.078  32.021   8.547
 1970POPC   C3A27365  14.191  32.304   8.189
 1970POPC   C4A27366  14.195  32.286   7.725
 1970POPC   C1B27367  14.478  32.348   8.660
 1970POPC   C2B27368  14.721  32.327   8.292
 1970POPC   C3B27369  14.642  32.492   7.903
 1970POPC   C4B27370  14.686  32.378   7.508
 1971POPC   NC327371  17.595  19.298   9.552
 1971POPC   PO427372  17.159  18.817   9.676
 1971POPC   GL127373  17.185  19.173   9.258
 1971POPC   GL227374  17.505  19.183   9.077
 1971POPC   C1A27375  17.167  19.176   8.731
 1971POPC   D2A27376  17.272  18.839   8.400
 1971POPC   C3A27377  17.364  18.982   8.001
 1971POPC   C4A27378  17.278  19.171   7.608
 1971POPC   C1B27379  17.652  18.951   8.715
 1971POPC   C2B27380  17.875  18.952   8.306
 1971POPC   C3B27381  17.856  18.917   7.894
 1971POPC   C4B27382  17.763  19.043   7.464
 1972POPC   NC327383  30.232  12.363   9.449
 1972POPC   PO427384  30.300  11.622   9.478
 1972POPC   GL127385  29.980  11.841   9.177
 1972POPC   GL227386  29.986  12.168   9.029
 1972POPC   C1A27387  29.920  11.769   8.736
 1972POPC   D2A27388  29.778  11.900   8.325
 1972POPC   C3A27389  29.970  11.674   7.967
 1972POPC   C4A27390  29.859  11.805   7.527
 1972POPC   C1B27391  30.002  12.393   8.639
 1972POPC   C2B27392  30.106  12.347   8.221
 1972POPC   C3B27393  29.880  12.173   7.870
 1972POPC   C4B27394  29.819  12.290   7.403
 1973POPC   NC327395  25.442  14.463   9.542
 1973POPC   PO427396  24.775  14.477   9.432
 1973POPC   GL127397  25.118  14.402   9.122
 1973POPC   GL227398  25.481  14.494   9.050
 1973POPC   C1A27399  25.184  14.259   8.697
 1973POPC   D2A27400  25.187  14.015   8.336
 1973POPC   C3A27401  25.163  14.268   7.976
 1973POPC   C4A27402  25.010  14.364   7.573
 1973POPC   C1B27403  25.681  14.404   8.653
 1973POPC   C2B27404  25.619  14.279   8.221
 1973POPC   C3B27405  25.629  14.252   7.773
 1973POPC   C4B27406  25.490  14.275   7.365
 1974POPC   NC327407  44.628  39.295   9.724
 1974POPC   PO427408   0.101  38.762   9.603
 1974POPC   GL127409  44.888  39.061   9.254
 1974POPC   GL227410  44.546  39.271   9.241
 1974POPC   C1A27411  44.781  39.249   8.805
 1974POPC   D2A27412  44.805  39.219   8.368
 1974POPC   C3A27413  44.708  39.468   8.019
 1974POPC   C4A27414  44.636  39.150   7.698
 1974POPC   C1B27415  44.268  39.232   8.884
 1974POPC   C2B27416  44.321  39.053   8.471
 1974POPC   C3B27417  44.258  39.223   8.060
 1974POPC   C4B27418  44.158  39.494   7.703
 1975POPC   NC327419  40.971  13.239   9.255
 1975POPC   PO427420  40.601  12.780   9.589
 1975POPC   GL127421  40.646  12.819   9.138
 1975POPC   GL227422  40.465  13.102   9.074
 1975POPC   C1A27423  40.789  12.955   8.700
 1975POPC   D2A27424  40.954  13.090   8.305
 1975POPC   C3A27425  40.868  12.856   7.911
 1975POPC   C4A27426  40.948  12.926   7.471
 1975POPC   C1B27427  40.419  13.323   8.700
 1975POPC   C2B27428  40.413  13.102   8.366
 1975POPC   C3B27429  40.529  13.216   8.035
 1975POPC   C4B27430  40.289  13.202   7.741
 1976POPC   NC327431  29.309  44.503   9.612
 1976POPC   PO427432  28.774  44.347   9.276
 1976POPC   GL127433  28.989  44.749   9.212
 1976POPC   GL227434  29.292  44.600   9.120
 1976POPC   C1A27435  29.143  44.959   8.808
 1976POPC   D2A27436  29.245  44.720   8.453
 1976POPC   C3A27437  29.216  44.733   8.015
 1976POPC   C4A27438  28.849  44.555   7.823
 1976POPC   C1B27439  29.365  44.311   8.798
 1976POPC   C2B27440  29.490  44.268   8.366
 1976POPC   C3B27441  29.206  44.165   8.041
 1976POPC   C4B27442  29.274  44.358   7.672
 1977POPC   NC327443  25.806  43.243   9.652
 1977POPC   PO427444  26.368  42.874   9.495
 1977POPC   GL127445  26.211  42.952   9.127
 1977POPC   GL227446  25.855  42.911   9.258
 1977POPC   C1A27447  26.270  43.274   8.790
 1977POPC   D2A27448  25.982  43.400   8.449
 1977POPC   C3A27449  26.039  43.301   8.033
 1977POPC   C4A27450  26.330  43.015   7.802
 1977POPC   C1B27451  25.799  43.097   8.873
 1977POPC   C2B27452  26.001  42.904   8.538
 1977POPC   C3B27453  25.947  42.823   8.125
 1977POPC   C4B27454  25.966  42.676   7.715
 1978POPC   NC327455  16.906  43.444   9.491
 1978POPC   PO427456  16.591  42.756   9.578
 1978POPC   GL127457  16.690  42.970   9.241
 1978POPC   GL227458  16.458  43.260   9.157
 1978POPC   C1A27459  16.541  42.841   8.834
 1978POPC   D2A27460  16.280  43.072   8.532
 1978POPC   C3A27461  16.382  42.956   8.115
 1978POPC   C4A27462  16.434  43.012   7.673
 1978POPC   C1B27463  16.770  43.286   8.843
 1978POPC   C2B27464  16.764  43.181   8.390
 1978POPC   C3B27465  16.857  43.119   7.941
 1978POPC   C4B27466  17.035  43.456   7.644
 1979POPC   NC327467  38.280  41.487   9.967
 1979POPC   PO427468  38.698  41.248   9.496
 1979POPC   GL127469  38.561  41.307   9.107
 1979POPC   GL227470  38.198  41.316   9.081
 1979POPC   C1A27471  38.776  41.438   8.704
 1979POPC   D2A27472  38.904  41.269   8.313
 1979POPC   C3A27473  38.823  41.509   7.971
 1979POPC   C4A27474  38.574  41.551   7.623
 1979POPC   C1B27475  38.301  41.604   8.763
 1979POPC   C2B27476  38.452  41.787   8.390
 1979POPC   C3B27477  38.265  41.688   8.019
 1979POPC   C4B27478  38.108  41.796   7.627
 1980POPC   NC327479  18.851  33.949   9.632
 1980POPC   PO427480  19.433  34.292   9.442
 1980POPC   GL127481  19.262  33.885   9.268
 1980POPC   GL227482  18.927  33.905   9.130
 1980POPC   C1A27483  19.281  33.818   8.794
 1980POPC   D2A27484  19.150  34.084   8.444
 1980POPC   C3A27485  19.186  33.960   7.998
 1980POPC   C4A27486  18.919  34.120   7.668
 1980POPC   C1B27487  18.774  33.695   8.740
 1980POPC   C2B27488  18.935  33.619   8.299
 1980POPC   C3B27489  19.023  33.438   7.879
 1980POPC   C4B27490  18.734  33.333   7.506
 1981POPC   NC327491  36.927   0.115   9.541
 1981POPC   PO427492  36.641   0.701   9.489
 1981POPC   GL127493  36.891   0.539   9.126
 1981POPC   GL227494  37.025   0.211   9.071
 1981POPC   C1A27495  36.772   0.515   8.684
 1981POPC   D2A27496  36.783   0.733   8.258
 1981POPC   C3A27497  36.675   0.406   7.965
 1981POPC   C4A27498  36.857   0.170   7.628
 1981POPC   C1B27499  37.192   0.203   8.698
 1981POPC   C2B27500  37.170   0.441   8.374
 1981POPC   C3B27501  37.167   0.265   8.013
 1981POPC   C4B27502  37.118   0.591   7.748
 1982POPC   NC327503  10.055  42.761   9.503
 1982POPC   PO427504   9.660  43.297   9.431
 1982POPC   GL127505   9.805  43.043   9.113
 1982POPC   GL227506   9.630  42.712   9.178
 1982POPC   C1A27507   9.906  43.149   8.667
 1982POPC   D2A27508   9.703  43.482   8.399
 1982POPC   C3A27509   9.626  43.357   7.971
 1982POPC   C4A27510   9.564  42.964   7.752
 1982POPC   C1B27511   9.905  42.648   8.830
 1982POPC   C2B27512   9.821  42.663   8.406
 1982POPC   C3B27513   9.923  42.986   8.142
 1982POPC   C4B27514  10.038  43.099   7.728
 1983POPC   NC327515  34.570  44.906   9.875
 1983POPC   PO427516  34.470  44.772   9.266
 1983POPC   GL127517  34.460  44.475   8.956
 1983POPC   GL227518  34.714  44.609   8.721
 1983POPC   C1A27519  34.321  44.374   8.517
 1983POPC   D2A27520  34.632  44.342   8.221
 1983POPC   C3A27521  34.480  44.487   7.808
 1983POPC   C4A27522  34.274  44.417   7.393
 1983POPC   C1B27523  34.308  44.861   8.639
 1983POPC   C2B27524  34.147  44.886   8.264
 1983POPC   C3B27525  34.414  44.994   7.923
 1983POPC   C4B27526  34.453  44.900   7.485
 1984POPC   NC327527   8.034  17.755   9.494
 1984POPC   PO427528   8.237  17.144   9.757
 1984POPC   GL127529   8.246  17.340   9.294
 1984POPC   GL227530   7.905  17.463   9.107
 1984POPC   C1A27531   8.276  17.238   8.831
 1984POPC   D2A27532   7.956  17.158   8.524
 1984POPC   C3A27533   7.992  17.200   8.044
 1984POPC   C4A27534   8.196  17.380   7.648
 1984POPC   C1B27535   8.022  17.723   8.762
 1984POPC   C2B27536   8.096  17.627   8.336
 1984POPC   C3B27537   7.954  17.738   7.938
 1984POPC   C4B27538   7.850  18.049   7.632
 1985POPC   NC327539   0.860  17.515   9.735
 1985POPC   PO427540   0.428  17.125   9.291
 1985POPC   GL127541   0.186  17.401   9.069
 1985POPC   GL227542  44.990  17.232   8.855
 1985POPC   C1A27543   0.377  17.540   8.702
 1985POPC   D2A27544   0.480  17.584   8.288
 1985POPC   C3A27545   0.188  17.532   7.978
 1985POPC   C4A27546   0.403  17.694   7.677
 1985POPC   C1B27547   0.233  17.081   8.544
 1985POPC   C2B27548   0.664  17.151   8.553
 1985POPC   C3B27549   0.909  17.304   8.214
 1985POPC   C4B27550   0.674  17.283   7.840
 1986POPC   NC327551   4.303  39.057   9.657
 1986POPC   PO427552   4.672  39.663   9.464
 1986POPC   GL127553   4.416  39.343   9.248
 1986POPC   GL227554   4.185  39.526   9.093
 1986POPC   C1A27555   4.213  39.014   8.947
 1986POPC   D2A27556   4.018  38.836   8.534
 1986POPC   C3A27557   4.106  38.930   8.079
 1986POPC   C4A27558   4.290  39.157   7.712
 1986POPC   C1B27559   4.451  39.448   8.740
 1986POPC   C2B27560   4.388  39.629   8.387
 1986POPC   C3B27561   4.227  39.565   7.996
 1986POPC   C4B27562   4.619  39.560   7.778
 1987POPC   NC327563   3.552   9.126   9.694
 1987POPC   PO427564   3.887   8.690   9.331
 1987POPC   GL127565   3.598   8.992   9.205
 1987POPC   GL227566   3.397   8.799   9.063
 1987POPC   C1A27567   3.513   9.185   8.797
 1987POPC   D2A27568   3.366   8.945   8.438
 1987POPC   C3A27569   3.515   9.039   7.998
 1987POPC   C4A27570   3.350   9.157   7.588
 1987POPC   C1B27571   3.599   8.579   8.721
 1987POPC   C2B27572   3.513   8.481   8.274
 1987POPC   C3B27573   3.700   8.560   7.881
 1987POPC   C4B27574   3.675   8.787   7.521
 1988POPC   NC327575  10.517  16.300   9.397
 1988POPC   PO427576  10.717  15.620   9.461
 1988POPC   GL127577  10.625  15.876   9.118
 1988POPC   GL227578  10.279  15.825   9.201
 1988POPC   C1A27579  10.459  16.176   8.792
 1988POPC   D2A27580  10.261  16.340   8.455
 1988POPC   C3A27581  10.461  16.197   8.098
 1988POPC   C4A27582  10.550  15.997   7.729
 1988POPC   C1B27583  10.332  15.627   8.783
 1988POPC   C2B27584  10.632  15.804   8.488
 1988POPC   C3B27585  10.746  15.700   8.112
 1988POPC   C4B27586  10.567  15.490   7.771
 1989POPC   NC327587  32.629  27.365   9.573
 1989POPC   PO427588  31.995  27.559   9.493
 1989POPC   GL127589  32.155  27.699   9.124
 1989POPC   GL227590  32.511  27.608   9.113
 1989POPC   C1A27591  31.998  27.753   8.710
 1989POPC   D2A27592  31.809  27.740   8.299
 1989POPC   C3A27593  32.036  27.876   7.964
 1989POPC   C4A27594  31.907  27.813   7.564
 1989POPC   C1B27595  32.355  27.371   8.737
 1989POPC   C2B27596  32.252  27.449   8.303
 1989POPC   C3B27597  32.453  27.569   7.917
 1989POPC   C4B27598  32.257  27.420   7.574
 1990POPC   NC327599  12.196  42.583   9.578
 1990POPC   PO427600  11.912  41.972   9.430
 1990POPC   GL127601  11.961  42.168   9.056
 1990POPC   GL227602  12.069  42.503   9.099
 1990POPC   C1A27603  11.865  42.242   8.634
 1990POPC   D2A27604  11.721  42.446   8.265
 1990POPC   C3A27605  11.898  42.249   7.900
 1990POPC   C4A27606  12.100  41.859   7.743
 1990POPC   C1B27607  11.895  42.750   8.771
 1990POPC   C2B27608  12.065  42.889   8.381
 1990POPC   C3B27609  12.098  42.725   7.972
 1990POPC   C4B27610  11.948  42.666   7.543
 1991POPC   NC327611  37.105  15.517   9.381
 1991POPC   PO427612  37.792  15.242   9.394
 1991POPC   GL127613  37.651  15.124   9.029
 1991POPC   GL227614  37.345  15.059   9.198
 1991POPC   C1A27615  37.413  15.345   8.704
 1991POPC   D2A27616  37.284  15.397   8.280
 1991POPC   C3A27617  37.658  15.228   8.099
 1991POPC   C4A27618  37.915  15.252   7.753
 1991POPC   C1B27619  37.268  14.865   8.824
 1991POPC   C2B27620  37.555  14.818   8.500
 1991POPC   C3B27621  37.427  14.763   8.109
 1991POPC   C4B27622  37.580  14.835   7.736
 1992POPC   NC327623  28.057  16.164   9.460
 1992POPC   PO427624  28.099  16.789   9.780
 1992POPC   GL127625  28.129  16.659   9.290
 1992POPC   GL227626  28.423  16.750   9.061
 1992POPC   C1A27627  27.988  16.609   8.828
 1992POPC   D2A27628  28.295  16.679   8.447
 1992POPC   C3A27629  28.125  16.678   8.014
 1992POPC   C4A27630  28.198  16.590   7.572
 1992POPC   C1B27631  28.652  16.984   8.718
 1992POPC   C2B27632  28.554  17.119   8.303
 1992POPC   C3B27633  28.633  16.781   8.038
 1992POPC   C4B27634  28.693  16.678   7.631
 1993POPC   NC327635  26.729   0.152   9.632
 1993POPC   PO427636  27.033   0.710   9.411
 1993POPC   GL127637  26.960   0.338   9.183
 1993POPC   GL227638  26.598   0.335   9.149
 1993POPC   C1A27639  27.112   0.197   8.767
 1993POPC   D2A27640  27.237   0.547   8.486
 1993POPC   C3A27641  26.982   0.587   8.094
 1993POPC   C4A27642  26.988   0.695   7.624
 1993POPC   C1B27643  26.699   0.529   8.758
 1993POPC   C2B27644  26.724   0.257   8.399
 1993POPC   C3B27645  26.727   0.130   7.969
 1993POPC   C4B27646  26.685   0.284   7.551
 1994POPC   NC327647  41.758   8.100   9.459
 1994POPC   PO427648  41.360   8.641   9.359
 1994POPC   GL127649  41.401   8.211   9.106
 1994POPC   GL227650  41.692   7.951   8.985
 1994POPC   C1A27651  41.323   8.088   8.682
 1994POPC   D2A27652  41.091   8.338   8.430
 1994POPC   C3A27653  41.314   8.441   8.093
 1994POPC   C4A27654  41.373   8.211   7.736
 1994POPC   C1B27655  41.948   8.322   8.829
 1994POPC   C2B27656  42.123   8.463   8.437
 1994POPC   C3B27657  41.982   8.265   8.067
 1994POPC   C4B27658  41.879   8.422   7.684
 1995POPC   NC327659  29.348   1.869   9.346
 1995POPC   PO427660  29.777   2.388   9.539
 1995POPC   GL127661  29.436   2.357   9.161
 1995POPC   GL227662  29.083   2.133   9.018
 1995POPC   C1A27663  29.307   2.477   8.738
 1995POPC   D2A27664  29.098   2.175   8.484
 1995POPC   C3A27665  29.217   2.082   8.058
 1995POPC   C4A27666  29.072   2.126   7.667
 1995POPC   C1B27667  29.132   1.718   8.753
 1995POPC   C2B27668  29.307   1.403   8.454
 1995POPC   C3B27669  29.312   1.486   8.010
 1995POPC   C4B27670  29.332   1.712   7.615
 1996POPC   NC327671   5.716  22.593   9.720
 1996POPC   PO427672   6.130  22.156   9.641
 1996POPC   GL127673   6.008  22.141   9.146
 1996POPC   GL227674   5.718  22.369   9.172
 1996POPC   C1A27675   6.093  21.977   8.650
 1996POPC   D2A27676   6.016  21.747   8.225
 1996POPC   C3A27677   5.784  22.021   7.943
 1996POPC   C4A27678   5.520  22.386   8.015
 1996POPC   C1B27679   5.846  22.426   8.731
 1996POPC   C2B27680   6.032  22.349   8.313
 1996POPC   C3B27681   6.005  22.533   7.920
 1996POPC   C4B27682   6.200  22.501   7.558
 1997POPC   NC327683  24.933   0.587   9.545
 1997POPC   PO427684  25.523   0.213   9.486
 1997POPC   GL127685  25.220   0.259   9.210
 1997POPC   GL227686  25.226  44.916   9.108
 1997POPC   C1A27687  25.194   0.567   8.876
 1997POPC   D2A27688  24.972   0.711   8.501
 1997POPC   C3A27689  25.100   0.584   8.108
 1997POPC   C4A27690  25.233   0.754   7.725
 1997POPC   C1B27691  25.416   0.101   8.764
 1997POPC   C2B27692  25.442   0.416   8.453
 1997POPC   C3B27693  25.579   0.403   8.040
 1997POPC   C4B27694  25.319   0.250   7.743
 1998POPC   NC327695  19.684  42.079   9.491
 1998POPC   PO427696  19.595  42.790   9.491
 1998POPC   GL127697  19.762  42.489   9.182
 1998POPC   GL227698  19.543  42.255   9.043
 1998POPC   C1A27699  20.025  42.282   8.865
 1998POPC   D2A27700  20.177  42.388   8.484
 1998POPC   C3A27701  19.949  42.432   8.117
 1998POPC   C4A27702  20.135  42.239   7.769
 1998POPC   C1B27703  19.610  42.387   8.625
 1998POPC   C2B27704  19.765  42.043   8.367
 1998POPC   C3B27705  19.624  42.073   7.902
 1998POPC   C4B27706  19.690  42.058   7.420
 1999POPC   NC327707  16.383  33.874   9.342
 1999POPC   PO427708  17.025  33.741   9.473
 1999POPC   GL127709  16.795  33.669   9.087
 1999POPC   GL227710  16.511  33.422   9.087
 1999POPC   C1A27711  16.842  33.783   8.668
 1999POPC   D2A27712  16.925  34.104   8.366
 1999POPC   C3A27713  16.936  33.884   7.984
 1999POPC   C4A27714  16.914  33.521   7.664
 1999POPC   C1B27715  16.385  33.518   8.686
 1999POPC   C2B27716  16.551  33.621   8.270
 1999POPC   C3B27717  16.489  33.710   7.851
 1999POPC   C4B27718  16.405  33.414   7.533
 2000POPC   NC327719  34.278  29.880   9.321
 2000POPC   PO427720  34.696  30.161   9.744
 2000POPC   GL127721  34.805  29.807   9.310
 2000POPC   GL227722  35.037  30.026   9.103
 2000POPC   C1A27723  34.625  29.692   8.820
 2000POPC   D2A27724  34.646  29.835   8.388
 2000POPC   C3A27725  34.441  29.831   8.002
 2000POPC   C4A27726  34.345  29.885   7.571
 2000POPC   C1B27727  34.933  30.155   8.652
 2000POPC   C2B27728  34.902  30.229   8.170
 2000POPC   C3B27729  34.798  30.129   7.731
 2000POPC   C4B27730  35.023  30.050   7.353
 2001POPC   NC327731  32.863  44.606   9.626
 2001POPC   PO427732  33.549  44.534   9.574
 2001POPC   GL127733  33.208  44.643   9.244
 2001POPC   GL227734  32.861  44.808   9.178
 2001POPC   C1A27735  33.087  44.447   8.860
 2001POPC   D2A27736  33.336  44.299   8.513
 2001POPC   C3A27737  33.222  44.428   8.110
 2001POPC   C4A27738  32.860  44.358   7.818
 2001POPC   C1B27739  33.034  44.959   8.819
 2001POPC   C2B27740  32.863  44.954   8.447
 2001POPC   C3B27741  32.869  44.811   8.067
 2001POPC   C4B27742  33.151  44.796   7.768
 2002POPC   NC327743  12.350   9.887   9.555
 2002POPC   PO427744  12.790  10.342   9.603
 2002POPC   GL127745  12.823  10.414   9.212
 2002POPC   GL227746  12.525  10.199   9.147
 2002POPC   C1A27747  12.952  10.705   8.904
 2002POPC   D2A27748  12.797  10.642   8.503
 2002POPC   C3A27749  12.970  10.769   8.118
 2002POPC   C4A27750  13.177  10.593   7.766
 2002POPC   C1B27751  12.431  10.562   8.896
 2002POPC   C2B27752  12.268  10.651   8.493
 2002POPC   C3B27753  12.443  10.625   8.091
 2002POPC   C4B27754  12.293  10.552   7.700
 2003POPC   NC327755  29.468   4.341   9.443
 2003POPC   PO427756  30.181   4.088   9.502
 2003POPC   GL127757  29.908   4.205   9.199
 2003POPC   GL227758  29.905   4.562   9.125
 2003POPC   C1A27759  29.868   4.151   8.781
 2003POPC   D2A27760  29.772   4.388   8.415
 2003POPC   C3A27761  29.971   4.237   8.037
 2003POPC   C4A27762  29.793   3.964   7.737
 2003POPC   C1B27763  30.175   4.561   8.737
 2003POPC   C2B27764  30.210   4.635   8.288
 2003POPC   C3B27765  30.411   4.442   7.890
 2003POPC   C4B27766  30.443   4.521   7.430
 2004POPC   NC327767  44.147  37.986   9.504
 2004POPC   PO427768  43.606  37.626   9.621
 2004POPC   GL127769  43.826  37.688   9.206
 2004POPC   GL227770  43.560  37.951   9.140
 2004POPC   C1A27771  44.035  37.504   8.795
 2004POPC   D2A27772  44.133  37.713   8.363
 2004POPC   C3A27773  44.027  37.445   8.045
 2004POPC   C4A27774  43.956  37.615   7.658
 2004POPC   C1B27775  43.472  37.648   8.804
 2004POPC   C2B27776  43.630  37.563   8.398
 2004POPC   C3B27777  43.534  37.650   7.972
 2004POPC   C4B27778  43.472  37.534   7.534
 2005POPC   NC327779  21.033  12.148   9.541
 2005POPC   PO427780  21.733  12.280   9.548
 2005POPC   GL127781  21.499  12.104   9.197
 2005POPC   GL227782  21.275  12.368   9.127
 2005POPC   C1A27783  21.620  11.890   8.795
 2005POPC   D2A27784  21.705  12.006   8.351
 2005POPC   C3A27785  21.621  11.797   7.940
 2005POPC   C4A27786  21.691  11.778   7.465
 2005POPC   C1B27787  21.289  12.272   8.700
 2005POPC   C2B27788  21.228  12.139   8.283
 2005POPC   C3B27789  21.366  12.255   7.855
 2005POPC   C4B27790  21.080  12.325   7.504
 2006POPC   NC327791  14.029  43.929   9.350
 2006POPC   PO427792  13.605  43.506   9.687
 2006POPC   GL127793  13.571  43.646   9.261
 2006POPC   GL227794  13.609  43.972   9.092
 2006POPC   C1A27795  13.632  43.495   8.868
 2006POPC   D2A27796  13.879  43.402   8.522
 2006POPC   C3A27797  13.842  43.657   8.125
 2006POPC   C4A27798  13.825  43.441   7.697
 2006POPC   C1B27799  13.772  43.919   8.656
 2006POPC   C2B27800  13.745  44.171   8.294
 2006POPC   C3B27801  13.764  44.192   7.872
 2006POPC   C4B27802  13.588  43.868   7.667
 2007POPC   NC327803  18.741  38.289   9.398
 2007POPC   PO427804  19.399  38.128   9.370
 2007POPC   GL127805  19.284  38.408   8.995
 2007POPC   GL227806  19.481  38.704   8.934
 2007POPC   C1A27807  18.993  38.627   8.675
 2007POPC   D2A27808  18.693  38.668   8.295
 2007POPC   C3A27809  18.774  38.415   7.933
 2007POPC   C4A27810  19.009  38.487   7.546
 2007POPC   C1B27811  19.484  38.633   8.500
 2007POPC   C2B27812  19.186  38.437   8.227
 2007POPC   C3B27813  19.239  38.172   7.863
 2007POPC   C4B27814  19.489  38.312   7.462
 2008POPC   NC327815  14.927  40.959   9.711
 2008POPC   PO427816  15.338  40.488   9.643
 2008POPC   GL127817  15.107  40.586   9.247
 2008POPC   GL227818  15.048  40.945   9.184
 2008POPC   C1A27819  15.238  40.625   8.790
 2008POPC   D2A27820  15.080  40.762   8.396
 2008POPC   C3A27821  15.264  40.789   8.001
 2008POPC   C4A27822  15.109  40.594   7.603
 2008POPC   C1B27823  14.785  40.984   8.780
 2008POPC   C2B27824  14.733  41.146   8.347
 2008POPC   C3B27825  14.786  40.947   7.943
 2008POPC   C4B27826  14.897  41.026   7.518
 2009POPC   NC327827   5.480  21.245   9.182
 2009POPC   PO427828   5.604  21.865   9.341
 2009POPC   GL127829   5.294  21.734   9.059
 2009POPC   GL227830   5.037  21.498   9.157
 2009POPC   C1A27831   5.110  21.569   8.672
 2009POPC   D2A27832   5.065  21.571   8.247
 2009POPC   C3A27833   5.200  21.237   8.033
 2009POPC   C4A27834   5.203  21.415   7.635
 2009POPC   C1B27835   4.868  21.149   8.903
 2009POPC   C2B27836   4.896  21.124   8.485
 2009POPC   C3B27837   4.699  21.196   8.116
 2009POPC   C4B27838   4.790  21.128   7.702
 2010POPC   NC327839   5.760   0.608   9.479
 2010POPC   PO427840   5.353   0.043   9.334
 2010POPC   GL127841   5.770   0.256   9.140
 2010POPC   GL227842   6.108   0.062   9.221
 2010POPC   C1A27843   5.912   0.586   8.829
 2010POPC   D2A27844   5.898   0.836   8.430
 2010POPC   C3A27845   6.036   0.724   8.033
 2010POPC   C4A27846   5.689   0.482   7.930
 2010POPC   C1B27847   6.116   0.118   8.785
 2010POPC   C2B27848   6.045   0.336   8.388
 2010POPC   C3B27849   6.106   0.195   7.981
 2010POPC   C4B27850   6.097  44.905   7.670
 2011POPC   NC327851  25.864   8.832   9.679
 2011POPC   PO427852  26.447   9.095   9.546
 2011POPC   GL127853  26.074   8.871   9.220
 2011POPC   GL227854  25.814   9.109   9.109
 2011POPC   C1A27855  25.882   8.711   8.794
 2011POPC   D2A27856  25.982   8.726   8.342
 2011POPC   C3A27857  26.207   9.048   8.114
 2011POPC   C4A27858  26.284   9.110   7.705
 2011POPC   C1B27859  26.022   9.185   8.675
 2011POPC   C2B27860  25.850   9.336   8.287
 2011POPC   C3B27861  25.784   9.119   7.864
 2011POPC   C4B27862  25.641   9.267   7.441
 2012POPC   NC327863  11.990  38.461   9.765
 2012POPC   PO427864  12.158  37.868   9.580
 2012POPC   GL127865  11.997  38.149   9.279
 2012POPC   GL227866  11.967  38.523   9.264
 2012POPC   C1A27867  12.192  38.186   8.856
 2012POPC   D2A27868  12.043  38.185   8.425
 2012POPC   C3A27869  12.050  38.554   8.140
 2012POPC   C4A27870  12.170  38.474   7.707
 2012POPC   C1B27871  11.980  38.655   8.827
 2012POPC   C2B27872  11.619  38.621   8.531
 2012POPC   C3B27873  11.531  38.829   8.146
 2012POPC   C4B27874  11.746  38.771   7.754
 2013POPC   NC327875   0.155  30.052   9.378
 2013POPC   PO427876   0.671  29.655   9.483
 2013POPC   GL127877   0.575  29.868   9.136
 2013POPC   GL227878   0.727  30.156   9.211
 2013POPC   C1A27879   0.369  29.935   8.760
 2013POPC   D2A27880   0.565  29.892   8.403
 2013POPC   C3A27881   0.348  29.980   8.054
 2013POPC   C4A27882   0.552  29.779   7.755
 2013POPC   C1B27883   0.748  30.304   8.782
 2013POPC   C2B27884   0.556  30.408   8.360
 2013POPC   C3B27885   0.635  30.371   7.905
 2013POPC   C4B27886   0.285  30.305   7.639
 2014POPC   NC327887   1.939  11.678   9.728
 2014POPC   PO427888   1.719  12.220   9.519
 2014POPC   GL127889   1.922  12.045   9.187
 2014POPC   GL227890   2.274  11.939   9.206
 2014POPC   C1A27891   1.840  12.122   8.780
 2014POPC   D2A27892   2.019  12.262   8.424
 2014POPC   C3A27893   2.050  12.016   8.074
 2014POPC   C4A27894   2.226  12.130   7.698
 2014POPC   C1B27895   2.306  11.894   8.738
 2014POPC   C2B27896   2.310  11.652   8.334
 2014POPC   C3B27897   2.349  11.653   7.848
 2014POPC   C4B27898   2.385  11.510   7.387
 2015POPC   NC327899   2.608  19.278   9.396
 2015POPC   PO427900   2.982  18.562   9.461
 2015POPC   GL127901   3.104  18.833   9.090
 2015POPC   GL227902   2.945  19.144   9.034
 2015POPC   C1A27903   3.016  18.850   8.610
 2015POPC   D2A27904   2.731  19.132   8.362
 2015POPC   C3A27905   2.826  19.185   7.904
 2015POPC   C4A27906   2.898  18.801   7.649
 2015POPC   C1B27907   2.563  18.909   8.853
 2015POPC   C2B27908   2.461  18.689   8.469
 2015POPC   C3B27909   2.500  18.775   8.031
 2015POPC   C4B27910   2.413  18.959   7.649
 2016POPC   NC327911   2.647  19.954   9.696
 2016POPC   PO427912   3.087  19.444   9.527
 2016POPC   GL127913   2.869  19.646   9.142
 2016POPC   GL227914   2.719  19.949   9.009
 2016POPC   C1A27915   2.861  19.553   8.678
 2016POPC   D2A27916   3.043  19.528   8.244
 2016POPC   C3A27917   2.845  19.789   7.947
 2016POPC   C4A27918   2.468  19.876   7.745
 2016POPC   C1B27919   2.605  20.178   8.632
 2016POPC   C2B27920   2.617  20.201   8.197
 2016POPC   C3B27921   2.591  20.361   7.799
 2016POPC   C4B27922   2.841  20.226   7.458
 2017POPC   NC327923  15.013  28.762   9.686
 2017POPC   PO427924  15.611  28.992   9.524
 2017POPC   GL127925  15.308  29.114   9.199
 2017POPC   GL227926  14.955  28.982   9.208
 2017POPC   C1A27927  15.167  29.319   8.793
 2017POPC   D2A27928  15.267  29.203   8.355
 2017POPC   C3A27929  15.300  29.371   7.943
 2017POPC   C4A27930  15.264  29.089   7.603
 2017POPC   C1B27931  14.721  28.991   8.825
 2017POPC   C2B27932  14.754  29.241   8.458
 2017POPC   C3B27933  14.836  29.128   8.034
 2017POPC   C4B27934  14.768  29.423   7.742
 2018POPC   NC327935  35.581  35.520   9.538
 2018POPC   PO427936  35.015  35.138   9.466
 2018POPC   GL127937  35.362  35.192   9.174
 2018POPC   GL227938  35.288  35.536   9.130
 2018POPC   C1A27939  35.631  35.238   8.817
 2018POPC   D2A27940  35.433  35.341   8.436
 2018POPC   C3A27941  35.558  35.311   8.006
 2018POPC   C4A27942  35.312  35.264   7.622
 2018POPC   C1B27943  34.990  35.580   8.818
 2018POPC   C2B27944  35.108  35.748   8.421
 2018POPC   C3B27945  35.101  35.511   8.062
 2018POPC   C4B27946  35.049  35.690   7.677
 2019POPC   NC327947   6.112  10.738   9.585
 2019POPC   PO427948   5.961  10.142   9.391
 2019POPC   GL127949   6.014  10.458   9.163
 2019POPC   GL227950   5.646  10.443   9.086
 2019POPC   C1A27951   5.969  10.768   8.862
 2019POPC   D2A27952   5.716  10.793   8.490
 2019POPC   C3A27953   5.952  10.632   8.142
 2019POPC   C4A27954   6.095  10.483   7.728
 2019POPC   C1B27955   5.502  10.280   8.674
 2019POPC   C2B27956   5.479  10.400   8.226
 2019POPC   C3B27957   5.582  10.569   7.775
 2019POPC   C4B27958   5.473  10.538   7.313
 2020POPC   NC327959  16.166   6.111   9.622
 2020POPC   PO427960  15.491   5.779   9.537
 2020POPC   GL127961  15.791   5.929   9.228
 2020POPC   GL227962  16.138   5.856   9.184
 2020POPC   C1A27963  15.726   6.025   8.789
 2020POPC   D2A27964  15.941   6.022   8.404
 2020POPC   C3A27965  15.693   6.095   8.043
 2020POPC   C4A27966  15.807   5.868   7.680
 2020POPC   C1B27967  16.283   5.637   8.809
 2020POPC   C2B27968  16.140   5.526   8.422
 2020POPC   C3B27969  16.205   5.699   8.023
 2020POPC   C4B27970  16.511   5.617   7.680
 2021POPC   NC327971  14.784  26.341   9.492
 2021POPC   PO427972  15.240  25.819   9.442
 2021POPC   GL127973  15.459  26.083   9.153
 2021POPC   GL227974  15.149  26.260   9.130
 2021POPC   C1A27975  15.637  26.027   8.709
 2021POPC   D2A27976  15.655  25.856   8.257
 2021POPC   C3A27977  15.365  25.764   7.912
 2021POPC   C4A27978  15.349  26.064   7.555
 2021POPC   C1B27979  15.141  25.926   8.784
 2021POPC   C2B27980  15.114  25.942   8.344
 2021POPC   C3B27981  15.099  26.197   7.967
 2021POPC   C4B27982  14.848  26.051   7.591
 2022POPC   NC327983  21.439  16.554   9.534
 2022POPC   PO427984  21.107  17.208   9.747
 2022POPC   GL127985  21.156  16.982   9.324
 2022POPC   GL227986  21.498  16.978   9.177
 2022POPC   C1A27987  21.089  16.916   8.861
 2022POPC   D2A27988  21.151  16.643   8.504
 2022POPC   C3A27989  21.137  16.836   8.130
 2022POPC   C4A27990  21.379  16.902   7.788
 2022POPC   C1B27991  21.590  16.727   8.788
 2022POPC   C2B27992  21.650  16.709   8.355
 2022POPC   C3B27993  21.478  16.456   8.060
 2022POPC   C4B27994  21.578  16.415   7.665
 2023POPC   NC327995  35.705  13.058   9.337
 2023POPC   PO427996  35.267  12.642   9.575
 2023POPC   GL127997  35.239  12.870   9.182
 2023POPC   GL227998  35.233  13.224   9.195
 2023POPC   C1A27999  35.396  12.901   8.746
 2023POPC   D2A28000  35.672  12.858   8.421
 2023POPC   C3A28001  35.563  12.717   8.026
 2023POPC   C4A28002  35.812  12.808   7.676
 2023POPC   C1B28003  35.440  13.411   8.823
 2023POPC   C2B28004  35.234  13.335   8.412
 2023POPC   C3B28005  35.267  13.139   8.021
 2023POPC   C4B28006  35.353  12.998   7.589
 2024POPC   NC328007  17.047  42.598   9.524
 2024POPC   PO428008  17.763  42.425   9.470
 2024POPC   GL128009  17.532  42.138   9.126
 2024POPC   GL228010  17.166  42.068   9.168
 2024POPC   C1A28011  17.472  42.054   8.677
 2024POPC   D2A28012  17.679  42.307   8.367
 2024POPC   C3A28013  17.549  42.375   7.962
 2024POPC   C4A28014  17.463  42.101   7.662
 2024POPC   C1B28015  17.230  42.460   8.889
 2024POPC   C2B28016  17.215  42.465   8.453
 2024POPC   C3B28017  17.121  42.172   8.169
 2024POPC   C4B28018  16.970  42.169   7.768
 2025POPC   NC328019  14.074  27.901   9.149
 2025POPC   PO428020  13.698  27.587   9.586
 2025POPC   GL128021  13.696  27.528   9.157
 2025POPC   GL228022  14.031  27.370   9.095
 2025POPC   C1A28023  13.470  27.694   8.780
 2025POPC   D2A28024  13.526  28.005   8.429
 2025POPC   C3A28025  13.487  27.859   7.993
 2025POPC   C4A28026  13.298  27.487   7.786
 2025POPC   C1B28027  13.907  27.468   8.664
 2025POPC   C2B28028  13.608  27.462   8.304
 2025POPC   C3B28029  13.770  27.432   7.874
 2025POPC   C4B28030  13.641  27.324   7.440
 2026POPC   NC328031   3.741  42.816   9.850
 2026POPC   PO428032   3.439  43.278   9.505
 2026POPC   GL128033   3.386  42.952   9.220
 2026POPC   GL228034   3.691  42.940   9.157
 2026POPC   C1A28035   3.369  42.907   8.751
 2026POPC   D2A28036   3.301  43.265   8.470
 2026POPC   C3A28037   3.352  43.156   8.039
 2026POPC   C4A28038   3.381  43.381   7.669
 2026POPC   C1B28039   3.705  43.274   8.869
 2026POPC   C2B28040   3.786  43.125   8.466
 2026POPC   C3B28041   4.003  43.086   8.130
 2026POPC   C4B28042   3.805  43.121   7.759
 2027POPC   NC328043  10.847  31.268   9.478
 2027POPC   PO428044  11.379  31.685   9.439
 2027POPC   GL128045  11.384  31.474   9.079
 2027POPC   GL228046  11.075  31.255   9.007
 2027POPC   C1A28047  11.351  31.613   8.682
 2027POPC   D2A28048  11.292  31.235   8.472
 2027POPC   C3A28049  11.455  31.313   8.125
 2027POPC   C4A28050  11.452  31.697   7.915
 2027POPC   C1B28051  10.872  31.471   8.670
 2027POPC   C2B28052  11.008  31.599   8.252
 2027POPC   C3B28053  11.020  31.373   7.874
 2027POPC   C4B28054  10.929  31.238   7.473
 2028POPC   NC328055  39.783   3.645   9.488
 2028POPC   PO428056  40.298   3.103   9.438
 2028POPC   GL128057  40.185   3.465   9.211
 2028POPC   GL228058  39.855   3.339   9.098
 2028POPC   C1A28059  40.131   3.660   8.814
 2028POPC   D2A28060  40.184   3.449   8.426
 2028POPC   C3A28061  39.944   3.470   8.035
 2028POPC   C4A28062  40.124   3.809   7.786
 2028POPC   C1B28063  39.656   3.463   8.738
 2028POPC   C2B28064  39.519   3.586   8.340
 2028POPC   C3B28065  39.648   3.894   8.037
 2028POPC   C4B28066  39.637   3.757   7.632
 2029POPC   NC328067  32.542   7.336   9.379
 2029POPC   PO428068  31.912   7.058   9.555
 2029POPC   GL128069  32.041   7.317   9.181
 2029POPC   GL228070  32.002   7.669   9.158
 2029POPC   C1A28071  31.869   7.390   8.762
 2029POPC   D2A28072  32.106   7.118   8.500
 2029POPC   C3A28073  32.099   7.197   8.072
 2029POPC   C4A28074  31.840   7.531   7.909
 2029POPC   C1B28075  32.316   7.602   8.770
 2029POPC   C2B28076  32.121   7.626   8.344
 2029POPC   C3B28077  32.332   7.638   7.937
 2029POPC   C4B28078  32.617   7.288   7.831
 2030POPC   NC328079   9.490  13.346   9.406
 2030POPC   PO428080   9.683  13.937   9.475
 2030POPC   GL128081   9.884  13.883   9.078
 2030POPC   GL228082  10.258  13.898   9.073
 2030POPC   C1A28083   9.728  13.567   8.804
 2030POPC   D2A28084   9.847  13.385   8.415
 2030POPC   C3A28085   9.556  13.464   8.086
 2030POPC   C4A28086   9.515  13.714   7.737
 2030POPC   C1B28087  10.201  13.746   8.659
 2030POPC   C2B28088  10.210  13.904   8.270
 2030POPC   C3B28089   9.960  13.764   7.967
 2030POPC   C4B28090   9.973  13.873   7.556
 2031POPC   NC328091  43.702  18.673   9.465
 2031POPC   PO428092  44.047  18.025   9.552
 2031POPC   GL128093  43.758  18.196   9.196
 2031POPC   GL228094  43.746  18.492   9.002
 2031POPC   C1A28095  43.608  18.058   8.777
 2031POPC   D2A28096  43.800  17.991   8.361
 2031POPC   C3A28097  43.763  18.324   8.026
 2031POPC   C4A28098  43.696  18.331   7.575
 2031POPC   C1B28099  44.129  18.527   8.782
 2031POPC   C2B28100  44.069  18.498   8.394
 2031POPC   C3B28101  44.308  18.570   8.076
 2031POPC   C4B28102  44.176  18.470   7.706
 2032POPC   NC328103   9.508  40.069   9.457
 2032POPC   PO428104  10.126  39.779   9.395
 2032POPC   GL128105   9.912  40.072   9.105
 2032POPC   GL228106   9.559  40.161   8.971
 2032POPC   C1A28107   9.983  40.162   8.687
 2032POPC   D2A28108  10.151  40.132   8.283
 2032POPC   C3A28109   9.863  40.057   7.963
 2032POPC   C4A28110  10.032  39.992   7.558
 2032POPC   C1B28111   9.619  39.747   8.796
 2032POPC   C2B28112   9.444  39.572   8.421
 2032POPC   C3B28113   9.555  39.635   7.989
 2032POPC   C4B28114   9.497  39.862   7.584
 2033POPC   NC328115   3.757  38.285   9.617
 2033POPC   PO428116   3.116  38.432   9.604
 2033POPC   GL128117   3.436  38.492   9.281
 2033POPC   GL228118   3.589  38.216   9.137
 2033POPC   C1A28119   3.458  38.637   8.866
 2033POPC   D2A28120   3.314  38.545   8.456
 2033POPC   C3A28121   3.646  38.630   8.168
 2033POPC   C4A28122   3.550  38.706   7.748
 2033POPC   C1B28123   3.382  38.145   8.759
 2033POPC   C2B28124   3.503  38.105   8.311
 2033POPC   C3B28125   3.327  38.281   7.981
 2033POPC   C4B28126   3.391  38.242   7.583
 2034POPC   NC328127  40.337   5.430   9.600
 2034POPC   PO428128  39.837   5.063   9.462
 2034POPC   GL128129  40.181   5.097   9.171
 2034POPC   GL228130  40.408   4.790   9.204
 2034POPC   C1A28131  40.113   5.245   8.751
 2034POPC   D2A28132  39.921   5.439   8.358
 2034POPC   C3A28133  40.072   5.201   7.983
 2034POPC   C4A28134  39.982   5.415   7.601
 2034POPC   C1B28135  40.208   4.713   8.797
 2034POPC   C2B28136  40.256   4.912   8.404
 2034POPC   C3B28137  40.392   4.755   8.059
 2034POPC   C4B28138  40.224   4.757   7.667
 2035POPC   NC328139   8.373  11.416   9.783
 2035POPC   PO428140   7.797  11.095   9.661
 2035POPC   GL128141   8.150  11.196   9.341
 2035POPC   GL228142   8.101  11.465   9.112
 2035POPC   C1A28143   8.457  11.129   8.959
 2035POPC   D2A28144   8.541  11.191   8.511
 2035POPC   C3A28145   8.238  11.102   8.200
 2035POPC   C4A28146   8.324  10.942   7.783
 2035POPC   C1B28147   7.875  11.466   8.753
 2035POPC   C2B28148   7.989  11.703   8.433
 2035POPC   C3B28149   8.300  11.679   8.140
 2035POPC   C4B28150   8.213  11.427   7.787
 2036POPC   NC328151  22.324  24.808   9.582
 2036POPC   PO428152  22.120  25.403   9.441
 2036POPC   GL128153  22.288  25.189   9.108
 2036POPC   GL228154  22.510  24.860   9.130
 2036POPC   C1A28155  22.221  25.337   8.675
 2036POPC   D2A28156  22.406  25.348   8.277
 2036POPC   C3A28157  22.183  25.397   7.882
 2036POPC   C4A28158  22.339  25.299   7.454
 2036POPC   C1B28159  22.297  24.835   8.755
 2036POPC   C2B28160  22.101  24.896   8.396
 2036POPC   C3B28161  22.308  24.899   8.027
 2036POPC   C4B28162  22.181  24.869   7.629
 2037POPC   NC328163  23.259  38.711   9.512
 2037POPC   PO428164  22.779  38.351   9.609
 2037POPC   GL128165  22.867  38.460   9.235
 2037POPC   GL228166  23.188  38.307   9.203
 2037POPC   C1A28167  22.795  38.377   8.825
 2037POPC   D2A28168  22.966  38.566   8.464
 2037POPC   C3A28169  22.778  38.578   8.078
 2037POPC   C4A28170  22.783  38.416   7.685
 2037POPC   C1B28171  23.319  38.484   8.836
 2037POPC   C2B28172  23.446  38.409   8.432
 2037POPC   C3B28173  23.439  38.257   8.053
 2037POPC   C4B28174  23.302  38.433   7.678
 2038POPC   NC328175   6.346   9.975   9.577
 2038POPC   PO428176   6.888   9.591   9.452
 2038POPC   GL128177   6.609   9.722   9.086
 2038POPC   GL228178   6.387  10.065   9.084
 2038POPC   C1A28179   6.811   9.645   8.660
 2038POPC   D2A28180   7.042   9.663   8.269
 2038POPC   C3A28181   6.786   9.653   7.929
 2038POPC   C4A28182   6.373   9.423   7.888
 2038POPC   C1B28183   6.468  10.012   8.659
 2038POPC   C2B28184   6.435   9.765   8.298
 2038POPC   C3B28185   6.367   9.953   7.903
 2038POPC   C4B28186   6.265  10.065   7.503
 2039POPC   NC328187  26.448  36.607   9.877
 2039POPC   PO428188  26.081  36.165   9.462
 2039POPC   GL128189  26.142  35.940   9.123
 2039POPC   GL228190  25.845  35.985   9.006
 2039POPC   C1A28191  26.401  35.888   8.783
 2039POPC   D2A28192  26.512  36.005   8.404
 2039POPC   C3A28193  26.235  36.081   8.103
 2039POPC   C4A28194  26.286  36.060   7.680
 2039POPC   C1B28195  25.649  36.227   8.703
 2039POPC   C2B28196  25.550  36.121   8.278
 2039POPC   C3B28197  25.792  36.241   7.906
 2039POPC   C4B28198  25.819  36.158   7.470
 2040POPC   NC328199   4.627  36.698   9.476
 2040POPC   PO428200   4.115  37.066   9.646
 2040POPC   GL128201   4.208  36.941   9.213
 2040POPC   GL228202   4.558  37.034   9.082
 2040POPC   C1A28203   4.156  37.020   8.763
 2040POPC   D2A28204   4.189  36.781   8.390
 2040POPC   C3A28205   4.204  37.034   8.028
 2040POPC   C4A28206   4.102  37.120   7.604
 2040POPC   C1B28207   4.460  36.615   8.848
 2040POPC   C2B28208   4.571  36.424   8.444
 2040POPC   C3B28209   4.472  36.540   8.032
 2040POPC   C4B28210   4.534  36.830   7.694
 2041POPC   NC328211  33.320  24.922   9.532
 2041POPC   PO428212  32.805  25.254   9.439
 2041POPC   GL128213  33.099  25.165   9.133
 2041POPC   GL228214  33.336  25.435   9.257
 2041POPC   C1A28215  33.163  24.952   8.717
 2041POPC   D2A28216  33.194  24.911   8.258
 2041POPC   C3A28217  32.814  25.108   8.097
 2041POPC   C4A28218  32.760  25.080   7.673
 2041POPC   C1B28219  33.411  25.404   8.819
 2041POPC   C2B28220  33.183  25.402   8.434
 2041POPC   C3B28221  33.110  25.530   8.018
 2041POPC   C4B28222  33.198  25.380   7.595
 2042POPC   NC328223  29.743  22.377   9.452
 2042POPC   PO428224  30.187  21.890   9.470
 2042POPC   GL128225  30.159  22.065   9.075
 2042POPC   GL228226  29.809  22.063   9.072
 2042POPC   C1A28227  30.089  22.211   8.648
 2042POPC   D2A28228  30.238  22.295   8.253
 2042POPC   C3A28229  29.990  22.255   7.883
 2042POPC   C4A28230  30.145  22.106   7.485
 2042POPC   C1B28231  29.595  22.206   8.736
 2042POPC   C2B28232  29.687  22.124   8.317
 2042POPC   C3B28233  29.480  22.144   7.922
 2042POPC   C4B28234  29.637  21.957   7.568
 2043POPC   NC328235  21.021  39.127   9.602
 2043POPC   PO428236  20.378  38.940   9.461
 2043POPC   GL128237  20.634  39.209   9.207
 2043POPC   GL228238  20.929  39.073   9.114
 2043POPC   C1A28239  20.604  39.381   8.797
 2043POPC   D2A28240  20.452  39.326   8.387
 2043POPC   C3A28241  20.685  39.521   8.063
 2043POPC   C4A28242  20.601  39.380   7.675
 2043POPC   C1B28243  21.018  38.843   8.747
 2043POPC   C2B28244  20.831  38.721   8.340
 2043POPC   C3B28245  20.644  38.940   7.958
 2043POPC   C4B28246  20.647  38.910   7.499
 2044POPC   NC328247   6.750  28.004   9.596
 2044POPC   PO428248   6.455  27.382   9.540
 2044POPC   GL128249   6.602  27.672   9.227
 2044POPC   GL228250   6.391  27.948   9.165
 2044POPC   C1A28251   6.773  27.658   8.821
 2044POPC   D2A28252   6.728  27.329   8.521
 2044POPC   C3A28253   6.567  27.476   8.141
 2044POPC   C4A28254   6.694  27.554   7.724
 2044POPC   C1B28255   6.425  28.022   8.728
 2044POPC   C2B28256   6.280  27.867   8.323
 2044POPC   C3B28257   6.345  27.896   7.857
 2044POPC   C4B28258   6.296  28.024   7.415
 2045POPC   NC328259  19.683   9.053   9.501
 2045POPC   PO428260  19.961   8.376   9.501
 2045POPC   GL128261  19.765   8.660   9.182
 2045POPC   GL228262  19.989   8.961   9.103
 2045POPC   C1A28263  19.560   8.902   8.839
 2045POPC   D2A28264  19.782   8.834   8.482
 2045POPC   C3A28265  19.591   8.935   8.130
 2045POPC   C4A28266  19.638   8.969   7.740
 2045POPC   C1B28267  19.985   9.246   8.726
 2045POPC   C2B28268  20.138   9.165   8.288
 2045POPC   C3B28269  20.090   9.187   7.844
 2045POPC   C4B28270  20.190   9.376   7.454
 2046POPC   NC328271  41.562  17.692   9.502
 2046POPC   PO428272  41.500  18.349   9.469
 2046POPC   GL128273  41.487  18.275   9.049
 2046POPC   GL228274  41.326  17.975   9.150
 2046POPC   C1A28275  41.704  18.474   8.686
 2046POPC   D2A28276  41.665  18.737   8.295
 2046POPC   C3A28277  41.785  18.487   7.953
 2046POPC   C4A28278  41.825  18.259   7.559
 2046POPC   C1B28279  41.265  17.864   8.776
 2046POPC   C2B28280  41.263  18.213   8.539
 2046POPC   C3B28281  41.159  18.206   8.131
 2046POPC   C4B28282  41.375  18.218   7.799
 2047POPC   NC328283  28.997  13.264   9.406
 2047POPC   PO428284  29.066  12.553   9.458
 2047POPC   GL128285  29.109  12.708   9.066
 2047POPC   GL228286  29.301  13.032   9.049
 2047POPC   C1A28287  29.133  12.755   8.628
 2047POPC   D2A28288  29.405  13.025   8.396
 2047POPC   C3A28289  29.327  12.961   7.963
 2047POPC   C4A28290  29.141  12.528   7.888
 2047POPC   C1B28291  28.898  13.168   8.782
 2047POPC   C2B28292  28.918  13.237   8.342
 2047POPC   C3B28293  28.816  12.957   7.989
 2047POPC   C4B28294  28.952  12.874   7.594
 2048POPC   NC328295  37.739  37.542   9.647
 2048POPC   PO428296  37.746  36.836   9.475
 2048POPC   GL128297  37.570  36.901   9.089
 2048POPC   GL228298  37.786  37.210   9.096
 2048POPC   C1A28299  37.416  36.681   8.692
 2048POPC   D2A28300  37.520  36.582   8.242
 2048POPC   C3A28301  37.312  36.700   7.831
 2048POPC   C4A28302  37.406  36.945   7.418
 2048POPC   C1B28303  37.761  37.105   8.654
 2048POPC   C2B28304  37.491  37.104   8.291
 2048POPC   C3B28305  37.636  37.075   7.878
 2048POPC   C4B28306  37.872  36.752   7.698
 2049POPC   NC328307  44.033   4.610   9.570
 2049POPC   PO428308  44.076   3.888   9.581
 2049POPC   GL128309  44.043   4.140   9.177
 2049POPC   GL228310  44.143   4.474   9.099
 2049POPC   C1A28311  43.940   4.170   8.733
 2049POPC   D2A28312  44.178   4.107   8.361
 2049POPC   C3A28313  43.910   4.081   8.026
 2049POPC   C4A28314  43.631   4.333   7.838
 2049POPC   C1B28315  44.031   4.695   8.731
 2049POPC   C2B28316  43.916   4.572   8.306
 2049POPC   C3B28317  44.189   4.492   7.969
 2049POPC   C4B28318  44.341   4.780   7.648
 2050POPC   NC328319   8.762  26.470   9.799
 2050POPC   PO428320   9.213  25.981   9.458
 2050POPC   GL128321   8.937  26.090   9.094
 2050POPC   GL228322   8.680  25.845   8.997
 2050POPC   C1A28323   8.742  26.256   8.711
 2050POPC   D2A28324   9.102  26.279   8.454
 2050POPC   C3A28325   9.139  26.143   8.012
 2050POPC   C4A28326   8.741  26.249   7.801
 2050POPC   C1B28327   9.004  25.788   8.697
 2050POPC   C2B28328   8.978  25.757   8.290
 2050POPC   C3B28329   9.296  25.636   8.010
 2050POPC   C4B28330   9.546  25.701   7.667
 2051POPC   NC328331  26.618  42.701   9.844
 2051POPC   PO428332  26.721  42.035   9.565
 2051POPC   GL128333  26.801  42.203   9.191
 2051POPC   GL228334  26.924  41.903   9.105
 2051POPC   C1A28335  26.899  42.555   8.937
 2051POPC   D2A28336  26.913  42.619   8.471
 2051POPC   C3A28337  26.858  42.438   8.062
 2051POPC   C4A28338  26.720  42.685   7.705
 2051POPC   C1B28339  27.006  42.123   8.714
 2051POPC   C2B28340  27.254  42.206   8.334
 2051POPC   C3B28341  27.146  42.027   7.938
 2051POPC   C4B28342  26.737  42.004   7.734
 2052POPC   NC328343  21.846  42.827   9.287
 2052POPC   PO428344  21.413  43.317   9.490
 2052POPC   GL128345  21.221  43.271   9.141
 2052POPC   GL228346  21.337  42.926   9.118
 2052POPC   C1A28347  21.151  43.261   8.736
 2052POPC   D2A28348  21.473  43.249   8.456
 2052POPC   C3A28349  21.518  43.229   8.007
 2052POPC   C4A28350  21.645  43.570   7.726
 2052POPC   C1B28351  21.472  42.775   8.719
 2052POPC   C2B28352  21.646  42.795   8.283
 2052POPC   C3B28353  21.513  42.730   7.863
 2052POPC   C4B28354  21.204  42.528   7.594
 2053POPC   NC328355  43.372   6.195   9.430
 2053POPC   PO428356  43.069   6.832   9.551
 2053POPC   GL128357  43.139   6.615   9.197
 2053POPC   GL228358  43.052   6.923   9.024
 2053POPC   C1A28359  43.056   6.481   8.778
 2053POPC   D2A28360  43.025   6.410   8.322
 2053POPC   C3A28361  42.816   6.746   8.138
 2053POPC   C4A28362  42.743   7.003   7.782
 2053POPC   C1B28363  43.254   7.050   8.633
 2053POPC   C2B28364  43.272   6.964   8.180
 2053POPC   C3B28365  43.275   6.775   7.779
 2053POPC   C4B28366  43.517   6.797   7.371
 2054POPC   NC328367  43.356  28.653   9.423
 2054POPC   PO428368  43.201  28.082   9.662
 2054POPC   GL128369  43.271  28.203   9.221
 2054POPC   GL228370  43.549  27.975   9.147
 2054POPC   C1A28371  43.106  28.507   8.823
 2054POPC   D2A28372  43.306  28.617   8.371
 2054POPC   C3A28373  43.257  28.342   8.001
 2054POPC   C4A28374  42.928  28.137   7.790
 2054POPC   C1B28375  43.410  28.117   8.763
 2054POPC   C2B28376  43.145  28.122   8.453
 2054POPC   C3B28377  43.293  27.847   8.144
 2054POPC   C4B28378  43.371  27.867   7.724
 2055POPC   NC328379   6.441  43.083   9.374
 2055POPC   PO428380   7.031  43.250   9.424
 2055POPC   GL128381   6.768  43.425   9.090
 2055POPC   GL228382   6.459  43.312   8.922
 2055POPC   C1A28383   6.805  43.600   8.683
 2055POPC   D2A28384   6.718  43.590   8.229
 2055POPC   C3A28385   6.768  43.434   7.795
 2055POPC   C4A28386   6.775  43.034   7.560
 2055POPC   C1B28387   6.639  42.908   8.737
 2055POPC   C2B28388   6.600  42.730   8.301
 2055POPC   C3B28389   6.464  43.012   7.958
 2055POPC   C4B28390   6.263  43.160   7.564
 2056POPC   NC328391  42.050  40.786   9.530
 2056POPC   PO428392  42.712  40.732   9.628
 2056POPC   GL128393  42.431  40.834   9.206
 2056POPC   GL228394  42.172  40.581   9.077
 2056POPC   C1A28395  42.490  40.915   8.767
 2056POPC   D2A28396  42.388  40.887   8.352
 2056POPC   C3A28397  42.531  40.578   8.061
 2056POPC   C4A28398  42.592  40.805   7.711
 2056POPC   C1B28399  41.986  40.840   8.742
 2056POPC   C2B28400  41.876  40.923   8.295
 2056POPC   C3B28401  42.107  40.874   7.902
 2056POPC   C4B28402  42.142  40.645   7.491
 2057POPC   NC328403  30.364   0.760   9.567
 2057POPC   PO428404  30.886   0.281   9.532
 2057POPC   GL128405  30.918   0.497   9.172
 2057POPC   GL228406  30.598   0.608   9.150
 2057POPC   C1A28407  30.937   0.440   8.754
 2057POPC   D2A28408  30.936   0.621   8.370
 2057POPC   C3A28409  30.861   0.422   7.989
 2057POPC   C4A28410  30.774   0.575   7.557
 2057POPC   C1B28411  30.408   0.515   8.768
 2057POPC   C2B28412  30.432   0.652   8.352
 2057POPC   C3B28413  30.353   0.546   7.935
 2057POPC   C4B28414  30.304   0.764   7.551
 2058POPC   NC328415   1.122  19.224   9.523
 2058POPC   PO428416   1.416  18.665   9.535
 2058POPC   GL128417   1.408  18.957   9.197
 2058POPC   GL228418   1.023  18.971   9.087
 2058POPC   C1A28419   1.375  19.232   8.840
 2058POPC   D2A28420   1.339  19.329   8.404
 2058POPC   C3A28421   1.169  19.031   8.119
 2058POPC   C4A28422   1.413  19.052   7.777
 2058POPC   C1B28423   0.851  19.372   8.881
 2058POPC   C2B28424   0.913  19.644   8.520
 2058POPC   C3B28425   0.775  19.590   8.113
 2058POPC   C4B28426   0.953  19.369   7.756
 2059POPC   NC328427   3.006   4.714   9.493
 2059POPC   PO428428   2.556   4.152   9.560
 2059POPC   GL128429   2.851   4.242   9.220
 2059POPC   GL228430   2.714   4.557   9.119
 2059POPC   C1A28431   2.866   4.199   8.756
 2059POPC   D2A28432   3.043   4.071   8.337
 2059POPC   C3A28433   2.922   4.149   7.896
 2059POPC   C4A28434   2.696   4.330   7.508
 2059POPC   C1B28435   2.847   4.746   8.785
 2059POPC   C2B28436   2.882   4.560   8.391
 2059POPC   C3B28437   2.650   4.621   8.013
 2059POPC   C4B28438   2.827   4.806   7.619
 2060POPC   NC328439  29.060   7.653   9.593
 2060POPC   PO428440  29.633   7.324   9.591
 2060POPC   GL128441  29.332   7.228   9.286
 2060POPC   GL228442  29.342   7.569   9.171
 2060POPC   C1A28443  29.179   7.113   8.886
 2060POPC   D2A28444  29.080   7.385   8.594
 2060POPC   C3A28445  29.068   7.371   8.168
 2060POPC   C4A28446  29.027   7.240   7.786
 2060POPC   C1B28447  29.514   7.582   8.780
 2060POPC   C2B28448  29.443   7.687   8.366
 2060POPC   C3B28449  29.535   7.578   7.962
 2060POPC   C4B28450  29.332   7.614   7.558
 2061POPC   NC328451  37.634   2.522   9.647
 2061POPC   PO428452  38.207   2.592   9.458
 2061POPC   GL128453  37.887   2.713   9.185
 2061POPC   GL228454  37.532   2.655   9.164
 2061POPC   C1A28455  37.876   2.904   8.806
 2061POPC   D2A28456  37.884   2.628   8.452
 2061POPC   C3A28457  37.766   2.706   8.035
 2061POPC   C4A28458  37.378   2.496   7.884
 2061POPC   C1B28459  37.426   2.678   8.727
 2061POPC   C2B28460  37.478   2.974   8.418
 2061POPC   C3B28461  37.367   2.995   8.022
 2061POPC   C4B28462  37.537   2.915   7.629
 2062POPC   NC328463  25.667  19.721   9.574
 2062POPC   PO428464  26.127  20.151   9.564
 2062POPC   GL128465  26.238  19.900   9.230
 2062POPC   GL228466  25.911  19.834   9.129
 2062POPC   C1A28467  26.361  19.919   8.811
 2062POPC   D2A28468  26.128  19.942   8.437
 2062POPC   C3A28469  26.231  20.150   8.057
 2062POPC   C4A28470  25.906  20.063   7.746
 2062POPC   C1B28471  25.961  19.566   8.776
 2062POPC   C2B28472  25.968  19.394   8.374
 2062POPC   C3B28473  26.038  19.619   8.013
 2062POPC   C4B28474  25.825  19.503   7.658
 2063POPC   NC328475   0.566   9.368   9.273
 2063POPC   PO428476   1.060   9.707   9.551
 2063POPC   GL128477   1.032   9.947   9.188
 2063POPC   GL228478   0.991   9.630   9.022
 2063POPC   C1A28479   1.276  10.028   8.803
 2063POPC   D2A28480   1.480   9.883   8.408
 2063POPC   C3A28481   1.370  10.092   8.022
 2063POPC   C4A28482   1.178   9.987   7.657
 2063POPC   C1B28483   0.782   9.426   8.663
 2063POPC   C2B28484   0.873   9.339   8.245
 2063POPC   C3B28485   1.168   9.607   8.024
 2063POPC   C4B28486   1.423   9.554   7.681
 2064POPC   NC328487  44.289   3.459   9.536
 2064POPC   PO428488   0.002   3.561   9.603
 2064POPC   GL128489  44.745   3.595   9.217
 2064POPC   GL228490  44.435   3.797   9.187
 2064POPC   C1A28491  44.756   3.681   8.771
 2064POPC   D2A28492  44.925   3.474   8.388
 2064POPC   C3A28493   0.092   3.762   8.074
 2064POPC   C4A28494  44.893   3.825   7.693
 2064POPC   C1B28495  44.225   3.714   8.792
 2064POPC   C2B28496  44.384   3.551   8.416
 2064POPC   C3B28497  44.562   3.472   8.004
 2064POPC   C4B28498  44.392   3.634   7.646
 2065POPC   NC328499  17.507  13.031   9.760
 2065POPC   PO428500  17.205  13.706   9.564
 2065POPC   GL128501  17.527  13.702   9.205
 2065POPC   GL228502  17.628  13.382   9.051
 2065POPC   C1A28503  17.595  13.756   8.723
 2065POPC   D2A28504  17.753  13.730   8.286
 2065POPC   C3A28505  17.398  13.730   7.997
 2065POPC   C4A28506  17.404  13.673   7.533
 2065POPC   C1B28507  17.330  13.200   8.769
 2065POPC   C2B28508  17.338  13.373   8.395
 2065POPC   C3B28509  17.585  13.257   8.064
 2065POPC   C4B28510  17.210  13.278   7.860
 2066POPC   NC328511  30.931  25.646   9.423
 2066POPC   PO428512  30.774  24.934   9.526
 2066POPC   GL128513  30.662  24.971   9.106
 2066POPC   GL228514  30.717  25.315   9.093
 2066POPC   C1A28515  30.632  24.955   8.659
 2066POPC   D2A28516  30.869  25.060   8.275
 2066POPC   C3A28517  30.649  25.177   7.903
 2066POPC   C4A28518  30.602  25.130   7.459
 2066POPC   C1B28519  30.682  25.479   8.687
 2066POPC   C2B28520  30.632  25.790   8.424
 2066POPC   C3B28521  30.706  25.667   8.033
 2066POPC   C4B28522  30.595  25.611   7.604
 2067POPC   NC328523   4.269  33.778   9.719
 2067POPC   PO428524   3.889  34.261   9.468
 2067POPC   GL128525   4.113  33.912   9.246
 2067POPC   GL228526   4.492  33.856   9.266
 2067POPC   C1A28527   4.102  33.690   8.864
 2067POPC   D2A28528   3.901  33.659   8.453
 2067POPC   C3A28529   4.048  33.887   8.104
 2067POPC   C4A28530   4.173  33.780   7.695
 2067POPC   C1B28531   4.582  33.845   8.827
 2067POPC   C2B28532   4.420  33.631   8.443
 2067POPC   C3B28533   4.571  33.828   8.060
 2067POPC   C4B28534   4.686  33.816   7.633
 2068POPC   NC328535   3.042  35.858   9.647
 2068POPC   PO428536   2.577  36.331   9.504
 2068POPC   GL128537   2.803  36.200   9.175
 2068POPC   GL228538   2.826  35.846   9.190
 2068POPC   C1A28539   2.697  36.132   8.759
 2068POPC   D2A28540   2.974  36.133   8.450
 2068POPC   C3A28541   2.867  35.925   8.110
 2068POPC   C4A28542   2.742  36.091   7.716
 2068POPC   C1B28543   3.079  35.819   8.859
 2068POPC   C2B28544   3.046  35.606   8.506
 2068POPC   C3B28545   3.122  35.476   8.118
 2068POPC   C4B28546   2.925  35.594   7.733
 2069POPC   NC328547  33.256  42.805   9.593
 2069POPC   PO428548  33.709  42.387   9.883
 2069POPC   GL128549  33.835  42.311   9.383
 2069POPC   GL228550  33.549  42.307   9.161
 2069POPC   C1A28551  33.984  42.382   8.905
 2069POPC   D2A28552  33.798  42.401   8.460
 2069POPC   C3A28553  33.950  42.312   8.034
 2069POPC   C4A28554  34.070  42.186   7.622
 2069POPC   C1B28555  33.514  42.631   8.819
 2069POPC   C2B28556  33.394  42.772   8.387
 2069POPC   C3B28557  33.626  42.700   8.011
 2069POPC   C4B28558  33.542  42.403   7.650
 2070POPC   NC328559  29.353   9.847   9.462
 2070POPC   PO428560  28.844   9.447   9.407
 2070POPC   GL128561  29.075   9.675   9.051
 2070POPC   GL228562  29.074  10.057   9.102
 2070POPC   C1A28563  29.379   9.892   8.738
 2070POPC   D2A28564  29.615   9.997   8.356
 2070POPC   C3A28565  29.321   9.890   8.023
 2070POPC   C4A28566  29.086   9.511   7.892
 2070POPC   C1B28567  28.839  10.024   8.730
 2070POPC   C2B28568  28.850   9.841   8.313
 2070POPC   C3B28569  28.807  10.151   8.010
 2070POPC   C4B28570  28.993  10.059   7.640
 2071POPC   NC328571  18.921  22.656   9.553
 2071POPC   PO428572  19.428  22.993   9.753
 2071POPC   GL128573  19.298  23.034   9.311
 2071POPC   GL228574  18.916  23.076   9.230
 2071POPC   C1A28575  19.282  23.146   8.869
 2071POPC   D2A28576  19.020  23.196   8.506
 2071POPC   C3A28577  19.248  23.075   8.120
 2071POPC   C4A28578  19.479  23.117   7.741
 2071POPC   C1B28579  18.913  22.762   8.881
 2071POPC   C2B28580  18.805  22.699   8.431
 2071POPC   C3B28581  19.042  22.589   8.048
 2071POPC   C4B28582  19.078  22.786   7.630
 2072POPC   NC328583  26.160  18.775   9.536
 2072POPC   PO428584  25.956  19.363   9.553
 2072POPC   GL128585  26.188  19.321   9.151
 2072POPC   GL228586  26.013  19.031   9.111
 2072POPC   C1A28587  26.293  19.144   8.693
 2072POPC   D2A28588  26.364  19.083   8.216
 2072POPC   C3A28589  26.052  19.101   7.911
 2072POPC   C4A28590  26.116  19.094   7.456
 2072POPC   C1B28591  25.771  19.071   8.746
 2072POPC   C2B28592  25.695  18.933   8.331
 2072POPC   C3B28593  25.616  18.792   7.942
 2072POPC   C4B28594  25.640  19.026   7.607
 2073POPC   NC328595  34.446  23.805   9.821
 2073POPC   PO428596  34.451  24.627   9.637
 2073POPC   GL128597  34.315  24.625   9.208
 2073POPC   GL228598  34.630  24.792   9.071
 2073POPC   C1A28599  34.394  24.470   8.759
 2073POPC   D2A28600  34.502  24.674   8.366
 2073POPC   C3A28601  34.615  24.485   7.964
 2073POPC   C4A28602  34.445  24.715   7.629
 2073POPC   C1B28603  34.893  24.584   8.720
 2073POPC   C2B28604  34.915  24.286   8.350
 2073POPC   C3B28605  35.111  24.343   7.939
 2073POPC   C4B28606  35.076  24.533   7.529
 2074POPC   NC328607  40.180  13.147   9.516
 2074POPC   PO428608  39.822  13.709   9.410
 2074POPC   GL128609  39.905  13.760   8.988
 2074POPC   GL228610  40.134  13.495   9.075
 2074POPC   C1A28611  39.904  13.809   8.551
 2074POPC   D2A28612  40.100  13.497   8.291
 2074POPC   C3A28613  39.998  13.613   7.885
 2074POPC   C4A28614  40.150  13.987   7.609
 2074POPC   C1B28615  39.889  13.315   8.758
 2074POPC   C2B28616  39.873  13.062   8.433
 2074POPC   C3B28617  39.836  13.138   8.007
 2074POPC   C4B28618  39.730  13.267   7.592
 2075POPC   NC328619  36.022  27.078   9.442
 2075POPC   PO428620  36.393  26.490   9.523
 2075POPC   GL128621  36.236  26.682   9.171
 2075POPC   GL228622  36.491  26.949   9.247
 2075POPC   C1A28623  36.101  26.701   8.730
 2075POPC   D2A28624  36.197  26.612   8.280
 2075POPC   C3A28625  35.998  26.841   7.919
 2075POPC   C4A28626  35.967  26.605   7.514
 2075POPC   C1B28627  36.600  26.856   8.818
 2075POPC   C2B28628  36.418  27.042   8.455
 2075POPC   C3B28629  36.478  26.982   8.017
 2075POPC   C4B28630  36.365  26.981   7.586
 2076POPC   NC328631  40.114  11.664   9.491
 2076POPC   PO428632  39.986  12.362   9.496
 2076POPC   GL128633  39.816  12.107   9.148
 2076POPC   GL228634  39.688  12.451   9.042
 2076POPC   C1A28635  39.984  11.809   8.755
 2076POPC   D2A28636  40.103  11.639   8.276
 2076POPC   C3A28637  40.214  11.956   7.948
 2076POPC   C4A28638  40.418  12.373   7.946
 2076POPC   C1B28639  40.008  12.320   8.738
 2076POPC   C2B28640  39.949  12.165   8.333
 2076POPC   C3B28641  39.848  12.301   7.902
 2076POPC   C4B28642  39.754  12.068   7.517
 2077POPC   NC328643  41.763  21.858   9.465
 2077POPC   PO428644  41.441  22.501   9.415
 2077POPC   GL128645  41.505  22.251   9.080
 2077POPC   GL228646  41.299  21.966   9.135
 2077POPC   C1A28647  41.803  22.212   8.754
 2077POPC   D2A28648  41.932  22.079   8.343
 2077POPC   C3A28649  41.789  22.277   7.990
 2077POPC   C4A28650  41.664  22.146   7.591
 2077POPC   C1B28651  41.359  21.905   8.704
 2077POPC   C2B28652  41.426  22.166   8.351
 2077POPC   C3B28653  41.327  22.021   7.940
 2077POPC   C4B28654  41.149  22.166   7.517
 2078POPC   NC328655  40.477  27.214   9.316
 2078POPC   PO428656  40.344  27.805   9.508
 2078POPC   GL128657  39.969  27.693   9.171
 2078POPC   GL228658  39.853  27.357   9.056
 2078POPC   C1A28659  39.808  27.756   8.718
 2078POPC   D2A28660  39.921  27.491   8.317
 2078POPC   C3A28661  39.693  27.595   7.915
 2078POPC   C4A28662  39.880  27.863   7.545
 2078POPC   C1B28663  40.194  27.419   8.777
 2078POPC   C2B28664  40.358  27.213   8.450
 2078POPC   C3B28665  40.412  27.419   8.102
 2078POPC   C4B28666  40.154  27.451   7.752
 2079POPC   NC328667  14.080   4.889   9.539
 2079POPC   PO428668  14.606   5.315   9.525
 2079POPC   GL128669  14.234   5.313   9.274
 2079POPC   GL228670  14.389   5.036   9.100
 2079POPC   C1A28671  14.037   5.293   8.851
 2079POPC   D2A28672  14.254   5.195   8.473
 2079POPC   C3A28673  14.071   5.313   8.092
 2079POPC   C4A28674  14.288   5.259   7.721
 2079POPC   C1B28675  14.584   5.367   8.851
 2079POPC   C2B28676  14.706   5.489   8.438
 2079POPC   C3B28677  14.696   5.251   8.061
 2079POPC   C4B28678  14.615   4.831   7.872
 2080POPC   NC328679  17.703   6.431   9.505
 2080POPC   PO428680  17.121   6.786   9.539
 2080POPC   GL128681  17.427   6.794   9.179
 2080POPC   GL228682  17.607   6.460   9.017
 2080POPC   C1A28683  17.280   6.694   8.745
 2080POPC   D2A28684  17.301   6.395   8.469
 2080POPC   C3A28685  17.391   6.583   8.112
 2080POPC   C4A28686  17.175   6.875   7.812
 2080POPC   C1B28687  17.741   6.875   8.805
 2080POPC   C2B28688  17.633   7.051   8.405
 2080POPC   C3B28689  17.635   7.007   7.969
 2080POPC   C4B28690  17.727   6.628   7.719
 2081POPC   NC328691   4.070   2.304   9.468
 2081POPC   PO428692   4.491   1.723   9.451
 2081POPC   GL128693   4.312   1.971   9.150
 2081POPC   GL228694   4.460   2.314   9.104
 2081POPC   C1A28695   4.358   1.878   8.738
 2081POPC   D2A28696   4.316   1.628   8.406
 2081POPC   C3A28697   4.485   1.788   8.076
 2081POPC   C4A28698   4.214   1.986   7.834
 2081POPC   C1B28699   4.188   2.361   8.749
 2081POPC   C2B28700   4.268   2.208   8.338
 2081POPC   C3B28701   4.382   2.438   7.989
 2081POPC   C4B28702   4.505   2.342   7.573
 2082POPC   NC328703   4.921   1.849   9.501
 2082POPC   PO428704   5.497   2.000   9.703
 2082POPC   GL128705   5.319   1.932   9.229
 2082POPC   GL228706   4.990   2.151   9.082
 2082POPC   C1A28707   5.118   1.724   8.855
 2082POPC   D2A28708   4.819   1.729   8.501
 2082POPC   C3A28709   5.026   1.778   8.113
 2082POPC   C4A28710   5.139   1.648   7.724
 2082POPC   C1B28711   4.749   2.228   8.675
 2082POPC   C2B28712   4.780   2.218   8.206
 2082POPC   C3B28713   4.953   2.168   7.753
 2082POPC   C4B28714   4.931   2.382   7.313
 2083POPC   NC328715  18.026  23.054   9.505
 2083POPC   PO428716  18.466  22.518   9.615
 2083POPC   GL128717  18.443  22.799   9.243
 2083POPC   GL228718  18.342  23.139   9.125
 2083POPC   C1A28719  18.408  22.770   8.796
 2083POPC   D2A28720  18.283  22.619   8.417
 2083POPC   C3A28721  18.398  22.872   8.085
 2083POPC   C4A28722  18.260  22.949   7.666
 2083POPC   C1B28723  18.358  23.290   8.678
 2083POPC   C2B28724  18.404  23.365   8.227
 2083POPC   C3B28725  18.048  23.319   7.923
 2083POPC   C4B28726  17.877  23.428   7.502
 2084POPC   NC328727  43.884  27.136   9.410
 2084POPC   PO428728  44.119  26.523   9.454
 2084POPC   GL128729  43.971  26.705   9.065
 2084POPC   GL228730  43.634  26.856   9.035
 2084POPC   C1A28731  43.914  26.580   8.630
 2084POPC   D2A28732  44.199  26.498   8.286
 2084POPC   C3A28733  43.992  26.629   7.915
 2084POPC   C4A28734  43.675  26.604   7.659
 2084POPC   C1B28735  43.866  27.106   8.749
 2084POPC   C2B28736  44.038  27.028   8.374
 2084POPC   C3B28737  43.770  27.046   8.068
 2084POPC   C4B28738  43.801  27.092   7.687
 2085POPC   NC328739  16.290  11.934   9.339
 2085POPC   PO428740  16.862  12.197   9.512
 2085POPC   GL128741  16.844  12.013   9.129
 2085POPC   GL228742  16.533  12.128   8.956
 2085POPC   C1A28743  17.002  12.105   8.745
 2085POPC   D2A28744  16.838  12.123   8.327
 2085POPC   C3A28745  17.016  11.940   7.954
 2085POPC   C4A28746  16.841  12.028   7.580
 2085POPC   C1B28747  16.486  11.761   8.717
 2085POPC   C2B28748  16.586  11.640   8.315
 2085POPC   C3B28749  16.508  11.830   7.914
 2085POPC   C4B28750  16.347  11.953   7.502
 2086POPC   NC328751  41.914   7.138   9.466
 2086POPC   PO428752  41.526   7.682   9.403
 2086POPC   GL128753  41.603   7.388   9.104
 2086POPC   GL228754  41.933   7.488   9.107
 2086POPC   C1A28755  41.545   7.242   8.686
 2086POPC   D2A28756  41.467   7.000   8.311
 2086POPC   C3A28757  41.518   7.309   8.002
 2086POPC   C4A28758  41.431   7.751   7.952
 2086POPC   C1B28759  42.002   7.622   8.733
 2086POPC   C2B28760  41.776   7.696   8.383
 2086POPC   C3B28761  41.938   7.617   7.995
 2086POPC   C4B28762  41.884   7.914   7.671
 2087POPC   NC328763  26.374  34.196   9.613
 2087POPC   PO428764  25.949  33.691   9.723
 2087POPC   GL128765  26.001  33.908   9.332
 2087POPC   GL228766  26.310  33.886   9.175
 2087POPC   C1A28767  25.862  33.895   8.911
 2087POPC   D2A28768  26.006  33.811   8.492
 2087POPC   C3A28769  25.778  33.969   8.144
 2087POPC   C4A28770  25.903  33.877   7.727
 2087POPC   C1B28771  26.313  34.133   8.783
 2087POPC   C2B28772  26.332  34.253   8.344
 2087POPC   C3B28773  26.372  34.012   7.953
 2087POPC   C4B28774  26.376  33.986   7.500
 2088POPC   NC328775  29.354  43.546   9.899
 2088POPC   PO428776  29.866  43.758   9.474
 2088POPC   GL128777  30.057  43.664   9.072
 2088POPC   GL228778  29.976  43.986   9.038
 2088POPC   C1A28779  30.132  43.758   8.617
 2088POPC   D2A28780  29.876  43.924   8.287
 2088POPC   C3A28781  30.026  43.811   7.905
 2088POPC   C4A28782  30.155  43.476   7.692
 2088POPC   C1B28783  29.880  44.214   8.699
 2088POPC   C2B28784  30.038  44.438   8.387
 2088POPC   C3B28785  30.036  44.328   7.978
 2088POPC   C4B28786  29.723  44.134   7.653
 2089POPC   NC328787  38.294  30.726   9.565
 2089POPC   PO428788  37.978  30.290   9.169
 2089POPC   GL128789  38.316  30.654   9.067
 2089POPC   GL228790  38.669  30.713   9.178
 2089POPC   C1A28791  38.461  30.770   8.703
 2089POPC   D2A28792  38.248  30.640   8.353
 2089POPC   C3A28793  38.459  30.826   8.018
 2089POPC   C4A28794  38.186  30.822   7.690
 2089POPC   C1B28795  38.888  30.495   8.812
 2089POPC   C2B28796  38.741  30.522   8.340
 2089POPC   C3B28797  38.872  30.515   7.901
 2089POPC   C4B28798  38.717  30.277   7.523
 2090POPC   NC328799  39.077  38.765   9.630
 2090POPC   PO428800  39.362  38.139   9.635
 2090POPC   GL128801  39.282  38.421   9.283
 2090POPC   GL228802  39.003  38.335   9.162
 2090POPC   C1A28803  39.403  38.575   8.873
 2090POPC   D2A28804  39.627  38.615   8.440
 2090POPC   C3A28805  39.423  38.742   8.066
 2090POPC   C4A28806  39.029  38.792   7.860
 2090POPC   C1B28807  38.908  38.574   8.785
 2090POPC   C2B28808  39.135  38.443   8.441
 2090POPC   C3B28809  39.097  38.311   8.056
 2090POPC   C4B28810  39.027  38.290   7.645
 2091POPC   NC328811  14.663  15.458   9.630
 2091POPC   PO428812  15.309  15.147   9.698
 2091POPC   GL128813  15.133  15.278   9.310
 2091POPC   GL228814  15.468  15.164   9.199
 2091POPC   C1A28815  15.013  15.248   8.870
 2091POPC   D2A28816  15.068  15.200   8.428
 2091POPC   C3A28817  14.922  15.255   7.999
 2091POPC   C4A28818  15.179  15.431   7.704
 2091POPC   C1B28819  15.520  15.144   8.734
 2091POPC   C2B28820  15.552  15.233   8.265
 2091POPC   C3B28821  15.356  14.984   7.913
 2091POPC   C4B28822  15.489  14.697   7.547
 2092POPC   NC328823  44.206  37.076   9.547
 2092POPC   PO428824  44.715  36.662   9.718
 2092POPC   GL128825  44.668  36.702   9.278
 2092POPC   GL228826  44.679  37.081   9.288
 2092POPC   C1A28827  44.865  36.815   8.871
 2092POPC   D2A28828  44.781  36.990   8.478
 2092POPC   C3A28829  44.881  36.773   8.128
 2092POPC   C4A28830  44.677  36.890   7.786
 2092POPC   C1B28831  44.518  37.249   8.889
 2092POPC   C2B28832  44.384  37.300   8.446
 2092POPC   C3B28833  44.531  37.308   8.044
 2092POPC   C4B28834  44.318  37.260   7.650
 2093POPC   NC328835  42.977  15.037   9.700
 2093POPC   PO428836  43.418  15.425   9.492
 2093POPC   GL128837  43.274  15.099   9.231
 2093POPC   GL228838  42.894  15.079   9.190
 2093POPC   C1A28839  43.243  15.215   8.815
 2093POPC   D2A28840  43.164  15.013   8.463
 2093POPC   C3A28841  43.362  15.200   8.136
 2093POPC   C4A28842  43.240  15.261   7.736
 2093POPC   C1B28843  42.745  15.360   8.860
 2093POPC   C2B28844  42.687  15.201   8.436
 2093POPC   C3B28845  42.853  15.073   8.026
 2093POPC   C4B28846  42.743  15.317   7.684
 2094POPC   NC328847  20.672  17.158   9.320
 2094POPC   PO428848  20.362  17.816   9.471
 2094POPC   GL128849  20.425  17.759   9.062
 2094POPC   GL228850  20.241  17.445   9.090
 2094POPC   C1A28851  20.659  17.779   8.667
 2094POPC   D2A28852  20.996  17.792   8.380
 2094POPC   C3A28853  20.934  17.725   7.932
 2094POPC   C4A28854  20.560  17.564   7.771
 2094POPC   C1B28855  20.216  17.544   8.644
 2094POPC   C2B28856  20.402  17.449   8.250
 2094POPC   C3B28857  20.346  17.141   7.910
 2094POPC   C4B28858  20.366  17.159   7.444
 2095POPC   NC328859  36.972  43.447   9.972
 2095POPC   PO428860  36.816  42.961   9.617
 2095POPC   GL128861  36.809  43.144   9.188
 2095POPC   GL228862  37.095  42.929   9.091
 2095POPC   C1A28863  36.748  43.058   8.726
 2095POPC   D2A28864  36.817  42.749   8.384
 2095POPC   C3A28865  36.775  42.970   8.009
 2095POPC   C4A28866  36.683  43.320   7.779
 2095POPC   C1B28867  37.240  42.930   8.641
 2095POPC   C2B28868  37.094  43.230   8.317
 2095POPC   C3B28869  37.186  43.264   7.872
 2095POPC   C4B28870  37.221  43.267   7.434
 2096POPC   NC328871   4.296  24.598   9.570
 2096POPC   PO428872   4.655  24.131   9.221
 2096POPC   GL128873   4.445  24.384   8.965
 2096POPC   GL228874   4.160  24.508   9.108
 2096POPC   C1A28875   4.316  24.457   8.557
 2096POPC   D2A28876   4.295  24.199   8.213
 2096POPC   C3A28877   4.465  24.317   7.822
 2096POPC   C4A28878   4.622  24.436   7.392
 2096POPC   C1B28879   4.086  24.854   8.868
 2096POPC   C2B28880   3.864  24.852   8.490
 2096POPC   C3B28881   3.998  24.627   8.160
 2096POPC   C4B28882   4.101  24.729   7.775
 2097POPC   NC328883  10.189  44.333   9.321
 2097POPC   PO428884  10.535  44.925   9.558
 2097POPC   GL128885  10.682  44.680   9.197
 2097POPC   GL228886  10.667  44.331   9.151
 2097POPC   C1A28887  10.842  44.784   8.770
 2097POPC   D2A28888  10.571   0.114   8.564
 2097POPC   C3A28889  10.475   0.123   8.114
 2097POPC   C4A28890  10.344  44.887   7.745
 2097POPC   C1B28891  10.460  44.461   8.752
 2097POPC   C2B28892  10.466  44.648   8.335
 2097POPC   C3B28893  10.381  44.419   7.966
 2097POPC   C4B28894  10.029  44.173   8.014
 2098POPC   NC328895  38.633  15.984   9.809
 2098POPC   PO428896  38.069  16.140   9.435
 2098POPC   GL128897  38.281  15.869   9.119
 2098POPC   GL228898  38.604  16.029   9.099
 2098POPC   C1A28899  38.375  15.687   8.700
 2098POPC   D2A28900  38.601  15.661   8.274
 2098POPC   C3A28901  38.369  15.615   7.872
 2098POPC   C4A28902  38.463  15.691   7.430
 2098POPC   C1B28903  38.298  16.208   8.770
 2098POPC   C2B28904  38.107  16.048   8.414
 2098POPC   C3B28905  38.228  16.108   7.997
 2098POPC   C4B28906  38.302  16.377   7.673
 2099POPC   NC328907  35.006  33.096   9.537
 2099POPC   PO428908  34.537  32.609   9.466
 2099POPC   GL128909  34.772  32.798   9.154
 2099POPC   GL228910  34.582  33.124   9.240
 2099POPC   C1A28911  34.625  32.745   8.718
 2099POPC   D2A28912  34.269  32.916   8.465
 2099POPC   C3A28913  34.350  32.941   8.040
 2099POPC   C4A28914  34.765  32.919   7.913
 2099POPC   C1B28915  34.761  33.225   8.873
 2099POPC   C2B28916  34.762  33.183   8.464
 2099POPC   C3B28917  34.847  33.431   8.120
 2099POPC   C4B28918  34.592  33.386   7.787
 2100POPC   NC328919  27.135  38.247   9.991
 2100POPC   PO428920  26.837  38.635   9.485
 2100POPC   GL128921  26.768  38.386   9.111
 2100POPC   GL228922  26.617  38.066   9.110
 2100POPC   C1A28923  26.854  38.237   8.694
 2100POPC   D2A28924  27.124  38.288   8.361
 2100POPC   C3A28925  26.929  38.235   8.009
 2100POPC   C4A28926  27.094  38.327   7.610
 2100POPC   C1B28927  26.354  38.053   8.755
 2100POPC   C2B28928  26.446  38.191   8.342
 2100POPC   C3B28929  26.455  38.063   7.934
 2100POPC   C4B28930  26.577  38.363   7.666
 2101POPC   NC328931  36.736  10.731   9.391
 2101POPC   PO428932  37.410  10.483   9.511
 2101POPC   GL128933  37.167  10.484   9.131
 2101POPC   GL228934  37.185  10.830   9.082
 2101POPC   C1A28935  36.823  10.391   8.815
 2101POPC   D2A28936  36.758  10.501   8.374
 2101POPC   C3A28937  36.733  10.212   8.026
 2101POPC   C4A28938  36.735  10.342   7.596
 2101POPC   C1B28939  37.075  10.813   8.671
 2101POPC   C2B28940  37.245  10.671   8.293
 2101POPC   C3B28941  36.997  10.651   7.923
 2101POPC   C4B28942  37.135  10.608   7.513
 2102POPC   NC328943  19.889  17.852   9.496
 2102POPC   PO428944  19.519  17.309   9.651
 2102POPC   GL128945  19.705  17.461   9.229
 2102POPC   GL228946  19.411  17.506   9.088
 2102POPC   C1A28947  19.851  17.234   8.803
 2102POPC   D2A28948  20.033  17.104   8.367
 2102POPC   C3A28949  19.870  17.292   7.958
 2102POPC   C4A28950  20.066  17.636   7.710
 2102POPC   C1B28951  19.700  17.698   8.757
 2102POPC   C2B28952  19.787  17.581   8.372
 2102POPC   C3B28953  19.687  17.776   8.018
 2102POPC   C4B28954  19.517  17.726   7.655
 2103POPC   NC328955   2.542  35.466   9.390
 2103POPC   PO428956   2.518  34.794   9.458
 2103POPC   GL128957   2.640  35.029   9.074
 2103POPC   GL228958   2.852  35.340   8.992
 2103POPC   C1A28959   2.748  34.997   8.660
 2103POPC   D2A28960   2.690  35.252   8.323
 2103POPC   C3A28961   2.774  35.150   7.917
 2103POPC   C4A28962   3.121  35.031   7.685
 2103POPC   C1B28963   2.592  35.612   8.749
 2103POPC   C2B28964   2.463  35.689   8.334
 2103POPC   C3B28965   2.435  35.745   7.916
 2103POPC   C4B28966   2.431  35.483   7.585
 2104POPC   NC328967  32.684  11.575   9.490
 2104POPC   PO428968  33.330  11.706   9.453
 2104POPC   GL128969  33.046  11.548   9.096
 2104POPC   GL228970  32.812  11.263   9.100
 2104POPC   C1A28971  33.147  11.393   8.667
 2104POPC   D2A28972  33.438  11.342   8.328
 2104POPC   C3A28973  33.208  11.145   8.003
 2104POPC   C4A28974  32.965  11.478   7.886
 2104POPC   C1B28975  32.779  11.027   8.722
 2104POPC   C2B28976  32.741  11.158   8.280
 2104POPC   C3B28977  32.665  11.081   7.837
 2104POPC   C4B28978  32.663  11.402   7.492
 2105POPC   NC328979   9.417  17.260   9.493
 2105POPC   PO428980   9.939  17.694   9.535
 2105POPC   GL128981   9.888  17.482   9.128
 2105POPC   GL228982   9.538  17.516   9.061
 2105POPC   C1A28983   9.833  17.578   8.658
 2105POPC   D2A28984   9.930  17.827   8.255
 2105POPC   C3A28985  10.045  17.683   7.798
 2105POPC   C4A28986   9.920  17.733   7.322
 2105POPC   C1B28987   9.418  17.225   8.715
 2105POPC   C2B28988   9.338  17.261   8.275
 2105POPC   C3B28989   9.526  17.574   7.999
 2105POPC   C4B28990   9.633  17.413   7.603
 2106POPC   NC328991  16.591   5.301   9.520
 2106POPC   PO428992  17.174   5.167   9.242
 2106POPC   GL128993  16.732   5.208   9.051
 2106POPC   GL228994  16.490   4.936   9.138
 2106POPC   C1A28995  16.577   5.234   8.658
 2106POPC   D2A28996  16.938   5.163   8.398
 2106POPC   C3A28997  16.902   5.090   7.967
 2106POPC   C4A28998  16.945   5.342   7.587
 2106POPC   C1B28999  16.483   4.753   8.729
 2106POPC   C2B29000  16.517   4.866   8.287
 2106POPC   C3B29001  16.429   4.646   7.925
 2106POPC   C4B29002  16.598   4.581   7.500
 2107POPC   NC329003  11.292  21.086   9.541
 2107POPC   PO429004  11.572  21.683   9.481
 2107POPC   GL129005  11.225  21.532   9.154
 2107POPC   GL229006  11.113  21.204   9.075
 2107POPC   C1A29007  11.040  21.631   8.741
 2107POPC   D2A29008  11.064  21.835   8.315
 2107POPC   C3A29009  11.418  21.655   8.076
 2107POPC   C4A29010  11.486  21.621   7.651
 2107POPC   C1B29011  10.924  21.127   8.668
 2107POPC   C2B29012  11.089  21.326   8.286
 2107POPC   C3B29013  11.056  21.395   7.831
 2107POPC   C4B29014  11.339  21.159   7.483
 2108POPC   NC329015  40.457  14.836   9.469
 2108POPC   PO429016  41.051  14.617   9.469
 2108POPC   GL129017  40.906  14.965   9.193
 2108POPC   GL229018  40.930  15.322   9.290
 2108POPC   C1A29019  40.588  15.111   8.873
 2108POPC   D2A29020  40.648  15.014   8.437
 2108POPC   C3A29021  40.555  15.319   8.120
 2108POPC   C4A29022  40.603  15.078   7.776
 2108POPC   C1B29023  41.058  15.395   8.847
 2108POPC   C2B29024  41.000  15.405   8.402
 2108POPC   C3B29025  41.026  15.129   8.058
 2108POPC   C4B29026  41.087  15.184   7.612
 2109POPC   NC329027   1.027  35.598   9.493
 2109POPC   PO429028   1.352  35.094   9.737
 2109POPC   GL129029   1.268  35.221   9.267
 2109POPC   GL229030   1.343  35.543   9.099
 2109POPC   C1A29031   1.237  35.095   8.838
 2109POPC   D2A29032   1.063  34.879   8.466
 2109POPC   C3A29033   1.228  35.026   8.061
 2109POPC   C4A29034   1.028  35.216   7.718
 2109POPC   C1B29035   1.650  35.465   8.798
 2109POPC   C2B29036   1.525  35.285   8.433
 2109POPC   C3B29037   1.534  35.585   8.121
 2109POPC   C4B29038   1.496  35.467   7.732
 2110POPC   NC329039   3.091  18.989   9.590
 2110POPC   PO429040   3.666  18.631   9.595
 2110POPC   GL129041   3.661  18.803   9.155
 2110POPC   GL229042   3.487  19.146   9.199
 2110POPC   C1A29043   3.583  18.895   8.699
 2110POPC   D2A29044   3.381  19.199   8.435
 2110POPC   C3A29045   3.352  19.081   7.996
 2110POPC   C4A29046   3.646  18.784   7.786
 2110POPC   C1B29047   3.697  19.363   8.848
 2110POPC   C2B29048   3.910  19.279   8.447
 2110POPC   C3B29049   3.865  19.144   8.041
 2110POPC   C4B29050   3.735  19.360   7.663
 2111POPC   NC329051  43.695  15.027   9.525
 2111POPC   PO429052  44.119  15.503   9.656
 2111POPC   GL129053  43.900  15.423   9.251
 2111POPC   GL229054  44.002  15.086   9.117
 2111POPC   C1A29055  43.724  15.477   8.821
 2111POPC   D2A29056  43.784  15.244   8.419
 2111POPC   C3A29057  43.945  15.459   8.057
 2111POPC   C4A29058  44.237  15.361   7.724
 2111POPC   C1B29059  43.684  14.947   8.833
 2111POPC   C2B29060  43.617  14.739   8.477
 2111POPC   C3B29061  43.810  14.782   8.103
 2111POPC   C4B29062  43.578  14.891   7.788
 2112POPC   NC329063  30.638  28.102   9.569
 2112POPC   PO429064  30.863  28.756   9.697
 2112POPC   GL129065  30.654  28.678   9.303
 2112POPC   GL229066  30.729  28.386   9.163
 2112POPC   C1A29067  30.586  28.752   8.843
 2112POPC   D2A29068  30.869  28.740   8.479
 2112POPC   C3A29069  30.762  28.487   8.115
 2112POPC   C4A29070  30.861  28.562   7.689
 2112POPC   C1B29071  30.806  28.268   8.766
 2112POPC   C2B29072  30.834  28.053   8.404
 2112POPC   C3B29073  30.505  28.000   8.133
 2112POPC   C4B29074  30.613  28.125   7.755
 2113POPC   NC329075  42.892  39.383   9.647
 2113POPC   PO429076  43.406  38.953   9.546
 2113POPC   GL129077  43.124  39.171   9.244
 2113POPC   GL229078  43.230  39.510   9.282
 2113POPC   C1A29079  43.111  38.963   8.836
 2113POPC   D2A29080  43.367  39.046   8.494
 2113POPC   C3A29081  43.043  39.031   8.189
 2113POPC   C4A29082  42.975  39.071   7.779
 2113POPC   C1B29083  43.287  39.455   8.853
 2113POPC   C2B29084  43.107  39.485   8.447
 2113POPC   C3B29085  43.277  39.449   8.023
 2113POPC   C4B29086  43.104  39.546   7.638
 2114POPC   NC329087   1.221   1.064   9.519
 2114POPC   PO429088   1.390   1.794   9.512
 2114POPC   GL129089   1.254   1.476   9.234
 2114POPC   GL229090   0.897   1.426   9.269
 2114POPC   C1A29091   1.366   1.246   8.865
 2114POPC   D2A29092   1.426   1.482   8.481
 2114POPC   C3A29093   1.386   1.339   8.088
 2114POPC   C4A29094   1.212   1.096   7.745
 2114POPC   C1B29095   0.852   1.155   8.916
 2114POPC   C2B29096   0.991   1.219   8.511
 2114POPC   C3B29097   0.889   1.256   8.107
 2114POPC   C4B29098   0.738   1.311   7.707
 2115POPC   NC329099  38.747  19.764   9.517
 2115POPC   PO429100  39.279  20.254   9.609
 2115POPC   GL129101  39.421  19.979   9.230
 2115POPC   GL229102  39.131  19.775   9.193
 2115POPC   C1A29103  39.326  19.891   8.754
 2115POPC   D2A29104  39.449  19.741   8.322
 2115POPC   C3A29105  39.345  20.112   8.133
 2115POPC   C4A29106  39.295  20.286   7.732
 2115POPC   C1B29107  38.865  19.673   8.825
 2115POPC   C2B29108  38.944  19.844   8.390
 2115POPC   C3B29109  38.982  19.786   7.953
 2115POPC   C4B29110  38.987  19.594   7.559
 2116POPC   NC329111  29.218  27.883   9.367
 2116POPC   PO429112  29.323  28.534   9.521
 2116POPC   GL129113  29.247  28.345   9.145
 2116POPC   GL229114  28.918  28.403   9.074
 2116POPC   C1A29115  29.380  28.093   8.805
 2116POPC   D2A29116  29.421  28.280   8.460
 2116POPC   C3A29117  29.257  28.098   8.103
 2116POPC   C4A29118  29.346  28.182   7.734
 2116POPC   C1B29119  29.002  28.544   8.681
 2116POPC   C2B29120  28.984  28.491   8.258
 2116POPC   C3B29121  29.246  28.641   7.953
 2116POPC   C4B29122  29.268  28.603   7.488
 2117POPC   NC329123   6.512   2.594   9.564
 2117POPC   PO429124   6.751   3.231   9.385
 2117POPC   GL129125   6.586   2.911   9.167
 2117POPC   GL229126   6.876   2.708   9.215
 2117POPC   C1A29127   6.420   2.732   8.815
 2117POPC   D2A29128   6.601   2.737   8.418
 2117POPC   C3A29129   6.436   3.007   8.100
 2117POPC   C4A29130   6.601   2.746   7.799
 2117POPC   C1B29131   6.859   2.471   8.836
 2117POPC   C2B29132   6.812   2.268   8.438
 2117POPC   C3B29133   6.923   2.444   8.079
 2117POPC   C4B29134   6.839   2.307   7.677
 2118POPC   NC329135  26.267   6.398   9.406
 2118POPC   PO429136  25.733   6.713   9.617
 2118POPC   GL129137  25.929   6.865   9.187
 2118POPC   GL229138  26.253   6.745   9.011
 2118POPC   C1A29139  25.907   6.971   8.722
 2118POPC   D2A29140  25.993   6.720   8.347
 2118POPC   C3A29141  25.990   6.897   7.947
 2118POPC   C4A29142  26.354   6.861   7.682
 2118POPC   C1B29143  26.093   6.391   8.760
 2118POPC   C2B29144  25.786   6.225   8.478
 2118POPC   C3B29145  25.968   6.222   8.134
 2118POPC   C4B29146  26.033   6.412   7.786
 2119POPC   NC329147  11.441  20.389   9.508
 2119POPC   PO429148  10.927  20.873   9.725
 2119POPC   GL129149  11.071  20.709   9.258
 2119POPC   GL229150  11.413  20.782   9.145
 2119POPC   C1A29151  11.171  20.552   8.785
 2119POPC   D2A29152  11.419  20.386   8.418
 2119POPC   C3A29153  11.214  20.451   7.999
 2119POPC   C4A29154  11.408  20.644   7.620
 2119POPC   C1B29155  11.497  20.985   8.777
 2119POPC   C2B29156  11.304  20.884   8.406
 2119POPC   C3B29157  11.279  20.961   7.988
 2119POPC   C4B29158  10.933  20.909   7.709
 2120POPC   NC329159  37.965   4.678   9.512
 2120POPC   PO429160  37.575   4.157   9.638
 2120POPC   GL129161  37.659   4.346   9.215
 2120POPC   GL229162  37.643   4.028   9.050
 2120POPC   C1A29163  37.501   4.502   8.781
 2120POPC   D2A29164  37.768   4.579   8.367
 2120POPC   C3A29165  37.605   4.561   7.937
 2120POPC   C4A29166  37.549   4.540   7.470
 2120POPC   C1B29167  37.920   4.221   8.757
 2120POPC   C2B29168  38.067   4.150   8.348
 2120POPC   C3B29169  37.929   4.169   7.902
 2120POPC   C4B29170  37.551   4.083   7.697
 2121POPC   NC329171   2.474   0.871   9.264
 2121POPC   PO429172   2.981   0.566   9.474
 2121POPC   GL129173   2.788   0.399   9.113
 2121POPC   GL229174   2.439   0.348   9.159
 2121POPC   C1A29175   2.938   0.279   8.707
 2121POPC   D2A29176   3.129   0.606   8.477
 2121POPC   C3A29177   3.030   0.753   8.030
 2121POPC   C4A29178   3.054   0.548   7.612
 2121POPC   C1B29179   2.457   0.439   8.690
 2121POPC   C2B29180   2.674   0.428   8.272
 2121POPC   C3B29181   2.579   0.572   7.850
 2121POPC   C4B29182   2.581   0.399   7.421
 2122POPC   NC329183  44.788   9.555   9.731
 2122POPC   PO429184  44.414  10.082   9.625
 2122POPC   GL129185  44.602   9.799   9.255
 2122POPC   GL229186  44.536  10.072   9.029
 2122POPC   C1A29187  44.778   9.692   8.809
 2122POPC   D2A29188  44.905   9.605   8.373
 2122POPC   C3A29189  44.776   9.825   8.010
 2122POPC   C4A29190  44.643   9.712   7.604
 2122POPC   C1B29191  44.307   9.926   8.708
 2122POPC   C2B29192  44.355   9.829   8.307
 2122POPC   C3B29193  44.285   9.961   7.909
 2122POPC   C4B29194  44.537  10.232   7.633
 2123POPC   NC329195  10.290  29.669   9.589
 2123POPC   PO429196  10.785  30.134   9.606
 2123POPC   GL129197  10.602  30.032   9.196
 2123POPC   GL229198  10.540  29.663   9.113
 2123POPC   C1A29199  10.709  30.015   8.742
 2123POPC   D2A29200  10.855  30.194   8.372
 2123POPC   C3A29201  10.643  29.992   8.046
 2123POPC   C4A29202  10.381  30.040   7.673
 2123POPC   C1B29203  10.237  29.889   8.860
 2123POPC   C2B29204  10.294  30.012   8.431
 2123POPC   C3B29205  10.163  29.781   8.071
 2123POPC   C4B29206   9.886  29.893   7.703
 2124POPC   NC329207  35.018   6.127   9.325
 2124POPC   PO429208  35.541   5.812   9.640
 2124POPC   GL129209  35.523   5.838   9.159
 2124POPC   GL229210  35.609   6.091   8.940
 2124POPC   C1A29211  35.602   5.589   8.753
 2124POPC   D2A29212  35.419   5.721   8.337
 2124POPC   C3A29213  35.362   5.570   7.957
 2124POPC   C4A29214  35.460   5.968   7.790
 2124POPC   C1B29215  35.200   5.899   8.756
 2124POPC   C2B29216  34.915   5.896   8.439
 2124POPC   C3B29217  34.999   5.913   8.026
 2124POPC   C4B29218  34.993   6.237   7.721
 2125POPC   NC329219  26.447  13.800   9.282
 2125POPC   PO429220  27.052  13.639   9.525
 2125POPC   GL129221  26.973  13.618   9.102
 2125POPC   GL229222  26.692  13.427   9.033
 2125POPC   C1A29223  26.919  13.862   8.723
 2125POPC   D2A29224  27.185  13.778   8.380
 2125POPC   C3A29225  27.002  13.595   8.016
 2125POPC   C4A29226  26.653  13.804   7.843
 2125POPC   C1B29227  26.425  13.444   8.677
 2125POPC   C2B29228  26.473  13.521   8.230
 2125POPC   C3B29229  26.399  13.371   7.798
 2125POPC   C4B29230  26.526  13.289   7.353
 2126POPC   NC329231  42.641  10.495   9.498
 2126POPC   PO429232  42.005  10.615   9.426
 2126POPC   GL129233  42.327  10.685   9.086
 2126POPC   GL229234  42.673  10.832   9.104
 2126POPC   C1A29235  42.302  10.670   8.627
 2126POPC   D2A29236  42.086  10.389   8.315
 2126POPC   C3A29237  42.261  10.337   7.936
 2126POPC   C4A29238  42.385  10.764   7.774
 2126POPC   C1B29239  42.728  10.446   8.838
 2126POPC   C2B29240  42.597  10.291   8.436
 2126POPC   C3B29241  42.699  10.539   8.114
 2126POPC   C4B29242  42.731  10.331   7.737
 2127POPC   NC329243  11.182  21.960   9.413
 2127POPC   PO429244  11.206  22.613   9.459
 2127POPC   GL129245  11.143  22.347   9.063
 2127POPC   GL229246  10.821  22.230   9.163
 2127POPC   C1A29247  11.350  22.055   8.714
 2127POPC   D2A29248  11.653  22.005   8.339
 2127POPC   C3A29249  11.633  22.087   7.869
 2127POPC   C4A29250  11.638  22.033   7.395
 2127POPC   C1B29251  10.836  22.111   8.718
 2127POPC   C2B29252  11.037  22.343   8.398
 2127POPC   C3B29253  11.010  22.343   7.967
 2127POPC   C4B29254  11.123  21.961   7.797
 2128POPC   NC329255  17.235  22.534   9.510
 2128POPC   PO429256  17.104  21.907   9.372
 2128POPC   GL129257  17.514  21.968   9.114
 2128POPC   GL229258  17.670  22.296   9.228
 2128POPC   C1A29259  17.558  22.100   8.657
 2128POPC   D2A29260  17.202  22.252   8.390
 2128POPC   C3A29261  17.245  22.130   7.962
 2128POPC   C4A29262  17.694  22.145   7.818
 2128POPC   C1B29263  17.540  22.554   8.871
 2128POPC   C2B29264  17.598  22.716   8.457
 2128POPC   C3B29265  17.484  22.569   8.048
 2128POPC   C4B29266  17.416  22.515   7.629
 2129POPC   NC329267   9.306   2.563   9.526
 2129POPC   PO429268   8.616   2.442   9.492
 2129POPC   GL129269   8.869   2.602   9.135
 2129POPC   GL229270   9.229   2.743   9.058
 2129POPC   C1A29271   8.816   2.766   8.721
 2129POPC   D2A29272   8.693   3.094   8.397
 2129POPC   C3A29273   8.723   2.890   7.984
 2129POPC   C4A29274   9.060   2.632   7.824
 2129POPC   C1B29275   9.315   2.709   8.618
 2129POPC   C2B29276   9.184   2.932   8.256
 2129POPC   C3B29277   9.405   3.035   7.876
 2129POPC   C4B29278   9.432   2.811   7.498
 2130POPC   NC329279  38.425   5.097   9.980
 2130POPC   PO429280  38.317   4.928   9.338
 2130POPC   GL129281  38.376   5.294   9.058
 2130POPC   GL229282  38.295   5.025   8.848
 2130POPC   C1A29283  38.377   5.429   8.578
 2130POPC   D2A29284  38.584   5.133   8.333
 2130POPC   C3A29285  38.397   5.058   7.961
 2130POPC   C4A29286  38.694   5.125   7.669
 2130POPC   C1B29287  38.220   4.627   8.667
 2130POPC   C2B29288  38.346   4.629   8.268
 2130POPC   C3B29289  38.164   4.603   7.921
 2130POPC   C4B29290  37.993   4.747   7.596
 2131POPC   NC329291   8.673  17.286   9.627
 2131POPC   PO429292   9.178  17.694   9.395
 2131POPC   GL129293   9.057  17.324   9.128
 2131POPC   GL229294   8.716  17.308   9.118
 2131POPC   C1A29295   8.960  17.414   8.680
 2131POPC   D2A29296   9.155  17.726   8.407
 2131POPC   C3A29297   9.022  17.597   7.998
 2131POPC   C4A29298   8.864  17.857   7.714
 2131POPC   C1B29299   8.548  17.667   8.854
 2131POPC   C2B29300   8.590  17.745   8.400
 2131POPC   C3B29301   8.503  17.592   7.983
 2131POPC   C4B29302   8.695  17.221   7.751
 2132POPC   NC329303  18.378  41.255   9.445
 2132POPC   PO429304  18.323  41.964   9.500
 2132POPC   GL129305  18.478  41.786   9.093
 2132POPC   GL229306  18.334  41.431   8.983
 2132POPC   C1A29307  18.451  41.758   8.626
 2132POPC   D2A29308  18.335  41.406   8.437
 2132POPC   C3A29309  18.259  41.328   8.004
 2132POPC   C4A29310  18.390  41.486   7.609
 2132POPC   C1B29311  18.002  41.711   8.863
 2132POPC   C2B29312  17.960  41.921   8.515
 2132POPC   C3B29313  18.139  41.829   8.137
 2132POPC   C4B29314  17.916  41.718   7.749
 2133POPC   NC329315  25.918  40.161   9.492
 2133POPC   PO429316  25.794  39.465   9.442
 2133POPC   GL129317  26.002  39.778   9.106
 2133POPC   GL229318  26.117  40.153   9.030
 2133POPC   C1A29319  26.077  39.811   8.658
 2133POPC   D2A29320  25.950  40.149   8.427
 2133POPC   C3A29321  25.800  39.987   8.064
 2133POPC   C4A29322  25.650  39.990   7.684
 2133POPC   C1B29323  26.435  40.166   8.703
 2133POPC   C2B29324  26.426  40.204   8.260
 2133POPC   C3B29325  26.273  40.088   7.888
 2133POPC   C4B29326  26.301  40.379   7.593
 2134POPC   NC329327  43.390  21.870   9.563
 2134POPC   PO429328  43.444  22.553   9.635
 2134POPC   GL129329  43.603  22.396   9.227
 2134POPC   GL229330  43.677  22.042   9.186
 2134POPC   C1A29331  43.694  22.414   8.778
 2134POPC   D2A29332  44.088  22.198   8.600
 2134POPC   C3A29333  44.120  22.154   8.145
 2134POPC   C4A29334  43.992  22.415   7.786
 2134POPC   C1B29335  43.673  21.902   8.771
 2134POPC   C2B29336  43.626  22.076   8.371
 2134POPC   C3B29337  43.702  21.941   7.973
 2134POPC   C4B29338  43.552  22.209   7.694
 2135POPC   NC329339  33.540  20.574   9.429
 2135POPC   PO429340  34.157  20.872   9.518
 2135POPC   GL129341  33.831  20.885   9.168
 2135POPC   GL229342  33.797  20.538   8.985
 2135POPC   C1A29343  33.606  20.968   8.788
 2135POPC   D2A29344  33.856  20.927   8.456
 2135POPC   C3A29345  33.694  20.798   8.111
 2135POPC   C4A29346  33.944  20.784   7.721
 2135POPC   C1B29347  33.780  20.420   8.520
 2135POPC   C2B29348  33.790  20.306   8.050
 2135POPC   C3B29349  33.628  20.203   7.620
 2135POPC   C4B29350  33.537  20.187   7.106
 2136POPC   NC329351  11.801  18.088   9.490
 2136POPC   PO429352  12.254  18.511   9.522
 2136POPC   GL129353  12.190  18.608   9.116
 2136POPC   GL229354  11.829  18.550   9.094
 2136POPC   C1A29355  12.092  18.670   8.684
 2136POPC   D2A29356  11.905  18.499   8.291
 2136POPC   C3A29357  11.966  18.678   7.840
 2136POPC   C4A29358  12.186  18.517   7.468
 2136POPC   C1B29359  11.927  18.203   8.832
 2136POPC   C2B29360  11.784  17.981   8.466
 2136POPC   C3B29361  12.062  17.986   8.114
 2136POPC   C4B29362  11.927  18.170   7.750
 2137POPC   NC329363  23.860   7.338   9.558
 2137POPC   PO429364  23.525   7.886   9.386
 2137POPC   GL129365  23.621   7.484   9.116
 2137POPC   GL229366  23.970   7.388   9.076
 2137POPC   C1A29367  23.570   7.241   8.728
 2137POPC   D2A29368  23.795   7.068   8.369
 2137POPC   C3A29369  23.773   7.245   7.930
 2137POPC   C4A29370  23.556   7.646   7.842
 2137POPC   C1B29371  24.033   7.412   8.657
 2137POPC   C2B29372  23.866   7.595   8.283
 2137POPC   C3B29373  24.062   7.676   7.870
 2137POPC   C4B29374  23.894   7.914   7.506
 2138POPC   NC329375  14.468  44.562   9.507
 2138POPC   PO429376  14.831   0.094   9.357
 2138POPC   GL129377  14.476  44.938   9.058
 2138POPC   GL229378  14.210  44.658   9.076
 2138POPC   C1A29379  14.362  44.780   8.622
 2138POPC   D2A29380  14.535  44.417   8.392
 2138POPC   C3A29381  14.619  44.510   7.963
 2138POPC   C4A29382  14.540  44.861   7.684
 2138POPC   C1B29383  14.026  44.400   8.718
 2138POPC   C2B29384  13.944  44.630   8.309
 2138POPC   C3B29385  14.104  44.666   7.891
 2138POPC   C4B29386  14.283  44.373   7.614
 2139POPC   NC329387  32.364  14.958   9.557
 2139POPC   PO429388  32.317  15.613   9.671
 2139POPC   GL129389  32.350  15.357   9.206
 2139POPC   GL229390  32.422  14.978   9.073
 2139POPC   C1A29391  32.222  15.318   8.738
 2139POPC   D2A29392  32.430  15.421   8.324
 2139POPC   C3A29393  32.286  15.297   7.909
 2139POPC   C4A29394  31.969  15.056   7.639
 2139POPC   C1B29395  32.277  14.787   8.704
 2139POPC   C2B29396  32.290  14.915   8.268
 2139POPC   C3B29397  32.355  14.788   7.831
 2139POPC   C4B29398  32.608  14.780   7.452
 2140POPC   NC329399  34.215  33.707   9.491
 2140POPC   PO429400  33.586  33.790   9.761
 2140POPC   GL129401  33.770  33.854   9.259
 2140POPC   GL229402  34.030  34.107   9.194
 2140POPC   C1A29403  33.783  33.940   8.777
 2140POPC   D2A29404  33.677  33.736   8.332
 2140POPC   C3A29405  33.662  33.818   7.877
 2140POPC   C4A29406  33.859  33.622   7.492
 2140POPC   C1B29407  34.328  34.069   8.849
 2140POPC   C2B29408  34.202  33.859   8.469
 2140POPC   C3B29409  34.044  34.066   8.099
 2140POPC   C4B29410  34.062  34.357   7.740
 2141POPC   NC329411   2.277  38.649   9.463
 2141POPC   PO429412   1.698  38.372   9.500
 2141POPC   GL129413   1.868  38.484   9.130
 2141POPC   GL229414   2.191  38.311   9.086
 2141POPC   C1A29415   1.724  38.594   8.741
 2141POPC   D2A29416   1.935  38.429   8.413
 2141POPC   C3A29417   2.019  38.657   8.050
 2141POPC   C4A29418   1.758  38.593   7.694
 2141POPC   C1B29419   2.378  38.461   8.709
 2141POPC   C2B29420   2.413  38.342   8.288
 2141POPC   C3B29421   2.105  38.162   7.993
 2141POPC   C4B29422   2.038  38.195   7.568
 2142POPC   NC329423  16.750  12.651   9.612
 2142POPC   PO429424  16.035  12.619   9.485
 2142POPC   GL129425  16.417  12.712   9.148
 2142POPC   GL229426  16.759  12.553   9.127
 2142POPC   C1A29427  16.680  12.999   8.825
 2142POPC   D2A29428  16.994  12.911   8.479
 2142POPC   C3A29429  16.796  12.979   8.061
 2142POPC   C4A29430  16.693  13.159   7.678
 2142POPC   C1B29431  16.725  12.516   8.694
 2142POPC   C2B29432  16.529  12.657   8.366
 2142POPC   C3B29433  16.549  12.425   8.004
 2142POPC   C4B29434  16.760  12.532   7.648
 2143POPC   NC329435   4.588  28.095   9.348
 2143POPC   PO429436   4.147  28.447   9.702
 2143POPC   GL129437   4.219  28.433   9.252
 2143POPC   GL229438   4.522  28.605   9.144
 2143POPC   C1A29439   4.317  28.340   8.774
 2143POPC   D2A29440   4.622  28.478   8.457
 2143POPC   C3A29441   4.587  28.207   8.076
 2143POPC   C4A29442   4.294  28.027   7.777
 2143POPC   C1B29443   4.195  28.813   8.895
 2143POPC   C2B29444   4.186  28.858   8.453
 2143POPC   C3B29445   4.255  28.591   8.085
 2143POPC   C4B29446   4.207  28.565   7.619
 2144POPC   NC329447  42.165  14.679   9.442
 2144POPC   PO429448  42.384  14.058   9.499
 2144POPC   GL129449  42.404  14.304   9.147
 2144POPC   GL229450  42.613  14.600   9.183
 2144POPC   C1A29451  42.163  14.451   8.791
 2144POPC   D2A29452  42.303  14.324   8.372
 2144POPC   C3A29453  42.175  14.535   8.001
 2144POPC   C4A29454  42.291  14.414   7.576
 2144POPC   C1B29455  42.679  14.503   8.733
 2144POPC   C2B29456  42.713  14.667   8.314
 2144POPC   C3B29457  42.684  14.605   7.869
 2144POPC   C4B29458  42.695  14.673   7.406
 2145POPC   NC329459  19.276  37.604   9.422
 2145POPC   PO429460  18.622  37.777   9.504
 2145POPC   GL129461  18.795  37.673   9.097
 2145POPC   GL229462  19.088  37.904   9.036
 2145POPC   C1A29463  19.009  37.494   8.712
 2145POPC   D2A29464  18.943  37.198   8.352
 2145POPC   C3A29465  18.835  37.377   7.984
 2145POPC   C4A29466  19.158  37.631   7.831
 2145POPC   C1B29467  19.190  38.071   8.627
 2145POPC   C2B29468  19.063  37.852   8.289
 2145POPC   C3B29469  18.709  37.887   8.050
 2145POPC   C4B29470  18.799  37.988   7.634
 2146POPC   NC329471  43.346   7.837   9.259
 2146POPC   PO429472  42.890   8.311   9.474
 2146POPC   GL129473  43.036   8.230   9.084
 2146POPC   GL229474  43.390   8.340   9.110
 2146POPC   C1A29475  43.015   7.974   8.703
 2146POPC   D2A29476  42.740   7.848   8.353
 2146POPC   C3A29477  42.871   7.993   7.966
 2146POPC   C4A29478  42.876   8.368   7.793
 2146POPC   C1B29479  43.251   8.456   8.688
 2146POPC   C2B29480  43.137   8.377   8.242
 2146POPC   C3B29481  43.351   8.264   7.882
 2146POPC   C4B29482  43.623   8.480   7.656
 2147POPC   NC329483  39.437   6.691   9.483
 2147POPC   PO429484  38.835   6.880   9.700
 2147POPC   GL129485  39.019   6.906   9.260
 2147POPC   GL229486  38.855   6.580   9.226
 2147POPC   C1A29487  39.358   6.845   8.862
 2147POPC   D2A29488  39.532   6.520   8.534
 2147POPC   C3A29489  39.478   6.608   8.066
 2147POPC   C4A29490  39.328   6.844   7.708
 2147POPC   C1B29491  38.850   6.751   8.811
 2147POPC   C2B29492  39.066   6.661   8.472
 2147POPC   C3B29493  38.996   6.800   8.122
 2147POPC   C4B29494  38.915   6.553   7.818
 2148POPC   NC329495  26.014  11.094   9.525
 2148POPC   PO429496  26.273  11.731   9.558
 2148POPC   GL129497  26.175  11.534   9.168
 2148POPC   GL229498  26.326  11.200   9.109
 2148POPC   C1A29499  26.057  11.526   8.735
 2148POPC   D2A29500  25.863  11.589   8.307
 2148POPC   C3A29501  26.141  11.497   7.934
 2148POPC   C4A29502  26.427  11.666   7.586
 2148POPC   C1B29503  26.206  11.011   8.702
 2148POPC   C2B29504  26.364  10.905   8.298
 2148POPC   C3B29505  26.324  11.008   7.852
 2148POPC   C4B29506  25.917  10.963   7.635
 2149POPC   NC329507   0.625  16.716   9.423
 2149POPC   PO429508  44.985  16.554   9.453
 2149POPC   GL129509   0.319  16.391   9.168
 2149POPC   GL229510   0.711  16.277   9.206
 2149POPC   C1A29511   0.402  16.642   8.806
 2149POPC   D2A29512   0.506  16.550   8.420
 2149POPC   C3A29513   0.515  16.878   8.127
 2149POPC   C4A29514   0.254  17.028   7.806
 2149POPC   C1B29515   0.857  16.422   8.802
 2149POPC   C2B29516   0.942  16.293   8.395
 2149POPC   C3B29517   0.792  16.437   8.017
 2149POPC   C4B29518   0.665  16.641   7.671
 2150POPC   NC329519  16.787   3.829   9.607
 2150POPC   PO429520  16.310   3.329   9.450
 2150POPC   GL129521  16.469   3.688   9.216
 2150POPC   GL229522  16.796   3.620   9.141
 2150POPC   C1A29523  16.522   3.825   8.777
 2150POPC   D2A29524  16.752   3.931   8.423
 2150POPC   C3A29525  16.533   3.796   8.086
 2150POPC   C4A29526  16.493   3.763   7.691
 2150POPC   C1B29527  16.912   3.521   8.705
 2150POPC   C2B29528  16.794   3.418   8.263
 2150POPC   C3B29529  16.853   3.403   7.818
 2150POPC   C4B29530  17.175   3.203   7.571
 2151POPC   NC329531  19.866  14.802   9.470
 2151POPC   PO429532  20.128  14.177   9.473
 2151POPC   GL129533  19.997  14.447   9.143
 2151POPC   GL229534  19.678  14.503   9.038
 2151POPC   C1A29535  20.103  14.488   8.731
 2151POPC   D2A29536  19.891  14.621   8.370
 2151POPC   C3A29537  19.847  14.296   8.093
 2151POPC   C4A29538  20.062  14.266   7.724
 2151POPC   C1B29539  19.742  14.898   8.795
 2151POPC   C2B29540  19.833  15.127   8.418
 2151POPC   C3B29541  19.734  14.971   8.005
 2151POPC   C4B29542  19.568  14.588   7.786
 2152POPC   NC329543   0.627   0.570   9.574
 2152POPC   PO429544   0.096   0.158   9.567
 2152POPC   GL129545   0.353   0.298   9.237
 2152POPC   GL229546   0.617   0.074   9.308
 2152POPC   C1A29547   0.578   0.535   8.901
 2152POPC   D2A29548   0.452   0.435   8.495
 2152POPC   C3A29549   0.325   0.654   8.138
 2152POPC   C4A29550   0.402   0.519   7.737
 2152POPC   C1B29551   0.561   0.011   8.866
 2152POPC   C2B29552   0.601  44.944   8.426
 2152POPC   C3B29553   0.480   0.137   8.064
 2152POPC   C4B29554   0.346   0.006   7.668
 2153POPC   NC329555  37.820  26.384   9.485
 2153POPC   PO429556  37.322  26.785   9.507
 2153POPC   GL129557  37.627  26.812   9.176
 2153POPC   GL229558  37.476  27.053   9.005
 2153POPC   C1A29559  37.844  26.837   8.749
 2153POPC   D2A29560  37.797  26.514   8.461
 2153POPC   C3A29561  37.813  26.575   8.082
 2153POPC   C4A29562  38.164  26.721   7.900
 2153POPC   C1B29563  37.510  27.296   8.673
 2153POPC   C2B29564  37.857  27.336   8.411
 2153POPC   C3B29565  37.874  27.093   8.092
 2153POPC   C4B29566  37.653  26.934   7.768
 2154POPC   NC329567  26.653   2.634   9.524
 2154POPC   PO429568  27.320   2.505   9.355
 2154POPC   GL129569  26.996   2.689   9.152
 2154POPC   GL229570  26.800   2.374   9.117
 2154POPC   C1A29571  26.673   2.796   8.869
 2154POPC   D2A29572  26.567   2.720   8.444
 2154POPC   C3A29573  26.883   2.941   8.160
 2154POPC   C4A29574  26.803   3.088   7.751
 2154POPC   C1B29575  27.003   2.411   8.714
 2154POPC   C2B29576  26.965   2.446   8.278
 2154POPC   C3B29577  26.696   2.529   7.930
 2154POPC   C4B29578  26.888   2.614   7.569
 2155POPC   NC329579   3.805  16.241   9.753
 2155POPC   PO429580   3.984  15.639   9.617
 2155POPC   GL129581   3.725  15.930   9.302
 2155POPC   GL229582   3.506  16.221   9.210
 2155POPC   C1A29583   3.744  15.848   8.880
 2155POPC   D2A29584   3.637  15.964   8.462
 2155POPC   C3A29585   3.304  15.909   8.181
 2155POPC   C4A29586   3.480  15.904   7.787
 2155POPC   C1B29587   3.273  16.161   8.840
 2155POPC   C2B29588   3.316  16.355   8.444
 2155POPC   C3B29589   3.377  16.444   8.029
 2155POPC   C4B29590   3.164  16.285   7.677
 2156POPC   NC329591  23.429   0.465   9.495
 2156POPC   PO429592  24.135   0.616   9.321
 2156POPC   GL129593  23.750   0.485   9.108
 2156POPC   GL229594  23.437   0.640   8.987
 2156POPC   C1A29595  23.582   0.212   8.802
 2156POPC   D2A29596  23.399   0.426   8.487
 2156POPC   C3A29597  23.516   0.266   8.124
 2156POPC   C4A29598  23.589   0.405   7.764
 2156POPC   C1B29599  23.747   0.754   8.656
 2156POPC   C2B29600  23.727   0.736   8.213
 2156POPC   C3B29601  24.029   0.596   7.947
 2156POPC   C4B29602  24.035   0.578   7.527
 2157POPC   NC329603  41.756  26.368   9.270
 2157POPC   PO429604  41.700  26.994   9.487
 2157POPC   GL129605  41.532  26.842   9.110
 2157POPC   GL229606  41.300  27.123   9.118
 2157POPC   C1A29607  41.427  26.590   8.741
 2157POPC   D2A29608  41.540  26.793   8.380
 2157POPC   C3A29609  41.723  26.561   8.070
 2157POPC   C4A29610  41.636  26.796   7.740
 2157POPC   C1B29611  41.132  26.989   8.778
 2157POPC   C2B29612  41.040  26.864   8.380
 2157POPC   C3B29613  41.175  26.790   7.981
 2157POPC   C4B29614  41.105  27.063   7.684
 2158POPC   NC329615  28.133  13.348   9.490
 2158POPC   PO429616  27.828  13.963   9.472
 2158POPC   GL129617  28.066  13.884   9.081
 2158POPC   GL229618  28.384  13.649   9.117
 2158POPC   C1A29619  28.202  13.765   8.653
 2158POPC   D2A29620  28.535  13.602   8.382
 2158POPC   C3A29621  28.399  13.793   8.002
 2158POPC   C4A29622  27.975  13.839   7.944
 2158POPC   C1B29623  28.339  13.294   8.774
 2158POPC   C2B29624  28.149  13.277   8.330
 2158POPC   C3B29625  28.449  13.300   7.934
 2158POPC   C4B29626  28.590  13.214   7.485
 2159POPC   NC329627  18.530  28.870   9.339
 2159POPC   PO429628  18.012  28.463   9.453
 2159POPC   GL129629  18.176  28.317   9.094
 2159POPC   GL229630  18.481  28.466   9.058
 2159POPC   C1A29631  18.037  28.433   8.717
 2159POPC   D2A29632  18.282  28.510   8.360
 2159POPC   C3A29633  18.010  28.466   8.027
 2159POPC   C4A29634  18.172  28.411   7.646
 2159POPC   C1B29635  18.713  28.488   8.710
 2159POPC   C2B29636  18.737  28.293   8.310
 2159POPC   C3B29637  18.628  28.518   7.902
 2159POPC   C4B29638  18.494  28.771   7.532
 2160POPC   NC329639   0.278  19.639   9.429
 2160POPC   PO429640   0.473  20.215   9.646
 2160POPC   GL129641   0.554  20.052   9.245
 2160POPC   GL229642   0.201  20.053   9.151
 2160POPC   C1A29643   0.586  19.913   8.800
 2160POPC   D2A29644   0.681  20.144   8.382
 2160POPC   C3A29645   0.537  20.043   7.953
 2160POPC   C4A29646   0.527  19.660   7.674
 2160POPC   C1B29647   0.077  19.872   8.756
 2160POPC   C2B29648   0.270  19.847   8.381
 2160POPC   C3B29649   0.156  19.702   8.019
 2160POPC   C4B29650   0.008  19.336   7.841
 2161POPC   NC329651  24.030  17.335   9.461
 2161POPC   PO429652  23.539  17.731   9.533
 2161POPC   GL129653  23.685  17.784   9.120
 2161POPC   GL229654  23.775  17.444   9.043
 2161POPC   C1A29655  23.876  17.818   8.712
 2161POPC   D2A29656  23.822  17.454   8.447
 2161POPC   C3A29657  23.747  17.532   8.018
 2161POPC   C4A29658  24.008  17.404   7.681
 2161POPC   C1B29659  23.644  17.107   8.784
 2161POPC   C2B29660  23.517  17.041   8.361
 2161POPC   C3B29661  23.281  17.359   8.156
 2161POPC   C4B29662  23.281  17.497   7.758
 2162POPC   NC329663  20.173   7.869   9.503
 2162POPC   PO429664  19.560   7.607   9.403
 2162POPC   GL129665  19.835   7.838   9.053
 2162POPC   GL229666  19.898   8.170   9.047
 2162POPC   C1A29667  19.887   7.958   8.603
 2162POPC   D2A29668  19.893   8.326   8.359
 2162POPC   C3A29669  20.000   8.211   7.944
 2162POPC   C4A29670  19.906   8.023   7.550
 2162POPC   C1B29671  19.572   8.342   8.794
 2162POPC   C2B29672  19.402   8.476   8.403
 2162POPC   C3B29673  19.544   8.448   7.959
 2162POPC   C4B29674  19.653   8.491   7.495
 2163POPC   NC329675  40.304  19.008   9.881
 2163POPC   PO429676  40.277  19.351   9.343
 2163POPC   GL129677  40.656  19.080   9.141
 2163POPC   GL229678  40.429  19.015   8.872
 2163POPC   C1A29679  40.852  18.786   8.776
 2163POPC   D2A29680  40.622  18.793   8.366
 2163POPC   C3A29681  40.768  18.841   7.923
 2163POPC   C4A29682  40.965  18.853   7.469
 2163POPC   C1B29683  40.770  19.268   8.670
 2163POPC   C2B29684  40.890  19.651   8.509
 2163POPC   C3B29685  41.122  19.645   8.130
 2163POPC   C4B29686  41.042  19.272   7.837
 2164POPC   NC329687  12.556  14.503   9.442
 2164POPC   PO429688  11.945  14.223   9.313
 2164POPC   GL129689  11.953  14.502   8.999
 2164POPC   GL229690  12.279  14.551   9.019
 2164POPC   C1A29691  12.011  14.494   8.556
 2164POPC   D2A29692  12.146  14.161   8.281
 2164POPC   C3A29693  11.996  14.176   7.890
 2164POPC   C4A29694  11.858  14.598   7.825
 2164POPC   C1B29695  12.478  14.642   8.646
 2164POPC   C2B29696  12.572  14.484   8.209
 2164POPC   C3B29697  12.365  14.535   7.797
 2164POPC   C4B29698  12.413  14.692   7.352
 2165POPC   NC329699  12.951  21.115   9.451
 2165POPC   PO429700  12.467  21.500   9.559
 2165POPC   GL129701  12.410  21.254   9.153
 2165POPC   GL229702  12.734  21.344   9.036
 2165POPC   C1A29703  12.509  21.031   8.706
 2165POPC   D2A29704  12.643  21.209   8.257
 2165POPC   C3A29705  13.018  21.119   7.964
 2165POPC   C4A29706  13.302  21.205   7.597
 2165POPC   C1B29707  12.529  21.536   8.658
 2165POPC   C2B29708  12.535  21.736   8.256
 2165POPC   C3B29709  12.518  21.787   7.788
 2165POPC   C4B29710  12.557  21.909   7.337
 2166POPC   NC329711  26.438   8.030   9.514
 2166POPC   PO429712  27.060   8.355   9.597
 2166POPC   GL129713  27.057   8.321   9.173
 2166POPC   GL229714  26.713   8.361   9.174
 2166POPC   C1A29715  26.943   8.077   8.797
 2166POPC   D2A29716  26.954   7.868   8.402
 2166POPC   C3A29717  26.778   7.999   8.042
 2166POPC   C4A29718  27.019   7.896   7.736
 2166POPC   C1B29719  26.841   8.577   8.789
 2166POPC   C2B29720  26.813   8.365   8.420
 2166POPC   C3B29721  26.949   8.464   8.087
 2166POPC   C4B29722  26.849   8.382   7.696
 2167POPC   NC329723  41.239  26.843   9.520
 2167POPC   PO429724  40.529  26.825   9.586
 2167POPC   GL129725  40.810  26.843   9.203
 2167POPC   GL229726  40.816  26.520   9.067
 2167POPC   C1A29727  40.640  26.915   8.760
 2167POPC   D2A29728  40.553  26.732   8.356
 2167POPC   C3A29729  40.670  26.929   8.014
 2167POPC   C4A29730  40.622  27.239   7.694
 2167POPC   C1B29731  40.886  26.456   8.655
 2167POPC   C2B29732  40.734  26.265   8.287
 2167POPC   C3B29733  40.810  26.446   7.889
 2167POPC   C4B29734  40.980  26.590   7.474
 2168POPC   NC329735   5.291  22.205   9.407
 2168POPC   PO429736   4.766  21.742   9.503
 2168POPC   GL129737   4.847  22.004   9.130
 2168POPC   GL229738   4.878  22.366   9.091
 2168POPC   C1A29739   5.067  22.075   8.715
 2168POPC   D2A29740   4.903  22.069   8.270
 2168POPC   C3A29741   5.198  21.959   7.921
 2168POPC   C4A29742   5.392  21.886   7.525
 2168POPC   C1B29743   4.749  22.476   8.635
 2168POPC   C2B29744   4.961  22.592   8.200
 2168POPC   C3B29745   5.112  22.512   7.741
 2168POPC   C4B29746   4.812  22.587   7.339
 2169POPC   NC329747  21.437  14.856   9.373
 2169POPC   PO429748  21.101  14.337   9.641
 2169POPC   GL129749  20.997  14.402   9.181
 2169POPC   GL229750  21.131  14.696   8.983
 2169POPC   C1A29751  21.201  14.224   8.816
 2169POPC   D2A29752  21.375  14.115   8.432
 2169POPC   C3A29753  21.083  14.030   8.105
 2169POPC   C4A29754  21.181  14.178   7.737
 2169POPC   C1B29755  21.552  14.600   8.772
 2169POPC   C2B29756  21.711  14.562   8.366
 2169POPC   C3B29757  21.584  14.452   7.972
 2169POPC   C4B29758  21.741  14.650   7.604
 2170POPC   NC329759   6.384   7.500   9.553
 2170POPC   PO429760   6.837   7.089   9.546
 2170POPC   GL129761   6.643   7.315   9.163
 2170POPC   GL229762   6.453   7.671   9.078
 2170POPC   C1A29763   6.365   7.094   8.902
 2170POPC   D2A29764   6.258   7.058   8.469
 2170POPC   C3A29765   6.590   7.175   8.173
 2170POPC   C4A29766   6.571   7.197   7.730
 2170POPC   C1B29767   6.290   7.959   8.733
 2170POPC   C2B29768   6.138   7.878   8.307
 2170POPC   C3B29769   6.371   7.622   8.017
 2170POPC   C4B29770   6.808   7.637   7.910
 2171POPC   NC329771  27.105  39.021   9.377
 2171POPC   PO429772  27.735  39.140   9.505
 2171POPC   GL129773  27.597  39.124   9.087
 2171POPC   GL229774  27.932  39.214   9.035
 2171POPC   C1A29775  27.629  39.132   8.607
 2171POPC   D2A29776  27.397  39.323   8.253
 2171POPC   C3A29777  27.396  39.094   7.885
 2171POPC   C4A29778  27.792  38.913   7.829
 2171POPC   C1B29779  27.743  39.575   8.855
 2171POPC   C2B29780  27.813  39.622   8.452
 2171POPC   C3B29781  27.911  39.344   8.128
 2171POPC   C4B29782  27.780  39.456   7.752
 2172POPC   NC329783  15.098  21.828   9.940
 2172POPC   PO429784  15.222  21.308   9.564
 2172POPC   GL129785  15.113  21.388   9.115
 2172POPC   GL229786  15.344  21.166   9.040
 2172POPC   C1A29787  15.265  21.602   8.693
 2172POPC   D2A29788  15.324  21.785   8.249
 2172POPC   C3A29789  15.385  21.566   7.825
 2172POPC   C4A29790  15.096  21.582   7.449
 2172POPC   C1B29791  15.187  21.118   8.606
 2172POPC   C2B29792  15.239  21.258   8.192
 2172POPC   C3B29793  14.894  21.353   7.880
 2172POPC   C4B29794  14.768  21.156   7.435
 2173POPC   NC329795  17.288  12.350   9.621
 2173POPC   PO429796  17.599  11.730   9.478
 2173POPC   GL129797  17.406  11.997   9.199
 2173POPC   GL229798  17.565  12.330   9.165
 2173POPC   C1A29799  17.486  11.963   8.779
 2173POPC   D2A29800  17.320  11.943   8.386
 2173POPC   C3A29801  17.450  12.186   8.067
 2173POPC   C4A29802  17.540  11.917   7.754
 2173POPC   C1B29803  17.841  12.315   8.806
 2173POPC   C2B29804  17.842  12.113   8.419
 2173POPC   C3B29805  17.943  12.195   8.003
 2173POPC   C4B29806  17.774  12.366   7.661
 2174POPC   NC329807   3.567  44.460   9.595
 2174POPC   PO429808   3.426   0.131   9.555
 2174POPC   GL129809   3.547  44.813   9.224
 2174POPC   GL229810   3.303  44.539   9.171
 2174POPC   C1A29811   3.726  44.647   8.822
 2174POPC   D2A29812   3.843  44.868   8.426
 2174POPC   C3A29813   3.695  44.800   7.987
 2174POPC   C4A29814   3.749  44.466   7.677
 2174POPC   C1B29815   3.304  44.363   8.779
 2174POPC   C2B29816   3.380  44.574   8.406
 2174POPC   C3B29817   3.182  44.747   8.045
 2174POPC   C4B29818   3.280  44.690   7.630
 2175POPC   NC329819  11.706   0.577   9.533
 2175POPC   PO429820  12.365   0.484   9.476
 2175POPC   GL129821  12.058   0.416   9.176
 2175POPC   GL229822  11.844   0.143   9.084
 2175POPC   C1A29823  12.228   0.310   8.785
 2175POPC   D2A29824  12.250   0.457   8.400
 2175POPC   C3A29825  12.158   0.232   8.032
 2175POPC   C4A29826  12.276   0.479   7.695
 2175POPC   C1B29827  11.720   0.340   8.686
 2175POPC   C2B29828  11.746   0.467   8.270
 2175POPC   C3B29829  11.691   0.363   7.851
 2175POPC   C4B29830  11.810   0.560   7.481
 2176POPC   NC329831  14.532  35.630   9.441
 2176POPC   PO429832  14.174  35.066   9.457
 2176POPC   GL129833  14.498  35.150   9.144
 2176POPC   GL229834  14.471  35.488   8.981
 2176POPC   C1A29835  14.533  35.100   8.702
 2176POPC   D2A29836  14.314  35.284   8.444
 2176POPC   C3A29837  14.410  35.170   8.071
 2176POPC   C4A29838  14.266  35.297   7.687
 2176POPC   C1B29839  14.696  35.743   8.726
 2176POPC   C2B29840  14.652  35.643   8.314
 2176POPC   C3B29841  14.265  35.679   8.101
 2176POPC   C4B29842  14.313  35.830   7.715
 2177POPC   NC329843  18.021   8.345   9.500
 2177POPC   PO429844  17.943   7.674   9.436
 2177POPC   GL129845  18.160   7.991   9.129
 2177POPC   GL229846  18.459   8.214   9.213
 2177POPC   C1A29847  18.114   8.345   8.806
 2177POPC   D2A29848  17.861   8.501   8.457
 2177POPC   C3A29849  18.071   8.385   8.082
 2177POPC   C4A29850  18.005   8.112   7.714
 2177POPC   C1B29851  18.626   8.389   8.830
 2177POPC   C2B29852  18.432   8.537   8.444
 2177POPC   C3B29853  18.633   8.518   8.065
 2177POPC   C4B29854  18.424   8.450   7.720
 2178POPC   NC329855  26.390  14.703   9.369
 2178POPC   PO429856  25.854  14.292   9.388
 2178POPC   GL129857  25.992  14.547   9.086
 2178POPC   GL229858  25.888  14.845   9.224
 2178POPC   C1A29859  26.160  14.631   8.701
 2178POPC   D2A29860  26.101  14.379   8.340
 2178POPC   C3A29861  26.105  14.481   7.930
 2178POPC   C4A29862  26.409  14.228   7.766
 2178POPC   C1B29863  25.698  14.890   8.806
 2178POPC   C2B29864  25.786  14.814   8.351
 2178POPC   C3B29865  25.640  14.733   7.937
 2178POPC   C4B29866  25.834  14.657   7.513
 2179POPC   NC329867  33.297  34.655   9.589
 2179POPC   PO429868  32.627  34.467   9.599
 2179POPC   GL129869  32.860  34.694   9.289
 2179POPC   GL229870  33.025  34.404   9.202
 2179POPC   C1A29871  33.028  34.773   8.859
 2179POPC   D2A29872  32.772  34.856   8.479
 2179POPC   C3A29873  32.980  34.844   8.093
 2179POPC   C4A29874  32.886  34.788   7.651
 2179POPC   C1B29875  32.940  34.211   8.813
 2179POPC   C2B29876  32.864  34.349   8.394
 2179POPC   C3B29877  32.981  34.339   7.968
 2179POPC   C4B29878  33.158  34.016   7.736
 2180POPC   NC329879  21.872  43.521   9.469
 2180POPC   PO429880  22.264  42.990   9.190
 2180POPC   GL129881  22.080  43.352   9.043
 2180POPC   GL229882  21.727  43.268   9.031
 2180POPC   C1A29883  22.166  43.461   8.650
 2180POPC   D2A29884  21.933  43.409   8.260
 2180POPC   C3A29885  22.114  43.349   7.844
 2180POPC   C4A29886  22.014  43.302   7.413
 2180POPC   C1B29887  21.886  43.047   8.668
 2180POPC   C2B29888  22.157  42.825   8.435
 2180POPC   C3B29889  22.121  42.888   8.033
 2180POPC   C4B29890  21.978  42.836   7.644
 2181POPC   NC329891  43.349  25.322   9.244
 2181POPC   PO429892  43.738  25.252   9.782
 2181POPC   GL129893  43.872  25.305   9.343
 2181POPC   GL229894  43.859  24.996   9.257
 2181POPC   C1A29895  43.903  25.355   8.854
 2181POPC   D2A29896  44.130  25.471   8.466
 2181POPC   C3A29897  44.061  25.195   8.115
 2181POPC   C4A29898  43.836  25.243   7.740
 2181POPC   C1B29899  43.660  24.899   8.845
 2181POPC   C2B29900  43.641  25.087   8.419
 2181POPC   C3B29901  43.684  24.835   8.037
 2181POPC   C4B29902  43.547  24.841   7.616
 2182POPC   NC329903  28.823  28.365   9.559
 2182POPC   PO429904  28.362  28.808   9.545
 2182POPC   GL129905  28.425  28.483   9.184
 2182POPC   GL229906  28.420  28.135   9.203
 2182POPC   C1A29907  28.561  28.273   8.745
 2182POPC   D2A29908  28.395  28.139   8.362
 2182POPC   C3A29909  28.731  28.097   8.062
 2182POPC   C4A29910  28.849  28.391   7.747
 2182POPC   C1B29911  28.099  28.119   8.894
 2182POPC   C2B29912  27.874  28.150   8.535
 2182POPC   C3B29913  27.933  28.202   8.112
 2182POPC   C4B29914  28.271  28.128   7.833
 2183POPC   NC329915  10.330  40.183   9.404
 2183POPC   PO429916  10.614  39.602   9.556
 2183POPC   GL129917  10.608  39.824   9.160
 2183POPC   GL229918  10.774  40.154   9.109
 2183POPC   C1A29919  10.620  39.724   8.734
 2183POPC   D2A29920  10.469  39.699   8.302
 2183POPC   C3A29921  10.716  39.873   7.944
 2183POPC   C4A29922  10.693  39.881   7.493
 2183POPC   C1B29923  10.522  40.226   8.711
 2183POPC   C2B29924  10.626  40.287   8.250
 2183POPC   C3B29925  10.413  40.257   7.804
 2183POPC   C4B29926  10.200  40.438   7.406
 2184POPC   NC329927  15.428  10.751   9.879
 2184POPC   PO429928  15.873  10.271   9.780
 2184POPC   GL129929  15.682  10.363   9.321
 2184POPC   GL229930  15.836  10.690   9.122
 2184POPC   C1A29931  15.691  10.297   8.842
 2184POPC   D2A29932  15.828  10.559   8.468
 2184POPC   C3A29933  15.643  10.468   8.048
 2184POPC   C4A29934  15.856  10.300   7.679
 2184POPC   C1B29935  16.227  10.598   8.849
 2184POPC   C2B29936  16.386  10.596   8.433
 2184POPC   C3B29937  16.161  10.539   8.044
 2184POPC   C4B29938  16.140  10.711   7.612
 2185POPC   NC329939  42.099  20.907   9.535
 2185POPC   PO429940  42.545  20.423   9.543
 2185POPC   GL129941  42.377  20.498   9.160
 2185POPC   GL229942  42.452  20.860   9.173
 2185POPC   C1A29943  42.527  20.336   8.763
 2185POPC   D2A29944  42.684  20.139   8.400
 2185POPC   C3A29945  42.432  20.233   8.006
 2185POPC   C4A29946  42.225  20.439   7.635
 2185POPC   C1B29947  42.478  20.849   8.724
 2185POPC   C2B29948  42.325  20.619   8.361
 2185POPC   C3B29949  42.183  20.805   7.987
 2185POPC   C4B29950  41.854  20.789   7.669
 2186POPC   NC329951  41.710   4.606   9.407
 2186POPC   PO429952  41.541   5.196   9.563
 2186POPC   GL129953  41.526   5.030   9.159
 2186POPC   GL229954  41.278   4.758   9.205
 2186POPC   C1A29955  41.607   5.271   8.781
 2186POPC   D2A29956  41.993   5.400   8.544
 2186POPC   C3A29957  41.880   5.391   8.101
 2186POPC   C4A29958  41.635   5.340   7.718
 2186POPC   C1B29959  41.090   4.827   8.846
 2186POPC   C2B29960  41.263   4.962   8.474
 2186POPC   C3B29961  41.367   5.096   8.074
 2186POPC   C4B29962  41.554   4.843   7.725
 2187POPC   NC329963  25.107  24.087   9.484
 2187POPC   PO429964  25.543  23.535   9.380
 2187POPC   GL129965  25.426  23.880   9.125
 2187POPC   GL229966  25.126  23.718   9.120
 2187POPC   C1A29967  25.265  23.943   8.694
 2187POPC   D2A29968  25.235  24.165   8.351
 2187POPC   C3A29969  25.360  23.937   7.977
 2187POPC   C4A29970  25.158  23.904   7.574
 2187POPC   C1B29971  25.177  23.433   8.780
 2187POPC   C2B29972  25.081  23.512   8.362
 2187POPC   C3B29973  25.266  23.404   7.988
 2187POPC   C4B29974  25.101  23.418   7.613
 2188POPC   NC329975  35.079   7.124   9.362
 2188POPC   PO429976  35.526   7.606   9.407
 2188POPC   GL129977  35.397   7.447   9.051
 2188POPC   GL229978  35.039   7.552   9.026
 2188POPC   C1A29979  35.579   7.195   8.702
 2188POPC   D2A29980  35.668   6.947   8.336
 2188POPC   C3A29981  35.473   7.147   7.957
 2188POPC   C4A29982  35.388   7.439   7.639
 2188POPC   C1B29983  35.249   7.589   8.600
 2188POPC   C2B29984  35.523   7.554   8.262
 2188POPC   C3B29985  35.572   7.834   7.914
 2188POPC   C4B29986  35.656   7.960   7.460
 2189POPC   NC329987  27.382  12.900   9.550
 2189POPC   PO429988  27.723  12.318   9.429
 2189POPC   GL129989  27.631  12.672   9.143
 2189POPC   GL229990  27.845  12.952   9.243
 2189POPC   C1A29991  27.471  13.022   8.884
 2189POPC   D2A29992  27.350  13.072   8.449
 2189POPC   C3A29993  27.577  12.872   8.101
 2189POPC   C4A29994  27.509  13.008   7.698
 2189POPC   C1B29995  27.973  12.938   8.813
 2189POPC   C2B29996  27.953  12.741   8.428
 2189POPC   C3B29997  27.920  12.491   8.050
 2189POPC   C4B29998  27.922  12.698   7.644
 2190POPC   NC329999  21.746  27.715   9.457
 2190POPC   PO430000  22.396  27.707   9.465
 2190POPC   GL130001  22.406  27.533   9.081
 2190POPC   GL230002  22.091  27.337   9.102
 2190POPC   C1A30003  22.274  27.608   8.685
 2190POPC   D2A30004  22.164  27.474   8.297
 2190POPC   C3A30005  22.458  27.684   8.047
 2190POPC   C4A30006  22.560  27.513   7.726
 2190POPC   C1B30007  21.857  27.259   8.690
 2190POPC   C2B30008  21.666  27.104   8.289
 2190POPC   C3B30009  21.853  27.167   7.906
 2190POPC   C4B30010  22.003  27.588   7.808
 2191POPC   NC330011  29.118  12.100   9.547
 2191POPC   PO430012  29.756  12.311   9.451
 2191POPC   GL130013  29.421  12.164   9.141
 2191POPC   GL230014  29.201  11.827   9.137
 2191POPC   C1A30015  29.114  12.225   8.802
 2191POPC   D2A30016  29.069  12.320   8.365
 2191POPC   C3A30017  29.410  12.158   8.095
 2191POPC   C4A30018  29.413  12.137   7.648
 2191POPC   C1B30019  28.885  11.669   8.828
 2191POPC   C2B30020  28.927  11.813   8.418
 2191POPC   C3B30021  28.941  11.979   8.005
 2191POPC   C4B30022  28.991  11.805   7.635
 2192POPC   NC330023  28.945   5.176   9.489
 2192POPC   PO430024  29.583   4.819   9.455
 2192POPC   GL130025  29.275   4.951   9.124
 2192POPC   GL230026  29.081   5.264   9.020
 2192POPC   C1A30027  29.190   4.863   8.688
 2192POPC   D2A30028  29.455   4.793   8.337
 2192POPC   C3A30029  29.229   4.794   7.987
 2192POPC   C4A30030  28.818   4.876   7.834
 2192POPC   C1B30031  29.037   5.451   8.625
 2192POPC   C2B30032  29.247   5.280   8.265
 2192POPC   C3B30033  29.163   5.272   7.845
 2192POPC   C4B30034  28.816   5.500   7.651
 2193POPC   NC330035   1.809  17.659   9.442
 2193POPC   PO430036   2.392  17.287   9.381
 2193POPC   GL130037   2.140  17.309   9.034
 2193POPC   GL230038   1.926  17.581   8.970
 2193POPC   C1A30039   2.189  17.425   8.595
 2193POPC   D2A30040   1.862  17.550   8.359
 2193POPC   C3A30041   1.917  17.368   7.974
 2193POPC   C4A30042   2.195  17.605   7.744
 2193POPC   C1B30043   1.579  17.816   8.731
 2193POPC   C2B30044   1.529  17.938   8.303
 2193POPC   C3B30045   1.789  17.868   7.967
 2193POPC   C4B30046   1.720  17.737   7.544
 2194POPC   NC330047  10.348  15.324   9.468
 2194POPC   PO430048  10.958  15.077   9.594
 2194POPC   GL130049  10.784  15.048   9.198
 2194POPC   GL230050  10.504  14.853   9.275
 2194POPC   C1A30051  10.653  15.028   8.756
 2194POPC   D2A30052  10.541  15.291   8.406
 2194POPC   C3A30053  10.804  15.176   8.079
 2194POPC   C4A30054  10.807  14.870   7.801
 2194POPC   C1B30055  10.191  14.939   8.943
 2194POPC   C2B30056  10.234  14.822   8.510
 2194POPC   C3B30057  10.259  14.988   8.085
 2194POPC   C4B30058  10.327  14.970   7.647
 2195POPC   NC330059  30.723  32.993   9.608
 2195POPC   PO430060  31.203  32.462   9.518
 2195POPC   GL130061  30.935  32.772   9.187
 2195POPC   GL230062  30.601  32.904   9.141
 2195POPC   C1A30063  30.929  33.067   8.795
 2195POPC   D2A30064  30.880  32.892   8.376
 2195POPC   C3A30065  30.873  33.128   7.975
 2195POPC   C4A30066  30.805  33.317   7.523
 2195POPC   C1B30067  30.452  32.863   8.743
 2195POPC   C2B30068  30.381  32.753   8.337
 2195POPC   C3B30069  30.384  32.950   7.956
 2195POPC   C4B30070  30.628  32.856   7.592
 2196POPC   NC330071  30.479  38.086   9.405
 2196POPC   PO430072  30.960  37.699   9.353
 2196POPC   GL130073  30.740  37.449   9.065
 2196POPC   GL230074  30.399  37.373   9.209
 2196POPC   C1A30075  30.752  37.543   8.624
 2196POPC   D2A30076  30.480  37.739   8.300
 2196POPC   C3A30077  30.767  37.869   7.968
 2196POPC   C4A30078  30.782  37.744   7.531
 2196POPC   C1B30079  30.281  37.416   8.774
 2196POPC   C2B30080  30.425  37.250   8.377
 2196POPC   C3B30081  30.617  37.379   7.947
 2196POPC   C4B30082  30.353  37.450   7.569
 2197POPC   NC330083  11.532   8.729   9.624
 2197POPC   PO430084  11.448   9.368   9.657
 2197POPC   GL130085  11.419   9.221   9.246
 2197POPC   GL230086  11.055   9.223   9.109
 2197POPC   C1A30087  11.456   9.102   8.816
 2197POPC   D2A30088  11.607   9.313   8.452
 2197POPC   C3A30089  11.598   9.156   8.039
 2197POPC   C4A30090  11.237   9.151   7.785
 2197POPC   C1B30091  11.034   9.378   8.654
 2197POPC   C2B30092  10.922   9.371   8.207
 2197POPC   C3B30093  10.713   9.226   7.818
 2197POPC   C4B30094  10.864   8.992   7.429
 2198POPC   NC330095  17.462   7.721   9.468
 2198POPC   PO430096  17.566   8.406   9.576
 2198POPC   GL130097  17.409   8.219   9.206
 2198POPC   GL230098  17.717   8.275   9.084
 2198POPC   C1A30099  17.456   7.943   8.806
 2198POPC   D2A30100  17.782   7.985   8.515
 2198POPC   C3A30101  17.606   8.136   8.138
 2198POPC   C4A30102  17.372   8.069   7.771
 2198POPC   C1B30103  17.492   8.565   8.823
 2198POPC   C2B30104  17.328   8.504   8.395
 2198POPC   C3B30105  17.374   8.627   8.003
 2198POPC   C4B30106  17.664   8.492   7.763
 2199POPC   NC330107  31.824  44.651   9.459
 2199POPC   PO430108  32.421  44.479   9.755
 2199POPC   GL130109  32.440  44.531   9.310
 2199POPC   GL230110  32.228  44.782   9.164
 2199POPC   C1A30111  32.583  44.486   8.883
 2199POPC   D2A30112  32.751  44.441   8.451
 2199POPC   C3A30113  32.414  44.622   8.204
 2199POPC   C4A30114  32.427  44.695   7.782
 2199POPC   C1B30115  32.030  44.888   8.749
 2199POPC   C2B30116  31.741  44.834   8.400
 2199POPC   C3B30117  31.868  44.755   7.966
 2199POPC   C4B30118  32.002  44.438   7.701
 2200POPC   NC330119  16.710  16.569   9.490
 2200POPC   PO430120  16.932  17.223   9.479
 2200POPC   GL130121  16.928  16.886   9.105
 2200POPC   GL230122  16.949  16.477   9.062
 2200POPC   C1A30123  16.664  16.761   8.734
 2200POPC   D2A30124  16.375  16.871   8.393
 2200POPC   C3A30125  16.558  16.946   7.994
 2200POPC   C4A30126  17.010  16.840   7.871
 2200POPC   C1B30127  16.953  16.325   8.627
 2200POPC   C2B30128  16.822  16.526   8.257
 2200POPC   C3B30129  16.675  16.474   7.850
 2200POPC   C4B30130  16.268  16.569   7.706
 2201POPC   NC330131  42.821  14.251   9.602
 2201POPC   PO430132  43.347  14.723   9.656
 2201POPC   GL130133  43.095  14.618   9.334
 2201POPC   GL230134  43.184  14.283   9.239
 2201POPC   C1A30135  43.130  14.706   8.889
 2201POPC   D2A30136  43.166  14.489   8.475
 2201POPC   C3A30137  43.199  14.693   8.074
 2201POPC   C4A30138  43.146  14.673   7.627
 2201POPC   C1B30139  42.990  14.118   8.846
 2201POPC   C2B30140  42.821  14.136   8.401
 2201POPC   C3B30141  42.996  14.220   7.990
 2201POPC   C4B30142  42.815  14.196   7.544
 2202POPC   NC330143  30.448  38.822   9.423
 2202POPC   PO430144  30.959  38.345   9.490
 2202POPC   GL130145  30.699  38.474   9.126
 2202POPC   GL230146  30.817  38.793   9.031
 2202POPC   C1A30147  30.443  38.327   8.745
 2202POPC   D2A30148  30.506  38.238   8.280
 2202POPC   C3A30149  30.885  38.368   8.010
 2202POPC   C4A30150  30.833  38.238   7.584
 2202POPC   C1B30151  30.430  38.826   8.763
 2202POPC   C2B30152  30.299  38.690   8.360
 2202POPC   C3B30153  30.461  38.633   7.934
 2202POPC   C4B30154  30.724  38.736   7.547
 2203POPC   NC330155   6.986   0.785   9.454
 2203POPC   PO430156   6.442   1.230   9.557
 2203POPC   GL130157   6.575   1.316   9.148
 2203POPC   GL230158   6.675   0.996   9.087
 2203POPC   C1A30159   6.520   1.385   8.712
 2203POPC   D2A30160   6.741   1.222   8.355
 2203POPC   C3A30161   6.668   1.416   7.973
 2203POPC   C4A30162   6.554   1.307   7.545
 2203POPC   C1B30163   6.817   0.834   8.696
 2203POPC   C2B30164   6.987   0.772   8.264
 2203POPC   C3B30165   6.795   0.931   7.897
 2203POPC   C4B30166   6.922   0.964   7.451
 2204POPC   NC330167   7.054  43.748   9.399
 2204POPC   PO430168   7.632  43.681   9.587
 2204POPC   GL130169   7.506  43.906   9.213
 2204POPC   GL230170   7.736  44.190   9.208
 2204POPC   C1A30171   7.235  43.894   8.806
 2204POPC   D2A30172   7.014  43.983   8.395
 2204POPC   C3A30173   7.176  43.761   8.007
 2204POPC   C4A30174   7.310  43.929   7.577
 2204POPC   C1B30175   7.729  44.024   8.766
 2204POPC   C2B30176   7.512  43.980   8.390
 2204POPC   C3B30177   7.515  44.143   8.009
 2204POPC   C4B30178   7.783  43.884   7.776
 2205POPC   NC330179  26.051  33.252   9.677
 2205POPC   PO430180  26.339  32.779   9.596
 2205POPC   GL130181  26.008  32.991   9.230
 2205POPC   GL230182  25.982  33.401   9.202
 2205POPC   C1A30183  25.814  32.899   8.769
 2205POPC   D2A30184  25.897  32.763   8.299
 2205POPC   C3A30185  26.145  33.019   7.952
 2205POPC   C4A30186  26.520  33.005   7.638
 2205POPC   C1B30187  25.819  33.399   8.808
 2205POPC   C2B30188  25.924  33.284   8.388
 2205POPC   C3B30189  25.779  33.438   7.994
 2205POPC   C4B30190  25.878  33.313   7.575
 2206POPC   NC330191  34.893  30.470   9.438
 2206POPC   PO430192  35.514  30.327   9.511
 2206POPC   GL130193  35.313  30.463   9.110
 2206POPC   GL230194  35.260  30.823   9.068
 2206POPC   C1A30195  35.267  30.545   8.654
 2206POPC   D2A30196  35.230  30.731   8.217
 2206POPC   C3A30197  35.445  30.519   7.866
 2206POPC   C4A30198  35.285  30.489   7.439
 2206POPC   C1B30199  35.244  31.052   8.638
 2206POPC   C2B30200  34.912  31.145   8.316
 2206POPC   C3B30201  34.918  31.150   7.868
 2206POPC   C4B30202  35.306  30.974   7.726
 2207POPC   NC330203  15.700   9.878   9.614
 2207POPC   PO430204  16.211  10.113   9.291
 2207POPC   GL130205  15.911   9.892   9.138
 2207POPC   GL230206  16.048   9.563   9.210
 2207POPC   C1A30207  15.920   9.799   8.725
 2207POPC   D2A30208  15.898   9.687   8.331
 2207POPC   C3A30209  15.883   9.983   8.070
 2207POPC   C4A30210  16.196   9.910   7.792
 2207POPC   C1B30211  15.690   9.422   8.975
 2207POPC   C2B30212  15.559   9.405   8.545
 2207POPC   C3B30213  15.645   9.301   8.105
 2207POPC   C4B30214  15.745   9.556   7.766
 2208POPC   NC330215  27.490  42.890   9.593
 2208POPC   PO430216  27.880  43.381   9.623
 2208POPC   GL130217  27.665  43.200   9.215
 2208POPC   GL230218  27.547  43.531   9.190
 2208POPC   C1A30219  27.705  42.943   8.772
 2208POPC   D2A30220  27.913  42.811   8.346
 2208POPC   C3A30221  27.724  42.954   7.943
 2208POPC   C4A30222  27.620  43.130   7.519
 2208POPC   C1B30223  27.457  43.383   8.775
 2208POPC   C2B30224  27.429  43.240   8.338
 2208POPC   C3B30225  27.458  43.390   7.915
 2208POPC   C4B30226  27.202  43.458   7.537
 2209POPC   NC330227   3.803  11.333   9.569
 2209POPC   PO430228   3.145  11.197   9.544
 2209POPC   GL130229   3.312  11.058   9.130
 2209POPC   GL230230   3.582  11.249   9.094
 2209POPC   C1A30231   3.144  11.158   8.733
 2209POPC   D2A30232   3.213  11.119   8.329
 2209POPC   C3A30233   3.251  11.325   7.950
 2209POPC   C4A30234   3.526  11.674   7.884
 2209POPC   C1B30235   3.651  11.198   8.659
 2209POPC   C2B30236   3.685  11.263   8.238
 2209POPC   C3B30237   3.741  11.217   7.820
 2209POPC   C4B30238   4.010  11.565   7.700
 2210POPC   NC330239  21.821  35.141   9.387
 2210POPC   PO430240  21.338  35.602   9.555
 2210POPC   GL130241  21.431  35.388   9.153
 2210POPC   GL230242  21.360  34.995   9.119
 2210POPC   C1A30243  21.320  35.377   8.721
 2210POPC   D2A30244  21.289  35.099   8.372
 2210POPC   C3A30245  21.285  35.339   8.006
 2210POPC   C4A30246  21.307  35.450   7.610
 2210POPC   C1B30247  21.653  34.989   8.758
 2210POPC   C2B30248  21.786  35.161   8.369
 2210POPC   C3B30249  21.665  34.955   8.028
 2210POPC   C4B30250  21.616  35.066   7.629
 2211POPC   NC330251  22.507  17.572   9.737
 2211POPC   PO430252  21.899  17.517   9.878
 2211POPC   GL130253  22.063  17.587   9.420
 2211POPC   GL230254  22.340  17.816   9.322
 2211POPC   C1A30255  22.021  17.575   8.953
 2211POPC   D2A30256  21.902  17.821   8.567
 2211POPC   C3A30257  21.914  17.536   8.180
 2211POPC   C4A30258  22.181  17.263   7.920
 2211POPC   C1B30259  22.491  17.778   8.900
 2211POPC   C2B30260  22.369  17.588   8.501
 2211POPC   C3B30261  22.386  17.694   8.077
 2211POPC   C4B30262  22.495  17.726   7.659
 2212POPC   NC330263  32.759   4.412  10.107
 2212POPC   PO430264  33.030   4.525   9.536
 2212POPC   GL130265  32.918   4.549   9.144
 2212POPC   GL230266  33.274   4.617   9.083
 2212POPC   C1A30267  32.643   4.520   8.774
 2212POPC   D2A30268  32.724   4.635   8.325
 2212POPC   C3A30269  32.756   4.270   8.055
 2212POPC   C4A30270  32.808   4.227   7.608
 2212POPC   C1B30271  33.169   4.465   8.686
 2212POPC   C2B30272  33.254   4.343   8.271
 2212POPC   C3B30273  33.144   4.573   7.915
 2212POPC   C4B30274  33.155   4.574   7.450
 2213POPC   NC330275  23.655  41.057   9.455
 2213POPC   PO430276  24.135  40.601   9.521
 2213POPC   GL130277  23.856  40.685   9.177
 2213POPC   GL230278  23.930  41.034   9.024
 2213POPC   C1A30279  23.635  40.649   8.781
 2213POPC   D2A30280  23.778  40.826   8.411
 2213POPC   C3A30281  23.757  40.592   8.047
 2213POPC   C4A30282  23.548  40.636   7.700
 2213POPC   C1B30283  23.517  41.170   8.809
 2213POPC   C2B30284  23.339  41.109   8.391
 2213POPC   C3B30285  23.459  41.083   7.928
 2213POPC   C4B30286  23.325  41.064   7.446
 2214POPC   NC330287  12.477   8.824   9.313
 2214POPC   PO430288  11.962   8.885   9.719
 2214POPC   GL130289  11.906   8.978   9.261
 2214POPC   GL230290  12.121   9.252   9.183
 2214POPC   C1A30291  11.970   9.014   8.772
 2214POPC   D2A30292  12.100   9.204   8.365
 2214POPC   C3A30293  12.101   8.856   8.082
 2214POPC   C4A30294  11.786   8.740   7.776
 2214POPC   C1B30295  12.317   9.407   8.806
 2214POPC   C2B30296  12.600   9.268   8.470
 2214POPC   C3B30297  12.523   9.249   8.040
 2214POPC   C4B30298  12.466   8.944   7.743
 2215POPC   NC330299   2.514  26.718   9.634
 2215POPC   PO430300   3.031  27.082   9.648
 2215POPC   GL130301   2.744  26.950   9.218
 2215POPC   GL230302   2.377  27.090   9.235
 2215POPC   C1A30303   2.872  26.711   8.762
 2215POPC   D2A30304   2.925  26.564   8.299
 2215POPC   C3A30305   2.929  26.814   7.898
 2215POPC   C4A30306   2.824  26.670   7.477
 2215POPC   C1B30307   2.437  26.977   8.803
 2215POPC   C2B30308   2.412  26.769   8.416
 2215POPC   C3B30309   2.389  27.002   8.045
 2215POPC   C4B30310   2.483  26.987   7.636
 2216POPC   NC330311  12.429  25.089   9.449
 2216POPC   PO430312  12.256  25.679   9.589
 2216POPC   GL130313  12.290  25.518   9.168
 2216POPC   GL230314  11.996  25.299   9.216
 2216POPC   C1A30315  12.111  25.498   8.718
 2216POPC   D2A30316  12.149  25.358   8.260
 2216POPC   C3A30317  12.109  25.446   7.810
 2216POPC   C4A30318  12.394  25.476   7.443
 2216POPC   C1B30319  11.965  25.021   8.857
 2216POPC   C2B30320  12.037  24.896   8.421
 2216POPC   C3B30321  12.143  24.899   7.984
 2216POPC   C4B30322  11.854  24.843   7.645
 2217POPC   NC330323  35.576  30.826   9.497
 2217POPC   PO430324  36.290  30.637   9.440
 2217POPC   GL130325  36.150  30.545   9.077
 2217POPC   GL230326  35.813  30.560   9.136
 2217POPC   C1A30327  36.215  30.675   8.675
 2217POPC   D2A30328  36.369  30.463   8.349
 2217POPC   C3A30329  36.203  30.606   7.991
 2217POPC   C4A30330  36.375  30.890   7.702
 2217POPC   C1B30331  35.710  30.769   8.800
 2217POPC   C2B30332  35.727  30.657   8.400
 2217POPC   C3B30333  35.707  30.904   8.081
 2217POPC   C4B30334  35.849  30.886   7.732
 2218POPC   NC330335  26.543  43.318   9.467
 2218POPC   PO430336  27.018  42.850   9.647
 2218POPC   GL130337  27.104  43.013   9.224
 2218POPC   GL230338  26.754  43.038   9.097
 2218POPC   C1A30339  27.161  42.971   8.771
 2218POPC   D2A30340  26.929  43.143   8.433
 2218POPC   C3A30341  27.007  43.016   8.014
 2218POPC   C4A30342  26.772  43.219   7.664
 2218POPC   C1B30343  26.543  42.860   8.730
 2218POPC   C2B30344  26.444  43.017   8.314
 2218POPC   C3B30345  26.527  43.409   8.093
 2218POPC   C4B30346  26.341  43.545   7.691
 2219POPC   NC330347   9.019  39.180   9.545
 2219POPC   PO430348   8.490  39.545   9.379
 2219POPC   GL130349   8.916  39.543   9.199
 2219POPC   GL230350   8.814  39.198   9.069
 2219POPC   C1A30351   9.233  39.403   8.869
 2219POPC   D2A30352   9.105  39.169   8.524
 2219POPC   C3A30353   9.197  39.268   8.106
 2219POPC   C4A30354   9.200  38.955   7.873
 2219POPC   C1B30355   8.738  39.539   8.730
 2219POPC   C2B30356   8.938  39.657   8.349
 2219POPC   C3B30357   8.735  39.485   7.997
 2219POPC   C4B30358   8.733  39.130   7.733
 2220POPC   NC330359   5.173  15.593   9.835
 2220POPC   PO430360   4.805  15.018   9.558
 2220POPC   GL130361   5.018  15.047   9.128
 2220POPC   GL230362   5.204  15.345   9.104
 2220POPC   C1A30363   5.111  15.113   8.675
 2220POPC   D2A30364   5.256  15.063   8.281
 2220POPC   C3A30365   5.064  15.025   7.924
 2220POPC   C4A30366   4.739  14.801   7.744
 2220POPC   C1B30367   5.353  15.592   8.725
 2220POPC   C2B30368   5.209  15.572   8.309
 2220POPC   C3B30369   5.372  15.471   7.910
 2220POPC   C4B30370   5.360  15.201   7.539
 2221POPC   NC330371  44.511  43.796   9.579
 2221POPC   PO430372   0.156  43.616   9.453
 2221POPC   GL130373  44.814  43.827   9.166
 2221POPC   GL230374  44.420  43.878   9.104
 2221POPC   C1A30375  44.685  43.641   8.751
 2221POPC   D2A30376  44.878  43.631   8.376
 2221POPC   C3A30377  44.702  43.692   7.999
 2221POPC   C4A30378  44.896  43.717   7.615
 2221POPC   C1B30379  44.284  43.947   8.704
 2221POPC   C2B30380  44.454  44.012   8.332
 2221POPC   C3B30381  44.242  43.906   7.963
 2221POPC   C4B30382  44.368  43.820   7.574
 2222POPC   NC330383  20.639  14.268   9.536
 2222POPC   PO430384  20.326  14.942   9.461
 2222POPC   GL130385  20.523  14.659   9.125
 2222POPC   GL230386  20.461  14.282   9.076
 2222POPC   C1A30387  20.636  14.550   8.681
 2222POPC   D2A30388  20.953  14.424   8.393
 2222POPC   C3A30389  20.827  14.486   7.942
 2222POPC   C4A30390  20.485  14.588   7.671
 2222POPC   C1B30391  20.730  14.062   8.848
 2222POPC   C2B30392  20.679  13.954   8.437
 2222POPC   C3B30393  20.452  14.178   8.121
 2222POPC   C4B30394  20.547  14.088   7.711
 2223POPC   NC330395  14.163   2.906   9.366
 2223POPC   PO430396  14.788   2.607   9.420
 2223POPC   GL130397  14.540   2.736   9.076
 2223POPC   GL230398  14.227   2.521   9.036
 2223POPC   C1A30399  14.567   2.856   8.650
 2223POPC   D2A30400  14.725   2.909   8.205
 2223POPC   C3A30401  14.482   3.048   7.862
 2223POPC   C4A30402  14.171   3.010   7.526
 2223POPC   C1B30403  14.176   2.438   8.608
 2223POPC   C2B30404  14.222   2.710   8.260
 2223POPC   C3B30405  14.218   2.599   7.842
 2223POPC   C4B30406  14.501   2.630   7.511
 2224POPC   NC330407  39.089  18.006   9.534
 2224POPC   PO430408  39.584  18.434   9.381
 2224POPC   GL130409  39.241  18.255   9.111
 2224POPC   GL230410  38.895  18.248   9.146
 2224POPC   C1A30411  39.121  18.108   8.714
 2224POPC   D2A30412  39.206  18.375   8.400
 2224POPC   C3A30413  39.324  18.271   8.011
 2224POPC   C4A30414  39.497  18.496   7.643
 2224POPC   C1B30415  38.835  18.536   8.811
 2224POPC   C2B30416  38.712  18.373   8.420
 2224POPC   C3B30417  38.816  18.352   8.002
 2224POPC   C4B30418  38.724  18.681   7.706
 2225POPC   NC330419  42.180   1.686   9.508
 2225POPC   PO430420  42.587   2.188   9.403
 2225POPC   GL130421  42.282   2.017   9.128
 2225POPC   GL230422  42.051   2.268   9.154
 2225POPC   C1A30423  42.294   1.824   8.722
 2225POPC   D2A30424  42.603   1.787   8.408
 2225POPC   C3A30425  42.437   1.682   8.026
 2225POPC   C4A30426  42.628   1.804   7.660
 2225POPC   C1B30427  42.313   2.359   8.750
 2225POPC   C2B30428  42.310   2.211   8.321
 2225POPC   C3B30429  42.393   2.178   7.883
 2225POPC   C4B30430  42.191   1.984   7.494
 2226POPC   NC330431  11.889  29.791   9.502
 2226POPC   PO430432  12.436  29.662   9.086
 2226POPC   GL130433  12.010  29.766   9.016
 2226POPC   GL230434  12.005  30.099   9.104
 2226POPC   C1A30435  11.875  29.818   8.633
 2226POPC   D2A30436  12.156  29.525   8.439
 2226POPC   C3A30437  12.240  29.592   8.026
 2226POPC   C4A30438  12.560  29.546   7.734
 2226POPC   C1B30439  12.233  30.227   8.726
 2226POPC   C2B30440  12.223  30.047   8.314
 2226POPC   C3B30441  11.847  29.924   8.101
 2226POPC   C4B30442  11.626  30.202   7.848
 2227POPC   NC330443   0.155  36.608   9.489
 2227POPC   PO430444   0.209  37.277   9.174
 2227POPC   GL130445   0.378  36.850   9.101
 2227POPC   GL230446   0.738  36.749   9.066
 2227POPC   C1A30447   0.391  36.629   8.714
 2227POPC   D2A30448   0.684  36.672   8.367
 2227POPC   C3A30449   0.415  36.690   8.021
 2227POPC   C4A30450   0.475  36.637   7.609
 2227POPC   C1B30451   0.705  37.058   8.715
 2227POPC   C2B30452   0.721  37.202   8.274
 2227POPC   C3B30453   0.475  37.192   7.887
 2227POPC   C4B30454   0.036  37.236   7.988
 2228POPC   NC330455  12.914   0.247   9.476
 2228POPC   PO430456  13.115   0.852   9.400
 2228POPC   GL130457  12.959   0.663   9.060
 2228POPC   GL230458  12.607   0.581   9.025
 2228POPC   C1A30459  12.947   0.731   8.640
 2228POPC   D2A30460  12.747   0.554   8.314
 2228POPC   C3A30461  12.998   0.339   8.024
 2228POPC   C4A30462  12.997   0.498   7.625
 2228POPC   C1B30463  12.735   0.243   8.732
 2228POPC   C2B30464  12.596   0.065   8.319
 2228POPC   C3B30465  12.617   0.050   7.838
 2228POPC   C4B30466  12.547   0.181   7.380
 2229POPC   NC330467  12.546  12.920   9.519
 2229POPC   PO430468  13.256  13.132   9.452
 2229POPC   GL130469  12.957  12.883   9.211
 2229POPC   GL230470  12.701  13.122   9.098
 2229POPC   C1A30471  12.820  12.740   8.812
 2229POPC   D2A30472  12.749  12.959   8.438
 2229POPC   C3A30473  12.953  12.744   8.116
 2229POPC   C4A30474  12.807  12.690   7.712
 2229POPC   C1B30475  12.384  13.071   8.795
 2229POPC   C2B30476  12.250  13.100   8.355
 2229POPC   C3B30477  12.505  13.033   7.964
 2229POPC   C4B30478  12.650  13.195   7.549
 2230POPC   NC330479  20.254  32.706   9.582
 2230POPC   PO430480  20.813  33.205   9.563
 2230POPC   GL130481  20.755  33.097   9.141
 2230POPC   GL230482  20.423  33.081   9.078
 2230POPC   C1A30483  20.805  33.229   8.711
 2230POPC   D2A30484  20.890  32.933   8.384
 2230POPC   C3A30485  20.729  33.080   7.993
 2230POPC   C4A30486  20.939  33.321   7.696
 2230POPC   C1B30487  20.436  32.900   8.654
 2230POPC   C2B30488  20.415  32.753   8.230
 2230POPC   C3B30489  20.242  32.962   7.838
 2230POPC   C4B30490  20.280  32.892   7.349
 2231POPC   NC330491  27.969   5.152   9.516
 2231POPC   PO430492  28.522   4.913   9.506
 2231POPC   GL130493  28.402   5.178   9.195
 2231POPC   GL230494  28.169   4.924   9.108
 2231POPC   C1A30495  28.469   5.167   8.747
 2231POPC   D2A30496  28.778   5.068   8.443
 2231POPC   C3A30497  28.730   5.333   8.127
 2231POPC   C4A30498  28.415   5.168   7.868
 2231POPC   C1B30499  28.000   4.905   8.724
 2231POPC   C2B30500  28.192   4.930   8.330
 2231POPC   C3B30501  27.943   5.104   8.021
 2231POPC   C4B30502  27.985   5.313   7.620
 2232POPC   NC330503  34.820  12.607   9.524
 2232POPC   PO430504  34.340  13.013   9.517
 2232POPC   GL130505  34.392  12.870   9.130
 2232POPC   GL230506  34.732  12.936   9.135
 2232POPC   C1A30507  34.518  12.771   8.697
 2232POPC   D2A30508  34.435  12.941   8.299
 2232POPC   C3A30509  34.316  12.669   7.985
 2232POPC   C4A30510  34.443  12.651   7.550
 2232POPC   C1B30511  34.927  13.073   8.770
 2232POPC   C2B30512  34.954  12.892   8.351
 2232POPC   C3B30513  34.802  12.841   7.914
 2232POPC   C4B30514  34.518  13.120   7.661
 2233POPC   NC330515  10.141  26.146   9.461
 2233POPC   PO430516  10.796  26.182   9.499
 2233POPC   GL130517  10.542  25.911   9.231
 2233POPC   GL230518  10.763  25.687   9.078
 2233POPC   C1A30519  10.350  25.866   8.814
 2233POPC   D2A30520  10.274  25.744   8.389
 2233POPC   C3A30521  10.345  26.094   8.107
 2233POPC   C4A30522  10.533  26.081   7.705
 2233POPC   C1B30523  10.836  26.071   8.842
 2233POPC   C2B30524  10.684  26.247   8.469
 2233POPC   C3B30525  10.851  26.233   8.068
 2233POPC   C4B30526  11.038  26.251   7.656
 2234POPC   NC330527  15.969  28.695   9.401
 2234POPC   PO430528  16.215  29.330   9.535
 2234POPC   GL130529  16.181  29.162   9.156
 2234POPC   GL230530  15.835  29.132   9.095
 2234POPC   C1A30531  16.159  28.995   8.735
 2234POPC   D2A30532  16.389  29.064   8.382
 2234POPC   C3A30533  16.191  29.159   8.056
 2234POPC   C4A30534  16.141  29.030   7.661
 2234POPC   C1B30535  15.644  29.119   8.694
 2234POPC   C2B30536  15.732  28.990   8.230
 2234POPC   C3B30537  15.693  28.838   7.791
 2234POPC   C4B30538  15.685  28.839   7.302
 2235POPC   NC330539  36.474  28.730   9.454
 2235POPC   PO430540  36.667  29.259   9.560
 2235POPC   GL130541  36.789  29.096   9.180
 2235POPC   GL230542  37.169  29.074   9.209
 2235POPC   C1A30543  36.924  29.321   8.823
 2235POPC   D2A30544  37.024  29.172   8.417
 2235POPC   C3A30545  37.207  29.393   8.076
 2235POPC   C4A30546  37.028  29.407   7.679
 2235POPC   C1B30547  37.106  28.830   8.807
 2235POPC   C2B30548  37.178  28.686   8.382
 2235POPC   C3B30549  37.103  28.902   7.983
 2235POPC   C4B30550  37.175  28.948   7.524
 2236POPC   NC330551  15.503  17.857   9.521
 2236POPC   PO430552  15.954  17.339   9.652
 2236POPC   GL130553  15.962  17.515   9.240
 2236POPC   GL230554  16.075  17.182   9.170
 2236POPC   C1A30555  16.009  17.559   8.773
 2236POPC   D2A30556  15.999  17.233   8.427
 2236POPC   C3A30557  16.149  17.368   8.036
 2236POPC   C4A30558  16.097  17.797   7.982
 2236POPC   C1B30559  15.761  17.129   8.884
 2236POPC   C2B30560  15.500  17.128   8.530
 2236POPC   C3B30561  15.529  17.019   8.103
 2236POPC   C4B30562  15.744  17.216   7.744
 2237POPC   NC330563  13.934   9.771   9.591
 2237POPC   PO430564  13.277   9.823   9.491
 2237POPC   GL130565  13.630   9.931   9.196
 2237POPC   GL230566  13.838   9.619   9.115
 2237POPC   C1A30567  13.608  10.083   8.765
 2237POPC   D2A30568  13.376   9.921   8.431
 2237POPC   C3A30569  13.532   9.814   8.040
 2237POPC   C4A30570  13.606   9.971   7.617
 2237POPC   C1B30571  13.812   9.629   8.668
 2237POPC   C2B30572  14.092   9.524   8.322
 2237POPC   C3B30573  13.960   9.566   7.907
 2237POPC   C4B30574  13.577   9.439   7.682
 2238POPC   NC330575  41.340  40.884   9.428
 2238POPC   PO430576  41.783  40.396   9.477
 2238POPC   GL130577  41.641  40.539   9.068
 2238POPC   GL230578  41.298  40.638   8.987
 2238POPC   C1A30579  41.641  40.463   8.612
 2238POPC   D2A30580  41.408  40.653   8.273
 2238POPC   C3A30581  41.624  40.702   7.847
 2238POPC   C4A30582  41.491  40.582   7.397
 2238POPC   C1B30583  41.495  40.954   8.705
 2238POPC   C2B30584  41.464  41.204   8.347
 2238POPC   C3B30585  41.249  41.051   8.018
 2238POPC   C4B30586  41.153  40.814   7.676
 2239POPC   NC330587   1.258  18.234   9.576
 2239POPC   PO430588   0.769  17.996   9.171
 2239POPC   GL130589   1.218  18.056   9.027
 2239POPC   GL230590   1.412  18.368   9.098
 2239POPC   C1A30591   1.233  18.227   8.597
 2239POPC   D2A30592   0.994  18.464   8.271
 2239POPC   C3A30593   0.994  18.233   7.898
 2239POPC   C4A30594   1.309  17.920   7.809
 2239POPC   C1B30595   1.383  18.682   8.785
 2239POPC   C2B30596   1.483  18.690   8.376
 2239POPC   C3B30597   1.459  18.386   8.071
 2239POPC   C4B30598   1.339  18.542   7.677
 2240POPC   NC330599   6.505  16.460   9.760
 2240POPC   PO430600   7.021  16.743   9.481
 2240POPC   GL130601   6.666  16.803   9.206
 2240POPC   GL230602   6.345  16.757   9.331
 2240POPC   C1A30603   6.498  16.959   8.810
 2240POPC   D2A30604   6.671  16.951   8.444
 2240POPC   C3A30605   6.441  16.982   8.094
 2240POPC   C4A30606   6.528  16.802   7.731
 2240POPC   C1B30607   6.280  16.528   8.885
 2240POPC   C2B30608   6.260  16.635   8.448
 2240POPC   C3B30609   6.174  16.474   8.017
 2240POPC   C4B30610   6.255  16.380   7.598
 2241POPC   NC330611   3.092  20.630   9.357
 2241POPC   PO430612   3.702  20.804   9.391
 2241POPC   GL130613   3.568  20.626   9.073
 2241POPC   GL230614   3.715  20.308   9.095
 2241POPC   C1A30615   3.473  20.801   8.705
 2241POPC   D2A30616   3.692  20.780   8.354
 2241POPC   C3A30617   3.498  20.730   7.972
 2241POPC   C4A30618   3.489  20.864   7.570
 2241POPC   C1B30619   3.598  20.296   8.629
 2241POPC   C2B30620   3.638  20.258   8.164
 2241POPC   C3B30621   3.655  20.325   7.695
 2241POPC   C4B30622   3.851  20.246   7.275
 2242POPC   NC330623   9.155  15.363  10.168
 2242POPC   PO430624   8.934  15.146   9.540
 2242POPC   GL130625   9.043  15.200   9.096
 2242POPC   GL230626   9.335  15.422   9.122
 2242POPC   C1A30627   8.918  14.985   8.668
 2242POPC   D2A30628   8.943  14.641   8.336
 2242POPC   C3A30629   8.905  14.810   7.925
 2242POPC   C4A30630   9.080  15.225   7.786
 2242POPC   C1B30631   9.111  15.467   8.691
 2242POPC   C2B30632   8.947  15.516   8.316
 2242POPC   C3B30633   9.134  15.710   7.986
 2242POPC   C4B30634   9.198  15.692   7.567
 2243POPC   NC330635   2.228   9.637   9.596
 2243POPC   PO430636   1.909  10.119   9.343
 2243POPC   GL130637   2.218   9.863   9.061
 2243POPC   GL230638   2.432   9.587   9.131
 2243POPC   C1A30639   2.150   9.659   8.671
 2243POPC   D2A30640   1.850   9.469   8.356
 2243POPC   C3A30641   1.768   9.754   7.998
 2243POPC   C4A30642   1.897   9.767   7.569
 2243POPC   C1B30643   2.512   9.305   8.773
 2243POPC   C2B30644   2.354   9.322   8.357
 2243POPC   C3B30645   2.202   9.474   7.971
 2243POPC   C4B30646   2.137   9.303   7.587
 2244POPC   NC330647  25.623  35.888   9.461
 2244POPC   PO430648  25.135  36.411   9.486
 2244POPC   GL130649  25.286  36.348   9.083
 2244POPC   GL230650  25.323  36.008   9.055
 2244POPC   C1A30651  25.156  36.269   8.646
 2244POPC   D2A30652  25.002  36.422   8.269
 2244POPC   C3A30653  25.141  36.164   7.939
 2244POPC   C4A30654  25.330  36.235   7.525
 2244POPC   C1B30655  25.043  35.754   8.788
 2244POPC   C2B30656  25.093  35.844   8.368
 2244POPC   C3B30657  24.983  35.675   7.998
 2244POPC   C4B30658  25.218  35.750   7.636
 2245POPC   NC330659  40.229  12.612   9.789
 2245POPC   PO430660  39.672  12.981   9.896
 2245POPC   GL130661  39.770  12.845   9.403
 2245POPC   GL230662  39.747  13.151   9.222
 2245POPC   C1A30663  40.053  12.808   8.977
 2245POPC   D2A30664  40.348  12.685   8.643
 2245POPC   C3A30665  40.111  12.658   8.238
 2245POPC   C4A30666  40.068  12.741   7.792
 2245POPC   C1B30667  39.565  12.920   8.867
 2245POPC   C2B30668  39.664  12.620   8.535
 2245POPC   C3B30669  39.586  12.687   8.115
 2245POPC   C4B30670  39.578  12.800   7.715
 2246POPC   NC330671  33.332   5.546   9.670
 2246POPC   PO430672  33.236   6.133   9.543
 2246POPC   GL130673  33.093   5.920   9.202
 2246POPC   GL230674  33.357   5.869   8.969
 2246POPC   C1A30675  32.890   6.104   8.823
 2246POPC   D2A30676  32.615   5.991   8.473
 2246POPC   C3A30677  32.809   6.088   8.085
 2246POPC   C4A30678  32.773   5.984   7.661
 2246POPC   C1B30679  33.363   5.615   8.598
 2246POPC   C2B30680  33.038   5.471   8.300
 2246POPC   C3B30681  33.053   5.610   7.862
 2246POPC   C4B30682  33.361   5.917   7.661
 2247POPC   NC330683  31.988  42.998   9.767
 2247POPC   PO430684  32.372  42.753   9.264
 2247POPC   GL130685  32.166  43.133   9.205
 2247POPC   GL230686  31.872  43.252   9.291
 2247POPC   C1A30687  32.219  43.300   8.832
 2247POPC   D2A30688  32.377  43.061   8.497
 2247POPC   C3A30689  32.294  43.179   8.090
 2247POPC   C4A30690  32.410  43.022   7.700
 2247POPC   C1B30691  31.720  43.369   8.870
 2247POPC   C2B30692  31.882  43.350   8.430
 2247POPC   C3B30693  31.909  43.482   7.986
 2247POPC   C4B30694  31.962  43.231   7.623
 2248POPC   NC330695  32.208  26.493   9.836
 2248POPC   PO430696  32.167  25.939   9.503
 2248POPC   GL130697  32.025  26.068   9.084
 2248POPC   GL230698  31.879  26.395   9.098
 2248POPC   C1A30699  31.962  25.817   8.718
 2248POPC   D2A30700  32.201  25.699   8.385
 2248POPC   C3A30701  32.088  25.904   8.013
 2248POPC   C4A30702  32.365  25.923   7.693
 2248POPC   C1B30703  32.087  26.420   8.677
 2248POPC   C2B30704  32.443  26.507   8.415
 2248POPC   C3B30705  32.443  26.333   8.011
 2248POPC   C4B30706  32.120  26.365   7.722
 2249POPC   NC330707   1.597  40.078   9.520
 2249POPC   PO430708   2.247  39.847   9.520
 2249POPC   GL130709   2.225  40.075   9.160
 2249POPC   GL230710   1.915  40.015   9.129
 2249POPC   C1A30711   2.251  39.958   8.750
 2249POPC   D2A30712   2.237  40.142   8.369
 2249POPC   C3A30713   2.197  39.853   8.037
 2249POPC   C4A30714   2.238  40.114   7.713
 2249POPC   C1B30715   1.878  40.346   8.832
 2249POPC   C2B30716   1.749  40.391   8.403
 2249POPC   C3B30717   1.546  40.156   8.042
 2249POPC   C4B30718   1.756  39.951   7.671
 2250POPC   NC330719   7.593  14.724   9.507
 2250POPC   PO430720   7.219  14.112   9.585
 2250POPC   GL130721   7.292  14.359   9.207
 2250POPC   GL230722   7.143  14.689   9.131
 2250POPC   C1A30723   7.564  14.327   8.817
 2250POPC   D2A30724   7.631  14.563   8.427
 2250POPC   C3A30725   7.578  14.362   8.063
 2250POPC   C4A30726   7.468  14.126   7.738
 2250POPC   C1B30727   7.190  14.680   8.674
 2250POPC   C2B30728   7.083  14.573   8.233
 2250POPC   C3B30729   7.174  14.537   7.781
 2250POPC   C4B30730   7.436  14.540   7.405
 2251POPC   NC330731  44.389  34.347   9.417
 2251POPC   PO430732  44.779  34.855   9.452
 2251POPC   GL130733  44.928  34.703   9.073
 2251POPC   GL230734  44.618  34.556   9.014
 2251POPC   C1A30735  44.966  34.616   8.659
 2251POPC   D2A30736  44.642  34.577   8.411
 2251POPC   C3A30737  44.831  34.621   8.022
 2251POPC   C4A30738  44.601  34.634   7.640
 2251POPC   C1B30739  44.465  34.210   8.790
 2251POPC   C2B30740  44.309  34.178   8.406
 2251POPC   C3B30741  44.468  34.277   8.024
 2251POPC   C4B30742  44.392  34.101   7.660
 2252POPC   NC330743   1.970  44.144   9.369
 2252POPC   PO430744   2.397  43.788   9.697
 2252POPC   GL130745   2.179  43.724   9.187
 2252POPC   GL230746   1.930  43.895   8.927
 2252POPC   C1A30747   2.273  43.584   8.718
 2252POPC   D2A30748   2.208  43.758   8.302
 2252POPC   C3A30749   1.820  43.963   8.192
 2252POPC   C4A30750   1.659  43.865   7.794
 2252POPC   C1B30751   2.309  44.086   8.724
 2252POPC   C2B30752   2.454  44.225   8.339
 2252POPC   C3B30753   2.270  44.158   7.940
 2252POPC   C4B30754   1.852  44.325   7.813
 2253POPC   NC330755   2.635   8.732   9.638
 2253POPC   PO430756   3.156   9.082   9.475
 2253POPC   GL130757   2.915   8.868   9.158
 2253POPC   GL230758   2.756   8.551   9.181
 2253POPC   C1A30759   2.991   9.102   8.775
 2253POPC   D2A30760   2.944   9.391   8.449
 2253POPC   C3A30761   3.012   9.116   8.115
 2253POPC   C4A30762   2.883   9.100   7.725
 2253POPC   C1B30763   2.540   8.762   8.837
 2253POPC   C2B30764   2.644   8.919   8.445
 2253POPC   C3B30765   2.508   8.985   8.034
 2253POPC   C4B30766   2.431   8.877   7.634
 2254POPC   NC330767  22.553  20.239   9.367
 2254POPC   PO430768  22.869  20.877   9.517
 2254POPC   GL130769  22.994  20.734   9.098
 2254POPC   GL230770  23.197  20.424   9.055
 2254POPC   C1A30771  22.939  20.652   8.666
 2254POPC   D2A30772  22.717  20.468   8.322
 2254POPC   C3A30773  22.737  20.808   8.050
 2254POPC   C4A30774  22.928  20.835   7.672
 2254POPC   C1B30775  23.464  20.652   8.789
 2254POPC   C2B30776  23.352  20.670   8.359
 2254POPC   C3B30777  23.186  20.494   7.995
 2254POPC   C4B30778  23.423  20.733   7.695
 2255POPC   NC330779  42.173  40.127   9.366
 2255POPC   PO430780  42.656  40.393   9.116
 2255POPC   GL130781  42.509  39.965   8.997
 2255POPC   GL230782  42.161  39.829   8.927
 2255POPC   C1A30783  42.543  39.763   8.605
 2255POPC   D2A30784  42.431  40.034   8.265
 2255POPC   C3A30785  42.348  39.818   7.923
 2255POPC   C4A30786  42.000  39.800   7.718
 2255POPC   C1B30787  42.128  40.226   8.691
 2255POPC   C2B30788  42.085  40.450   8.310
 2255POPC   C3B30789  42.120  40.308   7.889
 2255POPC   C4B30790  41.785  40.263   7.607
 2256POPC   NC330791  24.795  32.347   9.727
 2256POPC   PO430792  25.377  32.260   9.531
 2256POPC   GL130793  25.098  32.126   9.199
 2256POPC   GL230794  25.114  32.449   9.046
 2256POPC   C1A30795  25.103  32.037   8.726
 2256POPC   D2A30796  25.470  31.982   8.429
 2256POPC   C3A30797  25.704  32.182   8.078
 2256POPC   C4A30798  25.653  32.147   7.620
 2256POPC   C1B30799  25.355  32.629   8.716
 2256POPC   C2B30800  25.383  32.505   8.306
 2256POPC   C3B30801  25.222  32.318   7.920
 2256POPC   C4B30802  25.276  32.453   7.506
 2257POPC   NC330803  38.172  33.858   9.583
 2257POPC   PO430804  38.606  33.388   9.486
 2257POPC   GL130805  38.522  33.752   9.206
 2257POPC   GL230806  38.208  33.588   9.159
 2257POPC   C1A30807  38.640  34.061   8.847
 2257POPC   D2A30808  38.448  34.175   8.425
 2257POPC   C3A30809  38.606  33.951   8.093
 2257POPC   C4A30810  38.705  33.671   7.776
 2257POPC   C1B30811  38.198  33.824   8.790
 2257POPC   C2B30812  38.163  33.720   8.391
 2257POPC   C3B30813  38.374  33.463   8.106
 2257POPC   C4B30814  38.252  33.482   7.708
 2258POPC   NC330815  10.066  25.197   9.463
 2258POPC   PO430816  10.756  25.186   9.572
 2258POPC   GL130817  10.586  25.205   9.138
 2258POPC   GL230818  10.297  25.445   9.102
 2258POPC   C1A30819  10.588  25.413   8.697
 2258POPC   D2A30820  10.627  25.347   8.276
 2258POPC   C3A30821  10.685  24.929   8.153
 2258POPC   C4A30822  10.631  24.768   7.760
 2258POPC   C1B30823  10.210  25.069   8.788
 2258POPC   C2B30824  10.212  24.883   8.357
 2258POPC   C3B30825  10.233  25.135   7.964
 2258POPC   C4B30826  10.407  25.595   7.887
 2259POPC   NC330827  31.344  12.435   9.587
 2259POPC   PO430828  31.346  11.753   9.502
 2259POPC   GL130829  31.289  12.089   9.163
 2259POPC   GL230830  31.148  12.433   9.133
 2259POPC   C1A30831  31.429  12.222   8.745
 2259POPC   D2A30832  31.238  12.086   8.379
 2259POPC   C3A30833  31.372  11.892   8.011
 2259POPC   C4A30834  31.659  11.977   7.669
 2259POPC   C1B30835  30.944  12.435   8.755
 2259POPC   C2B30836  31.083  12.605   8.383
 2259POPC   C3B30837  31.010  12.405   8.040
 2259POPC   C4B30838  31.234  12.275   7.691
 2260POPC   NC330839  17.951  40.358   9.555
 2260POPC   PO430840  17.959  41.033   9.498
 2260POPC   GL130841  18.244  40.838   9.214
 2260POPC   GL230842  18.159  40.559   9.122
 2260POPC   C1A30843  18.383  40.947   8.809
 2260POPC   D2A30844  18.237  40.918   8.408
 2260POPC   C3A30845  18.539  40.873   8.087
 2260POPC   C4A30846  18.555  40.661   7.680
 2260POPC   C1B30847  17.951  40.664   8.780
 2260POPC   C2B30848  17.886  40.523   8.379
 2260POPC   C3B30849  18.069  40.661   8.006
 2260POPC   C4B30850  18.090  40.502   7.644
 2261POPC   NC330851  13.510  26.429   9.581
 2261POPC   PO430852  14.084  26.191   9.328
 2261POPC   GL130853  13.636  26.200   9.144
 2261POPC   GL230854  13.423  25.889   9.144
 2261POPC   C1A30855  13.402  26.230   8.761
 2261POPC   D2A30856  13.357  26.059   8.318
 2261POPC   C3A30857  13.746  25.965   8.129
 2261POPC   C4A30858  13.883  26.093   7.730
 2261POPC   C1B30859  13.351  25.717   8.702
 2261POPC   C2B30860  13.421  25.552   8.264
 2261POPC   C3B30861  13.445  25.670   7.824
 2261POPC   C4B30862  13.337  25.429   7.442
 2262POPC   NC330863  13.823  29.786   9.431
 2262POPC   PO430864  13.217  29.413   9.282
 2262POPC   GL130865  13.326  29.852   9.122
 2262POPC   GL230866  13.662  29.934   8.974
 2262POPC   C1A30867  13.271  30.209   8.782
 2262POPC   D2A30868  13.524  30.407   8.466
 2262POPC   C3A30869  13.544  30.200   8.087
 2262POPC   C4A30870  13.352  30.062   7.703
 2262POPC   C1B30871  13.719  29.936   8.533
 2262POPC   C2B30872  14.079  29.857   8.224
 2262POPC   C3B30873  14.223  30.182   7.967
 2262POPC   C4B30874  13.872  30.185   7.699
 2263POPC   NC330875  12.819   5.799   9.489
 2263POPC   PO430876  13.276   5.318   9.504
 2263POPC   GL130877  13.039   5.531   9.143
 2263POPC   GL230878  12.610   5.473   9.174
 2263POPC   C1A30879  12.841   5.780   8.810
 2263POPC   D2A30880  12.985   5.994   8.460
 2263POPC   C3A30881  12.926   5.837   8.044
 2263POPC   C4A30882  12.915   6.046   7.644
 2263POPC   C1B30883  12.390   5.491   8.792
 2263POPC   C2B30884  12.523   5.515   8.356
 2263POPC   C3B30885  12.501   5.588   7.893
 2263POPC   C4B30886  12.584   5.721   7.436
 2264POPC   NC330887  23.245  20.617   9.523
 2264POPC   PO430888  23.859  20.756   9.589
 2264POPC   GL130889  23.807  20.557   9.190
 2264POPC   GL230890  23.612  20.283   9.327
 2264POPC   C1A30891  23.993  20.484   8.759
 2264POPC   D2A30892  23.942  20.271   8.354
 2264POPC   C3A30893  23.748  20.506   8.051
 2264POPC   C4A30894  23.878  20.542   7.633
 2264POPC   C1B30895  23.617  20.166   8.909
 2264POPC   C2B30896  23.455  20.189   8.519
 2264POPC   C3B30897  23.506  20.032   8.113
 2264POPC   C4B30898  23.505  20.211   7.713
 2265POPC   NC330899  26.398  22.312   9.472
 2265POPC   PO430900  25.816  22.022   9.479
 2265POPC   GL130901  25.943  22.319   9.209
 2265POPC   GL230902  26.180  22.093   9.073
 2265POPC   C1A30903  25.872  22.421   8.797
 2265POPC   D2A30904  25.654  22.361   8.431
 2265POPC   C3A30905  25.904  22.185   8.159
 2265POPC   C4A30906  25.942  22.459   7.872
 2265POPC   C1B30907  25.956  21.887   8.737
 2265POPC   C2B30908  26.034  21.699   8.331
 2265POPC   C3B30909  25.885  21.749   7.887
 2265POPC   C4B30910  25.784  21.823   7.424
 2266POPC   NC330911  17.969  12.041   9.522
 2266POPC   PO430912  18.534  12.202   9.283
 2266POPC   GL130913  18.298  11.945   9.051
 2266POPC   GL230914  17.923  11.886   9.057
 2266POPC   C1A30915  18.314  12.073   8.640
 2266POPC   D2A30916  18.283  12.382   8.336
 2266POPC   C3A30917  18.437  12.131   7.995
 2266POPC   C4A30918  18.431  12.237   7.597
 2266POPC   C1B30919  17.993  11.665   8.687
 2266POPC   C2B30920  18.255  11.637   8.325
 2266POPC   C3B30921  18.134  11.722   7.929
 2266POPC   C4B30922  18.022  11.929   7.562
 2267POPC   NC330923   5.229   8.709   9.473
 2267POPC   PO430924   4.630   9.081   9.736
 2267POPC   GL130925   4.861   9.114   9.282
 2267POPC   GL230926   5.225   9.228   9.251
 2267POPC   C1A30927   4.954   8.906   8.846
 2267POPC   D2A30928   4.741   8.707   8.488
 2267POPC   C3A30929   5.042   8.769   8.174
 2267POPC   C4A30930   5.194   9.074   7.890
 2267POPC   C1B30931   5.419   9.160   8.822
 2267POPC   C2B30932   5.450   9.135   8.362
 2267POPC   C3B30933   5.467   9.477   8.057
 2267POPC   C4B30934   5.238   9.592   7.668
 2268POPC   NC330935  40.192  24.861   9.395
 2268POPC   PO430936  40.052  25.523   9.468
 2268POPC   GL130937  39.741  25.476   9.122
 2268POPC   GL230938  39.742  25.113   9.123
 2268POPC   C1A30939  39.795  25.363   8.658
 2268POPC   D2A30940  40.206  25.379   8.450
 2268POPC   C3A30941  40.162  25.509   8.038
 2268POPC   C4A30942  39.853  25.522   7.774
 2268POPC   C1B30943  39.468  24.978   8.783
 2268POPC   C2B30944  39.569  24.877   8.365
 2268POPC   C3B30945  39.931  25.043   8.160
 2268POPC   C4B30946  40.129  25.001   7.782
 2269POPC   NC330947  20.169  26.966   9.468
 2269POPC   PO430948  19.709  26.362   9.469
 2269POPC   GL130949  19.785  26.705   9.224
 2269POPC   GL230950  20.112  26.544   9.171
 2269POPC   C1A30951  19.584  26.938   8.850
 2269POPC   D2A30952  19.377  26.860   8.427
 2269POPC   C3A30953  19.590  27.073   8.093
 2269POPC   C4A30954  19.824  27.100   7.712
 2269POPC   C1B30955  19.853  26.508   8.747
 2269POPC   C2B30956  19.797  26.591   8.272
 2269POPC   C3B30957  19.936  26.618   7.838
 2269POPC   C4B30958  20.256  26.515   7.483
 2270POPC   NC330959  26.376  16.230   9.536
 2270POPC   PO430960  25.955  16.841   9.649
 2270POPC   GL130961  25.994  16.817   9.223
 2270POPC   GL230962  26.016  16.458   9.181
 2270POPC   C1A30963  26.099  17.024   8.850
 2270POPC   D2A30964  26.028  17.056   8.429
 2270POPC   C3A30965  26.269  16.951   8.090
 2270POPC   C4A30966  26.044  16.965   7.698
 2270POPC   C1B30967  25.905  16.554   8.753
 2270POPC   C2B30968  26.070  16.505   8.347
 2270POPC   C3B30969  25.813  16.680   8.046
 2270POPC   C4B30970  25.640  16.646   7.626
 2271POPC   NC330971  20.509  44.727   9.734
 2271POPC   PO430972  20.858  44.167   9.423
 2271POPC   GL130973  20.494  44.493   9.231
 2271POPC   GL230974  20.464  44.888   9.263
 2271POPC   C1A30975  20.368  44.675   8.808
 2271POPC   D2A30976  20.566  44.496   8.429
 2271POPC   C3A30977  20.436  44.399   8.026
 2271POPC   C4A30978  20.601  44.462   7.650
 2271POPC   C1B30979  20.705   0.075   8.953
 2271POPC   C2B30980  20.682  44.986   8.520
 2271POPC   C3B30981  20.677  44.867   8.087
 2271POPC   C4B30982  20.656  44.952   7.663
 2272POPC   NC330983  11.342   4.946   9.582
 2272POPC   PO430984  11.678   5.553   9.417
 2272POPC   GL130985  11.471   5.213   9.087
 2272POPC   GL230986  11.194   4.945   9.094
 2272POPC   C1A30987  11.300   5.153   8.626
 2272POPC   D2A30988  11.421   5.215   8.173
 2272POPC   C3A30989  11.156   5.126   7.833
 2272POPC   C4A30990  11.015   5.419   7.525
 2272POPC   C1B30991  11.451   4.695   8.799
 2272POPC   C2B30992  11.454   4.731   8.338
 2272POPC   C3B30993  11.546   4.518   8.000
 2272POPC   C4B30994  11.316   4.664   7.658
 2273POPC   NC330995  12.657   0.865   9.458
 2273POPC   PO430996  12.970   1.317   9.902
 2273POPC   GL130997  12.920   1.333   9.403
 2273POPC   GL230998  12.605   1.365   9.255
 2273POPC   C1A30999  12.969   1.226   8.925
 2273POPC   D2A31000  12.854   1.219   8.505
 2273POPC   C3A31001  13.003   0.973   8.139
 2273POPC   C4A31002  13.031   0.995   7.672
 2273POPC   C1B31003  12.554   1.526   8.835
 2273POPC   C2B31004  12.409   1.469   8.435
 2273POPC   C3B31005  12.695   1.501   8.123
 2273POPC   C4B31006  12.775   1.410   7.769
 2274POPC   NC331007  30.306  24.867   9.477
 2274POPC   PO431008  29.830  25.311   9.719
 2274POPC   GL131009  29.850  25.209   9.273
 2274POPC   GL231010  29.896  25.499   9.040
 2274POPC   C1A31011  29.772  25.025   8.849
 2274POPC   D2A31012  29.849  25.252   8.445
 2274POPC   C3A31013  29.705  25.091   8.058
 2274POPC   C4A31014  29.781  25.034   7.627
 2274POPC   C1B31015  30.233  25.268   8.809
 2274POPC   C2B31016  30.360  25.252   8.343
 2274POPC   C3B31017  30.158  25.336   7.946
 2274POPC   C4B31018  30.121  25.446   7.525
 2275POPC   NC331019  35.868  33.911   9.527
 2275POPC   PO431020  36.484  34.130   9.431
 2275POPC   GL131021  36.160  34.077   9.105
 2275POPC   GL231022  35.922  33.791   9.051
 2275POPC   C1A31023  36.150  34.009   8.660
 2275POPC   D2A31024  36.291  33.646   8.414
 2275POPC   C3A31025  36.226  33.737   8.003
 2275POPC   C4A31026  36.013  34.089   7.812
 2275POPC   C1B31027  35.955  33.444   8.771
 2275POPC   C2B31028  35.694  33.291   8.446
 2275POPC   C3B31029  35.867  33.371   8.065
 2275POPC   C4B31030  35.818  33.634   7.702
 2276POPC   NC331031  30.187   2.506   9.363
 2276POPC   PO431032  30.159   3.194   9.586
 2276POPC   GL131033  30.097   2.991   9.127
 2276POPC   GL231034  29.817   2.715   9.085
 2276POPC   C1A31035  29.910   2.982   8.671
 2276POPC   D2A31036  29.900   2.795   8.252
 2276POPC   C3A31037  29.941   3.064   7.917
 2276POPC   C4A31038  30.254   2.947   7.638
 2276POPC   C1B31039  29.821   2.490   8.677
 2276POPC   C2B31040  29.564   2.359   8.320
 2276POPC   C3B31041  29.530   2.532   7.939
 2276POPC   C4B31042  29.865   2.615   7.665
 2277POPC   NC331043  37.196  14.796   9.613
 2277POPC   PO431044  36.657  14.394   9.471
 2277POPC   GL131045  36.879  14.266   9.146
 2277POPC   GL231046  36.906  14.624   9.066
 2277POPC   C1A31047  37.059  14.153   8.762
 2277POPC   D2A31048  37.143  14.469   8.461
 2277POPC   C3A31049  37.126  14.325   8.046
 2277POPC   C4A31050  37.158  14.510   7.641
 2277POPC   C1B31051  36.648  14.459   8.716
 2277POPC   C2B31052  36.672  14.536   8.267
 2277POPC   C3B31053  36.669  14.472   7.828
 2277POPC   C4B31054  36.723  14.512   7.388
 2278POPC   NC331055  35.587  27.782   9.371
 2278POPC   PO431056  36.105  27.494   9.645
 2278POPC   GL131057  36.103  27.645   9.222
 2278POPC   GL231058  36.195  28.004   9.173
 2278POPC   C1A31059  36.335  27.664   8.809
 2278POPC   D2A31060  36.284  27.765   8.361
 2278POPC   C3A31061  36.150  27.389   8.126
 2278POPC   C4A31062  36.007  27.327   7.702
 2278POPC   C1B31063  35.871  27.894   8.821
 2278POPC   C2B31064  35.750  27.716   8.426
 2278POPC   C3B31065  35.822  27.769   7.990
 2278POPC   C4B31066  35.664  27.869   7.586
 2279POPC   NC331067  28.134  40.414   9.244
 2279POPC   PO431068  27.504  40.124   9.444
 2279POPC   GL131069  27.717  40.116   9.065
 2279POPC   GL231070  27.975  39.885   9.161
 2279POPC   C1A31071  27.571  40.052   8.628
 2279POPC   D2A31072  27.339  39.839   8.278
 2279POPC   C3A31073  27.372  40.031   7.889
 2279POPC   C4A31074  27.746  40.307   7.759
 2279POPC   C1B31075  28.093  39.983   8.729
 2279POPC   C2B31076  27.998  40.159   8.341
 2279POPC   C3B31077  27.858  39.893   8.022
 2279POPC   C4B31078  28.103  39.847   7.675
 2280POPC   NC331079  42.787  12.266   9.372
 2280POPC   PO431080  42.133  12.202   9.474
 2280POPC   GL131081  42.366  12.108   9.129
 2280POPC   GL231082  42.593  11.837   9.146
 2280POPC   C1A31083  42.271  12.040   8.727
 2280POPC   D2A31084  42.105  12.276   8.372
 2280POPC   C3A31085  42.265  12.000   8.041
 2280POPC   C4A31086  42.356  12.094   7.612
 2280POPC   C1B31087  42.745  11.720   8.723
 2280POPC   C2B31088  42.686  11.669   8.261
 2280POPC   C3B31089  42.699  11.793   7.822
 2280POPC   C4B31090  42.502  11.655   7.415
 2281POPC   NC331091   8.054  21.620   9.883
 2281POPC   PO431092   8.557  21.345   9.495
 2281POPC   GL131093   8.354  21.506   9.145
 2281POPC   GL231094   8.000  21.593   9.236
 2281POPC   C1A31095   8.257  21.381   8.697
 2281POPC   D2A31096   8.082  21.322   8.270
 2281POPC   C3A31097   8.326  21.541   7.969
 2281POPC   C4A31098   8.360  21.519   7.503
 2281POPC   C1B31099   7.760  21.447   8.850
 2281POPC   C2B31100   7.674  21.573   8.417
 2281POPC   C3B31101   7.793  21.621   7.956
 2281POPC   C4B31102   7.970  21.257   7.734
 2282POPC   NC331103  20.612  40.035   9.507
 2282POPC   PO431104  20.977  39.545   9.422
 2282POPC   GL131105  20.836  39.761   9.059
 2282POPC   GL231106  20.882  40.123   9.115
 2282POPC   C1A31107  20.476  39.903   8.786
 2282POPC   D2A31108  20.350  40.205   8.444
 2282POPC   C3A31109  20.468  40.035   8.057
 2282POPC   C4A31110  20.356  39.809   7.698
 2282POPC   C1B31111  20.755  40.339   8.785
 2282POPC   C2B31112  20.866  40.158   8.393
 2282POPC   C3B31113  20.877  40.344   7.997
 2282POPC   C4B31114  20.764  40.165   7.621
 2283POPC   NC331115   8.475  30.569   9.533
 2283POPC   PO431116   7.877  30.995   9.478
 2283POPC   GL131117   8.206  30.838   9.172
 2283POPC   GL231118   8.276  30.500   9.074
 2283POPC   C1A31119   8.211  30.878   8.750
 2283POPC   D2A31120   7.930  30.799   8.416
 2283POPC   C3A31121   8.185  30.756   8.042
 2283POPC   C4A31122   8.253  31.053   7.716
 2283POPC   C1B31123   8.567  30.331   8.764
 2283POPC   C2B31124   8.665  30.413   8.337
 2283POPC   C3B31125   8.615  30.327   7.899
 2283POPC   C4B31126   8.457  30.608   7.617
 2284POPC   NC331127  10.603  43.481   9.642
 2284POPC   PO431128  10.219  44.031   9.671
 2284POPC   GL131129  10.424  43.874   9.267
 2284POPC   GL231130  10.665  43.633   9.170
 2284POPC   C1A31131  10.434  43.914   8.805
 2284POPC   D2A31132  10.403  44.105   8.397
 2284POPC   C3A31133  10.484  43.884   8.050
 2284POPC   C4A31134  10.742  44.096   7.827
 2284POPC   C1B31135  10.848  43.614   8.774
 2284POPC   C2B31136  10.712  43.459   8.384
 2284POPC   C3B31137  10.860  43.545   7.975
 2284POPC   C4B31138  11.050  43.754   7.659
 2285POPC   NC331139   1.297  43.406   9.342
 2285POPC   PO431140   1.120  42.760   9.631
 2285POPC   GL131141   1.148  42.925   9.222
 2285POPC   GL231142   0.868  43.119   9.114
 2285POPC   C1A31143   1.343  43.028   8.812
 2285POPC   D2A31144   1.166  43.136   8.429
 2285POPC   C3A31145   1.311  42.854   8.157
 2285POPC   C4A31146   1.359  43.013   7.812
 2285POPC   C1B31147   0.935  43.430   8.777
 2285POPC   C2B31148   0.907  43.583   8.342
 2285POPC   C3B31149   0.917  43.311   7.969
 2285POPC   C4B31150   1.110  43.400   7.556
 2286POPC   NC331151  25.566  17.017   9.460
 2286POPC   PO431152  25.245  17.623   9.481
 2286POPC   GL131153  25.232  17.614   9.076
 2286POPC   GL231154  25.346  17.283   9.075
 2286POPC   C1A31155  25.112  17.498   8.680
 2286POPC   D2A31156  24.780  17.407   8.407
 2286POPC   C3A31157  25.079  17.576   8.112
 2286POPC   C4A31158  25.286  17.474   7.726
 2286POPC   C1B31159  25.588  17.172   8.717
 2286POPC   C2B31160  25.625  17.342   8.296
 2286POPC   C3B31161  25.492  17.059   7.926
 2286POPC   C4B31162  25.575  17.136   7.465
 2287POPC   NC331163  37.351  33.442   9.565
 2287POPC   PO431164  37.735  32.840   9.490
 2287POPC   GL131165  37.540  33.138   9.213
 2287POPC   GL231166  37.840  33.252   9.189
 2287POPC   C1A31167  37.354  33.193   8.818
 2287POPC   D2A31168  37.572  33.101   8.443
 2287POPC   C3A31169  37.446  33.137   8.031
 2287POPC   C4A31170  37.575  32.939   7.642
 2287POPC   C1B31171  37.828  33.459   8.802
 2287POPC   C2B31172  37.658  33.608   8.421
 2287POPC   C3B31173  37.762  33.581   7.982
 2287POPC   C4B31174  37.775  33.411   7.541
 2288POPC   NC331175  18.493  19.726   9.451
 2288POPC   PO431176  17.987  19.434   9.740
 2288POPC   GL131177  18.127  19.482   9.228
 2288POPC   GL231178  18.130  19.841   9.096
 2288POPC   C1A31179  18.423  19.537   8.826
 2288POPC   D2A31180  18.133  19.768   8.534
 2288POPC   C3A31181  18.089  19.672   8.097
 2288POPC   C4A31182  18.022  19.856   7.714
 2288POPC   C1B31183  18.449  20.032   8.818
 2288POPC   C2B31184  18.392  20.308   8.480
 2288POPC   C3B31185  18.278  20.164   8.088
 2288POPC   C4B31186  18.497  20.111   7.722
 2289POPC   NC331187  10.372  37.428   9.642
 2289POPC   PO431188  10.737  37.844   9.421
 2289POPC   GL131189  10.410  37.794   9.139
 2289POPC   GL231190  10.268  38.101   9.062
 2289POPC   C1A31191  10.457  37.722   8.694
 2289POPC   D2A31192  10.710  37.639   8.339
 2289POPC   C3A31193  10.620  37.611   7.878
 2289POPC   C4A31194  10.946  37.522   7.553
 2289POPC   C1B31195  10.150  38.112   8.612
 2289POPC   C2B31196  10.261  37.868   8.202
 2289POPC   C3B31197  10.346  38.055   7.798
 2289POPC   C4B31198  10.143  38.163   7.438
 2290POPC   NC331199   5.088  24.031   9.342
 2290POPC   PO431200   4.749  24.524   9.650
 2290POPC   GL131201   4.984  24.533   9.229
 2290POPC   GL231202   5.354  24.540   9.256
 2290POPC   C1A31203   5.049  24.387   8.774
 2290POPC   D2A31204   5.307  24.153   8.440
 2290POPC   C3A31205   5.291  24.311   8.012
 2290POPC   C4A31206   4.968  24.536   7.807
 2290POPC   C1B31207   5.422  24.725   8.843
 2290POPC   C2B31208   5.244  24.693   8.413
 2290POPC   C3B31209   5.373  24.840   8.015
 2290POPC   C4B31210   5.363  25.002   7.606
 2291POPC   NC331211   0.470   3.709   9.592
 2291POPC   PO431212   0.652   3.077   9.461
 2291POPC   GL131213   0.415   3.397   9.206
 2291POPC   GL231214   0.613   3.731   9.116
 2291POPC   C1A31215   0.255   3.492   8.807
 2291POPC   D2A31216   0.395   3.239   8.474
 2291POPC   C3A31217   0.401   3.336   8.049
 2291POPC   C4A31218   0.628   3.049   7.811
 2291POPC   C1B31219   0.733   3.883   8.718
 2291POPC   C2B31220   0.615   3.716   8.324
 2291POPC   C3B31221   0.601   3.770   7.884
 2291POPC   C4B31222   0.360   4.032   7.608
 2292POPC   NC331223  40.943   2.560   9.360
 2292POPC   PO431224  41.221   3.142   9.454
 2292POPC   GL131225  41.064   2.985   9.067
 2292POPC   GL231226  40.703   2.904   9.061
 2292POPC   C1A31227  40.966   3.072   8.643
 2292POPC   D2A31228  40.855   2.845   8.270
 2292POPC   C3A31229  40.806   3.051   7.889
 2292POPC   C4A31230  40.537   3.090   7.516
 2292POPC   C1B31231  40.868   2.577   8.745
 2292POPC   C2B31232  41.023   2.366   8.358
 2292POPC   C3B31233  40.979   2.463   7.936
 2292POPC   C4B31234  40.677   2.606   7.650
 2293POPC   NC331235  34.098   8.991   9.587
 2293POPC   PO431236  33.586   9.303   9.352
 2293POPC   GL131237  33.743   8.964   9.100
 2293POPC   GL231238  34.092   8.907   9.098
 2293POPC   C1A31239  33.526   8.799   8.744
 2293POPC   D2A31240  33.666   8.638   8.365
 2293POPC   C3A31241  33.627   8.885   7.999
 2293POPC   C4A31242  33.803   9.119   7.688
 2293POPC   C1B31243  34.031   8.702   8.737
 2293POPC   C2B31244  34.098   8.882   8.354
 2293POPC   C3B31245  34.137   8.720   7.961
 2293POPC   C4B31246  34.136   8.775   7.504
 2294POPC   NC331247   2.485  13.425   9.442
 2294POPC   PO431248   3.066  13.816   9.459
 2294POPC   GL131249   2.873  13.612   9.141
 2294POPC   GL231250   2.598  13.843   9.147
 2294POPC   C1A31251   2.833  13.410   8.740
 2294POPC   D2A31252   2.743  13.623   8.345
 2294POPC   C3A31253   2.854  13.378   8.024
 2294POPC   C4A31254   2.981  13.463   7.668
 2294POPC   C1B31255   2.391  13.714   8.754
 2294POPC   C2B31256   2.252  13.762   8.311
 2294POPC   C3B31257   2.457  13.721   7.900
 2294POPC   C4B31258   2.604  13.745   7.470
 2295POPC   NC331259  44.768  13.393   9.719
 2295POPC   PO431260  44.435  13.890   9.441
 2295POPC   GL131261  44.762  13.647   9.231
 2295POPC   GL231262  44.654  13.266   9.232
 2295POPC   C1A31263  44.850  13.816   8.812
 2295POPC   D2A31264  44.576  13.776   8.435
 2295POPC   C3A31265  44.746  13.885   8.018
 2295POPC   C4A31266  44.589  13.732   7.638
 2295POPC   C1B31267  44.580  13.377   8.797
 2295POPC   C2B31268  44.829  13.340   8.420
 2295POPC   C3B31269  44.662  13.364   8.016
 2295POPC   C4B31270  44.905  13.291   7.664
 2296POPC   NC331271   9.598   0.957   9.572
 2296POPC   PO431272   9.879   1.555   9.532
 2296POPC   GL131273   9.693   1.413   9.145
 2296POPC   GL231274   9.559   1.093   9.068
 2296POPC   C1A31275   9.842   1.475   8.763
 2296POPC   D2A31276  10.060   1.344   8.444
 2296POPC   C3A31277   9.819   1.396   8.089
 2296POPC   C4A31278   9.885   1.394   7.653
 2296POPC   C1B31279   9.893   0.964   8.791
 2296POPC   C2B31280   9.784   0.909   8.358
 2296POPC   C3B31281   9.881   0.911   7.918
 2296POPC   C4B31282   9.574   0.855   7.562
 2297POPC   NC331283  26.982  34.958   9.558
 2297POPC   PO431284  26.799  35.603   9.476
 2297POPC   GL131285  26.999  35.372   9.192
 2297POPC   GL231286  26.703  35.180   9.177
 2297POPC   C1A31287  27.142  35.305   8.771
 2297POPC   D2A31288  26.993  35.249   8.364
 2297POPC   C3A31289  27.224  35.348   7.984
 2297POPC   C4A31290  26.953  35.364   7.629
 2297POPC   C1B31291  26.646  35.438   8.800
 2297POPC   C2B31292  26.512  35.486   8.366
 2297POPC   C3B31293  26.551  35.701   7.966
 2297POPC   C4B31294  26.485  35.604   7.535
 2298POPC   NC331295  30.273   2.946   9.972
 2298POPC   PO431296  30.709   2.745   9.482
 2298POPC   GL131297  30.591   2.734   9.085
 2298POPC   GL231298  30.861   2.975   9.017
 2298POPC   C1A31299  30.329   2.716   8.723
 2298POPC   D2A31300  30.411   2.881   8.292
 2298POPC   C3A31301  30.413   2.583   7.975
 2298POPC   C4A31302  30.607   2.545   7.596
 2298POPC   C1B31303  30.794   2.903   8.633
 2298POPC   C2B31304  30.957   2.712   8.316
 2298POPC   C3B31305  31.129   3.010   8.070
 2298POPC   C4B31306  30.763   2.989   7.834
 2299POPC   NC331307   4.971   7.050   9.638
 2299POPC   PO431308   5.306   7.638   9.473
 2299POPC   GL131309   5.140   7.437   9.135
 2299POPC   GL231310   5.384   7.170   9.147
 2299POPC   C1A31311   4.899   7.518   8.765
 2299POPC   D2A31312   4.610   7.594   8.435
 2299POPC   C3A31313   4.846   7.502   8.070
 2299POPC   C4A31314   5.072   7.345   7.714
 2299POPC   C1B31315   5.416   7.362   8.706
 2299POPC   C2B31316   5.323   7.460   8.279
 2299POPC   C3B31317   5.534   7.291   7.942
 2299POPC   C4B31318   5.518   7.123   7.574
 2300POPC   NC331319  15.160  33.463   9.223
 2300POPC   PO431320  15.382  32.933   9.587
 2300POPC   GL131321  15.228  32.843   9.180
 2300POPC   GL231322  14.910  33.025   9.105
 2300POPC   C1A31323  15.305  32.983   8.764
 2300POPC   D2A31324  15.088  33.081   8.386
 2300POPC   C3A31325  15.385  33.077   8.078
 2300POPC   C4A31326  15.359  33.133   7.655
 2300POPC   C1B31327  14.803  32.787   8.751
 2300POPC   C2B31328  14.641  32.834   8.338
 2300POPC   C3B31329  14.745  33.054   7.944
 2300POPC   C4B31330  14.927  32.828   7.602
 2301POPC   NC331331  36.924  34.307   9.464
 2301POPC   PO431332  36.643  34.969   9.436
 2301POPC   GL131333  36.676  34.677   9.136
 2301POPC   GL231334  37.030  34.645   9.104
 2301POPC   C1A31335  36.723  34.757   8.690
 2301POPC   D2A31336  36.658  34.870   8.256
 2301POPC   C3A31337  36.813  34.581   7.934
 2301POPC   C4A31338  36.688  34.590   7.522
 2301POPC   C1B31339  37.021  34.331   8.802
 2301POPC   C2B31340  36.971  34.398   8.377
 2301POPC   C3B31341  37.050  34.131   8.028
 2301POPC   C4B31342  37.073  34.241   7.602
 2302POPC   NC331343  41.024   5.803   9.474
 2302POPC   PO431344  40.609   6.367   9.447
 2302POPC   GL131345  40.831   6.108   9.111
 2302POPC   GL231346  40.780   5.712   9.056
 2302POPC   C1A31347  40.746   6.035   8.665
 2302POPC   D2A31348  40.593   5.879   8.261
 2302POPC   C3A31349  40.874   5.969   7.937
 2302POPC   C4A31350  41.072   6.088   7.568
 2302POPC   C1B31351  40.531   5.558   8.714
 2302POPC   C2B31352  40.419   5.395   8.302
 2302POPC   C3B31353  40.421   5.567   7.854
 2302POPC   C4B31354  40.757   5.667   7.545
 2303POPC   NC331355   9.340  44.517   9.395
 2303POPC   PO431356   8.641  44.511   9.464
 2303POPC   GL131357   8.715  44.667   9.093
 2303POPC   GL231358   8.845   0.010   9.183
 2303POPC   C1A31359   8.796  44.431   8.721
 2303POPC   D2A31360   8.630  44.445   8.321
 2303POPC   C3A31361   8.926  44.381   7.986
 2303POPC   C4A31362   8.868  44.557   7.588
 2303POPC   C1B31363   9.092  44.860   8.800
 2303POPC   C2B31364   9.126  44.679   8.372
 2303POPC   C3B31365   9.091  44.860   7.955
 2303POPC   C4B31366   9.211  44.903   7.485
 2304POPC   NC331367  40.033  28.126   9.426
 2304POPC   PO431368  39.868  28.759   9.456
 2304POPC   GL131369  39.791  28.478   9.114
 2304POPC   GL231370  39.634  28.112   9.098
 2304POPC   C1A31371  40.067  28.332   8.792
 2304POPC   D2A31372  40.247  28.379   8.391
 2304POPC   C3A31373  40.126  28.087   8.068
 2304POPC   C4A31374  40.204  28.279   7.671
 2304POPC   C1B31375  39.561  28.281   8.700
 2304POPC   C2B31376  39.761  28.624   8.461
 2304POPC   C3B31377  39.891  28.560   8.049
 2304POPC   C4B31378  39.708  28.334   7.725
 2305POPC   NC331379  19.897  34.324   9.416
 2305POPC   PO431380  19.997  33.631   9.394
 2305POPC   GL131381  19.735  33.744   9.048
 2305POPC   GL231382  19.668  34.092   9.029
 2305POPC   C1A31383  19.757  33.826   8.605
 2305POPC   D2A31384  19.995  33.679   8.293
 2305POPC   C3A31385  19.711  33.764   7.979
 2305POPC   C4A31386  19.926  33.637   7.608
 2305POPC   C1B31387  20.004  34.246   8.757
 2305POPC   C2B31388  20.063  34.166   8.318
 2305POPC   C3B31389  20.082  34.069   7.884
 2305POPC   C4B31390  20.077  34.117   7.416
 2306POPC   NC331391  34.304  43.586   9.939
 2306POPC   PO431392  33.737  43.789   9.652
 2306POPC   GL131393  33.845  43.843   9.216
 2306POPC   GL231394  33.581  43.611   9.142
 2306POPC   C1A31395  34.081  44.025   8.857
 2306POPC   D2A31396  34.015  43.996   8.404
 2306POPC   C3A31397  33.654  44.079   8.137
 2306POPC   C4A31398  33.773  43.943   7.714
 2306POPC   C1B31399  33.578  43.855   8.761
 2306POPC   C2B31400  33.654  43.636   8.396
 2306POPC   C3B31401  33.459  43.613   8.004
 2306POPC   C4B31402  33.648  43.440   7.674
 2307POPC   NC331403  23.436  35.405   9.522
 2307POPC   PO431404  24.067  35.476   9.365
 2307POPC   GL131405  23.798  35.362   9.060
 2307POPC   GL231406  23.513  35.620   9.073
 2307POPC   C1A31407  24.047  35.438   8.692
 2307POPC   D2A31408  24.160  35.501   8.274
 2307POPC   C3A31409  23.878  35.334   7.981
 2307POPC   C4A31410  23.938  35.383   7.556
 2307POPC   C1B31411  23.583  35.647   8.643
 2307POPC   C2B31412  23.586  35.277   8.406
 2307POPC   C3B31413  23.373  35.186   8.036
 2307POPC   C4B31414  23.554  35.039   7.677
 2308POPC   NC331415  34.055  24.898   9.587
 2308POPC   PO431416  33.768  25.505   9.534
 2308POPC   GL131417  33.838  25.326   9.104
 2308POPC   GL231418  33.787  24.953   9.163
 2308POPC   C1A31419  33.896  25.479   8.647
 2308POPC   D2A31420  33.984  25.491   8.167
 2308POPC   C3A31421  33.669  25.405   7.830
 2308POPC   C4A31422  33.631  25.608   7.423
 2308POPC   C1B31423  33.679  24.966   8.749
 2308POPC   C2B31424  33.635  25.148   8.383
 2308POPC   C3B31425  33.809  24.977   8.080
 2308POPC   C4B31426  33.571  24.868   7.751
 2309POPC   NC331427   1.970  14.279   9.523
 2309POPC   PO431428   2.250  14.839   9.746
 2309POPC   GL131429   2.062  14.686   9.246
 2309POPC   GL231430   1.753  14.440   9.105
 2309POPC   C1A31431   2.108  14.511   8.763
 2309POPC   D2A31432   2.054  14.262   8.379
 2309POPC   C3A31433   2.086  14.556   8.055
 2309POPC   C4A31434   2.082  14.497   7.634
 2309POPC   C1B31435   1.612  14.656   8.775
 2309POPC   C2B31436   1.597  14.490   8.382
 2309POPC   C3B31437   1.621  14.323   7.985
 2309POPC   C4B31438   1.565  14.488   7.567
 2310POPC   NC331439   2.355   2.795   9.206
 2310POPC   PO431440   2.931   2.597   9.482
 2310POPC   GL131441   2.854   2.859   9.104
 2310POPC   GL231442   2.705   2.568   8.925
 2310POPC   C1A31443   2.950   2.877   8.634
 2310POPC   D2A31444   3.150   2.558   8.360
 2310POPC   C3A31445   3.099   2.690   7.981
 2310POPC   C4A31446   3.157   3.139   8.065
 2310POPC   C1B31447   2.392   2.765   8.579
 2310POPC   C2B31448   2.360   2.962   8.171
 2310POPC   C3B31449   2.597   2.735   7.892
 2310POPC   C4B31450   2.339   2.361   7.906
 2311POPC   NC331451  35.090  25.892   9.451
 2311POPC   PO431452  35.612  26.270   9.545
 2311POPC   GL131453  35.383  26.254   9.158
 2311POPC   GL231454  35.558  25.954   9.115
 2311POPC   C1A31455  35.152  26.077   8.779
 2311POPC   D2A31456  35.084  25.756   8.405
 2311POPC   C3A31457  35.073  25.861   7.957
 2311POPC   C4A31458  34.924  25.721   7.532
 2311POPC   C1B31459  35.635  26.175   8.694
 2311POPC   C2B31460  35.395  26.185   8.294
 2311POPC   C3B31461  35.553  26.047   7.863
 2311POPC   C4B31462  35.687  26.119   7.401
 2312POPC   NC331463  29.597  20.815   9.917
 2312POPC   PO431464  30.141  20.698   9.604
 2312POPC   GL131465  30.097  20.728   9.196
 2312POPC   GL231466  30.188  21.079   9.156
 2312POPC   C1A31467  29.740  20.738   8.924
 2312POPC   D2A31468  29.768  20.818   8.479
 2312POPC   C3A31469  29.610  20.591   8.147
 2312POPC   C4A31470  29.815  20.561   7.758
 2312POPC   C1B31471  30.226  20.918   8.724
 2312POPC   C2B31472  30.228  20.851   8.263
 2312POPC   C3B31473  30.104  21.007   7.847
 2312POPC   C4B31474  30.275  20.787   7.488
 2313POPC   NC331475  30.026  37.204   9.531
 2313POPC   PO431476  29.397  37.107   9.670
 2313POPC   GL131477  29.632  37.101   9.256
 2313POPC   GL231478  29.837  36.787   9.285
 2313POPC   C1A31479  29.869  37.141   8.877
 2313POPC   D2A31480  30.053  36.908   8.564
 2313POPC   C3A31481  29.943  36.857   8.141
 2313POPC   C4A31482  30.089  36.890   7.718
 2313POPC   C1B31483  29.750  36.620   8.877
 2313POPC   C2B31484  29.552  36.692   8.494
 2313POPC   C3B31485  29.430  36.783   8.089
 2313POPC   C4B31486  29.609  36.617   7.744
 2314POPC   NC331487  25.886  15.359   9.575
 2314POPC   PO431488  26.378  15.133   9.198
 2314POPC   GL131489  26.083  15.203   8.907
 2314POPC   GL231490  25.761  15.327   9.078
 2314POPC   C1A31491  26.178  15.123   8.502
 2314POPC   D2A31492  26.371  14.797   8.258
 2314POPC   C3A31493  26.367  14.964   7.868
 2314POPC   C4A31494  25.961  15.092   7.772
 2314POPC   C1B31495  25.834  15.624   8.741
 2314POPC   C2B31496  25.826  15.453   8.334
 2314POPC   C3B31497  25.752  15.605   7.937
 2314POPC   C4B31498  25.851  15.501   7.504
 2315POPC   NC331499  11.455  32.738   9.529
 2315POPC   PO431500  11.254  33.455   9.467
 2315POPC   GL131501  10.967  33.345   9.139
 2315POPC   GL231502  11.030  32.974   9.114
 2315POPC   C1A31503  11.047  33.356   8.697
 2315POPC   D2A31504  11.298  33.144   8.366
 2315POPC   C3A31505  11.141  33.131   7.953
 2315POPC   C4A31506  10.983  32.860   7.638
 2315POPC   C1B31507  11.156  32.757   8.706
 2315POPC   C2B31508  11.350  32.585   8.311
 2315POPC   C3B31509  11.417  32.711   7.878
 2315POPC   C4B31510  11.511  33.061   7.599
 2316POPC   NC331511  25.541   7.084   9.444
 2316POPC   PO431512  25.480   7.642   9.661
 2316POPC   GL131513  25.340   7.615   9.194
 2316POPC   GL231514  25.287   7.307   9.087
 2316POPC   C1A31515  25.213   7.633   8.730
 2316POPC   D2A31516  25.457   7.677   8.333
 2316POPC   C3A31517  25.172   7.638   8.018
 2316POPC   C4A31518  24.881   7.690   7.712
 2316POPC   C1B31519  25.389   7.050   8.779
 2316POPC   C2B31520  25.347   7.161   8.362
 2316POPC   C3B31521  25.405   7.203   7.934
 2316POPC   C4B31522  25.219   7.166   7.497
 2317POPC   NC331523  36.576  27.690   9.487
 2317POPC   PO431524  37.275  27.742   9.589
 2317POPC   GL131525  37.045  27.767   9.209
 2317POPC   GL231526  37.121  27.470   9.001
 2317POPC   C1A31527  36.816  27.876   8.826
 2317POPC   D2A31528  36.982  27.842   8.400
 2317POPC   C3A31529  36.774  27.870   7.987
 2317POPC   C4A31530  37.004  27.581   7.743
 2317POPC   C1B31531  36.770  27.391   8.676
 2317POPC   C2B31532  36.671  27.427   8.224
 2317POPC   C3B31533  36.526  27.437   7.778
 2317POPC   C4B31534  36.770  27.242   7.440
 2318POPC   NC331535  22.474  35.647   9.192
 2318POPC   PO431536  22.941  35.329   9.573
 2318POPC   GL131537  22.947  35.253   9.164
 2318POPC   GL231538  23.244  35.032   9.156
 2318POPC   C1A31539  22.673  35.183   8.783
 2318POPC   D2A31540  22.530  35.485   8.496
 2318POPC   C3A31541  22.671  35.337   8.106
 2318POPC   C4A31542  22.993  35.543   7.858
 2318POPC   C1B31543  23.183  35.163   8.712
 2318POPC   C2B31544  23.118  35.499   8.391
 2318POPC   C3B31545  23.436  35.693   8.121
 2318POPC   C4B31546  23.482  35.539   7.699
 2319POPC   NC331547  23.792  16.365   9.510
 2319POPC   PO431548  23.577  17.013   9.459
 2319POPC   GL131549  23.503  16.695   9.135
 2319POPC   GL231550  23.829  16.497   9.024
 2319POPC   C1A31551  23.460  16.634   8.696
 2319POPC   D2A31552  23.711  16.482   8.380
 2319POPC   C3A31553  23.516  16.655   8.002
 2319POPC   C4A31554  23.525  17.056   7.787
 2319POPC   C1B31555  24.063  16.868   8.899
 2319POPC   C2B31556  24.071  17.003   8.469
 2319POPC   C3B31557  24.009  16.793   8.098
 2319POPC   C4B31558  23.989  16.896   7.706
 2320POPC   NC331559  31.303  11.384   9.763
 2320POPC   PO431560  31.514  10.760   9.580
 2320POPC   GL131561  31.444  11.025   9.195
 2320POPC   GL231562  31.589  11.356   9.256
 2320POPC   C1A31563  31.305  11.065   8.721
 2320POPC   D2A31564  31.320  10.910   8.264
 2320POPC   C3A31565  31.296  11.204   7.977
 2320POPC   C4A31566  31.489  11.508   7.703
 2320POPC   C1B31567  31.382  11.558   8.868
 2320POPC   C2B31568  31.322  11.532   8.421
 2320POPC   C3B31569  31.674  11.493   8.177
 2320POPC   C4B31570  31.960  11.590   7.882
 2321POPC   NC331571  37.569  44.968   9.498
 2321POPC   PO431572  36.877  44.662   9.619
 2321POPC   GL131573  36.824  44.746   9.191
 2321POPC   GL231574  37.054  44.538   9.148
 2321POPC   C1A31575  36.748  44.923   8.767
 2321POPC   D2A31576  36.787   0.106   8.371
 2321POPC   C3A31577  36.846  44.853   8.034
 2321POPC   C4A31578  37.030  44.658   7.695
 2321POPC   C1B31579  36.784  44.406   8.788
 2321POPC   C2B31580  36.909  44.416   8.360
 2321POPC   C3B31581  36.765  44.285   7.969
 2321POPC   C4B31582  36.496  44.577   7.814
 2322POPC   NC331583  19.957   6.403   9.513
 2322POPC   PO431584  19.877   5.729   9.576
 2322POPC   GL131585  19.744   5.855   9.177
 2322POPC   GL231586  19.972   6.067   8.990
 2322POPC   C1A31587  19.670   5.667   8.786
 2322POPC   D2A31588  19.434   5.592   8.409
 2322POPC   C3A31589  19.608   5.860   8.143
 2322POPC   C4A31590  19.841   5.941   7.798
 2322POPC   C1B31591  19.619   6.162   8.685
 2322POPC   C2B31592  19.623   6.402   8.272
 2322POPC   C3B31593  19.453   6.281   7.868
 2322POPC   C4B31594  19.545   6.170   7.416
 2323POPC   NC331595   5.031   8.011   9.526
 2323POPC   PO431596   4.758   8.622   9.377
 2323POPC   GL131597   5.094   8.356   9.118
 2323POPC   GL231598   5.253   7.996   9.084
 2323POPC   C1A31599   5.101   8.345   8.661
 2323POPC   D2A31600   5.393   8.378   8.321
 2323POPC   C3A31601   5.214   8.364   7.945
 2323POPC   C4A31602   4.805   8.295   7.937
 2323POPC   C1B31603   5.262   7.858   8.688
 2323POPC   C2B31604   5.086   7.937   8.290
 2323POPC   C3B31605   5.158   7.852   7.870
 2323POPC   C4B31606   4.851   7.768   7.558
 2324POPC   NC331607   3.722  41.235   9.422
 2324POPC   PO431608   3.311  41.743   9.614
 2324POPC   GL131609   3.535  41.787   9.235
 2324POPC   GL231610   3.883  41.681   9.229
 2324POPC   C1A31611   3.407  41.806   8.808
 2324POPC   D2A31612   3.297  41.560   8.443
 2324POPC   C3A31613   3.470  41.431   8.035
 2324POPC   C4A31614   3.284  41.754   7.748
 2324POPC   C1B31615   3.904  41.762   8.807
 2324POPC   C2B31616   3.780  41.722   8.411
 2324POPC   C3B31617   3.672  41.884   8.052
 2324POPC   C4B31618   3.835  41.793   7.662
 2325POPC   NC331619  29.935  25.706   9.493
 2325POPC   PO431620  30.087  26.418   9.476
 2325POPC   GL131621  29.825  26.142   9.236
 2325POPC   GL231622  30.132  25.999   9.097
 2325POPC   C1A31623  29.680  25.959   8.849
 2325POPC   D2A31624  29.847  26.152   8.522
 2325POPC   C3A31625  29.815  26.104   8.107
 2325POPC   C4A31626  29.898  26.197   7.700
 2325POPC   C1B31627  30.191  25.780   8.710
 2325POPC   C2B31628  30.119  25.718   8.281
 2325POPC   C3B31629  30.259  25.886   7.881
 2325POPC   C4B31630  30.255  25.947   7.416
 2326POPC   NC331631  16.057  28.385   9.972
 2326POPC   PO431632  15.899  28.231   9.313
 2326POPC   GL131633  15.768  28.293   8.965
 2326POPC   GL231634  15.628  28.640   9.037
 2326POPC   C1A31635  16.044  28.237   8.606
 2326POPC   D2A31636  16.277  28.574   8.419
 2326POPC   C3A31637  16.139  28.644   8.011
 2326POPC   C4A31638  16.004  28.301   7.773
 2326POPC   C1B31639  15.687  28.625   8.594
 2326POPC   C2B31640  15.732  28.411   8.221
 2326POPC   C3B31641  15.508  28.356   7.870
 2326POPC   C4B31642  15.351  28.551   7.550
 2327POPC   NC331643   5.565  42.973   9.630
 2327POPC   PO431644   5.027  43.307   9.642
 2327POPC   GL131645   5.088  43.095   9.224
 2327POPC   GL231646   5.283  42.813   9.179
 2327POPC   C1A31647   5.024  43.181   8.782
 2327POPC   D2A31648   5.245  43.050   8.448
 2327POPC   C3A31649   5.052  43.093   8.130
 2327POPC   C4A31650   5.042  43.341   7.814
 2327POPC   C1B31651   5.475  42.726   8.787
 2327POPC   C2B31652   5.718  42.836   8.435
 2327POPC   C3B31653   5.521  42.704   8.062
 2327POPC   C4B31654   5.291  42.827   7.707
 2328POPC   NC331655  39.436   7.514   9.690
 2328POPC   PO431656  39.804   6.960   9.466
 2328POPC   GL131657  39.448   7.223   9.267
 2328POPC   GL231658  39.473   7.619   9.209
 2328POPC   C1A31659  39.158   7.330   8.909
 2328POPC   D2A31660  39.084   7.165   8.494
 2328POPC   C3A31661  39.165   7.390   8.110
 2328POPC   C4A31662  39.527   7.323   7.860
 2328POPC   C1B31663  39.409   7.805   8.840
 2328POPC   C2B31664  39.154   7.794   8.485
 2328POPC   C3B31665  39.271   7.917   8.085
 2328POPC   C4B31666  39.274   7.727   7.682
 2329POPC   NC331667  42.804  18.584   9.452
 2329POPC   PO431668  43.194  19.181   9.500
 2329POPC   GL131669  43.317  18.971   9.154
 2329POPC   GL231670  42.954  18.948   9.092
 2329POPC   C1A31671  43.405  18.865   8.745
 2329POPC   D2A31672  43.556  18.698   8.340
 2329POPC   C3A31673  43.384  18.949   8.011
 2329POPC   C4A31674  43.456  19.160   7.653
 2329POPC   C1B31675  42.905  18.799   8.677
 2329POPC   C2B31676  43.035  18.685   8.267
 2329POPC   C3B31677  42.920  18.792   7.853
 2329POPC   C4B31678  42.581  18.951   7.618
 2330POPC   NC331679  13.245  41.937   9.672
 2330POPC   PO431680  12.599  42.290   9.608
 2330POPC   GL131681  12.584  42.405   9.208
 2330POPC   GL231682  12.457  42.074   9.118
 2330POPC   C1A31683  12.871  42.288   8.881
 2330POPC   D2A31684  12.791  42.342   8.454
 2330POPC   C3A31685  12.997  42.149   8.139
 2330POPC   C4A31686  13.132  42.391   7.836
 2330POPC   C1B31687  12.365  42.275   8.744
 2330POPC   C2B31688  12.273  42.371   8.337
 2330POPC   C3B31689  12.536  42.423   8.001
 2330POPC   C4B31690  12.333  42.337   7.639
 2331POPC   NC331691  44.537  16.516   9.347
 2331POPC   PO431692  44.304  17.058   9.540
 2331POPC   GL131693  44.354  16.954   9.121
 2331POPC   GL231694  44.699  16.901   9.077
 2331POPC   C1A31695  44.387  16.713   8.723
 2331POPC   D2A31696  44.529  16.565   8.311
 2331POPC   C3A31697  44.521  16.817   7.941
 2331POPC   C4A31698  44.430  16.856   7.487
 2331POPC   C1B31699  44.901  16.669   8.741
 2331POPC   C2B31700   0.034  16.681   8.310
 2331POPC   C3B31701   0.000  16.592   7.907
 2331POPC   C4B31702  44.716  16.452   7.587
 2332POPC   NC331703  16.718   7.034   9.544
 2332POPC   PO431704  16.507   6.399   9.490
 2332POPC   GL131705  16.770   6.646   9.184
 2332POPC   GL231706  17.082   6.432   9.123
 2332POPC   C1A31707  16.828   6.904   8.769
 2332POPC   D2A31708  17.068   6.950   8.363
 2332POPC   C3A31709  16.729   6.926   8.093
 2332POPC   C4A31710  16.682   6.851   7.658
 2332POPC   C1B31711  16.838   6.388   8.755
 2332POPC   C2B31712  16.801   6.493   8.365
 2332POPC   C3B31713  16.899   6.471   7.974
 2332POPC   C4B31714  16.756   6.329   7.610
 2333POPC   NC331715  40.706  23.345   9.507
 2333POPC   PO431716  40.887  23.987   9.537
 2333POPC   GL131717  40.939  23.704   9.216
 2333POPC   GL231718  40.577  23.662   9.141
 2333POPC   C1A31719  40.935  23.366   8.890
 2333POPC   D2A31720  41.020  23.471   8.471
 2333POPC   C3A31721  40.798  23.366   8.127
 2333POPC   C4A31722  40.865  23.512   7.739
 2333POPC   C1B31723  40.701  23.820   8.770
 2333POPC   C2B31724  40.790  23.925   8.395
 2333POPC   C3B31725  40.742  23.990   8.016
 2333POPC   C4B31726  40.582  23.922   7.651
 2334POPC   NC331727   6.861   4.426   9.456
 2334POPC   PO431728   6.264   4.613   9.451
 2334POPC   GL131729   6.408   4.305   9.152
 2334POPC   GL231730   6.725   4.268   9.002
 2334POPC   C1A31731   6.309   4.173   8.751
 2334POPC   D2A31732   6.498   4.404   8.471
 2334POPC   C3A31733   6.548   4.129   8.210
 2334POPC   C4A31734   6.379   4.109   7.846
 2334POPC   C1B31735   6.964   4.226   8.645
 2334POPC   C2B31736   6.978   4.394   8.241
 2334POPC   C3B31737   6.845   4.332   7.814
 2334POPC   C4B31738   6.913   4.485   7.389
 2335POPC   NC331739  22.298  41.940   9.445
 2335POPC   PO431740  22.153  42.621   9.563
 2335POPC   GL131741  22.082  42.407   9.158
 2335POPC   GL231742  21.920  42.128   9.112
 2335POPC   C1A31743  21.930  42.470   8.729
 2335POPC   D2A31744  22.082  42.273   8.357
 2335POPC   C3A31745  22.126  42.397   7.956
 2335POPC   C4A31746  22.505  42.627   7.785
 2335POPC   C1B31747  22.155  41.950   8.791
 2335POPC   C2B31748  22.409  41.893   8.459
 2335POPC   C3B31749  22.268  41.831   8.064
 2335POPC   C4B31750  22.000  41.930   7.761
 2336POPC   NC331751  12.449  11.734   9.329
 2336POPC   PO431752  12.677  12.395   9.445
 2336POPC   GL131753  12.811  12.107   9.137
 2336POPC   GL231754  12.966  11.768   9.262
 2336POPC   C1A31755  12.930  12.244   8.713
 2336POPC   D2A31756  12.850  12.031   8.345
 2336POPC   C3A31757  13.004  12.252   8.007
 2336POPC   C4A31758  12.769  12.182   7.665
 2336POPC   C1B31759  12.931  11.741   8.795
 2336POPC   C2B31760  12.840  11.505   8.449
 2336POPC   C3B31761  12.702  11.631   8.045
 2336POPC   C4B31762  12.839  11.674   7.620
 2337POPC   NC331763  12.834  29.674   9.331
 2337POPC   PO431764  12.784  30.340   9.486
 2337POPC   GL131765  12.844  30.175   9.063
 2337POPC   GL231766  12.882  29.834   8.876
 2337POPC   C1A31767  12.756  30.223   8.611
 2337POPC   D2A31768  12.684  29.827   8.398
 2337POPC   C3A31769  12.644  29.967   8.002
 2337POPC   C4A31770  12.838  30.137   7.653
 2337POPC   C1B31771  13.234  29.723   8.644
 2337POPC   C2B31772  13.203  29.863   8.272
 2337POPC   C3B31773  12.994  29.585   8.034
 2337POPC   C4B31774  13.041  29.668   7.618
 2338POPC   NC331775  12.788  40.265   9.459
 2338POPC   PO431776  13.147  39.697   9.588
 2338POPC   GL131777  13.055  39.807   9.181
 2338POPC   GL231778  13.347  39.603   9.110
 2338POPC   C1A31779  12.789  39.988   8.828
 2338POPC   D2A31780  12.548  39.816   8.465
 2338POPC   C3A31781  12.633  39.912   8.052
 2338POPC   C4A31782  12.697  39.904   7.612
 2338POPC   C1B31783  13.334  39.820   8.745
 2338POPC   C2B31784  13.062  39.847   8.402
 2338POPC   C3B31785  13.138  40.030   8.023
 2338POPC   C4B31786  13.233  39.814   7.666
 2339POPC   NC331787  15.442  35.902   9.502
 2339POPC   PO431788  16.060  35.876   9.553
 2339POPC   GL131789  16.000  36.137   9.204
 2339POPC   GL231790  15.939  35.800   9.040
 2339POPC   C1A31791  15.806  36.220   8.789
 2339POPC   D2A31792  15.831  35.822   8.505
 2339POPC   C3A31793  15.727  35.891   8.034
 2339POPC   C4A31794  15.889  36.005   7.605
 2339POPC   C1B31795  16.260  35.986   8.770
 2339POPC   C2B31796  16.194  36.158   8.384
 2339POPC   C3B31797  16.017  36.312   8.015
 2339POPC   C4B31798  16.342  36.226   7.708
 2340POPC   NC331799   7.656  13.847   9.553
 2340POPC   PO431800   7.336  13.305   9.641
 2340POPC   GL131801   7.341  13.549   9.217
 2340POPC   GL231802   7.137  13.846   9.166
 2340POPC   C1A31803   7.479  13.756   8.814
 2340POPC   D2A31804   7.425  13.567   8.446
 2340POPC   C3A31805   7.411  13.751   8.079
 2340POPC   C4A31806   7.489  13.575   7.702
 2340POPC   C1B31807   7.101  14.114   8.813
 2340POPC   C2B31808   7.263  14.123   8.415
 2340POPC   C3B31809   7.056  14.103   8.013
 2340POPC   C4B31810   7.017  13.795   7.683
 2341POPC   NC331811   7.270  32.787   9.543
 2341POPC   PO431812   6.791  33.110   9.609
 2341POPC   GL131813   7.127  33.079   9.165
 2341POPC   GL231814   7.538  32.890   9.126
 2341POPC   C1A31815   7.337  33.053   8.718
 2341POPC   D2A31816   7.563  33.125   8.323
 2341POPC   C3A31817   7.303  32.996   7.984
 2341POPC   C4A31818   7.027  32.757   7.678
 2341POPC   C1B31819   7.837  32.886   8.755
 2341POPC   C2B31820   7.971  32.736   8.344
 2341POPC   C3B31821   7.763  32.740   7.961
 2341POPC   C4B31822   7.690  32.968   7.593
 2342POPC   NC331823  28.241  10.570   9.556
 2342POPC   PO431824  28.770  10.996   9.459
 2342POPC   GL131825  28.404  10.791   9.125
 2342POPC   GL231826  28.092  10.498   9.098
 2342POPC   C1A31827  28.339  10.627   8.703
 2342POPC   D2A31828  28.564  10.380   8.432
 2342POPC   C3A31829  28.396  10.543   8.106
 2342POPC   C4A31830  28.390  10.314   7.774
 2342POPC   C1B31831  27.851  10.302   8.807
 2342POPC   C2B31832  28.044  10.291   8.432
 2342POPC   C3B31833  27.946  10.313   8.027
 2342POPC   C4B31834  27.985  10.664   7.725
 2343POPC   NC331835  31.500   8.616   9.733
 2343POPC   PO431836  31.646   7.985   9.527
 2343POPC   GL131837  31.499   8.232   9.230
 2343POPC   GL231838  31.203   8.399   9.339
 2343POPC   C1A31839  31.466   7.999   8.849
 2343POPC   D2A31840  31.315   8.077   8.450
 2343POPC   C3A31841  31.536   8.004   8.066
 2343POPC   C4A31842  31.548   8.374   7.819
 2343POPC   C1B31843  31.160   8.400   8.884
 2343POPC   C2B31844  31.050   8.539   8.477
 2343POPC   C3B31845  31.096   8.384   8.088
 2343POPC   C4B31846  31.045   8.511   7.681
 2344POPC   NC331847  32.711  40.596   9.492
 2344POPC   PO431848  33.064  41.082   9.415
 2344POPC   GL131849  32.864  40.845   9.088
 2344POPC   GL231850  33.071  40.573   8.978
 2344POPC   C1A31851  32.614  40.682   8.710
 2344POPC   D2A31852  32.683  40.659   8.259
 2344POPC   C3A31853  33.102  40.546   8.092
 2344POPC   C4A31854  33.214  40.575   7.667
 2344POPC   C1B31855  33.075  40.923   8.635
 2344POPC   C2B31856  33.017  41.048   8.236
 2344POPC   C3B31857  32.899  40.940   7.846
 2344POPC   C4B31858  33.067  41.138   7.494
 2345POPC   NC331859  18.016  27.987   9.445
 2345POPC   PO431860  18.653  27.700   9.534
 2345POPC   GL131861  18.388  27.708   9.204
 2345POPC   GL231862  18.596  27.980   9.091
 2345POPC   C1A31863  18.259  27.603   8.804
 2345POPC   D2A31864  18.413  27.664   8.397
 2345POPC   C3A31865  18.399  27.424   8.122
 2345POPC   C4A31866  18.306  27.562   7.725
 2345POPC   C1B31867  18.407  28.082   8.698
 2345POPC   C2B31868  18.098  28.044   8.370
 2345POPC   C3B31869  18.206  28.003   7.961
 2345POPC   C4B31870  17.904  27.928   7.637
 2346POPC   NC331871  22.477  23.143   9.530
 2346POPC   PO431872  23.120  23.029   9.667
 2346POPC   GL131873  23.051  22.980   9.197
 2346POPC   GL231874  22.705  22.979   9.110
 2346POPC   C1A31875  22.994  22.722   8.797
 2346POPC   D2A31876  22.747  22.880   8.463
 2346POPC   C3A31877  22.900  22.803   8.068
 2346POPC   C4A31878  22.958  22.777   7.649
 2346POPC   C1B31879  22.450  23.248   8.848
 2346POPC   C2B31880  22.560  23.451   8.479
 2346POPC   C3B31881  22.589  23.271   8.101
 2346POPC   C4B31882  22.595  23.119   7.726
 2347POPC   NC331883  24.528  44.289   9.296
 2347POPC   PO431884  24.658  43.678   9.557
 2347POPC   GL131885  24.445  43.763   9.161
 2347POPC   GL231886  24.124  43.593   9.135
 2347POPC   C1A31887  24.438  43.985   8.744
 2347POPC   D2A31888  24.345  43.967   8.323
 2347POPC   C3A31889  24.390  44.268   7.984
 2347POPC   C4A31890  24.431  43.970   7.640
 2347POPC   C1B31891  24.298  43.492   8.726
 2347POPC   C2B31892  24.596  43.509   8.404
 2347POPC   C3B31893  24.567  43.631   7.995
 2347POPC   C4B31894  24.736  43.497   7.622
 2348POPC   NC331895  21.185   0.266   9.662
 2348POPC   PO431896  21.392   0.766   9.288
 2348POPC   GL131897  21.239   0.578   8.943
 2348POPC   GL231898  21.141   0.270   9.133
 2348POPC   C1A31899  21.484   0.490   8.572
 2348POPC   D2A31900  21.656   0.677   8.228
 2348POPC   C3A31901  21.466   0.420   7.917
 2348POPC   C4A31902  21.331   0.493   7.486
 2348POPC   C1B31903  21.156   0.100   8.719
 2348POPC   C2B31904  21.064   0.244   8.301
 2348POPC   C3B31905  21.176  44.993   7.970
 2348POPC   C4B31906  21.509  44.957   7.664
 2349POPC   NC331907   3.090  10.734   9.437
 2349POPC   PO431908   3.527  10.266   9.585
 2349POPC   GL131909   3.491  10.451   9.220
 2349POPC   GL231910   3.200  10.288   9.179
 2349POPC   C1A31911   3.634  10.717   8.878
 2349POPC   D2A31912   3.810  10.743   8.456
 2349POPC   C3A31913   3.531  10.783   8.105
 2349POPC   C4A31914   3.724  10.666   7.761
 2349POPC   C1B31915   3.171  10.496   8.808
 2349POPC   C2B31916   3.368  10.418   8.447
 2349POPC   C3B31917   3.194  10.371   8.075
 2349POPC   C4B31918   3.263  10.467   7.696
 2350POPC   NC331919  14.459  36.830   9.724
 2350POPC   PO431920  13.916  37.034   9.443
 2350POPC   GL131921  14.269  37.053   9.125
 2350POPC   GL231922  14.657  37.051   9.011
 2350POPC   C1A31923  14.274  36.976   8.689
 2350POPC   D2A31924  14.258  37.281   8.396
 2350POPC   C3A31925  14.496  37.105   8.116
 2350POPC   C4A31926  14.346  36.866   7.787
 2350POPC   C1B31927  14.797  36.759   8.661
 2350POPC   C2B31928  14.668  36.544   8.265
 2350POPC   C3B31929  14.822  36.778   7.907
 2350POPC   C4B31930  14.719  37.171   7.630
 2351POPC   NC331931  42.362  31.846   9.495
 2351POPC   PO431932  42.564  31.193   9.176
 2351POPC   GL131933  42.293  31.527   9.108
 2351POPC   GL231934  42.488  31.828   9.017
 2351POPC   C1A31935  42.065  31.505   8.756
 2351POPC   D2A31936  42.310  31.252   8.509
 2351POPC   C3A31937  42.200  31.299   8.135
 2351POPC   C4A31938  42.295  31.225   7.733
 2351POPC   C1B31939  42.347  31.939   8.631
 2351POPC   C2B31940  42.120  31.780   8.284
 2351POPC   C3B31941  42.290  31.719   7.875
 2351POPC   C4B31942  42.725  31.756   7.830
 2352POPC   NC331943   9.123  31.533   9.432
 2352POPC   PO431944   8.648  31.000   9.443
 2352POPC   GL131945   8.974  31.117   9.138
 2352POPC   GL231946   8.771  31.394   9.096
 2352POPC   C1A31947   9.210  31.335   8.778
 2352POPC   D2A31948   9.228  31.630   8.403
 2352POPC   C3A31949   9.339  31.502   7.958
 2352POPC   C4A31950   9.187  31.365   7.541
 2352POPC   C1B31951   8.560  31.325   8.763
 2352POPC   C2B31952   8.729  31.454   8.438
 2352POPC   C3B31953   8.891  31.325   8.105
 2352POPC   C4B31954   8.734  31.481   7.754
 2353POPC   NC331955  29.111  27.265   9.349
 2353POPC   PO431956  28.770  27.903   9.481
 2353POPC   GL131957  28.863  27.912   9.002
 2353POPC   GL231958  29.079  27.619   8.922
 2353POPC   C1A31959  28.979  27.940   8.540
 2353POPC   D2A31960  29.412  27.731   8.411
 2353POPC   C3A31961  29.336  27.597   7.965
 2353POPC   C4A31962  29.003  27.802   7.708
 2353POPC   C1B31963  29.325  27.274   8.678
 2353POPC   C2B31964  29.409  27.112   8.252
 2353POPC   C3B31965  29.320  27.099   7.796
 2353POPC   C4B31966  29.161  27.378   7.480
 2354POPC   NC331967   7.344  31.085   9.362
 2354POPC   PO431968   7.685  31.624   9.642
 2354POPC   GL131969   7.375  31.578   9.284
 2354POPC   GL231970   7.665  31.408   9.159
 2354POPC   C1A31971   7.264  31.476   8.827
 2354POPC   D2A31972   7.214  31.666   8.425
 2354POPC   C3A31973   7.320  31.491   8.006
 2354POPC   C4A31974   7.588  31.696   7.726
 2354POPC   C1B31975   7.741  31.144   8.805
 2354POPC   C2B31976   7.593  31.202   8.398
 2354POPC   C3B31977   7.781  31.088   8.000
 2354POPC   C4B31978   7.747  31.184   7.568
 2355POPC   NC331979   2.301  28.182   9.409
 2355POPC   PO431980   1.829  28.625   9.469
 2355POPC   GL131981   1.921  28.455   9.130
 2355POPC   GL231982   2.251  28.590   9.084
 2355POPC   C1A31983   1.761  28.218   8.816
 2355POPC   D2A31984   2.035  27.989   8.587
 2355POPC   C3A31985   1.966  28.127   8.151
 2355POPC   C4A31986   2.124  28.004   7.733
 2355POPC   C1B31987   2.077  28.620   8.662
 2355POPC   C2B31988   2.121  28.670   8.218
 2355POPC   C3B31989   2.005  28.521   7.812
 2355POPC   C4B31990   2.146  28.652   7.402
 2356POPC   NC331991   2.754  18.158   9.350
 2356POPC   PO431992   2.175  18.233   9.394
 2356POPC   GL131993   2.436  18.417   9.037
 2356POPC   GL231994   2.816  18.452   8.948
 2356POPC   C1A31995   2.535  18.211   8.629
 2356POPC   D2A31996   2.880  18.361   8.372
 2356POPC   C3A31997   2.691  18.307   7.993
 2356POPC   C4A31998   2.512  18.459   7.587
 2356POPC   C1B31999   3.020  18.051   8.757
 2356POPC   C2B32000   3.097  17.859   8.373
 2356POPC   C3B32001   3.156  18.080   7.989
 2356POPC   C4B32002   2.939  18.188   7.582
 2357POPC   NC332003  22.357  30.237   9.540
 2357POPC   PO432004  22.321  30.890   9.540
 2357POPC   GL132005  22.173  30.655   9.211
 2357POPC   GL232006  22.495  30.541   9.148
 2357POPC   C1A32007  21.889  30.661   8.851
 2357POPC   D2A32008  21.931  30.456   8.453
 2357POPC   C3A32009  21.976  30.719   8.093
 2357POPC   C4A32010  21.986  30.642   7.705
 2357POPC   C1B32011  22.585  30.597   8.730
 2357POPC   C2B32012  22.419  30.719   8.336
 2357POPC   C3B32013  22.464  30.634   7.909
 2357POPC   C4B32014  22.369  30.299   7.657
 2358POPC   NC332015   5.425  33.841   9.751
 2358POPC   PO432016   4.749  33.859   9.741
 2358POPC   GL132017   5.082  33.871   9.342
 2358POPC   GL232018   4.950  33.632   9.124
 2358POPC   C1A32019   5.261  33.907   8.845
 2358POPC   D2A32020   5.335  34.042   8.370
 2358POPC   C3A32021   5.364  33.820   7.953
 2358POPC   C4A32022   5.182  33.678   7.563
 2358POPC   C1B32023   4.774  33.381   8.806
 2358POPC   C2B32024   4.914  33.549   8.415
 2358POPC   C3B32025   4.950  33.475   7.985
 2358POPC   C4B32026   4.816  33.315   7.590
 2359POPC   NC332027  39.414   1.775   9.467
 2359POPC   PO432028  39.034   2.353   9.301
 2359POPC   GL132029  39.134   1.993   9.109
 2359POPC   GL232030  39.487   2.078   9.065
 2359POPC   C1A32031  39.119   1.745   8.757
 2359POPC   D2A32032  38.991   1.870   8.411
 2359POPC   C3A32033  39.261   2.035   8.200
 2359POPC   C4A32034  39.273   1.819   7.827
 2359POPC   C1B32035  39.292   2.233   8.692
 2359POPC   C2B32036  38.874   2.343   8.561
 2359POPC   C3B32037  38.721   2.273   8.141
 2359POPC   C4B32038  39.052   2.305   7.838
 2360POPC   NC332039   1.259  38.247   9.524
 2360POPC   PO432040   0.805  38.756   9.737
 2360POPC   GL132041   0.905  38.551   9.323
 2360POPC   GL232042   1.284  38.612   9.168
 2360POPC   C1A32043   0.879  38.467   8.891
 2360POPC   D2A32044   1.187  38.606   8.590
 2360POPC   C3A32045   1.046  38.595   8.174
 2360POPC   C4A32046   0.943  38.804   7.791
 2360POPC   C1B32047   1.384  38.242   8.895
 2360POPC   C2B32048   1.489  38.162   8.468
 2360POPC   C3B32049   1.526  38.359   8.092
 2360POPC   C4B32050   1.282  38.438   7.723
 2361POPC   NC332051  40.661  21.600   9.549
 2361POPC   PO432052  40.882  20.926   9.445
 2361POPC   GL132053  41.032  21.199   9.134
 2361POPC   GL232054  40.990  21.557   9.177
 2361POPC   C1A32055  40.882  21.353   8.734
 2361POPC   D2A32056  41.065  21.586   8.404
 2361POPC   C3A32057  40.989  21.393   8.029
 2361POPC   C4A32058  40.774  21.266   7.666
 2361POPC   C1B32059  40.843  21.846   8.857
 2361POPC   C2B32060  40.552  21.728   8.505
 2361POPC   C3B32061  40.577  21.686   8.053
 2361POPC   C4B32062  40.897  21.777   7.710
 2362POPC   NC332063  21.821  11.806   9.482
 2362POPC   PO432064  22.571  11.942   9.576
 2362POPC   GL132065  22.187  12.130   9.283
 2362POPC   GL232066  22.083  11.885   9.028
 2362POPC   C1A32067  21.893  12.342   8.913
 2362POPC   D2A32068  21.864  12.494   8.470
 2362POPC   C3A32069  22.050  12.307   8.113
 2362POPC   C4A32070  21.878  12.192   7.725
 2362POPC   C1B32071  22.154  12.021   8.576
 2362POPC   C2B32072  22.129  11.790   8.152
 2362POPC   C3B32073  22.233  11.826   7.710
 2362POPC   C4B32074  22.496  11.827   7.325
 2363POPC   NC332075   6.060   8.420   9.476
 2363POPC   PO432076   5.432   8.218   9.567
 2363POPC   GL132077   5.669   8.248   9.186
 2363POPC   GL232078   5.961   8.078   9.105
 2363POPC   C1A32079   5.611   8.348   8.787
 2363POPC   D2A32080   5.885   8.310   8.437
 2363POPC   C3A32081   5.797   8.247   8.039
 2363POPC   C4A32082   5.580   8.117   7.739
 2363POPC   C1B32083   6.147   8.446   8.835
 2363POPC   C2B32084   6.357   8.453   8.388
 2363POPC   C3B32085   6.250   8.402   7.920
 2363POPC   C4B32086   6.164   8.005   7.775
 2364POPC   NC332087  41.456  14.806   9.484
 2364POPC   PO432088  41.657  15.445   9.472
 2364POPC   GL132089  41.443  15.241   9.162
 2364POPC   GL232090  41.413  14.888   8.996
 2364POPC   C1A32091  41.566  15.311   8.763
 2364POPC   D2A32092  41.418  15.107   8.402
 2364POPC   C3A32093  41.468  15.359   8.029
 2364POPC   C4A32094  41.574  15.470   7.622
 2364POPC   C1B32095  41.791  14.850   8.727
 2364POPC   C2B32096  41.794  14.794   8.276
 2364POPC   C3B32097  41.541  14.873   7.910
 2364POPC   C4B32098  41.877  14.760   7.626
 2365POPC   NC332099  21.567  29.643   9.438
 2365POPC   PO432100  21.144  30.219   9.580
 2365POPC   GL132101  21.282  30.046   9.179
 2365POPC   GL232102  21.644  30.101   9.226
 2365POPC   C1A32103  21.244  29.851   8.743
 2365POPC   D2A32104  21.244  29.722   8.308
 2365POPC   C3A32105  21.195  30.062   8.013
 2365POPC   C4A32106  21.084  30.245   7.636
 2365POPC   C1B32107  21.736  29.887   8.835
 2365POPC   C2B32108  21.729  29.977   8.403
 2365POPC   C3B32109  21.662  29.823   7.993
 2365POPC   C4B32110  21.493  29.897   7.620
 2366POPC   NC332111   4.216  16.860   9.808
 2366POPC   PO432112   4.533  17.219   9.344
 2366POPC   GL132113   4.522  16.946   9.027
 2366POPC   GL232114   4.447  16.694   9.265
 2366POPC   C1A32115   4.425  16.911   8.582
 2366POPC   D2A32116   4.009  16.902   8.377
 2366POPC   C3A32117   4.062  17.026   7.976
 2366POPC   C4A32118   4.448  16.892   7.882
 2366POPC   C1B32119   4.241  16.538   8.866
 2366POPC   C2B32120   4.333  16.443   8.418
 2366POPC   C3B32121   4.330  16.363   7.990
 2366POPC   C4B32122   4.178  16.534   7.594
 2367POPC   NC332123   8.161  20.297   9.461
 2367POPC   PO432124   8.208  19.623   9.545
 2367POPC   GL132125   8.316  19.804   9.156
 2367POPC   GL232126   8.003  19.737   8.988
 2367POPC   C1A32127   8.426  19.625   8.748
 2367POPC   D2A32128   8.144  19.644   8.423
 2367POPC   C3A32129   8.334  19.913   8.137
 2367POPC   C4A32130   8.384  19.915   7.651
 2367POPC   C1B32131   8.139  20.111   8.751
 2367POPC   C2B32132   8.160  20.383   8.382
 2367POPC   C3B32133   8.099  20.298   7.942
 2367POPC   C4B32134   7.912  19.881   7.832
 2368POPC   NC332135  43.714  34.791   9.600
 2368POPC   PO432136  43.966  34.171   9.384
 2368POPC   GL132137  43.936  34.493   9.136
 2368POPC   GL232138  44.165  34.750   9.194
 2368POPC   C1A32139  43.731  34.757   8.864
 2368POPC   D2A32140  43.599  34.812   8.440
 2368POPC   C3A32141  43.633  34.566   8.039
 2368POPC   C4A32142  43.677  34.722   7.591
 2368POPC   C1B32143  44.214  34.668   8.728
 2368POPC   C2B32144  44.105  34.652   8.303
 2368POPC   C3B32145  44.125  34.642   7.872
 2368POPC   C4B32146  44.155  34.523   7.448
 2369POPC   NC332147  25.833  26.166   9.345
 2369POPC   PO432148  25.160  25.859   9.429
 2369POPC   GL132149  25.424  25.942   9.152
 2369POPC   GL232150  25.358  26.334   9.247
 2369POPC   C1A32151  25.377  25.810   8.729
 2369POPC   D2A32152  25.086  25.987   8.442
 2369POPC   C3A32153  25.179  25.867   8.051
 2369POPC   C4A32154  25.519  25.896   7.743
 2369POPC   C1B32155  25.234  26.287   8.839
 2369POPC   C2B32156  25.524  26.280   8.491
 2369POPC   C3B32157  25.450  26.304   8.069
 2369POPC   C4B32158  25.075  26.303   7.810
 2370POPC   NC332159  20.484  12.210   9.511
 2370POPC   PO432160  21.064  11.754   9.299
 2370POPC   GL132161  20.816  12.154   9.081
 2370POPC   GL232162  20.483  12.339   9.039
 2370POPC   C1A32163  20.773  12.257   8.648
 2370POPC   D2A32164  20.723  11.994   8.314
 2370POPC   C3A32165  20.880  12.106   7.925
 2370POPC   C4A32166  20.731  11.980   7.531
 2370POPC   C1B32167  20.243  12.304   8.659
 2370POPC   C2B32168  20.212  12.057   8.312
 2370POPC   C3B32169  20.373  12.027   7.911
 2370POPC   C4B32170  20.563  12.437   7.724
 2371POPC   NC332171  40.600  31.272   9.455
 2371POPC   PO432172  41.220  31.686   9.537
 2371POPC   GL132173  41.013  31.466   9.204
 2371POPC   GL232174  40.693  31.575   9.038
 2371POPC   C1A32175  41.038  31.304   8.807
 2371POPC   D2A32176  40.710  31.413   8.498
 2371POPC   C3A32177  40.702  31.167   8.114
 2371POPC   C4A32178  40.849  31.363   7.750
 2371POPC   C1B32179  40.373  31.748   8.760
 2371POPC   C2B32180  40.217  31.630   8.394
 2371POPC   C3B32181  40.488  31.647   8.067
 2371POPC   C4B32182  40.723  31.862   7.766
 2372POPC   NC332183  33.375  24.078   9.513
 2372POPC   PO432184  32.987  24.604   9.678
 2372POPC   GL132185  32.867  24.510   9.248
 2372POPC   GL232186  33.075  24.286   9.150
 2372POPC   C1A32187  32.791  24.569   8.792
 2372POPC   D2A32188  32.974  24.462   8.376
 2372POPC   C3A32189  32.805  24.605   8.002
 2372POPC   C4A32190  32.695  24.574   7.600
 2372POPC   C1B32191  33.077  24.121   8.737
 2372POPC   C2B32192  33.055  23.947   8.334
 2372POPC   C3B32193  33.284  24.096   7.983
 2372POPC   C4B32194  33.229  24.490   7.760
 2373POPC   NC332195  39.752  34.340   9.343
 2373POPC   PO432196  39.064  34.177   9.418
 2373POPC   GL132197  39.258  34.575   9.216
 2373POPC   GL232198  39.474  34.459   8.938
 2373POPC   C1A32199  39.113  34.845   8.844
 2373POPC   D2A32200  39.198  34.663   8.426
 2373POPC   C3A32201  39.108  34.852   8.038
 2373POPC   C4A32202  39.210  34.595   7.687
 2373POPC   C1B32203  39.081  34.333   8.797
 2373POPC   C2B32204  38.959  34.181   8.439
 2373POPC   C3B32205  39.006  34.293   8.047
 2373POPC   C4B32206  38.851  34.159   7.668
 2374POPC   NC332207  35.058   0.384   9.558
 2374POPC   PO432208  35.662   0.515   9.405
 2374POPC   GL132209  35.487   0.540   9.029
 2374POPC   GL232210  35.218   0.314   9.075
 2374POPC   C1A32211  35.517   0.288   8.648
 2374POPC   D2A32212  35.296   0.173   8.258
 2374POPC   C3A32213  35.521   0.288   7.893
 2374POPC   C4A32214  35.615   0.625   7.660
 2374POPC   C1B32215  34.944   0.580   8.885
 2374POPC   C2B32216  34.893   0.508   8.447
 2374POPC   C3B32217  35.068   0.725   8.107
 2374POPC   C4B32218  34.872   0.797   7.717
 2375POPC   NC332219  39.115  14.689   9.391
 2375POPC   PO432220  39.021  14.037   9.595
 2375POPC   GL132221  39.151  14.153   9.189
 2375POPC   GL232222  39.491  14.044   9.137
 2375POPC   C1A32223  38.974  14.362   8.817
 2375POPC   D2A32224  39.092  14.482   8.399
 2375POPC   C3A32225  39.464  14.487   8.179
 2375POPC   C4A32226  39.334  14.621   7.767
 2375POPC   C1B32227  39.418  14.136   8.697
 2375POPC   C2B32228  39.423  13.982   8.268
 2375POPC   C3B32229  39.289  14.105   7.824
 2375POPC   C4B32230  39.211  13.962   7.361
 2376POPC   NC332231  16.331  26.022   9.509
 2376POPC   PO432232  16.904  26.365   9.432
 2376POPC   GL132233  16.645  26.187   9.097
 2376POPC   GL232234  16.580  25.860   9.108
 2376POPC   C1A32235  16.707  26.160   8.632
 2376POPC   D2A32236  16.981  26.397   8.326
 2376POPC   C3A32237  17.064  26.284   7.874
 2376POPC   C4A32238  16.776  26.164   7.535
 2376POPC   C1B32239  16.756  25.663   8.774
 2376POPC   C2B32240  16.597  25.644   8.389
 2376POPC   C3B32241  16.721  25.960   8.125
 2376POPC   C4B32242  16.939  25.788   7.831
 2377POPC   NC332243  37.499   9.275   9.486
 2377POPC   PO432244  38.036   9.069   9.813
 2377POPC   GL132245  37.770   8.787   9.338
 2377POPC   GL232246  37.557   8.988   9.085
 2377POPC   C1A32247  37.797   8.627   8.828
 2377POPC   D2A32248  37.986   8.778   8.403
 2377POPC   C3A32249  37.815   8.640   7.987
 2377POPC   C4A32250  37.823   8.641   7.521
 2377POPC   C1B32251  37.673   9.097   8.661
 2377POPC   C2B32252  37.644   9.084   8.195
 2377POPC   C3B32253  37.702   9.330   7.842
 2377POPC   C4B32254  37.274   9.461   7.736
 2378POPC   NC332255  42.561  17.689   9.458
 2378POPC   PO432256  41.927  17.334   9.601
 2378POPC   GL132257  42.116  17.576   9.239
 2378POPC   GL232258  42.389  17.359   9.119
 2378POPC   C1A32259  42.283  17.737   8.795
 2378POPC   D2A32260  42.047  17.653   8.424
 2378POPC   C3A32261  42.210  17.650   8.010
 2378POPC   C4A32262  42.432  17.625   7.612
 2378POPC   C1B32263  42.061  17.273   8.839
 2378POPC   C2B32264  42.014  17.122   8.438
 2378POPC   C3B32265  42.200  17.111   8.029
 2378POPC   C4B32266  42.043  17.309   7.659
 2379POPC   NC332267  34.876  28.101   9.854
 2379POPC   PO432268  34.558  28.606   9.621
 2379POPC   GL132269  34.573  28.460   9.188
 2379POPC   GL232270  34.249  28.358   9.104
 2379POPC   C1A32271  34.627  28.157   8.798
 2379POPC   D2A32272  34.955  28.088   8.515
 2379POPC   C3A32273  34.915  28.084   8.107
 2379POPC   C4A32274  34.714  28.101   7.737
 2379POPC   C1B32275  34.430  28.621   8.734
 2379POPC   C2B32276  34.565  28.420   8.328
 2379POPC   C3B32277  34.353  28.379   7.931
 2379POPC   C4B32278  34.340  28.498   7.478
 2380POPC   NC332279   7.381  24.741   9.517
 2380POPC   PO432280   7.664  25.418   9.543
 2380POPC   GL132281   7.414  25.293   9.210
 2380POPC   GL232282   7.604  25.008   9.148
 2380POPC   C1A32283   7.386  25.414   8.779
 2380POPC   D2A32284   7.447  25.233   8.360
 2380POPC   C3A32285   7.352  25.500   7.992
 2380POPC   C4A32286   7.362  25.513   7.564
 2380POPC   C1B32287   7.457  24.877   8.767
 2380POPC   C2B32288   7.687  24.779   8.395
 2380POPC   C3B32289   7.472  24.767   8.018
 2380POPC   C4B32290   7.341  25.039   7.740
 2381POPC   NC332291   1.345  31.495   9.774
 2381POPC   PO432292   0.906  30.953   9.595
 2381POPC   GL132293   0.979  31.399   9.330
 2381POPC   GL232294   1.301  31.602   9.268
 2381POPC   C1A32295   0.953  31.646   8.906
 2381POPC   D2A32296   1.099  31.582   8.480
 2381POPC   C3A32297   0.947  31.778   8.085
 2381POPC   C4A32298   1.110  31.631   7.725
 2381POPC   C1B32299   1.465  31.504   8.847
 2381POPC   C2B32300   1.589  31.736   8.472
 2381POPC   C3B32301   1.454  31.596   8.100
 2381POPC   C4B32302   1.610  31.776   7.753
 2382POPC   NC332303  27.396  23.586   9.563
 2382POPC   PO432304  27.610  24.233   9.531
 2382POPC   GL132305  27.558  23.825   9.164
 2382POPC   GL232306  27.647  23.449   9.147
 2382POPC   C1A32307  27.687  23.759   8.720
 2382POPC   D2A32308  27.659  23.962   8.341
 2382POPC   C3A32309  27.531  23.865   7.931
 2382POPC   C4A32310  27.767  23.513   7.707
 2382POPC   C1B32311  27.287  23.481   8.864
 2382POPC   C2B32312  27.252  23.575   8.414
 2382POPC   C3B32313  27.356  23.403   8.021
 2382POPC   C4B32314  27.256  23.501   7.582
 2383POPC   NC332315  36.684   5.611   9.521
 2383POPC   PO432316  37.354   5.750   9.574
 2383POPC   GL132317  37.094   5.678   9.209
 2383POPC   GL232318  36.921   5.965   9.025
 2383POPC   C1A32319  36.856   5.497   8.879
 2383POPC   D2A32320  36.769   5.771   8.558
 2383POPC   C3A32321  36.889   5.621   8.153
 2383POPC   C4A32322  36.706   5.600   7.769
 2383POPC   C1B32323  37.127   6.286   8.755
 2383POPC   C2B32324  37.172   6.398   8.318
 2383POPC   C3B32325  36.962   6.133   7.983
 2383POPC   C4B32326  36.770   6.053   7.555
 2384POPC   NC332327   1.747  13.420   9.470
 2384POPC   PO432328   2.229  13.864   9.526
 2384POPC   GL132329   2.042  13.783   9.150
 2384POPC   GL232330   2.159  14.105   9.044
 2384POPC   C1A32331   1.905  13.517   8.780
 2384POPC   D2A32332   2.030  13.271   8.394
 2384POPC   C3A32333   2.056  13.404   7.945
 2384POPC   C4A32334   2.080  13.617   7.508
 2384POPC   C1B32335   1.792  14.038   8.764
 2384POPC   C2B32336   1.741  13.798   8.374
 2384POPC   C3B32337   1.741  13.809   7.933
 2384POPC   C4B32338   1.851  14.057   7.610
 2385POPC   NC332339  30.859   2.269   9.528
 2385POPC   PO432340  30.323   1.885   9.742
 2385POPC   GL132341  30.406   2.019   9.286
 2385POPC   GL232342  30.735   1.928   9.161
 2385POPC   C1A32343  30.425   2.184   8.836
 2385POPC   D2A32344  30.526   2.359   8.428
 2385POPC   C3A32345  30.521   2.030   8.119
 2385POPC   C4A32346  30.561   2.034   7.666
 2385POPC   C1B32347  30.935   1.876   8.776
 2385POPC   C2B32348  30.911   1.670   8.382
 2385POPC   C3B32349  31.019   1.809   7.972
 2385POPC   C4B32350  30.974   1.768   7.532
 2386POPC   NC332351  30.764  23.791   9.577
 2386POPC   PO432352  30.997  23.218   9.684
 2386POPC   GL132353  30.706  23.414   9.236
 2386POPC   GL232354  30.520  23.788   9.150
 2386POPC   C1A32355  30.624  23.476   8.766
 2386POPC   D2A32356  30.478  23.644   8.358
 2386POPC   C3A32357  30.676  23.530   7.967
 2386POPC   C4A32358  30.970  23.717   7.731
 2386POPC   C1B32359  30.742  24.017   8.795
 2386POPC   C2B32360  30.918  24.033   8.367
 2386POPC   C3B32361  30.616  24.047   8.021
 2386POPC   C4B32362  30.238  23.812   7.892
 2387POPC   NC332363  25.436   9.466   9.639
 2387POPC   PO432364  25.349  10.076   9.724
 2387POPC   GL132365  25.490   9.911   9.284
 2387POPC   GL232366  25.537   9.553   9.157
 2387POPC   C1A32367  25.586   9.942   8.821
 2387POPC   D2A32368  25.671   9.826   8.380
 2387POPC   C3A32369  25.304   9.953   8.091
 2387POPC   C4A32370  25.025   9.790   7.735
 2387POPC   C1B32371  25.586   9.437   8.737
 2387POPC   C2B32372  25.345   9.426   8.370
 2387POPC   C3B32373  25.483   9.499   7.968
 2387POPC   C4B32374  25.528   9.753   7.660
 2388POPC   NC332375   4.413  40.806   9.579
 2388POPC   PO432376   3.759  40.782   9.497
 2388POPC   GL132377   4.105  40.934   9.210
 2388POPC   GL232378   4.100  40.663   9.101
 2388POPC   C1A32379   4.472  40.912   8.876
 2388POPC   D2A32380   4.457  41.048   8.438
 2388POPC   C3A32381   4.489  40.941   7.987
 2388POPC   C4A32382   4.116  41.023   7.719
 2388POPC   C1B32383   4.028  40.795   8.657
 2388POPC   C2B32384   4.254  40.580   8.308
 2388POPC   C3B32385   4.354  40.467   7.864
 2388POPC   C4B32386   4.419  40.626   7.495
 2389POPC   NC332387  31.759   7.512   9.582
 2389POPC   PO432388  31.158   7.540   9.773
 2389POPC   GL132389  31.386   7.529   9.257
 2389POPC   GL232390  31.546   7.198   9.192
 2389POPC   C1A32391  31.347   7.481   8.796
 2389POPC   D2A32392  31.557   7.615   8.421
 2389POPC   C3A32393  31.324   7.484   8.074
 2389POPC   C4A32394  31.415   7.576   7.666
 2389POPC   C1B32395  31.672   6.946   8.839
 2389POPC   C2B32396  31.616   7.086   8.394
 2389POPC   C3B32397  31.594   7.080   7.952
 2389POPC   C4B32398  31.652   7.134   7.508
 2390POPC   NC332399  13.999   1.697   9.554
 2390POPC   PO432400  13.458   2.063   9.626
 2390POPC   GL132401  13.639   2.028   9.247
 2390POPC   GL232402  14.007   2.146   9.329
 2390POPC   C1A32403  13.539   1.852   8.828
 2390POPC   D2A32404  13.476   2.062   8.437
 2390POPC   C3A32405  13.619   1.896   8.058
 2390POPC   C4A32406  13.467   2.107   7.735
 2390POPC   C1B32407  14.015   2.015   8.917
 2390POPC   C2B32408  13.976   1.950   8.487
 2390POPC   C3B32409  14.039   2.217   8.145
 2390POPC   C4B32410  13.974   2.128   7.742
 2391POPC   NC332411  29.899   5.290   9.494
 2391POPC   PO432412  29.290   5.500   9.485
 2391POPC   GL132413  29.561   5.418   9.127
 2391POPC   GL232414  29.782   5.076   9.057
 2391POPC   C1A32415  29.511   5.277   8.708
 2391POPC   D2A32416  29.827   5.122   8.429
 2391POPC   C3A32417  29.693   5.164   7.993
 2391POPC   C4A32418  29.961   5.294   7.659
 2391POPC   C1B32419  30.185   5.061   8.829
 2391POPC   C2B32420  30.464   5.097   8.484
 2391POPC   C3B32421  30.245   5.144   8.112
 2391POPC   C4B32422  30.096   4.827   7.836
 2392POPC   NC332423   3.030  41.430   9.793
 2392POPC   PO432424   2.525  41.625   9.528
 2392POPC   GL132425   2.719  41.684   9.150
 2392POPC   GL232426   3.056  41.596   9.186
 2392POPC   C1A32427   2.771  41.671   8.710
 2392POPC   D2A32428   2.853  41.692   8.238
 2392POPC   C3A32429   2.582  41.470   7.933
 2392POPC   C4A32430   2.782  41.782   7.685
 2392POPC   C1B32431   3.110  41.290   8.851
 2392POPC   C2B32432   2.905  41.242   8.494
 2392POPC   C3B32433   3.007  41.224   8.094
 2392POPC   C4B32434   3.007  41.310   7.695
 2393POPC   NC332435  13.300  14.280   9.768
 2393POPC   PO432436  12.965  14.699   9.329
 2393POPC   GL132437  12.794  14.391   9.015
 2393POPC   GL232438  12.574  14.099   9.122
 2393POPC   C1A32439  12.904  14.362   8.607
 2393POPC   D2A32440  13.171  14.633   8.384
 2393POPC   C3A32441  13.170  14.456   8.008
 2393POPC   C4A32442  12.849  14.461   7.719
 2393POPC   C1B32443  12.443  14.116   8.702
 2393POPC   C2B32444  12.612  13.963   8.305
 2393POPC   C3B32445  12.574  14.054   7.862
 2393POPC   C4B32446  12.519  14.188   7.433
 2394POPC   NC332447   7.484  18.849   9.510
 2394POPC   PO432448   7.278  19.417   9.418
 2394POPC   GL132449   7.299  19.149   9.103
 2394POPC   GL232450   7.637  19.161   9.097
 2394POPC   C1A32451   7.363  19.096   8.666
 2394POPC   D2A32452   7.181  19.297   8.330
 2394POPC   C3A32453   7.273  18.992   8.028
 2394POPC   C4A32454   7.231  18.960   7.611
 2394POPC   C1B32455   7.787  19.369   8.733
 2394POPC   C2B32456   7.682  19.407   8.308
 2394POPC   C3B32457   7.764  19.394   7.883
 2394POPC   C4B32458   7.693  19.193   7.493
 2395POPC   NC332459  43.566  42.374   9.531
 2395POPC   PO432460  44.163  42.060   9.548
 2395POPC   GL132461  43.954  42.318   9.209
 2395POPC   GL232462  44.145  42.624   9.180
 2395POPC   C1A32463  43.772  42.492   8.821
 2395POPC   D2A32464  43.880  42.665   8.390
 2395POPC   C3A32465  43.758  42.512   7.983
 2395POPC   C4A32466  43.447  42.705   7.701
 2395POPC   C1B32467  44.279  42.502   8.740
 2395POPC   C2B32468  44.306  42.402   8.288
 2395POPC   C3B32469  44.270  42.448   7.833
 2395POPC   C4B32470  44.205  42.149   7.481
 2396POPC   NC332471  15.321   6.172   9.846
 2396POPC   PO432472  15.366   6.725   9.401
 2396POPC   GL132473  15.136   6.692   9.052
 2396POPC   GL232474  14.887   6.916   9.002
 2396POPC   C1A32475  15.285   6.785   8.663
 2396POPC   D2A32476  15.350   7.052   8.314
 2396POPC   C3A32477  15.418   6.733   8.048
 2396POPC   C4A32478  15.358   6.691   7.663
 2396POPC   C1B32479  14.769   6.863   8.623
 2396POPC   C2B32480  14.959   6.715   8.280
 2396POPC   C3B32481  14.913   6.864   7.911
 2396POPC   C4B32482  14.557   7.080   7.755
 2397POPC   NC332483   8.464  42.853   9.491
 2397POPC   PO432484   7.820  43.015   9.759
 2397POPC   GL132485   8.024  42.969   9.280
 2397POPC   GL232486   8.166  43.241   9.125
 2397POPC   C1A32487   8.259  42.824   8.833
 2397POPC   D2A32488   8.378  42.974   8.402
 2397POPC   C3A32489   8.206  42.788   8.006
 2397POPC   C4A32490   8.371  42.732   7.561
 2397POPC   C1B32491   7.871  43.132   8.795
 2397POPC   C2B32492   7.873  43.053   8.368
 2397POPC   C3B32493   7.968  43.230   7.983
 2397POPC   C4B32494   7.992  43.053   7.609
 2398POPC   NC332495  44.438  36.272   9.613
 2398POPC   PO432496  44.988  36.260   9.238
 2398POPC   GL132497  44.598  36.069   9.171
 2398POPC   GL232498  44.310  36.291   9.135
 2398POPC   C1A32499  44.518  35.946   8.768
 2398POPC   D2A32500  44.756  35.987   8.407
 2398POPC   C3A32501  44.561  35.893   8.031
 2398POPC   C4A32502  44.792  36.040   7.674
 2398POPC   C1B32503  44.524  36.450   8.817
 2398POPC   C2B32504  44.560  36.487   8.398
 2398POPC   C3B32505  44.518  36.413   7.960
 2398POPC   C4B32506  44.288  36.147   7.677
 2399POPC   NC332507  44.106  12.564   9.810
 2399POPC   PO432508  44.585  12.973   9.669
 2399POPC   GL132509  44.650  12.727   9.280
 2399POPC   GL232510  44.307  12.739   9.192
 2399POPC   C1A32511  44.689  12.888   8.865
 2399POPC   D2A32512  44.504  12.933   8.455
 2399POPC   C3A32513  44.753  12.856   8.113
 2399POPC   C4A32514  44.608  12.907   7.729
 2399POPC   C1B32515  44.285  12.565   8.769
 2399POPC   C2B32516  44.210  12.506   8.320
 2399POPC   C3B32517  44.249  12.607   7.888
 2399POPC   C4B32518  44.329  12.614   7.394
 2400POPC   NC332519  30.206  30.370   9.568
 2400POPC   PO432520  29.682  30.070   9.535
 2400POPC   GL132521  29.778  29.890   9.086
 2400POPC   GL232522  30.089  29.689   9.149
 2400POPC   C1A32523  29.804  29.971   8.587
 2400POPC   D2A32524  29.882  30.196   8.174
 2400POPC   C3A32525  29.848  29.960   7.809
 2400POPC   C4A32526  29.691  29.952   7.370
 2400POPC   C1B32527  30.264  29.770   8.729
 2400POPC   C2B32528  30.178  29.764   8.270
 2400POPC   C3B32529  30.332  29.848   7.847
 2400POPC   C4B32530  30.102  29.636   7.517
 2401POPC   NC332531  34.173  37.219   9.431
 2401POPC   PO432532  34.609  37.592   9.587
 2401POPC   GL132533  34.412  37.657   9.194
 2401POPC   GL232534  34.355  38.020   9.201
 2401POPC   C1A32535  34.563  37.561   8.774
 2401POPC   D2A32536  34.786  37.516   8.384
 2401POPC   C3A32537  34.531  37.277   8.116
 2401POPC   C4A32538  34.323  37.505   7.804
 2401POPC   C1B32539  34.530  38.079   8.816
 2401POPC   C2B32540  34.477  37.944   8.396
 2401POPC   C3B32541  34.602  37.897   7.976
 2401POPC   C4B32542  34.595  37.857   7.500
 2402POPC   NC332543  25.404  38.995   9.394
 2402POPC   PO432544  24.913  39.501   9.591
 2402POPC   GL132545  25.154  39.408   9.154
 2402POPC   GL232546  25.128  39.074   8.922
 2402POPC   C1A32547  25.185  39.519   8.699
 2402POPC   D2A32548  25.322  39.241   8.363
 2402POPC   C3A32549  25.123  39.333   8.002
 2402POPC   C4A32550  24.967  39.291   7.610
 2402POPC   C1B32551  25.549  38.999   8.753
 2402POPC   C2B32552  25.672  38.756   8.381
 2402POPC   C3B32553  25.610  38.981   7.979
 2402POPC   C4B32554  25.432  39.068   7.547
 2403POPC   NC332555  27.043  17.249   9.649
 2403POPC   PO432556  27.071  16.581   9.603
 2403POPC   GL132557  26.847  16.637   9.203
 2403POPC   GL232558  26.493  16.696   9.249
 2403POPC   C1A32559  26.866  16.892   8.823
 2403POPC   D2A32560  27.073  16.899   8.409
 2403POPC   C3A32561  26.825  16.994   8.077
 2403POPC   C4A32562  26.623  16.781   7.764
 2403POPC   C1B32563  26.412  16.638   8.793
 2403POPC   C2B32564  26.597  16.637   8.379
 2403POPC   C3B32565  26.503  16.364   8.034
 2403POPC   C4B32566  26.162  16.446   7.756
 2404POPC   NC332567  21.866  23.934   9.552
 2404POPC   PO432568  22.529  23.604   9.601
 2404POPC   GL132569  22.322  23.567   9.217
 2404POPC   GL232570  22.004  23.696   9.138
 2404POPC   C1A32571  22.458  23.800   8.853
 2404POPC   D2A32572  22.587  23.989   8.454
 2404POPC   C3A32573  22.368  23.770   8.110
 2404POPC   C4A32574  22.336  23.573   7.734
 2404POPC   C1B32575  21.978  24.014   8.827
 2404POPC   C2B32576  21.798  23.930   8.427
 2404POPC   C3B32577  21.883  23.933   8.008
 2404POPC   C4B32578  21.838  23.587   7.717
 2405POPC   NC332579  27.112  18.523   9.642
 2405POPC   PO432580  27.639  18.149   9.462
 2405POPC   GL132581  27.410  18.372   9.219
 2405POPC   GL232582  27.353  18.056   9.033
 2405POPC   C1A32583  27.547  18.499   8.825
 2405POPC   D2A32584  27.488  18.268   8.435
 2405POPC   C3A32585  27.526  18.555   8.113
 2405POPC   C4A32586  27.406  18.534   7.697
 2405POPC   C1B32587  27.769  18.009   8.788
 2405POPC   C2B32588  27.987  18.085   8.373
 2405POPC   C3B32589  27.784  18.147   7.950
 2405POPC   C4B32590  27.757  18.104   7.475
 2406POPC   NC332591  33.406  15.027   9.571
 2406POPC   PO432592  32.766  15.219   9.471
 2406POPC   GL132593  32.868  15.214   9.055
 2406POPC   GL232594  33.208  15.124   9.082
 2406POPC   C1A32595  32.674  15.129   8.643
 2406POPC   D2A32596  32.800  15.077   8.212
 2406POPC   C3A32597  32.753  15.146   7.776
 2406POPC   C4A32598  32.881  15.501   7.527
 2406POPC   C1B32599  33.163  15.077   8.641
 2406POPC   C2B32600  33.183  14.762   8.354
 2406POPC   C3B32601  33.221  14.932   7.952
 2406POPC   C4B32602  33.222  15.078   7.558
 2407POPC   NC332603  20.231  40.505   9.476
 2407POPC   PO432604  19.983  41.147   9.459
 2407POPC   GL132605  19.936  40.828   9.154
 2407POPC   GL232606  19.841  40.429   9.145
 2407POPC   C1A32607  19.727  40.844   8.761
 2407POPC   D2A32608  19.527  40.705   8.380
 2407POPC   C3A32609  19.761  40.781   8.010
 2407POPC   C4A32610  19.788  40.495   7.699
 2407POPC   C1B32611  20.173  40.530   8.816
 2407POPC   C2B32612  20.128  40.715   8.421
 2407POPC   C3B32613  20.255  40.558   8.044
 2407POPC   C4B32614  20.260  40.312   7.673
 2408POPC   NC332615   3.127  28.708   9.456
 2408POPC   PO432616   2.749  28.127   9.431
 2408POPC   GL132617   2.955  28.236   9.077
 2408POPC   GL232618   2.794  28.556   9.039
 2408POPC   C1A32619   3.000  28.311   8.647
 2408POPC   D2A32620   2.776  28.569   8.396
 2408POPC   C3A32621   2.939  28.538   8.003
 2408POPC   C4A32622   2.997  28.166   7.726
 2408POPC   C1B32623   2.505  28.304   8.770
 2408POPC   C2B32624   2.426  28.202   8.357
 2408POPC   C3B32625   2.467  28.338   7.964
 2408POPC   C4B32626   2.586  28.418   7.563
 2409POPC   NC332627  42.743   5.667   9.467
 2409POPC   PO432628  42.070   5.666   9.383
 2409POPC   GL132629  42.208   5.922   9.065
 2409POPC   GL232630  42.550   5.901   9.053
 2409POPC   C1A32631  42.267   5.908   8.618
 2409POPC   D2A32632  42.045   5.843   8.274
 2409POPC   C3A32633  42.207   5.844   7.907
 2409POPC   C4A32634  42.115   5.522   7.671
 2409POPC   C1B32635  42.736   6.086   8.690
 2409POPC   C2B32636  42.833   5.950   8.290
 2409POPC   C3B32637  42.699   5.885   7.864
 2409POPC   C4B32638  42.524   5.738   7.484
 2410POPC   NC332639  30.410  27.203   9.692
 2410POPC   PO432640  30.855  26.719   9.673
 2410POPC   GL132641  30.717  26.861   9.254
 2410POPC   GL232642  30.347  26.943   9.226
 2410POPC   C1A32643  30.719  26.710   8.814
 2410POPC   D2A32644  30.495  26.664   8.414
 2410POPC   C3A32645  30.679  26.714   8.018
 2410POPC   C4A32646  31.012  26.875   7.773
 2410POPC   C1B32647  30.267  26.976   8.764
 2410POPC   C2B32648  30.404  27.172   8.360
 2410POPC   C3B32649  30.335  27.085   7.905
 2410POPC   C4B32650  30.537  26.885   7.559
 2411POPC   NC332651   2.750  27.671   9.468
 2411POPC   PO432652   3.166  27.256   9.171
 2411POPC   GL132653   2.914  27.683   8.984
 2411POPC   GL232654   2.542  27.869   9.047
 2411POPC   C1A32655   2.748  27.864   8.588
 2411POPC   D2A32656   2.897  28.056   8.209
 2411POPC   C3A32657   3.007  27.708   7.945
 2411POPC   C4A32658   2.807  27.321   7.865
 2411POPC   C1B32659   2.445  27.489   8.850
 2411POPC   C2B32660   2.534  27.390   8.433
 2411POPC   C3B32661   2.492  27.698   8.107
 2411POPC   C4B32662   2.327  27.481   7.775
 2412POPC   NC332663  43.298   5.718   9.917
 2412POPC   PO432664  42.925   6.097   9.517
 2412POPC   GL132665  43.039   6.037   9.105
 2412POPC   GL232666  43.206   5.740   9.201
 2412POPC   C1A32667  43.243   6.025   8.701
 2412POPC   D2A32668  43.399   5.992   8.294
 2412POPC   C3A32669  43.175   6.053   7.909
 2412POPC   C4A32670  42.949   6.393   7.742
 2412POPC   C1B32671  42.953   5.628   8.835
 2412POPC   C2B32672  43.131   5.561   8.437
 2412POPC   C3B32673  42.996   5.516   8.032
 2412POPC   C4B32674  43.016   5.625   7.594
 2413POPC   NC332675  41.160   9.652   9.590
 2413POPC   PO432676  41.793   9.915   9.734
 2413POPC   GL132677  41.616   9.856   9.282
 2413POPC   GL232678  41.897   9.619   9.202
 2413POPC   C1A32679  41.572   9.759   8.807
 2413POPC   D2A32680  41.309   9.723   8.430
 2413POPC   C3A32681  41.296  10.012   8.079
 2413POPC   C4A32682  41.305   9.906   7.655
 2413POPC   C1B32683  41.917   9.366   8.830
 2413POPC   C2B32684  41.879   9.523   8.407
 2413POPC   C3B32685  41.632   9.634   8.018
 2413POPC   C4B32686  41.720   9.588   7.586
 2414POPC   NC332687  39.457  16.314   9.348
 2414POPC   PO432688  39.368  16.943   9.634
 2414POPC   GL132689  39.265  16.793   9.257
 2414POPC   GL232690  38.942  16.725   9.346
 2414POPC   C1A32691  39.450  16.671   8.837
 2414POPC   D2A32692  39.522  16.428   8.505
 2414POPC   C3A32693  39.563  16.568   8.056
 2414POPC   C4A32694  39.404  16.716   7.615
 2414POPC   C1B32695  38.991  16.853   8.854
 2414POPC   C2B32696  39.125  16.749   8.425
 2414POPC   C3B32697  39.056  16.765   7.965
 2414POPC   C4B32698  38.930  16.556   7.502
 2415POPC   NC332699  19.425  35.506   9.374
 2415POPC   PO432700  18.911  35.027   9.417
 2415POPC   GL132701  19.023  35.299   9.133
 2415POPC   GL232702  19.311  35.153   9.048
 2415POPC   C1A32703  19.127  35.549   8.767
 2415POPC   D2A32704  19.084  35.784   8.410
 2415POPC   C3A32705  18.935  35.516   8.091
 2415POPC   C4A32706  19.043  35.403   7.694
 2415POPC   C1B32707  19.125  35.028   8.700
 2415POPC   C2B32708  19.213  35.178   8.344
 2415POPC   C3B32709  19.102  35.002   7.991
 2415POPC   C4B32710  19.277  34.933   7.622
 2416POPC   NC332711   0.242  34.868   9.431
 2416POPC   PO432712   0.790  35.199   9.461
 2416POPC   GL132713   0.595  35.509   9.182
 2416POPC   GL232714   0.252  35.378   9.177
 2416POPC   C1A32715   0.428  35.594   8.745
 2416POPC   D2A32716   0.302  35.365   8.369
 2416POPC   C3A32717   0.522  35.438   7.973
 2416POPC   C4A32718   0.482  35.725   7.629
 2416POPC   C1B32719   0.134  35.106   8.790
 2416POPC   C2B32720  44.937  35.014   8.368
 2416POPC   C3B32721   0.090  35.113   7.978
 2416POPC   C4B32722   0.212  35.295   7.581
 2417POPC   NC332723  14.089  16.951   9.539
 2417POPC   PO432724  13.494  16.581   9.652
 2417POPC   GL132725  13.714  16.713   9.232
 2417POPC   GL232726  13.439  16.844   9.023
 2417POPC   C1A32727  13.913  16.784   8.821
 2417POPC   D2A32728  13.727  16.737   8.426
 2417POPC   C3A32729  13.961  16.796   8.061
 2417POPC   C4A32730  13.919  16.595   7.667
 2417POPC   C1B32731  13.537  17.159   8.696
 2417POPC   C2B32732  13.552  17.178   8.243
 2417POPC   C3B32733  13.512  16.883   7.872
 2417POPC   C4B32734  13.478  16.887   7.415
 2418POPC   NC332735   4.850  33.430   9.566
 2418POPC   PO432736   5.059  32.771   9.512
 2418POPC   GL132737   4.899  32.986   9.163
 2418POPC   GL232738   5.169  33.182   9.147
 2418POPC   C1A32739   5.013  32.929   8.722
 2418POPC   D2A32740   5.177  33.057   8.343
 2418POPC   C3A32741   5.009  32.965   7.957
 2418POPC   C4A32742   5.180  32.682   7.694
 2418POPC   C1B32743   5.284  33.367   8.760
 2418POPC   C2B32744   5.403  33.493   8.334
 2418POPC   C3B32745   5.441  33.296   7.953
 2418POPC   C4B32746   5.313  33.193   7.572
 2419POPC   NC332747  28.730  35.294   9.407
 2419POPC   PO432748  28.254  35.622   9.720
 2419POPC   GL132749  28.124  35.485   9.296
 2419POPC   GL232750  28.370  35.318   9.054
 2419POPC   C1A32751  28.035  35.595   8.821
 2419POPC   D2A32752  27.927  35.384   8.414
 2419POPC   C3A32753  28.161  35.397   8.030
 2419POPC   C4A32754  28.159  35.226   7.635
 2419POPC   C1B32755  28.562  35.270   8.632
 2419POPC   C2B32756  28.751  35.399   8.265
 2419POPC   C3B32757  28.693  35.314   7.877
 2419POPC   C4B32758  28.571  35.534   7.550
 2420POPC   NC332759  44.710  40.459   9.666
 2420POPC   PO432760  44.736  39.768   9.688
 2420POPC   GL132761  44.516  39.788   9.255
 2420POPC   GL232762  44.159  39.622   9.256
 2420POPC   C1A32763  44.645  39.956   8.808
 2420POPC   D2A32764  44.822  39.826   8.385
 2420POPC   C3A32765  44.877  40.090   8.016
 2420POPC   C4A32766  44.919  39.966   7.571
 2420POPC   C1B32767  44.164  39.770   8.841
 2420POPC   C2B32768  44.403  39.587   8.519
 2420POPC   C3B32769  44.269  39.755   8.150
 2420POPC   C4B32770  44.470  39.879   7.808
 2421POPC   NC332771  40.658  13.859   9.524
 2421POPC   PO432772  40.378  14.383   9.419
 2421POPC   GL132773  40.749  14.314   9.171
 2421POPC   GL232774  40.952  13.998   9.124
 2421POPC   C1A32775  40.717  14.248   8.732
 2421POPC   D2A32776  40.593  14.319   8.308
 2421POPC   C3A32777  40.710  14.655   8.056
 2421POPC   C4A32778  41.018  14.720   7.763
 2421POPC   C1B32779  41.202  14.058   8.779
 2421POPC   C2B32780  41.050  14.050   8.367
 2421POPC   C3B32781  41.076  14.278   7.984
 2421POPC   C4B32782  40.985  14.267   7.515
 2422POPC   NC332783  37.172  35.021   9.500
 2422POPC   PO432784  36.777  35.477   9.774
 2422POPC   GL132785  36.891  35.438   9.269
 2422POPC   GL232786  36.945  35.146   9.047
 2422POPC   C1A32787  36.644  35.521   8.865
 2422POPC   D2A32788  36.483  35.342   8.474
 2422POPC   C3A32789  36.779  35.376   8.127
 2422POPC   C4A32790  36.762  35.511   7.699
 2422POPC   C1B32791  36.965  35.218   8.595
 2422POPC   C2B32792  37.156  35.020   8.235
 2422POPC   C3B32793  37.011  35.025   7.846
 2422POPC   C4B32794  36.927  35.065   7.469
 2423POPC   NC332795  17.271   4.668   9.580
 2423POPC   PO432796  17.937   4.434   9.411
 2423POPC   GL132797  17.655   4.322   9.100
 2423POPC   GL232798  17.297   4.293   9.191
 2423POPC   C1A32799  17.503   4.263   8.698
 2423POPC   D2A32800  17.608   4.246   8.310
 2423POPC   C3A32801  17.437   4.490   7.986
 2423POPC   C4A32802  17.787   4.353   7.805
 2423POPC   C1B32803  17.173   3.934   8.915
 2423POPC   C2B32804  17.241   3.878   8.476
 2423POPC   C3B32805  17.190   4.011   8.026
 2423POPC   C4B32806  17.007   3.856   7.641
 2424POPC   NC332807  40.128  30.390   9.428
 2424POPC   PO432808  40.144  31.047   9.494
 2424POPC   GL132809  40.081  30.883   9.101
 2424POPC   GL232810  39.855  30.627   9.069
 2424POPC   C1A32811  39.868  30.970   8.708
 2424POPC   D2A32812  39.812  30.906   8.277
 2424POPC   C3A32813  40.038  30.679   7.994
 2424POPC   C4A32814  39.758  30.813   7.669
 2424POPC   C1B32815  39.803  30.392   8.724
 2424POPC   C2B32816  39.681  30.415   8.314
 2424POPC   C3B32817  39.698  30.302   7.883
 2424POPC   C4B32818  39.577  30.382   7.470
 2425POPC   NC332819   7.247  30.266   9.627
 2425POPC   PO432820   7.540  29.735   9.392
 2425POPC   GL132821   7.259  29.948   9.147
 2425POPC   GL232822   7.456  30.135   9.039
 2425POPC   C1A32823   7.101  29.856   8.731
 2425POPC   D2A32824   7.244  29.656   8.353
 2425POPC   C3A32825   7.122  29.919   8.021
 2425POPC   C4A32826   7.266  29.965   7.577
 2425POPC   C1B32827   7.624  29.819   8.745
 2425POPC   C2B32828   7.840  29.861   8.372
 2425POPC   C3B32829   7.648  29.899   7.981
 2425POPC   C4B32830   7.767  29.864   7.572
 2426POPC   NC332831   0.939   8.452   9.425
 2426POPC   PO432832   1.558   8.138   9.444
 2426POPC   GL132833   1.366   8.344   9.120
 2426POPC   GL232834   1.114   8.120   9.074
 2426POPC   C1A32835   1.231   8.453   8.694
 2426POPC   D2A32836   1.091   8.624   8.313
 2426POPC   C3A32837   1.129   8.396   7.932
 2426POPC   C4A32838   1.376   8.203   7.683
 2426POPC   C1B32839   0.875   8.038   8.706
 2426POPC   C2B32840   0.946   8.073   8.265
 2426POPC   C3B32841   0.814   7.958   7.841
 2426POPC   C4B32842   0.729   7.715   7.453
 2427POPC   NC332843   6.343  33.005   9.601
 2427POPC   PO432844   6.851  32.476   9.477
 2427POPC   GL132845   6.658  32.840   9.189
 2427POPC   GL232846   6.566  33.246   9.179
 2427POPC   C1A32847   6.790  32.993   8.784
 2427POPC   D2A32848   6.983  32.807   8.447
 2427POPC   C3A32849   6.802  32.922   8.107
 2427POPC   C4A32850   6.531  32.679   7.857
 2427POPC   C1B32851   6.541  33.455   8.768
 2427POPC   C2B32852   6.552  33.312   8.339
 2427POPC   C3B32853   6.444  33.497   7.940
 2427POPC   C4B32854   6.197  33.508   7.564
 2428POPC   NC332855  19.902   7.029   9.770
 2428POPC   PO432856  19.993   6.729   9.197
 2428POPC   GL132857  19.781   6.555   8.943
 2428POPC   GL232858  19.558   6.794   8.859
 2428POPC   C1A32859  20.031   6.444   8.589
 2428POPC   D2A32860  20.295   6.694   8.361
 2428POPC   C3A32861  20.214   6.686   7.928
 2428POPC   C4A32862  19.941   6.440   7.673
 2428POPC   C1B32863  19.840   6.946   8.568
 2428POPC   C2B32864  19.659   6.959   8.190
 2428POPC   C3B32865  19.478   6.787   7.830
 2428POPC   C4B32866  19.640   6.769   7.442
 2429POPC   NC332867   5.751  44.992   9.579
 2429POPC   PO432868   5.643  44.344   9.463
 2429POPC   GL132869   5.906  44.535   9.161
 2429POPC   GL232870   5.679  44.764   9.091
 2429POPC   C1A32871   5.883  44.623   8.682
 2429POPC   D2A32872   5.996  44.832   8.359
 2429POPC   C3A32873   5.978  44.583   8.068
 2429POPC   C4A32874   5.836  44.460   7.709
 2429POPC   C1B32875   5.614   0.062   8.706
 2429POPC   C2B32876   5.572   0.099   8.266
 2429POPC   C3B32877   5.643  44.951   7.868
 2429POPC   C4B32878   5.683   0.159   7.448
 2430POPC   NC332879  14.500  36.605   9.221
 2430POPC   PO432880  14.398  36.028   9.610
 2430POPC   GL132881  14.254  35.921   9.130
 2430POPC   GL232882  14.383  36.171   8.917
 2430POPC   C1A32883  14.194  35.784   8.654
 2430POPC   D2A32884  14.426  36.081   8.417
 2430POPC   C3A32885  14.279  36.216   8.076
 2430POPC   C4A32886  14.419  36.364   7.726
 2430POPC   C1B32887  14.131  36.447   8.632
 2430POPC   C2B32888  14.145  36.680   8.256
 2430POPC   C3B32889  13.952  36.581   7.857
 2430POPC   C4B32890  14.130  36.627   7.378
 2431POPC   NC332891  33.453  33.491   9.449
 2431POPC   PO432892  33.028  32.946   9.577
 2431POPC   GL132893  32.968  33.004   9.146
 2431POPC   GL232894  32.803  33.302   9.152
 2431POPC   C1A32895  33.116  32.991   8.713
 2431POPC   D2A32896  33.293  33.036   8.292
 2431POPC   C3A32897  33.005  32.873   7.982
 2431POPC   C4A32898  33.151  33.152   7.690
 2431POPC   C1B32899  32.630  33.211   8.764
 2431POPC   C2B32900  32.774  33.167   8.361
 2431POPC   C3B32901  32.740  33.325   7.980
 2431POPC   C4B32902  32.687  33.142   7.547
 2432POPC   NC332903  35.980  30.258   9.494
 2432POPC   PO432904  36.540  29.876   9.570
 2432POPC   GL132905  36.409  30.068   9.145
 2432POPC   GL232906  36.080  30.016   9.064
 2432POPC   C1A32907  36.359  30.058   8.674
 2432POPC   D2A32908  36.192  29.754   8.427
 2432POPC   C3A32909  36.458  29.887   8.166
 2432POPC   C4A32910  36.293  30.104   7.889
 2432POPC   C1B32911  35.891  30.253   8.734
 2432POPC   C2B32912  35.949  30.194   8.315
 2432POPC   C3B32913  35.795  30.126   7.939
 2432POPC   C4B32914  35.893  30.392   7.634
 2433POPC   NC332915  17.452   7.098   9.595
 2433POPC   PO432916  16.990   7.407   9.579
 2433POPC   GL132917  17.277   7.333   9.191
 2433POPC   GL232918  17.640   7.306   9.173
 2433POPC   C1A32919  17.307   7.205   8.777
 2433POPC   D2A32920  17.384   7.498   8.423
 2433POPC   C3A32921  17.278   7.366   8.025
 2433POPC   C4A32922  17.440   7.345   7.616
 2433POPC   C1B32923  17.767   7.473   8.782
 2433POPC   C2B32924  17.902   7.516   8.352
 2433POPC   C3B32925  17.799   7.519   7.930
 2433POPC   C4B32926  17.954   7.188   7.642
 2434POPC   NC332927  36.900   7.147   9.575
 2434POPC   PO432928  37.173   7.731   9.612
 2434POPC   GL132929  37.016   7.574   9.211
 2434POPC   GL232930  36.816   7.279   9.102
 2434POPC   C1A32931  37.111   7.572   8.762
 2434POPC   D2A32932  36.907   7.765   8.415
 2434POPC   C3A32933  36.829   7.582   8.008
 2434POPC   C4A32934  37.087   7.631   7.671
 2434POPC   C1B32935  36.633   7.318   8.715
 2434POPC   C2B32936  36.785   7.189   8.329
 2434POPC   C3B32937  36.762   7.055   7.906
 2434POPC   C4B32938  36.728   7.297   7.540
 2435POPC   NC332939  19.666  25.261   9.568
 2435POPC   PO432940  20.131  25.644   9.193
 2435POPC   GL132941  19.879  25.345   9.111
 2435POPC   GL232942  19.558  25.462   9.122
 2435POPC   C1A32943  19.916  25.138   8.749
 2435POPC   D2A32944  20.107  25.070   8.365
 2435POPC   C3A32945  19.916  25.275   8.021
 2435POPC   C4A32946  20.046  25.343   7.595
 2435POPC   C1B32947  19.728  25.640   8.698
 2435POPC   C2B32948  19.756  25.754   8.230
 2435POPC   C3B32949  19.695  25.677   7.778
 2435POPC   C4B32950  19.581  25.438   7.376
 2436POPC   NC332951  40.528  39.529   9.532
 2436POPC   PO432952  40.690  38.965   9.748
 2436POPC   GL132953  40.638  39.125   9.258
 2436POPC   GL232954  40.813  39.430   9.064
 2436POPC   C1A32955  40.523  39.089   8.831
 2436POPC   D2A32956  40.485  39.328   8.462
 2436POPC   C3A32957  40.752  39.135   8.154
 2436POPC   C4A32958  40.743  39.278   7.755
 2436POPC   C1B32959  40.984  39.291   8.612
 2436POPC   C2B32960  41.248  39.213   8.226
 2436POPC   C3B32961  41.218  39.445   7.835
 2436POPC   C4B32962  40.986  39.806   7.662
 2437POPC   NC332963  34.325   7.676   9.718
 2437POPC   PO432964  34.673   7.167   9.572
 2437POPC   GL132965  34.593   7.292   9.176
 2437POPC   GL232966  34.392   7.570   9.219
 2437POPC   C1A32967  34.728   7.191   8.765
 2437POPC   D2A32968  34.830   7.405   8.392
 2437POPC   C3A32969  34.579   7.432   8.045
 2437POPC   C4A32970  34.506   7.133   7.709
 2437POPC   C1B32971  34.580   7.685   8.830
 2437POPC   C2B32972  34.361   7.671   8.460
 2437POPC   C3B32973  34.329   7.902   8.091
 2437POPC   C4B32974  34.632   7.903   7.780
 2438POPC   NC332975  20.174  35.296   9.581
 2438POPC   PO432976  19.618  34.934   9.441
 2438POPC   GL132977  19.809  35.209   9.120
 2438POPC   GL232978  19.940  35.528   9.171
 2438POPC   C1A32979  19.640  35.437   8.740
 2438POPC   D2A32980  19.550  35.611   8.320
 2438POPC   C3A32981  19.526  35.336   7.937
 2438POPC   C4A32982  19.581  35.337   7.491
 2438POPC   C1B32983  20.112  35.674   8.808
 2438POPC   C2B32984  20.057  35.609   8.398
 2438POPC   C3B32985  19.969  35.681   8.007
 2438POPC   C4B32986  20.021  35.364   7.727
 2439POPC   NC332987  38.181  37.037   9.422
 2439POPC   PO432988  38.715  36.673   9.661
 2439POPC   GL132989  38.650  36.858   9.240
 2439POPC   GL232990  38.607  37.252   9.205
 2439POPC   C1A32991  38.669  36.897   8.815
 2439POPC   D2A32992  38.844  37.197   8.600
 2439POPC   C3A32993  38.833  37.101   8.147
 2439POPC   C4A32994  38.706  36.824   7.801
 2439POPC   C1B32995  38.290  37.234   8.833
 2439POPC   C2B32996  38.269  36.981   8.454
 2439POPC   C3B32997  38.239  37.027   8.000
 2439POPC   C4B32998  38.380  37.141   7.583
 2440POPC   NC332999  15.132  10.438   9.423
 2440POPC   PO433000  15.154  11.056   9.666
 2440POPC   GL133001  15.056  10.916   9.237
 2440POPC   GL233002  15.405  10.985   9.166
 2440POPC   C1A33003  15.057  10.662   8.818
 2440POPC   D2A33004  15.095  10.326   8.496
 2440POPC   C3A33005  15.057  10.454   8.065
 2440POPC   C4A33006  14.848  10.743   7.795
 2440POPC   C1B33007  15.513  10.869   8.743
 2440POPC   C2B33008  15.293  10.837   8.349
 2440POPC   C3B33009  15.342  10.866   7.899
 2440POPC   C4B33010  15.639  10.759   7.577
 2441POPC   NC333011   0.167  34.000   9.636
 2441POPC   PO433012  44.432  33.921   9.608
 2441POPC   GL133013  44.732  33.919   9.279
 2441POPC   GL233014  44.896  34.235   9.289
 2441POPC   C1A33015  44.696  33.743   8.852
 2441POPC   D2A33016  44.391  33.689   8.514
 2441POPC   C3A33017  44.513  33.764   8.076
 2441POPC   C4A33018  44.579  33.503   7.701
 2441POPC   C1B33019  44.972  34.163   8.858
 2441POPC   C2B33020  44.808  34.038   8.430
 2441POPC   C3B33021  44.946  34.055   7.990
 2441POPC   C4B33022  44.970  34.307   7.614
 2442POPC   NC333023   7.565  33.901   9.582
 2442POPC   PO433024   7.531  33.209   9.503
 2442POPC   GL133025   7.433  33.486   9.132
 2442POPC   GL233026   7.434  33.843   9.061
 2442POPC   C1A33027   7.552  33.515   8.687
 2442POPC   D2A33028   7.698  33.609   8.295
 2442POPC   C3A33029   7.491  33.479   7.906
 2442POPC   C4A33030   7.627  33.436   7.466
 2442POPC   C1B33031   7.197  33.918   8.654
 2442POPC   C2B33032   7.253  33.847   8.187
 2442POPC   C3B33033   7.413  33.964   7.743
 2442POPC   C4B33034   7.548  34.253   7.394
 2443POPC   NC333035   9.587  32.421   9.444
 2443POPC   PO433036  10.209  32.229   9.627
 2443POPC   GL133037   9.978  32.276   9.151
 2443POPC   GL233038   9.688  32.068   9.067
 2443POPC   C1A33039   9.851  32.291   8.658
 2443POPC   D2A33040   9.732  32.543   8.301
 2443POPC   C3A33041   9.803  32.393   7.873
 2443POPC   C4A33042  10.145  32.416   7.562
 2443POPC   C1B33043   9.374  32.048   8.719
 2443POPC   C2B33044   9.373  32.108   8.256
 2443POPC   C3B33045   9.485  31.976   7.821
 2443POPC   C4B33046   9.556  32.245   7.422
 2444POPC   NC333047  44.641  30.893   9.552
 2444POPC   PO433048   0.176  30.512   9.334
 2444POPC   GL133049  44.855  30.692   9.098
 2444POPC   GL233050  44.807  31.058   9.092
 2444POPC   C1A33051  44.771  30.526   8.689
 2444POPC   D2A33052   0.024  30.289   8.377
 2444POPC   C3A33053  44.932  30.488   8.003
 2444POPC   C4A33054  44.894  30.936   7.930
 2444POPC   C1B33055  44.423  30.877   8.895
 2444POPC   C2B33056  44.322  30.702   8.494
 2444POPC   C3B33057  44.448  30.752   8.054
 2444POPC   C4B33058  44.485  30.898   7.619
 2445POPC   NC333059  42.910   0.397   9.473
 2445POPC   PO433060  43.418  44.989   9.658
 2445POPC   GL133061  43.333   0.302   9.221
 2445POPC   GL233062  42.975   0.268   9.009
 2445POPC   C1A33063  43.289   0.556   8.765
 2445POPC   D2A33064  42.962   0.508   8.432
 2445POPC   C3A33065  43.061   0.383   8.034
 2445POPC   C4A33066  43.212   0.599   7.661
 2445POPC   C1B33067  42.824   0.048   8.667
 2445POPC   C2B33068  42.676   0.065   8.240
 2445POPC   C3B33069  42.757   0.039   7.777
 2445POPC   C4B33070  42.917   0.272   7.401
 2446POPC   NC333071  11.063  33.283   9.863
 2446POPC   PO433072  11.075  33.994   9.694
 2446POPC   GL133073  11.037  33.880   9.202
 2446POPC   GL233074  11.316  33.699   9.028
 2446POPC   C1A33075  10.905  33.872   8.795
 2446POPC   D2A33076  11.227  33.808   8.505
 2446POPC   C3A33077  11.048  33.576   8.173
 2446POPC   C4A33078  10.983  33.740   7.750
 2446POPC   C1B33079  11.570  33.461   8.713
 2446POPC   C2B33080  11.615  33.558   8.272
 2446POPC   C3B33081  11.426  33.868   8.010
 2446POPC   C4B33082  11.482  33.864   7.589
 2447POPC   NC333083  34.865  34.006   9.367
 2447POPC   PO433084  35.456  33.704   9.568
 2447POPC   GL133085  35.394  33.827   9.165
 2447POPC   GL233086  35.093  33.684   9.024
 2447POPC   C1A33087  35.535  33.734   8.735
 2447POPC   D2A33088  35.787  33.791   8.356
 2447POPC   C3A33089  35.569  33.955   8.006
 2447POPC   C4A33090  35.373  33.848   7.595
 2447POPC   C1B33091  35.099  34.015   8.767
 2447POPC   C2B33092  35.271  34.059   8.411
 2447POPC   C3B33093  35.062  33.944   8.014
 2447POPC   C4B33094  34.785  34.126   7.720
 2448POPC   NC333095  27.887  14.664   9.806
 2448POPC   PO433096  27.377  14.327   9.611
 2448POPC   GL133097  27.588  14.306   9.187
 2448POPC   GL233098  27.740  14.630   9.220
 2448POPC   C1A33099  27.804  14.315   8.757
 2448POPC   D2A33100  27.832  14.574   8.345
 2448POPC   C3A33101  27.804  14.333   7.930
 2448POPC   C4A33102  27.432  14.244   7.689
 2448POPC   C1B33103  27.519  14.713   8.849
 2448POPC   C2B33104  27.342  14.743   8.448
 2448POPC   C3B33105  27.387  14.611   8.027
 2448POPC   C4B33106  27.680  14.779   7.705
 2449POPC   NC333107  34.794  37.999   9.501
 2449POPC   PO433108  35.396  37.540   9.505
 2449POPC   GL133109  35.303  37.662   9.143
 2449POPC   GL233110  34.931  37.591   9.174
 2449POPC   C1A33111  35.510  37.540   8.776
 2449POPC   D2A33112  35.302  37.575   8.397
 2449POPC   C3A33113  35.425  37.400   8.015
 2449POPC   C4A33114  35.307  37.256   7.594
 2449POPC   C1B33115  34.990  37.834   8.789
 2449POPC   C2B33116  35.176  38.070   8.483
 2449POPC   C3B33117  35.318  37.933   8.043
 2449POPC   C4B33118  35.004  37.618   7.847
 2450POPC   NC333119  30.329   4.600   9.464
 2450POPC   PO433120  30.993   4.515   9.589
 2450POPC   GL133121  30.814   4.450   9.189
 2450POPC   GL233122  30.567   4.205   9.198
 2450POPC   C1A33123  31.015   4.351   8.811
 2450POPC   D2A33124  31.008   4.146   8.425
 2450POPC   C3A33125  30.913   4.366   8.037
 2450POPC   C4A33126  30.812   4.219   7.632
 2450POPC   C1B33127  30.541   4.211   8.778
 2450POPC   C2B33128  30.415   4.162   8.377
 2450POPC   C3B33129  30.585   3.981   8.037
 2450POPC   C4B33130  30.329   4.027   7.614
 2451POPC   NC333131  25.103   4.717   9.783
 2451POPC   PO433132  25.512   5.166   9.463
 2451POPC   GL133133  25.331   5.052   9.108
 2451POPC   GL233134  25.612   5.179   8.932
 2451POPC   C1A33135  25.278   4.861   8.710
 2451POPC   D2A33136  25.243   4.680   8.327
 2451POPC   C3A33137  25.277   4.984   8.000
 2451POPC   C4A33138  25.101   5.238   7.716
 2451POPC   C1B33139  25.590   5.492   8.600
 2451POPC   C2B33140  25.363   5.439   8.210
 2451POPC   C3B33141  25.396   5.628   7.812
 2451POPC   C4B33142  25.500   5.377   7.441
 2452POPC   NC333143  31.700  32.799   9.522
 2452POPC   PO433144  31.276  33.428   9.589
 2452POPC   GL133145  31.504  33.215   9.211
 2452POPC   GL233146  31.415  32.855   9.124
 2452POPC   C1A33147  31.427  33.176   8.728
 2452POPC   D2A33148  31.222  33.315   8.326
 2452POPC   C3A33149  31.469  33.157   7.965
 2452POPC   C4A33150  31.742  32.770   7.978
 2452POPC   C1B33151  31.246  32.674   8.744
 2452POPC   C2B33152  31.382  32.774   8.358
 2452POPC   C3B33153  31.216  32.727   7.969
 2452POPC   C4B33154  31.152  32.965   7.575
 2453POPC   NC333155  33.914  23.242   9.408
 2453POPC   PO433156  34.094  23.850   9.520
 2453POPC   GL133157  33.707  23.786   9.256
 2453POPC   GL233158  33.557  23.478   9.144
 2453POPC   C1A33159  33.572  23.990   8.875
 2453POPC   D2A33160  33.504  23.805   8.481
 2453POPC   C3A33161  33.755  23.998   8.152
 2453POPC   C4A33162  33.775  23.870   7.739
 2453POPC   C1B33163  33.730  23.407   8.714
 2453POPC   C2B33164  33.807  23.479   8.230
 2453POPC   C3B33165  34.055  23.459   7.842
 2453POPC   C4B33166  33.970  23.317   7.410
 2454POPC   NC333167  15.345  18.441   9.369
 2454POPC   PO433168  14.808  18.813   9.460
 2454POPC   GL133169  14.824  18.505   9.149
 2454POPC   GL233170  14.897  18.151   9.240
 2454POPC   C1A33171  15.031  18.478   8.784
 2454POPC   D2A33172  15.124  18.604   8.376
 2454POPC   C3A33173  14.856  18.487   8.031
 2454POPC   C4A33174  15.092  18.432   7.669
 2454POPC   C1B33175  15.049  17.916   8.865
 2454POPC   C2B33176  15.290  18.088   8.547
 2454POPC   C3B33177  15.163  18.094   8.150
 2454POPC   C4B33178  15.234  17.961   7.776
 2455POPC   NC333179  11.999  33.178   9.527
 2455POPC   PO433180  11.792  32.654   9.205
 2455POPC   GL133181  12.215  32.854   9.038
 2455POPC   GL233182  12.246  33.227   9.087
 2455POPC   C1A33183  12.302  32.990   8.589
 2455POPC   D2A33184  12.054  33.282   8.320
 2455POPC   C3A33185  11.763  33.058   8.066
 2455POPC   C4A33186  11.904  32.753   7.763
 2455POPC   C1B33187  12.294  33.486   8.754
 2455POPC   C2B33188  12.534  33.459   8.412
 2455POPC   C3B33189  12.350  33.525   7.984
 2455POPC   C4B33190  12.236  33.126   7.802
 2456POPC   NC333191  24.589  33.455   9.516
 2456POPC   PO433192  24.751  32.757   9.487
 2456POPC   GL133193  24.573  33.050   9.160
 2456POPC   GL233194  24.469  32.743   8.968
 2456POPC   C1A33195  24.545  33.164   8.695
 2456POPC   D2A33196  24.469  32.885   8.301
 2456POPC   C3A33197  24.631  33.019   7.877
 2456POPC   C4A33198  24.739  33.180   7.459
 2456POPC   C1B33199  24.126  32.630   8.682
 2456POPC   C2B33200  24.050  32.571   8.251
 2456POPC   C3B33201  24.304  32.590   7.861
 2456POPC   C4B33202  24.444  32.770   7.463
 2457POPC   NC333203  20.840   3.933   9.477
 2457POPC   PO433204  20.288   3.683   9.406
 2457POPC   GL133205  20.657   3.549   9.181
 2457POPC   GL233206  20.518   3.291   9.021
 2457POPC   C1A33207  20.819   3.609   8.754
 2457POPC   D2A33208  21.029   3.465   8.354
 2457POPC   C3A33209  20.948   3.723   8.014
 2457POPC   C4A33210  20.780   3.726   7.613
 2457POPC   C1B33211  20.319   3.515   8.703
 2457POPC   C2B33212  20.513   3.552   8.300
 2457POPC   C3B33213  20.374   3.652   7.901
 2457POPC   C4B33214  20.115   3.883   7.609
 2458POPC   NC333215  42.891   4.762   9.762
 2458POPC   PO433216  43.127   5.413   9.610
 2458POPC   GL133217  42.974   5.252   9.214
 2458POPC   GL233218  42.963   4.882   9.216
 2458POPC   C1A33219  43.129   5.164   8.792
 2458POPC   D2A33220  42.850   5.135   8.432
 2458POPC   C3A33221  43.018   5.007   8.074
 2458POPC   C4A33222  43.157   5.152   7.689
 2458POPC   C1B33223  42.949   4.705   8.773
 2458POPC   C2B33224  42.865   4.600   8.382
 2458POPC   C3B33225  42.583   4.729   8.098
 2458POPC   C4B33226  42.738   4.849   7.692
 2459POPC   NC333227  32.761  26.549   9.393
 2459POPC   PO433228  33.109  26.148   9.769
 2459POPC   GL133229  33.089  25.976   9.277
 2459POPC   GL233230  33.045  26.266   9.073
 2459POPC   C1A33231  33.013  25.839   8.787
 2459POPC   D2A33232  32.722  25.998   8.406
 2459POPC   C3A33233  32.868  26.022   7.947
 2459POPC   C4A33234  32.848  25.762   7.602
 2459POPC   C1B33235  33.308  26.267   8.699
 2459POPC   C2B33236  33.404  26.292   8.272
 2459POPC   C3B33237  33.273  26.393   7.837
 2459POPC   C4B33238  33.087  26.235   7.435
 2460POPC   NC333239  21.442   6.856   9.778
 2460POPC   PO433240  20.951   6.944   9.388
 2460POPC   GL133241  21.201   6.686   9.136
 2460POPC   GL233242  20.980   6.398   9.015
 2460POPC   C1A33243  21.393   6.616   8.760
 2460POPC   D2A33244  21.336   6.877   8.426
 2460POPC   C3A33245  21.185   6.793   8.055
 2460POPC   C4A33246  21.504   6.628   7.790
 2460POPC   C1B33247  21.042   6.301   8.574
 2460POPC   C2B33248  21.288   6.316   8.210
 2460POPC   C3B33249  21.091   6.357   7.821
 2460POPC   C4B33250  21.096   6.669   7.467
 2461POPC   NC333251  27.078   2.074   9.452
 2461POPC   PO433252  26.425   2.223   9.496
 2461POPC   GL133253  26.567   1.925   9.151
 2461POPC   GL233254  26.555   1.508   9.112
 2461POPC   C1A33255  26.855   1.921   8.836
 2461POPC   D2A33256  27.105   1.941   8.481
 2461POPC   C3A33257  26.935   1.974   8.127
 2461POPC   C4A33258  27.060   2.182   7.799
 2461POPC   C1B33259  26.358   1.661   8.781
 2461POPC   C2B33260  26.532   1.839   8.446
 2461POPC   C3B33261  26.452   2.177   8.212
 2461POPC   C4B33262  26.539   2.039   7.809
 2462POPC   NC333263  16.278  30.617   9.335
 2462POPC   PO433264  15.797  30.990   9.507
 2462POPC   GL133265  15.802  30.727   9.100
 2462POPC   GL233266  16.092  30.875   8.912
 2462POPC   C1A33267  15.755  30.647   8.628
 2462POPC   D2A33268  15.994  30.808   8.280
 2462POPC   C3A33269  15.941  30.965   7.857
 2462POPC   C4A33270  15.925  30.706   7.470
 2462POPC   C1B33271  16.362  30.625   8.593
 2462POPC   C2B33272  16.408  30.494   8.146
 2462POPC   C3B33273  16.131  30.397   7.821
 2462POPC   C4B33274  16.063  30.218   7.389
 2463POPC   NC333275   6.881  39.782   9.509
 2463POPC   PO433276   6.225  39.988   9.703
 2463POPC   GL133277   6.300  40.050   9.260
 2463POPC   GL233278   6.616  40.067   9.219
 2463POPC   C1A33279   6.383  39.914   8.811
 2463POPC   D2A33280   6.492  40.040   8.424
 2463POPC   C3A33281   6.660  39.802   8.076
 2463POPC   C4A33282   6.719  40.039   7.715
 2463POPC   C1B33283   6.864  40.093   8.848
 2463POPC   C2B33284   7.117  39.947   8.541
 2463POPC   C3B33285   7.146  40.023   8.120
 2463POPC   C4B33286   7.146  39.755   7.792
 2464POPC   NC333287  43.531  36.433   9.519
 2464POPC   PO433288  44.059  35.981   9.483
 2464POPC   GL133289  43.828  36.102   9.117
 2464POPC   GL233290  43.819  36.435   9.116
 2464POPC   C1A33291  44.006  35.934   8.738
 2464POPC   D2A33292  44.217  36.111   8.375
 2464POPC   C3A33293  44.012  35.919   8.033
 2464POPC   C4A33294  43.730  35.880   7.671
 2464POPC   C1B33295  44.016  36.440   8.753
 2464POPC   C2B33296  43.947  36.592   8.397
 2464POPC   C3B33297  44.005  36.436   8.027
 2464POPC   C4B33298  43.857  36.410   7.628
 2465POPC   NC333299  38.592  13.921   9.442
 2465POPC   PO433300  38.588  14.670   9.404
 2465POPC   GL133301  38.430  14.337   9.126
 2465POPC   GL233302  38.243  14.640   9.030
 2465POPC   C1A33303  38.507  14.148   8.701
 2465POPC   D2A33304  38.596  14.380   8.293
 2465POPC   C3A33305  38.358  14.380   7.888
 2465POPC   C4A33306  38.448  14.471   7.434
 2465POPC   C1B33307  38.554  14.675   8.723
 2465POPC   C2B33308  38.761  14.876   8.383
 2465POPC   C3B33309  38.855  14.720   7.963
 2465POPC   C4B33310  38.762  14.872   7.544
 2466POPC   NC333311   8.755  10.539   9.649
 2466POPC   PO433312   9.363  10.570   9.518
 2466POPC   GL133313   9.019  10.678   9.208
 2466POPC   GL233314   8.699  10.457   9.152
 2466POPC   C1A33315   8.896  10.777   8.769
 2466POPC   D2A33316   9.082  10.486   8.464
 2466POPC   C3A33317   8.944  10.365   8.069
 2466POPC   C4A33318   9.196  10.393   7.691
 2466POPC   C1B33319   8.567  10.361   8.732
 2466POPC   C2B33320   8.461  10.671   8.430
 2466POPC   C3B33321   8.718  10.840   8.113
 2466POPC   C4B33322   8.757  10.650   7.706
 2467POPC   NC333323  25.072  15.327   9.579
 2467POPC   PO433324  25.606  14.989   9.629
 2467POPC   GL133325  25.363  14.980   9.239
 2467POPC   GL233326  24.993  14.911   9.221
 2467POPC   C1A33327  25.268  15.266   8.892
 2467POPC   D2A33328  25.417  15.167   8.484
 2467POPC   C3A33329  25.305  15.357   8.115
 2467POPC   C4A33330  25.454  15.209   7.724
 2467POPC   C1B33331  25.163  14.779   8.786
 2467POPC   C2B33332  25.274  14.648   8.366
 2467POPC   C3B33333  25.129  14.791   7.975
 2467POPC   C4B33334  24.930  15.144   7.812
 2468POPC   NC333335  21.323  34.261   9.653
 2468POPC   PO433336  21.723  34.702   9.350
 2468POPC   GL133337  21.622  34.381   9.117
 2468POPC   GL233338  21.285  34.366   9.162
 2468POPC   C1A33339  21.549  34.441   8.697
 2468POPC   D2A33340  21.329  34.581   8.347
 2468POPC   C3A33341  21.499  34.459   7.971
 2468POPC   C4A33342  21.473  34.578   7.543
 2468POPC   C1B33343  21.053  34.364   8.784
 2468POPC   C2B33344  20.886  34.296   8.385
 2468POPC   C3B33345  20.967  34.478   7.959
 2468POPC   C4B33346  21.173  34.856   7.891
 2469POPC   NC333347   4.542  23.708   9.393
 2469POPC   PO433348   3.922  23.965   9.589
 2469POPC   GL133349   4.148  23.989   9.191
 2469POPC   GL233350   3.920  23.751   9.109
 2469POPC   C1A33351   4.154  23.980   8.708
 2469POPC   D2A33352   4.360  23.715   8.383
 2469POPC   C3A33353   4.425  23.779   7.949
 2469POPC   C4A33354   4.672  23.573   7.675
 2469POPC   C1B33355   3.831  23.527   8.784
 2469POPC   C2B33356   3.854  23.633   8.379
 2469POPC   C3B33357   4.053  23.406   8.039
 2469POPC   C4B33358   4.169  23.452   7.603
 2470POPC   NC333359  15.710  29.449   9.481
 2470POPC   PO433360  15.101  29.840   9.456
 2470POPC   GL133361  15.079  30.119   9.119
 2470POPC   GL233362  15.451  30.145   9.206
 2470POPC   C1A33363  14.977  30.062   8.654
 2470POPC   D2A33364  15.079  29.722   8.316
 2470POPC   C3A33365  15.054  29.832   7.855
 2470POPC   C4A33366  15.173  30.057   7.456
 2470POPC   C1B33367  15.423  29.823   8.860
 2470POPC   C2B33368  15.594  29.801   8.446
 2470POPC   C3B33369  15.510  29.958   8.050
 2470POPC   C4B33370  15.514  29.751   7.653
 2471POPC   NC333371  18.668  35.498   9.538
 2471POPC   PO433372  18.152  35.043   9.472
 2471POPC   GL133373  18.305  35.416   9.194
 2471POPC   GL233374  18.618  35.574   9.019
 2471POPC   C1A33375  18.153  35.467   8.786
 2471POPC   D2A33376  18.056  35.153   8.489
 2471POPC   C3A33377  18.152  35.376   8.112
 2471POPC   C4A33378  18.114  35.215   7.708
 2471POPC   C1B33379  18.620  35.151   8.799
 2471POPC   C2B33380  18.711  34.972   8.366
 2471POPC   C3B33381  18.595  35.084   7.929
 2471POPC   C4B33382  18.528  35.508   7.780
 2472POPC   NC333383  16.883  44.174   9.533
 2472POPC   PO433384  16.455  43.612   9.567
 2472POPC   GL133385  16.638  43.736   9.165
 2472POPC   GL233386  17.004  43.702   9.050
 2472POPC   C1A33387  16.475  43.680   8.736
 2472POPC   D2A33388  16.492  43.586   8.291
 2472POPC   C3A33389  16.427  43.947   7.962
 2472POPC   C4A33390  16.705  44.295   7.846
 2472POPC   C1B33391  16.800  44.072   8.838
 2472POPC   C2B33392  16.641  44.064   8.404
 2472POPC   C3B33393  16.898  43.827   8.049
 2472POPC   C4B33394  17.182  43.996   7.734
 2473POPC   NC333395  33.553   4.645   9.546
 2473POPC   PO433396  33.648   3.956   9.537
 2473POPC   GL133397  33.519   4.174   9.182
 2473POPC   GL233398  33.794   4.388   9.165
 2473POPC   C1A33399  33.617   4.206   8.735
 2473POPC   D2A33400  33.946   4.208   8.461
 2473POPC   C3A33401  33.742   4.293   8.087
 2473POPC   C4A33402  33.546   4.366   7.717
 2473POPC   C1B33403  34.141   4.551   8.898
 2473POPC   C2B33404  34.204   4.696   8.480
 2473POPC   C3B33405  34.103   4.634   8.063
 2473POPC   C4B33406  34.014   4.827   7.675
 2474POPC   NC333407  11.145   1.405   9.500
 2474POPC   PO433408  11.687   1.743   9.271
 2474POPC   GL133409  11.583   1.343   9.112
 2474POPC   GL233410  11.271   1.151   9.094
 2474POPC   C1A33411  11.660   1.140   8.742
 2474POPC   D2A33412  11.509   1.045   8.332
 2474POPC   C3A33413  11.547   1.320   7.992
 2474POPC   C4A33414  11.207   1.235   7.743
 2474POPC   C1B33415  10.926   1.081   8.825
 2474POPC   C2B33416  10.991   0.968   8.400
 2474POPC   C3B33417  10.820   1.022   8.002
 2474POPC   C4B33418  10.886   0.841   7.595
 2475POPC   NC333419  34.074  42.641   9.698
 2475POPC   PO433420  34.538  42.228   9.461
 2475POPC   GL133421  34.480  42.441   9.090
 2475POPC   GL233422  34.820  42.393   8.994
 2475POPC   C1A33423  34.442  42.314   8.649
 2475POPC   D2A33424  34.242  42.036   8.384
 2475POPC   C3A33425  34.429  42.155   8.018
 2475POPC   C4A33426  34.379  42.556   7.849
 2475POPC   C1B33427  34.966  42.379   8.565
 2475POPC   C2B33428  34.787  42.465   8.187
 2475POPC   C3B33429  34.867  42.345   7.779
 2475POPC   C4B33430  35.000  42.334   7.353
 2476POPC   NC333431  21.991   5.355   9.462
 2476POPC   PO433432  22.445   4.847   9.617
 2476POPC   GL133433  22.210   4.933   9.217
 2476POPC   GL233434  22.184   5.264   9.007
 2476POPC   C1A33435  21.998   4.828   8.838
 2476POPC   D2A33436  22.090   5.104   8.498
 2476POPC   C3A33437  21.919   4.963   8.117
 2476POPC   C4A33438  22.238   4.893   7.827
 2476POPC   C1B33439  21.857   5.506   8.803
 2476POPC   C2B33440  21.877   5.581   8.361
 2476POPC   C3B33441  22.198   5.382   8.079
 2476POPC   C4B33442  22.001   5.318   7.686
 2477POPC   NC333443  14.431  40.547   9.466
 2477POPC   PO433444  13.891  41.018   9.524
 2477POPC   GL133445  14.139  40.904   9.159
 2477POPC   GL233446  14.378  40.633   8.982
 2477POPC   C1A33447  14.270  41.064   8.772
 2477POPC   D2A33448  14.346  40.836   8.426
 2477POPC   C3A33449  14.287  40.958   8.009
 2477POPC   C4A33450  14.147  40.622   7.737
 2477POPC   C1B33451  14.704  40.494   8.704
 2477POPC   C2B33452  14.671  40.505   8.250
 2477POPC   C3B33453  14.647  40.457   7.827
 2477POPC   C4B33454  14.567  40.651   7.456
 2478POPC   NC333455  33.987  17.392   9.617
 2478POPC   PO433456  33.868  16.875   9.379
 2478POPC   GL133457  34.084  17.214   9.141
 2478POPC   GL233458  33.951  17.578   9.137
 2478POPC   C1A33459  34.089  17.359   8.711
 2478POPC   D2A33460  34.126  17.596   8.347
 2478POPC   C3A33461  33.900  17.361   8.015
 2478POPC   C4A33462  33.482  17.206   7.904
 2478POPC   C1B33463  33.772  17.758   8.723
 2478POPC   C2B33464  33.673  17.784   8.258
 2478POPC   C3B33465  33.960  17.853   7.898
 2478POPC   C4B33466  33.940  17.808   7.451
 2479POPC   NC333467  28.978   3.806   9.298
 2479POPC   PO433468  29.160   3.174   9.571
 2479POPC   GL133469  29.281   3.402   9.174
 2479POPC   GL233470  28.959   3.419   8.956
 2479POPC   C1A33471  29.391   3.505   8.734
 2479POPC   D2A33472  29.146   3.335   8.376
 2479POPC   C3A33473  29.214   3.497   7.964
 2479POPC   C4A33474  29.265   3.891   7.768
 2479POPC   C1B33475  28.979   3.773   8.643
 2479POPC   C2B33476  28.991   3.903   8.238
 2479POPC   C3B33477  28.787   3.747   7.899
 2479POPC   C4B33478  28.840   3.680   7.510
 2480POPC   NC333479  44.716  25.779   9.450
 2480POPC   PO433480  44.369  26.013   9.932
 2480POPC   GL133481  44.427  26.147   9.334
 2480POPC   GL233482  44.770  26.057   9.039
 2480POPC   C1A33483  44.329  26.067   8.840
 2480POPC   D2A33484  44.515  25.859   8.452
 2480POPC   C3A33485  44.449  26.049   8.024
 2480POPC   C4A33486  44.651  25.815   7.675
 2480POPC   C1B33487  44.715  26.308   8.624
 2480POPC   C2B33488  44.734  26.471   8.204
 2480POPC   C3B33489  44.878  26.297   7.809
 2480POPC   C4B33490  44.965  26.506   7.408
 2481POPC   NC333491  10.439   2.834   9.728
 2481POPC   PO433492  11.110   3.007   9.635
 2481POPC   GL133493  10.822   2.689   9.351
 2481POPC   GL233494  10.443   2.732   9.239
 2481POPC   C1A33495  10.807   2.695   8.871
 2481POPC   D2A33496  10.590   2.654   8.476
 2481POPC   C3A33497  10.770   2.807   8.094
 2481POPC   C4A33498  10.719   2.523   7.756
 2481POPC   C1B33499  10.245   2.837   8.844
 2481POPC   C2B33500  10.196   2.980   8.427
 2481POPC   C3B33501  10.243   2.701   8.077
 2481POPC   C4B33502  10.396   2.919   7.757
 2482POPC   NC333503  26.541   4.103   9.489
 2482POPC   PO433504  27.088   4.505   9.582
 2482POPC   GL133505  26.858   4.454   9.238
 2482POPC   GL233506  26.569   4.578   9.075
 2482POPC   C1A33507  27.091   4.424   8.896
 2482POPC   D2A33508  27.177   4.449   8.480
 2482POPC   C3A33509  26.863   4.523   8.189
 2482POPC   C4A33510  26.979   4.481   7.769
 2482POPC   C1B33511  26.603   4.246   8.817
 2482POPC   C2B33512  26.605   4.122   8.407
 2482POPC   C3B33513  26.743   4.046   7.986
 2482POPC   C4B33514  26.468   4.376   7.826
 2483POPC   NC333515  35.998  13.278   9.776
 2483POPC   PO433516  36.106  12.695   9.479
 2483POPC   GL133517  36.151  12.794   9.083
 2483POPC   GL233518  36.207  13.153   9.161
 2483POPC   C1A33519  36.124  12.702   8.643
 2483POPC   D2A33520  36.161  12.997   8.284
 2483POPC   C3A33521  36.225  12.713   7.950
 2483POPC   C4A33522  36.148  12.447   7.566
 2483POPC   C1B33523  35.988  13.176   8.761
 2483POPC   C2B33524  35.777  13.356   8.426
 2483POPC   C3B33525  35.783  13.214   7.990
 2483POPC   C4B33526  36.163  13.187   7.753
 2484POPC   NC333527  15.576  39.296   9.484
 2484POPC   PO433528  16.283  39.236   9.541
 2484POPC   GL133529  16.032  39.123   9.193
 2484POPC   GL233530  16.319  38.839   9.167
 2484POPC   C1A33531  15.782  39.315   8.835
 2484POPC   D2A33532  15.798  39.464   8.405
 2484POPC   C3A33533  15.941  39.216   8.166
 2484POPC   C4A33534  15.940  39.194   7.785
 2484POPC   C1B33535  16.315  38.986   8.759
 2484POPC   C2B33536  16.416  39.112   8.354
 2484POPC   C3B33537  16.311  38.896   7.982
 2484POPC   C4B33538  16.374  39.090   7.578
 2485POPC   NC333539   3.085  23.298   9.589
 2485POPC   PO433540   2.515  22.955   9.623
 2485POPC   GL133541   2.654  23.044   9.222
 2485POPC   GL233542   2.948  22.833   9.261
 2485POPC   C1A33543   2.597  22.900   8.801
 2485POPC   D2A33544   2.501  23.065   8.376
 2485POPC   C3A33545   2.572  22.855   7.965
 2485POPC   C4A33546   2.676  22.893   7.510
 2485POPC   C1B33547   3.084  23.046   8.904
 2485POPC   C2B33548   2.997  23.118   8.479
 2485POPC   C3B33549   3.043  23.019   8.049
 2485POPC   C4B33550   3.185  22.970   7.643
 2486POPC   NC333551  35.142  36.354   9.955
 2486POPC   PO433552  35.412  35.955   9.562
 2486POPC   GL133553  35.348  36.269   9.230
 2486POPC   GL233554  35.559  35.998   9.070
 2486POPC   C1A33555  35.464  36.412   8.818
 2486POPC   D2A33556  35.454  36.170   8.427
 2486POPC   C3A33557  35.570  36.369   8.035
 2486POPC   C4A33558  35.307  36.295   7.660
 2486POPC   C1B33559  35.551  35.750   8.723
 2486POPC   C2B33560  35.706  35.750   8.297
 2486POPC   C3B33561  35.452  35.876   7.961
 2486POPC   C4B33562  35.492  35.848   7.516
 2487POPC   NC333563  35.786  36.239   9.470
 2487POPC   PO433564  36.360  35.903   9.418
 2487POPC   GL133565  36.119  36.073   9.084
 2487POPC   GL233566  36.174  36.415   9.162
 2487POPC   C1A33567  35.915  36.134   8.683
 2487POPC   D2A33568  36.056  36.272   8.280
 2487POPC   C3A33569  36.085  36.012   7.921
 2487POPC   C4A33570  35.871  35.657   7.784
 2487POPC   C1B33571  36.338  36.445   8.737
 2487POPC   C2B33572  36.425  36.644   8.335
 2487POPC   C3B33573  36.440  36.407   7.952
 2487POPC   C4B33574  36.314  36.270   7.513
 2488POPC   NC333575  23.412  22.120   9.664
 2488POPC   PO433576  23.871  22.458   9.396
 2488POPC   GL133577  23.570  22.192   9.180
 2488POPC   GL233578  23.719  21.864   9.106
 2488POPC   C1A33579  23.428  22.352   8.780
 2488POPC   D2A33580  23.619  22.220   8.401
 2488POPC   C3A33581  23.439  22.377   8.090
 2488POPC   C4A33582  23.613  22.250   7.749
 2488POPC   C1B33583  23.926  22.157   8.804
 2488POPC   C2B33584  24.136  22.279   8.426
 2488POPC   C3B33585  24.045  22.160   8.002
 2488POPC   C4B33586  24.036  22.074   7.526
 2489POPC   NC333587  30.970  30.410   9.558
 2489POPC   PO433588  30.618  31.029   9.613
 2489POPC   GL133589  30.638  30.776   9.241
 2489POPC   GL233590  30.955  30.703   9.136
 2489POPC   C1A33591  30.647  30.859   8.762
 2489POPC   D2A33592  30.447  30.947   8.345
 2489POPC   C3A33593  30.599  30.834   7.944
 2489POPC   C4A33594  30.369  30.539   7.686
 2489POPC   C1B33595  31.157  30.770   8.732
 2489POPC   C2B33596  31.005  30.683   8.304
 2489POPC   C3B33597  31.100  30.828   7.864
 2489POPC   C4B33598  30.861  30.714   7.491
 2490POPC   NC333599   1.051  21.564   9.397
 2490POPC   PO433600   1.099  20.903   9.458
 2490POPC   GL133601   1.292  21.053   9.110
 2490POPC   GL233602   1.497  21.315   9.262
 2490POPC   C1A33603   1.050  21.286   8.792
 2490POPC   D2A33604   0.795  21.524   8.498
 2490POPC   C3A33605   0.911  21.494   8.098
 2490POPC   C4A33606   1.125  21.447   7.739
 2490POPC   C1B33607   1.560  21.412   8.840
 2490POPC   C2B33608   1.432  21.237   8.462
 2490POPC   C3B33609   1.423  21.494   8.147
 2490POPC   C4B33610   1.658  21.519   7.806
 2491POPC   NC333611   1.439  28.863   9.424
 2491POPC   PO433612   1.327  29.495   9.488
 2491POPC   GL133613   1.229  29.238   9.131
 2491POPC   GL233614   0.974  28.991   9.074
 2491POPC   C1A33615   1.317  29.128   8.734
 2491POPC   D2A33616   1.549  29.313   8.475
 2491POPC   C3A33617   1.343  29.227   8.113
 2491POPC   C4A33618   1.513  29.340   7.743
 2491POPC   C1B33619   1.008  28.699   8.770
 2491POPC   C2B33620   1.141  28.761   8.368
 2491POPC   C3B33621   1.022  28.688   7.961
 2491POPC   C4B33622   1.085  29.021   7.677
 2492POPC   NC333623   9.409   1.640   9.488
 2492POPC   PO433624   8.719   1.602   9.510
 2492POPC   GL133625   8.765   1.917   9.150
 2492POPC   GL233626   9.087   2.082   9.259
 2492POPC   C1A33627   8.965   1.841   8.714
 2492POPC   D2A33628   9.048   1.645   8.300
 2492POPC   C3A33629   8.809   1.797   7.941
 2492POPC   C4A33630   8.892   1.980   7.535
 2492POPC   C1B33631   9.190   2.274   8.867
 2492POPC   C2B33632   9.116   2.271   8.419
 2492POPC   C3B33633   9.192   2.135   7.993
 2492POPC   C4B33634   9.435   2.309   7.673
 2493POPC   NC333635  11.058   2.165   9.506
 2493POPC   PO433636  10.407   2.296   9.677
 2493POPC   GL133637  10.584   2.231   9.274
 2493POPC   GL233638  10.549   1.918   9.124
 2493POPC   C1A33639  10.431   2.345   8.868
 2493POPC   D2A33640  10.435   2.137   8.479
 2493POPC   C3A33641  10.463   2.171   8.017
 2493POPC   C4A33642  10.410   2.167   7.545
 2493POPC   C1B33643  10.819   1.982   8.789
 2493POPC   C2B33644  10.889   1.679   8.440
 2493POPC   C3B33645  10.844   1.584   7.990
 2493POPC   C4B33646  10.836   1.965   7.717
 2494POPC   NC333647  43.437  29.914   9.424
 2494POPC   PO433648  42.816  29.674   9.571
 2494POPC   GL133649  42.926  29.852   9.177
 2494POPC   GL233650  43.190  30.104   9.036
 2494POPC   C1A33651  42.865  29.862   8.762
 2494POPC   D2A33652  43.019  29.646   8.384
 2494POPC   C3A33653  42.998  29.833   8.019
 2494POPC   C4A33654  43.230  29.801   7.656
 2494POPC   C1B33655  43.375  29.892   8.677
 2494POPC   C2B33656  43.457  29.920   8.224
 2494POPC   C3B33657  43.566  30.159   7.836
 2494POPC   C4B33658  43.464  30.114   7.345
 2495POPC   NC333659  36.979  20.099   9.470
 2495POPC   PO433660  36.760  19.544   9.134
 2495POPC   GL133661  36.990  19.855   8.999
 2495POPC   GL233662  36.733  20.116   9.017
 2495POPC   C1A33663  37.098  19.709   8.594
 2495POPC   D2A33664  36.790  19.612   8.356
 2495POPC   C3A33665  36.971  19.623   7.984
 2495POPC   C4A33666  36.679  19.796   7.707
 2495POPC   C1B33667  36.952  20.183   8.604
 2495POPC   C2B33668  37.179  20.084   8.209
 2495POPC   C3B33669  37.095  20.075   7.762
 2495POPC   C4B33670  37.222  20.193   7.316
 2496POPC   NC333671  22.428  32.066   9.456
 2496POPC   PO433672  21.794  31.929   9.391
 2496POPC   GL133673  22.047  32.148   9.047
 2496POPC   GL233674  22.365  32.198   8.986
 2496POPC   C1A33675  22.068  32.274   8.583
 2496POPC   D2A33676  22.062  32.200   8.144
 2496POPC   C3A33677  21.906  32.361   7.758
 2496POPC   C4A33678  21.997  32.031   7.483
 2496POPC   C1B33679  22.413  32.603   8.796
 2496POPC   C2B33680  22.258  32.751   8.404
 2496POPC   C3B33681  22.292  32.628   7.982
 2496POPC   C4B33682  22.616  32.448   7.771
 2497POPC   NC333683  21.352  41.628   9.533
 2497POPC   PO433684  21.309  41.024   9.535
 2497POPC   GL133685  21.210  41.341   9.138
 2497POPC   GL233686  21.465  41.524   9.051
 2497POPC   C1A33687  21.116  41.446   8.698
 2497POPC   D2A33688  21.484  41.467   8.419
 2497POPC   C3A33689  21.336  41.345   8.024
 2497POPC   C4A33690  21.066  41.446   7.649
 2497POPC   C1B33691  21.646  41.819   8.804
 2497POPC   C2B33692  21.800  41.868   8.419
 2497POPC   C3B33693  21.593  41.865   8.074
 2497POPC   C4B33694  21.528  41.687   7.697
 2498POPC   NC333695  19.281   3.177   9.601
 2498POPC   PO433696  18.695   3.446   9.478
 2498POPC   GL133697  18.957   3.565   9.131
 2498POPC   GL233698  19.266   3.569   9.143
 2498POPC   C1A33699  19.003   3.695   8.692
 2498POPC   D2A33700  18.907   3.533   8.289
 2498POPC   C3A33701  19.108   3.761   7.935
 2498POPC   C4A33702  19.099   3.564   7.505
 2498POPC   C1B33703  19.366   3.340   8.777
 2498POPC   C2B33704  19.443   3.445   8.349
 2498POPC   C3B33705  19.254   3.284   7.971
 2498POPC   C4B33706  19.213   3.069   7.611
 2499POPC   NC333707  28.451   1.543   9.537
 2499POPC   PO433708  28.715   0.959   9.484
 2499POPC   GL133709  28.551   1.169   9.133
 2499POPC   GL233710  28.206   1.293   9.153
 2499POPC   C1A33711  28.429   1.128   8.714
 2499POPC   D2A33712  28.359   1.321   8.321
 2499POPC   C3A33713  28.170   1.082   8.017
 2499POPC   C4A33714  28.473   0.788   7.857
 2499POPC   C1B33715  28.117   1.528   8.756
 2499POPC   C2B33716  28.146   1.787   8.407
 2499POPC   C3B33717  28.332   1.745   8.033
 2499POPC   C4B33718  28.480   1.411   7.792
 2500POPC   NC333719  19.309  26.601   9.500
 2500POPC   PO433720  18.969  27.112   9.313
 2500POPC   GL133721  18.975  26.706   9.133
 2500POPC   GL233722  18.699  26.647   8.909
 2500POPC   C1A33723  19.195  26.545   8.794
 2500POPC   D2A33724  18.920  26.491   8.415
 2500POPC   C3A33725  19.137  26.581   8.022
 2500POPC   C4A33726  19.379  26.814   7.734
 2500POPC   C1B33727  18.912  26.974   8.677
 2500POPC   C2B33728  18.857  27.288   8.392
 2500POPC   C3B33729  19.064  27.136   8.054
 2500POPC   C4B33730  18.959  27.113   7.641
 2501POPC   NC333731  25.740   7.895   9.362
 2501POPC   PO433732  26.135   8.385   9.614
 2501POPC   GL133733  26.199   8.374   9.170
 2501POPC   GL233734  25.892   8.264   9.028
 2501POPC   C1A33735  26.405   8.291   8.774
 2501POPC   D2A33736  26.213   8.276   8.398
 2501POPC   C3A33737  26.394   8.349   8.005
 2501POPC   C4A33738  26.086   8.628   7.814
 2501POPC   C1B33739  26.036   7.912   8.758
 2501POPC   C2B33740  25.956   7.801   8.346
 2501POPC   C3B33741  25.964   8.072   7.990
 2501POPC   C4B33742  26.003   7.940   7.596
 2502POPC   NC333743   9.183  23.887   9.523
 2502POPC   PO433744   8.558  23.867   9.371
 2502POPC   GL133745   8.873  23.736   9.132
 2502POPC   GL233746   8.639  23.468   9.009
 2502POPC   C1A33747   9.240  23.919   8.840
 2502POPC   D2A33748   9.475  23.875   8.425
 2502POPC   C3A33749   9.296  23.987   8.003
 2502POPC   C4A33750   9.180  23.828   7.540
 2502POPC   C1B33751   8.961  23.495   8.716
 2502POPC   C2B33752   8.966  23.808   8.415
 2502POPC   C3B33753   8.908  23.668   8.031
 2502POPC   C4B33754   8.747  23.921   7.747
 2503POPC   NC333755  19.660  14.111   9.403
 2503POPC   PO433756  19.806  13.389   9.416
 2503POPC   GL133757  19.776  13.696   9.098
 2503POPC   GL233758  20.044  13.935   9.046
 2503POPC   C1A33759  19.879  13.553   8.688
 2503POPC   D2A33760  19.701  13.287   8.349
 2503POPC   C3A33761  20.043  13.172   8.078
 2503POPC   C4A33762  20.067  13.368   7.701
 2503POPC   C1B33763  19.767  14.065   8.725
 2503POPC   C2B33764  19.674  13.857   8.324
 2503POPC   C3B33765  19.810  13.810   7.895
 2503POPC   C4B33766  19.591  14.089   7.611
 2504POPC   NC333767   5.272   3.736   9.613
 2504POPC   PO433768   4.816   3.312   9.537
 2504POPC   GL133769   4.922   3.657   9.245
 2504POPC   GL233770   5.240   3.557   9.137
 2504POPC   C1A33771   4.978   3.888   8.852
 2504POPC   D2A33772   5.064   3.622   8.511
 2504POPC   C3A33773   5.182   3.760   8.115
 2504POPC   C4A33774   5.127   3.586   7.715
 2504POPC   C1B33775   4.987   3.243   8.892
 2504POPC   C2B33776   4.773   3.182   8.508
 2504POPC   C3B33777   4.883   3.291   8.087
 2504POPC   C4B33778   4.782   3.218   7.631
 2505POPC   NC333779  31.316   0.165   9.359
 2505POPC   PO433780  31.352  44.587   9.512
 2505POPC   GL133781  31.476  44.451   9.114
 2505POPC   GL233782  31.482  44.787   9.024
 2505POPC   C1A33783  31.333  44.464   8.671
 2505POPC   D2A33784  31.017  44.597   8.381
 2505POPC   C3A33785  31.103  44.436   7.974
 2505POPC   C4A33786  31.527  44.354   7.855
 2505POPC   C1B33787  31.144  44.950   8.769
 2505POPC   C2B33788  31.159   0.136   8.384
 2505POPC   C3B33789  31.339  44.894   8.085
 2505POPC   C4B33790  31.236  44.891   7.707
 2506POPC   NC333791   2.765  25.510  10.014
 2506POPC   PO433792   2.850  25.114   9.454
 2506POPC   GL133793   2.871  25.386   9.128
 2506POPC   GL233794   2.529  25.294   9.057
 2506POPC   C1A33795   2.856  25.416   8.676
 2506POPC   D2A33796   2.717  25.677   8.330
 2506POPC   C3A33797   2.935  25.557   7.953
 2506POPC   C4A33798   2.951  25.141   7.827
 2506POPC   C1B33799   2.482  24.962   8.727
 2506POPC   C2B33800   2.375  25.005   8.276
 2506POPC   C3B33801   2.445  24.973   7.824
 2506POPC   C4B33802   2.456  24.964   7.334
 2507POPC   NC333803   9.505  21.924   9.537
 2507POPC   PO433804  10.057  22.277   9.645
 2507POPC   GL133805   9.856  22.187   9.225
 2507POPC   GL233806   9.514  22.294   9.136
 2507POPC   C1A33807   9.866  22.378   8.784
 2507POPC   D2A33808   9.753  22.441   8.340
 2507POPC   C3A33809   9.915  22.340   7.895
 2507POPC   C4A33810   9.791  21.957   7.643
 2507POPC   C1B33811   9.508  21.988   8.829
 2507POPC   C2B33812   9.365  21.957   8.425
 2507POPC   C3B33813   9.467  22.131   8.025
 2507POPC   C4B33814   9.354  22.198   7.584
 2508POPC   NC333815   1.538   6.836   9.273
 2508POPC   PO433816   1.223   6.476   9.730
 2508POPC   GL133817   1.179   6.422   9.255
 2508POPC   GL233818   1.435   6.226   9.072
 2508POPC   C1A33819   1.193   6.626   8.798
 2508POPC   D2A33820   1.236   6.838   8.404
 2508POPC   C3A33821   1.447   6.745   8.028
 2508POPC   C4A33822   1.134   6.870   7.762
 2508POPC   C1B33823   1.171   6.146   8.702
 2508POPC   C2B33824   1.102   6.350   8.280
 2508POPC   C3B33825   1.196   6.362   7.815
 2508POPC   C4B33826   1.471   6.599   7.501
 2509POPC   NC333827  18.037   9.345   9.495
 2509POPC   PO433828  18.331   8.675   9.435
 2509POPC   GL133829  18.335   8.787   9.029
 2509POPC   GL233830  18.269   9.156   9.073
 2509POPC   C1A33831  18.549   8.984   8.680
 2509POPC   D2A33832  18.644   9.010   8.258
 2509POPC   C3A33833  18.325   8.898   7.978
 2509POPC   C4A33834  18.413   8.913   7.533
 2509POPC   C1B33835  18.267   9.419   8.696
 2509POPC   C2B33836  18.280   9.383   8.251
 2509POPC   C3B33837  18.437   9.366   7.861
 2509POPC   C4B33838  18.276   9.383   7.448
 2510POPC   NC333839  43.431   8.680   9.513
 2510POPC   PO433840  42.884   9.074   9.468
 2510POPC   GL133841  42.992   8.756   9.178
 2510POPC   GL233842  43.271   8.894   9.068
 2510POPC   C1A33843  42.895   8.807   8.747
 2510POPC   D2A33844  43.132   8.876   8.391
 2510POPC   C3A33845  42.895   8.842   8.032
 2510POPC   C4A33846  43.208   8.761   7.762
 2510POPC   C1B33847  43.341   9.222   8.741
 2510POPC   C2B33848  43.488   9.290   8.327
 2510POPC   C3B33849  43.382   9.240   7.886
 2510POPC   C4B33850  43.445   9.329   7.425
 2511POPC   NC333851  25.041  11.325   9.554
 2511POPC   PO433852  25.670  11.395   9.443
 2511POPC   GL133853  25.412  11.538   9.147
 2511POPC   GL233854  25.213  11.263   9.070
 2511POPC   C1A33855  25.539  11.526   8.730
 2511POPC   D2A33856  25.353  11.635   8.339
 2511POPC   C3A33857  25.422  11.300   8.054
 2511POPC   C4A33858  25.419  11.113   7.636
 2511POPC   C1B33859  25.062  11.368   8.656
 2511POPC   C2B33860  24.867  11.459   8.233
 2511POPC   C3B33861  25.005  11.430   7.786
 2511POPC   C4B33862  24.987  11.213   7.373
 2512POPC   NC333863  32.043   8.253   9.516
 2512POPC   PO433864  32.437   7.791   9.384
 2512POPC   GL133865  32.314   8.096   9.085
 2512POPC   GL233866  31.964   8.167   9.039
 2512POPC   C1A33867  32.339   8.249   8.660
 2512POPC   D2A33868  32.409   8.030   8.267
 2512POPC   C3A33869  32.449   8.230   7.874
 2512POPC   C4A33870  32.197   8.544   7.670
 2512POPC   C1B33871  31.935   7.926   8.712
 2512POPC   C2B33872  31.838   8.199   8.436
 2512POPC   C3B33873  31.980   8.303   8.067
 2512POPC   C4B33874  31.974   7.996   7.724
 2513POPC   NC333875  10.326  17.524   9.719
 2513POPC   PO433876  10.632  16.976   9.601
 2513POPC   GL133877  10.336  17.217   9.298
 2513POPC   GL233878  10.540  17.510   9.237
 2513POPC   C1A33879  10.303  17.319   8.843
 2513POPC   D2A33880  10.271  17.461   8.421
 2513POPC   C3A33881  10.399  17.239   8.078
 2513POPC   C4A33882  10.279  17.188   7.678
 2513POPC   C1B33883  10.726  17.659   8.838
 2513POPC   C2B33884  10.895  17.599   8.438
 2513POPC   C3B33885  10.635  17.680   8.122
 2513POPC   C4B33886  10.606  17.575   7.736
 2514POPC   NC333887  38.400  11.067   9.497
 2514POPC   PO433888  38.306  11.707   9.720
 2514POPC   GL133889  38.501  11.534   9.284
 2514POPC   GL233890  38.259  11.341   9.066
 2514POPC   C1A33891  38.666  11.475   8.821
 2514POPC   D2A33892  38.664  11.651   8.391
 2514POPC   C3A33893  38.710  11.422   7.998
 2514POPC   C4A33894  38.328  11.438   7.768
 2514POPC   C1B33895  38.297  11.099   8.687
 2514POPC   C2B33896  38.336  11.071   8.218
 2514POPC   C3B33897  38.124  10.992   7.822
 2514POPC   C4B33898  38.200  11.118   7.390
 2515POPC   NC333899  15.789   6.966   9.460
 2515POPC   PO433900  15.729   6.331   9.690
 2515POPC   GL133901  15.949   6.469   9.294
 2515POPC   GL233902  16.216   6.761   9.260
 2515POPC   C1A33903  15.837   6.609   8.875
 2515POPC   D2A33904  15.676   6.500   8.470
 2515POPC   C3A33905  15.907   6.653   8.122
 2515POPC   C4A33906  15.892   6.475   7.738
 2515POPC   C1B33907  16.368   6.662   8.845
 2515POPC   C2B33908  16.334   6.683   8.393
 2515POPC   C3B33909  16.385   6.534   7.948
 2515POPC   C4B33910  16.325   6.552   7.465
 2516POPC   NC333911  21.926  25.813   9.369
 2516POPC   PO433912  22.572  25.997   9.346
 2516POPC   GL133913  22.254  26.146   9.102
 2516POPC   GL233914  21.917  26.322   9.224
 2516POPC   C1A33915  22.251  25.847   8.753
 2516POPC   D2A33916  22.108  25.837   8.341
 2516POPC   C3A33917  22.369  26.120   8.114
 2516POPC   C4A33918  22.315  25.993   7.703
 2516POPC   C1B33919  21.858  26.172   8.777
 2516POPC   C2B33920  21.933  26.358   8.393
 2516POPC   C3B33921  21.894  26.224   7.976
 2516POPC   C4B33922  21.695  25.977   7.720
 2517POPC   NC333923  17.217   8.718   9.495
 2517POPC   PO433924  17.567   9.313   9.532
 2517POPC   GL133925  17.540   9.024   9.225
 2517POPC   GL233926  17.809   8.771   9.265
 2517POPC   C1A33927  17.392   9.117   8.838
 2517POPC   D2A33928  17.524   8.960   8.469
 2517POPC   C3A33929  17.324   9.130   8.137
 2517POPC   C4A33930  17.468   9.082   7.749
 2517POPC   C1B33931  17.882   8.907   8.847
 2517POPC   C2B33932  18.064   8.966   8.450
 2517POPC   C3B33933  17.833   8.870   8.072
 2517POPC   C4B33934  17.933   8.878   7.635
 2518POPC   NC333935  25.447  34.246   9.642
 2518POPC   PO433936  24.912  34.707   9.569
 2518POPC   GL133937  25.103  34.554   9.169
 2518POPC   GL233938  25.475  34.549   9.218
 2518POPC   C1A33939  25.275  34.696   8.733
 2518POPC   D2A33940  25.426  34.925   8.335
 2518POPC   C3A33941  25.318  34.720   7.926
 2518POPC   C4A33942  25.058  34.405   7.685
 2518POPC   C1B33943  25.442  34.207   8.927
 2518POPC   C2B33944  25.284  34.061   8.517
 2518POPC   C3B33945  25.299  34.220   8.102
 2518POPC   C4B33946  25.562  34.288   7.758
 2519POPC   NC333947   7.611  39.532   9.444
 2519POPC   PO433948   7.222  40.063   9.711
 2519POPC   GL133949   7.199  40.158   9.244
 2519POPC   GL233950   7.352  39.856   9.082
 2519POPC   C1A33951   7.349  40.321   8.820
 2519POPC   D2A33952   7.549  40.213   8.422
 2519POPC   C3A33953   7.423  40.473   8.081
 2519POPC   C4A33954   7.354  40.248   7.712
 2519POPC   C1B33955   7.691  39.788   8.753
 2519POPC   C2B33956   7.893  39.790   8.319
 2519POPC   C3B33957   7.727  39.739   7.859
 2519POPC   C4B33958   7.502  39.806   7.451
 2520POPC   NC333959   2.273  42.521   9.728
 2520POPC   PO433960   2.844  42.501   9.297
 2520POPC   GL133961   2.570  42.294   9.034
 2520POPC   GL233962   2.853  42.131   8.922
 2520POPC   C1A33963   2.460  42.395   8.614
 2520POPC   D2A33964   2.704  42.281   8.276
 2520POPC   C3A33965   2.674  42.495   7.920
 2520POPC   C4A33966   2.448  42.307   7.598
 2520POPC   C1B33967   3.063  42.062   8.551
 2520POPC   C2B33968   3.206  42.053   8.167
 2520POPC   C3B33969   3.053  42.203   7.802
 2520POPC   C4B33970   3.079  42.093   7.375
 2521POPC   NC333971  13.047  13.524   9.606
 2521POPC   PO433972  12.928  14.197   9.497
 2521POPC   GL133973  13.062  13.899   9.165
 2521POPC   GL233974  12.958  13.555   9.119
 2521POPC   C1A33975  12.904  13.851   8.732
 2521POPC   D2A33976  12.879  13.537   8.409
 2521POPC   C3A33977  13.060  13.789   8.083
 2521POPC   C4A33978  13.088  14.024   7.714
 2521POPC   C1B33979  13.080  13.244   8.798
 2521POPC   C2B33980  13.242  13.105   8.412
 2521POPC   C3B33981  13.028  13.231   8.028
 2521POPC   C4B33982  13.078  13.477   7.693
 2522POPC   NC333983   7.582  40.492   9.457
 2522POPC   PO433984   6.938  40.533   9.498
 2522POPC   GL133985   7.233  40.709   9.138
 2522POPC   GL233986   7.565  40.906   9.164
 2522POPC   C1A33987   7.377  40.882   8.690
 2522POPC   D2A33988   7.256  41.214   8.384
 2522POPC   C3A33989   7.103  41.055   7.966
 2522POPC   C4A33990   7.298  40.780   7.658
 2522POPC   C1B33991   7.813  40.662   8.827
 2522POPC   C2B33992   7.832  40.656   8.359
 2522POPC   C3B33993   7.711  40.922   7.976
 2522POPC   C4B33994   7.695  41.177   7.559
 2523POPC   NC333995   6.137  27.753   9.557
 2523POPC   PO433996   5.640  27.425   9.476
 2523POPC   GL133997   5.825  27.645   9.152
 2523POPC   GL233998   6.126  27.464   9.137
 2523POPC   C1A33999   5.738  27.673   8.711
 2523POPC   D2A34000   5.714  28.002   8.381
 2523POPC   C3A34001   5.833  27.885   7.954
 2523POPC   C4A34002   5.911  27.704   7.552
 2523POPC   C1B34003   6.248  27.547   8.751
 2523POPC   C2B34004   6.038  27.426   8.384
 2523POPC   C3B34005   6.082  27.448   7.989
 2523POPC   C4B34006   6.338  27.195   7.769
 2524POPC   NC334007   3.396  39.585   9.532
 2524POPC   PO434008   4.045  39.426   9.640
 2524POPC   GL134009   3.814  39.244   9.300
 2524POPC   GL234010   3.675  39.533   9.121
 2524POPC   C1A34011   3.720  39.084   8.875
 2524POPC   D2A34012   3.464  39.014   8.511
 2524POPC   C3A34013   3.487  39.116   8.087
 2524POPC   C4A34014   3.770  39.204   7.762
 2524POPC   C1B34015   3.359  39.440   8.786
 2524POPC   C2B34016   3.416  39.589   8.348
 2524POPC   C3B34017   3.230  39.527   7.921
 2524POPC   C4B34018   3.371  39.436   7.489
 2525POPC   NC334019   5.281  11.121   9.550
 2525POPC   PO434020   4.891  11.615   9.735
 2525POPC   GL134021   5.066  11.513   9.312
 2525POPC   GL234022   5.421  11.595   9.345
 2525POPC   C1A34023   5.024  11.332   8.877
 2525POPC   D2A34024   5.021  11.024   8.522
 2525POPC   C3A34025   5.197  11.136   8.111
 2525POPC   C4A34026   4.906  11.214   7.776
 2525POPC   C1B34027   5.537  11.431   8.943
 2525POPC   C2B34028   5.569  11.301   8.523
 2525POPC   C3B34029   5.546  11.541   8.147
 2525POPC   C4B34030   5.370  11.496   7.755
 2526POPC   NC334031  11.688   2.209   9.272
 2526POPC   PO434032  11.310   1.798   9.671
 2526POPC   GL134033  11.191   1.794   9.174
 2526POPC   GL234034  10.952   1.559   9.023
 2526POPC   C1A34035  11.333   1.975   8.765
 2526POPC   D2A34036  11.551   2.204   8.433
 2526POPC   C3A34037  11.267   2.310   8.074
 2526POPC   C4A34038  11.272   2.247   7.631
 2526POPC   C1B34039  11.263   1.463   8.707
 2526POPC   C2B34040  11.504   1.655   8.406
 2526POPC   C3B34041  11.542   1.871   8.052
 2526POPC   C4B34042  11.293   1.740   7.725
 2527POPC   NC334043  45.000  29.316   9.589
 2527POPC   PO434044  44.384  29.118   9.490
 2527POPC   GL134045  44.531  29.031   9.113
 2527POPC   GL234046  44.854  29.001   9.212
 2527POPC   C1A34047  44.636  29.236   8.717
 2527POPC   D2A34048  44.667  29.428   8.324
 2527POPC   C3A34049  44.562  29.191   7.956
 2527POPC   C4A34050  44.429  29.224   7.550
 2527POPC   C1B34051   0.073  29.039   8.884
 2527POPC   C2B34052   0.097  28.926   8.501
 2527POPC   C3B34053   0.038  29.115   8.156
 2527POPC   C4B34054   0.043  29.052   7.750
 2528POPC   NC334055  31.253  26.955   9.620
 2528POPC   PO434056  31.843  26.597   9.578
 2528POPC   GL134057  31.556  26.764   9.261
 2528POPC   GL234058  31.212  26.595   9.242
 2528POPC   C1A34059  31.506  26.975   8.875
 2528POPC   D2A34060  31.652  26.740   8.524
 2528POPC   C3A34061  31.397  26.791   8.158
 2528POPC   C4A34062  31.454  27.099   7.852
 2528POPC   C1B34063  31.214  26.544   8.782
 2528POPC   C2B34064  30.978  26.495   8.387
 2528POPC   C3B34065  31.106  26.403   7.966
 2528POPC   C4B34066  31.379  26.554   7.676
 2529POPC   NC334067  32.082  21.404   9.434
 2529POPC   PO434068  31.433  21.676   9.515
 2529POPC   GL134069  31.359  21.563   9.117
 2529POPC   GL234070  31.688  21.432   9.062
 2529POPC   C1A34071  31.328  21.564   8.678
 2529POPC   D2A34072  31.526  21.427   8.307
 2529POPC   C3A34073  31.345  21.244   7.976
 2529POPC   C4A34074  31.389  21.469   7.604
 2529POPC   C1B34075  31.677  21.146   8.689
 2529POPC   C2B34076  31.905  21.092   8.258
 2529POPC   C3B34077  31.822  21.385   7.873
 2529POPC   C4B34078  31.885  21.359   7.390
 2530POPC   NC334079  28.663  29.209   9.556
 2530POPC   PO434080  28.099  29.416   9.625
 2530POPC   GL134081  28.272  29.204   9.210
 2530POPC   GL234082  28.578  28.985   9.120
 2530POPC   C1A34083  28.338  29.259   8.760
 2530POPC   D2A34084  28.153  29.030   8.423
 2530POPC   C3A34085  28.330  29.053   8.008
 2530POPC   C4A34086  28.025  29.102   7.686
 2530POPC   C1B34087  28.465  28.768   8.777
 2530POPC   C2B34088  28.564  28.730   8.382
 2530POPC   C3B34089  28.438  28.555   8.028
 2530POPC   C4B34090  28.404  28.722   7.626
 2531POPC   NC334091   4.261   1.000   9.584
 2531POPC   PO434092   4.466   0.354   9.676
 2531POPC   GL134093   4.351   0.492   9.251
 2531POPC   GL234094   4.579   0.264   9.112
 2531POPC   C1A34095   4.196   0.423   8.798
 2531POPC   D2A34096   4.203   0.238   8.366
 2531POPC   C3A34097   4.239   0.405   7.930
 2531POPC   C4A34098   3.994   0.334   7.526
 2531POPC   C1B34099   4.697   0.402   8.705
 2531POPC   C2B34100   4.709   0.321   8.262
 2531POPC   C3B34101   4.737   0.454   7.855
 2531POPC   C4B34102   4.522   0.689   7.509
 2532POPC   NC334103   3.299  18.285   9.666
 2532POPC   PO434104   3.806  17.872   9.430
 2532POPC   GL134105   3.463  17.932   9.107
 2532POPC   GL234106   3.254  18.234   9.158
 2532POPC   C1A34107   3.541  18.070   8.659
 2532POPC   D2A34108   3.586  17.966   8.235
 2532POPC   C3A34109   3.647  18.275   7.935
 2532POPC   C4A34110   4.057  18.241   7.810
 2532POPC   C1B34111   3.317  18.483   8.810
 2532POPC   C2B34112   3.418  18.497   8.370
 2532POPC   C3B34113   3.206  18.578   7.984
 2532POPC   C4B34114   3.312  18.527   7.540
 2533POPC   NC334115   1.686  22.767   9.549
 2533POPC   PO434116   1.055  22.859   9.643
 2533POPC   GL134117   1.268  22.943   9.267
 2533POPC   GL234118   1.347  22.631   9.190
 2533POPC   C1A34119   1.177  23.180   8.889
 2533POPC   D2A34120   1.265  23.316   8.466
 2533POPC   C3A34121   1.014  23.264   8.101
 2533POPC   C4A34122   1.189  23.047   7.759
 2533POPC   C1B34123   1.451  22.628   8.767
 2533POPC   C2B34124   1.375  22.532   8.330
 2533POPC   C3B34125   1.368  22.594   7.893
 2533POPC   C4B34126   1.638  22.802   7.635
 2534POPC   NC334127  24.256  32.757   9.433
 2534POPC   PO434128  24.385  32.158   9.735
 2534POPC   GL134129  24.587  32.089   9.324
 2534POPC   GL234130  24.453  31.805   9.157
 2534POPC   C1A34131  24.669  32.295   8.921
 2534POPC   D2A34132  24.862  32.475   8.526
 2534POPC   C3A34133  24.727  32.345   8.092
 2534POPC   C4A34134  24.772  32.399   7.630
 2534POPC   C1B34135  24.489  31.873   8.738
 2534POPC   C2B34136  24.374  32.215   8.497
 2534POPC   C3B34137  24.275  32.130   8.117
 2534POPC   C4B34138  24.359  32.095   7.727
 2535POPC   NC334139  32.579  42.344   9.346
 2535POPC   PO434140  32.029  42.512   9.771
 2535POPC   GL134141  32.015  42.392   9.309
 2535POPC   GL234142  32.126  42.108   9.190
 2535POPC   C1A34143  32.020  42.429   8.810
 2535POPC   D2A34144  32.404  42.495   8.548
 2535POPC   C3A34145  32.423  42.667   8.150
 2535POPC   C4A34146  32.372  42.506   7.764
 2535POPC   C1B34147  32.359  42.035   8.835
 2535POPC   C2B34148  32.245  42.009   8.431
 2535POPC   C3B34149  32.051  42.273   8.115
 2535POPC   C4B34150  31.875  42.352   7.706
 2536POPC   NC334151  29.161  35.283   9.792
 2536POPC   PO434152  29.118  35.578   9.274
 2536POPC   GL134153  28.915  35.447   8.953
 2536POPC   GL234154  28.868  35.083   8.981
 2536POPC   C1A34155  29.119  35.537   8.600
 2536POPC   D2A34156  29.499  35.436   8.395
 2536POPC   C3A34157  29.234  35.560   8.072
 2536POPC   C4A34158  29.091  35.547   7.639
 2536POPC   C1B34159  29.243  35.082   8.760
 2536POPC   C2B34160  29.125  35.059   8.328
 2536POPC   C3B34161  29.177  35.098   7.908
 2536POPC   C4B34162  29.025  35.046   7.523
 2537POPC   NC334163  12.777  44.413   9.640
 2537POPC   PO434164  13.132  44.849   9.391
 2537POPC   GL134165  12.766  44.649   9.184
 2537POPC   GL234166  12.773  44.283   9.163
 2537POPC   C1A34167  12.676  44.710   8.769
 2537POPC   D2A34168  13.011  44.833   8.527
 2537POPC   C3A34169  12.900  44.671   8.135
 2537POPC   C4A34170  13.080  44.694   7.758
 2537POPC   C1B34171  12.990  44.302   8.799
 2537POPC   C2B34172  12.937  44.164   8.409
 2537POPC   C3B34173  12.656  44.222   8.100
 2537POPC   C4B34174  12.787  44.252   7.706
 2538POPC   NC334175   3.031  37.993   9.506
 2538POPC   PO434176   2.599  37.514   9.266
 2538POPC   GL134177   2.917  37.705   9.107
 2538POPC   GL234178   2.765  38.026   9.066
 2538POPC   C1A34179   3.046  37.771   8.720
 2538POPC   D2A34180   2.815  37.545   8.454
 2538POPC   C3A34181   2.847  37.548   8.037
 2538POPC   C4A34182   3.054  37.870   7.854
 2538POPC   C1B34183   2.540  37.962   8.678
 2538POPC   C2B34184   2.417  37.822   8.263
 2538POPC   C3B34185   2.518  37.887   7.830
 2538POPC   C4B34186   2.731  37.660   7.521
 2539POPC   NC334187  38.231  38.780   9.361
 2539POPC   PO434188  38.702  39.004   9.832
 2539POPC   GL134189  38.570  39.178   9.398
 2539POPC   GL234190  38.258  39.259   9.202
 2539POPC   C1A34191  38.713  39.284   8.974
 2539POPC   D2A34192  38.599  39.164   8.554
 2539POPC   C3A34193  38.646  39.426   8.176
 2539POPC   C4A34194  38.772  39.243   7.794
 2539POPC   C1B34195  38.119  39.140   8.797
 2539POPC   C2B34196  37.865  39.113   8.430
 2539POPC   C3B34197  37.918  39.095   7.995
 2539POPC   C4B34198  38.246  39.284   7.748
 2540POPC   NC334199  31.214  13.578   9.698
 2540POPC   PO434200  31.507  14.139   9.566
 2540POPC   GL134201  31.394  13.830   9.285
 2540POPC   GL234202  31.734  13.824   9.211
 2540POPC   C1A34203  31.390  13.819   8.826
 2540POPC   D2A34204  31.530  13.627   8.450
 2540POPC   C3A34205  31.414  13.873   8.125
 2540POPC   C4A34206  31.315  13.699   7.754
 2540POPC   C1B34207  31.892  13.653   8.824
 2540POPC   C2B34208  32.039  13.520   8.396
 2540POPC   C3B34209  31.804  13.570   7.975
 2540POPC   C4B34210  31.669  13.391   7.564
 2541POPC   NC334211   2.982  36.590   9.502
 2541POPC   PO434212   2.760  37.207   9.676
 2541POPC   GL134213   2.767  37.006   9.225
 2541POPC   GL234214   2.574  36.738   9.205
 2541POPC   C1A34215   2.791  37.124   8.777
 2541POPC   D2A34216   2.519  37.149   8.425
 2541POPC   C3A34217   2.746  37.045   8.061
 2541POPC   C4A34218   2.674  37.066   7.621
 2541POPC   C1B34219   2.767  36.626   8.822
 2541POPC   C2B34220   2.556  36.648   8.415
 2541POPC   C3B34221   2.696  36.539   7.997
 2541POPC   C4B34222   2.972  36.537   7.659
 2542POPC   NC334223  23.809  18.894   9.271
 2542POPC   PO434224  23.412  19.403   9.543
 2542POPC   GL134225  23.531  19.253   9.070
 2542POPC   GL234226  23.933  19.138   8.877
 2542POPC   C1A34227  23.589  19.323   8.619
 2542POPC   D2A34228  23.727  18.928   8.416
 2542POPC   C3A34229  23.544  18.949   8.033
 2542POPC   C4A34230  23.627  19.211   7.691
 2542POPC   C1B34231  24.272  18.902   8.716
 2542POPC   C2B34232  24.267  18.662   8.354
 2542POPC   C3B34233  23.952  18.558   8.066
 2542POPC   C4B34234  23.872  18.760   7.685
 2543POPC   NC334235   3.794  14.697   9.673
 2543POPC   PO434236   3.317  14.296   9.663
 2543POPC   GL134237   3.549  14.324   9.238
 2543POPC   GL234238   3.681  14.677   9.181
 2543POPC   C1A34239   3.494  14.194   8.764
 2543POPC   D2A34240   3.252  14.177   8.328
 2543POPC   C3A34241   3.403  14.220   7.899
 2543POPC   C4A34242   3.260  14.369   7.472
 2543POPC   C1B34243   3.830  14.594   8.794
 2543POPC   C2B34244   3.745  14.429   8.372
 2543POPC   C3B34245   3.959  14.303   7.994
 2543POPC   C4B34246   3.768  14.466   7.631
 2544POPC   NC334247  31.033   9.731   9.406
 2544POPC   PO434248  31.584  10.094   9.693
 2544POPC   GL134249  31.512   9.842   9.285
 2544POPC   GL234250  31.657   9.528   9.127
 2544POPC   C1A34251  31.351   9.800   8.833
 2544POPC   D2A34252  31.545   9.975   8.460
 2544POPC   C3A34253  31.460   9.810   8.070
 2544POPC   C4A34254  31.208   9.876   7.738
 2544POPC   C1B34255  31.376   9.299   8.790
 2544POPC   C2B34256  31.240   9.205   8.348
 2544POPC   C3B34257  31.158   9.408   7.939
 2544POPC   C4B34258  31.183   9.460   7.449
 2545POPC   NC334259   6.058  15.044   9.527
 2545POPC   PO434260   5.627  15.559   9.692
 2545POPC   GL134261   5.729  15.382   9.220
 2545POPC   GL234262   6.055  15.222   9.052
 2545POPC   C1A34263   5.618  15.162   8.801
 2545POPC   D2A34264   5.672  15.334   8.356
 2545POPC   C3A34265   5.745  15.074   7.978
 2545POPC   C4A34266   6.152  14.933   7.770
 2545POPC   C1B34267   5.949  15.534   8.750
 2545POPC   C2B34268   6.108  15.646   8.335
 2545POPC   C3B34269   5.976  15.531   7.914
 2545POPC   C4B34270   6.119  15.355   7.495
 2546POPC   NC334271  20.696  10.385   9.660
 2546POPC   PO434272  20.548  11.027   9.535
 2546POPC   GL134273  20.465  10.751   9.167
 2546POPC   GL234274  20.509  10.384   9.150
 2546POPC   C1A34275  20.655  10.639   8.755
 2546POPC   D2A34276  20.799  10.410   8.446
 2546POPC   C3A34277  20.892  10.671   8.118
 2546POPC   C4A34278  20.601  10.625   7.819
 2546POPC   C1B34279  20.347  10.190   8.733
 2546POPC   C2B34280  20.266  10.324   8.288
 2546POPC   C3B34281  20.409  10.157   7.878
 2546POPC   C4B34282  20.773  10.175   7.615
 2547POPC   NC334283  41.091  37.244   9.374
 2547POPC   PO434284  41.360  36.586   9.541
 2547POPC   GL134285  41.348  36.810   9.158
 2547POPC   GL234286  40.989  36.842   9.048
 2547POPC   C1A34287  41.609  36.874   8.781
 2547POPC   D2A34288  41.503  36.731   8.358
 2547POPC   C3A34289  41.774  36.936   8.026
 2547POPC   C4A34290  41.946  36.865   7.598
 2547POPC   C1B34291  41.145  37.068   8.684
 2547POPC   C2B34292  41.320  37.228   8.301
 2547POPC   C3B34293  41.270  36.942   7.964
 2547POPC   C4B34294  41.156  36.508   7.964
 2548POPC   NC334295  26.276  39.483   9.399
 2548POPC   PO434296  25.899  38.826   9.437
 2548POPC   GL134297  26.078  39.081   9.144
 2548POPC   GL234298  26.031  38.868   8.873
 2548POPC   C1A34299  25.911  39.353   8.808
 2548POPC   D2A34300  25.902  39.221   8.400
 2548POPC   C3A34301  26.068  39.552   8.171
 2548POPC   C4A34302  26.041  39.612   7.748
 2548POPC   C1B34303  26.363  39.124   8.696
 2548POPC   C2B34304  26.442  39.195   8.286
 2548POPC   C3B34305  26.151  39.095   7.961
 2548POPC   C4B34306  26.415  39.211   7.673
 2549POPC   NC334307  20.936  11.323   9.411
 2549POPC   PO434308  20.683  11.840   9.708
 2549POPC   GL134309  20.548  11.751   9.248
 2549POPC   GL234310  20.517  11.394   9.142
 2549POPC   C1A34311  20.588  11.775   8.778
 2549POPC   D2A34312  20.638  11.471   8.405
 2549POPC   C3A34313  20.717  11.613   7.959
 2549POPC   C4A34314  20.445  11.586   7.615
 2549POPC   C1B34315  20.435  11.088   8.784
 2549POPC   C2B34316  20.495  10.942   8.323
 2549POPC   C3B34317  20.551  11.122   7.876
 2549POPC   C4B34318  20.454  11.133   7.401
 2550POPC   NC334319  29.326  43.530   9.391
 2550POPC   PO434320  29.453  44.079   9.776
 2550POPC   GL134321  29.469  44.046   9.281
 2550POPC   GL234322  29.125  43.969   9.144
 2550POPC   C1A34323  29.536  43.835   8.833
 2550POPC   D2A34324  29.324  43.774   8.412
 2550POPC   C3A34325  29.509  43.745   7.980
 2550POPC   C4A34326  29.278  43.870   7.596
 2550POPC   C1B34327  29.018  43.636   8.823
 2550POPC   C2B34328  28.897  43.456   8.427
 2550POPC   C3B34329  29.006  43.637   8.020
 2550POPC   C4B34330  28.802  43.945   7.758
 2551POPC   NC334331  41.005  20.431   9.408
 2551POPC   PO434332  41.675  20.701   9.553
 2551POPC   GL134333  41.705  20.817   9.142
 2551POPC   GL234334  41.357  20.713   9.116
 2551POPC   C1A34335  41.925  20.833   8.729
 2551POPC   D2A34336  41.779  20.729   8.294
 2551POPC   C3A34337  41.907  20.371   8.070
 2551POPC   C4A34338  41.705  20.292   7.714
 2551POPC   C1B34339  41.455  20.494   8.743
 2551POPC   C2B34340  41.276  20.572   8.354
 2551POPC   C3B34341  41.374  20.600   7.934
 2551POPC   C4B34342  41.032  20.526   7.627
 2552POPC   NC334343  35.735  41.435   9.489
 2552POPC   PO434344  36.393  41.084   9.382
 2552POPC   GL134345  36.166  41.368   9.076
 2552POPC   GL234346  35.867  41.598   9.051
 2552POPC   C1A34347  36.092  41.486   8.628
 2552POPC   D2A34348  35.845  41.428   8.254
 2552POPC   C3A34349  36.150  41.380   7.928
 2552POPC   C4A34350  36.134  41.530   7.486
 2552POPC   C1B34351  35.731  41.845   8.739
 2552POPC   C2B34352  35.924  41.952   8.343
 2552POPC   C3B34353  35.931  41.827   7.877
 2552POPC   C4B34354  35.912  41.975   7.408
 2553POPC   NC334355  26.744  38.155   9.593
 2553POPC   PO434356  27.301  37.767   9.660
 2553POPC   GL134357  27.037  37.785   9.204
 2553POPC   GL234358  26.726  37.525   9.108
 2553POPC   C1A34359  27.036  37.664   8.737
 2553POPC   D2A34360  26.865  37.836   8.357
 2553POPC   C3A34361  27.022  37.663   7.982
 2553POPC   C4A34362  26.870  37.865   7.620
 2553POPC   C1B34363  26.735  37.234   8.749
 2553POPC   C2B34364  26.725  37.346   8.290
 2553POPC   C3B34365  26.518  37.550   7.891
 2553POPC   C4B34366  26.634  37.435   7.436
 2554POPC   NC334367  39.071   3.205   9.511
 2554POPC   PO434368  39.022   3.842   9.710
 2554POPC   GL134369  39.251   3.761   9.259
 2554POPC   GL234370  39.283   3.414   9.097
 2554POPC   C1A34371  39.243   3.778   8.768
 2554POPC   D2A34372  38.999   3.652   8.390
 2554POPC   C3A34373  39.147   3.791   8.021
 2554POPC   C4A34374  39.103   3.766   7.585
 2554POPC   C1B34375  39.175   3.247   8.679
 2554POPC   C2B34376  39.175   3.198   8.227
 2554POPC   C3B34377  39.323   3.367   7.841
 2554POPC   C4B34378  39.120   3.289   7.416
 2555POPC   NC334379   1.817  27.316   9.534
 2555POPC   PO434380   2.296  27.740   9.482
 2555POPC   GL134381   2.058  27.596   9.181
 2555POPC   GL234382   1.883  27.914   9.197
 2555POPC   C1A34383   1.968  27.265   8.867
 2555POPC   D2A34384   2.010  27.480   8.478
 2555POPC   C3A34385   1.949  27.296   8.094
 2555POPC   C4A34386   1.833  27.509   7.707
 2555POPC   C1B34387   1.665  27.698   8.867
 2555POPC   C2B34388   1.559  27.862   8.497
 2555POPC   C3B34389   1.647  27.728   8.121
 2555POPC   C4B34390   1.607  27.973   7.785
 2556POPC   NC334391  25.168  31.046   9.512
 2556POPC   PO434392  25.589  30.528   9.543
 2556POPC   GL134393  25.431  30.764   9.186
 2556POPC   GL234394  25.062  30.677   9.183
 2556POPC   C1A34395  25.444  30.587   8.753
 2556POPC   D2A34396  25.564  30.406   8.337
 2556POPC   C3A34397  25.401  30.574   7.934
 2556POPC   C4A34398  25.331  30.848   7.567
 2556POPC   C1B34399  24.959  30.442   8.819
 2556POPC   C2B34400  25.060  30.449   8.390
 2556POPC   C3B34401  25.009  30.264   7.989
 2556POPC   C4B34402  25.003  30.455   7.554
 2557POPC   NC334403   2.227  18.512   9.751
 2557POPC   PO434404   1.696  18.108   9.530
 2557POPC   GL134405   1.822  18.067   9.078
 2557POPC   GL234406   1.943  18.363   8.930
 2557POPC   C1A34407   2.088  17.946   8.675
 2557POPC   D2A34408   2.283  17.866   8.266
 2557POPC   C3A34409   2.214  18.139   7.901
 2557POPC   C4A34410   2.175  18.060   7.463
 2557POPC   C1B34411   1.736  18.314   8.604
 2557POPC   C2B34412   1.977  18.473   8.298
 2557POPC   C3B34413   1.901  18.560   7.915
 2557POPC   C4B34414   1.734  18.247   7.641
 2558POPC   NC334415  44.691  32.674   9.347
 2558POPC   PO434416  44.406  32.085   9.509
 2558POPC   GL134417  44.398  32.285   9.116
 2558POPC   GL234418  44.686  32.394   8.921
 2558POPC   C1A34419  44.350  32.102   8.707
 2558POPC   D2A34420  44.607  32.174   8.372
 2558POPC   C3A34421  44.417  32.323   8.014
 2558POPC   C4A34422  44.542  32.468   7.615
 2558POPC   C1B34423   0.074  32.337   8.694
 2558POPC   C2B34424   0.108  32.171   8.330
 2558POPC   C3B34425  44.931  32.335   7.967
 2558POPC   C4B34426   0.056  32.512   7.588
 2559POPC   NC334427  37.316  32.713   9.360
 2559POPC   PO434428  36.886  33.218   9.518
 2559POPC   GL134429  36.982  33.030   9.155
 2559POPC   GL234430  36.843  32.702   9.192
 2559POPC   C1A34431  36.801  33.084   8.777
 2559POPC   D2A34432  36.679  33.281   8.400
 2559POPC   C3A34433  36.903  33.209   8.008
 2559POPC   C4A34434  37.079  33.048   7.649
 2559POPC   C1B34435  36.606  32.592   8.852
 2559POPC   C2B34436  36.568  32.776   8.453
 2559POPC   C3B34437  36.667  32.732   8.070
 2559POPC   C4B34438  36.612  32.870   7.694
 2560POPC   NC334439  35.506   6.265   9.645
 2560POPC   PO434440  35.059   6.664   9.434
 2560POPC   GL134441  35.369   6.498   9.153
 2560POPC   GL234442  35.153   6.384   8.892
 2560POPC   C1A34443  35.635   6.579   8.764
 2560POPC   D2A34444  35.723   6.427   8.325
 2560POPC   C3A34445  35.374   6.394   8.065
 2560POPC   C4A34446  35.251   6.710   7.814
 2560POPC   C1B34447  35.172   6.822   8.732
 2560POPC   C2B34448  35.146   7.005   8.330
 2560POPC   C3B34449  34.966   7.114   7.934
 2560POPC   C4B34450  35.060   7.046   7.476
 2561POPC   NC334451  33.128  35.726   9.568
 2561POPC   PO434452  33.032  35.062   9.623
 2561POPC   GL134453  33.232  35.093   9.233
 2561POPC   GL234454  33.166  35.447   9.145
 2561POPC   C1A34455  33.466  35.181   8.842
 2561POPC   D2A34456  33.323  35.522   8.536
 2561POPC   C3A34457  33.362  35.418   8.076
 2561POPC   C4A34458  33.317  35.058   7.754
 2561POPC   C1B34459  32.957  35.271   8.785
 2561POPC   C2B34460  32.868  35.339   8.340
 2561POPC   C3B34461  32.884  35.327   7.910
 2561POPC   C4B34462  32.967  35.322   7.480
 2562POPC   NC334463  27.488   9.410   9.350
 2562POPC   PO434464  28.000   9.850   9.371
 2562POPC   GL134465  27.717   9.787   9.054
 2562POPC   GL234466  27.647   9.424   8.882
 2562POPC   C1A34467  27.874   9.819   8.654
 2562POPC   D2A34468  27.607   9.679   8.363
 2562POPC   C3A34469  27.620   9.891   7.997
 2562POPC   C4A34470  27.227   9.941   7.857
 2562POPC   C1B34471  27.941   9.304   8.539
 2562POPC   C2B34472  27.898   9.373   8.088
 2562POPC   C3B34473  27.537   9.434   7.801
 2562POPC   C4B34474  27.722   9.310   7.390
 2563POPC   NC334475  38.973  41.106   9.842
 2563POPC   PO434476  39.541  40.730   9.568
 2563POPC   GL134477  39.373  40.865   9.097
 2563POPC   GL234478  39.209  40.552   8.912
 2563POPC   C1A34479  39.055  40.978   8.730
 2563POPC   D2A34480  39.221  40.864   8.311
 2563POPC   C3A34481  39.086  40.587   8.000
 2563POPC   C4A34482  38.881  40.295   7.726
 2563POPC   C1B34483  39.532  40.667   8.655
 2563POPC   C2B34484  39.617  40.495   8.264
 2563POPC   C3B34485  39.587  40.752   7.932
 2563POPC   C4B34486  39.439  40.492   7.615
 2564POPC   NC334487  14.373  18.674   9.341
 2564POPC   PO434488  14.123  18.105   9.630
 2564POPC   GL134489  14.321  18.174   9.204
 2564POPC   GL234490  14.198  18.423   8.935
 2564POPC   C1A34491  14.572  18.080   8.836
 2564POPC   D2A34492  14.776  18.174   8.461
 2564POPC   C3A34493  14.611  18.012   8.091
 2564POPC   C4A34494  14.368  18.259   7.811
 2564POPC   C1B34495  14.467  18.546   8.616
 2564POPC   C2B34496  14.352  18.567   8.194
 2564POPC   C3B34497  14.102  18.696   7.800
 2564POPC   C4B34498  14.033  18.567   7.325
 2565POPC   NC334499  25.836  11.862   9.403
 2565POPC   PO434500  25.199  12.175   9.492
 2565POPC   GL134501  25.406  12.046   9.137
 2565POPC   GL234502  25.560  12.317   9.023
 2565POPC   C1A34503  25.212  11.915   8.756
 2565POPC   D2A34504  25.023  12.088   8.395
 2565POPC   C3A34505  25.105  11.919   7.997
 2565POPC   C4A34506  25.502  11.758   7.845
 2565POPC   C1B34507  25.130  12.418   8.861
 2565POPC   C2B34508  25.042  12.610   8.469
 2565POPC   C3B34509  25.169  12.451   8.058
 2565POPC   C4B34510  25.504  12.261   7.806
 2566POPC   NC334511  29.574  24.259   9.429
 2566POPC   PO434512  28.911  24.135   9.394
 2566POPC   GL134513  29.175  24.429   9.158
 2566POPC   GL234514  29.092  24.794   9.173
 2566POPC   C1A34515  29.425  24.520   8.784
 2566POPC   D2A34516  29.206  24.458   8.389
 2566POPC   C3A34517  29.405  24.335   8.003
 2566POPC   C4A34518  29.287  23.964   7.767
 2566POPC   C1B34519  28.907  24.664   8.772
 2566POPC   C2B34520  28.880  24.855   8.379
 2566POPC   C3B34521  29.206  24.856   8.076
 2566POPC   C4B34522  29.126  24.895   7.691
 2567POPC   NC334523  38.321  26.008   9.657
 2567POPC   PO434524  38.700  25.400   9.515
 2567POPC   GL134525  38.481  25.791   9.208
 2567POPC   GL234526  38.279  26.149   9.182
 2567POPC   C1A34527  38.467  25.978   8.734
 2567POPC   D2A34528  38.690  26.026   8.311
 2567POPC   C3A34529  38.530  25.738   7.936
 2567POPC   C4A34530  38.380  25.683   7.463
 2567POPC   C1B34531  38.133  26.373   8.820
 2567POPC   C2B34532  38.294  26.384   8.384
 2567POPC   C3B34533  38.378  26.262   7.973
 2567POPC   C4B34534  38.149  26.109   7.641
 2568POPC   NC334535  42.653  42.480   9.770
 2568POPC   PO434536  42.175  42.093   9.478
 2568POPC   GL134537  42.309  42.269   8.997
 2568POPC   GL234538  42.691  42.370   8.925
 2568POPC   C1A34539  42.406  42.235   8.519
 2568POPC   D2A34540  42.549  42.562   8.225
 2568POPC   C3A34541  42.175  42.672   8.016
 2568POPC   C4A34542  42.106  42.336   7.739
 2568POPC   C1B34543  42.709  41.916   8.758
 2568POPC   C2B34544  42.648  41.697   8.374
 2568POPC   C3B34545  42.330  41.847   8.131
 2568POPC   C4B34546  42.434  41.965   7.737
 2569POPC   NC334547  29.368  41.355   9.410
 2569POPC   PO434548  28.698  41.491   9.410
 2569POPC   GL134549  28.981  41.625   9.082
 2569POPC   GL234550  29.349  41.709   9.054
 2569POPC   C1A34551  28.903  41.453   8.705
 2569POPC   D2A34552  28.982  41.197   8.359
 2569POPC   C3A34553  28.794  41.393   8.039
 2569POPC   C4A34554  28.912  41.642   7.704
 2569POPC   C1B34555  29.322  41.740   8.645
 2569POPC   C2B34556  29.135  41.685   8.279
 2569POPC   C3B34557  29.301  41.464   7.987
 2569POPC   C4B34558  29.425  41.658   7.646
 2570POPC   NC334559   2.850   3.781   9.531
 2570POPC   PO434560   2.440   3.214   9.380
 2570POPC   GL134561   2.859   3.400   9.173
 2570POPC   GL234562   2.760   3.746   9.032
 2570POPC   C1A34563   3.013   3.415   8.722
 2570POPC   D2A34564   2.733   3.281   8.346
 2570POPC   C3A34565   2.657   3.313   7.869
 2570POPC   C4A34566   2.511   3.059   7.490
 2570POPC   C1B34567   2.567   3.776   8.621
 2570POPC   C2B34568   2.626   3.758   8.174
 2570POPC   C3B34569   3.023   3.651   8.049
 2570POPC   C4B34570   3.129   3.512   7.698
 2571POPC   NC334571  16.558  33.103   9.519
 2571POPC   PO434572  17.164  33.080   9.527
 2571POPC   GL134573  16.959  33.184   9.152
 2571POPC   GL234574  16.708  32.921   9.077
 2571POPC   C1A34575  16.813  33.248   8.717
 2571POPC   D2A34576  16.579  33.056   8.388
 2571POPC   C3A34577  16.629  33.204   7.976
 2571POPC   C4A34578  16.800  33.032   7.617
 2571POPC   C1B34579  16.448  32.689   8.802
 2571POPC   C2B34580  16.492  32.539   8.382
 2571POPC   C3B34581  16.602  32.671   7.969
 2571POPC   C4B34582  16.319  32.864   7.703
 2572POPC   NC334583  43.542  33.999   9.475
 2572POPC   PO434584  42.853  34.048   9.561
 2572POPC   GL134585  42.927  33.742   9.212
 2572POPC   GL234586  43.257  33.594   9.145
 2572POPC   C1A34587  43.002  33.835   8.778
 2572POPC   D2A34588  42.880  33.976   8.364
 2572POPC   C3A34589  43.070  33.748   8.032
 2572POPC   C4A34590  43.001  33.609   7.603
 2572POPC   C1B34591  43.525  33.768   8.840
 2572POPC   C2B34592  43.397  33.924   8.446
 2572POPC   C3B34593  43.559  33.895   8.047
 2572POPC   C4B34594  43.447  33.851   7.662
 2573POPC   NC334595   8.568  41.805   9.511
 2573POPC   PO434596   9.250  41.844   9.453
 2573POPC   GL134597   8.941  41.671   9.153
 2573POPC   GL234598   8.734  41.387   9.271
 2573POPC   C1A34599   9.068  41.480   8.767
 2573POPC   D2A34600   9.226  41.386   8.371
 2573POPC   C3A34601   9.030  41.620   8.084
 2573POPC   C4A34602   9.108  41.689   7.660
 2573POPC   C1B34603   8.603  41.336   8.874
 2573POPC   C2B34604   8.672  41.504   8.449
 2573POPC   C3B34605   8.665  41.270   8.081
 2573POPC   C4B34606   8.881  41.249   7.725
 2574POPC   NC334607  29.891   2.034   9.823
 2574POPC   PO434608  29.781   1.734   9.282
 2574POPC   GL134609  30.032   1.828   8.962
 2574POPC   GL234610  29.944   2.176   9.046
 2574POPC   C1A34611  30.058   1.955   8.530
 2574POPC   D2A34612  30.059   2.304   8.253
 2574POPC   C3A34613  30.097   2.183   7.856
 2574POPC   C4A34614  30.099   1.768   7.684
 2574POPC   C1B34615  29.583   2.049   8.760
 2574POPC   C2B34616  29.517   1.852   8.404
 2574POPC   C3B34617  29.697   1.841   8.010
 2574POPC   C4B34618  29.611   2.107   7.693
 2575POPC   NC334619  43.206  17.228   9.500
 2575POPC   PO434620  43.055  17.837   9.517
 2575POPC   GL134621  43.265  17.621   9.162
 2575POPC   GL234622  42.954  17.454   9.122
 2575POPC   C1A34623  43.274  17.501   8.707
 2575POPC   D2A34624  43.065  17.340   8.319
 2575POPC   C3A34625  43.256  17.478   7.923
 2575POPC   C4A34626  43.414  17.816   7.635
 2575POPC   C1B34627  42.748  17.433   8.762
 2575POPC   C2B34628  42.478  17.394   8.414
 2575POPC   C3B34629  42.643  17.371   8.027
 2575POPC   C4B34630  42.807  17.281   7.674
 2576POPC   NC334631  11.341  32.139   9.461
 2576POPC   PO434632  10.954  32.540   9.735
 2576POPC   GL134633  11.275  32.491   9.145
 2576POPC   GL234634  11.116  32.119   9.017
 2576POPC   C1A34635  11.469  32.296   8.734
 2576POPC   D2A34636  11.351  32.032   8.353
 2576POPC   C3A34637  11.662  32.152   8.070
 2576POPC   C4A34638  11.658  32.324   7.675
 2576POPC   C1B34639  10.958  32.255   8.614
 2576POPC   C2B34640  10.815  32.549   8.355
 2576POPC   C3B34641  10.986  32.473   7.962
 2576POPC   C4B34642  11.198  32.110   7.793
 2577POPC   NC334643  17.160  27.597   9.518
 2577POPC   PO434644  17.897  27.520   9.403
 2577POPC   GL134645  17.561  27.810   9.215
 2577POPC   GL234646  17.677  28.173   9.123
 2577POPC   C1A34647  17.348  27.667   8.832
 2577POPC   D2A34648  17.314  27.298   8.554
 2577POPC   C3A34649  17.420  27.358   8.112
 2577POPC   C4A34650  17.393  27.755   7.882
 2577POPC   C1B34651  17.831  27.916   8.789
 2577POPC   C2B34652  17.651  27.750   8.415
 2577POPC   C3B34653  17.871  27.644   8.067
 2577POPC   C4B34654  17.793  27.444   7.708
 2578POPC   NC334655  10.817  33.634   9.555
 2578POPC   PO434656  10.497  34.255   9.471
 2578POPC   GL134657  10.444  34.033   9.105
 2578POPC   GL234658  10.510  33.666   9.137
 2578POPC   C1A34659  10.422  34.023   8.662
 2578POPC   D2A34660  10.622  33.822   8.304
 2578POPC   C3A34661  10.386  33.813   7.892
 2578POPC   C4A34662  10.143  33.997   7.516
 2578POPC   C1B34663  10.522  33.512   8.716
 2578POPC   C2B34664  10.248  33.463   8.337
 2578POPC   C3B34665  10.330  33.276   7.972
 2578POPC   C4B34666  10.712  33.316   7.749
 2579POPC   NC334667  17.440  33.860   9.689
 2579POPC   PO434668  17.816  33.622   9.222
 2579POPC   GL134669  17.478  33.842   9.042
 2579POPC   GL234670  17.646  33.656   8.749
 2579POPC   C1A34671  17.314  34.022   8.681
 2579POPC   D2A34672  17.589  34.141   8.348
 2579POPC   C3A34673  17.486  33.857   8.063
 2579POPC   C4A34674  17.313  33.837   7.657
 2579POPC   C1B34675  17.254  33.482   8.683
 2579POPC   C2B34676  17.040  33.441   8.280
 2579POPC   C3B34677  17.314  33.396   7.940
 2579POPC   C4B34678  17.736  33.507   7.764
 2580POPC   NC334679  11.781  31.412   9.465
 2580POPC   PO434680  12.382  31.782   9.364
 2580POPC   GL134681  12.259  31.380   9.158
 2580POPC   GL234682  11.917  31.303   9.004
 2580POPC   C1A34683  12.348  31.251   8.718
 2580POPC   D2A34684  12.227  31.416   8.359
 2580POPC   C3A34685  12.382  31.281   8.004
 2580POPC   C4A34686  12.267  31.503   7.650
 2580POPC   C1B34687  11.782  31.358   8.614
 2580POPC   C2B34688  11.787  31.680   8.322
 2580POPC   C3B34689  11.895  31.455   7.966
 2580POPC   C4B34690  11.728  31.427   7.542
 2581POPC   NC334691   0.725  42.520   9.682
 2581POPC   PO434692   0.156  42.054   9.427
 2581POPC   GL134693   0.323  42.421   9.094
 2581POPC   GL234694   0.683  42.594   9.176
 2581POPC   C1A34695   0.637  42.288   8.751
 2581POPC   D2A34696   0.736  42.231   8.323
 2581POPC   C3A34697   0.390  42.465   8.135
 2581POPC   C4A34698   0.144  42.299   7.767
 2581POPC   C1B34699   0.957  42.682   8.822
 2581POPC   C2B34700   0.869  42.717   8.393
 2581POPC   C3B34701   0.907  42.589   7.966
 2581POPC   C4B34702   0.573  42.553   7.685
 2582POPC   NC334703  10.706  20.461   9.784
 2582POPC   PO434704  11.052  20.196   9.324
 2582POPC   GL134705  10.709  20.357   9.085
 2582POPC   GL234706  10.384  20.466   9.232
 2582POPC   C1A34707  10.671  20.631   8.723
 2582POPC   D2A34708  10.598  20.612   8.296
 2582POPC   C3A34709  10.649  20.365   7.949
 2582POPC   C4A34710  10.493  20.603   7.613
 2582POPC   C1B34711  10.205  20.425   8.791
 2582POPC   C2B34712  10.237  20.231   8.350
 2582POPC   C3B34713  10.136  20.331   7.901
 2582POPC   C4B34714  10.169  20.252   7.426
 2583POPC   NC334715  42.817  25.941   9.321
 2583POPC   PO434716  43.453  25.876   9.553
 2583POPC   GL134717  43.418  26.183   9.150
 2583POPC   GL234718  43.096  26.125   8.960
 2583POPC   C1A34719  43.432  26.320   8.658
 2583POPC   D2A34720  43.199  26.045   8.372
 2583POPC   C3A34721  43.352  25.921   7.984
 2583POPC   C4A34722  43.411  26.178   7.629
 2583POPC   C1B34723  42.765  26.039   8.652
 2583POPC   C2B34724  42.730  26.348   8.336
 2583POPC   C3B34725  42.968  26.313   7.982
 2583POPC   C4B34726  42.816  25.931   7.843
 2584POPC   NC334727  26.333  18.159   9.438
 2584POPC   PO434728  26.928  18.082   9.731
 2584POPC   GL134729  26.898  18.251   9.261
 2584POPC   GL234730  26.588  18.340   9.049
 2584POPC   C1A34731  27.039  18.454   8.855
 2584POPC   D2A34732  26.975  18.357   8.410
 2584POPC   C3A34733  26.996  18.536   7.996
 2584POPC   C4A34734  26.802  18.315   7.631
 2584POPC   C1B34735  26.456  17.928   8.855
 2584POPC   C2B34736  26.561  17.788   8.455
 2584POPC   C3B34737  26.655  18.042   8.111
 2584POPC   C4B34738  26.546  17.872   7.746
 2585POPC   NC334739   0.678  10.052   9.558
 2585POPC   PO434740   0.196   9.468   9.521
 2585POPC   GL134741   0.180   9.714   9.139
 2585POPC   GL234742   0.522   9.845   9.113
 2585POPC   C1A34743   0.286   9.767   8.684
 2585POPC   D2A34744   0.492   9.693   8.305
 2585POPC   C3A34745   0.276   9.770   7.935
 2585POPC   C4A34746   0.105   9.508   7.603
 2585POPC   C1B34747   0.755   9.982   8.769
 2585POPC   C2B34748   0.962   9.874   8.408
 2585POPC   C3B34749   0.813   9.981   8.006
 2585POPC   C4B34750   0.725   9.725   7.684
 2586POPC   NC334751  23.853  18.096   9.493
 2586POPC   PO434752  23.410  18.645   9.389
 2586POPC   GL134753  23.476  18.267   9.202
 2586POPC   GL234754  23.812  18.399   9.085
 2586POPC   C1A34755  23.465  18.158   8.790
 2586POPC   D2A34756  23.386  18.547   8.551
 2586POPC   C3A34757  23.393  18.478   8.119
 2586POPC   C4A34758  23.595  18.333   7.734
 2586POPC   C1B34759  23.877  18.453   8.643
 2586POPC   C2B34760  23.736  18.164   8.315
 2586POPC   C3B34761  23.939  18.013   7.928
 2586POPC   C4B34762  23.873  18.011   7.446
 2587POPC   NC334763  22.290  29.461  10.105
 2587POPC   PO434764  22.097  29.826   9.570
 2587POPC   GL134765  22.114  29.925   9.164
 2587POPC   GL234766  22.071  29.596   9.095
 2587POPC   C1A34767  22.198  30.198   8.827
 2587POPC   D2A34768  22.407  30.203   8.424
 2587POPC   C3A34769  22.130  30.141   8.081
 2587POPC   C4A34770  22.274  29.833   7.800
 2587POPC   C1B34771  22.134  29.661   8.636
 2587POPC   C2B34772  22.067  29.619   8.223
 2587POPC   C3B34773  21.969  29.444   7.842
 2587POPC   C4B34774  21.927  29.684   7.458
 2588POPC   NC334775  15.026   4.582   9.435
 2588POPC   PO434776  15.620   4.189   9.474
 2588POPC   GL134777  15.422   4.337   9.141
 2588POPC   GL234778  15.114   4.135   9.191
 2588POPC   C1A34779  15.380   4.171   8.722
 2588POPC   D2A34780  15.354   3.968   8.318
 2588POPC   C3A34781  15.332   4.233   7.956
 2588POPC   C4A34782  15.007   4.281   7.665
 2588POPC   C1B34783  14.840   3.998   8.849
 2588POPC   C2B34784  14.821   3.821   8.430
 2588POPC   C3B34785  14.919   3.888   7.990
 2588POPC   C4B34786  14.994   3.760   7.553
 2589POPC   NC334787  35.194  13.861   9.644
 2589POPC   PO434788  35.714  13.512   9.492
 2589POPC   GL134789  35.527  13.797   9.227
 2589POPC   GL234790  35.176  13.724   9.161
 2589POPC   C1A34791  35.594  13.939   8.827
 2589POPC   D2A34792  35.433  13.796   8.465
 2589POPC   C3A34793  35.588  13.673   8.086
 2589POPC   C4A34794  35.450  13.513   7.695
 2589POPC   C1B34795  34.968  13.592   8.798
 2589POPC   C2B34796  34.926  13.784   8.408
 2589POPC   C3B34797  35.075  13.697   8.027
 2589POPC   C4B34798  35.090  13.883   7.637
 2590POPC   NC334799  21.151  33.553   9.575
 2590POPC   PO434800  21.702  33.931   9.776
 2590POPC   GL134801  21.516  33.897   9.318
 2590POPC   GL234802  21.420  33.574   9.158
 2590POPC   C1A34803  21.402  33.972   8.854
 2590POPC   D2A34804  21.509  34.000   8.407
 2590POPC   C3A34805  21.191  34.039   8.089
 2590POPC   C4A34806  21.269  34.099   7.656
 2590POPC   C1B34807  21.507  33.473   8.746
 2590POPC   C2B34808  21.368  33.492   8.319
 2590POPC   C3B34809  21.453  33.663   7.906
 2590POPC   C4B34810  21.376  33.586   7.462
 2591POPC   NC334811  27.393   3.306   9.502
 2591POPC   PO434812  27.802   3.807   9.643
 2591POPC   GL134813  27.708   3.602   9.248
 2591POPC   GL234814  27.421   3.774   9.173
 2591POPC   C1A34815  27.612   3.475   8.806
 2591POPC   D2A34816  27.468   3.619   8.425
 2591POPC   C3A34817  27.470   3.414   8.030
 2591POPC   C4A34818  27.522   3.624   7.655
 2591POPC   C1B34819  27.225   3.933   8.811
 2591POPC   C2B34820  27.074   3.940   8.396
 2591POPC   C3B34821  27.278   3.929   8.011
 2591POPC   C4B34822  27.178   3.996   7.584
 2592POPC   NC334823   9.162  29.959   9.637
 2592POPC   PO434824   9.836  29.821   9.588
 2592POPC   GL134825   9.785  29.987   9.189
 2592POPC   GL234826   9.991  30.276   9.060
 2592POPC   C1A34827   9.691  29.849   8.804
 2592POPC   D2A34828   9.790  29.966   8.408
 2592POPC   C3A34829   9.536  29.912   8.079
 2592POPC   C4A34830   9.427  29.540   7.837
 2592POPC   C1B34831   9.636  30.368   8.775
 2592POPC   C2B34832   9.466  30.379   8.393
 2592POPC   C3B34833   9.593  30.584   8.066
 2592POPC   C4B34834   9.539  30.306   7.742
 2593POPC   NC334835  13.682  35.104   9.477
 2593POPC   PO434836  13.499  35.759   9.506
 2593POPC   GL134837  13.626  35.529   9.166
 2593POPC   GL234838  13.986  35.513   9.269
 2593POPC   C1A34839  13.500  35.212   8.848
 2593POPC   D2A34840  13.449  35.046   8.452
 2593POPC   C3A34841  13.386  35.394   8.166
 2593POPC   C4A34842  13.437  35.280   7.741
 2593POPC   C1B34843  14.003  35.337   8.859
 2593POPC   C2B34844  13.828  35.400   8.457
 2593POPC   C3B34845  13.880  35.323   8.018
 2593POPC   C4B34846  13.827  35.617   7.659
 2594POPC   NC334847  11.542  42.302   9.334
 2594POPC   PO434848  10.931  42.133   9.321
 2594POPC   GL134849  11.115  42.371   9.021
 2594POPC   GL234850  10.964  42.664   8.944
 2594POPC   C1A34851  11.363  42.334   8.681
 2594POPC   D2A34852  11.222  42.137   8.353
 2594POPC   C3A34853  11.290  42.290   7.972
 2594POPC   C4A34854  11.113  41.951   7.769
 2594POPC   C1B34855  11.299  42.840   8.686
 2594POPC   C2B34856  11.543  42.948   8.301
 2594POPC   C3B34857  11.541  42.772   7.877
 2594POPC   C4B34858  11.178  42.694   7.594
 2595POPC   NC334859  13.265  33.704   9.937
 2595POPC   PO434860  13.722  33.671   9.408
 2595POPC   GL134861  13.390  33.810   9.090
 2595POPC   GL234862  13.231  34.173   9.091
 2595POPC   C1A34863  13.578  33.832   8.664
 2595POPC   D2A34864  13.577  33.593   8.288
 2595POPC   C3A34865  13.714  33.863   7.977
 2595POPC   C4A34866  13.833  33.572   7.726
 2595POPC   C1B34867  13.132  34.055   8.656
 2595POPC   C2B34868  13.272  33.995   8.234
 2595POPC   C3B34869  13.265  33.718   7.835
 2595POPC   C4B34870  13.477  33.892   7.476
 2596POPC   NC334871   3.403  22.105   9.451
 2596POPC   PO434872   4.013  22.316   9.430
 2596POPC   GL134873   3.820  22.134   9.084
 2596POPC   GL234874   3.794  21.795   9.223
 2596POPC   C1A34875   3.638  22.200   8.669
 2596POPC   D2A34876   3.246  22.242   8.438
 2596POPC   C3A34877   3.329  22.181   8.008
 2596POPC   C4A34878   3.758  22.237   7.819
 2596POPC   C1B34879   3.504  21.749   8.872
 2596POPC   C2B34880   3.343  21.708   8.457
 2596POPC   C3B34881   3.216  21.681   8.046
 2596POPC   C4B34882   3.504  21.799   7.714
 2597POPC   NC334883   2.722  41.212   9.397
 2597POPC   PO434884   2.933  40.574   9.550
 2597POPC   GL134885   2.676  40.549   9.166
 2597POPC   GL234886   2.876  40.836   9.099
 2597POPC   C1A34887   2.348  40.531   8.788
 2597POPC   D2A34888   2.462  40.597   8.369
 2597POPC   C3A34889   2.267  40.551   7.983
 2597POPC   C4A34890   2.514  40.516   7.599
 2597POPC   C1B34891   2.757  40.814   8.714
 2597POPC   C2B34892   2.934  40.772   8.321
 2597POPC   C3B34893   2.733  40.809   7.963
 2597POPC   C4B34894   3.059  40.787   7.717
 2598POPC   NC334895  38.437  31.866   9.451
 2598POPC   PO434896  38.430  31.161   9.497
 2598POPC   GL134897  38.544  31.216   9.079
 2598POPC   GL234898  38.468  31.558   9.049
 2598POPC   C1A34899  38.331  31.258   8.662
 2598POPC   D2A34900  38.125  31.145   8.268
 2598POPC   C3A34901  38.393  31.321   7.925
 2598POPC   C4A34902  38.690  31.647   7.893
 2598POPC   C1B34903  38.545  31.897   8.755
 2598POPC   C2B34904  38.429  31.951   8.335
 2598POPC   C3B34905  38.182  31.794   8.026
 2598POPC   C4B34906  38.270  31.804   7.637
 2599POPC   NC334907  19.924   0.097   9.440
 2599POPC   PO434908  19.926   0.671   9.685
 2599POPC   GL134909  19.917   0.629   9.234
 2599POPC   GL234910  20.191   0.879   9.228
 2599POPC   C1A34911  19.784   0.407   8.797
 2599POPC   D2A34912  19.724   0.249   8.339
 2599POPC   C3A34913  19.652   0.601   8.060
 2599POPC   C4A34914  19.423   0.700   7.654
 2599POPC   C1B34915  20.220   0.696   8.828
 2599POPC   C2B34916  20.085   0.608   8.411
 2599POPC   C3B34917  20.177   0.718   8.010
 2599POPC   C4B34918  19.935   0.714   7.651
 2600POPC   NC334919  22.696  24.187   9.616
 2600POPC   PO434920  22.027  24.440   9.573
 2600POPC   GL134921  22.155  24.491   9.178
 2600POPC   GL234922  21.956  24.784   9.125
 2600POPC   C1A34923  22.394  24.339   8.819
 2600POPC   D2A34924  22.459  24.494   8.395
 2600POPC   C3A34925  22.353  24.263   8.038
 2600POPC   C4A34926  22.479  24.405   7.656
 2600POPC   C1B34927  21.897  24.522   8.741
 2600POPC   C2B34928  21.944  24.404   8.337
 2600POPC   C3B34929  21.956  24.530   7.920
 2600POPC   C4B34930  21.953  24.453   7.477
 2601POPC   NC334931  11.062  25.801   9.465
 2601POPC   PO434932  11.489  26.307   9.591
 2601POPC   GL134933  11.590  26.187   9.203
 2601POPC   GL234934  11.356  25.945   9.088
 2601POPC   C1A34935  11.515  26.306   8.783
 2601POPC   D2A34936  11.208  26.194   8.488
 2601POPC   C3A34937  11.337  26.345   8.098
 2601POPC   C4A34938  11.558  26.163   7.773
 2601POPC   C1B34939  11.174  25.684   8.784
 2601POPC   C2B34940  10.914  25.757   8.435
 2601POPC   C3B34941  11.177  25.833   8.095
 2601POPC   C4B34942  11.211  25.763   7.689
 2602POPC   NC334943  33.633   0.957   9.409
 2602POPC   PO434944  34.167   1.440   9.434
 2602POPC   GL134945  33.911   1.280   9.123
 2602POPC   GL234946  33.636   1.500   9.235
 2602POPC   C1A34947  33.879   1.106   8.709
 2602POPC   D2A34948  33.926   1.378   8.376
 2602POPC   C3A34949  34.012   1.246   7.982
 2602POPC   C4A34950  33.711   1.106   7.685
 2602POPC   C1B34951  33.613   1.546   8.791
 2602POPC   C2B34952  33.416   1.392   8.418
 2602POPC   C3B34953  33.546   1.505   7.976
 2602POPC   C4B34954  33.358   1.426   7.558
 2603POPC   NC334955   6.128  42.452   9.476
 2603POPC   PO434956   5.415  42.547   9.596
 2603POPC   GL134957   5.653  42.452   9.232
 2603POPC   GL234958   5.826  42.755   9.136
 2603POPC   C1A34959   5.800  42.326   8.827
 2603POPC   D2A34960   5.596  42.336   8.436
 2603POPC   C3A34961   5.811  42.234   8.082
 2603POPC   C4A34962   6.051  42.140   7.738
 2603POPC   C1B34963   6.184  42.674   8.857
 2603POPC   C2B34964   6.135  42.543   8.453
 2603POPC   C3B34965   6.067  42.671   8.063
 2603POPC   C4B34966   6.216  42.637   7.673
 2604POPC   NC334967  35.261   1.671   9.369
 2604POPC   PO434968  35.746   2.109   9.548
 2604POPC   GL134969  35.487   2.068   9.178
 2604POPC   GL234970  35.255   2.314   9.055
 2604POPC   C1A34971  35.408   1.846   8.759
 2604POPC   D2A34972  35.152   1.784   8.383
 2604POPC   C3A34973  35.449   1.880   8.071
 2604POPC   C4A34974  35.397   2.048   7.670
 2604POPC   C1B34975  34.998   2.132   8.765
 2604POPC   C2B34976  34.880   2.266   8.410
 2604POPC   C3B34977  35.095   2.256   8.053
 2604POPC   C4B34978  34.930   2.319   7.693
 2605POPC   NC334979  44.655  38.507   9.556
 2605POPC   PO434980  44.268  39.031   9.622
 2605POPC   GL134981  44.436  38.782   9.192
 2605POPC   GL234982  44.467  38.400   9.098
 2605POPC   C1A34983  44.760  38.730   8.855
 2605POPC   D2A34984  44.726  38.572   8.436
 2605POPC   C3A34985  44.489  38.741   8.083
 2605POPC   C4A34986  44.627  38.610   7.693
 2605POPC   C1B34987  44.360  38.238   8.680
 2605POPC   C2B34988  44.515  38.099   8.283
 2605POPC   C3B34989  44.358  38.242   7.893
 2605POPC   C4B34990  44.485  38.144   7.463
 2606POPC   NC334991  21.848  20.065   9.583
 2606POPC   PO434992  22.455  19.688   9.498
 2606POPC   GL134993  22.311  19.833   9.104
 2606POPC   GL234994  21.981  19.999   9.088
 2606POPC   C1A34995  22.277  19.588   8.733
 2606POPC   D2A34996  22.110  19.318   8.417
 2606POPC   C3A34997  22.226  19.608   8.115
 2606POPC   C4A34998  22.099  19.770   7.739
 2606POPC   C1B34999  22.162  20.183   8.724
 2606POPC   C2B35000  22.163  20.213   8.284
 2606POPC   C3B35001  21.948  20.226   7.910
 2606POPC   C4B35002  22.152  20.217   7.484
 2607POPC   NC335003  36.126  38.256   9.837
 2607POPC   PO435004  36.374  38.764   9.548
 2607POPC   GL135005  36.303  38.575   9.165
 2607POPC   GL235006  36.062  38.330   9.256
 2607POPC   C1A35007  36.088  38.738   8.769
 2607POPC   D2A35008  35.797  38.808   8.409
 2607POPC   C3A35009  36.100  38.711   8.083
 2607POPC   C4A35010  36.051  38.567   7.654
 2607POPC   C1B35011  36.203  38.225   8.815
 2607POPC   C2B35012  35.995  38.340   8.435
 2607POPC   C3B35013  35.924  38.159   8.039
 2607POPC   C4B35014  36.062  38.061   7.628
 2608POPC   NC335015  34.079  36.586   9.282
 2608POPC   PO435016  33.748  37.079   9.484
 2608POPC   GL135017  33.753  36.955   9.080
 2608POPC   GL235018  34.089  37.018   8.965
 2608POPC   C1A35019  33.558  36.769   8.715
 2608POPC   D2A35020  33.722  36.468   8.410
 2608POPC   C3A35021  33.526  36.535   8.003
 2608POPC   C4A35022  33.588  36.939   7.878
 2608POPC   C1B35023  34.148  36.705   8.660
 2608POPC   C2B35024  34.222  36.758   8.256
 2608POPC   C3B35025  34.042  36.667   7.901
 2608POPC   C4B35026  34.001  36.639   7.471
 2609POPC   NC335027   7.157  29.483   9.463
 2609POPC   PO435028   7.396  28.811   9.464
 2609POPC   GL135029   7.540  29.170   9.164
 2609POPC   GL235030   7.342  29.454   9.002
 2609POPC   C1A35031   7.731  29.239   8.740
 2609POPC   D2A35032   7.684  28.980   8.352
 2609POPC   C3A35033   7.448  29.203   8.027
 2609POPC   C4A35034   7.367  29.509   7.731
 2609POPC   C1B35035   7.026  29.332   8.746
 2609POPC   C2B35036   7.072  29.152   8.373
 2609POPC   C3B35037   6.930  29.312   7.996
 2609POPC   C4B35038   6.976  29.196   7.574
 2610POPC   NC335039  34.634   4.822   9.499
 2610POPC   PO435040  34.182   5.314   9.565
 2610POPC   GL135041  34.440   5.174   9.192
 2610POPC   GL235042  34.818   5.212   9.191
 2610POPC   C1A35043  34.559   4.895   8.841
 2610POPC   D2A35044  34.763   4.788   8.463
 2610POPC   C3A35045  34.544   4.903   8.104
 2610POPC   C4A35046  34.612   4.883   7.679
 2610POPC   C1B35047  34.825   5.459   8.779
 2610POPC   C2B35048  34.775   5.411   8.332
 2610POPC   C3B35049  34.731   5.361   7.915
 2610POPC   C4B35050  34.330   5.264   7.775
 2611POPC   NC335051  38.209  17.252   9.281
 2611POPC   PO435052  38.702  17.682   9.533
 2611POPC   GL135053  38.618  17.615   9.101
 2611POPC   GL235054  38.974  17.745   9.063
 2611POPC   C1A35055  38.342  17.503   8.691
 2611POPC   D2A35056  38.173  17.130   8.397
 2611POPC   C3A35057  38.307  17.204   7.982
 2611POPC   C4A35058  38.279  17.578   7.743
 2611POPC   C1B35059  38.921  17.435   8.736
 2611POPC   C2B35060  38.725  17.378   8.344
 2611POPC   C3B35061  38.704  17.567   8.004
 2611POPC   C4B35062  38.822  17.508   7.601
 2612POPC   NC335063  28.569  17.022   9.480
 2612POPC   PO435064  28.434  17.639   9.374
 2612POPC   GL135065  28.215  17.513   9.048
 2612POPC   GL235066  28.158  17.190   9.183
 2612POPC   C1A35067  28.436  17.483   8.672
 2612POPC   D2A35068  28.570  17.761   8.372
 2612POPC   C3A35069  28.510  17.558   7.998
 2612POPC   C4A35070  28.571  17.830   7.688
 2612POPC   C1B35071  28.153  17.074   8.754
 2612POPC   C2B35072  27.976  17.072   8.353
 2612POPC   C3B35073  28.123  17.186   7.968
 2612POPC   C4B35074  28.431  17.119   7.683
 2613POPC   NC335075  28.797  22.644   9.287
 2613POPC   PO435076  29.241  23.108   9.435
 2613POPC   GL135077  29.355  22.977   9.063
 2613POPC   GL235078  29.429  22.615   9.117
 2613POPC   C1A35079  29.023  23.017   8.747
 2613POPC   D2A35080  28.722  23.013   8.402
 2613POPC   C3A35081  29.049  23.012   8.082
 2613POPC   C4A35082  29.036  22.894   7.664
 2613POPC   C1B35083  29.529  22.706   8.669
 2613POPC   C2B35084  29.536  22.607   8.219
 2613POPC   C3B35085  29.497  22.664   7.770
 2613POPC   C4B35086  29.403  22.797   7.331
 2614POPC   NC335087  42.909   9.532   9.541
 2614POPC   PO435088  43.498   9.761   9.855
 2614POPC   GL135089  43.398   9.730   9.384
 2614POPC   GL235090  43.290   9.381   9.240
 2614POPC   C1A35091  43.383   9.742   8.911
 2614POPC   D2A35092  43.206   9.719   8.505
 2614POPC   C3A35093  43.284   9.709   8.048
 2614POPC   C4A35094  42.947   9.774   7.718
 2614POPC   C1B35095  42.920   9.440   8.898
 2614POPC   C2B35096  42.869   9.290   8.465
 2614POPC   C3B35097  42.871   9.364   8.016
 2614POPC   C4B35098  42.981   9.186   7.586
 2615POPC   NC335099  44.316  20.662   9.585
 2615POPC   PO435100  43.616  20.676   9.572
 2615POPC   GL135101  43.864  20.604   9.180
 2615POPC   GL235102  44.179  20.814   9.125
 2615POPC   C1A35103  43.620  20.461   8.809
 2615POPC   D2A35104  43.610  20.681   8.425
 2615POPC   C3A35105  43.497  20.552   8.057
 2615POPC   C4A35106  43.694  20.621   7.678
 2615POPC   C1B35107  44.114  20.606   8.712
 2615POPC   C2B35108  44.113  20.732   8.274
 2615POPC   C3B35109  44.165  20.777   7.823
 2615POPC   C4B35110  44.184  20.433   7.514
 2616POPC   NC335111   4.096  17.082   9.297
 2616POPC   PO435112   3.755  16.703   9.704
 2616POPC   GL135113   3.760  16.684   9.258
 2616POPC   GL235114   3.971  16.410   9.267
 2616POPC   C1A35115   3.737  16.858   8.813
 2616POPC   D2A35116   3.496  16.826   8.446
 2616POPC   C3A35117   3.554  17.034   8.073
 2616POPC   C4A35118   3.658  16.871   7.686
 2616POPC   C1B35119   3.775  16.353   8.822
 2616POPC   C2B35120   3.828  16.424   8.399
 2616POPC   C3B35121   3.864  16.536   7.998
 2616POPC   C4B35122   3.686  16.342   7.606
 2617POPC   NC335123  20.032  42.754   9.623
 2617POPC   PO435124  19.857  43.451   9.744
 2617POPC   GL135125  19.870  43.312   9.268
 2617POPC   GL235126  19.953  42.970   9.156
 2617POPC   C1A35127  19.814  43.322   8.786
 2617POPC   D2A35128  19.972  43.349   8.322
 2617POPC   C3A35129  19.773  43.059   7.979
 2617POPC   C4A35130  19.699  43.029   7.506
 2617POPC   C1B35131  19.945  42.808   8.707
 2617POPC   C2B35132  20.153  42.873   8.280
 2617POPC   C3B35133  20.120  42.770   7.782
 2617POPC   C4B35134  20.211  42.991   7.411
 2618POPC   NC335135  20.286   1.725   9.572
 2618POPC   PO435136  20.677   1.114   9.591
 2618POPC   GL135137  20.686   1.022   9.164
 2618POPC   GL235138  20.687   1.383   9.123
 2618POPC   C1A35139  20.884   1.091   8.718
 2618POPC   D2A35140  20.825   1.342   8.315
 2618POPC   C3A35141  20.839   1.228   7.863
 2618POPC   C4A35142  20.609   0.854   7.725
 2618POPC   C1B35143  20.390   1.179   8.804
 2618POPC   C2B35144  20.435   0.988   8.429
 2618POPC   C3B35145  20.373   1.189   8.073
 2618POPC   C4B35146  20.189   1.154   7.708
 2619POPC   NC335147  10.032  34.245   9.454
 2619POPC   PO435148   9.707  33.667   9.401
 2619POPC   GL135149   9.925  33.868   9.117
 2619POPC   GL235150   9.648  34.122   9.124
 2619POPC   C1A35151  10.028  33.684   8.746
 2619POPC   D2A35152   9.742  33.579   8.405
 2619POPC   C3A35153   9.867  33.711   8.014
 2619POPC   C4A35154   9.551  33.661   7.730
 2619POPC   C1B35155   9.653  34.007   8.692
 2619POPC   C2B35156   9.982  34.059   8.381
 2619POPC   C3B35157   9.964  34.201   7.954
 2619POPC   C4B35158   9.668  34.135   7.593
 2620POPC   NC335159   3.344  32.473   9.384
 2620POPC   PO435160   3.513  31.825   9.485
 2620POPC   GL135161   3.579  32.058   9.135
 2620POPC   GL235162   3.846  32.301   9.232
 2620POPC   C1A35163   3.360  32.126   8.727
 2620POPC   D2A35164   3.113  32.101   8.309
 2620POPC   C3A35165   3.235  32.346   7.941
 2620POPC   C4A35166   3.392  32.268   7.551
 2620POPC   C1B35167   3.872  32.272   8.758
 2620POPC   C2B35168   3.648  32.304   8.332
 2620POPC   C3B35169   3.754  32.378   7.907
 2620POPC   C4B35170   3.880  32.222   7.483
 2621POPC   NC335171  40.908  36.698   9.539
 2621POPC   PO435172  40.587  37.182   9.324
 2621POPC   GL135173  40.480  36.939   9.026
 2621POPC   GL235174  40.476  36.683   9.258
 2621POPC   C1A35175  40.615  36.914   8.630
 2621POPC   D2A35176  40.891  36.828   8.305
 2621POPC   C3A35177  40.732  36.998   7.921
 2621POPC   C4A35178  40.918  36.811   7.610
 2621POPC   C1B35179  40.629  36.460   8.901
 2621POPC   C2B35180  40.559  36.410   8.469
 2621POPC   C3B35181  40.536  36.541   8.060
 2621POPC   C4B35182  40.351  36.599   7.635
 2622POPC   NC335183  29.177  22.712   9.678
 2622POPC   PO435184  29.826  22.822   9.499
 2622POPC   GL135185  29.881  22.892   9.092
 2622POPC   GL235186  29.971  22.560   9.019
 2622POPC   C1A35187  29.776  23.159   8.744
 2622POPC   D2A35188  29.443  23.183   8.441
 2622POPC   C3A35189  29.575  23.104   8.027
 2622POPC   C4A35190  29.901  22.978   7.752
 2622POPC   C1B35191  30.055  22.723   8.626
 2622POPC   C2B35192  30.014  22.786   8.214
 2622POPC   C3B35193  30.287  22.689   7.908
 2622POPC   C4B35194  30.211  22.613   7.536
 2623POPC   NC335195  16.370  14.742   9.312
 2623POPC   PO435196  16.797  14.307   9.565
 2623POPC   GL135197  16.757  14.371   9.165
 2623POPC   GL235198  16.948  14.666   9.171
 2623POPC   C1A35199  16.472  14.245   8.829
 2623POPC   D2A35200  16.393  14.415   8.430
 2623POPC   C3A35201  16.467  14.149   8.073
 2623POPC   C4A35202  16.583  14.400   7.728
 2623POPC   C1B35203  16.817  14.652   8.735
 2623POPC   C2B35204  16.978  14.700   8.325
 2623POPC   C3B35205  16.942  14.323   8.089
 2623POPC   C4B35206  17.082  14.097   7.746
 2624POPC   NC335207  28.787  14.566   9.474
 2624POPC   PO435208  29.470  14.383   9.450
 2624POPC   GL135209  29.131  14.287   9.168
 2624POPC   GL235210  29.044  14.612   9.024
 2624POPC   C1A35211  29.150  14.161   8.743
 2624POPC   D2A35212  29.051  14.349   8.338
 2624POPC   C3A35213  29.294  14.476   8.003
 2624POPC   C4A35214  29.152  14.530   7.606
 2624POPC   C1B35215  28.752  14.515   8.707
 2624POPC   C2B35216  28.551  14.598   8.309
 2624POPC   C3B35217  28.701  14.637   7.884
 2624POPC   C4B35218  28.621  14.495   7.450
 2625POPC   NC335219  43.752  20.195   9.449
 2625POPC   PO435220  44.010  19.502   9.568
 2625POPC   GL135221  44.048  19.775   9.240
 2625POPC   GL235222  43.706  19.744   9.180
 2625POPC   C1A35223  44.174  19.652   8.828
 2625POPC   D2A35224  43.935  19.597   8.453
 2625POPC   C3A35225  44.177  19.809   8.174
 2625POPC   C4A35226  44.165  19.815   7.759
 2625POPC   C1B35227  43.762  19.961   8.791
 2625POPC   C2B35228  43.724  20.137   8.360
 2625POPC   C3B35229  43.935  20.252   7.961
 2625POPC   C4B35230  43.815  20.113   7.530
 2626POPC   NC335231  28.391   9.576   9.498
 2626POPC   PO435232  28.284  10.185   9.785
 2626POPC   GL135233  28.420  10.149   9.308
 2626POPC   GL235234  28.603   9.866   9.159
 2626POPC   C1A35235  28.330  10.129   8.843
 2626POPC   D2A35236  28.380   9.889   8.483
 2626POPC   C3A35237  28.089   9.843   8.190
 2626POPC   C4A35238  28.125   9.802   7.767
 2626POPC   C1B35239  28.399   9.548   8.861
 2626POPC   C2B35240  28.463   9.367   8.466
 2626POPC   C3B35241  28.411   9.473   8.067
 2626POPC   C4B35242  28.628   9.727   7.804
 2627POPC   NC335243   5.361  15.742   9.362
 2627POPC   PO435244   4.898  15.972   9.842
 2627POPC   GL135245   4.915  16.025   9.334
 2627POPC   GL235246   4.696  15.804   9.113
 2627POPC   C1A35247   5.020  16.080   8.871
 2627POPC   D2A35248   5.286  16.073   8.532
 2627POPC   C3A35249   5.150  16.090   8.124
 2627POPC   C4A35250   5.371  15.997   7.753
 2627POPC   C1B35251   4.826  15.598   8.761
 2627POPC   C2B35252   4.776  15.813   8.376
 2627POPC   C3B35253   4.845  15.711   7.934
 2627POPC   C4B35254   4.598  16.019   7.739
 2628POPC   NC335255  31.058  33.929   9.496
 2628POPC   PO435256  30.436  33.853   9.435
 2628POPC   GL135257  30.723  33.741   9.129
 2628POPC   GL235258  30.788  33.388   9.198
 2628POPC   C1A35259  30.870  33.666   8.702
 2628POPC   D2A35260  30.606  33.771   8.368
 2628POPC   C3A35261  30.810  33.845   7.990
 2628POPC   C4A35262  31.135  33.555   7.834
 2628POPC   C1B35263  30.499  33.355   8.816
 2628POPC   C2B35264  30.515  33.263   8.363
 2628POPC   C3B35265  30.479  33.456   7.927
 2628POPC   C4B35266  30.565  33.752   7.558
 2629POPC   NC335267  32.571   8.980   9.574
 2629POPC   PO435268  31.940   8.701   9.618
 2629POPC   GL135269  32.151   8.927   9.252
 2629POPC   GL235270  32.232   8.612   9.129
 2629POPC   C1A35271  32.312   9.002   8.769
 2629POPC   D2A35272  32.271   9.255   8.365
 2629POPC   C3A35273  32.309   9.053   7.947
 2629POPC   C4A35274  32.636   8.756   7.845
 2629POPC   C1B35275  31.960   8.602   8.755
 2629POPC   C2B35276  32.029   8.764   8.330
 2629POPC   C3B35277  31.841   8.831   7.910
 2629POPC   C4B35278  31.922   8.900   7.457
 2630POPC   NC335279  36.251   4.798   9.566
 2630POPC   PO435280  35.934   5.344   9.318
 2630POPC   GL135281  36.126   5.061   9.033
 2630POPC   GL235282  36.468   4.947   9.113
 2630POPC   C1A35283  36.086   5.126   8.593
 2630POPC   D2A35284  35.863   5.377   8.302
 2630POPC   C3A35285  36.032   5.105   7.983
 2630POPC   C4A35286  36.188   5.232   7.569
 2630POPC   C1B35287  36.415   4.755   8.690
 2630POPC   C2B35288  36.487   4.908   8.234
 2630POPC   C3B35289  36.374   4.797   7.782
 2630POPC   C4B35290  36.387   4.876   7.291
 2631POPC   NC335291  24.590   6.975   9.486
 2631POPC   PO435292  24.386   6.358   9.537
 2631POPC   GL135293  24.283   6.652   9.213
 2631POPC   GL235294  24.096   6.938   9.313
 2631POPC   C1A35295  24.534   6.763   8.858
 2631POPC   D2A35296  24.663   6.545   8.494
 2631POPC   C3A35297  24.605   6.737   8.100
 2631POPC   C4A35298  24.478   6.561   7.733
 2631POPC   C1B35299  24.041   6.937   8.848
 2631POPC   C2B35300  24.210   6.803   8.442
 2631POPC   C3B35301  24.094   6.826   7.995
 2631POPC   C4B35302  24.321   7.033   7.651
 2632POPC   NC335303  32.831   2.237   9.499
 2632POPC   PO435304  33.184   1.623   9.461
 2632POPC   GL135305  32.967   1.805   9.137
 2632POPC   GL235306  33.055   2.139   9.058
 2632POPC   C1A35307  32.722   1.853   8.771
 2632POPC   D2A35308  32.814   2.054   8.423
 2632POPC   C3A35309  32.752   1.928   8.016
 2632POPC   C4A35310  32.826   2.053   7.573
 2632POPC   C1B35311  33.124   2.395   8.671
 2632POPC   C2B35312  33.190   2.359   8.215
 2632POPC   C3B35313  33.215   2.456   7.783
 2632POPC   C4B35314  33.279   2.279   7.386
 2633POPC   NC335315  12.019  21.470   9.524
 2633POPC   PO435316  11.725  20.831   9.515
 2633POPC   GL135317  11.904  21.037   9.168
 2633POPC   GL235318  11.668  21.282   9.166
 2633POPC   C1A35319  12.029  21.229   8.765
 2633POPC   D2A35320  12.138  21.125   8.321
 2633POPC   C3A35321  12.173  21.443   7.968
 2633POPC   C4A35322  11.987  21.750   7.657
 2633POPC   C1B35323  11.585  21.506   8.764
 2633POPC   C2B35324  11.636  21.291   8.364
 2633POPC   C3B35325  11.701  21.239   7.917
 2633POPC   C4B35326  11.851  21.271   7.483
 2634POPC   NC335327  26.257  29.430   9.561
 2634POPC   PO435328  25.818  28.810   9.458
 2634POPC   GL135329  26.031  29.098   9.213
 2634POPC   GL235330  25.750  29.320   9.178
 2634POPC   C1A35331  26.131  29.204   8.788
 2634POPC   D2A35332  26.268  29.069   8.393
 2634POPC   C3A35333  26.201  29.251   8.002
 2634POPC   C4A35334  26.265  29.049   7.578
 2634POPC   C1B35335  25.657  28.997   8.846
 2634POPC   C2B35336  25.757  29.011   8.447
 2634POPC   C3B35337  25.754  28.971   8.045
 2634POPC   C4B35338  25.793  29.190   7.689
 2635POPC   NC335339  10.443  28.780   9.472
 2635POPC   PO435340  10.713  29.424   9.533
 2635POPC   GL135341  10.687  29.154   9.189
 2635POPC   GL235342  10.341  29.148   9.120
 2635POPC   C1A35343  10.693  29.232   8.748
 2635POPC   D2A35344  10.529  29.567   8.491
 2635POPC   C3A35345  10.611  29.470   8.050
 2635POPC   C4A35346  10.659  29.021   7.968
 2635POPC   C1B35347  10.189  29.036   8.705
 2635POPC   C2B35348  10.235  29.170   8.252
 2635POPC   C3B35349  10.151  28.946   7.843
 2635POPC   C4B35350  10.095  29.097   7.412
 2636POPC   NC335351  17.269  29.597   9.638
 2636POPC   PO435352  17.124  28.914   9.549
 2636POPC   GL135353  17.290  28.973   9.171
 2636POPC   GL235354  17.361  29.328   9.168
 2636POPC   C1A35355  17.213  29.036   8.755
 2636POPC   D2A35356  17.449  29.190   8.409
 2636POPC   C3A35357  17.254  29.294   8.045
 2636POPC   C4A35358  17.550  29.215   7.769
 2636POPC   C1B35359  17.365  29.557   8.755
 2636POPC   C2B35360  17.457  29.705   8.312
 2636POPC   C3B35361  17.439  29.741   7.838
 2636POPC   C4B35362  17.406  29.882   7.371
 2637POPC   NC335363   5.716  18.742   9.402
 2637POPC   PO435364   5.957  19.462   9.430
 2637POPC   GL135365   5.920  19.173   9.100
 2637POPC   GL235366   6.165  18.937   9.269
 2637POPC   C1A35367   5.995  19.190   8.627
 2637POPC   D2A35368   6.101  19.395   8.215
 2637POPC   C3A35369   5.885  19.192   7.856
 2637POPC   C4A35370   5.601  18.879   7.827
 2637POPC   C1B35371   6.189  18.774   8.873
 2637POPC   C2B35372   6.125  18.733   8.426
 2637POPC   C3B35373   6.312  18.935   8.057
 2637POPC   C4B35374   6.373  19.253   7.730
 2638POPC   NC335375  16.080  27.340   9.532
 2638POPC   PO435376  15.962  27.981   9.791
 2638POPC   GL135377  15.926  27.745   9.316
 2638POPC   GL235378  16.222  27.714   9.143
 2638POPC   C1A35379  15.806  27.608   8.870
 2638POPC   D2A35380  15.933  27.368   8.476
 2638POPC   C3A35381  15.812  27.514   8.082
 2638POPC   C4A35382  15.723  27.880   7.848
 2638POPC   C1B35383  16.330  27.424   8.821
 2638POPC   C2B35384  16.409  27.565   8.406
 2638POPC   C3B35385  16.191  27.851   8.138
 2638POPC   C4B35386  16.394  27.974   7.807
 2639POPC   NC335387  19.615   1.001   9.736
 2639POPC   PO435388  19.794   1.603   9.649
 2639POPC   GL135389  19.861   1.296   9.314
 2639POPC   GL235390  20.171   1.385   9.210
 2639POPC   C1A35391  19.878   1.088   8.873
 2639POPC   D2A35392  19.698   0.937   8.463
 2639POPC   C3A35393  19.814   1.079   8.032
 2639POPC   C4A35394  19.689   1.144   7.579
 2639POPC   C1B35395  20.064   1.564   8.796
 2639POPC   C2B35396  19.998   1.376   8.415
 2639POPC   C3B35397  20.025   1.570   8.018
 2639POPC   C4B35398  19.857   1.609   7.598
 2640POPC   NC335399  15.078  37.393   9.436
 2640POPC   PO435400  15.202  38.059   9.436
 2640POPC   GL135401  15.016  37.810   9.142
 2640POPC   GL235402  15.295  37.596   9.023
 2640POPC   C1A35403  14.866  37.788   8.742
 2640POPC   D2A35404  15.087  37.856   8.357
 2640POPC   C3A35405  14.984  37.656   7.985
 2640POPC   C4A35406  15.080  37.789   7.575
 2640POPC   C1B35407  15.455  37.541   8.604
 2640POPC   C2B35408  15.477  37.531   8.160
 2640POPC   C3B35409  15.583  37.680   7.755
 2640POPC   C4B35410  15.476  37.566   7.338
 2641POPC   NC335411  19.486  34.620   9.763
 2641POPC   PO435412  20.199  34.575   9.655
 2641POPC   GL135413  20.054  34.761   9.225
 2641POPC   GL235414  19.712  34.619   9.057
 2641POPC   C1A35415  20.143  34.755   8.788
 2641POPC   D2A35416  19.910  34.633   8.426
 2641POPC   C3A35417  20.030  34.585   8.015
 2641POPC   C4A35418  19.755  34.410   7.692
 2641POPC   C1B35419  19.628  34.911   8.744
 2641POPC   C2B35420  19.713  35.096   8.365
 2641POPC   C3B35421  19.582  34.835   8.051
 2641POPC   C4B35422  19.776  34.909   7.683
 2642POPC   NC335423  10.108  12.740   9.552
 2642POPC   PO435424   9.534  12.426   9.674
 2642POPC   GL135425   9.565  12.524   9.185
 2642POPC   GL235426   9.899  12.512   9.132
 2642POPC   C1A35427   9.657  12.879   8.801
 2642POPC   D2A35428   9.938  12.864   8.428
 2642POPC   C3A35429   9.869  13.035   8.030
 2642POPC   C4A35430  10.214  13.049   7.774
 2642POPC   C1B35431   9.752  12.411   8.699
 2642POPC   C2B35432   9.506  12.585   8.377
 2642POPC   C3B35433   9.640  12.568   7.961
 2642POPC   C4B35434   9.558  12.211   7.695
 2643POPC   NC335435  23.916  21.212   9.593
 2643POPC   PO435436  23.469  21.676   9.555
 2643POPC   GL135437  23.531  21.390   9.185
 2643POPC   GL235438  23.884  21.340   9.107
 2643POPC   C1A35439  23.574  21.353   8.707
 2643POPC   D2A35440  23.802  21.393   8.295
 2643POPC   C3A35441  23.676  21.773   8.036
 2643POPC   C4A35442  23.610  21.764   7.581
 2643POPC   C1B35443  23.989  21.004   8.811
 2643POPC   C2B35444  23.984  20.857   8.357
 2643POPC   C3B35445  23.930  21.015   7.907
 2643POPC   C4B35446  23.560  21.261   7.743
 2644POPC   NC335447  44.205   7.323   9.556
 2644POPC   PO435448  43.630   7.659   9.592
 2644POPC   GL135449  43.809   7.429   9.212
 2644POPC   GL235450  44.041   7.161   9.106
 2644POPC   C1A35451  43.868   7.468   8.747
 2644POPC   D2A35452  43.789   7.666   8.326
 2644POPC   C3A35453  43.548   7.381   8.119
 2644POPC   C4A35454  43.666   7.091   7.789
 2644POPC   C1B35455  44.345   7.329   8.819
 2644POPC   C2B35456  44.290   7.531   8.449
 2644POPC   C3B35457  44.266   7.661   8.048
 2644POPC   C4B35458  43.966   7.486   7.861
 2645POPC   NC335459  43.017  33.353   9.560
 2645POPC   PO435460  43.385  32.732   9.580
 2645POPC   GL135461  43.424  32.798   9.182
 2645POPC   GL235462  43.205  33.074   9.189
 2645POPC   C1A35463  43.246  32.753   8.809
 2645POPC   D2A35464  43.109  32.911   8.476
 2645POPC   C3A35465  43.400  32.940   8.174
 2645POPC   C4A35466  43.310  32.835   7.751
 2645POPC   C1B35467  42.902  33.191   8.875
 2645POPC   C2B35468  42.935  33.426   8.481
 2645POPC   C3B35469  42.964  33.224   8.109
 2645POPC   C4B35470  42.874  33.131   7.732
 2646POPC   NC335471   7.240  17.891   9.522
 2646POPC   PO435472   7.624  18.407   9.559
 2646POPC   GL135473   7.795  18.219   9.215
 2646POPC   GL235474   7.653  17.906   9.174
 2646POPC   C1A35475   7.827  18.317   8.774
 2646POPC   D2A35476   7.503  18.474   8.452
 2646POPC   C3A35477   7.620  18.389   8.005
 2646POPC   C4A35478   7.565  18.586   7.608
 2646POPC   C1B35479   7.531  17.886   8.746
 2646POPC   C2B35480   7.605  17.980   8.309
 2646POPC   C3B35481   7.454  17.883   7.897
 2646POPC   C4B35482   7.283  18.088   7.537
 2647POPC   NC335483   8.714  11.613   9.349
 2647POPC   PO435484   9.180  12.074   9.334
 2647POPC   GL135485   8.993  12.098   9.014
 2647POPC   GL235486   9.100  12.430   8.963
 2647POPC   C1A35487   8.886  11.858   8.700
 2647POPC   D2A35488   8.760  12.042   8.329
 2647POPC   C3A35489   8.842  11.840   7.964
 2647POPC   C4A35490   9.139  11.860   7.661
 2647POPC   C1B35491   8.787  12.444   8.685
 2647POPC   C2B35492   8.976  12.523   8.344
 2647POPC   C3B35493   9.189  12.314   8.052
 2647POPC   C4B35494   8.922  12.333   7.760
 2648POPC   NC335495   6.023   4.181   9.455
 2648POPC   PO435496   5.643   4.776   9.585
 2648POPC   GL135497   5.610   4.486   9.200
 2648POPC   GL235498   5.584   4.113   9.171
 2648POPC   C1A35499   5.663   4.623   8.758
 2648POPC   D2A35500   5.424   4.604   8.385
 2648POPC   C3A35501   5.665   4.642   7.996
 2648POPC   C4A35502   5.961   4.440   7.722
 2648POPC   C1B35503   5.806   4.082   8.778
 2648POPC   C2B35504   5.961   4.202   8.363
 2648POPC   C3B35505   5.890   3.999   7.978
 2648POPC   C4B35506   5.528   3.925   7.712
 2649POPC   NC335507   7.731   0.620   9.387
 2649POPC   PO435508   7.090   0.298   9.434
 2649POPC   GL135509   7.287   0.553   9.109
 2649POPC   GL235510   7.516   0.305   8.966
 2649POPC   C1A35511   7.300   0.690   8.678
 2649POPC   D2A35512   7.465   0.458   8.322
 2649POPC   C3A35513   7.297   0.375   7.909
 2649POPC   C4A35514   6.950   0.484   7.653
 2649POPC   C1B35515   7.801   0.571   8.711
 2649POPC   C2B35516   8.012   0.608   8.314
 2649POPC   C3B35517   7.782   0.636   7.944
 2649POPC   C4B35518   7.743   0.563   7.529
 2650POPC   NC335519   3.415  40.538   9.672
 2650POPC   PO435520   3.233  41.170   9.468
 2650POPC   GL135521   3.368  40.833   9.186
 2650POPC   GL235522   3.651  40.948   8.996
 2650POPC   C1A35523   3.255  40.782   8.744
 2650POPC   D2A35524   3.383  41.055   8.442
 2650POPC   C3A35525   3.408  40.908   8.065
 2650POPC   C4A35526   3.573  40.949   7.688
 2650POPC   C1B35527   3.802  41.254   8.665
 2650POPC   C2B35528   3.898  41.077   8.228
 2650POPC   C3B35529   3.889  40.668   7.964
 2650POPC   C4B35530   3.905  40.610   7.485
 2651POPC   NC335531  23.323   3.092   9.537
 2651POPC   PO435532  22.599   3.229   9.455
 2651POPC   GL135533  22.830   2.967   9.141
 2651POPC   GL235534  23.123   2.742   9.138
 2651POPC   C1A35535  22.764   2.878   8.695
 2651POPC   D2A35536  22.870   2.937   8.269
 2651POPC   C3A35537  22.690   2.633   7.998
 2651POPC   C4A35538  22.898   2.421   7.658
 2651POPC   C1B35539  23.279   2.996   8.784
 2651POPC   C2B35540  23.491   2.973   8.374
 2651POPC   C3B35541  23.363   3.080   7.959
 2651POPC   C4B35542  22.978   2.960   7.734
 2652POPC   NC335543   5.200  14.767   9.513
 2652POPC   PO435544   4.956  14.105   9.507
 2652POPC   GL135545   4.889  14.438   9.235
 2652POPC   GL235546   5.249  14.421   9.148
 2652POPC   C1A35547   4.892  14.647   8.837
 2652POPC   D2A35548   5.144  14.545   8.464
 2652POPC   C3A35549   4.947  14.485   8.083
 2652POPC   C4A35550   5.000  14.150   7.790
 2652POPC   C1B35551   5.420  14.706   8.858
 2652POPC   C2B35552   5.615  14.756   8.438
 2652POPC   C3B35553   5.443  14.665   8.024
 2652POPC   C4B35554   5.215  14.617   7.655
 2653POPC   NC335555  13.470  18.553   9.332
 2653POPC   PO435556  13.124  18.027   9.496
 2653POPC   GL135557  12.983  18.265   9.093
 2653POPC   GL235558  12.640  18.321   9.208
 2653POPC   C1A35559  12.933  18.362   8.586
 2653POPC   D2A35560  12.774  18.107   8.191
 2653POPC   C3A35561  12.931  18.127   7.744
 2653POPC   C4A35562  13.134  18.467   7.531
 2653POPC   C1B35563  12.458  18.299   8.804
 2653POPC   C2B35564  12.459  18.476   8.398
 2653POPC   C3B35565  12.350  18.411   8.017
 2653POPC   C4B35566  12.432  18.091   7.735
 2654POPC   NC335567  44.954  11.192   9.842
 2654POPC   PO435568   0.587  11.151   9.645
 2654POPC   GL135569   0.316  11.262   9.304
 2654POPC   GL235570   0.630  11.219   9.085
 2654POPC   C1A35571   0.197  11.337   8.869
 2654POPC   D2A35572   0.462  11.219   8.533
 2654POPC   C3A35573   0.278  11.269   8.129
 2654POPC   C4A35574   0.439  11.411   7.737
 2654POPC   C1B35575   0.896  11.004   8.733
 2654POPC   C2B35576   0.698  10.791   8.372
 2654POPC   C3B35577   0.631  10.930   7.923
 2654POPC   C4B35578   0.740  11.098   7.470
 2655POPC   NC335579  42.619  42.110   9.348
 2655POPC   PO435580  43.119  42.369   9.685
 2655POPC   GL135581  43.123  42.375   9.233
 2655POPC   GL235582  43.103  42.021   9.215
 2655POPC   C1A35583  43.255  42.576   8.818
 2655POPC   D2A35584  43.468  42.334   8.431
 2655POPC   C3A35585  43.257  42.328   8.032
 2655POPC   C4A35586  42.921  42.536   7.849
 2655POPC   C1B35587  43.193  42.083   8.797
 2655POPC   C2B35588  42.941  42.281   8.467
 2655POPC   C3B35589  42.777  42.111   8.097
 2655POPC   C4B35590  42.955  41.947   7.731
 2656POPC   NC335591  24.471  14.835   9.370
 2656POPC   PO435592  24.088  14.416   9.653
 2656POPC   GL135593  24.338  14.372   9.182
 2656POPC   GL235594  24.630  14.583   8.967
 2656POPC   C1A35595  24.298  14.262   8.751
 2656POPC   D2A35596  24.097  14.074   8.435
 2656POPC   C3A35597  24.297  14.097   8.037
 2656POPC   C4A35598  24.450  14.256   7.636
 2656POPC   C1B35599  24.747  14.564   8.543
 2656POPC   C2B35600  24.705  14.458   8.105
 2656POPC   C3B35601  24.671  14.697   7.759
 2656POPC   C4B35602  24.866  14.854   7.399
 2657POPC   NC335603  29.494  38.212   9.521
 2657POPC   PO435604  29.815  37.607   9.420
 2657POPC   GL135605  29.780  37.820   9.061
 2657POPC   GL235606  30.004  38.124   9.053
 2657POPC   C1A35607  29.722  37.613   8.684
 2657POPC   D2A35608  29.938  37.359   8.388
 2657POPC   C3A35609  30.101  37.442   8.003
 2657POPC   C4A35610  29.866  37.674   7.696
 2657POPC   C1B35611  30.142  37.911   8.668
 2657POPC   C2B35612  29.955  37.857   8.252
 2657POPC   C3B35613  29.671  38.054   7.958
 2657POPC   C4B35614  29.889  38.174   7.575
 2658POPC   NC335615  43.270  41.421   9.666
 2658POPC   PO435616  42.752  41.670   9.408
 2658POPC   GL135617  42.994  41.512   9.109
 2658POPC   GL235618  43.337  41.560   9.180
 2658POPC   C1A35619  43.092  41.608   8.684
 2658POPC   D2A35620  43.164  41.839   8.316
 2658POPC   C3A35621  43.051  41.548   8.028
 2658POPC   C4A35622  43.054  41.224   7.748
 2658POPC   C1B35623  43.358  41.232   8.873
 2658POPC   C2B35624  43.422  41.331   8.429
 2658POPC   C3B35625  43.463  41.215   8.036
 2658POPC   C4B35626  43.485  41.438   7.617
 2659POPC   NC335627  10.299   0.979   9.472
 2659POPC   PO435628  10.684   1.559   9.455
 2659POPC   GL135629  10.498   1.324   9.148
 2659POPC   GL235630  10.209   1.509   9.112
 2659POPC   C1A35631  10.400   1.105   8.777
 2659POPC   D2A35632  10.573   1.246   8.393
 2659POPC   C3A35633  10.321   1.251   8.006
 2659POPC   C4A35634  10.484   1.143   7.634
 2659POPC   C1B35635  10.436   1.623   8.714
 2659POPC   C2B35636  10.390   1.694   8.261
 2659POPC   C3B35637  10.136   1.774   7.929
 2659POPC   C4B35638  10.433   1.647   7.667
 2660POPC   NC335639  18.522  18.926   9.508
 2660POPC   PO435640  17.914  19.045   9.336
 2660POPC   GL135641  18.099  19.003   8.984
 2660POPC   GL235642  18.450  19.083   9.027
 2660POPC   C1A35643  18.038  19.268   8.664
 2660POPC   D2A35644  18.324  19.316   8.375
 2660POPC   C3A35645  18.295  19.168   7.995
 2660POPC   C4A35646  18.118  19.354   7.655
 2660POPC   C1B35647  18.501  18.898   8.611
 2660POPC   C2B35648  18.456  18.706   8.194
 2660POPC   C3B35649  18.480  18.760   7.732
 2660POPC   C4B35650  18.514  18.560   7.295
 2661POPC   NC335651   6.810   8.403   9.496
 2661POPC   PO435652   6.256   7.949   9.503
 2661POPC   GL135653   6.453   8.230   9.178
 2661POPC   GL235654   6.775   8.076   9.085
 2661POPC   C1A35655   6.656   8.487   8.825
 2661POPC   D2A35656   6.821   8.269   8.451
 2661POPC   C3A35657   6.597   8.083   8.124
 2661POPC   C4A35658   6.683   8.117   7.710
 2661POPC   C1B35659   7.133   8.286   8.851
 2661POPC   C2B35660   7.285   8.449   8.403
 2661POPC   C3B35661   7.074   8.477   7.995
 2661POPC   C4B35662   7.072   8.406   7.529
 2662POPC   NC335663  37.244  28.192   9.475
 2662POPC   PO435664  36.526  28.272   9.477
 2662POPC   GL135665  36.826  28.256   9.180
 2662POPC   GL235666  36.937  28.585   9.224
 2662POPC   C1A35667  37.069  28.316   8.798
 2662POPC   D2A35668  36.818  28.320   8.429
 2662POPC   C3A35669  37.044  28.306   8.036
 2662POPC   C4A35670  37.224  28.489   7.696
 2662POPC   C1B35671  36.637  28.621   8.846
 2662POPC   C2B35672  36.633  28.817   8.445
 2662POPC   C3B35673  36.615  28.617   8.062
 2662POPC   C4B35674  36.723  28.741   7.693
 2663POPC   NC335675   1.903  25.606   9.515
 2663POPC   PO435676   2.018  24.954   9.493
 2663POPC   GL135677   2.024  25.148   9.091
 2663POPC   GL235678   2.067  25.521   9.022
 2663POPC   C1A35679   2.013  25.135   8.643
 2663POPC   D2A35680   1.711  24.972   8.366
 2663POPC   C3A35681   1.928  25.041   8.000
 2663POPC   C4A35682   1.883  25.168   7.593
 2663POPC   C1B35683   1.805  25.609   8.650
 2663POPC   C2B35684   1.798  25.500   8.213
 2663POPC   C3B35685   2.066  25.577   7.851
 2663POPC   C4B35686   1.862  25.671   7.477
 2664POPC   NC335687  16.758  13.844   9.557
 2664POPC   PO435688  16.810  13.114   9.455
 2664POPC   GL135689  16.768  13.444   9.212
 2664POPC   GL235690  16.435  13.537   9.301
 2664POPC   C1A35691  16.910  13.516   8.804
 2664POPC   D2A35692  16.794  13.383   8.404
 2664POPC   C3A35693  16.891  13.671   8.085
 2664POPC   C4A35694  16.913  13.623   7.662
 2664POPC   C1B35695  16.427  13.704   8.901
 2664POPC   C2B35696  16.534  13.833   8.499
 2664POPC   C3B35697  16.377  13.651   8.148
 2664POPC   C4B35698  16.406  13.666   7.713
 2665POPC   NC335699  37.806  21.748   9.504
 2665POPC   PO435700  37.968  22.252   9.313
 2665POPC   GL135701  37.885  21.913   9.017
 2665POPC   GL235702  37.536  21.925   9.068
 2665POPC   C1A35703  37.740  21.906   8.576
 2665POPC   D2A35704  37.840  22.126   8.198
 2665POPC   C3A35705  37.751  22.094   7.774
 2665POPC   C4A35706  37.727  22.438   7.480
 2665POPC   C1B35707  37.264  22.040   8.720
 2665POPC   C2B35708  37.347  22.218   8.323
 2665POPC   C3B35709  37.378  22.391   7.902
 2665POPC   C4B35710  37.288  22.194   7.481
 2666POPC   NC335711  34.472   1.071   9.499
 2666POPC   PO435712  35.119   1.223   9.453
 2666POPC   GL135713  34.850   1.355   9.158
 2666POPC   GL235714  34.717   1.016   9.059
 2666POPC   C1A35715  34.891   1.368   8.724
 2666POPC   D2A35716  34.762   0.989   8.522
 2666POPC   C3A35717  34.695   1.091   8.100
 2666POPC   C4A35718  34.449   1.068   7.765
 2666POPC   C1B35719  34.386   1.207   8.816
 2666POPC   C2B35720  34.431   1.406   8.415
 2666POPC   C3B35721  34.468   1.558   7.982
 2666POPC   C4B35722  34.224   1.521   7.614
 2667POPC   NC335723  43.972  16.751   9.662
 2667POPC   PO435724  43.339  16.812   9.633
 2667POPC   GL135725  43.647  16.749   9.276
 2667POPC   GL235726  43.848  17.062   9.251
 2667POPC   C1A35727  43.904  16.654   8.906
 2667POPC   D2A35728  43.997  16.508   8.473
 2667POPC   C3A35729  43.996  16.625   8.042
 2667POPC   C4A35730  44.297  16.371   7.843
 2667POPC   C1B35731  43.564  17.087   8.886
 2667POPC   C2B35732  43.665  17.005   8.434
 2667POPC   C3B35733  43.602  17.063   7.977
 2667POPC   C4B35734  43.503  16.949   7.513
 2668POPC   NC335735  23.902   6.316   9.534
 2668POPC   PO435736  23.627   6.911   9.580
 2668POPC   GL135737  23.609   6.895   9.143
 2668POPC   GL235738  23.772   6.576   9.118
 2668POPC   C1A35739  23.522   6.728   8.725
 2668POPC   D2A35740  23.632   6.565   8.355
 2668POPC   C3A35741  23.486   6.840   8.057
 2668POPC   C4A35742  23.604   6.806   7.676
 2668POPC   C1B35743  24.080   6.426   8.776
 2668POPC   C2B35744  24.104   6.305   8.318
 2668POPC   C3B35745  23.843   6.377   7.928
 2668POPC   C4B35746  24.001   6.512   7.549
 2669POPC   NC335747  31.002   4.075   9.453
 2669POPC   PO435748  31.687   4.366   9.559
 2669POPC   GL135749  31.383   4.386   9.198
 2669POPC   GL235750  31.328   4.024   9.070
 2669POPC   C1A35751  31.522   4.409   8.746
 2669POPC   D2A35752  31.690   4.570   8.353
 2669POPC   C3A35753  31.449   4.359   8.054
 2669POPC   C4A35754  31.283   4.404   7.660
 2669POPC   C1B35755  31.598   3.890   8.724
 2669POPC   C2B35756  31.668   3.928   8.262
 2669POPC   C3B35757  31.662   3.958   7.805
 2669POPC   C4B35758  31.669   3.856   7.344
 2670POPC   NC335759  38.767   4.813   9.360
 2670POPC   PO435760  38.540   4.363   9.801
 2670POPC   GL135761  38.479   4.245   9.315
 2670POPC   GL235762  38.551   4.502   9.038
 2670POPC   C1A35763  38.394   4.059   8.862
 2670POPC   D2A35764  38.584   4.239   8.461
 2670POPC   C3A35765  38.431   4.186   8.003
 2670POPC   C4A35766  38.352   3.934   7.630
 2670POPC   C1B35767  38.715   4.761   8.683
 2670POPC   C2B35768  38.865   4.698   8.257
 2670POPC   C3B35769  38.687   4.638   7.846
 2670POPC   C4B35770  38.420   4.469   7.493
 2671POPC   NC335771  29.983  32.631   9.626
 2671POPC   PO435772  30.308  33.181   9.557
 2671POPC   GL135773  30.110  33.024   9.177
 2671POPC   GL235774  30.147  32.663   9.130
 2671POPC   C1A35775  30.001  33.188   8.743
 2671POPC   D2A35776  30.015  33.100   8.311
 2671POPC   C3A35777  29.965  33.307   7.888
 2671POPC   C4A35778  29.817  33.417   7.435
 2671POPC   C1B35779  30.022  32.609   8.689
 2671POPC   C2B35780  29.885  32.557   8.274
 2671POPC   C3B35781  29.789  32.836   7.954
 2671POPC   C4B35782  30.056  32.828   7.603
 2672POPC   NC335783  27.332  12.052   9.533
 2672POPC   PO435784  27.283  11.438   9.256
 2672POPC   GL135785  27.317  11.796   9.074
 2672POPC   GL235786  27.616  11.983   9.071
 2672POPC   C1A35787  27.406  11.830   8.635
 2672POPC   D2A35788  27.383  12.034   8.296
 2672POPC   C3A35789  27.702  12.033   8.112
 2672POPC   C4A35790  27.804  12.009   7.725
 2672POPC   C1B35791  27.368  12.301   8.856
 2672POPC   C2B35792  27.414  12.545   8.484
 2672POPC   C3B35793  27.246  12.474   8.088
 2672POPC   C4B35794  27.503  12.420   7.764
 2673POPC   NC335795   6.026  28.546   9.692
 2673POPC   PO435796   5.753  27.961   9.693
 2673POPC   GL135797   5.956  28.167   9.319
 2673POPC   GL235798   6.107  28.481   9.177
 2673POPC   C1A35799   5.957  28.093   8.874
 2673POPC   D2A35800   6.062  28.365   8.520
 2673POPC   C3A35801   6.090  28.272   8.095
 2673POPC   C4A35802   5.948  28.355   7.690
 2673POPC   C1B35803   6.054  28.763   8.832
 2673POPC   C2B35804   6.151  28.887   8.433
 2673POPC   C3B35805   6.263  28.729   8.079
 2673POPC   C4B35806   6.211  28.859   7.680
 2674POPC   NC335807  28.710   0.176   9.583
 2674POPC   PO435808  29.295   0.487   9.505
 2674POPC   GL135809  29.044   0.621   9.203
 2674POPC   GL235810  28.959   0.277   9.150
 2674POPC   C1A35811  28.939   0.712   8.786
 2674POPC   D2A35812  29.189   0.639   8.400
 2674POPC   C3A35813  28.975   0.654   7.982
 2674POPC   C4A35814  29.068   0.499   7.565
 2674POPC   C1B35815  28.723   0.251   8.788
 2674POPC   C2B35816  28.761   0.383   8.388
 2674POPC   C3B35817  28.931   0.149   8.033
 2674POPC   C4B35818  28.803   0.064   7.609
 2675POPC   NC335819  16.375  29.744   9.682
 2675POPC   PO435820  16.028  30.269   9.498
 2675POPC   GL135821  15.940  29.999   9.181
 2675POPC   GL235822  16.137  29.706   9.206
 2675POPC   C1A35823  15.820  30.141   8.782
 2675POPC   D2A35824  16.017  30.265   8.399
 2675POPC   C3A35825  16.145  29.934   8.147
 2675POPC   C4A35826  15.943  29.944   7.782
 2675POPC   C1B35827  15.913  29.581   8.841
 2675POPC   C2B35828  15.963  29.428   8.433
 2675POPC   C3B35829  15.827  29.503   8.012
 2675POPC   C4B35830  16.195  29.533   7.715
 2676POPC   NC335831  18.687  40.792   9.656
 2676POPC   PO435832  19.293  40.512   9.474
 2676POPC   GL135833  19.113  40.812   9.212
 2676POPC   GL235834  18.757  40.787   9.126
 2676POPC   C1A35835  19.169  40.784   8.786
 2676POPC   D2A35836  18.846  40.747   8.487
 2676POPC   C3A35837  19.060  40.739   8.104
 2676POPC   C4A35838  19.265  40.865   7.732
 2676POPC   C1B35839  18.838  41.171   8.821
 2676POPC   C2B35840  18.846  41.383   8.421
 2676POPC   C3B35841  18.952  41.232   8.020
 2676POPC   C4B35842  18.725  41.123   7.690
 2677POPC   NC335843  19.322  27.402   9.356
 2677POPC   PO435844  19.381  28.080   9.487
 2677POPC   GL135845  19.150  27.859   9.145
 2677POPC   GL235846  18.903  27.572   9.109
 2677POPC   C1A35847  19.313  27.674   8.762
 2677POPC   D2A35848  19.368  27.380   8.457
 2677POPC   C3A35849  19.359  27.575   8.069
 2677POPC   C4A35850  19.372  27.364   7.693
 2677POPC   C1B35851  18.795  27.702   8.710
 2677POPC   C2B35852  18.910  27.780   8.260
 2677POPC   C3B35853  18.817  27.548   7.852
 2677POPC   C4B35854  18.700  27.752   7.425
 2678POPC   NC335855  23.321  13.050   9.600
 2678POPC   PO435856  23.555  12.519   9.357
 2678POPC   GL135857  23.851  12.737   9.099
 2678POPC   GL235858  23.920  13.060   9.163
 2678POPC   C1A35859  24.059  12.716   8.735
 2678POPC   D2A35860  23.875  12.800   8.355
 2678POPC   C3A35861  23.579  12.564   8.176
 2678POPC   C4A35862  23.553  12.688   7.790
 2678POPC   C1B35863  23.729  13.130   8.763
 2678POPC   C2B35864  23.458  13.083   8.421
 2678POPC   C3B35865  23.618  13.124   8.044
 2678POPC   C4B35866  23.660  13.433   7.806
 2679POPC   NC335867  29.801  10.401   9.579
 2679POPC   PO435868  29.756  11.040   9.623
 2679POPC   GL135869  29.651  10.719   9.206
 2679POPC   GL235870  29.666  10.324   9.106
 2679POPC   C1A35871  29.768  10.686   8.738
 2679POPC   D2A35872  29.595  10.544   8.313
 2679POPC   C3A35873  29.735  10.747   7.900
 2679POPC   C4A35874  29.787  10.801   7.434
 2679POPC   C1B35875  29.917  10.173   8.771
 2679POPC   C2B35876  30.037  10.319   8.383
 2679POPC   C3B35877  29.991  10.280   8.002
 2679POPC   C4B35878  30.152  10.472   7.632
 2680POPC   NC335879  14.026  13.662   9.462
 2680POPC   PO435880  13.394  13.847   9.627
 2680POPC   GL135881  13.560  13.740   9.253
 2680POPC   GL235882  13.450  13.455   9.123
 2680POPC   C1A35883  13.607  13.846   8.837
 2680POPC   D2A35884  13.368  13.715   8.494
 2680POPC   C3A35885  13.609  13.790   8.147
 2680POPC   C4A35886  13.508  13.735   7.744
 2680POPC   C1B35887  13.588  13.330   8.734
 2680POPC   C2B35888  13.806  13.375   8.364
 2680POPC   C3B35889  13.790  13.321   7.916
 2680POPC   C4B35890  13.981  13.471   7.547
 2681POPC   NC335891  23.683  31.110   9.344
 2681POPC   PO435892  24.037  31.629   9.422
 2681POPC   GL135893  23.705  31.571   9.067
 2681POPC   GL235894  23.492  31.888   9.031
 2681POPC   C1A35895  23.415  31.281   8.793
 2681POPC   D2A35896  23.220  31.308   8.382
 2681POPC   C3A35897  23.439  31.548   8.053
 2681POPC   C4A35898  23.555  31.335   7.668
 2681POPC   C1B35899  23.529  31.743   8.595
 2681POPC   C2B35900  23.749  31.374   8.429
 2681POPC   C3B35901  23.928  31.352   8.046
 2681POPC   C4B35902  23.909  31.757   7.837
 2682POPC   NC335903  36.981  16.251   9.545
 2682POPC   PO435904  36.673  15.712   9.361
 2682POPC   GL135905  36.998  15.934   9.113
 2682POPC   GL235906  36.784  16.210   9.067
 2682POPC   C1A35907  37.261  15.883   8.731
 2682POPC   D2A35908  37.283  15.979   8.271
 2682POPC   C3A35909  37.006  16.000   7.874
 2682POPC   C4A35910  37.168  15.759   7.535
 2682POPC   C1B35911  36.717  15.970   8.702
 2682POPC   C2B35912  36.789  15.836   8.304
 2682POPC   C3B35913  36.528  15.785   7.935
 2682POPC   C4B35914  36.413  16.111   7.622
 2683POPC   NC335915  21.907  21.470   9.681
 2683POPC   PO435916  21.400  21.073   9.521
 2683POPC   GL135917  21.524  21.344   9.246
 2683POPC   GL235918  21.251  21.183   9.030
 2683POPC   C1A35919  21.439  21.640   8.908
 2683POPC   D2A35920  21.228  21.444   8.569
 2683POPC   C3A35921  21.332  21.359   8.180
 2683POPC   C4A35922  21.406  21.399   7.759
 2683POPC   C1B35923  21.639  21.122   8.804
 2683POPC   C2B35924  21.905  21.080   8.441
 2683POPC   C3B35925  21.808  21.240   8.063
 2683POPC   C4B35926  21.891  21.221   7.656
 2684POPC   NC335927  41.452  27.432   9.504
 2684POPC   PO435928  41.922  27.732   9.893
 2684POPC   GL135929  41.906  27.669   9.359
 2684POPC   GL235930  41.896  27.330   9.170
 2684POPC   C1A35931  41.752  27.759   8.870
 2684POPC   D2A35932  41.790  27.910   8.371
 2684POPC   C3A35933  41.659  27.732   7.913
 2684POPC   C4A35934  41.379  27.828   7.505
 2684POPC   C1B35935  41.633  27.264   8.791
 2684POPC   C2B35936  41.375  27.293   8.434
 2684POPC   C3B35937  41.481  27.194   8.041
 2684POPC   C4B35938  41.586  27.279   7.633
 2685POPC   NC335939  10.524   5.510   9.469
 2685POPC   PO435940  10.864   4.988   9.546
 2685POPC   GL135941  10.679   4.906   9.140
 2685POPC   GL235942  10.498   5.202   9.026
 2685POPC   C1A35943  10.796   4.950   8.690
 2685POPC   D2A35944  10.913   4.996   8.259
 2685POPC   C3A35945  10.654   4.870   7.884
 2685POPC   C4A35946  10.396   4.861   7.481
 2685POPC   C1B35947  10.292   5.106   8.612
 2685POPC   C2B35948  10.354   5.186   8.173
 2685POPC   C3B35949  10.370   5.284   7.730
 2685POPC   C4B35950  10.183   5.588   7.448
 2686POPC   NC335951  29.245  16.719   9.541
 2686POPC   PO435952  28.572  16.576   9.565
 2686POPC   GL135953  28.866  16.579   9.230
 2686POPC   GL235954  28.937  16.881   9.121
 2686POPC   C1A35955  28.830  16.491   8.788
 2686POPC   D2A35956  29.037  16.584   8.382
 2686POPC   C3A35957  28.961  16.355   8.004
 2686POPC   C4A35958  29.042  16.264   7.590
 2686POPC   C1B35959  29.263  16.767   8.839
 2686POPC   C2B35960  29.552  16.902   8.525
 2686POPC   C3B35961  29.461  16.826   8.122
 2686POPC   C4B35962  29.121  16.810   7.842
 2687POPC   NC335963  30.183   1.550   9.403
 2687POPC   PO435964  29.698   1.133   9.530
 2687POPC   GL135965  29.915   1.172   9.144
 2687POPC   GL235966  30.278   1.084   9.197
 2687POPC   C1A35967  29.812   1.342   8.746
 2687POPC   D2A35968  29.871   1.498   8.355
 2687POPC   C3A35969  29.804   1.232   8.036
 2687POPC   C4A35970  29.685   1.370   7.663
 2687POPC   C1B35971  30.309   1.172   8.794
 2687POPC   C2B35972  30.172   1.104   8.415
 2687POPC   C3B35973  30.280   1.063   8.004
 2687POPC   C4B35974  30.191   1.265   7.639
 2688POPC   NC335975  30.113   9.340   9.401
 2688POPC   PO435976  29.821   9.929   9.520
 2688POPC   GL135977  29.847   9.815   9.129
 2688POPC   GL235978  30.193   9.828   9.149
 2688POPC   C1A35979  29.811   9.613   8.731
 2688POPC   D2A35980  29.965   9.431   8.367
 2688POPC   C3A35981  29.809   9.647   7.993
 2688POPC   C4A35982  29.851   9.491   7.571
 2688POPC   C1B35983  30.295   9.800   8.726
 2688POPC   C2B35984  30.233   9.871   8.308
 2688POPC   C3B35985  30.277   9.842   7.894
 2688POPC   C4B35986  30.010   9.972   7.590
 2689POPC   NC335987  11.107  27.294   9.497
 2689POPC   PO435988  11.524  27.807   9.610
 2689POPC   GL135989  11.416  27.602   9.224
 2689POPC   GL235990  11.076  27.701   9.167
 2689POPC   C1A35991  11.573  27.678   8.806
 2689POPC   D2A35992  11.689  27.469   8.436
 2689POPC   C3A35993  11.689  27.760   8.117
 2689POPC   C4A35994  11.572  27.604   7.738
 2689POPC   C1B35995  11.099  27.537   8.730
 2689POPC   C2B35996  11.130  27.543   8.285
 2689POPC   C3B35997  11.105  27.441   7.873
 2689POPC   C4B35998  11.123  27.568   7.433
 2690POPC   NC335999  23.268  24.692   9.506
 2690POPC   PO436000  23.898  24.341   9.484
 2690POPC   GL136001  23.644  24.481   9.174
 2690POPC   GL236002  23.350  24.281   9.143
 2690POPC   C1A36003  23.766  24.525   8.758
 2690POPC   D2A36004  23.761  24.752   8.383
 2690POPC   C3A36005  23.819  24.604   7.981
 2690POPC   C4A36006  23.662  24.674   7.555
 2690POPC   C1B36007  23.417  24.151   8.727
 2690POPC   C2B36008  23.545  24.295   8.327
 2690POPC   C3B36009  23.375  24.276   7.923
 2690POPC   C4B36010  23.329  24.305   7.479
 2691POPC   NC336011  28.647   2.132   9.356
 2691POPC   PO436012  28.089   1.854   9.571
 2691POPC   GL136013  28.261   1.846   9.138
 2691POPC   GL236014  28.551   1.687   9.057
 2691POPC   C1A36015  28.416   2.088   8.739
 2691POPC   D2A36016  28.643   2.016   8.332
 2691POPC   C3A36017  28.663   2.286   7.963
 2691POPC   C4A36018  28.316   2.378   7.699
 2691POPC   C1B36019  28.618   1.614   8.658
 2691POPC   C2B36020  28.842   1.537   8.303
 2691POPC   C3B36021  28.854   1.743   7.926
 2691POPC   C4B36022  28.572   1.915   7.623
 2692POPC   NC336023  25.565  33.667   9.475
 2692POPC   PO436024  25.033  34.038   9.559
 2692POPC   GL136025  25.084  33.916   9.145
 2692POPC   GL236026  25.045  33.600   9.245
 2692POPC   C1A36027  25.382  33.690   8.851
 2692POPC   D2A36028  25.508  33.571   8.436
 2692POPC   C3A36029  25.313  33.711   8.091
 2692POPC   C4A36030  25.382  33.829   7.698
 2692POPC   C1B36031  24.919  33.481   8.812
 2692POPC   C2B36032  24.915  33.478   8.335
 2692POPC   C3B36033  24.904  33.478   7.856
 2692POPC   C4B36034  25.033  33.585   7.409
 2693POPC   NC336035  22.896  41.140   9.476
 2693POPC   PO436036  23.408  40.649   9.436
 2693POPC   GL136037  23.207  40.874   9.141
 2693POPC   GL236038  22.842  40.755   9.146
 2693POPC   C1A36039  23.145  40.760   8.729
 2693POPC   D2A36040  22.996  40.529   8.414
 2693POPC   C3A36041  23.245  40.658   8.126
 2693POPC   C4A36042  23.060  40.791   7.773
 2693POPC   C1B36043  22.621  40.650   8.759
 2693POPC   C2B36044  22.447  40.648   8.342
 2693POPC   C3B36045  22.575  40.730   7.906
 2693POPC   C4B36046  22.717  40.483   7.537
 2694POPC   NC336047  32.470  23.656   9.468
 2694POPC   PO436048  31.908  23.881   9.227
 2694POPC   GL136049  32.120  23.600   8.977
 2694POPC   GL236050  32.452  23.453   9.013
 2694POPC   C1A36051  32.312  23.770   8.600
 2694POPC   D2A36052  32.543  24.022   8.268
 2694POPC   C3A36053  32.320  23.893   7.891
 2694POPC   C4A36054  31.916  24.084   7.861
 2694POPC   C1B36055  32.301  23.221   8.692
 2694POPC   C2B36056  32.248  23.365   8.308
 2694POPC   C3B36057  32.435  23.402   7.949
 2694POPC   C4B36058  32.277  23.399   7.585
 2695POPC   NC336059  13.855  15.164   9.517
 2695POPC   PO436060  13.320  15.492   9.292
 2695POPC   GL136061  13.748  15.401   9.080
 2695POPC   GL236062  14.124  15.421   9.133
 2695POPC   C1A36063  13.859  15.245   8.680
 2695POPC   D2A36064  13.537  15.380   8.391
 2695POPC   C3A36065  13.382  15.068   8.116
 2695POPC   C4A36066  13.611  14.751   7.871
 2695POPC   C1B36067  14.094  15.691   8.764
 2695POPC   C2B36068  14.103  15.537   8.312
 2695POPC   C3B36069  13.900  15.208   8.048
 2695POPC   C4B36070  13.687  15.241   7.630
 2696POPC   NC336071  14.448   5.685   9.734
 2696POPC   PO436072  13.956   6.074   9.476
 2696POPC   GL136073  14.233   5.822   9.141
 2696POPC   GL236074  14.578   5.728   9.201
 2696POPC   C1A36075  14.261   5.724   8.683
 2696POPC   D2A36076  14.474   5.916   8.332
 2696POPC   C3A36077  14.433   5.703   7.971
 2696POPC   C4A36078  14.274   5.764   7.563
 2696POPC   C1B36079  14.733   5.917   8.799
 2696POPC   C2B36080  14.747   6.304   8.523
 2696POPC   C3B36081  14.750   6.289   8.083
 2696POPC   C4B36082  14.728   6.037   7.694
 2697POPC   NC336083   7.299  20.588   9.508
 2697POPC   PO436084   7.930  20.684   9.366
 2697POPC   GL136085   7.574  20.608   9.079
 2697POPC   GL236086   7.286  20.324   9.077
 2697POPC   C1A36087   7.753  20.592   8.700
 2697POPC   D2A36088   7.570  20.495   8.370
 2697POPC   C3A36089   7.701  20.590   8.032
 2697POPC   C4A36090   7.721  20.369   7.600
 2697POPC   C1B36091   7.184  20.487   8.698
 2697POPC   C2B36092   7.104  20.345   8.278
 2697POPC   C3B36093   7.214  20.524   7.890
 2697POPC   C4B36094   7.280  20.548   7.436
 2698POPC   NC336095  40.309   0.118   9.810
 2698POPC   PO436096  40.793   0.398   9.543
 2698POPC   GL136097  40.810   0.640   9.123
 2698POPC   GL236098  40.432   0.729   9.113
 2698POPC   C1A36099  40.667   0.548   8.700
 2698POPC   D2A36100  40.416   0.283   8.444
 2698POPC   C3A36101  40.550   0.283   8.029
 2698POPC   C4A36102  40.816   0.569   7.817
 2698POPC   C1B36103  40.217   0.753   8.663
 2698POPC   C2B36104  40.441   0.768   8.223
 2698POPC   C3B36105  40.335   0.736   7.744
 2698POPC   C4B36106  40.241   0.574   7.283
 2699POPC   NC336107  17.060  18.342   9.485
 2699POPC   PO436108  16.430  18.077   9.616
 2699POPC   GL136109  16.535  18.017   9.202
 2699POPC   GL236110  16.181  17.967   9.109
 2699POPC   C1A36111  16.845  18.099   8.851
 2699POPC   D2A36112  17.006  18.453   8.602
 2699POPC   C3A36113  16.994  18.425   8.134
 2699POPC   C4A36114  16.720  18.501   7.799
 2699POPC   C1B36115  16.403  17.888   8.707
 2699POPC   C2B36116  16.521  18.143   8.338
 2699POPC   C3B36117  16.515  18.070   7.886
 2699POPC   C4B36118  16.923  17.993   7.766
 2700POPC   NC336119   0.597  42.111   9.369
 2700POPC   PO436120   0.672  41.595   9.836
 2700POPC   GL136121   0.735  41.654   9.283
 2700POPC   GL236122   0.920  41.383   9.176
 2700POPC   C1A36123   0.477  41.682   8.804
 2700POPC   D2A36124   0.199  41.517   8.407
 2700POPC   C3A36125   0.311  41.567   7.963
 2700POPC   C4A36126   0.448  41.878   7.642
 2700POPC   C1B36127   0.836  41.283   8.743
 2700POPC   C2B36128   0.710  41.372   8.303
 2700POPC   C3B36129   0.696  41.235   7.850
 2700POPC   C4B36130   0.434  41.377   7.489
 2701POPC   NC336131  29.349  37.481   9.411
 2701POPC   PO436132  29.058  38.038   9.535
 2701POPC   GL136133  29.167  37.886   9.126
 2701POPC   GL236134  28.952  37.589   9.107
 2701POPC   C1A36135  29.200  37.770   8.667
 2701POPC   D2A36136  29.456  37.702   8.271
 2701POPC   C3A36137  29.335  37.660   7.854
 2701POPC   C4A36138  29.432  37.897   7.494
 2701POPC   C1B36139  28.914  37.331   8.736
 2701POPC   C2B36140  29.005  37.434   8.304
 2701POPC   C3B36141  29.139  37.195   7.957
 2701POPC   C4B36142  29.045  37.325   7.549
 2702POPC   NC336143  34.443   3.075   9.454
 2702POPC   PO436144  34.161   2.446   9.341
 2702POPC   GL136145  34.470   2.693   9.118
 2702POPC   GL236146  34.800   2.538   9.251
 2702POPC   C1A36147  34.485   2.883   8.687
 2702POPC   D2A36148  34.437   2.541   8.410
 2702POPC   C3A36149  34.645   2.605   8.041
 2702POPC   C4A36150  34.472   2.895   7.717
 2702POPC   C1B36151  34.879   2.620   8.822
 2702POPC   C2B36152  34.972   3.045   8.640
 2702POPC   C3B36153  34.799   3.109   8.221
 2702POPC   C4B36154  34.945   2.964   7.831
 2703POPC   NC336155  22.827  16.104   9.477
 2703POPC   PO436156  23.185  15.713   9.876
 2703POPC   GL136157  23.137  15.708   9.344
 2703POPC   GL236158  23.239  16.002   9.142
 2703POPC   C1A36159  22.981  15.665   8.861
 2703POPC   D2A36160  23.090  15.811   8.419
 2703POPC   C3A36161  22.878  15.985   8.059
 2703POPC   C4A36162  22.985  15.864   7.649
 2703POPC   C1B36163  23.274  16.165   8.731
 2703POPC   C2B36164  23.205  16.336   8.289
 2703POPC   C3B36165  23.285  16.224   7.824
 2703POPC   C4B36166  23.256  16.180   7.322
 2704POPC   NC336167  19.126  42.831   9.538
 2704POPC   PO436168  19.212  42.130   9.468
 2704POPC   GL136169  19.044  42.180   9.115
 2704POPC   GL236170  19.124  42.527   9.137
 2704POPC   C1A36171  19.152  42.164   8.694
 2704POPC   D2A36172  19.294  42.170   8.285
 2704POPC   C3A36173  19.068  42.136   7.954
 2704POPC   C4A36174  18.850  42.054   7.632
 2704POPC   C1B36175  18.984  42.632   8.775
 2704POPC   C2B36176  19.199  42.654   8.426
 2704POPC   C3B36177  18.991  42.619   8.083
 2704POPC   C4B36178  18.851  42.556   7.717
 2705POPC   NC336179  33.292  32.535   9.609
 2705POPC   PO436180  32.987  31.956   9.713
 2705POPC   GL136181  32.921  32.242   9.384
 2705POPC   GL236182  33.265  32.187   9.242
 2705POPC   C1A36183  32.833  32.184   8.960
 2705POPC   D2A36184  32.921  32.237   8.574
 2705POPC   C3A36185  32.891  32.177   8.166
 2705POPC   C4A36186  33.031  32.384   7.801
 2705POPC   C1B36187  33.242  32.508   8.911
 2705POPC   C2B36188  33.291  32.561   8.459
 2705POPC   C3B36189  33.469  32.454   8.068
 2705POPC   C4B36190  33.419  32.709   7.701
 2706POPC   NC336191  13.131  20.383   9.514
 2706POPC   PO436192  12.598  20.827   9.403
 2706POPC   GL136193  12.874  20.646   9.135
 2706POPC   GL236194  12.763  20.286   9.168
 2706POPC   C1A36195  12.735  20.559   8.711
 2706POPC   D2A36196  12.605  20.688   8.308
 2706POPC   C3A36197  12.908  20.602   7.971
 2706POPC   C4A36198  12.983  20.737   7.553
 2706POPC   C1B36199  13.109  20.262   8.878
 2706POPC   C2B36200  13.099  20.290   8.448
 2706POPC   C3B36201  13.215  20.187   8.070
 2706POPC   C4B36202  13.281  20.339   7.662
 2707POPC   NC336203  44.508  18.100   9.609
 2707POPC   PO436204   0.012  18.589   9.445
 2707POPC   GL136205  44.639  18.363   9.197
 2707POPC   GL236206  44.264  18.341   9.220
 2707POPC   C1A36207  44.581  18.151   8.854
 2707POPC   D2A36208  44.533  18.327   8.491
 2707POPC   C3A36209  44.712  18.216   8.143
 2707POPC   C4A36210  44.684  18.406   7.752
 2707POPC   C1B36211  44.117  17.986   8.906
 2707POPC   C2B36212  44.296  17.858   8.510
 2707POPC   C3B36213  44.245  18.048   8.096
 2707POPC   C4B36214  44.380  17.995   7.657
 2708POPC   NC336215  29.942  20.273   9.621
 2708POPC   PO436216  30.091  19.661   9.914
 2708POPC   GL136217  29.980  19.846   9.350
 2708POPC   GL236218  30.062  20.198   9.143
 2708POPC   C1A36219  29.941  19.795   8.855
 2708POPC   D2A36220  29.780  19.812   8.410
 2708POPC   C3A36221  30.080  19.706   8.047
 2708POPC   C4A36222  29.940  19.689   7.628
 2708POPC   C1B36223  30.079  20.410   8.740
 2708POPC   C2B36224  29.999  20.307   8.329
 2708POPC   C3B36225  29.797  20.120   7.995
 2708POPC   C4B36226  30.118  20.151   7.708
 2709POPC   NC336227  15.620  20.258   9.478
 2709POPC   PO436228  16.023  20.801   9.563
 2709POPC   GL136229  16.019  20.610   9.182
 2709POPC   GL236230  15.683  20.677   9.183
 2709POPC   C1A36231  16.015  20.755   8.761
 2709POPC   D2A36232  16.192  20.620   8.384
 2709POPC   C3A36233  16.019  20.471   8.009
 2709POPC   C4A36234  15.976  20.694   7.640
 2709POPC   C1B36235  15.717  20.330   8.856
 2709POPC   C2B36236  15.738  20.391   8.444
 2709POPC   C3B36237  15.520  20.372   8.071
 2709POPC   C4B36238  15.508  20.507   7.637
 2710POPC   NC336239  19.818  27.898   9.559
 2710POPC   PO436240  19.758  27.245   9.466
 2710POPC   GL136241  19.973  27.489   9.189
 2710POPC   GL236242  20.205  27.749   9.275
 2710POPC   C1A36243  19.815  27.497   8.785
 2710POPC   D2A36244  19.871  27.221   8.481
 2710POPC   C3A36245  19.944  27.438   8.116
 2710POPC   C4A36246  19.784  27.600   7.767
 2710POPC   C1B36247  20.286  27.719   8.830
 2710POPC   C2B36248  20.057  27.839   8.422
 2710POPC   C3B36249  20.143  27.887   7.959
 2710POPC   C4B36250  20.055  27.885   7.462
 2711POPC   NC336251  41.166   4.877   9.692
 2711POPC   PO436252  40.797   5.406   9.601
 2711POPC   GL136253  40.715   5.222   9.211
 2711POPC   GL236254  41.063   5.220   9.215
 2711POPC   C1A36255  40.615   5.054   8.793
 2711POPC   D2A36256  40.748   4.812   8.441
 2711POPC   C3A36257  40.857   4.944   8.042
 2711POPC   C4A36258  40.586   5.105   7.728
 2711POPC   C1B36259  41.082   5.348   8.814
 2711POPC   C2B36260  40.900   5.313   8.438
 2711POPC   C3B36261  40.863   5.454   8.051
 2711POPC   C4B36262  41.058   5.296   7.721
 2712POPC   NC336263  21.558  38.691   9.836
 2712POPC   PO436264  21.607  38.107   9.420
 2712POPC   GL136265  21.415  38.219   9.114
 2712POPC   GL236266  21.741  38.237   8.932
 2712POPC   C1A36267  21.146  38.080   8.783
 2712POPC   D2A36268  20.940  38.090   8.359
 2712POPC   C3A36269  21.130  38.328   8.028
 2712POPC   C4A36270  21.030  38.652   7.739
 2712POPC   C1B36271  21.446  38.539   8.740
 2712POPC   C2B36272  21.346  38.695   8.361
 2712POPC   C3B36273  21.483  38.693   7.965
 2712POPC   C4B36274  21.848  38.668   7.790
 2713POPC   NC336275  36.049  16.550   9.753
 2713POPC   PO436276  36.455  17.016   9.495
 2713POPC   GL136277  36.149  16.849   9.157
 2713POPC   GL236278  35.996  16.512   9.190
 2713POPC   C1A36279  36.287  16.720   8.739
 2713POPC   D2A36280  36.093  16.839   8.369
 2713POPC   C3A36281  36.382  16.828   8.056
 2713POPC   C4A36282  36.294  16.603   7.689
 2713POPC   C1B36283  35.805  16.576   8.759
 2713POPC   C2B36284  35.892  16.362   8.356
 2713POPC   C3B36285  35.825  16.614   7.961
 2713POPC   C4B36286  35.781  16.646   7.498
 2714POPC   NC336287  27.930  20.710   9.559
 2714POPC   PO436288  27.423  20.337   9.471
 2714POPC   GL136289  27.629  20.521   9.145
 2714POPC   GL236290  27.654  20.878   9.158
 2714POPC   C1A36291  27.594  20.387   8.728
 2714POPC   D2A36292  27.337  20.119   8.465
 2714POPC   C3A36293  27.444  20.266   8.074
 2714POPC   C4A36294  27.546  20.398   7.695
 2714POPC   C1B36295  27.390  20.843   8.800
 2714POPC   C2B36296  27.381  20.696   8.374
 2714POPC   C3B36297  27.655  20.775   8.053
 2714POPC   C4B36298  27.544  20.911   7.671
 2715POPC   NC336299  25.634  42.313   9.651
 2715POPC   PO436300  24.951  42.081   9.540
 2715POPC   GL136301  25.164  42.369   9.226
 2715POPC   GL236302  25.543  42.468   9.190
 2715POPC   C1A36303  25.270  42.337   8.792
 2715POPC   D2A36304  25.551  42.107   8.560
 2715POPC   C3A36305  25.437  42.110   8.151
 2715POPC   C4A36306  25.310  42.198   7.742
 2715POPC   C1B36307  25.766  42.558   8.832
 2715POPC   C2B36308  25.601  42.597   8.424
 2715POPC   C3B36309  25.521  42.585   8.000
 2715POPC   C4B36310  25.144  42.696   7.806
 2716POPC   NC336311  27.212  24.484   9.524
 2716POPC   PO436312  26.494  24.441   9.464
 2716POPC   GL136313  26.798  24.316   9.157
 2716POPC   GL236314  26.940  24.612   9.107
 2716POPC   C1A36315  26.797  24.279   8.705
 2716POPC   D2A36316  26.625  24.562   8.392
 2716POPC   C3A36317  26.532  24.335   8.042
 2716POPC   C4A36318  26.482  24.536   7.671
 2716POPC   C1B36319  26.970  24.756   8.738
 2716POPC   C2B36320  27.103  24.676   8.310
 2716POPC   C3B36321  26.910  24.742   7.926
 2716POPC   C4B36322  27.074  24.975   7.559
 2717POPC   NC336323  24.768  28.322   9.481
 2717POPC   PO436324  24.130  28.425   9.442
 2717POPC   GL136325  24.390  28.294   9.105
 2717POPC   GL236326  24.499  28.653   9.093
 2717POPC   C1A36327  24.532  28.364   8.671
 2717POPC   D2A36328  24.786  28.586   8.378
 2717POPC   C3A36329  24.709  28.416   7.964
 2717POPC   C4A36330  24.442  28.123   7.761
 2717POPC   C1B36331  24.132  28.637   8.771
 2717POPC   C2B36332  24.269  28.671   8.300
 2717POPC   C3B36333  24.236  28.604   7.837
 2717POPC   C4B36334  24.115  28.518   7.389
 2718POPC   NC336335  43.003  44.832   9.850
 2718POPC   PO436336  43.287  44.211   9.735
 2718POPC   GL136337  43.010  44.443   9.379
 2718POPC   GL236338  43.075  44.828   9.293
 2718POPC   C1A36339  43.046  44.470   8.918
 2718POPC   D2A36340  43.258  44.587   8.510
 2718POPC   C3A36341  43.088  44.752   8.113
 2718POPC   C4A36342  43.295  44.604   7.739
 2718POPC   C1B36343  43.302  44.931   8.886
 2718POPC   C2B36344  43.288   0.109   8.475
 2718POPC   C3B36345  43.483   0.086   8.100
 2718POPC   C4B36346  43.301   0.099   7.688
 2719POPC   NC336347  44.870  27.325   9.553
 2719POPC   PO436348  44.861  27.952   9.228
 2719POPC   GL136349  44.869  27.532   9.105
 2719POPC   GL236350  44.684  27.678   8.823
 2719POPC   C1A36351  44.828  27.208   8.810
 2719POPC   D2A36352  44.904  27.411   8.436
 2719POPC   C3A36353  44.854  27.228   8.082
 2719POPC   C4A36354  44.642  27.265   7.722
 2719POPC   C1B36355  44.292  27.815   8.645
 2719POPC   C2B36356  44.249  27.898   8.240
 2719POPC   C3B36357  44.575  27.735   7.975
 2719POPC   C4B36358  44.642  27.771   7.580
 2720POPC   NC336359   5.870  30.367   9.544
 2720POPC   PO436360   5.899  31.133   9.552
 2720POPC   GL136361   5.800  31.006   9.136
 2720POPC   GL236362   5.710  30.669   9.169
 2720POPC   C1A36363   5.943  30.922   8.699
 2720POPC   D2A36364   6.066  31.170   8.318
 2720POPC   C3A36365   6.042  30.880   7.986
 2720POPC   C4A36366   6.224  30.477   7.907
 2720POPC   C1B36367   5.831  30.431   8.793
 2720POPC   C2B36368   5.944  30.508   8.353
 2720POPC   C3B36369   5.730  30.447   7.955
 2720POPC   C4B36370   5.435  30.509   7.637
 2721POPC   NC336371  25.800   4.037   9.555
 2721POPC   PO436372  26.256   4.497   9.457
 2721POPC   GL136373  26.024   4.341   9.156
 2721POPC   GL236374  26.175   4.051   9.116
 2721POPC   C1A36375  26.077   4.398   8.716
 2721POPC   D2A36376  26.223   4.434   8.294
 2721POPC   C3A36377  25.962   4.323   7.942
 2721POPC   C4A36378  25.851   4.023   7.653
 2721POPC   C1B36379  26.222   3.903   8.723
 2721POPC   C2B36380  25.993   3.966   8.363
 2721POPC   C3B36381  26.245   3.907   8.028
 2721POPC   C4B36382  26.392   3.868   7.628
 2722POPC   NC336383  22.189   0.067   9.539
 2722POPC   PO436384  22.520  44.422   9.535
 2722POPC   GL136385  22.414  44.703   9.197
 2722POPC   GL236386  22.073  44.713   9.166
 2722POPC   C1A36387  22.366  44.895   8.774
 2722POPC   D2A36388  22.164  44.929   8.360
 2722POPC   C3A36389  22.402  44.857   7.984
 2722POPC   C4A36390  22.399  44.688   7.549
 2722POPC   C1B36391  21.894  44.639   8.748
 2722POPC   C2B36392  21.914  44.470   8.313
 2722POPC   C3B36393  21.999  44.542   7.848
 2722POPC   C4B36394  22.021  44.370   7.380
 2723POPC   NC336395  14.631   1.383   9.527
 2723POPC   PO436396  14.216   0.859   9.545
 2723POPC   GL136397  14.231   1.235   9.257
 2723POPC   GL236398  14.543   1.223   9.049
 2723POPC   C1A36399  14.142   1.480   8.884
 2723POPC   D2A36400  14.245   1.506   8.436
 2723POPC   C3A36401  14.395   1.216   8.124
 2723POPC   C4A36402  14.349   1.146   7.682
 2723POPC   C1B36403  14.709   1.429   8.645
 2723POPC   C2B36404  14.761   1.559   8.184
 2723POPC   C3B36405  14.830   1.211   7.811
 2723POPC   C4B36406  14.743   1.021   7.355
 2724POPC   NC336407  32.965  26.573   9.896
 2724POPC   PO436408  32.766  26.996   9.340
 2724POPC   GL136409  32.965  26.812   8.982
 2724POPC   GL236410  33.297  26.695   8.979
 2724POPC   C1A36411  32.906  26.569   8.640
 2724POPC   D2A36412  32.919  26.436   8.229
 2724POPC   C3A36413  32.806  26.644   7.843
 2724POPC   C4A36414  32.861  26.714   7.398
 2724POPC   C1B36415  33.400  26.756   8.547
 2724POPC   C2B36416  33.194  26.850   8.143
 2724POPC   C3B36417  33.116  27.033   7.741
 2724POPC   C4B36418  33.171  27.235   7.361
 2725POPC   NC336419   1.825  18.529   9.370
 2725POPC   PO436420   2.393  18.879   9.540
 2725POPC   GL136421   2.053  18.998   9.254
 2725POPC   GL236422   2.198  19.269   9.041
 2725POPC   C1A36423   1.828  18.936   8.866
 2725POPC   D2A36424   2.018  18.971   8.484
 2725POPC   C3A36425   1.765  19.047   8.149
 2725POPC   C4A36426   1.931  19.032   7.750
 2725POPC   C1B36427   2.338  19.576   8.712
 2725POPC   C2B36428   2.506  19.593   8.271
 2725POPC   C3B36429   2.337  19.407   7.873
 2725POPC   C4B36430   2.431  19.415   7.407
 2726POPC   NC336431  32.806  39.615   9.657
 2726POPC   PO436432  33.147  39.032   9.788
 2726POPC   GL136433  33.060  39.203   9.356
 2726POPC   GL236434  32.714  39.261   9.217
 2726POPC   C1A36435  33.092  39.076   8.915
 2726POPC   D2A36436  32.960  39.281   8.521
 2726POPC   C3A36437  33.058  39.110   8.103
 2726POPC   C4A36438  33.127  39.065   7.686
 2726POPC   C1B36439  32.559  39.482   8.833
 2726POPC   C2B36440  32.611  39.645   8.402
 2726POPC   C3B36441  32.794  39.527   8.069
 2726POPC   C4B36442  32.798  39.449   7.668
 2727POPC   NC336443  16.635  29.074   9.535
 2727POPC   PO436444  16.829  29.699   9.674
 2727POPC   GL136445  16.627  29.513   9.259
 2727POPC   GL236446  16.850  29.258   9.107
 2727POPC   C1A36447  16.444  29.450   8.794
 2727POPC   D2A36448  16.470  29.552   8.310
 2727POPC   C3A36449  16.711  29.272   8.024
 2727POPC   C4A36450  16.586  28.877   7.902
 2727POPC   C1B36451  16.703  28.994   8.769
 2727POPC   C2B36452  16.825  28.806   8.370
 2727POPC   C3B36453  17.069  28.822   8.023
 2727POPC   C4B36454  17.019  29.020   7.641
 2728POPC   NC336455   3.482  29.688   9.428
 2728POPC   PO436456   3.585  30.426   9.473
 2728POPC   GL136457   3.485  30.127   9.154
 2728POPC   GL236458   3.829  29.989   9.133
 2728POPC   C1A36459   3.620  30.110   8.700
 2728POPC   D2A36460   3.416  29.972   8.346
 2728POPC   C3A36461   3.591  30.098   7.977
 2728POPC   C4A36462   3.323  29.939   7.665
 2728POPC   C1B36463   3.811  29.647   8.780
 2728POPC   C2B36464   3.887  29.690   8.317
 2728POPC   C3B36465   3.783  29.636   7.881
 2728POPC   C4B36466   3.802  29.488   7.455
 2729POPC   NC336467  30.647   7.064   9.495
 2729POPC   PO436468  31.059   6.550   9.675
 2729POPC   GL136469  30.815   6.580   9.281
 2729POPC   GL236470  30.494   6.593   9.225
 2729POPC   C1A36471  30.889   6.549   8.832
 2729POPC   D2A36472  30.778   6.749   8.441
 2729POPC   C3A36473  30.922   6.479   8.128
 2729POPC   C4A36474  30.894   6.595   7.722
 2729POPC   C1B36475  30.406   6.705   8.804
 2729POPC   C2B36476  30.330   6.437   8.462
 2729POPC   C3B36477  30.418   6.437   8.054
 2729POPC   C4B36478  30.396   6.579   7.665
 2730POPC   NC336479  12.562  27.446   9.492
 2730POPC   PO436480  13.072  27.886   9.587
 2730POPC   GL136481  12.965  27.668   9.231
 2730POPC   GL236482  12.669  27.835   9.173
 2730POPC   C1A36483  13.012  27.415   8.854
 2730POPC   D2A36484  12.750  27.322   8.507
 2730POPC   C3A36485  12.983  27.306   8.132
 2730POPC   C4A36486  12.827  27.347   7.727
 2730POPC   C1B36487  12.559  27.678   8.825
 2730POPC   C2B36488  12.601  27.817   8.428
 2730POPC   C3B36489  12.542  27.611   8.074
 2730POPC   C4B36490  12.590  27.777   7.665
 2731POPC   NC336491  13.216  19.508   9.479
 2731POPC   PO436492  13.819  19.961   9.457
 2731POPC   GL136493  13.618  19.698   9.180
 2731POPC   GL236494  13.343  19.891   9.120
 2731POPC   C1A36495  13.493  19.470   8.809
 2731POPC   D2A36496  13.609  19.527   8.388
 2731POPC   C3A36497  13.385  19.533   8.034
 2731POPC   C4A36498  13.330  19.839   7.731
 2731POPC   C1B36499  13.497  19.975   8.690
 2731POPC   C2B36500  13.669  20.015   8.271
 2731POPC   C3B36501  13.712  20.219   7.894
 2731POPC   C4B36502  13.723  20.147   7.459
 2732POPC   NC336503   8.371   0.543   9.654
 2732POPC   PO436504   7.942   0.217   9.255
 2732POPC   GL136505   8.191   0.538   9.125
 2732POPC   GL236506   8.547   0.491   9.175
 2732POPC   C1A36507   8.285   0.440   8.718
 2732POPC   D2A36508   8.337   0.179   8.373
 2732POPC   C3A36509   8.213   0.297   7.945
 2732POPC   C4A36510   8.241   0.594   7.630
 2732POPC   C1B36511   8.644   0.777   8.831
 2732POPC   C2B36512   8.573   0.654   8.378
 2732POPC   C3B36513   8.593   0.778   7.970
 2732POPC   C4B36514   8.755   0.570   7.617
 2733POPC   NC336515  33.944  14.193   9.274
 2733POPC   PO436516  33.489  14.577   9.520
 2733POPC   GL136517  33.723  14.598   9.114
 2733POPC   GL236518  34.066  14.630   9.066
 2733POPC   C1A36519  33.688  14.382   8.693
 2733POPC   D2A36520  33.471  14.352   8.289
 2733POPC   C3A36521  33.598  14.074   7.921
 2733POPC   C4A36522  33.920  14.234   7.668
 2733POPC   C1B36523  34.108  14.869   8.736
 2733POPC   C2B36524  33.977  14.670   8.387
 2733POPC   C3B36525  33.841  14.575   8.020
 2733POPC   C4B36526  33.501  14.549   7.784
 2734POPC   NC336527  23.105  17.678   9.673
 2734POPC   PO436528  22.665  17.260   9.407
 2734POPC   GL136529  22.905  17.419   9.096
 2734POPC   GL236530  23.240  17.465   9.201
 2734POPC   C1A36531  22.840  17.447   8.666
 2734POPC   D2A36532  22.878  17.683   8.326
 2734POPC   C3A36533  22.784  17.393   8.005
 2734POPC   C4A36534  22.629  17.251   7.631
 2734POPC   C1B36535  23.347  17.533   8.769
 2734POPC   C2B36536  23.435  17.771   8.422
 2734POPC   C3B36537  23.343  17.940   8.029
 2734POPC   C4B36538  22.938  17.857   7.854
 2735POPC   NC336539  42.814  23.669   9.789
 2735POPC   PO436540  42.175  23.789   9.574
 2735POPC   GL136541  42.027  23.677   9.167
 2735POPC   GL236542  42.338  23.785   9.077
 2735POPC   C1A36543  42.073  23.474   8.735
 2735POPC   D2A36544  42.132  23.737   8.354
 2735POPC   C3A36545  42.106  23.473   7.994
 2735POPC   C4A36546  41.991  23.447   7.559
 2735POPC   C1B36547  42.521  23.715   8.730
 2735POPC   C2B36548  42.711  23.773   8.385
 2735POPC   C3B36549  42.548  23.763   8.022
 2735POPC   C4B36550  42.446  23.644   7.650
 2736POPC   NC336551  40.425  16.500   9.515
 2736POPC   PO436552  40.852  15.951   9.545
 2736POPC   GL136553  40.796  16.103   9.126
 2736POPC   GL236554  41.130  16.027   9.011
 2736POPC   C1A36555  40.583  16.175   8.711
 2736POPC   D2A36556  40.406  16.108   8.276
 2736POPC   C3A36557  40.595  15.806   7.921
 2736POPC   C4A36558  40.823  15.964   7.538
 2736POPC   C1B36559  41.030  15.893   8.626
 2736POPC   C2B36560  41.031  15.870   8.187
 2736POPC   C3B36561  41.081  15.629   7.817
 2736POPC   C4B36562  41.165  15.599   7.325
 2737POPC   NC336563  41.840   1.122   9.625
 2737POPC   PO436564  41.143   1.023   9.525
 2737POPC   GL136565  41.479   1.154   9.211
 2737POPC   GL236566  41.770   0.969   9.107
 2737POPC   C1A36567  41.633   1.413   8.848
 2737POPC   D2A36568  41.804   1.213   8.506
 2737POPC   C3A36569  41.803   1.492   8.221
 2737POPC   C4A36570  41.692   1.426   7.861
 2737POPC   C1B36571  41.436   0.963   8.751
 2737POPC   C2B36572  41.419   0.867   8.321
 2737POPC   C3B36573  41.460   0.954   7.891
 2737POPC   C4B36574  41.117   0.911   7.609
 2738POPC   NC336575  22.381   6.903   9.529
 2738POPC   PO436576  22.331   7.477   9.491
 2738POPC   GL136577  21.965   7.374   9.234
 2738POPC   GL236578  22.095   7.082   9.144
 2738POPC   C1A36579  21.949   7.440   8.790
 2738POPC   D2A36580  22.249   7.341   8.457
 2738POPC   C3A36581  22.288   7.611   8.107
 2738POPC   C4A36582  22.133   7.591   7.687
 2738POPC   C1B36583  22.332   6.944   8.785
 2738POPC   C2B36584  22.256   6.822   8.343
 2738POPC   C3B36585  22.222   7.110   7.965
 2738POPC   C4B36586  22.597   7.383   7.774
 2739POPC   NC336587  26.936   6.489   9.669
 2739POPC   PO436588  26.383   6.878   9.478
 2739POPC   GL136589  26.759   6.757   9.246
 2739POPC   GL236590  27.015   7.043   9.251
 2739POPC   C1A36591  26.717   6.532   8.851
 2739POPC   D2A36592  26.458   6.737   8.533
 2739POPC   C3A36593  26.429   6.580   8.108
 2739POPC   C4A36594  26.749   6.528   7.806
 2739POPC   C1B36595  26.844   7.046   8.806
 2739POPC   C2B36596  26.892   6.954   8.350
 2739POPC   C3B36597  26.820   7.007   7.911
 2739POPC   C4B36598  27.140   6.891   7.601
 2740POPC   NC336599   4.138  18.681   9.649
 2740POPC   PO436600   4.422  19.274   9.471
 2740POPC   GL136601   4.172  19.018   9.244
 2740POPC   GL236602   4.512  18.895   9.119
 2740POPC   C1A36603   4.085  18.987   8.828
 2740POPC   D2A36604   4.413  19.159   8.566
 2740POPC   C3A36605   4.383  19.179   8.112
 2740POPC   C4A36606   4.270  19.244   7.696
 2740POPC   C1B36607   4.469  18.654   8.745
 2740POPC   C2B36608   4.457  18.700   8.308
 2740POPC   C3B36609   4.663  18.746   7.916
 2740POPC   C4B36610   4.613  18.894   7.506
 2741POPC   NC336611  43.015  16.490   9.532
 2741POPC   PO436612  42.698  17.166   9.475
 2741POPC   GL136613  42.877  16.932   9.117
 2741POPC   GL236614  43.172  16.731   9.114
 2741POPC   C1A36615  43.079  17.016   8.718
 2741POPC   D2A36616  43.208  16.810   8.325
 2741POPC   C3A36617  43.106  16.961   7.929
 2741POPC   C4A36618  43.042  16.676   7.613
 2741POPC   C1B36619  43.424  16.583   8.736
 2741POPC   C2B36620  43.543  16.425   8.289
 2741POPC   C3B36621  43.507  16.555   7.855
 2741POPC   C4B36622  43.440  16.434   7.411
 2742POPC   NC336623  28.353  43.394   9.580
 2742POPC   PO436624  28.649  42.848   9.374
 2742POPC   GL136625  28.343  43.097   9.141
 2742POPC   GL236626  28.124  43.397   9.151
 2742POPC   C1A36627  28.210  43.049   8.719
 2742POPC   D2A36628  28.432  42.925   8.355
 2742POPC   C3A36629  28.269  42.993   7.931
 2742POPC   C4A36630  28.499  43.011   7.527
 2742POPC   C1B36631  27.965  43.518   8.796
 2742POPC   C2B36632  27.921  43.341   8.383
 2742POPC   C3B36633  27.965  43.447   7.951
 2742POPC   C4B36634  28.092  43.315   7.550
 2743POPC   NC336635  21.827  40.432   9.342
 2743POPC   PO436636  22.430  40.767   9.499
 2743POPC   GL136637  22.269  40.745   9.111
 2743POPC   GL236638  22.434  41.072   9.068
 2743POPC   C1A36639  22.033  40.659   8.714
 2743POPC   D2A36640  21.832  40.525   8.318
 2743POPC   C3A36641  22.098  40.514   7.982
 2743POPC   C4A36642  21.957  40.665   7.608
 2743POPC   C1B36643  22.324  41.076   8.652
 2743POPC   C2B36644  22.069  40.990   8.291
 2743POPC   C3B36645  22.161  41.033   7.873
 2743POPC   C4B36646  22.432  41.140   7.554
 2744POPC   NC336647   6.655  11.852   9.372
 2744POPC   PO436648   6.900  12.525   9.348
 2744POPC   GL136649   6.833  12.214   9.047
 2744POPC   GL236650   6.460  12.199   9.049
 2744POPC   C1A36651   6.765  11.907   8.705
 2744POPC   D2A36652   6.989  11.737   8.355
 2744POPC   C3A36653   6.794  11.781   7.961
 2744POPC   C4A36654   6.427  11.960   7.834
 2744POPC   C1B36655   6.542  12.366   8.653
 2744POPC   C2B36656   6.651  12.181   8.265
 2744POPC   C3B36657   6.833  12.319   7.892
 2744POPC   C4B36658   6.483  12.489   7.691
 2745POPC   NC336659  32.112  40.312   9.479
 2745POPC   PO436660  32.392  40.972   9.519
 2745POPC   GL136661  32.315  40.785   9.136
 2745POPC   GL236662  31.967  40.667   9.124
 2745POPC   C1A36663  32.159  40.979   8.753
 2745POPC   D2A36664  32.151  40.790   8.356
 2745POPC   C3A36665  32.298  40.940   8.008
 2745POPC   C4A36666  32.432  40.737   7.684
 2745POPC   C1B36667  32.083  40.439   8.728
 2745POPC   C2B36668  31.965  40.328   8.274
 2745POPC   C3B36669  31.999  40.475   7.819
 2745POPC   C4B36670  32.103  40.537   7.355
 2746POPC   NC336671   3.183  30.635   9.310
 2746POPC   PO436672   2.525  30.540   9.465
 2746POPC   GL136673   2.700  30.635   9.073
 2746POPC   GL236674   2.624  30.971   8.915
 2746POPC   C1A36675   2.697  30.357   8.737
 2746POPC   D2A36676   2.507  30.475   8.358
 2746POPC   C3A36677   2.706  30.684   8.048
 2746POPC   C4A36678   2.906  30.669   7.644
 2746POPC   C1B36679   2.894  30.812   8.589
 2746POPC   C2B36680   3.144  30.892   8.224
 2746POPC   C3B36681   2.913  31.132   7.922
 2746POPC   C4B36682   2.603  31.063   7.631
 2747POPC   NC336683  44.372  15.880   9.629
 2747POPC   PO436684  44.928  15.676   9.537
 2747POPC   GL136685  44.736  15.731   9.156
 2747POPC   GL236686  44.692  16.056   9.233
 2747POPC   C1A36687  44.527  15.912   8.752
 2747POPC   D2A36688  44.324  16.096   8.359
 2747POPC   C3A36689  44.327  15.842   7.970
 2747POPC   C4A36690  44.520  15.964   7.586
 2747POPC   C1B36691  44.985  16.121   8.892
 2747POPC   C2B36692  44.924  16.209   8.459
 2747POPC   C3B36693  44.753  16.164   8.047
 2747POPC   C4B36694   0.010  16.053   7.712
 2748POPC   NC336695  29.675  18.334   9.761
 2748POPC   PO436696  29.058  18.205   9.658
 2748POPC   GL136697  28.995  18.322   9.238
 2748POPC   GL236698  29.114  18.010   9.151
 2748POPC   C1A36699  28.778  18.464   8.882
 2748POPC   D2A36700  28.817  18.711   8.527
 2748POPC   C3A36701  29.152  18.614   8.274
 2748POPC   C4A36702  29.077  18.653   7.852
 2748POPC   C1B36703  29.170  18.159   8.740
 2748POPC   C2B36704  28.871  18.182   8.443
 2748POPC   C3B36705  28.870  18.231   8.031
 2748POPC   C4B36706  29.241  18.174   7.789
 2749POPC   NC336707  13.933  42.219   9.544
 2749POPC   PO436708  13.392  42.575   9.576
 2749POPC   GL136709  13.611  42.618   9.186
 2749POPC   GL236710  13.714  42.268   9.090
 2749POPC   C1A36711  13.441  42.580   8.777
 2749POPC   D2A36712  13.367  42.242   8.499
 2749POPC   C3A36713  13.567  42.369   8.121
 2749POPC   C4A36714  13.606  42.479   7.693
 2749POPC   C1B36715  14.009  42.039   8.827
 2749POPC   C2B36716  14.007  41.986   8.389
 2749POPC   C3B36717  13.967  42.089   7.948
 2749POPC   C4B36718  13.704  41.998   7.612
 2750POPC   NC336719   1.688  40.838   9.369
 2750POPC   PO436720   1.124  40.609   9.575
 2750POPC   GL136721   1.049  40.841   9.198
 2750POPC   GL236722   1.316  41.085   9.143
 2750POPC   C1A36723   1.108  40.766   8.767
 2750POPC   D2A36724   1.021  40.957   8.395
 2750POPC   C3A36725   1.245  40.846   8.056
 2750POPC   C4A36726   1.068  40.911   7.711
 2750POPC   C1B36727   1.352  41.193   8.725
 2750POPC   C2B36728   1.567  41.051   8.401
 2750POPC   C3B36729   1.695  41.225   8.010
 2750POPC   C4B36730   1.551  41.070   7.631
 2751POPC   NC336731  27.230  22.850   9.599
 2751POPC   PO436732  27.731  23.254   9.630
 2751POPC   GL136733  27.610  22.949   9.278
 2751POPC   GL236734  27.758  22.597   9.274
 2751POPC   C1A36735  27.419  22.988   8.878
 2751POPC   D2A36736  27.545  23.141   8.476
 2751POPC   C3A36737  27.421  22.906   8.094
 2751POPC   C4A36738  27.563  23.039   7.688
 2751POPC   C1B36739  27.734  22.571   8.808
 2751POPC   C2B36740  27.816  22.674   8.346
 2751POPC   C3B36741  27.813  22.617   7.871
 2751POPC   C4B36742  27.601  22.588   7.435
 2752POPC   NC336743  37.201   4.289   9.416
 2752POPC   PO436744  36.617   4.480   9.744
 2752POPC   GL136745  36.612   4.426   9.315
 2752POPC   GL236746  36.705   4.079   9.205
 2752POPC   C1A36747  36.812   4.532   8.930
 2752POPC   D2A36748  36.829   4.554   8.465
 2752POPC   C3A36749  37.173   4.372   8.221
 2752POPC   C4A36750  37.153   4.402   7.782
 2752POPC   C1B36751  36.666   4.088   8.723
 2752POPC   C2B36752  36.712   4.077   8.261
 2752POPC   C3B36753  36.733   4.118   7.792
 2752POPC   C4B36754  36.604   4.082   7.321
 2753POPC   NC336755  26.895  11.567   9.495
 2753POPC   PO436756  26.875  10.935   9.497
 2753POPC   GL136757  26.840  11.187   9.072
 2753POPC   GL236758  26.838  11.545   9.012
 2753POPC   C1A36759  26.579  11.343   8.655
 2753POPC   D2A36760  26.765  11.236   8.254
 2753POPC   C3A36761  26.787  11.457   7.868
 2753POPC   C4A36762  26.777  11.307   7.434
 2753POPC   C1B36763  27.076  11.448   8.630
 2753POPC   C2B36764  27.161  11.579   8.205
 2753POPC   C3B36765  27.268  11.796   7.830
 2753POPC   C4B36766  27.075  11.722   7.428
 2754POPC   NC336767   6.176   9.097   9.495
 2754POPC   PO436768   5.686   8.692   9.427
 2754POPC   GL136769   5.892   8.832   9.097
 2754POPC   GL236770   5.790   9.192   9.178
 2754POPC   C1A36771   5.827   8.811   8.634
 2754POPC   D2A36772   6.026   8.789   8.221
 2754POPC   C3A36773   5.789   8.711   7.853
 2754POPC   C4A36774   5.894   8.823   7.455
 2754POPC   C1B36775   6.058   9.233   8.826
 2754POPC   C2B36776   5.960   9.274   8.379
 2754POPC   C3B36777   5.884   9.210   7.914
 2754POPC   C4B36778   5.566   9.193   7.579
 2755POPC   NC336779  17.380  36.388   9.576
 2755POPC   PO436780  17.911  36.012   9.437
 2755POPC   GL136781  17.727  36.241   9.126
 2755POPC   GL236782  17.399  36.086   9.120
 2755POPC   C1A36783  17.731  36.185   8.680
 2755POPC   D2A36784  17.712  36.315   8.240
 2755POPC   C3A36785  17.781  35.947   8.015
 2755POPC   C4A36786  17.719  35.549   7.851
 2755POPC   C1B36787  17.149  36.179   8.746
 2755POPC   C2B36788  17.172  36.277   8.304
 2755POPC   C3B36789  17.298  36.147   7.888
 2755POPC   C4B36790  17.144  36.318   7.507
 2756POPC   NC336791   5.905   1.822   9.654
 2756POPC   PO436792   6.393   1.804   9.281
 2756POPC   GL136793   6.093   2.047   9.113
 2756POPC   GL236794   5.816   1.966   9.178
 2756POPC   C1A36795   6.017   1.894   8.701
 2756POPC   D2A36796   6.198   1.766   8.331
 2756POPC   C3A36797   5.972   2.015   8.075
 2756POPC   C4A36798   5.923   1.836   7.727
 2756POPC   C1B36799   5.567   2.095   8.824
 2756POPC   C2B36800   5.446   1.816   8.479
 2756POPC   C3B36801   5.541   1.695   8.073
 2756POPC   C4B36802   5.462   2.031   7.788
 2757POPC   NC336803  20.398   0.738   9.686
 2757POPC   PO436804  20.746   0.122   9.699
 2757POPC   GL136805  20.720   0.457   9.363
 2757POPC   GL236806  20.387   0.404   9.248
 2757POPC   C1A36807  20.734   0.592   8.910
 2757POPC   D2A36808  20.560   0.471   8.527
 2757POPC   C3A36809  20.702   0.603   8.144
 2757POPC   C4A36810  20.893   0.375   7.797
 2757POPC   C1B36811  20.227   0.177   8.872
 2757POPC   C2B36812  20.191   0.091   8.454
 2757POPC   C3B36813  20.350   0.249   8.089
 2757POPC   C4B36814  20.381   0.394   7.665
 2758POPC   NC336815  37.896  31.616   9.532
 2758POPC   PO436816  37.431  31.177   9.543
 2758POPC   GL136817  37.622  31.437   9.168
 2758POPC   GL236818  37.994  31.310   9.110
 2758POPC   C1A36819  37.410  31.632   8.819
 2758POPC   D2A36820  37.382  31.492   8.393
 2758POPC   C3A36821  37.741  31.491   8.163
 2758POPC   C4A36822  37.521  31.552   7.809
 2758POPC   C1B36823  37.773  31.280   8.694
 2758POPC   C2B36824  37.596  31.012   8.371
 2758POPC   C3B36825  37.741  30.962   7.970
 2758POPC   C4B36826  37.940  31.293   7.717
 2759POPC   NC336827  22.577  32.937   9.641
 2759POPC   PO436828  23.167  32.961   9.432
 2759POPC   GL136829  22.881  32.866   9.120
 2759POPC   GL236830  23.153  33.039   8.937
 2759POPC   C1A36831  22.658  33.063   8.777
 2759POPC   D2A36832  22.876  33.226   8.424
 2759POPC   C3A36833  22.699  33.450   8.100
 2759POPC   C4A36834  22.723  33.338   7.727
 2759POPC   C1B36835  23.119  32.733   8.648
 2759POPC   C2B36836  22.769  32.721   8.389
 2759POPC   C3B36837  22.750  32.900   8.012
 2759POPC   C4B36838  23.005  32.788   7.669
 2760POPC   NC336839  28.348  20.092   9.485
 2760POPC   PO436840  28.385  20.728   9.554
 2760POPC   GL136841  28.248  20.824   9.165
 2760POPC   GL236842  28.142  20.480   9.134
 2760POPC   C1A36843  28.147  20.886   8.748
 2760POPC   D2A36844  28.066  20.668   8.354
 2760POPC   C3A36845  28.268  20.908   8.009
 2760POPC   C4A36846  28.543  20.712   7.700
 2760POPC   C1B36847  28.468  20.350   8.868
 2760POPC   C2B36848  28.368  20.236   8.459
 2760POPC   C3B36849  28.464  20.402   8.084
 2760POPC   C4B36850  28.710  20.204   7.763
 2761POPC   NC336851  35.978  42.248   9.475
 2761POPC   PO436852  36.112  41.704   9.486
 2761POPC   GL136853  36.290  41.910   9.098
 2761POPC   GL236854  36.327  42.269   9.110
 2761POPC   C1A36855  36.374  42.023   8.642
 2761POPC   D2A36856  36.385  41.953   8.170
 2761POPC   C3A36857  36.409  42.257   7.824
 2761POPC   C4A36858  36.477  42.687   7.717
 2761POPC   C1B36859  35.966  42.301   8.808
 2761POPC   C2B36860  35.955  42.612   8.469
 2761POPC   C3B36861  36.099  42.634   8.054
 2761POPC   C4B36862  35.906  42.314   7.781
 2762POPC   NC336863  16.304  25.047   9.584
 2762POPC   PO436864  15.522  25.170   9.563
 2762POPC   GL136865  15.821  25.247   9.198
 2762POPC   GL236866  16.182  25.152   9.104
 2762POPC   C1A36867  15.854  25.329   8.748
 2762POPC   D2A36868  16.035  25.044   8.450
 2762POPC   C3A36869  16.109  25.187   8.049
 2762POPC   C4A36870  15.870  25.444   7.798
 2762POPC   C1B36871  15.883  24.847   8.901
 2762POPC   C2B36872  15.549  24.943   8.579
 2762POPC   C3B36873  15.641  24.847   8.136
 2762POPC   C4B36874  15.813  24.930   7.743
 2763POPC   NC336875  17.655  15.279   9.433
 2763POPC   PO436876  17.177  14.878   9.599
 2763POPC   GL136877  17.270  15.057   9.163
 2763POPC   GL236878  17.605  14.992   9.011
 2763POPC   C1A36879  17.193  15.021   8.691
 2763POPC   D2A36880  17.482  14.896   8.388
 2763POPC   C3A36881  17.390  15.023   7.961
 2763POPC   C4A36882  17.545  15.039   7.551
 2763POPC   C1B36883  17.548  15.369   8.767
 2763POPC   C2B36884  17.402  15.430   8.340
 2763POPC   C3B36885  17.667  15.443   7.967
 2763POPC   C4B36886  18.052  15.542   7.733
 2764POPC   NC336887  42.738  23.461   9.339
 2764POPC   PO436888  43.148  23.969   9.715
 2764POPC   GL136889  43.266  23.974   9.219
 2764POPC   GL236890  43.208  23.632   9.097
 2764POPC   C1A36891  43.089  23.973   8.760
 2764POPC   D2A36892  43.219  23.724   8.414
 2764POPC   C3A36893  43.085  23.963   8.085
 2764POPC   C4A36894  42.929  23.884   7.709
 2764POPC   C1B36895  42.952  23.459   8.745
 2764POPC   C2B36896  42.915  23.260   8.362
 2764POPC   C3B36897  42.997  23.464   8.006
 2764POPC   C4B36898  43.340  23.466   7.746
 2765POPC   NC336899  19.994  29.469   9.603
 2765POPC   PO436900  19.547  29.065   9.537
 2765POPC   GL136901  19.837  28.982   9.185
 2765POPC   GL236902  19.973  29.324   9.124
 2765POPC   C1A36903  19.977  28.733   8.814
 2765POPC   D2A36904  19.976  28.960   8.430
 2765POPC   C3A36905  19.894  28.882   8.023
 2765POPC   C4A36906  19.928  28.747   7.637
 2765POPC   C1B36907  19.798  29.329   8.714
 2765POPC   C2B36908  19.909  29.439   8.273
 2765POPC   C3B36909  19.896  29.359   7.834
 2765POPC   C4B36910  19.689  29.423   7.447
 2766POPC   NC336911   1.185  44.152   9.535
 2766POPC   PO436912   1.632  43.715   9.312
 2766POPC   GL136913   1.225  43.870   9.086
 2766POPC   GL236914   0.931  44.153   9.105
 2766POPC   C1A36915   1.314  43.779   8.673
 2766POPC   D2A36916   1.445  43.590   8.289
 2766POPC   C3A36917   1.215  43.708   7.947
 2766POPC   C4A36918   1.204  43.905   7.539
 2766POPC   C1B36919   1.086  44.257   8.723
 2766POPC   C2B36920   1.111  44.063   8.319
 2766POPC   C3B36921   1.301  44.202   7.974
 2766POPC   C4B36922   0.964  44.300   7.747
 2767POPC   NC336923  34.110  27.631   9.589
 2767POPC   PO436924  34.051  26.992   9.572
 2767POPC   GL136925  33.938  27.300   9.211
 2767POPC   GL236926  34.195  27.545   9.106
 2767POPC   C1A36927  33.784  27.558   8.804
 2767POPC   D2A36928  33.596  27.591   8.367
 2767POPC   C3A36929  33.746  27.753   7.967
 2767POPC   C4A36930  33.466  27.485   7.711
 2767POPC   C1B36931  34.218  27.266   8.779
 2767POPC   C2B36932  34.177  27.466   8.410
 2767POPC   C3B36933  33.966  27.332   8.070
 2767POPC   C4B36934  33.950  27.367   7.659
 2768POPC   NC336935  38.539   1.411   9.442
 2768POPC   PO436936  38.786   0.786   9.460
 2768POPC   GL136937  38.582   1.021   9.112
 2768POPC   GL236938  38.226   1.102   9.212
 2768POPC   C1A36939  38.587   1.377   8.789
 2768POPC   D2A36940  38.716   1.432   8.366
 2768POPC   C3A36941  38.378   1.486   8.057
 2768POPC   C4A36942  38.674   1.297   7.808
 2768POPC   C1B36943  38.180   1.044   8.795
 2768POPC   C2B36944  38.314   1.117   8.419
 2768POPC   C3B36945  38.327   0.982   8.032
 2768POPC   C4B36946  38.607   0.737   7.880
 2769POPC   NC336947  42.554   4.551   9.255
 2769POPC   PO436948  43.249   4.571   9.526
 2769POPC   GL136949  43.094   4.390   9.124
 2769POPC   GL236950  42.987   4.044   9.048
 2769POPC   C1A36951  43.304   4.320   8.721
 2769POPC   D2A36952  43.455   4.319   8.310
 2769POPC   C3A36953  43.162   4.499   7.978
 2769POPC   C4A36954  42.750   4.349   7.823
 2769POPC   C1B36955  42.813   4.181   8.680
 2769POPC   C2B36956  42.959   4.098   8.248
 2769POPC   C3B36957  42.891   3.869   7.855
 2769POPC   C4B36958  42.766   3.996   7.443
 2770POPC   NC336959   3.461  27.209   9.528
 2770POPC   PO436960   3.934  27.617   9.739
 2770POPC   GL136961   3.728  27.627   9.331
 2770POPC   GL236962   3.927  27.385   9.224
 2770POPC   C1A36963   3.555  27.735   8.895
 2770POPC   D2A36964   3.289  27.863   8.511
 2770POPC   C3A36965   3.498  27.782   8.093
 2770POPC   C4A36966   3.462  27.819   7.639
 2770POPC   C1B36967   3.886  27.281   8.787
 2770POPC   C2B36968   3.590  27.389   8.454
 2770POPC   C3B36969   3.404  27.253   8.061
 2770POPC   C4B36970   3.493  27.289   7.629
 2771POPC   NC336971  11.923  18.854   9.505
 2771POPC   PO436972  11.342  19.286   9.571
 2771POPC   GL136973  11.667  19.282   9.201
 2771POPC   GL236974  11.942  19.054   9.045
 2771POPC   C1A36975  11.758  19.404   8.748
 2771POPC   D2A36976  12.006  19.571   8.404
 2771POPC   C3A36977  11.933  19.287   8.116
 2771POPC   C4A36978  12.075  19.172   7.753
 2771POPC   C1B36979  12.209  19.169   8.685
 2771POPC   C2B36980  12.276  18.955   8.294
 2771POPC   C3B36981  12.486  18.933   7.920
 2771POPC   C4B36982  12.428  18.978   7.439
 2772POPC   NC336983  37.504   9.768   9.347
 2772POPC   PO436984  37.949   9.246   9.312
 2772POPC   GL136985  37.724   9.489   9.004
 2772POPC   GL236986  37.791   9.897   8.933
 2772POPC   C1A36987  37.552   9.602   8.614
 2772POPC   D2A36988  37.761   9.880   8.386
 2772POPC   C3A36989  37.619   9.819   7.995
 2772POPC   C4A36990  37.887   9.764   7.626
 2772POPC   C1B36991  37.446  10.154   8.703
 2772POPC   C2B36992  37.201  10.163   8.307
 2772POPC   C3B36993  37.235  10.193   7.847
 2772POPC   C4B36994  37.400   9.923   7.553
 2773POPC   NC336995  40.244   7.140   9.528
 2773POPC   PO436996  39.853   7.714   9.605
 2773POPC   GL136997  39.942   7.431   9.211
 2773POPC   GL236998  40.204   7.246   9.042
 2773POPC   C1A36999  39.680   7.332   8.834
 2773POPC   D2A37000  39.565   7.482   8.432
 2773POPC   C3A37001  39.938   7.470   8.176
 2773POPC   C4A37002  40.029   7.399   7.766
 2773POPC   C1B37003  40.153   7.340   8.622
 2773POPC   C2B37004  40.247   7.032   8.334
 2773POPC   C3B37005  40.343   6.838   7.976
 2773POPC   C4B37006  40.315   6.995   7.606
 2774POPC   NC337007  21.174   4.874   9.432
 2774POPC   PO437008  21.540   5.458   9.441
 2774POPC   GL137009  21.652   5.118   9.101
 2774POPC   GL237010  21.386   4.863   8.974
 2774POPC   C1A37011  21.605   5.104   8.619
 2774POPC   D2A37012  21.337   5.293   8.352
 2774POPC   C3A37013  21.480   5.258   7.948
 2774POPC   C4A37014  21.172   5.082   7.683
 2774POPC   C1B37015  21.158   4.778   8.595
 2774POPC   C2B37016  21.174   4.791   8.139
 2774POPC   C3B37017  21.259   4.586   7.719
 2774POPC   C4B37018  21.615   4.756   7.509
 2775POPC   NC337019   1.065  29.889   9.566
 2775POPC   PO437020   1.632  30.282   9.375
 2775POPC   GL137021   1.253  30.097   9.125
 2775POPC   GL237022   1.075  29.740   9.092
 2775POPC   C1A37023   1.175  30.026   8.678
 2775POPC   D2A37024   1.420  29.801   8.375
 2775POPC   C3A37025   1.341  29.894   7.963
 2775POPC   C4A37026   1.486  30.203   7.655
 2775POPC   C1B37027   0.821  29.568   8.746
 2775POPC   C2B37028   0.941  29.529   8.289
 2775POPC   C3B37029   1.011  29.521   7.824
 2775POPC   C4B37030   0.877  29.600   7.407
 2776POPC   NC337031   3.469   8.469   9.432
 2776POPC   PO437032   3.631   7.781   9.332
 2776POPC   GL137033   3.472   8.115   9.045
 2776POPC   GL237034   3.196   8.346   9.023
 2776POPC   C1A37035   3.369   8.122   8.606
 2776POPC   D2A37036   3.603   7.951   8.265
 2776POPC   C3A37037   3.486   8.109   7.900
 2776POPC   C4A37038   3.756   8.108   7.583
 2776POPC   C1B37039   3.064   8.603   8.704
 2776POPC   C2B37040   3.013   8.620   8.272
 2776POPC   C3B37041   3.188   8.649   7.882
 2776POPC   C4B37042   3.343   8.417   7.523
 2777POPC   NC337043   2.602  39.558   9.466
 2777POPC   PO437044   3.074  39.214   9.567
 2777POPC   GL137045   2.981  39.363   9.157
 2777POPC   GL237046   2.713  39.146   9.138
 2777POPC   C1A37047   2.838  39.359   8.704
 2777POPC   D2A37048   3.044  39.248   8.359
 2777POPC   C3A37049   2.823  39.185   8.033
 2777POPC   C4A37050   2.804  39.327   7.665
 2777POPC   C1B37051   2.508  38.947   8.805
 2777POPC   C2B37052   2.361  38.947   8.377
 2777POPC   C3B37053   2.520  38.776   8.002
 2777POPC   C4B37054   2.576  38.876   7.589
 2778POPC   NC337055   0.969  33.154   9.572
 2778POPC   PO437056   1.640  32.898   9.511
 2778POPC   GL137057   1.490  32.809   9.140
 2778POPC   GL237058   1.127  32.901   9.144
 2778POPC   C1A37059   1.487  33.096   8.830
 2778POPC   D2A37060   1.290  33.297   8.505
 2778POPC   C3A37061   1.466  33.281   8.107
 2778POPC   C4A37062   1.411  33.047   7.771
 2778POPC   C1B37063   0.924  32.907   8.722
 2778POPC   C2B37064   0.926  33.019   8.276
 2778POPC   C3B37065   0.925  32.861   7.857
 2778POPC   C4B37066   0.790  33.068   7.480
 2779POPC   NC337067   6.708   6.647   9.509
 2779POPC   PO437068   6.046   6.483   9.458
 2779POPC   GL137069   6.353   6.534   9.133
 2779POPC   GL237070   6.693   6.358   9.071
 2779POPC   C1A37071   6.428   6.613   8.714
 2779POPC   D2A37072   6.513   6.535   8.309
 2779POPC   C3A37073   6.331   6.775   8.020
 2779POPC   C4A37074   6.362   6.475   7.776
 2779POPC   C1B37075   6.921   6.478   8.670
 2779POPC   C2B37076   6.932   6.788   8.315
 2779POPC   C3B37077   6.833   6.730   7.856
 2779POPC   C4B37078   6.929   6.911   7.434
 2780POPC   NC337079   0.740  20.610   9.514
 2780POPC   PO437080   0.090  20.802   9.571
 2780POPC   GL137081   0.274  20.549   9.280
 2780POPC   GL237082   0.432  20.857   9.167
 2780POPC   C1A37083   0.482  20.407   8.897
 2780POPC   D2A37084   0.683  20.622   8.566
 2780POPC   C3A37085   0.518  20.607   8.163
 2780POPC   C4A37086   0.401  20.644   7.750
 2780POPC   C1B37087   0.143  20.772   8.834
 2780POPC   C2B37088   0.147  20.894   8.424
 2780POPC   C3B37089   0.106  20.985   7.985
 2780POPC   C4B37090  44.955  20.885   7.598
 2781POPC   NC337091   2.988  43.282   9.395
 2781POPC   PO437092   2.467  42.932   9.610
 2781POPC   GL137093   2.657  42.998   9.139
 2781POPC   GL237094   2.932  42.909   9.003
 2781POPC   C1A37095   2.542  43.041   8.696
 2781POPC   D2A37096   2.517  42.806   8.298
 2781POPC   C3A37097   2.744  43.009   7.943
 2781POPC   C4A37098   2.565  43.253   7.597
 2781POPC   C1B37099   2.915  42.630   8.637
 2781POPC   C2B37100   3.130  42.562   8.243
 2781POPC   C3B37101   3.207  42.699   7.809
 2781POPC   C4B37102   3.041  43.016   7.517
 2782POPC   NC337103  40.152   6.338   9.323
 2782POPC   PO437104  39.997   5.757   9.652
 2782POPC   GL137105  39.839   5.647   9.231
 2782POPC   GL237106  39.793   5.984   9.167
 2782POPC   C1A37107  39.989   5.735   8.780
 2782POPC   D2A37108  40.114   5.979   8.405
 2782POPC   C3A37109  40.045   5.889   7.960
 2782POPC   C4A37110  40.349   6.030   7.643
 2782POPC   C1B37111  39.580   6.064   8.831
 2782POPC   C2B37112  39.608   5.880   8.454
 2782POPC   C3B37113  39.671   6.154   8.177
 2782POPC   C4B37114  39.547   6.150   7.785
 2783POPC   NC337115  31.501  23.413   9.411
 2783POPC   PO437116  31.162  24.047   9.588
 2783POPC   GL137117  31.112  23.772   9.175
 2783POPC   GL237118  31.466  23.715   9.015
 2783POPC   C1A37119  31.096  23.672   8.698
 2783POPC   D2A37120  31.430  23.808   8.451
 2783POPC   C3A37121  31.390  23.709   8.027
 2783POPC   C4A37122  31.526  23.844   7.653
 2783POPC   C1B37123  31.688  23.404   8.741
 2783POPC   C2B37124  31.676  23.363   8.297
 2783POPC   C3B37125  31.894  23.584   7.989
 2783POPC   C4B37126  31.801  23.440   7.624
 2784POPC   NC337127   4.000  34.700   9.541
 2784POPC   PO437128   4.669  34.854   9.669
 2784POPC   GL137129   4.444  34.766   9.252
 2784POPC   GL237130   4.348  34.398   9.252
 2784POPC   C1A37131   4.092  34.743   8.898
 2784POPC   D2A37132   3.849  34.813   8.483
 2784POPC   C3A37133   4.059  34.679   8.083
 2784POPC   C4A37134   4.327  34.743   7.730
 2784POPC   C1B37135   4.218  34.233   8.841
 2784POPC   C2B37136   4.413  34.143   8.441
 2784POPC   C3B37137   4.446  34.331   8.042
 2784POPC   C4B37138   4.163  34.271   7.706
 2785POPC   NC337139  25.739   0.631   9.482
 2785POPC   PO437140  26.282   0.237   9.536
 2785POPC   GL137141  26.071   0.307   9.156
 2785POPC   GL237142  25.727   0.378   9.045
 2785POPC   C1A37143  26.169   0.450   8.753
 2785POPC   D2A37144  25.939   0.352   8.404
 2785POPC   C3A37145  26.154   0.206   8.054
 2785POPC   C4A37146  26.260   0.471   7.731
 2785POPC   C1B37147  25.717   0.710   8.787
 2785POPC   C2B37148  25.967   0.876   8.457
 2785POPC   C3B37149  25.989   0.731   8.063
 2785POPC   C4B37150  25.731   0.782   7.713
 2786POPC   NC337151  33.493   1.940   9.528
 2786POPC   PO437152  33.984   2.137   9.786
 2786POPC   GL137153  33.907   2.015   9.249
 2786POPC   GL237154  33.555   2.001   9.036
 2786POPC   C1A37155  33.943   2.211   8.792
 2786POPC   D2A37156  33.660   2.297   8.424
 2786POPC   C3A37157  33.658   2.230   7.978
 2786POPC   C4A37158  33.767   2.485   7.618
 2786POPC   C1B37159  33.263   1.893   8.669
 2786POPC   C2B37160  33.226   1.835   8.226
 2786POPC   C3B37161  33.272   1.927   7.803
 2786POPC   C4B37162  33.633   1.916   7.540
 2787POPC   NC337163   0.577  28.504   9.496
 2787POPC   PO437164   0.546  27.837   9.618
 2787POPC   GL137165   0.387  28.102   9.230
 2787POPC   GL237166   0.112  28.368   9.337
 2787POPC   C1A37167   0.621  28.355   8.852
 2787POPC   D2A37168   0.853  28.333   8.428
 2787POPC   C3A37169   0.571  28.381   8.078
 2787POPC   C4A37170   0.399  28.069   7.800
 2787POPC   C1B37171   0.137  28.535   8.911
 2787POPC   C2B37172   0.154  28.405   8.482
 2787POPC   C3B37173   0.087  28.584   8.090
 2787POPC   C4B37174   0.223  28.583   7.688
 2788POPC   NC337175  30.078  27.632   9.458
 2788POPC   PO437176  29.464  27.525   9.245
 2788POPC   GL137177  29.767  27.467   8.958
 2788POPC   GL237178  30.107  27.366   9.032
 2788POPC   C1A37179  29.833  27.424   8.543
 2788POPC   D2A37180  29.916  27.121   8.245
 2788POPC   C3A37181  29.969  27.436   7.958
 2788POPC   C4A37182  30.267  27.698   7.775
 2788POPC   C1B37183  30.185  27.731   8.795
 2788POPC   C2B37184  29.895  27.992   8.560
 2788POPC   C3B37185  29.977  27.980   8.133
 2788POPC   C4B37186  29.733  27.881   7.799
 2789POPC   NC337187  10.069  44.434   9.852
 2789POPC   PO437188   9.725   0.015   9.509
 2789POPC   GL137189   9.791  44.745   9.125
 2789POPC   GL237190   9.802  44.386   8.999
 2789POPC   C1A37191  10.027  44.756   8.736
 2789POPC   D2A37192  10.043  44.993   8.382
 2789POPC   C3A37193   9.990  44.732   8.057
 2789POPC   C4A37194   9.945  44.536   7.661
 2789POPC   C1B37195   9.477  44.484   8.745
 2789POPC   C2B37196   9.633  44.608   8.393
 2789POPC   C3B37197   9.564  44.421   8.042
 2789POPC   C4B37198   9.380  44.492   7.697
 2790POPC   NC337199  10.449  13.620   9.490
 2790POPC   PO437200  11.130  13.304   9.490
 2790POPC   GL137201  10.864  13.528   9.205
 2790POPC   GL237202  10.865  13.894   9.199
 2790POPC   C1A37203  10.627  13.513   8.829
 2790POPC   D2A37204  10.495  13.281   8.453
 2790POPC   C3A37205  10.279  13.406   8.133
 2790POPC   C4A37206  10.341  13.538   7.731
 2790POPC   C1B37207  10.809  14.001   8.760
 2790POPC   C2B37208  10.702  13.779   8.365
 2790POPC   C3B37209  10.781  13.534   8.000
 2790POPC   C4B37210  10.821  13.633   7.560
 2791POPC   NC337211  42.245  16.969   9.599
 2791POPC   PO437212  42.542  16.340   9.508
 2791POPC   GL137213  42.329  16.519   9.189
 2791POPC   GL237214  42.370  16.851   9.136
 2791POPC   C1A37215  42.406  16.521   8.762
 2791POPC   D2A37216  42.274  16.694   8.368
 2791POPC   C3A37217  42.288  16.444   8.010
 2791POPC   C4A37218  42.301  16.374   7.606
 2791POPC   C1B37219  42.492  17.006   8.746
 2791POPC   C2B37220  42.719  16.936   8.376
 2791POPC   C3B37221  42.756  16.626   8.084
 2791POPC   C4B37222  42.553  16.820   7.746
 2792POPC   NC337223  43.767  44.206   9.922
 2792POPC   PO437224  44.030  43.706   9.465
 2792POPC   GL137225  43.898  43.867   9.069
 2792POPC   GL237226  43.973  44.198   9.071
 2792POPC   C1A37227  43.708  43.778   8.695
 2792POPC   D2A37228  43.918  43.767   8.334
 2792POPC   C3A37229  43.815  43.542   7.960
 2792POPC   C4A37230  43.860  43.803   7.608
 2792POPC   C1B37231  43.932  44.285   8.632
 2792POPC   C2B37232  44.035  44.278   8.241
 2792POPC   C3B37233  43.962  44.333   7.835
 2792POPC   C4B37234  43.614  44.231   7.618
 2793POPC   NC337235  22.904  18.628   9.436
 2793POPC   PO437236  22.712  17.993   9.683
 2793POPC   GL137237  22.858  17.908   9.272
 2793POPC   GL237238  22.700  18.197   9.155
 2793POPC   C1A37239  22.986  17.915   8.821
 2793POPC   D2A37240  23.095  18.140   8.444
 2793POPC   C3A37241  22.905  18.284   8.120
 2793POPC   C4A37242  23.089  18.338   7.740
 2793POPC   C1B37243  22.890  18.439   8.801
 2793POPC   C2B37244  22.917  18.694   8.437
 2793POPC   C3B37245  22.982  18.779   8.003
 2793POPC   C4B37246  22.669  18.610   7.746
 2794POPC   NC337247   0.624  22.766   9.742
 2794POPC   PO437248   0.028  22.826   9.581
 2794POPC   GL137249   0.406  22.764   9.260
 2794POPC   GL237250   0.793  22.656   9.266
 2794POPC   C1A37251   0.496  23.001   8.880
 2794POPC   D2A37252   0.250  23.074   8.503
 2794POPC   C3A37253   0.444  22.946   8.138
 2794POPC   C4A37254   0.322  22.788   7.724
 2794POPC   C1B37255   0.950  22.728   8.870
 2794POPC   C2B37256   0.877  22.965   8.506
 2794POPC   C3B37257   0.928  22.762   8.131
 2794POPC   C4B37258   0.824  22.700   7.734
 2795POPC   NC337259  34.384  15.333   9.702
 2795POPC   PO437260  34.472  14.716   9.398
 2795POPC   GL137261  34.549  14.804   8.995
 2795POPC   GL237262  34.436  15.100   9.045
 2795POPC   C1A37263  34.797  15.059   8.705
 2795POPC   D2A37264  34.742  15.369   8.388
 2795POPC   C3A37265  34.743  15.121   8.051
 2795POPC   C4A37266  34.705  14.714   7.955
 2795POPC   C1B37267  34.293  15.369   8.695
 2795POPC   C2B37268  34.265  15.562   8.293
 2795POPC   C3B37269  34.302  15.352   7.912
 2795POPC   C4B37270  34.230  14.896   7.882
 2796POPC   NC337271   7.122  16.258   9.490
 2796POPC   PO437272   6.550  16.004   9.733
 2796POPC   GL137273   6.581  15.954   9.301
 2796POPC   GL237274   6.419  16.248   9.270
 2796POPC   C1A37275   6.781  15.882   8.892
 2796POPC   D2A37276   6.638  15.805   8.475
 2796POPC   C3A37277   6.854  15.941   8.153
 2796POPC   C4A37278   6.788  15.854   7.763
 2796POPC   C1B37279   6.759  16.377   8.954
 2796POPC   C2B37280   6.827  16.318   8.525
 2796POPC   C3B37281   6.655  16.442   8.158
 2796POPC   C4B37282   6.724  16.341   7.773
 2797POPC   NC337283  28.105  14.321   9.391
 2797POPC   PO437284  28.780  14.105   9.503
 2797POPC   GL137285  28.554  14.215   9.128
 2797POPC   GL237286  28.444  14.543   9.097
 2797POPC   C1A37287  28.304  14.261   8.720
 2797POPC   D2A37288  28.100  14.150   8.329
 2797POPC   C3A37289  28.309  14.297   7.941
 2797POPC   C4A37290  28.313  14.075   7.554
 2797POPC   C1B37291  28.090  14.740   8.821
 2797POPC   C2B37292  28.201  14.931   8.423
 2797POPC   C3B37293  28.170  14.809   7.967
 2797POPC   C4B37294  28.409  14.937   7.587
 2798POPC   NC337295   4.787  35.205   9.370
 2798POPC   PO437296   4.074  35.477   9.332
 2798POPC   GL137297   4.391  35.337   9.075
 2798POPC   GL237298   4.620  35.623   9.103
 2798POPC   C1A37299   4.360  35.127   8.666
 2798POPC   D2A37300   4.206  35.381   8.325
 2798POPC   C3A37301   4.179  35.171   7.950
 2798POPC   C4A37302   4.383  35.232   7.549
 2798POPC   C1B37303   4.661  35.523   8.659
 2798POPC   C2B37304   4.705  35.337   8.278
 2798POPC   C3B37305   4.507  35.554   7.931
 2798POPC   C4B37306   4.711  35.730   7.569
 2799POPC   NC337307  31.218  22.863   9.468
 2799POPC   PO437308  31.861  23.176   9.578
 2799POPC   GL137309  31.625  23.024   9.102
 2799POPC   GL237310  31.394  22.718   9.031
 2799POPC   C1A37311  31.497  22.934   8.599
 2799POPC   D2A37312  31.583  22.753   8.142
 2799POPC   C3A37313  31.500  23.079   7.855
 2799POPC   C4A37314  31.131  23.276   7.963
 2799POPC   C1B37315  31.089  22.591   8.722
 2799POPC   C2B37316  31.050  22.765   8.299
 2799POPC   C3B37317  31.145  22.683   7.853
 2799POPC   C4B37318  31.479  22.659   7.554
 2800POPC   NC337319  17.559  16.068   9.656
 2800POPC   PO437320  17.244  15.528   9.470
 2800POPC   GL137321  17.458  15.812   9.179
 2800POPC   GL237322  17.379  16.178   9.191
 2800POPC   C1A37323  17.611  15.871   8.760
 2800POPC   D2A37324  17.825  15.770   8.398
 2800POPC   C3A37325  17.683  15.978   8.045
 2800POPC   C4A37326  17.648  15.830   7.649
 2800POPC   C1B37327  17.750  16.297   8.969
 2800POPC   C2B37328  17.672  16.310   8.475
 2800POPC   C3B37329  17.868  16.456   8.066
 2800POPC   C4B37330  17.993  16.213   7.673
 2801POPC   NC337331  10.189  26.925   9.352
 2801POPC   PO437332  10.767  26.997   9.631
 2801POPC   GL137333  10.677  26.686   9.298
 2801POPC   GL237334  10.599  26.953   9.067
 2801POPC   C1A37335  10.495  26.478   8.912
 2801POPC   D2A37336  10.531  26.748   8.535
 2801POPC   C3A37337  10.512  26.614   8.100
 2801POPC   C4A37338  10.526  26.753   7.688
 2801POPC   C1B37339  10.871  27.080   8.782
 2801POPC   C2B37340  10.736  27.236   8.411
 2801POPC   C3B37341  10.724  27.098   8.011
 2801POPC   C4B37342  10.830  27.153   7.577
 2802POPC   NC337343   9.548  29.508   9.406
 2802POPC   PO437344   9.994  29.016   9.483
 2802POPC   GL137345   9.818  29.180   9.101
 2802POPC   GL237346   9.971  29.507   9.076
 2802POPC   C1A37347   9.675  29.146   8.675
 2802POPC   D2A37348   9.813  28.907   8.318
 2802POPC   C3A37349   9.608  29.036   7.976
 2802POPC   C4A37350   9.609  29.096   7.565
 2802POPC   C1B37351  10.020  29.516   8.602
 2802POPC   C2B37352   9.784  29.453   8.239
 2802POPC   C3B37353   9.933  29.398   7.836
 2802POPC   C4B37354  10.253  29.555   7.570
 2803POPC   NC337355  20.490  20.655   9.453
 2803POPC   PO437356  21.118  20.248   9.529
 2803POPC   GL137357  20.913  20.519   9.191
 2803POPC   GL237358  20.810  20.912   9.139
 2803POPC   C1A37359  20.663  20.532   8.815
 2803POPC   D2A37360  20.952  20.624   8.501
 2803POPC   C3A37361  20.928  20.513   8.080
 2803POPC   C4A37362  20.758  20.732   7.731
 2803POPC   C1B37363  20.463  20.988   8.799
 2803POPC   C2B37364  20.452  20.755   8.391
 2803POPC   C3B37365  20.356  20.938   7.995
 2803POPC   C4B37366  20.535  21.193   7.647
 2804POPC   NC337367  38.561   3.906   9.736
 2804POPC   PO437368  38.122   3.498   9.525
 2804POPC   GL137369  38.426   3.501   9.184
 2804POPC   GL237370  38.722   3.766   9.244
 2804POPC   C1A37371  38.320   3.332   8.746
 2804POPC   D2A37372  38.189   3.036   8.428
 2804POPC   C3A37373  38.078   3.147   8.021
 2804POPC   C4A37374  38.322   3.404   7.757
 2804POPC   C1B37375  38.716   3.655   8.802
 2804POPC   C2B37376  38.454   3.742   8.428
 2804POPC   C3B37377  38.628   3.726   8.025
 2804POPC   C4B37378  38.830   3.399   7.849
 2805POPC   NC337379  11.187  16.552   9.650
 2805POPC   PO437380  11.571  17.066   9.371
 2805POPC   GL137381  11.359  16.743   9.151
 2805POPC   GL237382  11.577  16.581   8.905
 2805POPC   C1A37383  11.130  16.780   8.753
 2805POPC   D2A37384  11.370  16.697   8.379
 2805POPC   C3A37385  11.127  16.653   8.046
 2805POPC   C4A37386  10.965  16.551   7.653
 2805POPC   C1B37387  11.608  17.002   8.714
 2805POPC   C2B37388  11.852  17.102   8.377
 2805POPC   C3B37389  11.666  16.990   8.010
 2805POPC   C4B37390  11.368  16.897   7.683
 2806POPC   NC337391  12.431  34.060   9.515
 2806POPC   PO437392  13.121  33.972   9.568
 2806POPC   GL137393  12.804  33.895   9.183
 2806POPC   GL237394  12.666  33.568   9.082
 2806POPC   C1A37395  12.653  33.936   8.739
 2806POPC   D2A37396  12.766  33.876   8.304
 2806POPC   C3A37397  12.881  34.054   7.918
 2806POPC   C4A37398  12.938  33.968   7.476
 2806POPC   C1B37399  13.020  33.558   8.789
 2806POPC   C2B37400  13.092  33.495   8.358
 2806POPC   C3B37401  12.845  33.490   7.986
 2806POPC   C4B37402  12.739  33.510   7.541
 2807POPC   NC337403  19.544  12.238   9.439
 2807POPC   PO437404  20.110  11.926   9.542
 2807POPC   GL137405  19.984  12.136   9.191
 2807POPC   GL237406  20.147  11.959   9.012
 2807POPC   C1A37407  19.760  12.257   8.775
 2807POPC   D2A37408  19.705  12.207   8.346
 2807POPC   C3A37409  19.771  12.316   7.906
 2807POPC   C4A37410  20.095  12.301   7.603
 2807POPC   C1B37411  19.747  11.773   8.892
 2807POPC   C2B37412  19.842  11.736   8.451
 2807POPC   C3B37413  19.856  11.829   8.028
 2807POPC   C4B37414  19.968  11.782   7.643
 2808POPC   NC337415  27.932  11.911   9.486
 2808POPC   PO437416  28.670  12.017   9.544
 2808POPC   GL137417  28.729  12.064   9.121
 2808POPC   GL237418  28.491  11.803   9.127
 2808POPC   C1A37419  28.550  12.055   8.683
 2808POPC   D2A37420  28.163  11.917   8.445
 2808POPC   C3A37421  28.206  12.038   8.041
 2808POPC   C4A37422  28.241  12.289   7.685
 2808POPC   C1B37423  28.289  11.632   8.843
 2808POPC   C2B37424  28.500  11.491   8.496
 2808POPC   C3B37425  28.558  11.636   8.099
 2808POPC   C4B37426  28.503  11.814   7.715
 2809POPC   NC337427   9.519  26.273   9.267
 2809POPC   PO437428   9.924  25.730   9.463
 2809POPC   GL137429   9.850  25.916   9.075
 2809POPC   GL237430  10.026  26.223   8.964
 2809POPC   C1A37431   9.511  25.806   8.802
 2809POPC   D2A37432   9.457  25.911   8.395
 2809POPC   C3A37433   9.840  25.999   8.194
 2809POPC   C4A37434   9.994  25.939   7.768
 2809POPC   C1B37435   9.724  26.282   8.639
 2809POPC   C2B37436   9.536  26.424   8.266
 2809POPC   C3B37437   9.703  26.364   7.862
 2809POPC   C4B37438  10.147  26.412   7.713
 2810POPC   NC337439  17.267  10.664   9.594
 2810POPC   PO437440  18.005  10.688   9.674
 2810POPC   GL137441  17.816  10.653   9.238
 2810POPC   GL237442  17.675  10.320   9.185
 2810POPC   C1A37443  17.504  10.730   8.883
 2810POPC   D2A37444  17.472  10.777   8.422
 2810POPC   C3A37445  17.276  10.573   8.007
 2810POPC   C4A37446  17.048  10.174   7.947
 2810POPC   C1B37447  17.581  10.225   8.760
 2810POPC   C2B37448  17.406  10.245   8.362
 2810POPC   C3B37449  17.610  10.196   7.967
 2810POPC   C4B37450  17.731  10.563   7.690
 2811POPC   NC337451   0.017  43.111   9.514
 2811POPC   PO437452  44.500  43.402   9.802
 2811POPC   GL137453  44.541  43.384   9.271
 2811POPC   GL237454  44.875  43.322   9.091
 2811POPC   C1A37455  44.489  43.153   8.841
 2811POPC   D2A37456  44.700  43.150   8.451
 2811POPC   C3A37457  44.490  42.925   8.109
 2811POPC   C4A37458  44.346  42.940   7.671
 2811POPC   C1B37459  44.984  42.935   8.831
 2811POPC   C2B37460   0.159  42.895   8.398
 2811POPC   C3B37461   0.075  43.215   8.116
 2811POPC   C4B37462  44.780  43.235   7.783
 2812POPC   NC337463  11.677   6.020   9.410
 2812POPC   PO437464  12.368   5.885   9.436
 2812POPC   GL137465  12.089   5.798   9.135
 2812POPC   GL237466  12.065   6.158   9.050
 2812POPC   C1A37467  11.950   5.759   8.719
 2812POPC   D2A37468  11.991   6.050   8.372
 2812POPC   C3A37469  12.046   5.842   7.988
 2812POPC   C4A37470  12.053   5.505   7.686
 2812POPC   C1B37471  12.394   6.043   8.717
 2812POPC   C2B37472  12.493   6.017   8.254
 2812POPC   C3B37473  12.443   6.087   7.791
 2812POPC   C4B37474  12.190   6.031   7.424
 2813POPC   NC337475  44.994  24.823   9.448
 2813POPC   PO437476  44.400  24.575   9.622
 2813POPC   GL137477  44.588  24.425   9.263
 2813POPC   GL237478  44.661  24.721   9.074
 2813POPC   C1A37479  44.449  24.311   8.858
 2813POPC   D2A37480  44.531  24.639   8.574
 2813POPC   C3A37481  44.678  24.547   8.186
 2813POPC   C4A37482  44.516  24.451   7.773
 2813POPC   C1B37483  44.876  24.996   8.814
 2813POPC   C2B37484   0.043  24.874   8.472
 2813POPC   C3B37485  44.953  24.983   8.108
 2813POPC   C4B37486  44.925  24.756   7.777
 2814POPC   NC337487  42.126  20.176   9.552
 2814POPC   PO437488  42.438  19.567   9.384
 2814POPC   GL137489  42.408  19.939   9.174
 2814POPC   GL237490  42.746  20.102   9.174
 2814POPC   C1A37491  42.281  19.889   8.760
 2814POPC   D2A37492  42.171  20.081   8.409
 2814POPC   C3A37493  42.169  19.793   8.081
 2814POPC   C4A37494  42.076  19.968   7.723
 2814POPC   C1B37495  42.785  19.806   8.812
 2814POPC   C2B37496  42.617  19.559   8.479
 2814POPC   C3B37497  42.685  19.736   8.086
 2814POPC   C4B37498  42.563  19.831   7.700
 2815POPC   NC337499  20.133  10.745   9.556
 2815POPC   PO437500  19.580  10.386   9.814
 2815POPC   GL137501  19.675  10.514   9.345
 2815POPC   GL237502  19.997  10.383   9.189
 2815POPC   C1A37503  19.613  10.436   8.864
 2815POPC   D2A37504  19.759  10.289   8.435
 2815POPC   C3A37505  19.632  10.528   8.054
 2815POPC   C4A37506  19.665  10.918   7.807
 2815POPC   C1B37507  20.117  10.626   8.802
 2815POPC   C2B37508  20.002  10.804   8.385
 2815POPC   C3B37509  20.114  10.699   7.957
 2815POPC   C4B37510  19.981  10.324   7.687
 2816POPC   NC337511  24.797  21.529   9.579
 2816POPC   PO437512  25.419  21.230   9.432
 2816POPC   GL137513  25.052  21.254   9.176
 2816POPC   GL237514  25.071  21.613   9.153
 2816POPC   C1A37515  25.179  21.259   8.746
 2816POPC   D2A37516  25.535  21.374   8.475
 2816POPC   C3A37517  25.429  21.356   8.032
 2816POPC   C4A37518  25.228  21.104   7.679
 2816POPC   C1B37519  24.991  21.730   8.737
 2816POPC   C2B37520  25.046  21.593   8.311
 2816POPC   C3B37521  24.922  21.441   7.907
 2816POPC   C4B37522  24.870  21.486   7.461
 2817POPC   NC337523   5.497  16.704   9.355
 2817POPC   PO437524   6.057  16.462   9.704
 2817POPC   GL137525   5.929  16.449   9.225
 2817POPC   GL237526   5.908  16.815   9.087
 2817POPC   C1A37527   5.791  16.480   8.728
 2817POPC   D2A37528   5.777  16.702   8.286
 2817POPC   C3A37529   5.688  16.513   7.850
 2817POPC   C4A37530   5.839  16.616   7.415
 2817POPC   C1B37531   5.757  17.043   8.707
 2817POPC   C2B37532   5.545  17.175   8.333
 2817POPC   C3B37533   5.654  17.098   7.929
 2817POPC   C4B37534   6.019  16.897   7.802
 2818POPC   NC337535  20.794  17.979   9.382
 2818POPC   PO437536  20.294  18.536   9.482
 2818POPC   GL137537  20.430  18.296   9.137
 2818POPC   GL237538  20.492  18.621   9.024
 2818POPC   C1A37539  20.404  18.261   8.660
 2818POPC   D2A37540  20.600  18.111   8.261
 2818POPC   C3A37541  20.421  18.041   7.839
 2818POPC   C4A37542  20.739  17.946   7.488
 2818POPC   C1B37543  20.709  18.697   8.668
 2818POPC   C2B37544  20.599  18.627   8.249
 2818POPC   C3B37545  20.716  18.446   7.841
 2818POPC   C4B37546  20.694  18.435   7.372
 2819POPC   NC337547   5.540  37.100   9.538
 2819POPC   PO437548   5.088  36.568   9.562
 2819POPC   GL137549   5.039  36.807   9.195
 2819POPC   GL237550   5.037  37.141   9.305
 2819POPC   C1A37551   4.919  36.794   8.774
 2819POPC   D2A37552   5.076  36.596   8.449
 2819POPC   C3A37553   4.929  36.789   8.091
 2819POPC   C4A37554   5.223  36.828   7.780
 2819POPC   C1B37555   5.238  37.166   8.881
 2819POPC   C2B37556   5.217  37.160   8.410
 2819POPC   C3B37557   5.018  37.289   8.025
 2819POPC   C4B37558   4.732  37.313   7.717
 2820POPC   NC337559   4.866  19.266   9.345
 2820POPC   PO437560   5.258  18.747   9.399
 2820POPC   GL137561   5.211  18.991   9.066
 2820POPC   GL237562   5.375  19.315   9.149
 2820POPC   C1A37563   4.915  18.995   8.723
 2820POPC   D2A37564   4.853  19.068   8.300
 2820POPC   C3A37565   5.134  18.861   8.054
 2820POPC   C4A37566   5.118  18.820   7.629
 2820POPC   C1B37567   5.483  19.201   8.702
 2820POPC   C2B37568   5.563  19.228   8.259
 2820POPC   C3B37569   5.296  19.312   7.895
 2820POPC   C4B37570   4.837  19.259   7.812
 2821POPC   NC337571  27.041  37.382   9.498
 2821POPC   PO437572  26.788  36.696   9.554
 2821POPC   GL137573  26.764  36.777   9.147
 2821POPC   GL237574  26.477  37.004   9.164
 2821POPC   C1A37575  27.009  36.705   8.783
 2821POPC   D2A37576  26.959  36.915   8.418
 2821POPC   C3A37577  26.801  36.733   8.108
 2821POPC   C4A37578  26.849  36.684   7.715
 2821POPC   C1B37579  26.435  36.792   8.760
 2821POPC   C2B37580  26.397  36.932   8.372
 2821POPC   C3B37581  26.381  37.059   7.973
 2821POPC   C4B37582  26.452  36.988   7.570
 2822POPC   NC337583  18.906  28.090   9.555
 2822POPC   PO437584  18.979  28.713   9.416
 2822POPC   GL137585  19.004  28.363   9.129
 2822POPC   GL237586  19.207  28.543   8.947
 2822POPC   C1A37587  19.079  28.120   8.715
 2822POPC   D2A37588  19.351  28.094   8.325
 2822POPC   C3A37589  19.107  28.231   7.975
 2822POPC   C4A37590  18.703  28.034   7.845
 2822POPC   C1B37591  19.168  28.557   8.487
 2822POPC   C2B37592  19.178  28.745   8.108
 2822POPC   C3B37593  19.052  28.728   7.700
 2822POPC   C4B37594  18.949  28.800   7.295
 2823POPC   NC337595   7.014  32.018   9.508
 2823POPC   PO437596   7.596  32.467   9.596
 2823POPC   GL137597   7.461  32.392   9.200
 2823POPC   GL237598   7.478  32.063   9.244
 2823POPC   C1A37599   7.283  32.547   8.805
 2823POPC   D2A37600   7.457  32.650   8.397
 2823POPC   C3A37601   7.324  32.482   8.000
 2823POPC   C4A37602   7.555  32.220   7.722
 2823POPC   C1B37603   7.384  31.991   8.826
 2823POPC   C2B37604   7.246  32.172   8.431
 2823POPC   C3B37605   7.211  31.986   8.012
 2823POPC   C4B37606   7.170  31.895   7.556
 2824POPC   NC337607  24.400  39.479   9.367
 2824POPC   PO437608  24.918  38.991   9.360
 2824POPC   GL137609  24.596  39.063   9.080
 2824POPC   GL237610  24.688  39.393   8.954
 2824POPC   C1A37611  24.484  39.012   8.650
 2824POPC   D2A37612  24.793  39.098   8.341
 2824POPC   C3A37613  24.611  39.206   7.964
 2824POPC   C4A37614  24.521  39.046   7.588
 2824POPC   C1B37615  24.341  39.529   8.713
 2824POPC   C2B37616  24.377  39.473   8.314
 2824POPC   C3B37617  24.264  39.601   7.942
 2824POPC   C4B37618  24.386  39.520   7.505
 2825POPC   NC337619  14.857  36.122   9.621
 2825POPC   PO437620  15.532  36.365   9.550
 2825POPC   GL137621  15.167  36.209   9.205
 2825POPC   GL237622  14.827  36.014   9.138
 2825POPC   C1A37623  15.278  35.989   8.810
 2825POPC   D2A37624  15.448  36.149   8.422
 2825POPC   C3A37625  15.273  36.159   8.031
 2825POPC   C4A37626  15.407  36.162   7.658
 2825POPC   C1B37627  14.847  36.249   8.751
 2825POPC   C2B37628  14.929  36.073   8.371
 2825POPC   C3B37629  14.768  35.981   7.938
 2825POPC   C4B37630  15.008  35.877   7.527
 2826POPC   NC337631  28.869  21.777   9.266
 2826POPC   PO437632  29.288  22.225   9.556
 2826POPC   GL137633  29.283  22.097   9.138
 2826POPC   GL237634  29.410  21.752   9.152
 2826POPC   C1A37635  29.095  22.318   8.776
 2826POPC   D2A37636  29.062  22.608   8.424
 2826POPC   C3A37637  29.076  22.463   7.996
 2826POPC   C4A37638  28.804  22.311   7.682
 2826POPC   C1B37639  29.362  21.750   8.699
 2826POPC   C2B37640  29.176  22.025   8.362
 2826POPC   C3B37641  28.993  21.913   7.971
 2826POPC   C4B37642  29.138  21.870   7.574
 2827POPC   NC337643  36.817  37.625   9.484
 2827POPC   PO437644  37.234  38.192   9.425
 2827POPC   GL137645  37.000  37.983   9.113
 2827POPC   GL237646  36.620  38.030   9.077
 2827POPC   C1A37647  36.969  37.983   8.670
 2827POPC   D2A37648  36.757  37.825   8.332
 2827POPC   C3A37649  36.979  37.694   7.990
 2827POPC   C4A37650  37.237  37.788   7.680
 2827POPC   C1B37651  36.589  37.663   8.831
 2827POPC   C2B37652  36.484  37.388   8.495
 2827POPC   C3B37653  36.597  37.369   8.079
 2827POPC   C4B37654  36.654  37.402   7.638
 2828POPC   NC337655  34.931   3.539   9.364
 2828POPC   PO437656  35.413   3.956   9.425
 2828POPC   GL137657  35.387   3.702   9.078
 2828POPC   GL237658  35.344   3.347   9.145
 2828POPC   C1A37659  35.360   3.621   8.661
 2828POPC   D2A37660  35.099   3.506   8.343
 2828POPC   C3A37661  35.152   3.716   7.959
 2828POPC   C4A37662  35.231   3.357   7.714
 2828POPC   C1B37663  35.509   3.161   8.775
 2828POPC   C2B37664  35.451   3.100   8.363
 2828POPC   C3B37665  35.570   3.389   8.075
 2828POPC   C4B37666  35.705   3.789   8.082
 2829POPC   NC337667  19.566   1.987   9.574
 2829POPC   PO437668  20.130   2.201   9.562
 2829POPC   GL137669  20.003   2.165   9.172
 2829POPC   GL237670  19.887   1.835   9.192
 2829POPC   C1A37671  20.178   2.164   8.762
 2829POPC   D2A37672  20.067   1.999   8.383
 2829POPC   C3A37673  20.189   2.198   8.014
 2829POPC   C4A37674  20.107   2.105   7.583
 2829POPC   C1B37675  19.689   1.899   8.776
 2829POPC   C2B37676  19.605   1.823   8.320
 2829POPC   C3B37677  19.744   1.986   7.912
 2829POPC   C4B37678  19.619   2.030   7.426
 2830POPC   NC337679   7.991  25.843   9.548
 2830POPC   PO437680   8.632  26.180   9.469
 2830POPC   GL137681   8.309  26.188   9.149
 2830POPC   GL237682   8.189  25.870   9.091
 2830POPC   C1A37683   8.183  26.175   8.699
 2830POPC   D2A37684   7.946  26.268   8.337
 2830POPC   C3A37685   8.222  26.206   7.992
 2830POPC   C4A37686   8.348  25.856   7.800
 2830POPC   C1B37687   8.278  25.665   8.699
 2830POPC   C2B37688   8.117  25.752   8.261
 2830POPC   C3B37689   7.866  25.634   7.867
 2830POPC   C4B37690   7.795  25.691   7.366
 2831POPC   NC337691  33.246  43.717   9.876
 2831POPC   PO437692  32.820  44.152   9.476
 2831POPC   GL137693  33.011  43.979   9.141
 2831POPC   GL237694  33.101  43.662   9.313
 2831POPC   C1A37695  32.933  43.991   8.697
 2831POPC   D2A37696  33.190  43.822   8.408
 2831POPC   C3A37697  33.052  43.952   8.073
 2831POPC   C4A37698  33.277  44.056   7.754
 2831POPC   C1B37699  33.095  43.543   8.858
 2831POPC   C2B37700  32.826  43.490   8.457
 2831POPC   C3B37701  32.914  43.477   7.992
 2831POPC   C4B37702  33.154  43.443   7.603
 2832POPC   NC337703   7.073   5.067   9.553
 2832POPC   PO437704   6.484   5.286   9.621
 2832POPC   GL137705   6.440   5.106   9.202
 2832POPC   GL237706   6.639   4.806   9.160
 2832POPC   C1A37707   6.431   5.107   8.766
 2832POPC   D2A37708   6.510   4.914   8.406
 2832POPC   C3A37709   6.479   5.152   8.077
 2832POPC   C4A37710   6.730   5.277   7.749
 2832POPC   C1B37711   6.816   4.714   8.768
 2832POPC   C2B37712   7.016   4.871   8.408
 2832POPC   C3B37713   6.880   4.831   7.978
 2832POPC   C4B37714   7.056   4.928   7.579
 2833POPC   NC337715  20.087  19.987   9.558
 2833POPC   PO437716  19.492  19.744   9.472
 2833POPC   GL137717  19.671  19.608   9.120
 2833POPC   GL237718  20.008  19.752   9.099
 2833POPC   C1A37719  19.585  19.877   8.774
 2833POPC   D2A37720  19.328  19.982   8.449
 2833POPC   C3A37721  19.561  19.843   8.108
 2833POPC   C4A37722  19.799  20.128   7.852
 2833POPC   C1B37723  20.016  20.138   8.834
 2833POPC   C2B37724  19.949  20.048   8.388
 2833POPC   C3B37725  20.183  19.830   8.097
 2833POPC   C4B37726  20.076  19.720   7.668
 2834POPC   NC337727  25.874  30.890   9.522
 2834POPC   PO437728  26.412  30.606   9.394
 2834POPC   GL137729  26.082  30.727   9.083
 2834POPC   GL237730  25.841  30.501   9.052
 2834POPC   C1A37731  25.758  30.985   8.837
 2834POPC   D2A37732  25.803  31.106   8.394
 2834POPC   C3A37733  25.850  30.767   8.099
 2834POPC   C4A37734  25.835  30.654   7.646
 2834POPC   C1B37735  25.962  30.576   8.595
 2834POPC   C2B37736  26.274  30.486   8.257
 2834POPC   C3B37737  26.325  30.578   7.812
 2834POPC   C4B37738  26.461  30.404   7.350
 2835POPC   NC337739  35.197  39.481   9.728
 2835POPC   PO437740  35.737  39.298   9.491
 2835POPC   GL137741  35.526  39.191   9.110
 2835POPC   GL237742  35.185  39.175   9.239
 2835POPC   C1A37743  35.553  39.244   8.634
 2835POPC   D2A37744  35.646  39.556   8.288
 2835POPC   C3A37745  35.538  39.442   7.905
 2835POPC   C4A37746  35.402  39.051   7.786
 2835POPC   C1B37747  35.068  39.379   8.853
 2835POPC   C2B37748  35.128  39.514   8.419
 2835POPC   C3B37749  35.052  39.286   8.066
 2835POPC   C4B37750  34.884  39.073   7.728
 2836POPC   NC337751  14.695  20.264   9.492
 2836POPC   PO437752  14.380  20.789   9.421
 2836POPC   GL137753  14.410  20.493   9.085
 2836POPC   GL237754  14.759  20.379   8.980
 2836POPC   C1A37755  14.321  20.601   8.662
 2836POPC   D2A37756  14.575  20.503   8.325
 2836POPC   C3A37757  14.501  20.397   7.888
 2836POPC   C4A37758  14.255  20.279   7.486
 2836POPC   C1B37759  14.811  20.751   8.718
 2836POPC   C2B37760  14.805  20.974   8.298
 2836POPC   C3B37761  14.786  20.855   7.863
 2836POPC   C4B37762  14.625  20.663   7.486
 2837POPC   NC337763   6.110  19.912   9.306
 2837POPC   PO437764   5.532  20.195   9.557
 2837POPC   GL137765   5.653  20.072   9.138
 2837POPC   GL237766   5.672  19.731   9.092
 2837POPC   C1A37767   5.833  20.159   8.730
 2837POPC   D2A37768   6.102  20.007   8.373
 2837POPC   C3A37769   5.922  20.118   7.971
 2837POPC   C4A37770   5.496  20.052   7.800
 2837POPC   C1B37771   5.782  19.652   8.691
 2837POPC   C2B37772   5.590  19.831   8.351
 2837POPC   C3B37773   5.700  19.645   7.994
 2837POPC   C4B37774   5.609  19.586   7.583
 2838POPC   NC337775   4.689  25.937   9.468
 2838POPC   PO437776   5.410  26.114   9.457
 2838POPC   GL137777   5.205  25.952   9.086
 2838POPC   GL237778   4.904  26.163   9.061
 2838POPC   C1A37779   5.069  25.690   8.722
 2838POPC   D2A37780   4.943  25.739   8.267
 2838POPC   C3A37781   5.195  26.022   7.991
 2838POPC   C4A37782   5.460  25.997   7.592
 2838POPC   C1B37783   4.993  26.179   8.627
 2838POPC   C2B37784   4.692  26.282   8.288
 2838POPC   C3B37785   4.679  26.152   7.842
 2838POPC   C4B37786   4.954  26.100   7.465
 2839POPC   NC337787  11.675  10.531   9.520
 2839POPC   PO437788  12.184  10.921   9.697
 2839POPC   GL137789  12.061  10.734   9.259
 2839POPC   GL237790  12.072  10.360   9.273
 2839POPC   C1A37791  11.752  10.701   8.886
 2839POPC   D2A37792  11.580  10.709   8.468
 2839POPC   C3A37793  11.871  10.635   8.133
 2839POPC   C4A37794  11.814  10.764   7.709
 2839POPC   C1B37795  12.000  10.257   8.863
 2839POPC   C2B37796  11.965  10.218   8.440
 2839POPC   C3B37797  12.149  10.169   8.060
 2839POPC   C4B37798  12.135  10.100   7.616
 2840POPC   NC337799  12.736  31.451   9.439
 2840POPC   PO437800  13.360  31.688   9.438
 2840POPC   GL137801  13.050  31.729   9.076
 2840POPC   GL237802  12.692  31.601   8.958
 2840POPC   C1A37803  13.047  31.720   8.623
 2840POPC   D2A37804  12.700  31.597   8.321
 2840POPC   C3A37805  12.750  31.618   7.857
 2840POPC   C4A37806  13.074  31.412   7.588
 2840POPC   C1B37807  12.872  31.252   8.684
 2840POPC   C2B37808  12.679  31.028   8.341
 2840POPC   C3B37809  12.821  31.005   7.898
 2840POPC   C4B37810  12.551  31.084   7.551
 2841POPC   NC337811  31.718   9.199   9.506
 2841POPC   PO437812  31.112   8.824   9.634
 2841POPC   GL137813  31.340   8.865   9.188
 2841POPC   GL237814  31.674   8.727   9.183
 2841POPC   C1A37815  31.452   8.785   8.716
 2841POPC   D2A37816  31.538   8.599   8.302
 2841POPC   C3A37817  31.335   8.845   7.978
 2841POPC   C4A37818  31.084   9.004   7.654
 2841POPC   C1B37819  31.825   9.080   8.886
 2841POPC   C2B37820  31.759   9.194   8.450
 2841POPC   C3B37821  31.693   9.339   8.031
 2841POPC   C4B37822  31.554   9.187   7.640
 2842POPC   NC337823  21.573  23.033   9.510
 2842POPC   PO437824  22.198  22.663   9.543
 2842POPC   GL137825  22.207  22.882   9.168
 2842POPC   GL237826  21.968  23.176   9.165
 2842POPC   C1A37827  22.341  22.749   8.778
 2842POPC   D2A37828  22.254  23.001   8.426
 2842POPC   C3A37829  22.386  22.774   8.087
 2842POPC   C4A37830  22.265  22.719   7.694
 2842POPC   C1B37831  21.853  23.417   8.746
 2842POPC   C2B37832  22.031  23.457   8.322
 2842POPC   C3B37833  22.068  23.174   7.957
 2842POPC   C4B37834  22.126  23.166   7.504
 2843POPC   NC337835  17.869  19.883   9.733
 2843POPC   PO437836  17.241  19.616   9.544
 2843POPC   GL137837  17.355  19.856   9.209
 2843POPC   GL237838  17.648  19.673   9.179
 2843POPC   C1A37839  17.451  20.047   8.776
 2843POPC   D2A37840  17.696  19.948   8.368
 2843POPC   C3A37841  17.549  19.875   7.959
 2843POPC   C4A37842  17.205  20.100   7.779
 2843POPC   C1B37843  17.613  19.556   8.738
 2843POPC   C2B37844  17.529  19.329   8.360
 2843POPC   C3B37845  17.682  19.382   7.947
 2843POPC   C4B37846  17.660  19.550   7.544
 2844POPC   NC337847   5.890  40.331   9.416
 2844POPC   PO437848   5.845  40.971   9.647
 2844POPC   GL137849   5.952  41.031   9.162
 2844POPC   GL237850   5.880  40.697   9.009
 2844POPC   C1A37851   6.145  40.992   8.714
 2844POPC   D2A37852   5.935  40.820   8.343
 2844POPC   C3A37853   6.069  40.945   7.941
 2844POPC   C4A37854   5.789  41.214   7.745
 2844POPC   C1B37855   5.587  40.913   8.707
 2844POPC   C2B37856   5.406  40.654   8.386
 2844POPC   C3B37857   5.627  40.319   8.134
 2844POPC   C4B37858   5.914  40.442   7.805
 2845POPC   NC337859  16.908  41.639   9.427
 2845POPC   PO437860  16.265  41.905   9.486
 2845POPC   GL137861  16.613  41.904   9.129
 2845POPC   GL237862  16.645  41.589   8.960
 2845POPC   C1A37863  16.921  41.915   8.736
 2845POPC   D2A37864  16.741  41.597   8.426
 2845POPC   C3A37865  16.930  41.699   8.044
 2845POPC   C4A37866  16.807  41.720   7.651
 2845POPC   C1B37867  17.010  41.326   8.768
 2845POPC   C2B37868  16.940  41.136   8.357
 2845POPC   C3B37869  16.815  41.209   7.966
 2845POPC   C4B37870  17.150  41.173   7.742
 2846POPC   NC337871  28.109  22.180   9.442
 2846POPC   PO437872  27.518  22.049   9.559
 2846POPC   GL137873  27.567  22.136   9.148
 2846POPC   GL237874  27.810  21.883   9.148
 2846POPC   C1A37875  27.310  22.179   8.784
 2846POPC   D2A37876  27.489  22.132   8.424
 2846POPC   C3A37877  27.414  22.379   8.120
 2846POPC   C4A37878  27.483  22.207   7.750
 2846POPC   C1B37879  27.626  21.767   8.783
 2846POPC   C2B37880  27.769  21.685   8.403
 2846POPC   C3B37881  27.834  21.957   8.083
 2846POPC   C4B37882  27.794  21.797   7.720
 2847POPC   NC337883  36.940   1.805   9.586
 2847POPC   PO437884  36.651   2.397   9.554
 2847POPC   GL137885  36.842   2.163   9.205
 2847POPC   GL237886  37.156   1.941   9.165
 2847POPC   C1A37887  36.768   1.971   8.809
 2847POPC   D2A37888  36.558   2.072   8.417
 2847POPC   C3A37889  36.823   2.094   8.066
 2847POPC   C4A37890  36.843   1.819   7.752
 2847POPC   C1B37891  37.246   2.227   8.878
 2847POPC   C2B37892  37.143   2.166   8.467
 2847POPC   C3B37893  37.315   2.010   8.092
 2847POPC   C4B37894  37.281   2.055   7.658
 2848POPC   NC337895   4.623  31.118   9.390
 2848POPC   PO437896   4.001  31.335   9.495
 2848POPC   GL137897   4.265  31.437   9.129
 2848POPC   GL237898   4.550  31.661   9.206
 2848POPC   C1A37899   4.216  31.314   8.674
 2848POPC   D2A37900   3.974  31.495   8.293
 2848POPC   C3A37901   4.188  31.449   7.873
 2848POPC   C4A37902   4.510  31.131   7.712
 2848POPC   C1B37903   4.737  31.901   8.849
 2848POPC   C2B37904   4.800  31.678   8.454
 2848POPC   C3B37905   4.547  31.731   8.094
 2848POPC   C4B37906   4.580  32.071   7.817
 2849POPC   NC337907  44.110  27.960   9.691
 2849POPC   PO437908  44.130  28.574   9.509
 2849POPC   GL137909  43.968  28.255   9.229
 2849POPC   GL237910  43.728  28.455   9.151
 2849POPC   C1A37911  43.914  28.156   8.753
 2849POPC   D2A37912  43.650  28.209   8.330
 2849POPC   C3A37913  43.777  28.156   7.890
 2849POPC   C4A37914  44.143  27.922   7.746
 2849POPC   C1B37915  43.620  28.632   8.794
 2849POPC   C2B37916  43.834  28.696   8.436
 2849POPC   C3B37917  43.685  28.949   8.122
 2849POPC   C4B37918  43.642  28.660   7.824
 2850POPC   NC337919  43.517  10.835   9.378
 2850POPC   PO437920  43.990  11.333   9.422
 2850POPC   GL137921  43.951  11.214   9.031
 2850POPC   GL237922  44.190  10.919   9.058
 2850POPC   C1A37923  44.143  11.294   8.603
 2850POPC   D2A37924  44.135  11.657   8.305
 2850POPC   C3A37925  43.983  11.585   7.915
 2850POPC   C4A37926  43.878  11.303   7.610
 2850POPC   C1B37927  43.937  10.845   8.697
 2850POPC   C2B37928  44.026  10.798   8.271
 2850POPC   C3B37929  43.818  10.917   7.920
 2850POPC   C4B37930  43.407  11.001   7.746
 2851POPC   NC337931  33.906  44.228   9.559
 2851POPC   PO437932  34.100  44.864   9.733
 2851POPC   GL137933  33.966  44.695   9.307
 2851POPC   GL237934  33.683  44.847   9.166
 2851POPC   C1A37935  33.961  44.540   8.862
 2851POPC   D2A37936  33.799  44.507   8.433
 2851POPC   C3A37937  34.035  44.429   8.061
 2851POPC   C4A37938  34.026  44.730   7.708
 2851POPC   C1B37939  33.489  44.738   8.798
 2851POPC   C2B37940  33.362  44.832   8.400
 2851POPC   C3B37941  33.605  44.800   8.021
 2851POPC   C4B37942  33.614  44.440   7.753
 2852POPC   NC337943  28.394  21.209   9.493
 2852POPC   PO437944  28.511  21.932   9.542
 2852POPC   GL137945  28.396  21.646   9.188
 2852POPC   GL237946  28.111  21.467   9.138
 2852POPC   C1A37947  28.478  21.334   8.825
 2852POPC   D2A37948  28.411  21.285   8.394
 2852POPC   C3A37949  28.670  21.468   8.065
 2852POPC   C4A37950  28.633  21.203   7.715
 2852POPC   C1B37951  28.147  21.745   8.769
 2852POPC   C2B37952  28.281  21.806   8.362
 2852POPC   C3B37953  28.152  21.559   8.048
 2852POPC   C4B37954  28.267  21.529   7.676
 2853POPC   NC337955  33.281  28.057   9.597
 2853POPC   PO437956  32.785  28.525   9.531
 2853POPC   GL137957  32.976  28.292   9.203
 2853POPC   GL237958  33.266  28.471   9.223
 2853POPC   C1A37959  33.085  28.243   8.745
 2853POPC   D2A37960  33.010  28.441   8.326
 2853POPC   C3A37961  33.026  28.266   7.921
 2853POPC   C4A37962  32.697  28.018   7.729
 2853POPC   C1B37963  33.414  28.645   8.824
 2853POPC   C2B37964  33.504  28.478   8.412
 2853POPC   C3B37965  33.411  28.628   7.999
 2853POPC   C4B37966  33.384  28.538   7.542
 2854POPC   NC337967   4.364   5.916   9.634
 2854POPC   PO437968   4.064   5.524   9.277
 2854POPC   GL137969   4.396   5.830   9.096
 2854POPC   GL237970   4.658   5.616   9.014
 2854POPC   C1A37971   4.509   5.864   8.619
 2854POPC   D2A37972   4.353   5.552   8.339
 2854POPC   C3A37973   4.245   5.705   7.933
 2854POPC   C4A37974   4.129   6.149   7.849
 2854POPC   C1B37975   4.821   5.399   8.650
 2854POPC   C2B37976   4.803   5.390   8.186
 2854POPC   C3B37977   4.704   5.444   7.770
 2854POPC   C4B37978   4.938   5.447   7.365
 2855POPC   NC337979   7.774   2.332   9.386
 2855POPC   PO437980   7.210   2.668   9.644
 2855POPC   GL137981   7.400   2.762   9.247
 2855POPC   GL237982   7.660   2.994   9.210
 2855POPC   C1A37983   7.225   2.831   8.837
 2855POPC   D2A37984   7.251   2.536   8.498
 2855POPC   C3A37985   7.468   2.563   8.126
 2855POPC   C4A37986   7.275   2.639   7.739
 2855POPC   C1B37987   7.716   2.678   8.844
 2855POPC   C2B37988   7.950   2.659   8.475
 2855POPC   C3B37989   7.901   2.848   8.106
 2855POPC   C4B37990   7.783   2.733   7.736
 2856POPC   NC337991  25.627   1.412   9.471
 2856POPC   PO437992  26.261   1.236   9.498
 2856POPC   GL137993  25.993   1.034   9.206
 2856POPC   GL237994  26.256   0.789   9.130
 2856POPC   C1A37995  25.833   1.205   8.815
 2856POPC   D2A37996  25.748   1.360   8.370
 2856POPC   C3A37997  25.923   1.224   7.968
 2856POPC   C4A37998  26.193   0.992   7.664
 2856POPC   C1B37999  26.348   1.123   8.817
 2856POPC   C2B38000  26.258   1.322   8.420
 2856POPC   C3B38001  26.429   1.267   8.031
 2856POPC   C4B38002  26.371   1.457   7.631
 2857POPC   NC338003  28.584  22.259   9.884
 2857POPC   PO438004  28.363  22.536   9.337
 2857POPC   GL138005  28.468  22.192   9.082
 2857POPC   GL238006  28.135  22.232   8.939
 2857POPC   C1A38007  28.593  22.094   8.667
 2857POPC   D2A38008  28.672  22.234   8.238
 2857POPC   C3A38009  28.482  21.962   7.908
 2857POPC   C4A38010  28.651  21.806   7.513
 2857POPC   C1B38011  27.985  22.193   8.537
 2857POPC   C2B38012  28.172  22.316   8.154
 2857POPC   C3B38013  28.282  22.429   7.736
 2857POPC   C4B38014  28.089  22.471   7.305
 2858POPC   NC338015  33.991  19.828   9.608
 2858POPC   PO438016  33.403  20.152   9.562
 2858POPC   GL138017  33.692  20.008   9.175
 2858POPC   GL238018  33.966  19.698   9.122
 2858POPC   C1A38019  33.816  19.941   8.720
 2858POPC   D2A38020  34.012  19.884   8.328
 2858POPC   C3A38021  33.727  19.690   8.035
 2858POPC   C4A38022  33.712  19.698   7.597
 2858POPC   C1B38023  34.000  19.360   8.793
 2858POPC   C2B38024  33.940  19.302   8.335
 2858POPC   C3B38025  34.214  19.505   8.024
 2858POPC   C4B38026  34.242  19.579   7.561
 2859POPC   NC338027   5.351  38.668   9.826
 2859POPC   PO438028   5.899  38.306   9.627
 2859POPC   GL138029   5.791  38.360   9.193
 2859POPC   GL238030   5.899  38.684   9.046
 2859POPC   C1A38031   5.865  38.246   8.765
 2859POPC   D2A38032   5.906  38.543   8.445
 2859POPC   C3A38033   5.999  38.394   8.065
 2859POPC   C4A38034   5.954  38.222   7.624
 2859POPC   C1B38035   5.686  38.928   8.717
 2859POPC   C2B38036   5.471  38.831   8.372
 2859POPC   C3B38037   5.498  38.548   8.062
 2859POPC   C4B38038   5.719  38.673   7.752
 2860POPC   NC338039  23.836  41.846   9.548
 2860POPC   PO438040  23.300  41.387   9.486
 2860POPC   GL138041  23.456  41.673   9.177
 2860POPC   GL238042  23.784  41.537   9.096
 2860POPC   C1A38043  23.535  41.778   8.725
 2860POPC   D2A38044  23.616  41.556   8.362
 2860POPC   C3A38045  23.356  41.596   7.995
 2860POPC   C4A38046  23.587  41.471   7.627
 2860POPC   C1B38047  24.062  41.759   8.774
 2860POPC   C2B38048  23.935  41.997   8.381
 2860POPC   C3B38049  23.829  41.823   7.936
 2860POPC   C4B38050  23.947  41.833   7.471
 2861POPC   NC338051  34.016  43.447   9.487
 2861POPC   PO438052  33.715  42.800   9.450
 2861POPC   GL138053  34.046  42.845   9.171
 2861POPC   GL238054  33.876  43.169   9.087
 2861POPC   C1A38055  34.079  42.905   8.718
 2861POPC   D2A38056  33.737  43.133   8.549
 2861POPC   C3A38057  33.769  43.186   8.125
 2861POPC   C4A38058  34.130  43.021   7.918
 2861POPC   C1B38059  33.972  43.509   8.816
 2861POPC   C2B38060  34.137  43.474   8.431
 2861POPC   C3B38061  34.017  43.618   8.026
 2861POPC   C4B38062  34.151  43.451   7.647
 2862POPC   NC338063   0.377  44.042   9.446
 2862POPC   PO438064   1.000  43.713   9.538
 2862POPC   GL138065   0.695  43.703   9.146
 2862POPC   GL238066   0.321  43.802   9.003
 2862POPC   C1A38067   0.718  43.893   8.715
 2862POPC   D2A38068   0.451  44.100   8.434
 2862POPC   C3A38069   0.617  44.082   8.043
 2862POPC   C4A38070   0.756  43.793   7.742
 2862POPC   C1B38071   0.007  44.056   8.767
 2862POPC   C2B38072  44.946  44.137   8.369
 2862POPC   C3B38073   0.104  43.996   8.032
 2862POPC   C4B38074   0.246  44.111   7.681
 2863POPC   NC338075   4.461  19.734   9.503
 2863POPC   PO438076   3.838  20.083   9.546
 2863POPC   GL138077   4.056  19.899   9.166
 2863POPC   GL238078   4.409  19.961   9.050
 2863POPC   C1A38079   4.159  19.578   8.830
 2863POPC   D2A38080   4.292  19.644   8.408
 2863POPC   C3A38081   4.070  19.590   8.040
 2863POPC   C4A38082   4.144  19.745   7.632
 2863POPC   C1B38083   4.449  20.236   8.687
 2863POPC   C2B38084   4.107  20.173   8.431
 2863POPC   C3B38085   4.100  20.079   8.031
 2863POPC   C4B38086   4.170  20.248   7.668
 2864POPC   NC338087  16.298  32.206   9.422
 2864POPC   PO438088  15.695  31.928   9.586
 2864POPC   GL138089  15.810  32.126   9.197
 2864POPC   GL238090  15.649  32.454   9.203
 2864POPC   C1A38091  15.949  32.046   8.762
 2864POPC   D2A38092  15.905  32.292   8.346
 2864POPC   C3A38093  16.048  32.105   7.949
 2864POPC   C4A38094  16.356  32.321   7.635
 2864POPC   C1B38095  15.871  32.560   8.805
 2864POPC   C2B38096  15.661  32.765   8.453
 2864POPC   C3B38097  15.601  32.607   8.032
 2864POPC   C4B38098  15.908  32.551   7.730
 2865POPC   NC338099  33.027   4.077   9.433
 2865POPC   PO438100  32.980   3.443   9.692
 2865POPC   GL138101  33.056   3.488   9.251
 2865POPC   GL238102  33.352   3.686   9.196
 2865POPC   C1A38103  33.154   3.426   8.794
 2865POPC   D2A38104  33.316   3.285   8.410
 2865POPC   C3A38105  33.092   3.367   8.029
 2865POPC   C4A38106  32.862   3.373   7.637
 2865POPC   C1B38107  33.181   3.936   8.802
 2865POPC   C2B38108  33.114   3.808   8.339
 2865POPC   C3B38109  33.035   3.862   7.870
 2865POPC   C4B38110  33.241   4.049   7.451
 2866POPC   NC338111  36.737  18.343   9.504
 2866POPC   PO438112  37.414  18.399   9.530
 2866POPC   GL138113  37.098  18.329   9.162
 2866POPC   GL238114  36.877  18.007   9.139
 2866POPC   C1A38115  36.912  18.295   8.733
 2866POPC   D2A38116  37.164  18.245   8.387
 2866POPC   C3A38117  36.948  18.261   8.030
 2866POPC   C4A38118  37.186  18.338   7.680
 2866POPC   C1B38119  36.640  17.856   8.761
 2866POPC   C2B38120  36.422  17.814   8.365
 2866POPC   C3B38121  36.467  18.003   7.933
 2866POPC   C4B38122  36.676  18.264   7.589
 2867POPC   NC338123   2.828  24.046   9.524
 2867POPC   PO438124   2.311  23.690   9.432
 2867POPC   GL138125   2.689  23.726   9.172
 2867POPC   GL238126   2.936  23.501   9.162
 2867POPC   C1A38127   2.894  23.927   8.799
 2867POPC   D2A38128   2.658  24.052   8.411
 2867POPC   C3A38129   2.750  23.897   8.020
 2867POPC   C4A38130   2.472  23.742   7.723
 2867POPC   C1B38131   2.715  23.411   8.787
 2867POPC   C2B38132   2.776  23.555   8.396
 2867POPC   C3B38133   2.659  23.377   8.018
 2867POPC   C4B38134   2.811  23.346   7.631
 2868POPC   NC338135  24.163   3.633   9.502
 2868POPC   PO438136  24.471   3.000   9.506
 2868POPC   GL138137  24.372   3.240   9.174
 2868POPC   GL238138  24.601   3.504   9.255
 2868POPC   C1A38139  24.524   3.231   8.750
 2868POPC   D2A38140  24.280   3.359   8.394
 2868POPC   C3A38141  24.358   3.261   7.975
 2868POPC   C4A38142  24.771   3.179   7.761
 2868POPC   C1B38143  24.494   3.715   8.883
 2868POPC   C2B38144  24.657   3.837   8.498
 2868POPC   C3B38145  24.672   3.599   8.144
 2868POPC   C4B38146  24.580   3.660   7.727
 2869POPC   NC338147   6.340  38.407   9.626
 2869POPC   PO438148   6.858  38.682   9.529
 2869POPC   GL138149   6.729  38.636   9.094
 2869POPC   GL238150   6.409  38.737   9.159
 2869POPC   C1A38151   6.847  38.431   8.669
 2869POPC   D2A38152   6.947  38.592   8.241
 2869POPC   C3A38153   6.860  38.405   7.835
 2869POPC   C4A38154   6.779  38.590   7.431
 2869POPC   C1B38155   6.323  38.506   8.768
 2869POPC   C2B38156   6.386  38.211   8.427
 2869POPC   C3B38157   6.408  38.119   7.974
 2869POPC   C4B38158   6.368  38.491   7.723
 2870POPC   NC338159  21.924   4.360   9.398
 2870POPC   PO438160  22.438   3.981   9.629
 2870POPC   GL138161  22.292   4.041   9.189
 2870POPC   GL238162  21.981   3.956   9.028
 2870POPC   C1A38163  22.228   4.356   8.810
 2870POPC   D2A38164  22.231   4.598   8.432
 2870POPC   C3A38165  22.138   4.449   8.036
 2870POPC   C4A38166  22.307   4.444   7.600
 2870POPC   C1B38167  22.274   3.864   8.707
 2870POPC   C2B38168  22.185   4.030   8.324
 2870POPC   C3B38169  22.038   3.941   7.914
 2870POPC   C4B38170  22.155   3.972   7.461
 2871POPC   NC338171  18.752   2.561   9.482
 2871POPC   PO438172  19.393   2.726   9.594
 2871POPC   GL138173  19.155   2.769   9.236
 2871POPC   GL238174  19.088   3.078   9.147
 2871POPC   C1A38175  18.983   2.678   8.820
 2871POPC   D2A38176  19.248   2.555   8.478
 2871POPC   C3A38177  19.194   2.396   8.077
 2871POPC   C4A38178  19.496   2.400   7.751
 2871POPC   C1B38179  18.900   3.184   8.761
 2871POPC   C2B38180  19.105   3.042   8.391
 2871POPC   C3B38181  18.939   2.853   7.992
 2871POPC   C4B38182  18.578   2.576   7.848
 2872POPC   NC338183  15.271  34.956   9.437
 2872POPC   PO438184  15.008  35.669   9.480
 2872POPC   GL138185  14.997  35.486   9.077
 2872POPC   GL238186  15.326  35.279   9.045
 2872POPC   C1A38187  15.138  35.524   8.635
 2872POPC   D2A38188  15.384  35.649   8.329
 2872POPC   C3A38189  15.192  35.666   7.968
 2872POPC   C4A38190  15.124  35.368   7.687
 2872POPC   C1B38191  15.015  35.058   8.779
 2872POPC   C2B38192  14.871  35.195   8.325
 2872POPC   C3B38193  14.871  34.992   7.905
 2872POPC   C4B38194  14.748  35.044   7.451
 2873POPC   NC338195  14.825  38.958   9.539
 2873POPC   PO438196  15.080  39.616   9.553
 2873POPC   GL138197  14.967  39.371   9.193
 2873POPC   GL238198  15.175  39.138   9.178
 2873POPC   C1A38199  14.865  39.272   8.761
 2873POPC   D2A38200  15.011  38.994   8.419
 2873POPC   C3A38201  14.907  39.136   8.016
 2873POPC   C4A38202  15.098  39.246   7.660
 2873POPC   C1B38203  15.346  39.038   8.808
 2873POPC   C2B38204  15.531  38.966   8.418
 2873POPC   C3B38205  15.414  39.046   8.054
 2873POPC   C4B38206  15.495  39.399   7.944
 2874POPC   NC338207  39.148  30.208   9.507
 2874POPC   PO438208  39.591  29.720   9.441
 2874POPC   GL138209  39.337  29.908   9.133
 2874POPC   GL238210  39.398  30.284   9.074
 2874POPC   C1A38211  39.179  29.717   8.766
 2874POPC   D2A38212  39.357  29.756   8.360
 2874POPC   C3A38213  39.157  29.700   7.958
 2874POPC   C4A38214  39.360  29.624   7.571
 2874POPC   C1B38215  39.328  30.199   8.694
 2874POPC   C2B38216  39.014  30.116   8.460
 2874POPC   C3B38217  39.228  30.192   8.107
 2874POPC   C4B38218  39.200  30.149   7.698
 2875POPC   NC338219  22.428   2.717   9.477
 2875POPC   PO438220  22.009   3.129   9.712
 2875POPC   GL138221  22.019   3.003   9.253
 2875POPC   GL238222  22.319   2.995   9.083
 2875POPC   C1A38223  21.921   2.893   8.793
 2875POPC   D2A38224  21.844   3.043   8.393
 2875POPC   C3A38225  21.910   2.800   8.074
 2875POPC   C4A38226  22.108   2.869   7.716
 2875POPC   C1B38227  22.336   2.615   8.829
 2875POPC   C2B38228  22.312   2.581   8.386
 2875POPC   C3B38229  22.224   2.421   7.967
 2875POPC   C4B38230  22.399   2.464   7.602
 2876POPC   NC338231  39.566   8.082   9.527
 2876POPC   PO438232  40.155   8.355   9.375
 2876POPC   GL138233  40.078   8.191   9.037
 2876POPC   GL238234  39.875   7.935   9.128
 2876POPC   C1A38235  40.324   8.064   8.736
 2876POPC   D2A38236  40.300   7.821   8.377
 2876POPC   C3A38237  40.197   8.084   8.031
 2876POPC   C4A38238  40.018   8.269   7.669
 2876POPC   C1B38239  39.901   7.787   8.710
 2876POPC   C2B38240  39.771   7.945   8.302
 2876POPC   C3B38241  39.753   7.836   7.854
 2876POPC   C4B38242  39.609   8.044   7.466
 2877POPC   NC338243  18.432  43.343   9.843
 2877POPC   PO438244  19.050  43.303   9.488
 2877POPC   GL138245  19.054  43.118   9.127
 2877POPC   GL238246  18.779  42.905   9.129
 2877POPC   C1A38247  19.285  43.046   8.785
 2877POPC   D2A38248  19.519  43.081   8.421
 2877POPC   C3A38249  19.276  43.043   8.046
 2877POPC   C4A38250  19.292  42.801   7.682
 2877POPC   C1B38251  18.728  43.097   8.753
 2877POPC   C2B38252  18.908  43.066   8.396
 2877POPC   C3B38253  18.752  43.068   8.020
 2877POPC   C4B38254  18.871  43.062   7.630
 2878POPC   NC338255  11.502  38.784   9.534
 2878POPC   PO438256  11.235  39.428   9.482
 2878POPC   GL138257  11.337  39.247   9.129
 2878POPC   GL238258  11.146  38.959   9.171
 2878POPC   C1A38259  11.376  39.456   8.733
 2878POPC   D2A38260  11.583  39.352   8.371
 2878POPC   C3A38261  11.344  39.293   8.008
 2878POPC   C4A38262  11.444  39.351   7.569
 2878POPC   C1B38263  11.230  38.922   8.720
 2878POPC   C2B38264  11.021  38.991   8.331
 2878POPC   C3B38265  10.911  38.910   7.931
 2878POPC   C4B38266  11.251  38.890   7.683
 2879POPC   NC338267  44.114  31.699   9.509
 2879POPC   PO438268  43.504  31.398   9.462
 2879POPC   GL138269  43.779  31.595   9.146
 2879POPC   GL238270  44.118  31.434   9.080
 2879POPC   C1A38271  43.750  31.629   8.716
 2879POPC   D2A38272  43.584  31.314   8.423
 2879POPC   C3A38273  43.619  31.372   7.988
 2879POPC   C4A38274  43.619  31.071   7.680
 2879POPC   C1B38275  44.044  31.185   8.721
 2879POPC   C2B38276  44.166  31.140   8.288
 2879POPC   C3B38277  44.124  31.186   7.849
 2879POPC   C4B38278  44.165  31.523   7.544
 2880POPC   NC338279  12.411  29.011   9.488
 2880POPC   PO438280  11.704  29.300   9.589
 2880POPC   GL138281  11.843  29.227   9.185
 2880POPC   GL238282  12.160  29.240   9.112
 2880POPC   C1A38283  11.742  29.324   8.773
 2880POPC   D2A38284  11.810  29.161   8.366
 2880POPC   C3A38285  12.037  29.119   8.023
 2880POPC   C4A38286  11.940  29.286   7.642
 2880POPC   C1B38287  12.165  29.034   8.730
 2880POPC   C2B38288  12.514  28.995   8.491
 2880POPC   C3B38289  12.581  29.199   8.108
 2880POPC   C4B38290  12.420  29.062   7.687
 2881POPC   NC338291  21.043  43.000   9.532
 2881POPC   PO438292  20.481  42.794   9.638
 2881POPC   GL138293  20.456  43.010   9.244
 2881POPC   GL238294  20.762  43.052   9.095
 2881POPC   C1A38295  20.318  43.149   8.845
 2881POPC   D2A38296  20.675  43.136   8.567
 2881POPC   C3A38297  20.627  43.081   8.133
 2881POPC   C4A38298  20.278  43.234   7.888
 2881POPC   C1B38299  20.956  42.778   8.823
 2881POPC   C2B38300  21.091  42.857   8.403
 2881POPC   C3B38301  20.999  42.697   8.041
 2881POPC   C4B38302  21.070  43.019   7.745
 2882POPC   NC338303   9.196  43.273   9.502
 2882POPC   PO438304   8.498  43.344   9.488
 2882POPC   GL138305   8.771  43.128   9.159
 2882POPC   GL238306   9.159  42.973   9.088
 2882POPC   C1A38307   8.755  42.948   8.770
 2882POPC   D2A38308   8.909  43.100   8.371
 2882POPC   C3A38309   8.717  42.918   8.015
 2882POPC   C4A38310   8.458  43.189   7.823
 2882POPC   C1B38311   9.425  42.877   8.693
 2882POPC   C2B38312   9.363  42.927   8.224
 2882POPC   C3B38313   9.139  43.226   7.881
 2882POPC   C4B38314   9.231  43.189   7.411
 2883POPC   NC338315  28.261   0.871   9.457
 2883POPC   PO438316  28.263   0.244   9.535
 2883POPC   GL138317  28.385   0.261   9.166
 2883POPC   GL238318  28.539   0.563   9.178
 2883POPC   C1A38319  28.159   0.154   8.821
 2883POPC   D2A38320  28.276   0.230   8.419
 2883POPC   C3A38321  28.447   0.276   7.998
 2883POPC   C4A38322  28.191   0.277   7.669
 2883POPC   C1B38323  28.396   0.627   8.784
 2883POPC   C2B38324  28.360   0.739   8.374
 2883POPC   C3B38325  28.057   0.580   8.122
 2883POPC   C4B38326  27.937   0.688   7.781
 2884POPC   NC338327  25.634   7.912   9.997
 2884POPC   PO438328  25.085   8.072   9.613
 2884POPC   GL138329  25.022   8.020   9.208
 2884POPC   GL238330  25.353   8.144   9.150
 2884POPC   C1A38331  25.006   8.122   8.772
 2884POPC   D2A38332  25.085   8.001   8.379
 2884POPC   C3A38333  24.913   8.246   8.098
 2884POPC   C4A38334  25.132   8.511   7.857
 2884POPC   C1B38335  25.535   8.016   8.747
 2884POPC   C2B38336  25.696   8.229   8.412
 2884POPC   C3B38337  25.465   8.114   8.043
 2884POPC   C4B38338  25.241   8.031   7.695
 2885POPC   NC338339  33.228  36.713   9.444
 2885POPC   PO438340  32.563  36.610   9.346
 2885POPC   GL138341  32.861  36.724   9.077
 2885POPC   GL238342  32.798  37.044   9.033
 2885POPC   C1A38343  32.876  36.753   8.640
 2885POPC   D2A38344  32.841  37.078   8.351
 2885POPC   C3A38345  33.039  36.886   8.005
 2885POPC   C4A38346  33.176  36.759   7.632
 2885POPC   C1B38347  33.165  37.171   8.751
 2885POPC   C2B38348  33.363  37.108   8.335
 2885POPC   C3B38349  33.288  37.343   7.926
 2885POPC   C4B38350  33.318  37.366   7.488
 2886POPC   NC338351  11.059   0.415   9.433
 2886POPC   PO438352  11.502   0.988   9.523
 2886POPC   GL138353  11.536   0.724   9.091
 2886POPC   GL238354  11.396   0.382   9.064
 2886POPC   C1A38355  11.344   0.722   8.694
 2886POPC   D2A38356  11.247   0.530   8.310
 2886POPC   C3A38357  11.330   0.749   7.921
 2886POPC   C4A38358  11.319   0.625   7.479
 2886POPC   C1B38359  11.161   0.191   8.695
 2886POPC   C2B38360  10.993   0.096   8.248
 2886POPC   C3B38361  11.199   0.191   7.807
 2886POPC   C4B38362  11.501   0.152   7.418
 2887POPC   NC338363   4.238  30.243   9.402
 2887POPC   PO438364   4.021  29.607   9.415
 2887POPC   GL138365   4.262  29.717   9.039
 2887POPC   GL238366   4.472  29.960   9.066
 2887POPC   C1A38367   4.209  29.935   8.633
 2887POPC   D2A38368   3.981  30.205   8.334
 2887POPC   C3A38369   4.091  30.044   7.940
 2887POPC   C4A38370   4.227  29.740   7.623
 2887POPC   C1B38371   4.685  30.107   8.745
 2887POPC   C2B38372   4.710  29.893   8.376
 2887POPC   C3B38373   4.734  30.141   8.060
 2887POPC   C4B38374   4.525  30.163   7.728
 2888POPC   NC338375  15.160   7.742   9.508
 2888POPC   PO438376  15.647   8.022   9.665
 2888POPC   GL138377  15.371   8.049   9.188
 2888POPC   GL238378  15.439   7.742   9.039
 2888POPC   C1A38379  15.151   8.291   8.848
 2888POPC   D2A38380  15.314   8.489   8.498
 2888POPC   C3A38381  14.986   8.553   8.211
 2888POPC   C4A38382  15.074   8.634   7.790
 2888POPC   C1B38383  15.158   7.795   8.729
 2888POPC   C2B38384  15.037   8.066   8.390
 2888POPC   C3B38385  15.079   8.120   7.939
 2888POPC   C4B38386  15.040   7.854   7.580
 2889POPC   NC338387   3.193  12.120   9.473
 2889POPC   PO438388   3.824  11.928   9.614
 2889POPC   GL138389   3.645  11.972   9.215
 2889POPC   GL238390   3.407  11.711   9.241
 2889POPC   C1A38391   3.685  12.207   8.825
 2889POPC   D2A38392   3.443  12.143   8.472
 2889POPC   C3A38393   3.679  12.142   8.085
 2889POPC   C4A38394   3.696  12.436   7.747
 2889POPC   C1B38395   3.521  11.685   8.800
 2889POPC   C2B38396   3.337  11.630   8.378
 2889POPC   C3B38397   3.145  11.943   8.108
 2889POPC   C4B38398   3.291  12.104   7.736
 2890POPC   NC338399   1.907   8.699   9.466
 2890POPC   PO438400   2.352   9.203   9.481
 2890POPC   GL138401   2.158   8.995   9.116
 2890POPC   GL238402   1.767   8.929   9.053
 2890POPC   C1A38403   2.102   9.012   8.679
 2890POPC   D2A38404   2.150   8.762   8.339
 2890POPC   C3A38405   1.985   8.989   8.003
 2890POPC   C4A38406   1.775   8.951   7.621
 2890POPC   C1B38407   1.745   8.636   8.706
 2890POPC   C2B38408   1.620   8.661   8.282
 2890POPC   C3B38409   1.745   8.501   7.884
 2890POPC   C4B38410   1.669   8.491   7.399
 2891POPC   NC338411  11.952   7.958   9.609
 2891POPC   PO438412  11.394   8.289   9.689
 2891POPC   GL138413  11.875   8.397   9.354
 2891POPC   GL238414  12.207   8.134   9.218
 2891POPC   C1A38415  12.094   8.500   8.900
 2891POPC   D2A38416  12.335   8.537   8.494
 2891POPC   C3A38417  12.153   8.338   8.105
 2891POPC   C4A38418  12.225   8.490   7.689
 2891POPC   C1B38419  12.073   7.968   8.853
 2891POPC   C2B38420  12.174   7.886   8.441
 2891POPC   C3B38421  12.220   7.811   8.025
 2891POPC   C4B38422  12.062   8.016   7.657
 2892POPC   NC338423  32.909  12.708   9.583
 2892POPC   PO438424  33.425  13.063   9.279
 2892POPC   GL138425  33.068  12.845   9.062
 2892POPC   GL238426  32.707  12.690   9.125
 2892POPC   C1A38427  33.035  12.951   8.617
 2892POPC   D2A38428  33.211  12.793   8.253
 2892POPC   C3A38429  33.248  13.039   7.855
 2892POPC   C4A38430  33.010  12.850   7.522
 2892POPC   C1B38431  32.561  12.875   8.766
 2892POPC   C2B38432  32.629  12.734   8.347
 2892POPC   C3B38433  32.751  12.938   7.978
 2892POPC   C4B38434  32.531  12.992   7.592
 2893POPC   NC338435  35.493  19.180   9.584
 2893POPC   PO438436  34.847  19.143   9.393
 2893POPC   GL138437  35.227  18.952   9.176
 2893POPC   GL238438  35.311  19.255   9.096
 2893POPC   C1A38439  35.451  18.893   8.753
 2893POPC   D2A38440  35.715  18.962   8.382
 2893POPC   C3A38441  35.511  19.143   8.011
 2893POPC   C4A38442  35.408  18.988   7.617
 2893POPC   C1B38443  35.015  19.159   8.732
 2893POPC   C2B38444  34.953  19.001   8.299
 2893POPC   C3B38445  34.957  19.060   7.832
 2893POPC   C4B38446  34.945  19.160   7.368
 2894POPC   NC338447  21.056  30.689   9.520
 2894POPC   PO438448  21.560  31.106   9.377
 2894POPC   GL138449  21.307  30.903   9.121
 2894POPC   GL238450  21.416  30.559   9.173
 2894POPC   C1A38451  21.347  30.790   8.713
 2894POPC   D2A38452  21.635  30.891   8.413
 2894POPC   C3A38453  21.474  30.898   7.982
 2894POPC   C4A38454  21.066  30.765   7.782
 2894POPC   C1B38455  21.497  30.322   8.785
 2894POPC   C2B38456  21.425  30.393   8.360
 2894POPC   C3B38457  21.647  30.335   7.999
 2894POPC   C4B38458  21.506  30.505   7.660
 2895POPC   NC338459  27.882   2.345   9.719
 2895POPC   PO438460  27.793   3.049   9.498
 2895POPC   GL138461  27.736   3.060   9.055
 2895POPC   GL238462  27.469   2.784   8.926
 2895POPC   C1A38463  27.906   2.870   8.672
 2895POPC   D2A38464  27.707   2.675   8.352
 2895POPC   C3A38465  27.722   2.949   8.061
 2895POPC   C4A38466  27.703   3.070   7.686
 2895POPC   C1B38467  27.515   2.351   8.706
 2895POPC   C2B38468  27.438   2.252   8.257
 2895POPC   C3B38469  27.401   2.547   7.935
 2895POPC   C4B38470  27.796   2.553   7.738
 2896POPC   NC338471   7.435   2.322   9.837
 2896POPC   PO438472   7.335   1.677   9.589
 2896POPC   GL138473   7.388   1.975   9.240
 2896POPC   GL238474   7.232   1.743   9.037
 2896POPC   C1A38475   7.673   2.017   8.843
 2896POPC   D2A38476   7.674   2.230   8.474
 2896POPC   C3A38477   7.727   1.989   8.119
 2896POPC   C4A38478   7.805   2.230   7.793
 2896POPC   C1B38479   7.193   2.088   8.748
 2896POPC   C2B38480   7.234   2.018   8.315
 2896POPC   C3B38481   7.297   2.139   7.894
 2896POPC   C4B38482   7.282   2.103   7.483
 2897POPC   NC338483   1.737  24.634   9.299
 2897POPC   PO438484   1.151  24.771   9.547
 2897POPC   GL138485   1.227  24.599   9.116
 2897POPC   GL238486   1.495  24.698   8.873
 2897POPC   C1A38487   1.160  24.298   8.765
 2897POPC   D2A38488   0.935  24.251   8.376
 2897POPC   C3A38489   1.223  24.104   8.078
 2897POPC   C4A38490   1.391  24.363   7.779
 2897POPC   C1B38491   1.141  24.943   8.745
 2897POPC   C2B38492   1.049  24.765   8.364
 2897POPC   C3B38493   1.107  24.749   7.957
 2897POPC   C4B38494   1.499  24.866   7.772
 2898POPC   NC338495   2.402  15.118   9.415
 2898POPC   PO438496   2.998  15.487   9.547
 2898POPC   GL138497   2.656  15.533   9.223
 2898POPC   GL238498   2.803  15.232   9.104
 2898POPC   C1A38499   2.447  15.394   8.790
 2898POPC   D2A38500   2.623  15.232   8.378
 2898POPC   C3A38501   2.583  15.357   7.937
 2898POPC   C4A38502   2.587  15.128   7.562
 2898POPC   C1B38503   3.036  15.240   8.719
 2898POPC   C2B38504   3.150  15.153   8.281
 2898POPC   C3B38505   2.946  14.996   7.900
 2898POPC   C4B38506   2.914  14.759   7.455
 2899POPC   NC338507  27.391   7.929   9.649
 2899POPC   PO438508  27.830   8.444   9.750
 2899POPC   GL138509  27.549   8.302   9.337
 2899POPC   GL238510  27.712   8.325   9.041
 2899POPC   C1A38511  27.383   7.948   8.995
 2899POPC   D2A38512  27.439   7.844   8.535
 2899POPC   C3A38513  27.328   8.089   8.133
 2899POPC   C4A38514  27.538   7.933   7.768
 2899POPC   C1B38515  27.409   8.392   8.716
 2899POPC   C2B38516  27.704   8.307   8.393
 2899POPC   C3B38517  27.776   8.468   7.997
 2899POPC   C4B38518  27.718   8.373   7.647
 2900POPC   NC338519  24.536  15.697   9.507
 2900POPC   PO438520  24.283  16.307   9.513
 2900POPC   GL138521  24.308  16.032   9.172
 2900POPC   GL238522  24.665  16.089   9.185
 2900POPC   C1A38523  24.278  15.925   8.730
 2900POPC   D2A38524  24.111  16.072   8.353
 2900POPC   C3A38525  24.315  15.921   8.001
 2900POPC   C4A38526  24.127  15.966   7.622
 2900POPC   C1B38527  24.747  16.136   8.754
 2900POPC   C2B38528  24.764  15.999   8.319
 2900POPC   C3B38529  24.800  15.984   7.875
 2900POPC   C4B38530  24.824  15.938   7.445
 2901POPC   NC338531   3.135  42.126   9.409
 2901POPC   PO438532   3.804  42.424   9.569
 2901POPC   GL138533   3.527  42.440   9.227
 2901POPC   GL238534   3.753  42.216   9.060
 2901POPC   C1A38535   3.346  42.385   8.810
 2901POPC   D2A38536   3.611  42.208   8.478
 2901POPC   C3A38537   3.581  42.396   8.060
 2901POPC   C4A38538   3.540  42.212   7.668
 2901POPC   C1B38539   3.806  42.600   8.788
 2901POPC   C2B38540   3.963  42.616   8.359
 2901POPC   C3B38541   4.002  42.643   7.901
 2901POPC   C4B38542   3.794  42.652   7.546
 2902POPC   NC338543  37.408  38.638   9.490
 2902POPC   PO438544  38.034  38.379   9.602
 2902POPC   GL138545  37.909  38.458   9.154
 2902POPC   GL238546  37.580  38.536   9.035
 2902POPC   C1A38547  37.989  38.610   8.745
 2902POPC   D2A38548  37.983  38.358   8.383
 2902POPC   C3A38549  37.666  38.483   8.126
 2902POPC   C4A38550  37.685  38.714   7.748
 2902POPC   C1B38551  37.638  38.185   8.765
 2902POPC   C2B38552  37.680  37.936   8.394
 2902POPC   C3B38553  37.390  38.041   8.094
 2902POPC   C4B38554  37.470  38.244   7.705
 2903POPC   NC338555  24.108  15.045   9.917
 2903POPC   PO438556  24.632  15.248   9.544
 2903POPC   GL138557  24.483  15.278   9.141
 2903POPC   GL238558  24.532  15.582   9.002
 2903POPC   C1A38559  24.751  15.090   8.807
 2903POPC   D2A38560  24.920  15.054   8.392
 2903POPC   C3A38561  24.564  14.963   8.186
 2903POPC   C4A38562  24.307  15.046   7.851
 2903POPC   C1B38563  24.323  15.320   8.657
 2903POPC   C2B38564  24.309  15.421   8.241
 2903POPC   C3B38565  24.679  15.510   8.086
 2903POPC   C4B38566  24.628  15.527   7.696
 2904POPC   NC338567  43.590  37.184   9.718
 2904POPC   PO438568  43.942  36.686   9.573
 2904POPC   GL138569  43.848  36.926   9.225
 2904POPC   GL238570  44.191  36.823   9.085
 2904POPC   C1A38571  43.753  36.894   8.793
 2904POPC   D2A38572  43.895  37.118   8.439
 2904POPC   C3A38573  43.789  36.936   8.060
 2904POPC   C4A38574  43.737  37.141   7.723
 2904POPC   C1B38575  44.293  36.859   8.644
 2904POPC   C2B38576  44.305  36.868   8.159
 2904POPC   C3B38577  44.181  36.787   7.705
 2904POPC   C4B38578  44.135  36.703   7.249
 2905POPC   NC338579  18.871  16.475   9.444
 2905POPC   PO438580  19.474  16.357   9.537
 2905POPC   GL138581  19.303  16.584   9.170
 2905POPC   GL238582  19.101  16.911   9.255
 2905POPC   C1A38583  19.361  16.514   8.729
 2905POPC   D2A38584  19.396  16.419   8.277
 2905POPC   C3A38585  19.040  16.508   8.017
 2905POPC   C4A38586  18.801  16.664   7.667
 2905POPC   C1B38587  18.921  16.799   8.843
 2905POPC   C2B38588  19.073  16.828   8.419
 2905POPC   C3B38589  19.104  17.030   8.014
 2905POPC   C4B38590  18.776  17.167   7.768
 2906POPC   NC338591  39.695  21.614   9.295
 2906POPC   PO438592  39.329  21.112   9.652
 2906POPC   GL138593  39.270  21.175   9.218
 2906POPC   GL238594  39.595  21.124   9.157
 2906POPC   C1A38595  39.215  21.332   8.786
 2906POPC   D2A38596  39.087  21.097   8.432
 2906POPC   C3A38597  38.946  21.400   8.214
 2906POPC   C4A38598  39.074  21.567   7.843
 2906POPC   C1B38599  39.524  20.936   8.749
 2906POPC   C2B38600  39.584  21.211   8.390
 2906POPC   C3B38601  39.401  21.201   8.007
 2906POPC   C4B38602  39.506  20.884   7.748
 2907POPC   NC338603  42.649  13.728   9.324
 2907POPC   PO438604  42.074  13.399   9.588
 2907POPC   GL138605  42.271  13.427   9.196
 2907POPC   GL238606  42.176  13.772   9.119
 2907POPC   C1A38607  42.466  13.477   8.743
 2907POPC   D2A38608  42.753  13.640   8.386
 2907POPC   C3A38609  42.605  13.607   7.979
 2907POPC   C4A38610  42.212  13.461   7.896
 2907POPC   C1B38611  42.194  13.927   8.714
 2907POPC   C2B38612  42.216  13.802   8.290
 2907POPC   C3B38613  42.282  14.001   7.885
 2907POPC   C4B38614  42.429  13.874   7.460
 2908POPC   NC338615  25.910  41.356   9.562
 2908POPC   PO438616  25.946  40.637   9.553
 2908POPC   GL138617  26.063  40.778   9.143
 2908POPC   GL238618  26.153  41.130   9.162
 2908POPC   C1A38619  26.330  40.700   8.766
 2908POPC   D2A38620  26.369  40.922   8.349
 2908POPC   C3A38621  26.145  40.666   8.024
 2908POPC   C4A38622  25.787  40.462   7.835
 2908POPC   C1B38623  26.028  41.117   8.750
 2908POPC   C2B38624  25.839  41.202   8.396
 2908POPC   C3B38625  26.078  41.239   8.047
 2908POPC   C4B38626  25.925  41.115   7.720
 2909POPC   NC338627  36.573  33.659   9.410
 2909POPC   PO438628  37.230  33.918   9.496
 2909POPC   GL138629  36.969  33.894   9.147
 2909POPC   GL238630  37.025  33.546   9.157
 2909POPC   C1A38631  36.650  33.953   8.813
 2909POPC   D2A38632  36.674  33.991   8.383
 2909POPC   C3A38633  36.731  33.689   8.089
 2909POPC   C4A38634  36.874  33.775   7.695
 2909POPC   C1B38635  36.956  33.558   8.734
 2909POPC   C2B38636  37.168  33.430   8.401
 2909POPC   C3B38637  37.243  33.629   8.065
 2909POPC   C4B38638  37.300  33.499   7.701
 2910POPC   NC338639  15.548   3.729   9.467
 2910POPC   PO438640  14.869   3.533   9.407
 2910POPC   GL138641  15.150   3.623   9.126
 2910POPC   GL238642  15.276   3.318   9.160
 2910POPC   C1A38643  15.213   3.645   8.700
 2910POPC   D2A38644  15.381   3.454   8.331
 2910POPC   C3A38645  15.380   3.649   7.912
 2910POPC   C4A38646  15.499   3.604   7.474
 2910POPC   C1B38647  14.919   3.199   8.865
 2910POPC   C2B38648  14.705   3.328   8.506
 2910POPC   C3B38649  14.890   3.395   8.134
 2910POPC   C4B38650  15.030   3.302   7.747
 2911POPC   NC338651  14.120  41.497   9.468
 2911POPC   PO438652  14.574  40.983   9.426
 2911POPC   GL138653  14.507  41.357   9.118
 2911POPC   GL238654  14.357  41.720   9.045
 2911POPC   C1A38655  14.543  41.488   8.668
 2911POPC   D2A38656  14.464  41.775   8.336
 2911POPC   C3A38657  14.426  41.474   8.034
 2911POPC   C4A38658  14.759  41.441   7.777
 2911POPC   C1B38659  14.033  41.522   8.763
 2911POPC   C2B38660  13.978  41.217   8.395
 2911POPC   C3B38661  13.897  41.321   7.982
 2911POPC   C4B38662  14.062  41.636   7.709
 2912POPC   NC338663  25.339   6.376   9.565
 2912POPC   PO438664  25.061   7.081   9.475
 2912POPC   GL138665  25.048   6.839   9.120
 2912POPC   GL238666  25.378   6.701   9.177
 2912POPC   C1A38667  25.098   6.490   8.803
 2912POPC   D2A38668  25.125   6.369   8.377
 2912POPC   C3A38669  25.124   6.737   8.139
 2912POPC   C4A38670  25.008   6.618   7.774
 2912POPC   C1B38671  25.617   6.556   8.869
 2912POPC   C2B38672  25.518   6.665   8.474
 2912POPC   C3B38673  25.596   6.564   8.064
 2912POPC   C4B38674  25.528   6.782   7.723
 2913POPC   NC338675  18.282   3.203   9.570
 2913POPC   PO438676  18.329   2.594   9.612
 2913POPC   GL138677  18.352   2.774   9.175
 2913POPC   GL238678  18.564   3.076   9.147
 2913POPC   C1A38679  18.194   2.682   8.717
 2913POPC   D2A38680  18.117   2.960   8.314
 2913POPC   C3A38681  18.049   2.749   7.902
 2913POPC   C4A38682  18.134   2.456   7.532
 2913POPC   C1B38683  18.399   3.132   8.723
 2913POPC   C2B38684  18.606   3.099   8.322
 2913POPC   C3B38685  18.456   3.100   7.902
 2913POPC   C4B38686  18.377   2.886   7.492
 2914POPC   NC338687  35.654  37.955   9.428
 2914POPC   PO438688  36.371  38.008   9.540
 2914POPC   GL138689  36.106  37.823   9.144
 2914POPC   GL238690  35.785  37.991   8.953
 2914POPC   C1A38691  36.086  37.665   8.699
 2914POPC   D2A38692  36.267  37.924   8.391
 2914POPC   C3A38693  36.369  37.831   7.978
 2914POPC   C4A38694  36.179  37.522   7.783
 2914POPC   C1B38695  35.689  37.946   8.521
 2914POPC   C2B38696  35.821  37.670   8.220
 2914POPC   C3B38697  35.731  37.727   7.803
 2914POPC   C4B38698  35.859  37.666   7.382
 2915POPC   NC338699  26.483  12.476   9.437
 2915POPC   PO438700  26.831  11.967   9.710
 2915POPC   GL138701  26.797  12.020   9.247
 2915POPC   GL238702  26.914  12.347   9.143
 2915POPC   C1A38703  26.943  11.982   8.800
 2915POPC   D2A38704  26.981  12.251   8.486
 2915POPC   C3A38705  26.911  12.058   8.097
 2915POPC   C4A38706  27.018  12.201   7.683
 2915POPC   C1B38707  26.595  12.365   8.791
 2915POPC   C2B38708  26.501  12.356   8.326
 2915POPC   C3B38709  26.732  12.528   7.970
 2915POPC   C4B38710  26.669  12.506   7.489
 2916POPC   NC338711  32.658  30.942   9.480
 2916POPC   PO438712  33.219  30.569   9.432
 2916POPC   GL138713  32.895  30.622   9.158
 2916POPC   GL238714  32.967  30.957   9.061
 2916POPC   C1A38715  32.678  30.509   8.788
 2916POPC   D2A38716  32.795  30.318   8.378
 2916POPC   C3A38717  33.183  30.371   8.121
 2916POPC   C4A38718  33.312  30.789   7.917
 2916POPC   C1B38719  32.641  31.053   8.730
 2916POPC   C2B38720  32.660  31.156   8.266
 2916POPC   C3B38721  32.775  30.911   7.873
 2916POPC   C4B38722  32.742  31.037   7.391
 2917POPC   NC338723  34.834  36.518   9.348
 2917POPC   PO438724  34.467  35.975   9.482
 2917POPC   GL138725  34.645  35.871   9.110
 2917POPC   GL238726  34.973  35.932   9.223
 2917POPC   C1A38727  34.541  36.080   8.740
 2917POPC   D2A38728  34.349  36.282   8.381
 2917POPC   C3A38729  34.442  36.126   7.984
 2917POPC   C4A38730  34.305  36.204   7.575
 2917POPC   C1B38731  35.064  36.098   8.816
 2917POPC   C2B38732  34.908  36.229   8.410
 2917POPC   C3B38733  34.967  36.077   8.008
 2917POPC   C4B38734  34.800  36.277   7.642
 2918POPC   NC338735  28.944  39.039   9.641
 2918POPC   PO438736  29.200  39.569   9.455
 2918POPC   GL138737  29.017  39.317   9.169
 2918POPC   GL238738  29.257  39.061   9.213
 2918POPC   C1A38739  28.757  39.333   8.795
 2918POPC   D2A38740  28.670  39.086   8.420
 2918POPC   C3A38741  28.930  39.228   8.095
 2918POPC   C4A38742  28.908  39.556   7.775
 2918POPC   C1B38743  29.522  38.916   8.829
 2918POPC   C2B38744  29.391  39.024   8.404
 2918POPC   C3B38745  29.483  39.019   7.982
 2918POPC   C4B38746  29.204  39.127   7.679
 2919POPC   NC338747  14.027  43.614   9.819
 2919POPC   PO438748  14.564  43.751   9.534
 2919POPC   GL138749  14.692  43.988   9.196
 2919POPC   GL238750  14.413  44.189   9.142
 2919POPC   C1A38751  14.732  44.115   8.765
 2919POPC   D2A38752  14.670  43.840   8.427
 2919POPC   C3A38753  14.667  43.995   8.016
 2919POPC   C4A38754  14.676  43.658   7.773
 2919POPC   C1B38755  14.296  43.872   8.794
 2919POPC   C2B38756  14.203  44.001   8.415
 2919POPC   C3B38757  14.211  44.190   8.080
 2919POPC   C4B38758  14.177  43.883   7.786
 2920POPC   NC338759   1.605  24.881   9.726
 2920POPC   PO438760   2.121  24.430   9.449
 2920POPC   GL138761   2.161  24.594   9.053
 2920POPC   GL238762   2.045  24.237   8.980
 2920POPC   C1A38763   1.974  24.618   8.658
 2920POPC   D2A38764   2.097  24.564   8.268
 2920POPC   C3A38765   1.864  24.532   7.928
 2920POPC   C4A38766   2.051  24.701   7.619
 2920POPC   C1B38767   1.677  24.175   8.751
 2920POPC   C2B38768   1.624  24.307   8.332
 2920POPC   C3B38769   1.729  24.046   7.960
 2920POPC   C4B38770   1.757  24.071   7.468
 2921POPC   NC338771  38.385  22.105   9.418
 2921POPC   PO438772  38.870  22.519   9.651
 2921POPC   GL138773  38.779  22.341   9.190
 2921POPC   GL238774  38.832  21.980   9.190
 2921POPC   C1A38775  38.591  22.304   8.722
 2921POPC   D2A38776  38.336  22.067   8.367
 2921POPC   C3A38777  38.279  22.109   7.894
 2921POPC   C4A38778  38.195  22.467   7.678
 2921POPC   C1B38779  38.836  21.847   8.765
 2921POPC   C2B38780  38.896  22.000   8.353
 2921POPC   C3B38781  38.781  22.097   7.935
 2921POPC   C4B38782  38.922  21.936   7.544
 2922POPC   NC338783   0.232  33.114   9.584
 2922POPC   PO438784   0.789  32.728   9.560
 2922POPC   GL138785   0.588  32.912   9.165
 2922POPC   GL238786   0.383  33.242   9.125
 2922POPC   C1A38787   0.369  32.789   8.767
 2922POPC   D2A38788   0.427  32.580   8.348
 2922POPC   C3A38789   0.226  32.775   7.992
 2922POPC   C4A38790   0.294  32.967   7.563
 2922POPC   C1B38791   0.549  33.297   8.730
 2922POPC   C2B38792   0.404  33.124   8.362
 2922POPC   C3B38793   0.528  33.181   7.971
 2922POPC   C4B38794   0.480  33.453   7.665
 2923POPC   NC338795  33.415  37.332   9.325
 2923POPC   PO438796  33.567  37.935   9.470
 2923POPC   GL138797  33.887  37.790   9.176
 2923POPC   GL238798  33.870  37.466   9.116
 2923POPC   C1A38799  34.101  37.774   8.772
 2923POPC   D2A38800  34.158  37.538   8.377
 2923POPC   C3A38801  33.956  37.784   8.026
 2923POPC   C4A38802  33.571  37.819   7.752
 2923POPC   C1B38803  33.703  37.323   8.726
 2923POPC   C2B38804  33.867  37.073   8.421
 2923POPC   C3B38805  34.011  37.176   8.032
 2923POPC   C4B38806  33.813  37.375   7.681
 2924POPC   NC338807  34.948  37.268   9.599
 2924POPC   PO438808  34.465  36.847   9.326
 2924POPC   GL138809  34.599  37.151   9.070
 2924POPC   GL238810  34.836  36.912   8.992
 2924POPC   C1A38811  34.561  37.074   8.600
 2924POPC   D2A38812  34.723  36.746   8.318
 2924POPC   C3A38813  34.572  36.773   7.889
 2924POPC   C4A38814  34.274  37.033   7.613
 2924POPC   C1B38815  35.016  36.640   8.735
 2924POPC   C2B38816  35.235  36.618   8.387
 2924POPC   C3B38817  35.080  36.587   7.993
 2924POPC   C4B38818  35.003  36.757   7.596
 2925POPC   NC338819  29.435   8.570   9.670
 2925POPC   PO438820  28.767   8.492   9.690
 2925POPC   GL138821  29.050   8.498   9.285
 2925POPC   GL238822  29.223   8.154   9.243
 2925POPC   C1A38823  29.200   8.452   8.819
 2925POPC   D2A38824  29.266   8.228   8.396
 2925POPC   C3A38825  29.142   8.376   7.973
 2925POPC   C4A38826  29.469   8.578   7.723
 2925POPC   C1B38827  29.160   7.932   8.824
 2925POPC   C2B38828  28.960   7.837   8.403
 2925POPC   C3B38829  29.080   7.849   7.960
 2925POPC   C4B38830  28.938   7.952   7.531
 2926POPC   NC338831   1.846  33.343   9.469
 2926POPC   PO438832   2.405  32.965   9.488
 2926POPC   GL138833   2.062  32.936   9.191
 2926POPC   GL238834   1.965  32.569   9.196
 2926POPC   C1A38835   1.990  33.255   8.846
 2926POPC   D2A38836   1.830  33.184   8.458
 2926POPC   C3A38837   2.072  33.168   8.094
 2926POPC   C4A38838   1.879  33.259   7.717
 2926POPC   C1B38839   1.861  32.704   8.751
 2926POPC   C2B38840   1.868  32.702   8.279
 2926POPC   C3B38841   1.900  32.745   7.833
 2926POPC   C4B38842   2.181  32.827   7.483
 2927POPC   NC338843  42.978  22.769   9.708
 2927POPC   PO438844  42.965  22.117   9.522
 2927POPC   GL138845  43.130  22.164   9.135
 2927POPC   GL238846  42.905  22.463   9.152
 2927POPC   C1A38847  43.151  21.868   8.774
 2927POPC   D2A38848  43.037  21.659   8.386
 2927POPC   C3A38849  43.194  21.913   8.042
 2927POPC   C4A38850  43.104  22.029   7.618
 2927POPC   C1B38851  43.075  22.513   8.735
 2927POPC   C2B38852  43.143  22.325   8.355
 2927POPC   C3B38853  43.270  22.521   7.973
 2927POPC   C4B38854  43.234  22.577   7.538
 2928POPC   NC338855  39.200   9.236   9.495
 2928POPC   PO438856  39.518   8.646   9.470
 2928POPC   GL138857  39.432   8.902   9.149
 2928POPC   GL238858  39.099   8.976   9.034
 2928POPC   C1A38859  39.531   8.795   8.748
 2928POPC   D2A38860  39.812   8.904   8.425
 2928POPC   C3A38861  39.555   8.835   8.065
 2928POPC   C4A38862  39.222   8.874   7.798
 2928POPC   C1B38863  38.860   9.154   8.653
 2928POPC   C2B38864  39.009   9.315   8.230
 2928POPC   C3B38865  38.902   9.299   7.769
 2928POPC   C4B38866  39.049   9.117   7.375
 2929POPC   NC338867  26.176  26.430   9.737
 2929POPC   PO438868  25.921  25.747   9.492
 2929POPC   GL138869  26.073  25.819   9.064
 2929POPC   GL238870  26.136  26.166   8.938
 2929POPC   C1A38871  25.910  25.787   8.680
 2929POPC   D2A38872  26.167  25.929   8.383
 2929POPC   C3A38873  25.964  25.919   8.011
 2929POPC   C4A38874  26.352  25.998   7.876
 2929POPC   C1B38875  26.471  26.280   8.686
 2929POPC   C2B38876  26.360  26.476   8.321
 2929POPC   C3B38877  25.973  26.403   8.165
 2929POPC   C4B38878  25.855  26.370   7.759
 2930POPC   NC338879  21.042  19.938   9.876
 2930POPC   PO438880  20.491  19.752   9.503
 2930POPC   GL138881  20.510  19.652   9.058
 2930POPC   GL238882  20.601  20.042   9.032
 2930POPC   C1A38883  20.369  19.797   8.636
 2930POPC   D2A38884  20.410  20.231   8.488
 2930POPC   C3A38885  20.514  20.241   8.077
 2930POPC   C4A38886  20.298  20.221   7.739
 2930POPC   C1B38887  21.004  20.174   8.806
 2930POPC   C2B38888  20.906  20.106   8.409
 2930POPC   C3B38889  20.731  19.784   8.186
 2930POPC   C4B38890  20.580  19.759   7.769
 2931POPC   NC338891  15.054   2.255   9.279
 2931POPC   PO438892  15.036   1.639   9.458
 2931POPC   GL138893  15.191   1.816   9.084
 2931POPC   GL238894  14.885   1.830   8.980
 2931POPC   C1A38895  15.381   2.030   8.703
 2931POPC   D2A38896  15.467   2.212   8.300
 2931POPC   C3A38897  15.496   2.006   7.884
 2931POPC   C4A38898  15.620   2.065   7.427
 2931POPC   C1B38899  14.912   1.919   8.569
 2931POPC   C2B38900  14.975   2.090   8.220
 2931POPC   C3B38901  14.928   1.921   7.846
 2931POPC   C4B38902  15.153   1.923   7.487
 2932POPC   NC338903  16.754  15.576   9.326
 2932POPC   PO438904  16.556  16.201   9.262
 2932POPC   GL138905  16.632  16.031   8.891
 2932POPC   GL238906  16.949  15.938   9.026
 2932POPC   C1A38907  16.594  16.003   8.411
 2932POPC   D2A38908  16.451  15.661   8.097
 2932POPC   C3A38909  16.717  15.699   7.785
 2932POPC   C4A38910  16.926  16.068   7.688
 2932POPC   C1B38911  17.137  15.724   8.732
 2932POPC   C2B38912  17.271  15.936   8.361
 2932POPC   C3B38913  17.226  15.751   7.952
 2932POPC   C4B38914  17.220  15.430   7.647
 2933POPC   NC338915   1.611   2.543   9.700
 2933POPC   PO438916   2.185   2.360   9.293
 2933POPC   GL138917   1.843   2.601   9.182
 2933POPC   GL238918   1.894   2.953   9.305
 2933POPC   C1A38919   1.744   2.523   8.744
 2933POPC   D2A38920   1.991   2.484   8.346
 2933POPC   C3A38921   1.840   2.567   7.955
 2933POPC   C4A38922   2.113   2.796   7.730
 2933POPC   C1B38923   1.790   3.022   8.894
 2933POPC   C2B38924   1.897   2.979   8.470
 2933POPC   C3B38925   1.805   3.064   8.062
 2933POPC   C4B38926   1.657   3.046   7.649
 2934POPC   NC338927   5.169  13.708   9.557
 2934POPC   PO438928   4.726  13.273   9.415
 2934POPC   GL138929   4.977  13.597   9.109
 2934POPC   GL238930   5.246  13.899   9.106
 2934POPC   C1A38931   5.068  13.616   8.663
 2934POPC   D2A38932   4.997  13.319   8.331
 2934POPC   C3A38933   5.333  13.264   8.022
 2934POPC   C4A38934   5.405  13.421   7.645
 2934POPC   C1B38935   4.999  14.115   8.796
 2934POPC   C2B38936   4.999  14.034   8.349
 2934POPC   C3B38937   5.156  13.746   8.076
 2934POPC   C4B38938   4.916  13.643   7.740
 2935POPC   NC338939  11.322  15.489   9.311
 2935POPC   PO438940  11.282  16.090   9.699
 2935POPC   GL138941  11.401  16.217   9.244
 2935POPC   GL238942  11.473  15.921   9.045
 2935POPC   C1A38943  11.202  16.269   8.786
 2935POPC   D2A38944  10.882  16.345   8.427
 2935POPC   C3A38945  10.978  16.168   7.998
 2935POPC   C4A38946  11.396  16.077   7.792
 2935POPC   C1B38947  11.376  15.813   8.613
 2935POPC   C2B38948  11.247  15.802   8.201
 2935POPC   C3B38949  11.110  15.679   7.773
 2935POPC   C4B38950  11.532  15.570   7.623
 2936POPC   NC338951  36.450  19.260   9.375
 2936POPC   PO438952  35.787  18.890   9.396
 2936POPC   GL138953  36.035  19.067   9.103
 2936POPC   GL238954  35.942  19.407   9.201
 2936POPC   C1A38955  36.153  19.109   8.660
 2936POPC   D2A38956  36.267  18.856   8.292
 2936POPC   C3A38957  36.183  18.975   7.852
 2936POPC   C4A38958  35.890  18.854   7.538
 2936POPC   C1B38959  35.714  19.334   8.808
 2936POPC   C2B38960  35.723  19.483   8.380
 2936POPC   C3B38961  35.970  19.433   7.990
 2936POPC   C4B38962  36.314  19.437   7.650
 2937POPC   NC338963  42.021  19.457   9.207
 2937POPC   PO438964  42.305  18.880   9.551
 2937POPC   GL138965  42.383  19.096   9.215
 2937POPC   GL238966  42.090  18.945   9.083
 2937POPC   C1A38967  42.493  19.116   8.787
 2937POPC   D2A38968  42.436  18.807   8.470
 2937POPC   C3A38969  42.536  19.019   8.118
 2937POPC   C4A38970  42.414  19.369   7.865
 2937POPC   C1B38971  41.961  18.962   8.668
 2937POPC   C2B38972  42.049  19.194   8.293
 2937POPC   C3B38973  42.036  19.022   7.891
 2937POPC   C4B38974  41.747  18.846   7.602
 2938POPC   NC338975  36.275   3.083   9.609
 2938POPC   PO438976  35.829   2.658   9.541
 2938POPC   GL138977  36.217   2.738   9.218
 2938POPC   GL238978  36.388   2.430   9.090
 2938POPC   C1A38979  36.400   2.834   8.789
 2938POPC   D2A38980  36.195   2.870   8.415
 2938POPC   C3A38981  36.331   2.946   8.020
 2938POPC   C4A38982  36.128   3.020   7.624
 2938POPC   C1B38983  36.208   2.364   8.676
 2938POPC   C2B38984  36.141   2.360   8.222
 2938POPC   C3B38985  36.082   2.537   7.815
 2938POPC   C4B38986  36.091   2.553   7.344
 2939POPC   NC338987  32.568  43.070   9.527
 2939POPC   PO438988  33.168  43.264   9.678
 2939POPC   GL138989  33.017  43.153   9.269
 2939POPC   GL238990  33.369  43.129   9.199
 2939POPC   C1A38991  32.757  43.150   8.867
 2939POPC   D2A38992  32.892  42.991   8.459
 2939POPC   C3A38993  32.781  43.000   8.057
 2939POPC   C4A38994  32.907  43.005   7.632
 2939POPC   C1B38995  33.275  43.080   8.787
 2939POPC   C2B38996  33.284  43.293   8.382
 2939POPC   C3B38997  33.280  43.117   7.992
 2939POPC   C4B38998  33.447  42.964   7.627
 2940POPC   NC338999  43.431  21.130   9.596
 2940POPC   PO439000  43.847  21.647   9.508
 2940POPC   GL139001  43.972  21.368   9.199
 2940POPC   GL239002  43.762  21.102   9.223
 2940POPC   C1A39003  44.000  21.491   8.792
 2940POPC   D2A39004  44.028  21.709   8.416
 2940POPC   C3A39005  43.954  21.494   8.052
 2940POPC   C4A39006  44.078  21.651   7.719
 2940POPC   C1B39007  43.753  20.981   8.827
 2940POPC   C2B39008  43.813  21.150   8.432
 2940POPC   C3B39009  43.753  21.026   8.023
 2940POPC   C4B39010  43.725  21.208   7.609
 2941POPC   NC339011  42.982  38.730   9.443
 2941POPC   PO439012  42.869  38.089   9.478
 2941POPC   GL139013  42.896  38.341   9.127
 2941POPC   GL239014  43.267  38.405   9.081
 2941POPC   C1A39015  42.887  38.496   8.734
 2941POPC   D2A39016  43.148  38.579   8.422
 2941POPC   C3A39017  43.024  38.537   7.989
 2941POPC   C4A39018  43.391  38.657   7.737
 2941POPC   C1B39019  43.303  38.144   8.693
 2941POPC   C2B39020  43.269  38.109   8.246
 2941POPC   C3B39021  43.347  38.120   7.812
 2941POPC   C4B39022  43.022  38.242   7.538
 2942POPC   NC339023  18.025   4.985   9.409
 2942POPC   PO439024  17.449   5.092   9.704
 2942POPC   GL139025  17.575   4.848   9.251
 2942POPC   GL239026  17.661   5.068   9.044
 2942POPC   C1A39027  17.356   4.704   8.863
 2942POPC   D2A39028  17.384   4.750   8.431
 2942POPC   C3A39029  17.402   5.115   8.170
 2942POPC   C4A39030  17.408   5.062   7.766
 2942POPC   C1B39031  17.547   5.207   8.663
 2942POPC   C2B39032  17.780   5.435   8.361
 2942POPC   C3B39033  17.827   5.353   7.939
 2942POPC   C4B39034  17.848   5.574   7.575
 2943POPC   NC339035  37.856  20.211   9.443
 2943POPC   PO439036  37.346  19.849   9.657
 2943POPC   GL139037  37.468  19.858   9.190
 2943POPC   GL239038  37.781  19.798   9.174
 2943POPC   C1A39039  37.564  19.644   8.750
 2943POPC   D2A39040  37.487  19.419   8.335
 2943POPC   C3A39041  37.633  19.606   7.968
 2943POPC   C4A39042  37.607  19.882   7.629
 2943POPC   C1B39043  37.887  20.040   8.816
 2943POPC   C2B39044  37.748  20.210   8.425
 2943POPC   C3B39045  37.906  20.055   8.037
 2943POPC   C4B39046  38.148  19.908   7.719
 2944POPC   NC339047  38.216  21.134   9.583
 2944POPC   PO439048  37.489  21.232   9.538
 2944POPC   GL139049  37.596  21.435   9.147
 2944POPC   GL239050  37.958  21.390   9.161
 2944POPC   C1A39051  37.594  21.435   8.690
 2944POPC   D2A39052  37.502  21.587   8.234
 2944POPC   C3A39053  37.704  21.300   7.951
 2944POPC   C4A39054  37.663  21.181   7.531
 2944POPC   C1B39055  38.154  21.512   8.788
 2944POPC   C2B39056  38.006  21.521   8.379
 2944POPC   C3B39057  38.033  21.690   8.006
 2944POPC   C4B39058  37.899  21.657   7.592
 2945POPC   NC339059  31.694  26.085   9.473
 2945POPC   PO439060  31.008  26.106   9.325
 2945POPC   GL139061  31.386  26.116   9.070
 2945POPC   GL239062  31.575  25.811   9.055
 2945POPC   C1A39063  31.611  26.218   8.710
 2945POPC   D2A39064  31.445  26.313   8.346
 2945POPC   C3A39065  31.675  26.283   8.000
 2945POPC   C4A39066  31.727  26.042   7.654
 2945POPC   C1B39067  31.446  25.744   8.664
 2945POPC   C2B39068  31.622  25.837   8.283
 2945POPC   C3B39069  31.665  25.575   7.958
 2945POPC   C4B39070  31.540  25.557   7.567
 2946POPC   NC339071   7.817   5.105   9.548
 2946POPC   PO439072   7.253   4.648   9.590
 2946POPC   GL139073   7.159   4.704   9.150
 2946POPC   GL239074   7.315   5.012   9.084
 2946POPC   C1A39075   7.345   4.609   8.734
 2946POPC   D2A39076   7.527   4.860   8.393
 2946POPC   C3A39077   7.405   4.945   7.952
 2946POPC   C4A39078   7.564   5.083   7.507
 2946POPC   C1B39079   6.918   5.201   8.907
 2946POPC   C2B39080   6.812   5.336   8.491
 2946POPC   C3B39081   7.064   5.308   8.123
 2946POPC   C4B39082   7.249   5.397   7.721
 2947POPC   NC339083  32.312  38.041   9.499
 2947POPC   PO439084  32.137  37.341   9.546
 2947POPC   GL139085  32.242  37.596   9.232
 2947POPC   GL239086  32.431  37.410   9.072
 2947POPC   C1A39087  32.036  37.841   8.929
 2947POPC   D2A39088  31.881  37.794   8.515
 2947POPC   C3A39089  32.179  37.728   8.202
 2947POPC   C4A39090  32.137  37.861   7.812
 2947POPC   C1B39091  32.692  37.411   8.732
 2947POPC   C2B39092  32.682  37.575   8.366
 2947POPC   C3B39093  32.790  37.458   8.001
 2947POPC   C4B39094  32.507  37.508   7.702
 2948POPC   NC339095  25.168  18.894   9.569
 2948POPC   PO439096  25.005  19.434   9.253
 2948POPC   GL139097  25.333  19.143   9.124
 2948POPC   GL239098  25.626  19.382   9.165
 2948POPC   C1A39099  25.307  18.837   8.766
 2948POPC   D2A39100  25.258  18.674   8.334
 2948POPC   C3A39101  25.167  19.005   8.037
 2948POPC   C4A39102  24.830  19.073   7.748
 2948POPC   C1B39103  25.444  19.497   8.788
 2948POPC   C2B39104  25.364  19.306   8.432
 2948POPC   C3B39105  25.543  19.350   8.041
 2948POPC   C4B39106  25.268  19.360   7.673
 2949POPC   NC339107  19.236  34.717   9.279
 2949POPC   PO439108  18.804  34.396   9.658
 2949POPC   GL139109  18.853  34.412   9.173
 2949POPC   GL239110  19.197  34.312   8.979
 2949POPC   C1A39111  18.865  34.580   8.727
 2949POPC   D2A39112  19.119  34.616   8.352
 2949POPC   C3A39113  18.813  34.586   8.024
 2949POPC   C4A39114  18.825  34.730   7.601
 2949POPC   C1B39115  19.510  34.387   8.642
 2949POPC   C2B39116  19.562  34.316   8.187
 2949POPC   C3B39117  19.278  34.458   7.851
 2949POPC   C4B39118  19.235  34.442   7.399
 2950POPC   NC339119  15.027   5.497   9.494
 2950POPC   PO439120  15.420   4.927   9.489
 2950POPC   GL139121  15.329   5.190   9.152
 2950POPC   GL239122  14.950   5.138   9.130
 2950POPC   C1A39123  15.555   5.057   8.778
 2950POPC   D2A39124  15.563   4.684   8.488
 2950POPC   C3A39125  15.438   4.756   8.075
 2950POPC   C4A39126  15.120   4.757   7.762
 2950POPC   C1B39127  15.100   5.288   8.692
 2950POPC   C2B39128  15.273   5.272   8.243
 2950POPC   C3B39129  15.155   5.272   7.796
 2950POPC   C4B39130  14.794   5.526   7.646
 2951POPC   NC339131  12.638  10.789   9.597
 2951POPC   PO439132  12.644  11.402   9.576
 2951POPC   GL139133  12.859  11.213   9.249
 2951POPC   GL239134  12.684  11.391   9.033
 2951POPC   C1A39135  13.157  11.252   8.889
 2951POPC   D2A39136  13.194  11.050   8.489
 2951POPC   C3A39137  13.098  11.254   8.080
 2951POPC   C4A39138  13.087  11.160   7.650
 2951POPC   C1B39139  12.658  11.088   8.743
 2951POPC   C2B39140  12.593  11.060   8.329
 2951POPC   C3B39141  12.627  11.150   7.919
 2951POPC   C4B39142  12.707  10.828   7.692
 2952POPC   NC339143   5.517  40.816   9.351
 2952POPC   PO439144   4.846  40.928   9.666
 2952POPC   GL139145   4.862  40.894   9.219
 2952POPC   GL239146   4.968  40.543   9.157
 2952POPC   C1A39147   4.995  40.899   8.763
 2952POPC   D2A39148   4.871  40.736   8.338
 2952POPC   C3A39149   5.130  40.939   8.021
 2952POPC   C4A39150   5.551  40.802   7.904
 2952POPC   C1B39151   4.968  40.355   8.730
 2952POPC   C2B39152   5.134  40.213   8.344
 2952POPC   C3B39153   5.171  40.434   7.954
 2952POPC   C4B39154   4.903  40.617   7.661
 2953POPC   NC339155  11.155  18.852   9.507
 2953POPC   PO439156  10.633  19.352   9.546
 2953POPC   GL139157  10.884  19.359   9.174
 2953POPC   GL239158  11.181  19.119   9.097
 2953POPC   C1A39159  10.875  19.228   8.739
 2953POPC   D2A39160  11.239  19.163   8.490
 2953POPC   C3A39161  11.109  18.996   8.109
 2953POPC   C4A39162  11.059  19.126   7.703
 2953POPC   C1B39163  11.500  18.895   8.866
 2953POPC   C2B39164  11.728  18.960   8.492
 2953POPC   C3B39165  11.600  18.898   8.095
 2953POPC   C4B39166  11.565  19.087   7.718
 2954POPC   NC339167  42.689  21.779   9.667
 2954POPC   PO439168  42.179  21.348   9.447
 2954POPC   GL139169  42.254  21.586   9.065
 2954POPC   GL239170  42.297  21.280   8.928
 2954POPC   C1A39171  42.613  21.605   8.705
 2954POPC   D2A39172  42.665  21.260   8.398
 2954POPC   C3A39173  42.440  21.273   7.988
 2954POPC   C4A39174  42.281  21.606   7.729
 2954POPC   C1B39175  42.103  21.344   8.586
 2954POPC   C2B39176  41.972  21.220   8.225
 2954POPC   C3B39177  41.928  21.259   7.817
 2954POPC   C4B39178  42.083  21.222   7.388
 2955POPC   NC339179  43.424  23.637   9.548
 2955POPC   PO439180  43.829  24.208   9.603
 2955POPC   GL139181  43.920  23.978   9.235
 2955POPC   GL239182  43.767  23.636   9.158
 2955POPC   C1A39183  44.130  23.886   8.849
 2955POPC   D2A39184  43.938  23.705   8.505
 2955POPC   C3A39185  44.090  23.781   8.124
 2955POPC   C4A39186  43.931  23.854   7.721
 2955POPC   C1B39187  43.593  23.913   8.850
 2955POPC   C2B39188  43.583  24.073   8.457
 2955POPC   C3B39189  43.579  23.851   8.075
 2955POPC   C4B39190  43.417  23.967   7.687
 2956POPC   NC339191   4.465  15.710   9.582
 2956POPC   PO439192   4.314  16.401   9.691
 2956POPC   GL139193   4.435  16.198   9.265
 2956POPC   GL239194   4.209  15.942   9.188
 2956POPC   C1A39195   4.472  16.085   8.767
 2956POPC   D2A39196   4.144  15.954   8.452
 2956POPC   C3A39197   3.965  15.999   7.996
 2956POPC   C4A39198   4.099  16.033   7.529
 2956POPC   C1B39199   4.236  15.625   8.866
 2956POPC   C2B39200   4.395  15.480   8.483
 2956POPC   C3B39201   4.341  15.637   8.076
 2956POPC   C4B39202   4.342  15.596   7.646
 2957POPC   NC339203  28.683   3.797   9.774
 2957POPC   PO439204  29.012   4.237   9.490
 2957POPC   GL139205  29.108   4.253   9.057
 2957POPC   GL239206  29.417   4.445   8.941
 2957POPC   C1A39207  28.891   4.288   8.656
 2957POPC   D2A39208  29.123   4.397   8.301
 2957POPC   C3A39209  28.963   4.337   7.880
 2957POPC   C4A39210  28.973   4.169   7.446
 2957POPC   C1B39211  29.387   4.069   8.658
 2957POPC   C2B39212  29.510   3.980   8.232
 2957POPC   C3B39213  29.481   4.326   7.935
 2957POPC   C4B39214  29.474   4.272   7.495
 2958POPC   NC339215  11.039  37.306   9.424
 2958POPC   PO439216  10.478  36.953   9.617
 2958POPC   GL139217  10.653  36.990   9.197
 2958POPC   GL239218  10.950  36.758   9.205
 2958POPC   C1A39219  10.511  37.158   8.754
 2958POPC   D2A39220  10.281  37.346   8.359
 2958POPC   C3A39221  10.408  37.127   7.960
 2958POPC   C4A39222  10.402  36.801   7.606
 2958POPC   C1B39223  10.722  36.655   8.816
 2958POPC   C2B39224  10.515  36.719   8.406
 2958POPC   C3B39225  10.699  36.687   8.001
 2958POPC   C4B39226  10.896  37.035   7.774
 2959POPC   NC339227  38.737  18.941   9.478
 2959POPC   PO439228  38.064  19.152   9.631
 2959POPC   GL139229  38.321  19.105   9.236
 2959POPC   GL239230  38.617  19.329   9.140
 2959POPC   C1A39231  38.293  19.057   8.799
 2959POPC   D2A39232  38.473  18.842   8.466
 2959POPC   C3A39233  38.473  19.040   8.091
 2959POPC   C4A39234  38.396  19.071   7.698
 2959POPC   C1B39235  38.791  19.171   8.736
 2959POPC   C2B39236  38.822  19.346   8.291
 2959POPC   C3B39237  38.912  19.170   7.847
 2959POPC   C4B39238  38.786  19.132   7.384
 2960POPC   NC339239   9.793  33.291   9.640
 2960POPC   PO439240   9.978  32.691   9.462
 2960POPC   GL139241   9.813  32.951   9.135
 2960POPC   GL239242   9.997  33.305   9.159
 2960POPC   C1A39243   9.613  32.791   8.751
 2960POPC   D2A39244   9.412  32.937   8.356
 2960POPC   C3A39245   9.487  32.830   7.946
 2960POPC   C4A39246   9.465  33.163   7.665
 2960POPC   C1B39247  10.112  33.190   8.756
 2960POPC   C2B39248   9.898  33.070   8.417
 2960POPC   C3B39249   9.808  33.213   8.035
 2960POPC   C4B39250   9.962  33.373   7.647
 2961POPC   NC339251  27.145  14.048   9.332
 2961POPC   PO439252  26.545  14.252   9.295
 2961POPC   GL139253  26.772  14.521   9.028
 2961POPC   GL239254  27.126  14.545   9.141
 2961POPC   C1A39255  26.642  14.337   8.638
 2961POPC   D2A39256  26.581  14.165   8.245
 2961POPC   C3A39257  26.724  14.520   8.018
 2961POPC   C4A39258  26.781  14.753   7.664
 2961POPC   C1B39259  27.187  14.339   8.746
 2961POPC   C2B39260  27.075  14.314   8.346
 2961POPC   C3B39261  27.045  14.114   7.990
 2961POPC   C4B39262  26.895  14.231   7.612
 2962POPC   NC339263  24.463  31.430   9.504
 2962POPC   PO439264  25.118  31.503   9.552
 2962POPC   GL139265  24.855  31.456   9.175
 2962POPC   GL239266  24.554  31.251   9.037
 2962POPC   C1A39267  24.874  31.521   8.740
 2962POPC   D2A39268  24.934  31.209   8.415
 2962POPC   C3A39269  24.773  31.320   8.039
 2962POPC   C4A39270  24.397  31.127   7.893
 2962POPC   C1B39271  24.184  31.467   8.793
 2962POPC   C2B39272  24.155  31.689   8.378
 2962POPC   C3B39273  24.402  31.657   7.989
 2962POPC   C4B39274  24.830  31.835   7.840
 2963POPC   NC339275  10.137  42.300  10.008
 2963POPC   PO439276   9.730  42.318   9.505
 2963POPC   GL139277   9.855  42.201   9.139
 2963POPC   GL239278  10.172  41.988   9.255
 2963POPC   C1A39279   9.574  42.268   8.776
 2963POPC   D2A39280   9.367  42.405   8.410
 2963POPC   C3A39281   9.541  42.492   7.982
 2963POPC   C4A39282   9.955  42.583   7.824
 2963POPC   C1B39283   9.991  41.776   8.902
 2963POPC   C2B39284   9.863  41.938   8.525
 2963POPC   C3B39285   9.874  42.183   8.195
 2963POPC   C4B39286   9.934  42.020   7.808
 2964POPC   NC339287  30.972   0.727   9.629
 2964POPC   PO439288  31.568   1.004   9.422
 2964POPC   GL139289  31.427   0.646   9.165
 2964POPC   GL239290  31.236   0.852   8.935
 2964POPC   C1A39291  31.445   0.407   8.747
 2964POPC   D2A39292  31.435   0.630   8.332
 2964POPC   C3A39293  31.368   0.397   7.970
 2964POPC   C4A39294  31.674   0.181   7.776
 2964POPC   C1B39295  31.670   0.859   8.736
 2964POPC   C2B39296  31.920   0.809   8.349
 2964POPC   C3B39297  31.767   0.724   7.913
 2964POPC   C4B39298  31.641   0.671   7.472
 2965POPC   NC339299   5.767  32.189   9.559
 2965POPC   PO439300   6.001  32.669   9.194
 2965POPC   GL139301   5.907  32.323   9.038
 2965POPC   GL239302   6.136  32.073   9.200
 2965POPC   C1A39303   5.805  32.385   8.599
 2965POPC   D2A39304   5.601  32.136   8.302
 2965POPC   C3A39305   5.784  32.253   7.991
 2965POPC   C4A39306   6.037  32.577   7.919
 2965POPC   C1B39307   6.280  32.134   8.761
 2965POPC   C2B39308   6.198  32.113   8.302
 2965POPC   C3B39309   6.373  32.183   7.883
 2965POPC   C4B39310   6.452  31.928   7.478
 2966POPC   NC339311  10.683  30.586   9.656
 2966POPC   PO439312  10.081  30.781   9.450
 2966POPC   GL139313  10.442  30.599   9.185
 2966POPC   GL239314  10.776  30.807   9.184
 2966POPC   C1A39315  10.572  30.516   8.751
 2966POPC   D2A39316  10.423  30.732   8.372
 2966POPC   C3A39317  10.472  30.494   8.000
 2966POPC   C4A39318  10.494  30.519   7.562
 2966POPC   C1B39319  10.626  31.031   8.810
 2966POPC   C2B39320  10.820  31.057   8.384
 2966POPC   C3B39321  10.692  30.984   7.973
 2966POPC   C4B39322  10.907  30.779   7.665
 2967POPC   NC339323  30.320  31.391   9.573
 2967POPC   PO439324  29.743  31.514   9.635
 2967POPC   GL139325  29.947  31.391   9.226
 2967POPC   GL239326  30.074  31.059   9.125
 2967POPC   C1A39327  30.011  31.469   8.786
 2967POPC   D2A39328  30.082  31.302   8.366
 2967POPC   C3A39329  30.057  31.612   8.072
 2967POPC   C4A39330  30.019  31.613   7.653
 2967POPC   C1B39331  29.818  31.003   8.694
 2967POPC   C2B39332  29.624  31.138   8.254
 2967POPC   C3B39333  29.700  31.208   7.784
 2967POPC   C4B39334  29.625  30.876   7.444
 2968POPC   NC339335  20.153  39.335   9.378
 2968POPC   PO439336  19.532  39.116   9.441
 2968POPC   GL139337  19.827  39.004   9.155
 2968POPC   GL239338  19.763  39.329   8.993
 2968POPC   C1A39339  19.942  38.900   8.731
 2968POPC   D2A39340  19.948  39.182   8.372
 2968POPC   C3A39341  19.580  39.265   8.141
 2968POPC   C4A39342  19.628  39.189   7.688
 2968POPC   C1B39343  20.093  39.519   8.735
 2968POPC   C2B39344  20.096  39.708   8.318
 2968POPC   C3B39345  20.002  39.496   7.916
 2968POPC   C4B39346  19.970  39.529   7.439
 2969POPC   NC339347   6.293  29.411   9.834
 2969POPC   PO439348   5.890  29.806   9.455
 2969POPC   GL139349   5.635  29.898   9.105
 2969POPC   GL239350   5.370  29.661   9.012
 2969POPC   C1A39351   5.836  29.913   8.719
 2969POPC   D2A39352   6.190  29.879   8.424
 2969POPC   C3A39353   6.078  30.002   8.004
 2969POPC   C4A39354   6.035  29.889   7.549
 2969POPC   C1B39355   5.550  29.500   8.649
 2969POPC   C2B39356   5.665  29.715   8.273
 2969POPC   C3B39357   5.741  29.629   7.867
 2969POPC   C4B39358   5.604  29.646   7.395
 2970POPC   NC339359  27.723  11.215   9.560
 2970POPC   PO439360  28.270  11.618   9.541
 2970POPC   GL139361  28.249  11.282   9.223
 2970POPC   GL239362  28.575  11.282   9.064
 2970POPC   C1A39363  28.217  11.132   8.764
 2970POPC   D2A39364  28.440  10.991   8.374
 2970POPC   C3A39365  28.258  11.180   8.005
 2970POPC   C4A39366  28.118  11.454   7.664
 2970POPC   C1B39367  28.776  11.115   8.755
 2970POPC   C2B39368  28.997  11.268   8.435
 2970POPC   C3B39369  28.793  11.182   8.065
 2970POPC   C4B39370  28.654  11.327   7.684
 2971POPC   NC339371  31.036  24.524   9.607
 2971POPC   PO439372  30.469  24.153   9.571
 2971POPC   GL139373  30.613  24.450   9.284
 2971POPC   GL239374  30.901  24.264   9.198
 2971POPC   C1A39375  30.487  24.497   8.861
 2971POPC   D2A39376  30.505  24.352   8.435
 2971POPC   C3A39377  30.498  24.687   8.097
 2971POPC   C4A39378  30.250  24.868   7.754
 2971POPC   C1B39379  30.982  24.614   8.921
 2971POPC   C2B39380  30.947  24.595   8.494
 2971POPC   C3B39381  30.942  24.464   8.078
 2971POPC   C4B39382  30.906  24.775   7.736
 2972POPC   NC339383  40.676  33.170   9.535
 2972POPC   PO439384  40.832  32.535   9.469
 2972POPC   GL139385  40.550  32.680   9.099
 2972POPC   GL239386  40.549  33.052   9.052
 2972POPC   C1A39387  40.494  32.761   8.622
 2972POPC   D2A39388  40.730  32.932   8.260
 2972POPC   C3A39389  40.745  32.823   7.836
 2972POPC   C4A39390  41.111  32.832   7.588
 2972POPC   C1B39391  40.916  33.027   8.755
 2972POPC   C2B39392  41.157  33.201   8.400
 2972POPC   C3B39393  41.068  33.202   7.966
 2972POPC   C4B39394  40.713  33.344   7.769
 2973POPC   NC339395  21.169   7.757   9.526
 2973POPC   PO439396  20.574   8.080   9.549
 2973POPC   GL139397  20.398   8.192   9.156
 2973POPC   GL239398  20.274   8.522   9.054
 2973POPC   C1A39399  20.369   8.103   8.736
 2973POPC   D2A39400  20.366   8.120   8.326
 2973POPC   C3A39401  20.694   8.014   8.048
 2973POPC   C4A39402  20.483   8.234   7.752
 2973POPC   C1B39403  20.641   8.523   8.740
 2973POPC   C2B39404  20.741   8.483   8.284
 2973POPC   C3B39405  20.921   8.448   7.869
 2973POPC   C4B39406  21.195   8.416   7.526
 2974POPC   NC339407  34.828  22.103   9.768
 2974POPC   PO439408  34.333  22.464   9.574
 2974POPC   GL139409  34.465  22.133   9.296
 2974POPC   GL239410  34.797  22.159   9.258
 2974POPC   C1A39411  34.348  22.084   8.853
 2974POPC   D2A39412  34.095  22.129   8.438
 2974POPC   C3A39413  34.297  22.153   8.009
 2974POPC   C4A39414  34.508  21.870   7.788
 2974POPC   C1B39415  34.866  22.175   8.835
 2974POPC   C2B39416  34.912  22.349   8.447
 2974POPC   C3B39417  34.795  22.302   8.020
 2974POPC   C4B39418  34.938  22.613   7.780
 2975POPC   NC339419  42.832   1.077   9.508
 2975POPC   PO439420  42.222   1.344   9.834
 2975POPC   GL139421  42.260   1.202   9.341
 2975POPC   GL239422  42.548   1.127   9.108
 2975POPC   C1A39423  42.141   1.327   8.887
 2975POPC   D2A39424  42.283   1.379   8.427
 2975POPC   C3A39425  42.174   1.226   7.987
 2975POPC   C4A39426  42.204   1.482   7.593
 2975POPC   C1B39427  42.669   1.413   8.785
 2975POPC   C2B39428  42.790   1.315   8.357
 2975POPC   C3B39429  42.694   1.198   7.945
 2975POPC   C4B39430  42.946   1.040   7.604
 2976POPC   NC339431  24.986   8.525   9.547
 2976POPC   PO439432  25.430   9.008   9.687
 2976POPC   GL139433  25.362   8.922   9.282
 2976POPC   GL239434  25.578   8.644   9.214
 2976POPC   C1A39435  25.360   9.004   8.844
 2976POPC   D2A39436  25.543   8.952   8.438
 2976POPC   C3A39437  25.289   9.022   8.045
 2976POPC   C4A39438  25.170   9.254   7.645
 2976POPC   C1B39439  25.396   8.502   8.799
 2976POPC   C2B39440  25.286   8.507   8.362
 2976POPC   C3B39441  25.595   8.614   8.034
 2976POPC   C4B39442  25.489   8.795   7.633
 2977POPC   NC339443  42.522  13.343   9.730
 2977POPC   PO439444  42.604  12.647   9.605
 2977POPC   GL139445  42.422  12.615   9.224
 2977POPC   GL239446  42.481  12.963   9.144
 2977POPC   C1A39447  42.203  12.562   8.857
 2977POPC   D2A39448  42.170  12.841   8.522
 2977POPC   C3A39449  42.398  12.690   8.180
 2977POPC   C4A39450  42.233  12.529   7.836
 2977POPC   C1B39451  42.641  12.967   8.719
 2977POPC   C2B39452  42.517  13.179   8.321
 2977POPC   C3B39453  42.583  13.102   7.901
 2977POPC   C4B39454  42.226  13.019   7.662
 2978POPC   NC339455  35.998  10.654   9.697
 2978POPC   PO439456  36.443  10.263   9.380
 2978POPC   GL139457  36.332  10.575   9.087
 2978POPC   GL239458  36.021  10.692   9.155
 2978POPC   C1A39459  36.251  10.619   8.645
 2978POPC   D2A39460  36.270  10.407   8.253
 2978POPC   C3A39461  36.436  10.611   7.906
 2978POPC   C4A39462  36.248  10.275   7.678
 2978POPC   C1B39463  35.823  10.904   8.790
 2978POPC   C2B39464  36.002  11.046   8.402
 2978POPC   C3B39465  36.002  10.846   8.030
 2978POPC   C4B39466  35.823  10.935   7.669
 2979POPC   NC339467  37.547  17.957   9.535
 2979POPC   PO439468  38.096  18.409   9.545
 2979POPC   GL139469  37.845  18.262   9.221
 2979POPC   GL239470  37.590  18.458   9.078
 2979POPC   C1A39471  37.910  18.207   8.786
 2979POPC   D2A39472  37.692  18.322   8.391
 2979POPC   C3A39473  37.894  18.276   7.995
 2979POPC   C4A39474  37.683  18.214   7.594
 2979POPC   C1B39475  37.412  18.132   8.814
 2979POPC   C2B39476  37.487  17.861   8.441
 2979POPC   C3B39477  37.435  18.026   8.012
 2979POPC   C4B39478  37.305  17.844   7.605
 2980POPC   NC339479  26.295  44.823   9.354
 2980POPC   PO439480  25.771  44.383   9.439
 2980POPC   GL139481  25.929  44.571   9.080
 2980POPC   GL239482  25.776  44.882   9.130
 2980POPC   C1A39483  26.204  44.549   8.691
 2980POPC   D2A39484  26.316  44.753   8.287
 2980POPC   C3A39485  26.176  44.456   7.958
 2980POPC   C4A39486  26.107  44.389   7.516
 2980POPC   C1B39487  25.923  44.973   8.737
 2980POPC   C2B39488  25.821  44.845   8.312
 2980POPC   C3B39489  25.757  44.929   7.877
 2980POPC   C4B39490  25.817   0.269   7.591
 2981POPC   NC339491  32.462  42.136   9.829
 2981POPC   PO439492  32.812  42.652   9.605
 2981POPC   GL139493  33.082  42.399   9.330
 2981POPC   GL239494  33.113  42.665   9.119
 2981POPC   C1A39495  33.075  42.148   8.914
 2981POPC   D2A39496  32.763  42.092   8.531
 2981POPC   C3A39497  32.590  42.191   8.102
 2981POPC   C4A39498  32.818  42.257   7.717
 2981POPC   C1B39499  32.883  42.585   8.744
 2981POPC   C2B39500  32.924  42.527   8.278
 2981POPC   C3B39501  33.128  42.627   7.883
 2981POPC   C4B39502  33.113  42.580   7.400
 2982POPC   NC339503  35.113   7.883   9.445
 2982POPC   PO439504  35.446   8.516   9.416
 2982POPC   GL139505  35.442   8.345   9.048
 2982POPC   GL239506  35.303   8.008   9.010
 2982POPC   C1A39507  35.433   8.300   8.633
 2982POPC   D2A39508  35.347   8.049   8.333
 2982POPC   C3A39509  35.511   8.312   8.042
 2982POPC   C4A39510  35.375   8.353   7.630
 2982POPC   C1B39511  34.985   7.996   8.720
 2982POPC   C2B39512  34.806   7.910   8.331
 2982POPC   C3B39513  35.058   7.713   8.022
 2982POPC   C4B39514  35.156   7.909   7.640
 2983POPC   NC339515  10.218  16.769   9.527
 2983POPC   PO439516  10.871  16.587   9.321
 2983POPC   GL139517  10.572  16.777   9.130
 2983POPC   GL239518  10.756  17.067   9.051
 2983POPC   C1A39519  10.292  16.720   8.828
 2983POPC   D2A39520  10.283  16.923   8.448
 2983POPC   C3A39521  10.341  16.717   8.032
 2983POPC   C4A39522  10.135  16.451   7.729
 2983POPC   C1B39523  10.725  17.132   8.630
 2983POPC   C2B39524  10.772  16.932   8.257
 2983POPC   C3B39525  10.739  16.970   7.801
 2983POPC   C4B39526  10.635  17.058   7.346
 2984POPC   NC339527   0.664  40.688   9.533
 2984POPC   PO439528   0.431  41.272   9.293
 2984POPC   GL139529   0.289  40.891   9.186
 2984POPC   GL239530   0.291  40.537   9.188
 2984POPC   C1A39531   0.183  40.836   8.793
 2984POPC   D2A39532   0.470  40.984   8.501
 2984POPC   C3A39533   0.277  41.044   8.108
 2984POPC   C4A39534   0.322  40.873   7.692
 2984POPC   C1B39535   0.648  40.634   8.894
 2984POPC   C2B39536   0.736  40.538   8.460
 2984POPC   C3B39537   0.697  40.737   8.057
 2984POPC   C4B39538   0.717  40.554   7.649
 2985POPC   NC339539  40.917  35.284  10.028
 2985POPC   PO439540  40.469  35.424   9.509
 2985POPC   GL139541  40.664  35.201   9.118
 2985POPC   GL239542  40.477  34.938   8.977
 2985POPC   C1A39543  40.826  35.374   8.714
 2985POPC   D2A39544  40.838  35.279   8.288
 2985POPC   C3A39545  40.778  35.590   7.986
 2985POPC   C4A39546  40.878  35.537   7.536
 2985POPC   C1B39547  40.163  34.947   8.667
 2985POPC   C2B39548  40.182  34.861   8.263
 2985POPC   C3B39549  40.459  35.082   8.033
 2985POPC   C4B39550  40.695  35.011   7.693
 2986POPC   NC339551  12.421   6.371   9.421
 2986POPC   PO439552  11.709   6.507   9.432
 2986POPC   GL139553  12.086   6.681   9.182
 2986POPC   GL239554  12.167   7.051   9.135
 2986POPC   C1A39555  12.313   6.565   8.802
 2986POPC   D2A39556  12.062   6.552   8.458
 2986POPC   C3A39557  12.240   6.440   8.086
 2986POPC   C4A39558  11.975   6.314   7.780
 2986POPC   C1B39559  12.379   7.072   8.721
 2986POPC   C2B39560  12.425   6.870   8.304
 2986POPC   C3B39561  12.334   6.886   7.820
 2986POPC   C4B39562  12.127   7.090   7.402
 2987POPC   NC339563   5.613  19.736   9.591
 2987POPC   PO439564   4.963  19.700   9.468
 2987POPC   GL139565   5.150  19.910   9.130
 2987POPC   GL239566   4.880  20.177   9.027
 2987POPC   C1A39567   5.280  19.678   8.773
 2987POPC   D2A39568   5.137  19.500   8.398
 2987POPC   C3A39569   5.149  19.783   8.066
 2987POPC   C4A39570   5.087  19.730   7.652
 2987POPC   C1B39571   4.799  19.845   8.751
 2987POPC   C2B39572   4.726  19.882   8.335
 2987POPC   C3B39573   4.585  19.707   7.959
 2987POPC   C4B39574   4.616  20.012   7.663
 2988POPC   NC339575  35.252  29.863   9.549
 2988POPC   PO439576  35.916  29.801   9.479
 2988POPC   GL139577  35.588  29.962   9.163
 2988POPC   GL239578  35.412  29.663   9.106
 2988POPC   C1A39579  35.429  30.053   8.735
 2988POPC   D2A39580  35.420  30.231   8.297
 2988POPC   C3A39581  35.303  30.040   7.886
 2988POPC   C4A39582  35.520  30.036   7.492
 2988POPC   C1B39583  35.117  29.652   8.776
 2988POPC   C2B39584  35.154  29.785   8.358
 2988POPC   C3B39585  34.954  29.706   7.979
 2988POPC   C4B39586  35.164  29.621   7.586
 2989POPC   NC339587  39.109  25.628   9.511
 2989POPC   PO439588  39.212  26.192   9.758
 2989POPC   GL139589  39.143  26.154   9.293
 2989POPC   GL239590  39.365  25.885   9.149
 2989POPC   C1A39591  39.133  26.259   8.829
 2989POPC   D2A39592  39.201  26.470   8.425
 2989POPC   C3A39593  39.052  26.307   8.038
 2989POPC   C4A39594  39.031  25.902   7.917
 2989POPC   C1B39595  39.567  25.962   8.767
 2989POPC   C2B39596  39.346  25.919   8.391
 2989POPC   C3B39597  39.530  25.913   8.018
 2989POPC   C4B39598  39.632  26.052   7.644
 2990POPC   NC339599  44.300  24.118   9.590
 2990POPC   PO439600  44.774  23.648   9.599
 2990POPC   GL139601  44.843  23.585   9.190
 2990POPC   GL239602  44.580  23.360   9.077
 2990POPC   C1A39603  44.665  23.811   8.831
 2990POPC   D2A39604  44.481  23.652   8.462
 2990POPC   C3A39605  44.592  23.919   8.132
 2990POPC   C4A39606  44.428  23.950   7.759
 2990POPC   C1B39607  44.904  23.363   8.739
 2990POPC   C2B39608   0.047  23.551   8.354
 2990POPC   C3B39609  44.785  23.449   8.037
 2990POPC   C4B39610  44.357  23.378   7.974
 2991POPC   NC339611  42.597  43.429   9.374
 2991POPC   PO439612  42.726  42.668   9.366
 2991POPC   GL139613  42.518  42.918   9.067
 2991POPC   GL239614  42.253  43.184   9.071
 2991POPC   C1A39615  42.598  43.160   8.700
 2991POPC   D2A39616  42.459  43.059   8.324
 2991POPC   C3A39617  42.626  43.124   7.972
 2991POPC   C4A39618  42.532  42.816   7.708
 2991POPC   C1B39619  42.076  43.220   8.616
 2991POPC   C2B39620  41.994  43.149   8.130
 2991POPC   C3B39621  42.074  43.098   7.673
 2991POPC   C4B39622  42.085  43.349   7.270
 2992POPC   NC339623  16.947   6.235   9.556
 2992POPC   PO439624  16.461   5.735   9.598
 2992POPC   GL139625  16.639   5.707   9.187
 2992POPC   GL239626  16.754   6.026   9.145
 2992POPC   C1A39627  16.792   5.683   8.761
 2992POPC   D2A39628  16.635   5.614   8.333
 2992POPC   C3A39629  16.920   5.623   8.026
 2992POPC   C4A39630  16.971   5.860   7.650
 2992POPC   C1B39631  16.425   6.125   8.863
 2992POPC   C2B39632  16.459   6.093   8.430
 2992POPC   C3B39633  16.601   6.044   8.013
 2992POPC   C4B39634  16.282   6.091   7.691
 2993POPC   NC339635  34.209   0.157   9.368
 2993POPC   PO439636  34.693   0.659   9.600
 2993POPC   GL139637  34.539   0.549   9.225
 2993POPC   GL239638  34.702   0.242   9.217
 2993POPC   C1A39639  34.436   0.638   8.796
 2993POPC   D2A39640  34.375   0.389   8.425
 2993POPC   C3A39641  34.481   0.613   8.066
 2993POPC   C4A39642  34.411   0.438   7.677
 2993POPC   C1B39643  34.680   0.163   8.779
 2993POPC   C2B39644  34.739   0.027   8.332
 2993POPC   C3B39645  34.859   0.286   7.961
 2993POPC   C4B39646  34.858   0.346   7.495
 2994POPC   NC339647  37.388  30.686   9.476
 2994POPC   PO439648  38.008  30.372   9.682
 2994POPC   GL139649  37.873  30.771   9.280
 2994POPC   GL239650  37.595  30.942   9.098
 2994POPC   C1A39651  37.930  30.796   8.751
 2994POPC   D2A39652  37.719  30.522   8.394
 2994POPC   C3A39653  37.851  30.462   7.939
 2994POPC   C4A39654  37.768  30.571   7.493
 2994POPC   C1B39655  37.446  30.621   8.834
 2994POPC   C2B39656  37.124  30.609   8.561
 2994POPC   C3B39657  37.252  30.634   8.158
 2994POPC   C4B39658  37.354  30.618   7.776
 2995POPC   NC339659  14.209  14.640   9.558
 2995POPC   PO439660  14.379  13.992   9.538
 2995POPC   GL139661  14.384  14.311   9.201
 2995POPC   GL239662  14.519  14.652   9.171
 2995POPC   C1A39663  14.546  14.302   8.784
 2995POPC   D2A39664  14.560  14.066   8.400
 2995POPC   C3A39665  14.542  14.346   8.059
 2995POPC   C4A39666  14.252  14.319   7.721
 2995POPC   C1B39667  14.178  14.663   8.870
 2995POPC   C2B39668  14.182  14.482   8.460
 2995POPC   C3B39669  14.082  14.643   8.074
 2995POPC   C4B39670  14.084  14.861   7.706
 2996POPC   NC339671  13.253   2.477   9.506
 2996POPC   PO439672  13.722   3.020   9.503
 2996POPC   GL139673  13.538   2.828   9.175
 2996POPC   GL239674  13.711   2.545   9.204
 2996POPC   C1A39675  13.381   2.859   8.764
 2996POPC   D2A39676  13.224   2.780   8.367
 2996POPC   C3A39677  13.469   2.969   8.047
 2996POPC   C4A39678  13.908   2.995   7.963
 2996POPC   C1B39679  13.676   2.403   8.777
 2996POPC   C2B39680  13.708   2.566   8.331
 2996POPC   C3B39681  13.699   2.543   7.861
 2996POPC   C4B39682  13.907   2.572   7.440
 2997POPC   NC339683  13.898  12.126   9.443
 2997POPC   PO439684  14.458  12.363   9.605
 2997POPC   GL139685  14.371  12.133   9.206
 2997POPC   GL239686  14.538  11.831   9.221
 2997POPC   C1A39687  14.132  12.197   8.799
 2997POPC   D2A39688  14.025  12.418   8.394
 2997POPC   C3A39689  14.262  12.219   8.054
 2997POPC   C4A39690  14.535  12.162   7.684
 2997POPC   C1B39691  14.442  11.758   8.800
 2997POPC   C2B39692  14.455  11.827   8.376
 2997POPC   C3B39693  14.620  11.724   7.977
 2997POPC   C4B39694  14.249  11.676   7.713
 2998POPC   NC339695  38.593  28.622   9.980
 2998POPC   PO439696  38.667  28.079   9.584
 2998POPC   GL139697  38.415  28.202   9.210
 2998POPC   GL239698  38.486  28.523   9.050
 2998POPC   C1A39699  38.473  28.144   8.747
 2998POPC   D2A39700  38.610  28.453   8.425
 2998POPC   C3A39701  38.892  28.249   8.125
 2998POPC   C4A39702  38.851  28.017   7.707
 2998POPC   C1B39703  38.151  28.522   8.688
 2998POPC   C2B39704  38.116  28.327   8.299
 2998POPC   C3B39705  38.306  28.554   7.997
 2998POPC   C4B39706  38.212  28.622   7.566
 2999POPC   NC339707  26.548  27.887   9.512
 2999POPC   PO439708  27.187  27.777   9.331
 2999POPC   GL139709  26.924  27.637   9.070
 2999POPC   GL239710  26.642  27.835   9.022
 2999POPC   C1A39711  27.026  27.597   8.659
 2999POPC   D2A39712  27.057  27.880   8.388
 2999POPC   C3A39713  26.987  27.684   8.048
 2999POPC   C4A39714  27.079  27.590   7.644
 2999POPC   C1B39715  26.569  27.425   8.771
 2999POPC   C2B39716  26.637  27.402   8.312
 2999POPC   C3B39717  26.663  27.334   7.858
 2999POPC   C4B39718  26.587  27.558   7.471
 3000POPC   NC339719   8.407  14.961   9.638
 3000POPC   PO439720   8.073  15.558   9.465
 3000POPC   GL139721   8.207  15.231   9.172
 3000POPC   GL239722   8.548  15.273   9.232
 3000POPC   C1A39723   8.354  14.964   8.787
 3000POPC   D2A39724   8.448  14.810   8.328
 3000POPC   C3A39725   8.171  14.977   7.967
 3000POPC   C4A39726   7.815  15.172   7.735
 3000POPC   C1B39727   8.620  15.394   8.819
 3000POPC   C2B39728   8.460  15.352   8.413
 3000POPC   C3B39729   8.618  15.239   8.025
 3000POPC   C4B39730   8.609  15.072   7.617
 3001POPC   NC339731  11.670  19.707   9.569
 3001POPC   PO439732  12.154  19.276   9.467
 3001POPC   GL139733  12.153  19.513   9.067
 3001POPC   GL239734  11.892  19.728   9.096
 3001POPC   C1A39735  12.348  19.758   8.738
 3001POPC   D2A39736  12.521  19.946   8.329
 3001POPC   C3A39737  12.231  20.006   7.987
 3001POPC   C4A39738  11.989  19.687   7.793
 3001POPC   C1B39739  11.845  19.950   8.736
 3001POPC   C2B39740  11.837  20.073   8.331
 3001POPC   C3B39741  11.715  20.311   7.987
 3001POPC   C4B39742  11.625  20.014   7.705
 3002POPC   NC339743  23.562  15.511   9.647
 3002POPC   PO439744  24.022  15.054   9.464
 3002POPC   GL139745  23.720  15.153   9.161
 3002POPC   GL239746  23.522  15.439   9.151
 3002POPC   C1A39747  23.713  15.139   8.714
 3002POPC   D2A39748  23.997  15.033   8.373
 3002POPC   C3A39749  23.837  15.171   8.036
 3002POPC   C4A39750  23.446  15.080   7.922
 3002POPC   C1B39751  23.477  15.637   8.768
 3002POPC   C2B39752  23.438  15.449   8.356
 3002POPC   C3B39753  23.301  15.589   7.969
 3002POPC   C4B39754  23.612  15.502   7.686
 3003POPC   NC339755  17.799  34.724   9.550
 3003POPC   PO439756  17.210  34.291   9.652
 3003POPC   GL139757  17.391  34.508   9.263
 3003POPC   GL239758  17.522  34.821   9.130
 3003POPC   C1A39759  17.463  34.482   8.783
 3003POPC   D2A39760  17.243  34.521   8.395
 3003POPC   C3A39761  17.234  34.313   7.994
 3003POPC   C4A39762  17.265  34.636   7.708
 3003POPC   C1B39763  17.877  34.784   8.843
 3003POPC   C2B39764  17.871  34.573   8.458
 3003POPC   C3B39765  17.658  34.594   8.062
 3003POPC   C4B39766  17.881  34.752   7.705
 3004POPC   NC339767  43.764   0.719   9.567
 3004POPC   PO439768  43.924   1.411   9.426
 3004POPC   GL139769  43.858   1.288   9.023
 3004POPC   GL239770  43.792   0.951   9.113
 3004POPC   C1A39771  43.694   1.356   8.589
 3004POPC   D2A39772  43.638   1.088   8.206
 3004POPC   C3A39773  43.924   1.191   7.850
 3004POPC   C4A39774  44.294   1.442   7.811
 3004POPC   C1B39775  43.820   0.864   8.692
 3004POPC   C2B39776  44.136   0.695   8.474
 3004POPC   C3B39777  44.013   0.695   8.098
 3004POPC   C4B39778  44.106   0.731   7.694
 3005POPC   NC339779  43.660  40.764   9.577
 3005POPC   PO439780  44.248  40.398   9.663
 3005POPC   GL139781  44.143  40.663   9.298
 3005POPC   GL239782  43.845  40.549   9.158
 3005POPC   C1A39783  44.159  40.834   8.859
 3005POPC   D2A39784  44.366  40.703   8.471
 3005POPC   C3A39785  44.186  40.865   8.096
 3005POPC   C4A39786  44.054  40.779   7.688
 3005POPC   C1B39787  43.803  40.362   8.767
 3005POPC   C2B39788  43.845  40.550   8.399
 3005POPC   C3B39789  43.901  40.407   8.015
 3005POPC   C4B39790  43.725  40.400   7.607
 3006POPC   NC339791  27.050  19.172   9.494
 3006POPC   PO439792  26.613  18.610   9.521
 3006POPC   GL139793  26.854  18.773   9.213
 3006POPC   GL239794  26.529  18.880   9.063
 3006POPC   C1A39795  26.997  18.979   8.838
 3006POPC   D2A39796  26.783  19.146   8.480
 3006POPC   C3A39797  26.887  19.029   8.058
 3006POPC   C4A39798  27.082  19.258   7.722
 3006POPC   C1B39799  26.594  18.676   8.655
 3006POPC   C2B39800  26.551  18.584   8.212
 3006POPC   C3B39801  26.510  18.757   7.793
 3006POPC   C4B39802  26.470  18.699   7.346
 3007POPC   NC339803  34.440  40.595   9.516
 3007POPC   PO439804  34.048  41.133   9.327
 3007POPC   GL139805  34.258  40.819   9.071
 3007POPC   GL239806  34.616  40.728   9.075
 3007POPC   C1A39807  34.360  40.657   8.661
 3007POPC   D2A39808  34.554  40.736   8.296
 3007POPC   C3A39809  34.295  40.849   7.969
 3007POPC   C4A39810  34.187  40.652   7.593
 3007POPC   C1B39811  34.640  40.298   8.913
 3007POPC   C2B39812  34.588  40.222   8.482
 3007POPC   C3B39813  34.729  40.202   8.088
 3007POPC   C4B39814  34.742  40.591   7.845
 3008POPC   NC339815  43.638  14.320   9.582
 3008POPC   PO439816  44.163  14.759   9.515
 3008POPC   GL139817  43.935  14.554   9.173
 3008POPC   GL239818  43.582  14.631   9.187
 3008POPC   C1A39819  43.991  14.396   8.739
 3008POPC   D2A39820  44.149  14.074   8.441
 3008POPC   C3A39821  44.051  14.184   8.009
 3008POPC   C4A39822  44.004  14.507   7.712
 3008POPC   C1B39823  43.496  14.345   8.829
 3008POPC   C2B39824  43.612  14.242   8.354
 3008POPC   C3B39825  43.542  14.350   7.913
 3008POPC   C4B39826  43.318  14.133   7.589
 3009POPC   NC339827  41.685   5.627   9.626
 3009POPC   PO439828  41.337   6.166   9.431
 3009POPC   GL139829  41.607   5.915   9.195
 3009POPC   GL239830  41.429   5.588   9.171
 3009POPC   C1A39831  41.776   5.781   8.811
 3009POPC   D2A39832  41.583   5.692   8.446
 3009POPC   C3A39833  41.588   6.039   8.164
 3009POPC   C4A39834  41.727   5.881   7.762
 3009POPC   C1B39835  41.227   5.835   8.825
 3009POPC   C2B39836  41.100   5.789   8.378
 3009POPC   C3B39837  41.315   5.656   7.977
 3009POPC   C4B39838  41.313   5.663   7.500
 3010POPC   NC339839   2.381   7.244   9.406
 3010POPC   PO439840   1.710   7.256   9.336
 3010POPC   GL139841   1.948   7.461   9.077
 3010POPC   GL239842   2.216   7.298   8.918
 3010POPC   C1A39843   1.773   7.604   8.700
 3010POPC   D2A39844   1.744   7.679   8.266
 3010POPC   C3A39845   2.148   7.681   8.074
 3010POPC   C4A39846   2.255   7.783   7.660
 3010POPC   C1B39847   1.858   7.054   8.736
 3010POPC   C2B39848   1.820   6.874   8.339
 3010POPC   C3B39849   1.783   7.187   7.984
 3010POPC   C4B39850   2.150   7.278   7.752
 3011POPC   NC339851   6.302  31.483   9.471
 3011POPC   PO439852   6.888  31.123   9.406
 3011POPC   GL139853   6.804  31.508   9.128
 3011POPC   GL239854   6.470  31.686   9.026
 3011POPC   C1A39855   6.745  31.435   8.667
 3011POPC   D2A39856   6.841  31.388   8.241
 3011POPC   C3A39857   6.556  31.250   7.952
 3011POPC   C4A39858   6.846  31.214   7.632
 3011POPC   C1B39859   6.265  31.626   8.670
 3011POPC   C2B39860   6.373  31.595   8.285
 3011POPC   C3B39861   6.284  31.681   7.876
 3011POPC   C4B39862   6.393  31.405   7.484
 3012POPC   NC339863  31.188  40.952   9.498
 3012POPC   PO439864  31.647  40.435   9.521
 3012POPC   GL139865  31.418  40.566   9.185
 3012POPC   GL239866  31.523  40.929   9.107
 3012POPC   C1A39867  31.530  40.538   8.773
 3012POPC   D2A39868  31.674  40.871   8.544
 3012POPC   C3A39869  31.651  40.754   8.120
 3012POPC   C4A39870  31.834  40.943   7.770
 3012POPC   C1B39871  31.126  40.854   8.870
 3012POPC   C2B39872  31.152  40.870   8.471
 3012POPC   C3B39873  31.132  41.032   8.095
 3012POPC   C4B39874  31.284  40.798   7.738
 3013POPC   NC339875  24.132   0.804   9.741
 3013POPC   PO439876  24.487   1.299   9.453
 3013POPC   GL139877  24.531   1.116   9.057
 3013POPC   GL239878  24.362   1.415   8.924
 3013POPC   C1A39879  24.587   1.053   8.606
 3013POPC   D2A39880  24.481   1.440   8.404
 3013POPC   C3A39881  24.400   1.441   8.004
 3013POPC   C4A39882  24.480   1.084   7.749
 3013POPC   C1B39883  24.088   1.157   8.642
 3013POPC   C2B39884  24.135   1.053   8.225
 3013POPC   C3B39885  23.979   1.083   7.818
 3013POPC   C4B39886  24.069   1.056   7.345
 3014POPC   NC339887  31.186   6.236   9.343
 3014POPC   PO439888  31.513   5.748   9.714
 3014POPC   GL139889  31.418   5.654   9.281
 3014POPC   GL239890  31.710   5.636   9.060
 3014POPC   C1A39891  31.222   5.688   8.867
 3014POPC   D2A39892  31.403   5.744   8.462
 3014POPC   C3A39893  31.221   6.071   8.205
 3014POPC   C4A39894  31.288   6.142   7.766
 3014POPC   C1B39895  31.648   6.028   8.867
 3014POPC   C2B39896  31.662   6.167   8.434
 3014POPC   C3B39897  31.797   6.151   7.997
 3014POPC   C4B39898  31.758   6.275   7.579
 3015POPC   NC339899  40.290  28.957   9.389
 3015POPC   PO439900  40.997  29.206   9.393
 3015POPC   GL139901  40.676  29.224   9.136
 3015POPC   GL239902  40.678  28.884   9.085
 3015POPC   C1A39903  40.554  29.246   8.707
 3015POPC   D2A39904  40.849  29.176   8.388
 3015POPC   C3A39905  40.850  29.434   8.014
 3015POPC   C4A39906  40.700  29.470   7.547
 3015POPC   C1B39907  40.456  28.720   8.738
 3015POPC   C2B39908  40.646  28.715   8.335
 3015POPC   C3B39909  40.704  28.925   7.948
 3015POPC   C4B39910  40.312  28.778   7.848
 3016POPC   NC339911   3.829  23.505   9.549
 3016POPC   PO439912   3.191  23.762   9.575
 3016POPC   GL139913   3.374  23.830   9.163
 3016POPC   GL239914   3.465  23.493   9.151
 3016POPC   C1A39915   3.535  23.934   8.725
 3016POPC   D2A39916   3.373  23.898   8.276
 3016POPC   C3A39917   3.642  23.684   7.925
 3016POPC   C4A39918   3.997  23.913   7.716
 3016POPC   C1B39919   3.248  23.514   8.764
 3016POPC   C2B39920   3.372  23.420   8.384
 3016POPC   C3B39921   3.162  23.514   7.985
 3016POPC   C4B39922   3.301  23.468   7.556
 3017POPC   NC339923  40.949   8.674   9.587
 3017POPC   PO439924  40.432   9.104   9.373
 3017POPC   GL139925  40.591   8.823   9.085
 3017POPC   GL239926  40.940   8.776   9.095
 3017POPC   C1A39927  40.707   8.936   8.646
 3017POPC   D2A39928  40.692   8.821   8.225
 3017POPC   C3A39929  40.654   9.178   7.936
 3017POPC   C4A39930  40.405   9.148   7.566
 3017POPC   C1B39931  41.178   8.726   8.757
 3017POPC   C2B39932  41.186   8.846   8.384
 3017POPC   C3B39933  41.130   8.946   7.984
 3017POPC   C4B39934  40.877   8.798   7.689
 3018POPC   NC339935  26.418  13.084   9.742
 3018POPC   PO439936  26.904  12.651   9.555
 3018POPC   GL139937  26.958  12.876   9.213
 3018POPC   GL239938  26.635  13.004   9.289
 3018POPC   C1A39939  27.055  12.722   8.807
 3018POPC   D2A39940  26.913  12.744   8.400
 3018POPC   C3A39941  27.075  12.954   8.017
 3018POPC   C4A39942  27.101  12.716   7.652
 3018POPC   C1B39943  26.564  12.873   8.870
 3018POPC   C2B39944  26.411  12.836   8.462
 3018POPC   C3B39945  26.585  13.017   8.122
 3018POPC   C4B39946  26.638  12.948   7.705
 3019POPC   NC339947  28.908  26.108   9.429
 3019POPC   PO439948  29.470  25.672   9.405
 3019POPC   GL139949  29.219  25.811   9.077
 3019POPC   GL239950  29.317  26.182   9.128
 3019POPC   C1A39951  29.128  25.812   8.624
 3019POPC   D2A39952  29.327  26.130   8.376
 3019POPC   C3A39953  29.152  26.188   7.968
 3019POPC   C4A39954  29.377  26.144   7.580
 3019POPC   C1B39955  29.046  26.294   8.793
 3019POPC   C2B39956  28.903  26.418   8.390
 3019POPC   C3B39957  28.677  26.373   7.990
 3019POPC   C4B39958  28.726  26.315   7.553
 3020POPC   NC339959  17.078  25.264   9.501
 3020POPC   PO439960  16.415  25.546   9.504
 3020POPC   GL139961  16.704  25.374   9.181
 3020POPC   GL239962  16.694  25.079   9.123
 3020POPC   C1A39963  17.049  25.256   8.823
 3020POPC   D2A39964  16.940  25.250   8.367
 3020POPC   C3A39965  17.136  25.341   7.956
 3020POPC   C4A39966  17.028  25.404   7.510
 3020POPC   C1B39967  16.525  25.191   8.713
 3020POPC   C2B39968  16.516  24.994   8.317
 3020POPC   C3B39969  16.610  25.202   7.934
 3020POPC   C4B39970  16.732  24.981   7.597
 3021POPC   NC339971   5.472  38.793   9.315
 3021POPC   PO439972   5.155  38.276   9.641
 3021POPC   GL139973   5.272  38.321   9.201
 3021POPC   GL239974   4.954  38.443   9.097
 3021POPC   C1A39975   5.404  38.471   8.744
 3021POPC   D2A39976   5.111  38.402   8.360
 3021POPC   C3A39977   5.146  38.162   7.967
 3021POPC   C4A39978   5.412  38.289   7.590
 3021POPC   C1B39979   4.966  38.713   8.721
 3021POPC   C2B39980   4.983  38.897   8.289
 3021POPC   C3B39981   5.010  38.653   7.920
 3021POPC   C4B39982   4.915  38.380   7.574
 3022POPC   NC339983  18.354   7.475   9.387
 3022POPC   PO439984  17.879   6.959   9.484
 3022POPC   GL139985  18.115   7.117   9.069
 3022POPC   GL239986  18.474   7.280   8.947
 3022POPC   C1A39987  18.136   7.129   8.618
 3022POPC   D2A39988  18.411   7.409   8.413
 3022POPC   C3A39989  18.280   7.350   8.013
 3022POPC   C4A39990  18.476   7.181   7.671
 3022POPC   C1B39991  18.525   7.746   8.807
 3022POPC   C2B39992  18.328   7.988   8.468
 3022POPC   C3B39993  18.368   7.891   8.033
 3022POPC   C4B39994  18.744   7.906   7.808
 3023POPC   NC339995   5.487  31.252   9.774
 3023POPC   PO439996   5.905  31.732   9.529
 3023POPC   GL139997   5.941  31.615   9.097
 3023POPC   GL239998   5.679  31.871   9.025
 3023POPC   C1A39999   5.801  31.403   8.724
 3023POPC   D2A40000   5.547  31.163   8.445
 3023POPC   C3A40001   5.639  31.318   8.042
 3023POPC   C4A40002   5.973  31.324   7.748
 3023POPC   C1B40003   5.842  31.894   8.661
 3023POPC   C2B40004   5.889  31.704   8.256
 3023POPC   C3B40005   5.764  31.783   7.831
 3023POPC   C4B40006   5.554  31.941   7.454
 3024POPC   NC340007  11.629  24.269   9.586
 3024POPC   PO440008  11.183  24.657   9.648
 3024POPC   GL140009  11.174  24.466   9.247
 3024POPC   GL240010  11.509  24.453   9.120
 3024POPC   C1A40011  11.119  24.615   8.813
 3024POPC   D2A40012  11.221  24.496   8.380
 3024POPC   C3A40013  11.026  24.562   8.028
 3024POPC   C4A40014  11.019  24.465   7.584
 3024POPC   C1B40015  11.536  24.307   8.709
 3024POPC   C2B40016  11.713  24.423   8.300
 3024POPC   C3B40017  11.537  24.364   7.892
 3024POPC   C4B40018  11.573  24.460   7.433
 3025POPC   NC340019  22.863  31.628   9.586
 3025POPC   PO440020  23.227  31.043   9.431
 3025POPC   GL140021  23.061  31.385   9.160
 3025POPC   GL240022  22.701  31.421   9.142
 3025POPC   C1A40023  23.033  31.624   8.765
 3025POPC   D2A40024  23.067  31.811   8.345
 3025POPC   C3A40025  22.935  31.631   7.972
 3025POPC   C4A40026  23.081  31.271   7.779
 3025POPC   C1B40027  22.530  31.494   8.750
 3025POPC   C2B40028  22.711  31.388   8.357
 3025POPC   C3B40029  22.644  31.115   7.961
 3025POPC   C4B40030  22.673  31.171   7.490
 3026POPC   NC340031  33.574   7.913   9.533
 3026POPC   PO440032  33.891   8.571   9.461
 3026POPC   GL140033  33.879   8.251   9.166
 3026POPC   GL240034  34.084   7.978   9.342
 3026POPC   C1A40035  33.670   8.298   8.763
 3026POPC   D2A40036  33.443   8.177   8.385
 3026POPC   C3A40037  33.436   8.401   7.998
 3026POPC   C4A40038  33.767   8.460   7.717
 3026POPC   C1B40039  34.087   7.850   8.903
 3026POPC   C2B40040  34.065   8.084   8.529
 3026POPC   C3B40041  33.922   8.218   8.145
 3026POPC   C4B40042  33.853   7.904   7.823
 3027POPC   NC340043   4.342  35.803   9.497
 3027POPC   PO440044   4.197  36.461   9.460
 3027POPC   GL140045   4.419  36.188   9.156
 3027POPC   GL240046   4.145  35.944   9.039
 3027POPC   C1A40047   4.555  36.010   8.758
 3027POPC   D2A40048   4.404  35.893   8.335
 3027POPC   C3A40049   4.566  36.056   7.934
 3027POPC   C4A40050   4.411  36.254   7.535
 3027POPC   C1B40051   4.120  36.276   8.682
 3027POPC   C2B40052   3.987  36.326   8.242
 3027POPC   C3B40053   4.039  36.041   7.901
 3027POPC   C4B40054   4.202  35.784   7.576
 3028POPC   NC340055  44.576  18.819   9.366
 3028POPC   PO440056  44.891  19.409   9.533
 3028POPC   GL140057  44.861  19.201   9.178
 3028POPC   GL240058  44.482  19.281   9.178
 3028POPC   C1A40059  44.833  18.963   8.782
 3028POPC   D2A40060  44.527  18.839   8.468
 3028POPC   C3A40061  44.681  19.006   8.101
 3028POPC   C4A40062  44.495  18.905   7.738
 3028POPC   C1B40063  44.333  19.161   8.794
 3028POPC   C2B40064  44.375  19.343   8.392
 3028POPC   C3B40065  44.259  19.329   7.930
 3028POPC   C4B40066  44.250  19.285   7.471
 3029POPC   NC340067   2.220  28.906   9.471
 3029POPC   PO440068   2.330  29.568   9.424
 3029POPC   GL140069   1.999  29.329   9.234
 3029POPC   GL240070   2.116  29.491   8.946
 3029POPC   C1A40071   1.849  29.065   8.871
 3029POPC   D2A40072   2.069  29.143   8.485
 3029POPC   C3A40073   1.863  29.170   8.102
 3029POPC   C4A40074   1.911  29.003   7.703
 3029POPC   C1B40075   2.459  29.440   8.676
 3029POPC   C2B40076   2.481  29.524   8.275
 3029POPC   C3B40077   2.311  29.709   7.993
 3029POPC   C4B40078   2.037  29.490   7.746
 3030POPC   NC340079  33.066  23.181   9.546
 3030POPC   PO440080  32.733  22.515   9.497
 3030POPC   GL140081  32.914  22.752   9.100
 3030POPC   GL240082  33.080  23.070   9.065
 3030POPC   C1A40083  32.905  22.689   8.646
 3030POPC   D2A40084  33.151  22.819   8.279
 3030POPC   C3A40085  33.265  22.537   7.967
 3030POPC   C4A40086  33.288  22.600   7.512
 3030POPC   C1B40087  32.800  23.176   8.730
 3030POPC   C2B40088  32.709  23.065   8.290
 3030POPC   C3B40089  32.924  23.204   7.911
 3030POPC   C4B40090  32.745  23.284   7.492
 3031POPC   NC340091   4.086   1.459   9.447
 3031POPC   PO440092   4.751   1.189   9.623
 3031POPC   GL140093   4.517   1.261   9.235
 3031POPC   GL240094   4.543   0.952   9.152
 3031POPC   C1A40095   4.285   1.351   8.833
 3031POPC   D2A40096   4.096   1.145   8.461
 3031POPC   C3A40097   4.103   1.346   8.044
 3031POPC   C4A40098   4.360   1.401   7.700
 3031POPC   C1B40099   4.457   0.871   8.755
 3031POPC   C2B40100   4.432   0.737   8.351
 3031POPC   C3B40101   4.392   0.919   7.957
 3031POPC   C4B40102   4.030   0.828   7.705
 3032POPC   NC340103   5.667  29.410   9.339
 3032POPC   PO440104   6.123  29.002   9.653
 3032POPC   GL140105   6.059  29.097   9.216
 3032POPC   GL240106   5.765  28.888   9.241
 3032POPC   C1A40107   6.031  29.284   8.779
 3032POPC   D2A40108   6.046  29.392   8.338
 3032POPC   C3A40109   5.901  29.132   7.981
 3032POPC   C4A40110   5.960  29.295   7.546
 3032POPC   C1B40111   5.597  28.991   8.836
 3032POPC   C2B40112   5.657  29.062   8.428
 3032POPC   C3B40113   5.429  29.266   8.137
 3032POPC   C4B40114   5.469  29.245   7.711
 3033POPC   NC340115  42.181  19.327   9.698
 3033POPC   PO440116  41.609  19.294   9.331
 3033POPC   GL140117  41.619  19.144   8.990
 3033POPC   GL240118  41.595  18.790   9.083
 3033POPC   C1A40119  41.486  19.319   8.619
 3033POPC   D2A40120  41.253  19.173   8.308
 3033POPC   C3A40121  41.540  19.158   7.994
 3033POPC   C4A40122  41.499  19.343   7.620
 3033POPC   C1B40123  41.342  18.822   8.696
 3033POPC   C2B40124  41.133  18.681   8.303
 3033POPC   C3B40125  41.288  18.719   7.858
 3033POPC   C4B40126  41.380  18.530   7.414
 3034POPC   NC340127  38.023  34.777   9.490
 3034POPC   PO440128  37.318  34.564   9.517
 3034POPC   GL140129  37.600  34.640   9.205
 3034POPC   GL240130  37.444  34.931   9.070
 3034POPC   C1A40131  37.741  34.597   8.791
 3034POPC   D2A40132  37.456  34.408   8.507
 3034POPC   C3A40133  37.423  34.530   8.099
 3034POPC   C4A40134  37.784  34.421   7.842
 3034POPC   C1B40135  37.302  34.851   8.694
 3034POPC   C2B40136  37.646  34.921   8.392
 3034POPC   C3B40137  37.769  34.939   7.959
 3034POPC   C4B40138  37.443  34.818   7.681
 3035POPC   NC340139  39.152  40.554   9.406
 3035POPC   PO440140  39.132  39.873   9.587
 3035POPC   GL140141  39.283  40.075   9.212
 3035POPC   GL240142  39.581  40.350   9.189
 3035POPC   C1A40143  39.062  40.078   8.804
 3035POPC   D2A40144  39.167  40.328   8.436
 3035POPC   C3A40145  39.308  40.125   8.030
 3035POPC   C4A40146  39.069  39.793   7.813
 3035POPC   C1B40147  39.559  40.151   8.796
 3035POPC   C2B40148  39.781  40.060   8.481
 3035POPC   C3B40149  39.837  40.009   8.084
 3035POPC   C4B40150  39.692  40.053   7.673
 3036POPC   NC340151   1.902  41.045   9.829
 3036POPC   PO440152   1.943  40.445   9.502
 3036POPC   GL140153   2.140  40.717   9.191
 3036POPC   GL240154   2.381  40.958   9.085
 3036POPC   C1A40155   1.972  40.876   8.774
 3036POPC   D2A40156   2.026  40.838   8.344
 3036POPC   C3A40157   1.748  40.725   8.018
 3036POPC   C4A40158   1.829  40.447   7.735
 3036POPC   C1B40159   2.420  41.211   8.719
 3036POPC   C2B40160   2.466  41.112   8.296
 3036POPC   C3B40161   2.243  41.063   7.936
 3036POPC   C4B40162   2.065  41.329   7.663
 3037POPC   NC340163   9.715  30.492   9.423
 3037POPC   PO440164   9.448  31.172   9.464
 3037POPC   GL140165   9.467  30.932   9.112
 3037POPC   GL240166   9.777  30.824   9.051
 3037POPC   C1A40167   9.453  30.857   8.660
 3037POPC   D2A40168   9.367  31.121   8.304
 3037POPC   C3A40169   9.644  31.074   7.942
 3037POPC   C4A40170   9.591  30.790   7.585
 3037POPC   C1B40171  10.079  30.691   8.771
 3037POPC   C2B40172  10.005  30.435   8.422
 3037POPC   C3B40173  10.002  30.268   8.032
 3037POPC   C4B40174  10.013  30.549   7.715
 3038POPC   NC340175  26.613   5.556   9.511
 3038POPC   PO440176  26.969   6.068   9.512
 3038POPC   GL140177  26.800   5.869   9.154
 3038POPC   GL240178  26.871   5.510   9.085
 3038POPC   C1A40179  26.906   5.891   8.725
 3038POPC   D2A40180  27.095   5.808   8.339
 3038POPC   C3A40181  26.963   6.114   8.056
 3038POPC   C4A40182  26.807   6.062   7.663
 3038POPC   C1B40183  26.577   5.494   8.755
 3038POPC   C2B40184  26.587   5.671   8.357
 3038POPC   C3B40185  26.725   5.639   7.927
 3038POPC   C4B40186  26.769   5.619   7.426
 3039POPC   NC340187   3.569  25.906   9.688
 3039POPC   PO440188   3.132  26.319   9.367
 3039POPC   GL140189   3.562  26.147   9.238
 3039POPC   GL240190   3.501  25.836   9.195
 3039POPC   C1A40191   3.836  26.027   8.867
 3039POPC   D2A40192   3.670  25.884   8.482
 3039POPC   C3A40193   3.904  25.820   8.098
 3039POPC   C4A40194   3.748  25.796   7.687
 3039POPC   C1B40195   3.245  25.794   8.828
 3039POPC   C2B40196   3.224  25.663   8.409
 3039POPC   C3B40197   3.381  25.825   8.053
 3039POPC   C4B40198   3.243  25.890   7.654
 3040POPC   NC340199   2.167  23.249   9.470
 3040POPC   PO440200   2.092  22.573   9.443
 3040POPC   GL140201   2.159  22.874   9.130
 3040POPC   GL240202   1.800  22.952   9.095
 3040POPC   C1A40203   2.115  23.013   8.701
 3040POPC   D2A40204   1.838  22.777   8.457
 3040POPC   C3A40205   1.987  22.675   8.058
 3040POPC   C4A40206   2.125  22.898   7.727
 3040POPC   C1B40207   1.671  23.226   8.793
 3040POPC   C2B40208   1.772  23.303   8.395
 3040POPC   C3B40209   1.613  23.086   8.073
 3040POPC   C4B40210   1.632  23.303   7.712
 3041POPC   NC340211  14.473  34.706   9.518
 3041POPC   PO440212  14.350  34.084   9.534
 3041POPC   GL140213  14.560  34.328   9.201
 3041POPC   GL240214  14.229  34.442   9.139
 3041POPC   C1A40215  14.623  34.619   8.839
 3041POPC   D2A40216  14.814  34.716   8.440
 3041POPC   C3A40217  14.606  34.597   8.063
 3041POPC   C4A40218  14.409  34.794   7.726
 3041POPC   C1B40219  14.219  34.304   8.717
 3041POPC   C2B40220  14.294  34.235   8.285
 3041POPC   C3B40221  14.189  34.363   7.863
 3041POPC   C4B40222  14.062  34.532   7.455
 3042POPC   NC340223  27.194  14.768   9.584
 3042POPC   PO440224  26.603  15.047   9.669
 3042POPC   GL140225  26.891  15.087   9.276
 3042POPC   GL240226  26.817  15.395   9.066
 3042POPC   C1A40227  27.053  14.963   8.855
 3042POPC   D2A40228  26.843  14.788   8.479
 3042POPC   C3A40229  27.010  14.937   8.073
 3042POPC   C4A40230  27.142  15.135   7.689
 3042POPC   C1B40231  26.691  15.273   8.665
 3042POPC   C2B40232  26.632  15.217   8.276
 3042POPC   C3B40233  26.731  15.351   7.934
 3042POPC   C4B40234  26.851  15.626   7.656
 3043POPC   NC340235  40.308  37.534   9.435
 3043POPC   PO440236  40.925  37.461   9.753
 3043POPC   GL140237  41.008  37.742   9.346
 3043POPC   GL240238  40.736  37.638   9.140
 3043POPC   C1A40239  41.064  37.946   8.908
 3043POPC   D2A40240  41.066  37.736   8.485
 3043POPC   C3A40241  40.744  37.848   8.156
 3043POPC   C4A40242  40.909  37.890   7.732
 3043POPC   C1B40243  40.757  37.408   8.751
 3043POPC   C2B40244  40.737  37.332   8.325
 3043POPC   C3B40245  40.988  37.444   7.983
 3043POPC   C4B40246  41.160  37.303   7.650
 3044POPC   NC340247   9.223  34.633   9.694
 3044POPC   PO440248   8.906  34.085   9.684
 3044POPC   GL140249   9.184  34.285   9.305
 3044POPC   GL240250   8.908  34.467   9.120
 3044POPC   C1A40251   9.302  34.362   8.822
 3044POPC   D2A40252   9.041  34.380   8.414
 3044POPC   C3A40253   9.130  34.542   8.008
 3044POPC   C4A40254   9.230  34.391   7.609
 3044POPC   C1B40255   8.634  34.508   8.714
 3044POPC   C2B40256   8.594  34.602   8.261
 3044POPC   C3B40257   8.671  34.638   7.796
 3044POPC   C4B40258   8.517  34.545   7.358
 3045POPC   NC340259  43.985  28.975   9.672
 3045POPC   PO440260  43.603  29.493   9.294
 3045POPC   GL140261  43.743  29.098   9.041
 3045POPC   GL240262  43.997  28.901   9.150
 3045POPC   C1A40263  43.718  29.151   8.619
 3045POPC   D2A40264  43.467  29.417   8.377
 3045POPC   C3A40265  43.572  29.427   7.948
 3045POPC   C4A40266  44.017  29.347   7.835
 3045POPC   C1B40267  44.185  28.965   8.739
 3045POPC   C2B40268  44.180  29.073   8.288
 3045POPC   C3B40269  44.169  28.842   7.879
 3045POPC   C4B40270  44.304  28.765   7.445
 3046POPC   NC340271  12.439  39.336   9.586
 3046POPC   PO440272  12.929  38.975   9.503
 3046POPC   GL140273  12.960  39.274   9.182
 3046POPC   GL240274  12.635  39.207   9.130
 3046POPC   C1A40275  12.915  39.498   8.786
 3046POPC   D2A40276  12.785  39.370   8.392
 3046POPC   C3A40277  12.969  39.502   8.007
 3046POPC   C4A40278  12.799  39.391   7.620
 3046POPC   C1B40279  12.800  38.997   8.775
 3046POPC   C2B40280  12.795  38.853   8.373
 3046POPC   C3B40281  12.742  39.014   7.985
 3046POPC   C4B40282  12.835  38.882   7.581
 3047POPC   NC340283  44.201  41.605   9.598
 3047POPC   PO440284  43.694  41.234   9.658
 3047POPC   GL140285  43.837  41.430   9.218
 3047POPC   GL240286  43.979  41.783   9.164
 3047POPC   C1A40287  43.684  41.614   8.785
 3047POPC   D2A40288  43.672  41.836   8.381
 3047POPC   C3A40289  43.803  41.590   8.030
 3047POPC   C4A40290  43.926  41.258   7.769
 3047POPC   C1B40291  44.018  42.011   8.772
 3047POPC   C2B40292  44.185  41.892   8.370
 3047POPC   C3B40293  44.074  42.004   7.970
 3047POPC   C4B40294  44.317  41.724   7.751
 3048POPC   NC340295  27.162  16.236   9.301
 3048POPC   PO440296  27.693  15.924   9.660
 3048POPC   GL140297  27.661  15.870   9.185
 3048POPC   GL240298  27.355  15.930   8.959
 3048POPC   C1A40299  27.757  15.669   8.799
 3048POPC   D2A40300  27.578  15.538   8.417
 3048POPC   C3A40301  27.711  15.737   8.066
 3048POPC   C4A40302  27.866  15.762   7.665
 3048POPC   C1B40303  27.688  16.184   8.725
 3048POPC   C2B40304  27.885  16.378   8.357
 3048POPC   C3B40305  27.866  16.238   7.905
 3048POPC   C4B40306  27.432  16.261   7.714
 3049POPC   NC340307   3.686  17.465   9.601
 3049POPC   PO440308   3.300  17.005   9.287
 3049POPC   GL140309   3.373  17.431   9.189
 3049POPC   GL240310   3.712  17.429   9.085
 3049POPC   C1A40311   3.364  17.600   8.753
 3049POPC   D2A40312   3.625  17.480   8.405
 3049POPC   C3A40313   3.436  17.537   7.975
 3049POPC   C4A40314   3.299  17.241   7.637
 3049POPC   C1B40315   3.899  17.748   8.808
 3049POPC   C2B40316   4.054  17.788   8.395
 3049POPC   C3B40317   3.942  17.548   8.006
 3049POPC   C4B40318   3.835  17.801   7.658
 3050POPC   NC340319  39.382   5.172   9.505
 3050POPC   PO440320  38.789   5.096   9.715
 3050POPC   GL140321  38.889   5.260   9.205
 3050POPC   GL240322  39.165   5.081   9.036
 3050POPC   C1A40323  38.844   5.320   8.753
 3050POPC   D2A40324  39.134   5.080   8.490
 3050POPC   C3A40325  39.053   5.158   8.061
 3050POPC   C4A40326  39.211   5.019   7.681
 3050POPC   C1B40327  39.577   5.104   8.836
 3050POPC   C2B40328  39.745   4.982   8.468
 3050POPC   C3B40329  39.573   5.103   8.057
 3050POPC   C4B40330  39.735   4.979   7.651
 3051POPC   NC340331  30.588  23.037   9.568
 3051POPC   PO440332  31.164  23.216   9.158
 3051POPC   GL140333  30.838  22.899   9.108
 3051POPC   GL240334  30.444  22.850   9.132
 3051POPC   C1A40335  30.731  22.962   8.708
 3051POPC   D2A40336  30.765  23.196   8.337
 3051POPC   C3A40337  30.716  22.968   7.950
 3051POPC   C4A40338  30.706  22.712   7.562
 3051POPC   C1B40339  30.280  23.112   8.874
 3051POPC   C2B40340  30.260  23.173   8.440
 3051POPC   C3B40341  30.273  23.226   8.001
 3051POPC   C4B40342  30.368  23.103   7.581
 3052POPC   NC340343   0.201   1.394   9.517
 3052POPC   PO440344   0.764   1.017   9.575
 3052POPC   GL140345   0.448   1.040   9.240
 3052POPC   GL240346   0.416   1.382   9.070
 3052POPC   C1A40347   0.287   0.961   8.823
 3052POPC   D2A40348   0.558   0.966   8.478
 3052POPC   C3A40349   0.397   1.197   8.127
 3052POPC   C4A40350   0.353   1.013   7.751
 3052POPC   C1B40351   0.551   1.503   8.664
 3052POPC   C2B40352   0.447   1.764   8.327
 3052POPC   C3B40353   0.525   1.694   7.940
 3052POPC   C4B40354   0.234   1.515   7.664
 3053POPC   NC340355  22.366  22.219   9.607
 3053POPC   PO440356  22.971  22.040   9.668
 3053POPC   GL140357  23.036  22.092   9.234
 3053POPC   GL240358  23.203  21.795   9.123
 3053POPC   C1A40359  22.694  22.287   8.952
 3053POPC   D2A40360  22.458  22.289   8.554
 3053POPC   C3A40361  22.731  22.290   8.200
 3053POPC   C4A40362  22.636  22.405   7.798
 3053POPC   C1B40363  23.362  21.844   8.688
 3053POPC   C2B40364  23.180  21.968   8.259
 3053POPC   C3B40365  23.090  22.151   7.817
 3053POPC   C4B40366  23.173  21.999   7.412
 3054POPC   NC340367  33.734  40.137   9.607
 3054POPC   PO440368  33.275  39.719   9.477
 3054POPC   GL140369  33.546  39.960   9.165
 3054POPC   GL240370  33.813  40.254   9.129
 3054POPC   C1A40371  33.772  39.872   8.804
 3054POPC   D2A40372  33.658  39.798   8.400
 3054POPC   C3A40373  33.850  39.875   8.007
 3054POPC   C4A40374  33.623  39.803   7.605
 3054POPC   C1B40375  33.489  40.309   8.788
 3054POPC   C2B40376  33.502  40.316   8.347
 3054POPC   C3B40377  33.532  40.249   7.912
 3054POPC   C4B40378  33.921  40.229   7.652
 3055POPC   NC340379  41.066  39.100   9.513
 3055POPC   PO440380  41.689  38.960   9.669
 3055POPC   GL140381  41.593  39.097   9.191
 3055POPC   GL240382  41.252  39.147   9.034
 3055POPC   C1A40383  41.693  39.376   8.824
 3055POPC   D2A40384  41.756  39.256   8.395
 3055POPC   C3A40385  41.702  39.496   8.020
 3055POPC   C4A40386  41.681  39.430   7.550
 3055POPC   C1B40387  41.445  38.936   8.678
 3055POPC   C2B40388  41.579  38.813   8.250
 3055POPC   C3B40389  41.534  39.019   7.827
 3055POPC   C4B40390  41.200  39.102   7.467
 3056POPC   NC340391  20.984  23.840   9.467
 3056POPC   PO440392  21.666  23.509   9.523
 3056POPC   GL140393  21.454  23.782   9.246
 3056POPC   GL240394  21.167  23.564   9.086
 3056POPC   C1A40395  21.495  23.858   8.829
 3056POPC   D2A40396  21.353  23.628   8.517
 3056POPC   C3A40397  21.548  23.546   8.146
 3056POPC   C4A40398  21.500  23.229   7.851
 3056POPC   C1B40399  20.958  23.870   8.790
 3056POPC   C2B40400  21.031  24.052   8.364
 3056POPC   C3B40401  21.240  23.994   7.981
 3056POPC   C4B40402  21.128  23.891   7.549
 3057POPC   NC340403   1.814  35.251   9.700
 3057POPC   PO440404   2.270  35.751   9.609
 3057POPC   GL140405   2.088  35.400   9.216
 3057POPC   GL240406   1.775  35.183   9.195
 3057POPC   C1A40407   2.171  35.287   8.760
 3057POPC   D2A40408   1.987  35.501   8.381
 3057POPC   C3A40409   2.001  35.502   7.911
 3057POPC   C4A40410   1.963  35.593   7.441
 3057POPC   C1B40411   1.768  34.956   8.798
 3057POPC   C2B40412   1.930  34.973   8.390
 3057POPC   C3B40413   1.749  35.065   7.999
 3057POPC   C4B40414   1.931  35.119   7.586
 3058POPC   NC340415  42.222  28.974   9.549
 3058POPC   PO440416  42.913  28.831   9.437
 3058POPC   GL140417  42.540  28.864   9.184
 3058POPC   GL240418  42.644  29.192   9.166
 3058POPC   C1A40419  42.248  29.154   8.875
 3058POPC   D2A40420  42.012  29.369   8.538
 3058POPC   C3A40421  42.198  29.299   8.142
 3058POPC   C4A40422  42.200  29.150   7.753
 3058POPC   C1B40423  42.700  28.894   8.729
 3058POPC   C2B40424  42.564  28.637   8.377
 3058POPC   C3B40425  42.697  28.587   7.957
 3058POPC   C4B40426  42.683  28.965   7.709
 3059POPC   NC340427  33.681  11.563   9.713
 3059POPC   PO440428  33.819  12.161   9.458
 3059POPC   GL140429  33.596  12.011   9.119
 3059POPC   GL240430  33.806  11.731   9.078
 3059POPC   C1A40431  33.659  12.132   8.703
 3059POPC   D2A40432  33.773  12.376   8.340
 3059POPC   C3A40433  33.469  12.281   8.041
 3059POPC   C4A40434  33.381  12.073   7.672
 3059POPC   C1B40435  33.717  11.613   8.665
 3059POPC   C2B40436  33.826  11.828   8.302
 3059POPC   C3B40437  34.099  12.044   8.032
 3059POPC   C4B40438  33.854  11.933   7.711
 3060POPC   NC340439  23.319  43.456   9.519
 3060POPC   PO440440  23.197  44.191   9.590
 3060POPC   GL140441  23.387  43.944   9.224
 3060POPC   GL240442  23.751  43.961   9.168
 3060POPC   C1A40443  23.423  43.784   8.772
 3060POPC   D2A40444  23.635  43.653   8.386
 3060POPC   C3A40445  23.445  43.716   7.993
 3060POPC   C4A40446  23.552  43.896   7.619
 3060POPC   C1B40447  23.923  43.920   8.734
 3060POPC   C2B40448  23.868  44.125   8.304
 3060POPC   C3B40449  23.941  44.105   7.847
 3060POPC   C4B40450  23.991  43.962   7.379
 3061POPC   NC340451   8.372  14.032   9.674
 3061POPC   PO440452   8.063  14.656   9.535
 3061POPC   GL140453   8.416  14.454   9.282
 3061POPC   GL240454   8.311  14.095   9.154
 3061POPC   C1A40455   8.473  14.456   8.830
 3061POPC   D2A40456   8.102  14.371   8.558
 3061POPC   C3A40457   8.123  14.439   8.111
 3061POPC   C4A40458   8.401  14.579   7.753
 3061POPC   C1B40459   7.955  13.969   8.861
 3061POPC   C2B40460   7.756  13.997   8.428
 3061POPC   C3B40461   7.896  13.945   8.005
 3061POPC   C4B40462   8.298  14.055   7.816
 3062POPC   NC340463  22.751  14.046   9.422
 3062POPC   PO440464  23.058  13.447   9.543
 3062POPC   GL140465  23.025  13.364   9.139
 3062POPC   GL240466  22.710  13.552   9.171
 3062POPC   C1A40467  23.242  13.427   8.730
 3062POPC   D2A40468  23.224  13.712   8.373
 3062POPC   C3A40469  23.204  13.499   8.004
 3062POPC   C4A40470  22.822  13.334   7.878
 3062POPC   C1B40471  22.890  13.772   8.841
 3062POPC   C2B40472  22.733  13.710   8.463
 3062POPC   C3B40473  22.819  13.829   8.051
 3062POPC   C4B40474  23.024  14.058   7.733
 3063POPC   NC340475  11.420  28.929   9.624
 3063POPC   PO440476  10.871  28.561   9.526
 3063POPC   GL140477  11.114  28.856   9.217
 3063POPC   GL240478  11.514  28.841   9.129
 3063POPC   C1A40479  11.203  29.171   8.898
 3063POPC   D2A40480  11.328  29.068   8.489
 3063POPC   C3A40481  11.139  29.221   8.127
 3063POPC   C4A40482  11.097  29.491   7.803
 3063POPC   C1B40483  11.698  28.767   8.690
 3063POPC   C2B40484  11.613  28.736   8.208
 3063POPC   C3B40485  11.541  28.986   7.852
 3063POPC   C4B40486  11.476  28.846   7.352
 3064POPC   NC340487  41.403  31.206   9.449
 3064POPC   PO440488  42.004  31.543   9.555
 3064POPC   GL140489  41.774  31.457   9.186
 3064POPC   GL240490  41.487  31.655   9.124
 3064POPC   C1A40491  41.575  31.278   8.808
 3064POPC   D2A40492  41.589  31.133   8.406
 3064POPC   C3A40493  41.711  31.457   8.147
 3064POPC   C4A40494  41.837  31.479   7.748
 3064POPC   C1B40495  41.348  31.751   8.725
 3064POPC   C2B40496  41.226  31.503   8.388
 3064POPC   C3B40497  41.245  31.276   8.035
 3064POPC   C4B40498  41.319  31.575   7.723
 3065POPC   NC340499  11.672  37.799   9.576
 3065POPC   PO440500  11.073  37.503   9.862
 3065POPC   GL140501  11.212  37.770   9.375
 3065POPC   GL240502  11.433  37.591   9.199
 3065POPC   C1A40503  10.997  37.811   8.866
 3065POPC   D2A40504  11.050  38.005   8.451
 3065POPC   C3A40505  11.094  37.775   8.044
 3065POPC   C4A40506  11.319  37.875   7.685
 3065POPC   C1B40507  11.480  37.757   8.840
 3065POPC   C2B40508  11.381  37.620   8.446
 3065POPC   C3B40509  11.593  37.769   8.092
 3065POPC   C4B40510  11.796  37.716   7.700
 3066POPC   NC340511  42.572  26.072   9.766
 3066POPC   PO440512  41.976  25.992   9.422
 3066POPC   GL140513  42.297  26.062   9.095
 3066POPC   GL240514  42.562  26.303   9.036
 3066POPC   C1A40515  42.246  26.019   8.648
 3066POPC   D2A40516  42.410  25.909   8.251
 3066POPC   C3A40517  42.118  25.823   7.923
 3066POPC   C4A40518  42.181  25.901   7.475
 3066POPC   C1B40519  42.346  26.526   8.675
 3066POPC   C2B40520  42.226  26.410   8.225
 3066POPC   C3B40521  42.399  26.246   7.822
 3066POPC   C4B40522  42.444  26.325   7.355
 3067POPC   NC340523   5.007  17.334   9.421
 3067POPC   PO440524   5.321  17.902   9.633
 3067POPC   GL140525   5.311  17.661   9.144
 3067POPC   GL240526   4.954  17.528   8.962
 3067POPC   C1A40527   5.354  17.428   8.720
 3067POPC   D2A40528   5.026  17.555   8.403
 3067POPC   C3A40529   5.034  17.836   8.071
 3067POPC   C4A40530   5.071  17.590   7.707
 3067POPC   C1B40531   4.778  17.245   8.705
 3067POPC   C2B40532   5.014  17.037   8.393
 3067POPC   C3B40533   5.140  17.192   8.019
 3067POPC   C4B40534   4.957  16.946   7.766
 3068POPC   NC340535  13.091   7.063   9.388
 3068POPC   PO440536  12.467   6.844   9.490
 3068POPC   GL140537  12.678   6.763   9.108
 3068POPC   GL240538  12.958   6.557   9.237
 3068POPC   C1A40539  13.008   6.785   8.770
 3068POPC   D2A40540  13.165   6.746   8.355
 3068POPC   C3A40541  12.862   6.846   8.077
 3068POPC   C4A40542  12.894   6.968   7.702
 3068POPC   C1B40543  12.824   6.311   8.871
 3068POPC   C2B40544  12.712   6.447   8.459
 3068POPC   C3B40545  12.843   6.347   8.052
 3068POPC   C4B40546  12.693   6.510   7.656
 3069POPC   NC340547  14.732  29.584   9.324
 3069POPC   PO440548  14.603  28.940   9.565
 3069POPC   GL140549  14.408  29.154   9.217
 3069POPC   GL240550  14.219  28.912   9.040
 3069POPC   C1A40551  14.380  29.368   8.812
 3069POPC   D2A40552  14.142  29.423   8.476
 3069POPC   C3A40553  14.355  29.324   8.119
 3069POPC   C4A40554  14.094  29.255   7.805
 3069POPC   C1B40555  14.222  28.930   8.615
 3069POPC   C2B40556  14.484  28.839   8.294
 3069POPC   C3B40557  14.287  28.724   7.932
 3069POPC   C4B40558  14.057  28.826   7.522
 3070POPC   NC340559  13.269  37.601   9.515
 3070POPC   PO440560  13.929  37.860   9.526
 3070POPC   GL140561  13.641  37.880   9.187
 3070POPC   GL240562  13.664  37.525   9.098
 3070POPC   C1A40563  13.529  37.887   8.746
 3070POPC   D2A40564  13.474  37.657   8.371
 3070POPC   C3A40565  13.408  37.911   7.987
 3070POPC   C4A40566  13.624  37.938   7.585
 3070POPC   C1B40567  13.933  37.594   8.703
 3070POPC   C2B40568  13.966  37.683   8.251
 3070POPC   C3B40569  13.755  37.537   7.900
 3070POPC   C4B40570  13.511  37.374   7.573
 3071POPC   NC340571  22.138   6.269   9.611
 3071POPC   PO440572  21.916   6.902   9.646
 3071POPC   GL140573  21.884   6.641   9.246
 3071POPC   GL240574  22.222   6.544   9.161
 3071POPC   C1A40575  21.942   6.623   8.738
 3071POPC   D2A40576  21.752   6.600   8.305
 3071POPC   C3A40577  22.008   6.588   7.961
 3071POPC   C4A40578  21.952   6.801   7.610
 3071POPC   C1B40579  22.496   6.453   8.802
 3071POPC   C2B40580  22.687   6.366   8.381
 3071POPC   C3B40581  22.555   6.528   7.971
 3071POPC   C4B40582  22.591   6.889   7.699
 3072POPC   NC340583  13.280  14.362   9.234
 3072POPC   PO440584  13.750  14.714   9.573
 3072POPC   GL140585  13.840  14.452   9.200
 3072POPC   GL240586  13.902  14.129   9.289
 3072POPC   C1A40587  13.782  14.322   8.742
 3072POPC   D2A40588  13.654  14.451   8.304
 3072POPC   C3A40589  13.613  14.240   7.896
 3072POPC   C4A40590  13.800  14.305   7.495
 3072POPC   C1B40591  14.136  13.984   8.907
 3072POPC   C2B40592  14.064  13.857   8.508
 3072POPC   C3B40593  14.059  14.089   8.150
 3072POPC   C4B40594  13.972  13.907   7.787
 3073POPC   NC340595  38.079  13.279   9.602
 3073POPC   PO440596  38.148  13.872   9.310
 3073POPC   GL140597  38.328  13.681   9.042
 3073POPC   GL240598  38.409  13.387   9.224
 3073POPC   C1A40599  38.200  13.731   8.653
 3073POPC   D2A40600  38.217  13.693   8.276
 3073POPC   C3A40601  38.489  13.914   8.073
 3073POPC   C4A40602  38.313  13.667   7.757
 3073POPC   C1B40603  38.659  13.352   8.859
 3073POPC   C2B40604  38.665  13.569   8.497
 3073POPC   C3B40605  38.608  13.425   8.124
 3073POPC   C4B40606  38.742  13.408   7.756
 3074POPC   NC340607  37.834  11.775   9.848
 3074POPC   PO440608  37.405  12.007   9.407
 3074POPC   GL140609  37.456  12.052   9.013
 3074POPC   GL240610  37.833  12.014   9.081
 3074POPC   C1A40611  37.649  12.149   8.642
 3074POPC   D2A40612  37.455  12.044   8.292
 3074POPC   C3A40613  37.674  12.210   8.006
 3074POPC   C4A40614  37.699  12.302   7.602
 3074POPC   C1B40615  38.054  11.807   8.748
 3074POPC   C2B40616  37.945  11.876   8.328
 3074POPC   C3B40617  38.038  11.803   7.942
 3074POPC   C4B40618  38.102  11.997   7.572
 3075POPC   NC340619  15.805  33.916   9.697
 3075POPC   PO440620  16.234  33.447   9.496
 3075POPC   GL140621  15.916  33.688   9.215
 3075POPC   GL240622  15.785  34.067   9.205
 3075POPC   C1A40623  15.929  33.802   8.777
 3075POPC   D2A40624  16.044  33.697   8.375
 3075POPC   C3A40625  16.097  33.956   8.079
 3075POPC   C4A40626  16.036  33.853   7.673
 3075POPC   C1B40627  15.605  34.200   8.788
 3075POPC   C2B40628  15.615  33.993   8.365
 3075POPC   C3B40629  15.627  34.075   7.910
 3075POPC   C4B40630  15.816  34.288   7.541
 3076POPC   NC340631  10.642  32.205   9.763
 3076POPC   PO440632  10.808  32.475   9.217
 3076POPC   GL140633  10.473  32.300   9.062
 3076POPC   GL240634  10.388  31.961   9.233
 3076POPC   C1A40635  10.427  32.309   8.615
 3076POPC   D2A40636  10.198  32.326   8.252
 3076POPC   C3A40637  10.475  32.429   7.948
 3076POPC   C4A40638  10.693  32.420   7.552
 3076POPC   C1B40639  10.166  31.934   8.820
 3076POPC   C2B40640  10.097  31.840   8.365
 3076POPC   C3B40641  10.308  31.932   7.927
 3076POPC   C4B40642  10.409  32.000   7.428
 3077POPC   NC340643  27.394  19.867   9.515
 3077POPC   PO440644  28.053  19.741   9.527
 3077POPC   GL140645  27.754  19.713   9.164
 3077POPC   GL240646  27.530  19.992   9.040
 3077POPC   C1A40647  27.818  19.595   8.743
 3077POPC   D2A40648  27.681  19.535   8.329
 3077POPC   C3A40649  27.895  19.740   8.007
 3077POPC   C4A40650  27.734  19.927   7.678
 3077POPC   C1B40651  27.298  19.687   8.774
 3077POPC   C2B40652  27.045  19.677   8.392
 3077POPC   C3B40653  27.298  19.774   8.062
 3077POPC   C4B40654  27.277  19.725   7.678
 3078POPC   NC340655   7.031  21.564   9.491
 3078POPC   PO440656   7.662  21.607   9.644
 3078POPC   GL140657   7.460  21.669   9.215
 3078POPC   GL240658   7.329  21.309   9.158
 3078POPC   C1A40659   7.242  21.639   8.791
 3078POPC   D2A40660   7.180  21.383   8.427
 3078POPC   C3A40661   7.283  21.644   8.090
 3078POPC   C4A40662   7.236  21.522   7.729
 3078POPC   C1B40663   7.429  21.027   8.811
 3078POPC   C2B40664   7.664  21.042   8.437
 3078POPC   C3B40665   7.550  21.174   8.044
 3078POPC   C4B40666   7.507  20.909   7.709
 3079POPC   NC340667  26.563  20.046   9.621
 3079POPC   PO440668  27.014  19.617   9.565
 3079POPC   GL140669  26.964  19.676   9.160
 3079POPC   GL240670  26.769  19.980   9.163
 3079POPC   C1A40671  26.695  19.508   8.831
 3079POPC   D2A40672  26.469  19.563   8.432
 3079POPC   C3A40673  26.681  19.498   8.033
 3079POPC   C4A40674  26.772  19.651   7.607
 3079POPC   C1B40675  26.872  19.988   8.753
 3079POPC   C2B40676  26.652  20.062   8.381
 3079POPC   C3B40677  26.758  20.010   7.971
 3079POPC   C4B40678  27.072  20.182   7.722
 3080POPC   NC340679  34.923  17.703   9.452
 3080POPC   PO440680  34.413  17.254   9.538
 3080POPC   GL140681  34.469  17.602   9.198
 3080POPC   GL240682  34.782  17.638   8.976
 3080POPC   C1A40683  34.357  17.811   8.780
 3080POPC   D2A40684  34.611  17.794   8.395
 3080POPC   C3A40685  34.470  17.633   7.990
 3080POPC   C4A40686  34.230  17.443   7.637
 3080POPC   C1B40687  34.971  17.378   8.667
 3080POPC   C2B40688  34.925  17.418   8.206
 3080POPC   C3B40689  34.870  17.380   7.807
 3080POPC   C4B40690  34.689  17.500   7.467
 3081POPC   NC340691  37.096   6.148   9.458
 3081POPC   PO440692  36.853   6.701   9.668
 3081POPC   GL140693  36.910   6.775   9.211
 3081POPC   GL240694  36.826   6.466   9.150
 3081POPC   C1A40695  37.067   6.815   8.748
 3081POPC   D2A40696  37.248   6.959   8.304
 3081POPC   C3A40697  37.159   6.716   7.919
 3081POPC   C4A40698  37.129   6.409   7.591
 3081POPC   C1B40699  36.590   6.328   8.832
 3081POPC   C2B40700  36.690   6.265   8.436
 3081POPC   C3B40701  36.709   6.577   8.144
 3081POPC   C4B40702  36.676   6.534   7.735
 3082POPC   NC340703  11.981  34.653   9.521
 3082POPC   PO440704  11.958  33.955   9.575
 3082POPC   GL140705  11.954  34.213   9.223
 3082POPC   GL240706  12.291  34.356   9.129
 3082POPC   C1A40707  11.903  34.421   8.821
 3082POPC   D2A40708  12.166  34.396   8.449
 3082POPC   C3A40709  11.951  34.412   8.059
 3082POPC   C4A40710  11.839  34.699   7.770
 3082POPC   C1B40711  12.400  34.693   8.819
 3082POPC   C2B40712  12.489  34.799   8.369
 3082POPC   C3B40713  12.397  34.656   7.925
 3082POPC   C4B40714  12.479  34.770   7.433
 3083POPC   NC340715  12.351  43.517   9.439
 3083POPC   PO440716  11.916  42.965   9.547
 3083POPC   GL140717  12.134  43.041   9.168
 3083POPC   GL240718  12.452  42.913   9.250
 3083POPC   C1A40719  12.274  43.263   8.773
 3083POPC   D2A40720  12.468  43.303   8.356
 3083POPC   C3A40721  12.214  43.273   7.997
 3083POPC   C4A40722  11.882  43.155   7.719
 3083POPC   C1B40723  12.449  42.775   8.825
 3083POPC   C2B40724  12.565  42.791   8.397
 3083POPC   C3B40725  12.602  42.930   7.993
 3083POPC   C4B40726  12.371  42.970   7.613
 3084POPC   NC340727   3.407   1.597   9.578
 3084POPC   PO440728   3.797   1.102   9.693
 3084POPC   GL140729   3.638   1.271   9.268
 3084POPC   GL240730   3.445   0.998   9.158
 3084POPC   C1A40731   3.763   1.408   8.838
 3084POPC   D2A40732   3.636   1.408   8.409
 3084POPC   C3A40733   3.692   1.046   8.138
 3084POPC   C4A40734   3.705   1.209   7.729
 3084POPC   C1B40735   3.475   0.961   8.709
 3084POPC   C2B40736   3.228   1.087   8.367
 3084POPC   C3B40737   3.241   1.227   7.937
 3084POPC   C4B40738   3.220   1.056   7.510
 3085POPC   NC340739  12.185  11.376   9.732
 3085POPC   PO440740  11.967  11.787   9.247
 3085POPC   GL140741  12.154  11.480   9.032
 3085POPC   GL240742  12.266  11.210   9.249
 3085POPC   C1A40743  12.355  11.515   8.672
 3085POPC   D2A40744  12.301  11.446   8.298
 3085POPC   C3A40745  12.046  11.581   8.059
 3085POPC   C4A40746  12.319  11.540   7.691
 3085POPC   C1B40747  12.156  11.023   8.838
 3085POPC   C2B40748  11.972  11.075   8.435
 3085POPC   C3B40749  12.148  11.046   8.013
 3085POPC   C4B40750  12.239  11.038   7.577
 3086POPC   NC340751   3.941  28.055   9.568
 3086POPC   PO440752   3.566  28.583   9.526
 3086POPC   GL140753   3.452  28.443   9.134
 3086POPC   GL240754   3.775  28.563   9.056
 3086POPC   C1A40755   3.497  28.326   8.700
 3086POPC   D2A40756   3.350  28.530   8.318
 3086POPC   C3A40757   3.436  28.290   7.942
 3086POPC   C4A40758   3.814  28.204   7.678
 3086POPC   C1B40759   3.712  28.801   8.707
 3086POPC   C2B40760   3.691  28.942   8.317
 3086POPC   C3B40761   3.768  28.684   7.979
 3086POPC   C4B40762   3.562  28.685   7.617
 3087POPC   NC340763  16.244  39.688   9.495
 3087POPC   PO440764  16.617  40.203   9.348
 3087POPC   GL140765  16.689  39.809   9.186
 3087POPC   GL240766  16.395  39.859   9.025
 3087POPC   C1A40767  16.761  39.612   8.776
 3087POPC   D2A40768  16.777  39.870   8.431
 3087POPC   C3A40769  16.713  39.810   8.019
 3087POPC   C4A40770  16.796  40.180   7.787
 3087POPC   C1B40771  16.262  40.075   8.654
 3087POPC   C2B40772  16.379  40.178   8.216
 3087POPC   C3B40773  16.285  39.999   7.796
 3087POPC   C4B40774  16.264  40.064   7.323
 3088POPC   NC340775  28.067  36.066   9.508
 3088POPC   PO440776  28.558  36.407   9.180
 3088POPC   GL140777  28.298  36.124   9.029
 3088POPC   GL240778  28.462  35.851   9.240
 3088POPC   C1A40779  28.292  36.180   8.573
 3088POPC   D2A40780  28.572  36.290   8.213
 3088POPC   C3A40781  28.338  36.306   7.813
 3088POPC   C4A40782  28.258  36.153   7.394
 3088POPC   C1B40783  28.535  35.742   8.816
 3088POPC   C2B40784  28.374  35.703   8.414
 3088POPC   C3B40785  28.448  35.809   7.998
 3088POPC   C4B40786  28.087  35.813   7.724
 3089POPC   NC340787   9.625  12.009   9.459
 3089POPC   PO440788  10.286  12.164   9.267
 3089POPC   GL140789   9.904  12.007   9.016
 3089POPC   GL240790   9.509  12.088   8.963
 3089POPC   C1A40791   9.788  11.917   8.596
 3089POPC   D2A40792   9.708  12.122   8.224
 3089POPC   C3A40793   9.995  12.066   7.914
 3089POPC   C4A40794  10.046  12.348   7.542
 3089POPC   C1B40795   9.293  12.133   8.553
 3089POPC   C2B40796   9.295  11.848   8.180
 3089POPC   C3B40797   9.591  11.721   7.836
 3089POPC   C4B40798   9.619  11.817   7.370
 3090POPC   NC340799  31.011  37.242   9.476
 3090POPC   PO440800  30.381  36.897   9.496
 3090POPC   GL140801  30.690  36.946   9.167
 3090POPC   GL240802  30.879  36.682   8.990
 3090POPC   C1A40803  30.510  36.927   8.762
 3090POPC   D2A40804  30.472  36.669   8.382
 3090POPC   C3A40805  30.475  36.907   8.036
 3090POPC   C4A40806  30.618  36.966   7.617
 3090POPC   C1B40807  30.981  37.092   8.763
 3090POPC   C2B40808  30.909  37.088   8.334
 3090POPC   C3B40809  31.010  36.911   7.949
 3090POPC   C4B40810  31.067  37.218   7.642
 3091POPC   NC340811   5.844  41.409   9.516
 3091POPC   PO440812   6.200  41.961   9.394
 3091POPC   GL140813   5.893  41.700   9.093
 3091POPC   GL240814   5.521  41.755   9.108
 3091POPC   C1A40815   5.811  41.398   8.727
 3091POPC   D2A40816   5.946  41.336   8.298
 3091POPC   C3A40817   6.028  41.711   8.065
 3091POPC   C4A40818   6.022  41.641   7.643
 3091POPC   C1B40819   5.600  41.866   8.679
 3091POPC   C2B40820   5.558  41.797   8.245
 3091POPC   C3B40821   5.568  41.872   7.802
 3091POPC   C4B40822   5.517  41.564   7.507
 3092POPC   NC340823  16.646  38.926   9.561
 3092POPC   PO440824  17.014  39.552   9.512
 3092POPC   GL140825  16.774  39.300   9.220
 3092POPC   GL240826  16.459  39.358   9.088
 3092POPC   C1A40827  16.826  39.094   8.832
 3092POPC   D2A40828  16.924  38.986   8.414
 3092POPC   C3A40829  16.916  39.340   8.126
 3092POPC   C4A40830  16.787  39.351   7.698
 3092POPC   C1B40831  16.236  39.506   8.713
 3092POPC   C2B40832  16.284  39.657   8.306
 3092POPC   C3B40833  16.337  39.481   7.916
 3092POPC   C4B40834  16.190  39.565   7.500
 3093POPC   NC340835  32.040  10.076   9.759
 3093POPC   PO440836  32.239   9.421   9.514
 3093POPC   GL140837  32.235   9.683   9.153
 3093POPC   GL240838  32.013   9.977   9.232
 3093POPC   C1A40839  32.370   9.656   8.713
 3093POPC   D2A40840  32.603   9.652   8.322
 3093POPC   C3A40841  32.375   9.571   7.955
 3093POPC   C4A40842  32.494   9.527   7.538
 3093POPC   C1B40843  31.900   9.852   8.802
 3093POPC   C2B40844  31.979   9.693   8.353
 3093POPC   C3B40845  31.933   9.817   7.915
 3093POPC   C4B40846  32.089   9.900   7.531
 3094POPC   NC340847   5.677   6.416   9.713
 3094POPC   PO440848   5.864   5.748   9.659
 3094POPC   GL140849   5.999   5.709   9.192
 3094POPC   GL240850   6.030   6.048   9.194
 3094POPC   C1A40851   5.946   5.655   8.707
 3094POPC   D2A40852   5.987   5.809   8.237
 3094POPC   C3A40853   5.823   5.614   7.878
 3094POPC   C4A40854   5.683   5.854   7.534
 3094POPC   C1B40855   6.326   6.069   8.881
 3094POPC   C2B40856   6.231   6.156   8.493
 3094POPC   C3B40857   6.378   6.080   8.089
 3094POPC   C4B40858   6.140   6.030   7.710
 3095POPC   NC340859  43.734  35.674   9.363
 3095POPC   PO440860  44.071  35.133   9.554
 3095POPC   GL140861  43.894  35.191   9.151
 3095POPC   GL240862  44.251  35.238   9.083
 3095POPC   C1A40863  43.942  35.216   8.682
 3095POPC   D2A40864  43.940  35.152   8.250
 3095POPC   C3A40865  43.774  35.461   7.988
 3095POPC   C4A40866  43.820  35.259   7.627
 3095POPC   C1B40867  44.402  35.462   8.771
 3095POPC   C2B40868  44.261  35.595   8.396
 3095POPC   C3B40869  44.283  35.463   7.997
 3095POPC   C4B40870  44.171  35.637   7.622
 3096POPC   NC340871  24.728   4.396   9.339
 3096POPC   PO440872  25.360   4.319   9.614
 3096POPC   GL140873  25.501   4.251   9.181
 3096POPC   GL240874  25.585   4.565   8.977
 3096POPC   C1A40875  25.662   4.094   8.788
 3096POPC   D2A40876  25.651   4.358   8.412
 3096POPC   C3A40877  25.523   4.100   8.079
 3096POPC   C4A40878  25.340   4.108   7.650
 3096POPC   C1B40879  25.191   4.346   8.747
 3096POPC   C2B40880  24.897   4.284   8.362
 3096POPC   C3B40881  25.048   4.399   7.956
 3096POPC   C4B40882  25.475   4.550   7.868
 3097POPC   NC340883  24.266   2.676   9.773
 3097POPC   PO440884  24.951   2.608   9.606
 3097POPC   GL140885  24.809   2.575   9.125
 3097POPC   GL240886  24.486   2.723   9.078
 3097POPC   C1A40887  24.755   2.760   8.663
 3097POPC   D2A40888  24.688   3.029   8.294
 3097POPC   C3A40889  24.726   2.729   7.990
 3097POPC   C4A40890  24.462   2.376   7.860
 3097POPC   C1B40891  24.210   2.834   8.732
 3097POPC   C2B40892  24.010   2.917   8.399
 3097POPC   C3B40893  24.214   2.776   8.088
 3097POPC   C4B40894  24.337   2.846   7.705
 3098POPC   NC340895   9.678  38.837   9.426
 3098POPC   PO440896   9.287  38.279   9.548
 3098POPC   GL140897   9.493  38.436   9.151
 3098POPC   GL240898   9.838  38.354   9.180
 3098POPC   C1A40899   9.708  38.708   8.771
 3098POPC   D2A40900   9.518  38.885   8.344
 3098POPC   C3A40901   9.653  38.651   7.979
 3098POPC   C4A40902  10.104  38.551   7.857
 3098POPC   C1B40903   9.684  38.180   8.768
 3098POPC   C2B40904   9.740  38.321   8.355
 3098POPC   C3B40905   9.870  38.129   7.981
 3098POPC   C4B40906   9.744  37.924   7.613
 3099POPC   NC340907  13.313   4.037   9.592
 3099POPC   PO440908  13.709   4.600   9.425
 3099POPC   GL140909  13.576   4.474   9.086
 3099POPC   GL240910  13.487   4.144   9.115
 3099POPC   C1A40911  13.777   4.357   8.701
 3099POPC   D2A40912  13.588   4.466   8.327
 3099POPC   C3A40913  13.785   4.376   7.919
 3099POPC   C4A40914  13.720   4.620   7.546
 3099POPC   C1B40915  13.255   4.319   8.731
 3099POPC   C2B40916  13.051   4.427   8.338
 3099POPC   C3B40917  13.262   4.437   7.934
 3099POPC   C4B40918  13.392   4.214   7.585
 3100POPC   NC340919  22.501  35.431   9.712
 3100POPC   PO440920  22.028  35.654   9.329
 3100POPC   GL140921  22.023  35.424   9.009
 3100POPC   GL240922  22.278  35.189   9.131
 3100POPC   C1A40923  21.943  35.559   8.621
 3100POPC   D2A40924  22.114  35.548   8.219
 3100POPC   C3A40925  21.815  35.447   7.927
 3100POPC   C4A40926  21.806  35.546   7.510
 3100POPC   C1B40927  22.170  35.018   8.742
 3100POPC   C2B40928  22.291  35.034   8.329
 3100POPC   C3B40929  22.169  35.083   7.920
 3100POPC   C4B40930  22.097  35.148   7.477
 3101POPC   NC340931  29.724  41.989   9.523
 3101POPC   PO440932  30.152  42.447   9.623
 3101POPC   GL140933  30.072  42.271   9.221
 3101POPC   GL240934  29.736  42.256   9.099
 3101POPC   C1A40935  30.158  42.253   8.780
 3101POPC   D2A40936  30.039  42.414   8.385
 3101POPC   C3A40937  30.097  42.276   7.979
 3101POPC   C4A40938  29.785  42.467   7.696
 3101POPC   C1B40939  29.754  41.952   8.788
 3101POPC   C2B40940  29.659  42.035   8.352
 3101POPC   C3B40941  29.658  42.023   7.893
 3101POPC   C4B40942  29.826  41.895   7.446
 3102POPC   NC340943  18.881  40.317   9.380
 3102POPC   PO440944  19.189  39.790   9.359
 3102POPC   GL140945  19.105  40.033   9.005
 3102POPC   GL240946  18.916  40.338   8.885
 3102POPC   C1A40947  19.221  40.015   8.598
 3102POPC   D2A40948  18.892  39.993   8.340
 3102POPC   C3A40949  19.044  39.960   7.941
 3102POPC   C4A40950  19.423  40.163   7.794
 3102POPC   C1B40951  18.502  40.448   8.768
 3102POPC   C2B40952  18.400  40.438   8.363
 3102POPC   C3B40953  18.689  40.360   8.059
 3102POPC   C4B40954  18.983  40.415   7.716
 3103POPC   NC340955   5.432  23.252   9.416
 3103POPC   PO440956   5.238  22.608   9.670
 3103POPC   GL140957   5.180  22.783   9.213
 3103POPC   GL240958   5.012  23.125   9.157
 3103POPC   C1A40959   5.093  22.836   8.760
 3103POPC   D2A40960   5.177  23.066   8.382
 3103POPC   C3A40961   5.351  22.899   8.011
 3103POPC   C4A40962   5.427  23.178   7.702
 3103POPC   C1B40963   4.747  23.277   8.829
 3103POPC   C2B40964   4.745  23.369   8.379
 3103POPC   C3B40965   4.920  23.253   7.977
 3103POPC   C4B40966   4.853  22.932   7.710
 3104POPC   NC340967  44.217  32.510   9.531
 3104POPC   PO440968  43.763  32.009   9.542
 3104POPC   GL140969  43.911  32.108   9.174
 3104POPC   GL240970  43.821  32.454   9.161
 3104POPC   C1A40971  43.855  32.156   8.740
 3104POPC   D2A40972  44.033  32.369   8.373
 3104POPC   C3A40973  43.870  32.157   8.042
 3104POPC   C4A40974  43.507  31.902   7.920
 3104POPC   C1B40975  44.137  32.592   8.826
 3104POPC   C2B40976  44.329  32.785   8.436
 3104POPC   C3B40977  44.196  32.781   7.983
 3104POPC   C4B40978  44.025  32.488   7.681
 3105POPC   NC340979  38.559   7.168   9.442
 3105POPC   PO440980  38.097   7.595   9.619
 3105POPC   GL140981  38.317   7.533   9.200
 3105POPC   GL240982  38.260   7.204   9.005
 3105POPC   C1A40983  38.355   7.666   8.780
 3105POPC   D2A40984  38.214   7.394   8.442
 3105POPC   C3A40985  38.292   7.603   8.073
 3105POPC   C4A40986  38.366   7.389   7.705
 3105POPC   C1B40987  38.637   7.237   8.772
 3105POPC   C2B40988  38.712   7.502   8.416
 3105POPC   C3B40989  38.667   7.228   8.085
 3105POPC   C4B40990  38.894   7.122   7.750
 3106POPC   NC340991  28.181  27.212   9.361
 3106POPC   PO440992  28.211  26.606   9.660
 3106POPC   GL140993  28.314  26.593   9.201
 3106POPC   GL240994  28.327  26.920   8.994
 3106POPC   C1A40995  28.585  26.544   8.810
 3106POPC   D2A40996  28.459  26.749   8.420
 3106POPC   C3A40997  28.201  26.539   8.108
 3106POPC   C4A40998  28.239  26.410   7.680
 3106POPC   C1B40999  28.245  27.220   8.664
 3106POPC   C2B41000  28.309  27.239   8.219
 3106POPC   C3B41001  28.286  27.243   7.798
 3106POPC   C4B41002  28.103  26.882   7.737
 3107POPC   NC341003  31.925  27.086   9.509
 3107POPC   PO441004  32.554  26.782   9.783
 3107POPC   GL141005  32.290  26.780   9.331
 3107POPC   GL241006  32.314  27.134   9.182
 3107POPC   C1A41007  32.008  26.861   8.908
 3107POPC   D2A41008  32.127  26.960   8.461
 3107POPC   C3A41009  32.022  26.653   8.163
 3107POPC   C4A41010  31.813  26.756   7.817
 3107POPC   C1B41011  32.499  26.878   8.794
 3107POPC   C2B41012  32.715  26.992   8.416
 3107POPC   C3B41013  32.546  27.069   8.022
 3107POPC   C4B41014  32.327  26.830   7.741
 3108POPC   NC341015   1.062  36.531   9.460
 3108POPC   PO441016   0.755  35.954   9.449
 3108POPC   GL141017   1.085  35.994   9.162
 3108POPC   GL241018   1.225  36.319   9.032
 3108POPC   C1A41019   1.083  35.898   8.723
 3108POPC   D2A41020   1.260  36.250   8.509
 3108POPC   C3A41021   1.093  36.430   8.114
 3108POPC   C4A41022   1.106  36.506   7.662
 3108POPC   C1B41023   1.532  36.009   8.917
 3108POPC   C2B41024   1.689  35.926   8.530
 3108POPC   C3B41025   1.552  36.121   8.129
 3108POPC   C4B41026   1.274  36.021   7.824
 3109POPC   NC341027  36.427  14.802   9.553
 3109POPC   PO441028  35.874  15.356   9.616
 3109POPC   GL141029  35.892  15.274   9.157
 3109POPC   GL241030  36.147  15.064   9.219
 3109POPC   C1A41031  36.141  15.259   8.740
 3109POPC   D2A41032  35.978  15.322   8.334
 3109POPC   C3A41033  36.108  15.434   7.918
 3109POPC   C4A41034  35.929  15.254   7.512
 3109POPC   C1B41035  36.292  14.792   8.895
 3109POPC   C2B41036  36.292  14.833   8.448
 3109POPC   C3B41037  36.441  14.961   8.038
 3109POPC   C4B41038  36.352  14.822   7.633
 3110POPC   NC341039  23.220  25.681   9.615
 3110POPC   PO441040  22.929  26.244   9.671
 3110POPC   GL141041  23.072  26.036   9.251
 3110POPC   GL241042  22.976  25.711   9.144
 3110POPC   C1A41043  23.020  26.142   8.813
 3110POPC   D2A41044  23.269  26.149   8.444
 3110POPC   C3A41045  23.095  26.285   8.078
 3110POPC   C4A41046  22.811  26.083   7.818
 3110POPC   C1B41047  22.778  25.679   8.702
 3110POPC   C2B41048  22.721  25.743   8.214
 3110POPC   C3B41049  22.649  25.616   7.730
 3110POPC   C4B41050  22.477  25.752   7.267
 3111POPC   NC341051  20.730  29.981   9.643
 3111POPC   PO441052  20.616  30.579   9.459
 3111POPC   GL141053  20.733  30.212   9.199
 3111POPC   GL241054  20.452  29.921   9.214
 3111POPC   C1A41055  20.752  29.972   8.815
 3111POPC   D2A41056  20.768  29.624   8.545
 3111POPC   C3A41057  20.759  29.827   8.160
 3111POPC   C4A41058  20.734  29.829   7.746
 3111POPC   C1B41059  20.314  29.680   8.825
 3111POPC   C2B41060  20.287  29.795   8.373
 3111POPC   C3B41061  20.329  29.614   7.972
 3111POPC   C4B41062  20.213  29.638   7.527
 3112POPC   NC341063   9.280  42.291   9.394
 3112POPC   PO441064   8.926  42.822   9.526
 3112POPC   GL141065   8.839  42.559   9.183
 3112POPC   GL241066   8.798  42.176   9.189
 3112POPC   C1A41067   9.062  42.535   8.808
 3112POPC   D2A41068   8.884  42.599   8.419
 3112POPC   C3A41069   9.027  42.503   8.061
 3112POPC   C4A41070   9.128  42.742   7.777
 3112POPC   C1B41071   9.032  42.037   8.790
 3112POPC   C2B41072   8.853  42.067   8.361
 3112POPC   C3B41073   8.870  42.058   7.901
 3112POPC   C4B41074   9.224  42.206   7.664
 3113POPC   NC341075  43.476  13.474   9.462
 3113POPC   PO441076  42.975  13.832   9.636
 3113POPC   GL141077  43.128  13.723   9.205
 3113POPC   GL241078  43.385  13.856   9.035
 3113POPC   C1A41079  43.042  13.581   8.795
 3113POPC   D2A41080  43.281  13.828   8.508
 3113POPC   C3A41081  43.255  13.647   8.137
 3113POPC   C4A41082  43.045  13.752   7.784
 3113POPC   C1B41083  43.542  13.465   8.804
 3113POPC   C2B41084  43.534  13.273   8.410
 3113POPC   C3B41085  43.697  13.324   8.000
 3113POPC   C4B41086  43.563  13.162   7.608
 3114POPC   NC341087  35.956   5.792   9.410
 3114POPC   PO441088  36.610   6.068   9.448
 3114POPC   GL141089  36.400   5.897   9.100
 3114POPC   GL241090  36.386   5.510   9.125
 3114POPC   C1A41091  36.144   6.098   8.760
 3114POPC   D2A41092  35.834   5.962   8.488
 3114POPC   C3A41093  35.929   5.957   8.059
 3114POPC   C4A41094  36.396   6.038   7.903
 3114POPC   C1B41095  36.152   5.601   8.746
 3114POPC   C2B41096  36.300   5.759   8.354
 3114POPC   C3B41097  36.237   5.563   7.965
 3114POPC   C4B41098  35.837   5.542   7.762
 3115POPC   NC341099  26.118  34.980   9.534
 3115POPC   PO441100  25.880  34.362   9.536
 3115POPC   GL141101  25.971  34.372   9.090
 3115POPC   GL241102  26.310  34.453   9.180
 3115POPC   C1A41103  25.846  34.312   8.615
 3115POPC   D2A41104  25.743  34.497   8.193
 3115POPC   C3A41105  26.035  34.362   7.861
 3115POPC   C4A41106  26.026  34.348   7.418
 3115POPC   C1B41107  26.359  34.640   8.797
 3115POPC   C2B41108  26.126  34.705   8.453
 3115POPC   C3B41109  26.189  34.782   8.061
 3115POPC   C4B41110  26.308  34.744   7.637
 3116POPC   NC341111  17.476  38.394  10.139
 3116POPC   PO441112  17.081  38.465   9.631
 3116POPC   GL141113  17.254  38.418   9.184
 3116POPC   GL241114  17.476  38.681   9.133
 3116POPC   C1A41115  17.430  38.383   8.742
 3116POPC   D2A41116  17.263  38.291   8.334
 3116POPC   C3A41117  17.283  38.497   7.944
 3116POPC   C4A41118  17.392  38.264   7.597
 3116POPC   C1B41119  17.810  38.751   8.819
 3116POPC   C2B41120  17.932  38.886   8.408
 3116POPC   C3B41121  17.749  38.754   8.013
 3116POPC   C4B41122  17.606  38.757   7.608
 3117POPC   NC341123  37.683  32.302   9.603
 3117POPC   PO441124  38.059  31.873   9.194
 3117POPC   GL141125  37.683  32.109   9.118
 3117POPC   GL241126  37.713  32.475   9.131
 3117POPC   C1A41127  37.601  32.185   8.681
 3117POPC   D2A41128  37.882  32.087   8.340
 3117POPC   C3A41129  37.731  32.008   7.911
 3117POPC   C4A41130  37.791  31.938   7.462
 3117POPC   C1B41131  37.650  32.708   8.769
 3117POPC   C2B41132  37.530  32.592   8.346
 3117POPC   C3B41133  37.646  32.506   7.915
 3117POPC   C4B41134  37.378  32.277   7.620
 3118POPC   NC341135  27.508   0.684   9.417
 3118POPC   PO441136  27.515   0.022   9.592
 3118POPC   GL141137  27.801   0.224   9.224
 3118POPC   GL241138  27.972   0.577   9.164
 3118POPC   C1A41139  27.696   0.396   8.778
 3118POPC   D2A41140  27.726   0.260   8.347
 3118POPC   C3A41141  27.335   0.180   8.158
 3118POPC   C4A41142  27.186   0.246   7.756
 3118POPC   C1B41143  27.941   0.865   8.767
 3118POPC   C2B41144  27.688   0.839   8.371
 3118POPC   C3B41145  27.471   0.684   7.993
 3118POPC   C4B41146  27.495   0.625   7.534
 3119POPC   NC341147  15.292  15.620   9.695
 3119POPC   PO441148  14.889  15.897   9.294
 3119POPC   GL141149  15.082  15.717   8.998
 3119POPC   GL241150  15.398  15.626   9.015
 3119POPC   C1A41151  15.014  15.724   8.596
 3119POPC   D2A41152  15.016  16.052   8.302
 3119POPC   C3A41153  14.967  15.821   7.952
 3119POPC   C4A41154  14.850  15.805   7.546
 3119POPC   C1B41155  15.514  15.837   8.653
 3119POPC   C2B41156  15.459  15.763   8.233
 3119POPC   C3B41157  15.413  16.091   7.954
 3119POPC   C4B41158  15.239  16.149   7.584
 3120POPC   NC341159  19.266  24.392   9.599
 3120POPC   PO441160  18.602  24.530   9.511
 3120POPC   GL141161  18.718  24.441   9.101
 3120POPC   GL241162  19.055  24.530   9.154
 3120POPC   C1A41163  18.692  24.427   8.650
 3120POPC   D2A41164  18.979  24.409   8.391
 3120POPC   C3A41165  18.890  24.573   8.019
 3120POPC   C4A41166  18.754  24.299   7.715
 3120POPC   C1B41167  19.029  24.775   8.808
 3120POPC   C2B41168  19.221  24.834   8.425
 3120POPC   C3B41169  19.390  24.559   8.109
 3120POPC   C4B41170  19.265  24.718   7.731
 3121POPC   NC341171  27.810  37.057   9.468
 3121POPC   PO441172  27.638  36.392   9.572
 3121POPC   GL141173  27.534  36.662   9.227
 3121POPC   GL241174  27.260  36.909   9.188
 3121POPC   C1A41175  27.576  36.733   8.795
 3121POPC   D2A41176  27.798  36.986   8.510
 3121POPC   C3A41177  27.696  36.881   8.106
 3121POPC   C4A41178  27.672  37.071   7.721
 3121POPC   C1B41179  27.266  37.159   8.759
 3121POPC   C2B41180  27.356  37.221   8.316
 3121POPC   C3B41181  27.215  37.036   7.952
 3121POPC   C4B41182  26.854  37.180   7.827
 3122POPC   NC341183  18.249  39.752   9.499
 3122POPC   PO441184  18.435  40.426   9.523
 3122POPC   GL141185  18.429  40.123   9.166
 3122POPC   GL241186  18.065  40.056   9.132
 3122POPC   C1A41187  18.587  39.915   8.770
 3122POPC   D2A41188  18.571  39.610   8.385
 3122POPC   C3A41189  18.542  39.850   7.986
 3122POPC   C4A41190  18.515  40.141   7.631
 3122POPC   C1B41191  18.066  40.158   8.742
 3122POPC   C2B41192  18.212  39.970   8.398
 3122POPC   C3B41193  18.115  40.145   8.032
 3122POPC   C4B41194  18.031  39.992   7.666
 3123POPC   NC341195  30.475  29.055   9.621
 3123POPC   PO441196  31.085  29.218   9.373
 3123POPC   GL141197  30.742  29.163   9.153
 3123POPC   GL241198  30.560  29.464   9.162
 3123POPC   C1A41199  30.839  29.193   8.744
 3123POPC   D2A41200  31.133  29.307   8.463
 3123POPC   C3A41201  31.004  29.106   8.126
 3123POPC   C4A41202  30.801  29.164   7.773
 3123POPC   C1B41203  30.325  29.264   8.803
 3123POPC   C2B41204  30.170  29.249   8.358
 3123POPC   C3B41205  30.350  29.340   7.917
 3123POPC   C4B41206  30.469  29.299   7.440
 3124POPC   NC341207  40.444  16.850   5.511
 3124POPC   PO441208  39.739  16.651   5.460
 3124POPC   GL141209  39.868  16.594   5.857
 3124POPC   GL241210  40.237  16.569   5.877
 3124POPC   C1A41211  39.803  16.768   6.267
 3124POPC   D2A41212  39.581  16.749   6.657
 3124POPC   C3A41213  39.800  16.613   7.019
 3124POPC   C4A41214  39.856  16.784   7.429
 3124POPC   C1B41215  40.341  16.798   6.232
 3124POPC   C2B41216  40.168  16.941   6.598
 3124POPC   C3B41217  40.272  16.796   6.993
 3124POPC   C4B41218  40.274  17.033   7.345
 3125POPC   NC341219  34.549  22.782   5.361
 3125POPC   PO441220  34.861  23.267   5.380
 3125POPC   GL141221  34.601  23.113   5.760
 3125POPC   GL241222  34.225  23.121   5.788
 3125POPC   C1A41223  34.527  22.986   6.209
 3125POPC   D2A41224  34.368  22.898   6.630
 3125POPC   C3A41225  34.646  22.909   7.015
 3125POPC   C4A41226  34.615  22.873   7.482
 3125POPC   C1B41227  34.287  23.426   6.160
 3125POPC   C2B41228  34.285  23.419   6.648
 3125POPC   C3B41229  34.372  23.328   7.108
 3125POPC   C4B41230  34.468  23.353   7.559
 3126POPC   NC341231  11.265  16.730   5.288
 3126POPC   PO441232  10.722  16.659   5.630
 3126POPC   GL141233  11.170  16.693   5.788
 3126POPC   GL241234  11.397  16.378   5.802
 3126POPC   C1A41235  11.460  16.796   6.119
 3126POPC   D2A41236  11.453  16.584   6.521
 3126POPC   C3A41237  11.221  16.767   6.864
 3126POPC   C4A41238  11.084  16.860   7.264
 3126POPC   C1B41239  11.705  16.265   6.157
 3126POPC   C2B41240  11.880  16.322   6.599
 3126POPC   C3B41241  11.612  16.393   6.995
 3126POPC   C4B41242  11.394  16.464   7.398
 3127POPC   NC341243  14.811  33.341   5.571
 3127POPC   PO441244  15.209  33.903   5.456
 3127POPC   GL141245  14.913  33.854   5.857
 3127POPC   GL241246  15.207  33.756   5.976
 3127POPC   C1A41247  14.893  33.739   6.358
 3127POPC   D2A41248  15.222  33.715   6.708
 3127POPC   C3A41249  15.062  33.736   7.146
 3127POPC   C4A41250  14.985  33.432   7.480
 3127POPC   C1B41251  15.519  33.871   6.267
 3127POPC   C2B41252  15.476  34.160   6.580
 3127POPC   C3B41253  15.315  34.165   6.968
 3127POPC   C4B41254  15.256  34.168   7.396
 3128POPC   NC341255  29.135  23.404   5.131
 3128POPC   PO441256  28.955  23.906   5.535
 3128POPC   GL141257  29.110  23.772   5.950
 3128POPC   GL241258  29.392  23.625   5.808
 3128POPC   C1A41259  29.099  23.571   6.325
 3128POPC   D2A41260  29.089  23.855   6.651
 3128POPC   C3A41261  28.946  23.624   6.974
 3128POPC   C4A41262  29.108  23.688   7.376
 3128POPC   C1B41263  29.569  23.751   6.197
 3128POPC   C2B41264  29.560  23.611   6.608
 3128POPC   C3B41265  29.468  23.746   6.998
 3128POPC   C4B41266  29.635  23.734   7.400
 3129POPC   NC341267   9.332   0.637   5.428
 3129POPC   PO441268   9.772   0.217   5.643
 3129POPC   GL141269   9.678   0.583   5.852
 3129POPC   GL241270   9.392   0.780   5.921
 3129POPC   C1A41271   9.777   0.675   6.263
 3129POPC   D2A41272  10.055   0.487   6.537
 3129POPC   C3A41273   9.875   0.586   6.910
 3129POPC   C4A41274   9.941   0.505   7.333
 3129POPC   C1B41275   9.344   0.403   6.196
 3129POPC   C2B41276   9.540   0.309   6.595
 3129POPC   C3B41277   9.656   0.134   7.016
 3129POPC   C4B41278   9.472   0.321   7.365
 3130POPC   NC341279  40.191  10.366   5.556
 3130POPC   PO441280  39.545  10.484   5.441
 3130POPC   GL141281  39.802  10.583   5.837
 3130POPC   GL241282  40.140  10.766   5.873
 3130POPC   C1A41283  39.866  10.684   6.303
 3130POPC   D2A41284  39.813  10.899   6.717
 3130POPC   C3A41285  39.884  10.680   7.127
 3130POPC   C4A41286  39.960  10.239   7.172
 3130POPC   C1B41287  40.346  10.492   6.208
 3130POPC   C2B41288  40.191  10.387   6.646
 3130POPC   C3B41289  40.381  10.474   7.051
 3130POPC   C4B41290  40.373  10.845   7.277
 3131POPC   NC341291  42.155  39.849   5.401
 3131POPC   PO441292  42.580  40.287   5.527
 3131POPC   GL141293  42.409  39.980   5.836
 3131POPC   GL241294  42.478  39.628   5.768
 3131POPC   C1A41295  42.270  39.893   6.256
 3131POPC   D2A41296  42.316  40.144   6.626
 3131POPC   C3A41297  42.214  39.932   6.993
 3131POPC   C4A41298  42.198  40.161   7.368
 3131POPC   C1B41299  42.698  39.591   6.182
 3131POPC   C2B41300  42.625  39.726   6.613
 3131POPC   C3B41301  42.680  39.652   7.045
 3131POPC   C4B41302  42.540  39.821   7.433
 3132POPC   NC341303  37.493  39.369   5.260
 3132POPC   PO441304  37.844  38.837   5.497
 3132POPC   GL141305  37.751  39.218   5.785
 3132POPC   GL241306  37.432  39.440   5.786
 3132POPC   C1A41307  37.652  39.222   6.234
 3132POPC   D2A41308  37.915  39.367   6.579
 3132POPC   C3A41309  38.077  39.140   6.909
 3132POPC   C4A41310  38.021  39.357   7.288
 3132POPC   C1B41311  37.476  39.711   6.185
 3132POPC   C2B41312  37.433  39.553   6.601
 3132POPC   C3B41313  37.580  39.409   6.997
 3132POPC   C4B41314  37.393  39.537   7.383
 3133POPC   NC341315  28.560  39.392   5.431
 3133POPC   PO441316  28.500  38.796   5.238
 3133POPC   GL141317  28.450  38.958   5.762
 3133POPC   GL241318  28.325  39.313   5.867
 3133POPC   C1A41319  28.577  39.062   6.244
 3133POPC   D2A41320  28.728  39.094   6.710
 3133POPC   C3A41321  28.455  39.218   7.112
 3133POPC   C4A41322  28.147  39.168   7.518
 3133POPC   C1B41323  28.113  39.258   6.255
 3133POPC   C2B41324  28.206  39.060   6.651
 3133POPC   C3B41325  27.964  39.196   7.007
 3133POPC   C4B41326  27.956  39.562   7.263
 3134POPC   NC341327  35.748  21.953   5.153
 3134POPC   PO441328  35.335  22.331   5.442
 3134POPC   GL141329  35.219  22.183   5.870
 3134POPC   GL241330  34.849  22.209   5.851
 3134POPC   C1A41331  35.296  22.103   6.305
 3134POPC   D2A41332  35.372  21.804   6.653
 3134POPC   C3A41333  35.568  22.045   6.995
 3134POPC   C4A41334  35.576  22.385   7.305
 3134POPC   C1B41335  34.797  21.985   6.239
 3134POPC   C2B41336  34.940  22.085   6.664
 3134POPC   C3B41337  35.064  22.176   7.073
 3134POPC   C4B41338  35.019  22.586   7.279
 3135POPC   NC341339  14.193   0.410   5.283
 3135POPC   PO441340  14.423   1.007   5.322
 3135POPC   GL141341  14.330   0.711   5.689
 3135POPC   GL241342  13.998   0.570   5.765
 3135POPC   C1A41343  14.374   0.454   6.093
 3135POPC   D2A41344  14.220   0.351   6.511
 3135POPC   C3A41345  14.427   0.373   6.926
 3135POPC   C4A41346  14.382   0.308   7.395
 3135POPC   C1B41347  13.956   0.762   6.217
 3135POPC   C2B41348  13.874   0.706   6.678
 3135POPC   C3B41349  13.934   0.456   7.075
 3135POPC   C4B41350  13.870   0.480   7.550
 3136POPC   NC341351  26.007  35.832   5.342
 3136POPC   PO441352  26.400  36.443   5.319
 3136POPC   GL141353  26.069  36.254   5.641
 3136POPC   GL241354  25.955  35.913   5.823
 3136POPC   C1A41355  26.022  36.303   6.103
 3136POPC   D2A41356  26.133  36.038   6.442
 3136POPC   C3A41357  26.322  36.201   6.799
 3136POPC   C4A41358  26.226  36.224   7.195
 3136POPC   C1B41359  25.747  35.793   6.196
 3136POPC   C2B41360  25.652  35.935   6.607
 3136POPC   C3B41361  25.952  35.851   6.913
 3136POPC   C4B41362  26.079  35.753   7.286
 3137POPC   NC341363  28.419  10.195   5.478
 3137POPC   PO441364  28.276   9.638   5.410
 3137POPC   GL141365  28.174   9.850   5.793
 3137POPC   GL241366  28.544   9.842   5.840
 3137POPC   C1A41367  28.267   9.955   6.252
 3137POPC   D2A41368  28.311  10.128   6.640
 3137POPC   C3A41369  28.394   9.815   6.951
 3137POPC   C4A41370  28.130   9.644   7.275
 3137POPC   C1B41371  28.776   9.804   6.230
 3137POPC   C2B41372  28.831   9.918   6.670
 3137POPC   C3B41373  28.857  10.044   7.109
 3137POPC   C4B41374  28.507  10.014   7.401
 3138POPC   NC341375   0.921  18.596   5.468
 3138POPC   PO441376   1.128  19.224   5.352
 3138POPC   GL141377   1.188  19.008   5.729
 3138POPC   GL241378   0.840  18.972   5.820
 3138POPC   C1A41379   1.424  19.043   6.126
 3138POPC   D2A41380   1.399  19.287   6.524
 3138POPC   C3A41381   1.479  19.167   6.965
 3138POPC   C4A41382   1.217  19.216   7.338
 3138POPC   C1B41383   0.959  18.883   6.256
 3138POPC   C2B41384   1.094  18.881   6.710
 3138POPC   C3B41385   0.938  18.834   7.137
 3138POPC   C4B41386   0.957  18.879   7.624
 3139POPC   NC341387  23.623  17.148   5.556
 3139POPC   PO441388  24.080  16.694   5.336
 3139POPC   GL141389  23.854  16.672   5.746
 3139POPC   GL241390  23.939  16.972   5.919
 3139POPC   C1A41391  23.672  16.635   6.199
 3139POPC   D2A41392  23.568  16.737   6.661
 3139POPC   C3A41393  23.575  16.540   7.099
 3139POPC   C4A41394  23.718  16.495   7.552
 3139POPC   C1B41395  24.169  16.688   6.190
 3139POPC   C2B41396  24.072  16.552   6.578
 3139POPC   C3B41397  24.018  16.790   6.941
 3139POPC   C4B41398  24.178  16.645   7.310
 3140POPC   NC341399  16.254  16.001   5.476
 3140POPC   PO441400  15.620  16.138   5.427
 3140POPC   GL141401  15.909  16.198   5.832
 3140POPC   GL241402  16.053  15.848   5.924
 3140POPC   C1A41403  16.081  16.207   6.298
 3140POPC   D2A41404  16.019  15.939   6.660
 3140POPC   C3A41405  15.946  16.002   7.079
 3140POPC   C4A41406  15.551  16.093   7.150
 3140POPC   C1B41407  16.226  15.588   6.263
 3140POPC   C2B41408  16.273  15.498   6.705
 3140POPC   C3B41409  16.369  15.675   7.085
 3140POPC   C4B41410  16.386  15.426   7.468
 3141POPC   NC341411  33.844  40.011   5.303
 3141POPC   PO441412  33.349  39.663   5.054
 3141POPC   GL141413  33.323  39.894   5.596
 3141POPC   GL241414  33.481  40.208   5.653
 3141POPC   C1A41415  33.478  39.717   6.071
 3141POPC   D2A41416  33.485  39.629   6.548
 3141POPC   C3A41417  33.809  39.835   6.789
 3141POPC   C4A41418  33.890  39.955   7.205
 3141POPC   C1B41419  33.391  40.195   6.103
 3141POPC   C2B41420  33.320  40.159   6.573
 3141POPC   C3B41421  33.500  40.368   6.947
 3141POPC   C4B41422  33.520  40.287   7.385
 3142POPC   NC341423   4.738  21.880   5.051
 3142POPC   PO441424   5.178  22.306   5.384
 3142POPC   GL141425   5.223  22.116   5.824
 3142POPC   GL241426   5.437  22.383   5.897
 3142POPC   C1A41427   4.990  22.041   6.242
 3142POPC   D2A41428   4.931  21.906   6.695
 3142POPC   C3A41429   4.811  22.160   7.069
 3142POPC   C4A41430   4.873  22.106   7.534
 3142POPC   C1B41431   5.070  22.547   6.130
 3142POPC   C2B41432   4.971  22.458   6.560
 3142POPC   C3B41433   5.261  22.283   6.856
 3142POPC   C4B41434   5.284  22.338   7.301
 3143POPC   NC341435  16.442  34.136   5.571
 3143POPC   PO441436  16.729  34.623   5.152
 3143POPC   GL141437  16.765  34.520   5.665
 3143POPC   GL241438  17.021  34.362   5.843
 3143POPC   C1A41439  16.580  34.426   6.130
 3143POPC   D2A41440  16.629  34.642   6.546
 3143POPC   C3A41441  16.430  34.716   6.920
 3143POPC   C4A41442  16.562  34.438   7.255
 3143POPC   C1B41443  17.045  34.575   6.246
 3143POPC   C2B41444  17.034  34.955   6.502
 3143POPC   C3B41445  16.910  34.921   6.926
 3143POPC   C4B41446  17.040  34.640   7.257
 3144POPC   NC341447  29.709  12.273   5.562
 3144POPC   PO441448  29.983  11.591   5.338
 3144POPC   GL141449  30.012  11.866   5.757
 3144POPC   GL241450  30.309  12.095   5.844
 3144POPC   C1A41451  29.900  12.125   6.168
 3144POPC   D2A41452  30.016  12.250   6.601
 3144POPC   C3A41453  29.698  12.382   6.910
 3144POPC   C4A41454  29.486  12.014   7.081
 3144POPC   C1B41455  30.392  12.373   6.245
 3144POPC   C2B41456  30.438  12.526   6.712
 3144POPC   C3B41457  30.201  12.381   7.057
 3144POPC   C4B41458  30.010  11.952   7.058
 3145POPC   NC341459  27.936  44.443   5.542
 3145POPC   PO441460  28.656  44.571   5.563
 3145POPC   GL141461  28.426  44.667   5.927
 3145POPC   GL241462  28.224  44.372   5.979
 3145POPC   C1A41463  28.447  44.688   6.381
 3145POPC   D2A41464  28.352  44.702   6.823
 3145POPC   C3A41465  28.686  44.654   7.107
 3145POPC   C4A41466  28.792  44.323   7.377
 3145POPC   C1B41467  27.954  44.691   6.212
 3145POPC   C2B41468  27.979  44.954   6.594
 3145POPC   C3B41469  27.885  44.831   7.052
 3145POPC   C4B41470  27.947  44.871   7.525
 3146POPC   NC341471  38.966   9.325   5.466
 3146POPC   PO441472  39.519   8.894   5.397
 3146POPC   GL141473  39.314   9.027   5.766
 3146POPC   GL241474  38.975   8.863   5.743
 3146POPC   C1A41475  39.435   9.202   6.191
 3146POPC   D2A41476  39.438   9.055   6.605
 3146POPC   C3A41477  39.420   9.238   6.999
 3146POPC   C4A41478  39.547   8.957   7.320
 3146POPC   C1B41479  39.146   8.723   6.143
 3146POPC   C2B41480  39.050   8.733   6.572
 3146POPC   C3B41481  39.166   8.797   6.988
 3146POPC   C4B41482  39.126   8.623   7.380
 3147POPC   NC341483  26.313   3.720   5.525
 3147POPC   PO441484  25.631   3.870   5.462
 3147POPC   GL141485  25.865   3.585   5.767
 3147POPC   GL241486  25.700   3.257   5.790
 3147POPC   C1A41487  26.048   3.640   6.191
 3147POPC   D2A41488  25.722   3.785   6.519
 3147POPC   C3A41489  25.836   3.733   6.957
 3147POPC   C4A41490  26.262   3.748   7.145
 3147POPC   C1B41491  25.655   3.333   6.251
 3147POPC   C2B41492  25.945   3.350   6.628
 3147POPC   C3B41493  26.246   3.225   6.904
 3147POPC   C4B41494  26.117   3.133   7.287
 3148POPC   NC341495  39.565   2.672   5.468
 3148POPC   PO441496  40.216   2.983   5.284
 3148POPC   GL141497  40.194   2.967   5.759
 3148POPC   GL241498  40.240   2.618   5.791
 3148POPC   C1A41499  39.903   2.883   6.159
 3148POPC   D2A41500  39.757   2.532   6.482
 3148POPC   C3A41501  39.727   2.632   6.957
 3148POPC   C4A41502  39.855   2.998   7.190
 3148POPC   C1B41503  40.229   2.478   6.217
 3148POPC   C2B41504  40.455   2.534   6.593
 3148POPC   C3B41505  40.233   2.502   6.979
 3148POPC   C4B41506  40.264   2.706   7.346
 3149POPC   NC341507  31.111  22.667   5.460
 3149POPC   PO441508  30.554  22.423   5.554
 3149POPC   GL141509  30.723  22.313   5.934
 3149POPC   GL241510  30.980  22.063   5.977
 3149POPC   C1A41511  30.563  22.071   6.278
 3149POPC   D2A41512  30.649  21.910   6.669
 3149POPC   C3A41513  30.672  22.256   6.928
 3149POPC   C4A41514  30.358  22.419   7.115
 3149POPC   C1B41515  30.983  21.720   6.314
 3149POPC   C2B41516  31.031  21.597   6.757
 3149POPC   C3B41517  31.043  21.919   7.063
 3149POPC   C4B41518  31.211  21.921   7.469
 3150POPC   NC341519  24.098  41.677   5.236
 3150POPC   PO441520  24.639  41.342   5.202
 3150POPC   GL141521  24.552  41.656   5.574
 3150POPC   GL241522  24.270  41.732   5.790
 3150POPC   C1A41523  24.746  41.641   5.981
 3150POPC   D2A41524  24.786  41.623   6.425
 3150POPC   C3A41525  24.565  41.445   6.782
 3150POPC   C4A41526  24.678  41.619   7.187
 3150POPC   C1B41527  24.296  41.659   6.227
 3150POPC   C2B41528  24.108  41.685   6.613
 3150POPC   C3B41529  24.216  41.753   7.030
 3150POPC   C4B41530  24.223  41.425   7.320
 3151POPC   NC341531   5.563   2.148   4.886
 3151POPC   PO441532   5.229   2.155   5.466
 3151POPC   GL141533   4.992   2.309   5.846
 3151POPC   GL241534   4.676   2.085   5.859
 3151POPC   C1A41535   5.042   2.199   6.290
 3151POPC   D2A41536   5.306   1.869   6.505
 3151POPC   C3A41537   5.201   1.766   6.936
 3151POPC   C4A41538   5.216   1.985   7.339
 3151POPC   C1B41539   4.718   1.833   6.246
 3151POPC   C2B41540   4.768   1.971   6.697
 3151POPC   C3B41541   4.746   1.935   7.156
 3151POPC   C4B41542   4.643   1.813   7.584
 3152POPC   NC341543  41.192  42.005   5.569
 3152POPC   PO441544  41.537  41.445   5.287
 3152POPC   GL141545  41.687  41.349   5.749
 3152POPC   GL241546  41.384  41.151   5.870
 3152POPC   C1A41547  41.642  41.371   6.229
 3152POPC   D2A41548  41.751  41.513   6.615
 3152POPC   C3A41549  41.698  41.281   6.999
 3152POPC   C4A41550  41.787  41.473   7.399
 3152POPC   C1B41551  41.227  41.066   6.294
 3152POPC   C2B41552  41.246  41.302   6.683
 3152POPC   C3B41553  41.234  41.469   7.109
 3152POPC   C4B41554  41.325  41.259   7.504
 3153POPC   NC341555  18.058  22.906   5.600
 3153POPC   PO441556  17.529  23.094   5.258
 3153POPC   GL141557  17.504  23.072   5.727
 3153POPC   GL241558  17.637  22.736   5.827
 3153POPC   C1A41559  17.328  22.933   6.175
 3153POPC   D2A41560  17.419  22.734   6.585
 3153POPC   C3A41561  17.518  23.013   6.908
 3153POPC   C4A41562  17.378  22.874   7.283
 3153POPC   C1B41563  17.901  22.627   6.196
 3153POPC   C2B41564  17.892  22.487   6.618
 3153POPC   C3B41565  17.848  22.637   7.037
 3153POPC   C4B41566  17.998  23.005   7.233
 3154POPC   NC341567  38.751  20.435   5.538
 3154POPC   PO441568  38.301  20.800   5.119
 3154POPC   GL141569  38.190  20.817   5.623
 3154POPC   GL241570  38.348  20.560   5.798
 3154POPC   C1A41571  38.202  20.904   6.120
 3154POPC   D2A41572  38.438  20.764   6.497
 3154POPC   C3A41573  38.404  20.863   6.944
 3154POPC   C4A41574  38.467  20.632   7.360
 3154POPC   C1B41575  38.140  20.385   6.156
 3154POPC   C2B41576  38.263  20.283   6.572
 3154POPC   C3B41577  38.449  20.343   6.942
 3154POPC   C4B41578  38.243  20.191   7.311
 3155POPC   NC341579   5.370  16.840   5.310
 3155POPC   PO441580   4.973  16.368   5.309
 3155POPC   GL141581   5.024  16.723   5.675
 3155POPC   GL241582   5.351  16.908   5.817
 3155POPC   C1A41583   4.886  16.852   6.116
 3155POPC   D2A41584   5.042  16.737   6.545
 3155POPC   C3A41585   4.816  16.767   6.929
 3155POPC   C4A41586   5.015  16.658   7.304
 3155POPC   C1B41587   5.332  17.058   6.263
 3155POPC   C2B41588   5.534  16.903   6.661
 3155POPC   C3B41589   5.462  16.834   7.116
 3155POPC   C4B41590   5.415  16.851   7.572
 3156POPC   NC341591  19.055  26.019   5.475
 3156POPC   PO441592  18.565  26.388   5.790
 3156POPC   GL141593  18.746  25.954   5.911
 3156POPC   GL241594  19.127  25.864   5.969
 3156POPC   C1A41595  18.786  25.827   6.347
 3156POPC   D2A41596  18.920  26.045   6.730
 3156POPC   C3A41597  19.147  25.941   7.113
 3156POPC   C4A41598  18.788  25.847   7.336
 3156POPC   C1B41599  19.013  26.261   6.244
 3156POPC   C2B41600  18.914  26.533   6.625
 3156POPC   C3B41601  18.928  26.428   7.084
 3156POPC   C4B41602  19.274  26.552   7.328
 3157POPC   NC341603  43.258  33.831   5.546
 3157POPC   PO441604  42.741  34.178   5.462
 3157POPC   GL141605  42.837  33.901   5.812
 3157POPC   GL241606  42.840  33.522   5.787
 3157POPC   C1A41607  43.021  33.855   6.184
 3157POPC   D2A41608  43.275  34.018   6.499
 3157POPC   C3A41609  43.035  34.003   6.864
 3157POPC   C4A41610  43.167  34.049   7.284
 3157POPC   C1B41611  42.878  33.374   6.238
 3157POPC   C2B41612  43.127  33.510   6.634
 3157POPC   C3B41613  43.093  33.564   7.093
 3157POPC   C4B41614  42.747  33.316   7.280
 3158POPC   NC341615   7.761  45.000   5.178
 3158POPC   PO441616   8.399  44.765   5.298
 3158POPC   GL141617   8.202  44.715   5.744
 3158POPC   GL241618   8.066  44.372   5.861
 3158POPC   C1A41619   8.116  44.755   6.203
 3158POPC   D2A41620   7.950  44.895   6.578
 3158POPC   C3A41621   7.864  44.589   6.889
 3158POPC   C4A41622   8.056  44.429   7.228
 3158POPC   C1B41623   8.428  44.360   6.159
 3158POPC   C2B41624   8.448  44.544   6.588
 3158POPC   C3B41625   8.344  44.789   6.952
 3158POPC   C4B41626   8.391  44.775   7.399
 3159POPC   NC341627   9.764  44.282   5.163
 3159POPC   PO441628   9.747  43.642   5.355
 3159POPC   GL141629   9.717  43.719   5.803
 3159POPC   GL241630   9.491  43.943   5.988
 3159POPC   C1A41631   9.797  43.572   6.212
 3159POPC   D2A41632   9.549  43.575   6.592
 3159POPC   C3A41633   9.846  43.546   6.929
 3159POPC   C4A41634   9.818  43.798   7.259
 3159POPC   C1B41635   9.714  44.050   6.375
 3159POPC   C2B41636   9.732  44.052   6.818
 3159POPC   C3B41637   9.487  44.174   7.162
 3159POPC   C4B41638   9.158  44.387   7.242
 3160POPC   NC341639   4.074  29.345   5.348
 3160POPC   PO441640   4.545  28.922   5.347
 3160POPC   GL141641   4.431  29.009   5.782
 3160POPC   GL241642   4.586  29.309   5.912
 3160POPC   C1A41643   4.164  29.093   6.164
 3160POPC   D2A41644   4.085  29.289   6.578
 3160POPC   C3A41645   4.165  28.991   6.903
 3160POPC   C4A41646   4.348  28.962   7.296
 3160POPC   C1B41647   4.513  29.433   6.354
 3160POPC   C2B41648   4.522  29.354   6.823
 3160POPC   C3B41649   4.338  29.460   7.200
 3160POPC   C4B41650   4.593  29.378   7.579
 3161POPC   NC341651  38.025  32.889   4.992
 3161POPC   PO441652  38.350  33.036   5.557
 3161POPC   GL141653  38.444  32.971   5.931
 3161POPC   GL241654  38.795  33.023   5.885
 3161POPC   C1A41655  38.319  33.167   6.316
 3161POPC   D2A41656  38.546  33.178   6.693
 3161POPC   C3A41657  38.480  33.011   7.068
 3161POPC   C4A41658  38.189  33.116   7.385
 3161POPC   C1B41659  38.768  32.907   6.321
 3161POPC   C2B41660  38.831  32.709   6.730
 3161POPC   C3B41661  38.672  32.543   7.117
 3161POPC   C4B41662  38.555  32.604   7.605
 3162POPC   NC341663  30.631  36.830   5.473
 3162POPC   PO441664  30.486  37.490   5.507
 3162POPC   GL141665  30.614  37.171   5.846
 3162POPC   GL241666  30.396  36.837   5.920
 3162POPC   C1A41667  30.784  36.999   6.230
 3162POPC   D2A41668  30.761  37.215   6.611
 3162POPC   C3A41669  31.074  37.193   6.904
 3162POPC   C4A41670  30.974  36.903   7.241
 3162POPC   C1B41671  30.502  36.538   6.233
 3162POPC   C2B41672  30.762  36.571   6.600
 3162POPC   C3B41673  30.606  36.609   7.032
 3162POPC   C4B41674  30.314  36.514   7.357
 3163POPC   NC341675   0.637  35.890   5.339
 3163POPC   PO441676   0.266  36.428   5.441
 3163POPC   GL141677   0.377  36.192   5.800
 3163POPC   GL241678   0.287  35.841   5.808
 3163POPC   C1A41679   0.671  36.076   6.141
 3163POPC   D2A41680   0.611  35.984   6.586
 3163POPC   C3A41681   0.540  36.342   6.855
 3163POPC   C4A41682   0.737  36.421   7.248
 3163POPC   C1B41683   0.153  36.020   6.220
 3163POPC   C2B41684   0.091  35.845   6.597
 3163POPC   C3B41685   0.181  35.992   6.964
 3163POPC   C4B41686  44.863  36.160   7.179
 3164POPC   NC341687   3.950   4.640   5.427
 3164POPC   PO441688   3.348   4.244   5.456
 3164POPC   GL141689   3.593   4.212   5.823
 3164POPC   GL241690   3.681   4.526   5.841
 3164POPC   C1A41691   3.514   4.324   6.262
 3164POPC   D2A41692   3.480   4.101   6.663
 3164POPC   C3A41693   3.420   4.324   7.045
 3164POPC   C4A41694   3.597   4.157   7.418
 3164POPC   C1B41695   3.993   4.561   6.143
 3164POPC   C2B41696   3.891   4.447   6.580
 3164POPC   C3B41697   3.863   4.602   6.977
 3164POPC   C4B41698   3.668   4.663   7.372
 3165POPC   NC341699  42.372  43.494   5.408
 3165POPC   PO441700  42.264  44.095   5.350
 3165POPC   GL141701  42.414  44.030   5.805
 3165POPC   GL241702  42.702  43.801   5.767
 3165POPC   C1A41703  42.360  44.030   6.308
 3165POPC   D2A41704  42.328  44.223   6.758
 3165POPC   C3A41705  42.189  44.032   7.147
 3165POPC   C4A41706  42.086  43.840   7.530
 3165POPC   C1B41707  42.802  43.786   6.223
 3165POPC   C2B41708  42.752  43.924   6.676
 3165POPC   C3B41709  42.558  43.691   7.049
 3165POPC   C4B41710  42.614  43.744   7.481
 3166POPC   NC341711   1.582  42.018   5.424
 3166POPC   PO441712   0.877  42.233   5.455
 3166POPC   GL141713   1.060  42.265   5.872
 3166POPC   GL241714   1.420  42.233   5.862
 3166POPC   C1A41715   1.199  42.463   6.265
 3166POPC   D2A41716   1.304  42.302   6.673
 3166POPC   C3A41717   1.254  42.604   6.977
 3166POPC   C4A41718   1.287  42.698   7.414
 3166POPC   C1B41719   1.635  42.176   6.239
 3166POPC   C2B41720   1.732  42.010   6.637
 3166POPC   C3B41721   1.643  41.988   7.063
 3166POPC   C4B41722   1.627  42.347   7.328
 3167POPC   NC341723  10.976  32.599   5.585
 3167POPC   PO441724  10.721  32.011   5.287
 3167POPC   GL141725  11.052  32.103   5.694
 3167POPC   GL241726  11.393  32.203   5.681
 3167POPC   C1A41727  11.198  32.364   6.137
 3167POPC   D2A41728  11.112  32.496   6.581
 3167POPC   C3A41729  11.308  32.329   6.983
 3167POPC   C4A41730  11.226  32.453   7.430
 3167POPC   C1B41731  11.611  32.080   6.078
 3167POPC   C2B41732  11.530  31.920   6.507
 3167POPC   C3B41733  11.660  31.960   6.914
 3167POPC   C4B41734  11.553  31.985   7.331
 3168POPC   NC341735   1.463  43.604   5.661
 3168POPC   PO441736   1.011  44.021   5.448
 3168POPC   GL141737   1.078  43.875   5.865
 3168POPC   GL241738   1.192  44.190   5.912
 3168POPC   C1A41739   1.230  43.674   6.268
 3168POPC   D2A41740   1.095  43.533   6.672
 3168POPC   C3A41741   1.247  43.618   7.081
 3168POPC   C4A41742   0.835  43.681   7.236
 3168POPC   C1B41743   1.195  44.185   6.333
 3168POPC   C2B41744   1.252  44.046   6.710
 3168POPC   C3B41745   1.103  44.140   7.104
 3168POPC   C4B41746   0.971  44.531   7.310
 3169POPC   NC341747   3.190  19.457   5.527
 3169POPC   PO441748   2.475  19.787   5.511
 3169POPC   GL141749   2.665  19.803   5.878
 3169POPC   GL241750   2.987  19.975   5.815
 3169POPC   C1A41751   2.506  19.759   6.292
 3169POPC   D2A41752   2.299  20.145   6.451
 3169POPC   C3A41753   2.335  20.228   6.888
 3169POPC   C4A41754   2.450  19.944   7.225
 3169POPC   C1B41755   2.981  19.913   6.259
 3169POPC   C2B41756   2.773  19.998   6.664
 3169POPC   C3B41757   2.968  19.925   7.064
 3169POPC   C4B41758   2.854  19.715   7.452
 3170POPC   NC341759  21.998  35.643   5.367
 3170POPC   PO441760  22.272  36.238   5.328
 3170POPC   GL141761  22.035  36.113   5.732
 3170POPC   GL241762  21.913  35.755   5.858
 3170POPC   C1A41763  21.956  36.286   6.164
 3170POPC   D2A41764  22.018  36.524   6.552
 3170POPC   C3A41765  22.106  36.325   6.963
 3170POPC   C4A41766  22.120  36.492   7.387
 3170POPC   C1B41767  22.182  35.792   6.223
 3170POPC   C2B41768  22.083  35.694   6.652
 3170POPC   C3B41769  21.807  35.771   7.010
 3170POPC   C4B41770  21.991  35.981   7.353
 3171POPC   NC341771  28.626  37.816   5.548
 3171POPC   PO441772  28.241  37.474   5.167
 3171POPC   GL141773  28.410  37.379   5.658
 3171POPC   GL241774  28.257  37.670   5.892
 3171POPC   C1A41775  28.659  37.406   6.088
 3171POPC   D2A41776  28.517  37.579   6.503
 3171POPC   C3A41777  28.516  37.500   6.964
 3171POPC   C4A41778  28.165  37.657   7.245
 3171POPC   C1B41779  28.427  38.011   6.224
 3171POPC   C2B41780  28.563  38.084   6.682
 3171POPC   C3B41781  28.565  37.986   7.160
 3171POPC   C4B41782  28.403  37.922   7.622
 3172POPC   NC341783  24.314  35.286   5.167
 3172POPC   PO441784  24.167  34.815   5.633
 3172POPC   GL141785  24.452  35.150   5.736
 3172POPC   GL241786  24.479  35.512   5.658
 3172POPC   C1A41787  24.621  35.145   6.145
 3172POPC   D2A41788  24.686  35.215   6.563
 3172POPC   C3A41789  24.510  35.082   6.930
 3172POPC   C4A41790  24.322  35.270   7.262
 3172POPC   C1B41791  24.773  35.635   6.015
 3172POPC   C2B41792  24.750  35.731   6.475
 3172POPC   C3B41793  24.733  35.568   6.913
 3172POPC   C4B41794  24.677  35.617   7.344
 3173POPC   NC341795  12.666  19.866   5.379
 3173POPC   PO441796  13.271  19.645   5.444
 3173POPC   GL141797  12.944  19.723   5.815
 3173POPC   GL241798  12.596  19.960   5.863
 3173POPC   C1A41799  13.068  19.911   6.229
 3173POPC   D2A41800  13.240  19.807   6.644
 3173POPC   C3A41801  12.925  19.681   6.978
 3173POPC   C4A41802  12.856  19.743   7.445
 3173POPC   C1B41803  12.574  19.773   6.254
 3173POPC   C2B41804  12.619  19.951   6.656
 3173POPC   C3B41805  12.499  20.104   7.064
 3173POPC   C4B41806  12.408  19.980   7.495
 3174POPC   NC341807  35.780  31.048   5.629
 3174POPC   PO441808  35.871  30.395   5.511
 3174POPC   GL141809  36.047  30.632   5.893
 3174POPC   GL241810  36.418  30.571   5.984
 3174POPC   C1A41811  36.171  30.992   6.189
 3174POPC   D2A41812  35.976  30.992   6.592
 3174POPC   C3A41813  36.117  30.953   6.982
 3174POPC   C4A41814  36.079  30.729   7.308
 3174POPC   C1B41815  36.249  30.553   6.421
 3174POPC   C2B41816  36.013  30.476   6.777
 3174POPC   C3B41817  36.202  30.272   7.125
 3174POPC   C4B41818  36.410  30.403   7.522
 3175POPC   NC341819  23.931  32.595   5.565
 3175POPC   PO441820  23.631  33.243   5.384
 3175POPC   GL141821  23.691  33.036   5.780
 3175POPC   GL241822  23.477  32.734   5.729
 3175POPC   C1A41823  23.902  33.131   6.196
 3175POPC   D2A41824  23.819  33.380   6.588
 3175POPC   C3A41825  23.828  33.295   7.020
 3175POPC   C4A41826  23.764  33.155   7.461
 3175POPC   C1B41827  23.603  32.709   6.176
 3175POPC   C2B41828  23.773  32.843   6.597
 3175POPC   C3B41829  23.589  32.851   6.995
 3175POPC   C4B41830  23.404  32.790   7.370
 3176POPC   NC341831  43.847  20.964   5.537
 3176POPC   PO441832  44.051  20.296   5.430
 3176POPC   GL141833  43.933  20.529   5.806
 3176POPC   GL241834  44.150  20.815   5.906
 3176POPC   C1A41835  43.716  20.561   6.200
 3176POPC   D2A41836  43.801  20.602   6.645
 3176POPC   C3A41837  43.493  20.849   6.876
 3176POPC   C4A41838  43.418  20.908   7.308
 3176POPC   C1B41839  44.224  20.773   6.309
 3176POPC   C2B41840  44.392  20.758   6.703
 3176POPC   C3B41841  44.152  20.642   7.027
 3176POPC   C4B41842  43.954  20.868   7.319
 3177POPC   NC341843  25.099  27.641   5.397
 3177POPC   PO441844  24.859  27.894   5.928
 3177POPC   GL141845  25.294  27.746   5.868
 3177POPC   GL241846  25.564  27.964   5.936
 3177POPC   C1A41847  25.403  27.490   6.217
 3177POPC   D2A41848  25.174  27.350   6.592
 3177POPC   C3A41849  25.177  27.486   7.019
 3177POPC   C4A41850  25.383  27.285   7.396
 3177POPC   C1B41851  25.344  28.013   6.331
 3177POPC   C2B41852  25.145  27.956   6.719
 3177POPC   C3B41853  25.308  27.991   7.118
 3177POPC   C4B41854  25.316  27.801   7.489
 3178POPC   NC341855  19.969  16.511   5.341
 3178POPC   PO441856  19.468  16.950   5.287
 3178POPC   GL141857  19.754  16.907   5.661
 3178POPC   GL241858  20.137  16.848   5.712
 3178POPC   C1A41859  19.772  16.636   6.038
 3178POPC   D2A41860  19.655  16.618   6.481
 3178POPC   C3A41861  19.810  16.578   6.889
 3178POPC   C4A41862  19.659  16.865   7.224
 3178POPC   C1B41863  20.024  17.068   6.115
 3178POPC   C2B41864  20.016  17.001   6.545
 3178POPC   C3B41865  20.121  17.003   6.972
 3178POPC   C4B41866  20.166  16.672   7.242
 3179POPC   NC341867   9.320  44.085   5.510
 3179POPC   PO441868   8.651  43.994   5.595
 3179POPC   GL141869   8.683  43.773   5.904
 3179POPC   GL241870   9.034  43.701   5.899
 3179POPC   C1A41871   8.642  43.707   6.296
 3179POPC   D2A41872   8.590  44.033   6.523
 3179POPC   C3A41873   8.725  43.857   6.854
 3179POPC   C4A41874   8.943  43.926   7.210
 3179POPC   C1B41875   9.104  43.925   6.336
 3179POPC   C2B41876   9.231  43.942   6.777
 3179POPC   C3B41877   9.354  43.636   7.126
 3179POPC   C4B41878   9.420  43.626   7.595
 3180POPC   NC341879  40.625   7.445   5.307
 3180POPC   PO441880  41.067   7.638   5.672
 3180POPC   GL141881  40.772   7.496   5.900
 3180POPC   GL241882  40.655   7.198   5.807
 3180POPC   C1A41883  40.803   7.637   6.302
 3180POPC   D2A41884  40.593   7.597   6.637
 3180POPC   C3A41885  40.797   7.632   7.032
 3180POPC   C4A41886  40.542   7.519   7.385
 3180POPC   C1B41887  40.637   7.140   6.277
 3180POPC   C2B41888  40.570   7.042   6.725
 3180POPC   C3B41889  40.745   7.101   7.125
 3180POPC   C4B41890  41.108   6.896   7.350
 3181POPC   NC341891  23.142   0.907   5.217
 3181POPC   PO441892  23.051   1.527   5.182
 3181POPC   GL141893  23.026   1.514   5.709
 3181POPC   GL241894  22.946   1.185   5.867
 3181POPC   C1A41895  23.246   1.544   6.155
 3181POPC   D2A41896  23.449   1.504   6.592
 3181POPC   C3A41897  23.229   1.290   6.959
 3181POPC   C4A41898  23.212   1.120   7.397
 3181POPC   C1B41899  22.777   1.270   6.282
 3181POPC   C2B41900  22.836   1.085   6.703
 3181POPC   C3B41901  22.915   0.848   7.089
 3181POPC   C4B41902  22.755   0.909   7.516
 3182POPC   NC341903   9.521   2.138   5.259
 3182POPC   PO441904   9.989   1.659   5.452
 3182POPC   GL141905   9.743   1.798   5.765
 3182POPC   GL241906   9.771   2.128   5.750
 3182POPC   C1A41907   9.564   1.767   6.147
 3182POPC   D2A41908   9.638   2.068   6.462
 3182POPC   C3A41909   9.643   1.923   6.859
 3182POPC   C4A41910   9.543   2.115   7.221
 3182POPC   C1B41911  10.039   2.064   6.139
 3182POPC   C2B41912  10.123   2.035   6.610
 3182POPC   C3B41913  10.088   2.121   7.069
 3182POPC   C4B41914  10.056   1.831   7.392
 3183POPC   NC341915  13.924   2.063   5.378
 3183POPC   PO441916  13.272   2.086   5.422
 3183POPC   GL141917  13.502   1.931   5.772
 3183POPC   GL241918  13.675   2.245   5.798
 3183POPC   C1A41919  13.592   1.682   6.175
 3183POPC   D2A41920  13.392   1.775   6.579
 3183POPC   C3A41921  13.519   1.614   6.997
 3183POPC   C4A41922  13.296   1.820   7.312
 3183POPC   C1B41923  13.807   2.129   6.177
 3183POPC   C2B41924  13.761   2.150   6.589
 3183POPC   C3B41925  13.861   1.984   6.952
 3183POPC   C4B41926  13.728   2.088   7.311
 3184POPC   NC341927  27.138  34.711   5.378
 3184POPC   PO441928  27.737  34.347   5.249
 3184POPC   GL141929  27.709  34.428   5.696
 3184POPC   GL241930  27.373  34.504   5.787
 3184POPC   C1A41931  27.770  34.699   6.069
 3184POPC   D2A41932  27.709  34.600   6.504
 3184POPC   C3A41933  27.843  34.713   6.904
 3184POPC   C4A41934  27.639  34.668   7.241
 3184POPC   C1B41935  27.472  34.261   6.180
 3184POPC   C2B41936  27.555  34.127   6.628
 3184POPC   C3B41937  27.510  34.195   7.072
 3184POPC   C4B41938  27.462  34.040   7.497
 3185POPC   NC341939   6.253  42.756   5.142
 3185POPC   PO441940   6.704  42.262   5.208
 3185POPC   GL141941   6.569  42.262   5.710
 3185POPC   GL241942   6.689  42.046   5.983
 3185POPC   C1A41943   6.535  42.475   6.175
 3185POPC   D2A41944   6.552  42.592   6.626
 3185POPC   C3A41945   6.526  42.283   6.995
 3185POPC   C4A41946   6.514  42.247   7.493
 3185POPC   C1B41947   7.015  42.247   6.201
 3185POPC   C2B41948   7.075  42.447   6.588
 3185POPC   C3B41949   7.115  42.321   6.969
 3185POPC   C4B41950   6.956  42.389   7.349
 3186POPC   NC341951  33.335   6.803   5.533
 3186POPC   PO441952  33.987   6.827   5.330
 3186POPC   GL141953  33.936   6.726   5.755
 3186POPC   GL241954  33.659   6.852   5.899
 3186POPC   C1A41955  33.886   6.470   6.147
 3186POPC   D2A41956  33.668   6.431   6.558
 3186POPC   C3A41957  33.874   6.449   6.971
 3186POPC   C4A41958  33.656   6.212   7.291
 3186POPC   C1B41959  33.596   6.875   6.307
 3186POPC   C2B41960  33.848   6.921   6.678
 3186POPC   C3B41961  33.762   6.932   7.098
 3186POPC   C4B41962  33.766   6.795   7.509
 3187POPC   NC341963  11.610   5.248   5.652
 3187POPC   PO441964  11.100   5.482   5.359
 3187POPC   GL141965  11.115   5.227   5.792
 3187POPC   GL241966  11.179   4.856   5.812
 3187POPC   C1A41967  11.392   5.128   6.226
 3187POPC   D2A41968  11.482   5.272   6.645
 3187POPC   C3A41969  11.549   5.010   6.988
 3187POPC   C4A41970  11.395   5.059   7.376
 3187POPC   C1B41971  10.922   4.959   6.199
 3187POPC   C2B41972  10.929   5.226   6.590
 3187POPC   C3B41973  11.052   5.215   7.037
 3187POPC   C4B41974  10.905   4.930   7.422
 3188POPC   NC341975  12.016  12.742   5.370
 3188POPC   PO441976  12.385  13.217   5.523
 3188POPC   GL141977  12.301  12.930   5.870
 3188POPC   GL241978  12.186  12.567   5.839
 3188POPC   C1A41979  12.343  12.891   6.321
 3188POPC   D2A41980  12.487  12.642   6.693
 3188POPC   C3A41981  12.372  12.892   7.034
 3188POPC   C4A41982  11.923  12.971   7.099
 3188POPC   C1B41983  11.869  12.749   6.152
 3188POPC   C2B41984  11.925  12.736   6.630
 3188POPC   C3B41985  12.068  12.482   7.022
 3188POPC   C4B41986  11.966  12.445   7.503
 3189POPC   NC341987  12.690  31.963   5.506
 3189POPC   PO441988  13.027  32.508   5.507
 3189POPC   GL141989  12.872  32.424   5.897
 3189POPC   GL241990  12.624  32.201   5.954
 3189POPC   C1A41991  13.060  32.277   6.273
 3189POPC   D2A41992  12.995  32.128   6.690
 3189POPC   C3A41993  12.970  32.320   7.087
 3189POPC   C4A41994  12.753  32.294   7.477
 3189POPC   C1B41995  12.563  32.187   6.376
 3189POPC   C2B41996  12.553  31.880   6.687
 3189POPC   C3B41997  12.562  31.962   7.119
 3189POPC   C4B41998  12.405  31.963   7.553
 3190POPC   NC341999  41.376  21.272   5.529
 3190POPC   PO442000  41.910  21.569   5.242
 3190POPC   GL142001  41.834  21.576   5.825
 3190POPC   GL242002  41.514  21.414   5.973
 3190POPC   C1A42003  41.726  21.745   6.264
 3190POPC   D2A42004  41.502  21.516   6.620
 3190POPC   C3A42005  41.641  21.527   7.035
 3190POPC   C4A42006  41.405  21.829   7.259
 3190POPC   C1B42007  41.707  21.200   6.284
 3190POPC   C2B42008  41.626  21.012   6.682
 3190POPC   C3B42009  41.706  21.010   7.093
 3190POPC   C4B42010  41.583  21.207   7.442
 3191POPC   NC342011  35.886  18.682   5.523
 3191POPC   PO442012  36.427  18.912   5.064
 3191POPC   GL142013  36.356  18.908   5.579
 3191POPC   GL242014  36.064  19.106   5.731
 3191POPC   C1A42015  36.333  18.845   6.082
 3191POPC   D2A42016  36.328  19.064   6.500
 3191POPC   C3A42017  36.341  18.856   6.898
 3191POPC   C4A42018  36.282  19.047   7.315
 3191POPC   C1B42019  35.824  18.951   6.113
 3191POPC   C2B42020  35.891  18.793   6.551
 3191POPC   C3B42021  35.841  18.968   6.981
 3191POPC   C4B42022  35.552  18.713   7.208
 3192POPC   NC342023  19.006  39.353   5.381
 3192POPC   PO442024  19.347  38.783   5.449
 3192POPC   GL142025  19.050  39.010   5.784
 3192POPC   GL242026  18.960  39.415   5.888
 3192POPC   C1A42027  19.127  39.096   6.221
 3192POPC   D2A42028  19.045  39.336   6.574
 3192POPC   C3A42029  19.139  39.078   6.931
 3192POPC   C4A42030  18.910  38.939   7.254
 3192POPC   C1B42031  19.308  39.592   6.215
 3192POPC   C2B42032  19.467  39.567   6.695
 3192POPC   C3B42033  19.152  39.583   7.062
 3192POPC   C4B42034  19.137  39.338   7.478
 3193POPC   NC342035  41.372  31.022   5.468
 3193POPC   PO442036  41.676  31.637   5.546
 3193POPC   GL142037  41.412  31.433   5.839
 3193POPC   GL242038  41.597  31.197   5.875
 3193POPC   C1A42039  41.432  31.582   6.263
 3193POPC   D2A42040  41.539  31.379   6.575
 3193POPC   C3A42041  41.382  31.511   6.930
 3193POPC   C4A42042  41.587  31.536   7.299
 3193POPC   C1B42043  41.889  31.387   6.143
 3193POPC   C2B42044  42.051  31.442   6.537
 3193POPC   C3B42045  41.903  31.343   6.930
 3193POPC   C4B42046  42.047  31.308   7.310
 3194POPC   NC342047  10.126  36.055   5.344
 3194POPC   PO442048  10.589  36.449   5.340
 3194POPC   GL142049  10.540  36.182   5.757
 3194POPC   GL242050  10.471  35.817   5.701
 3194POPC   C1A42051  10.624  36.210   6.259
 3194POPC   D2A42052  10.497  36.237   6.731
 3194POPC   C3A42053  10.756  36.151   7.137
 3194POPC   C4A42054  10.666  36.364   7.569
 3194POPC   C1B42055  10.620  35.701   6.133
 3194POPC   C2B42056  10.740  35.768   6.570
 3194POPC   C3B42057  10.611  35.685   7.005
 3194POPC   C4B42058  10.491  35.816   7.457
 3195POPC   NC342059  11.955  27.986   5.346
 3195POPC   PO442060  12.226  27.435   5.694
 3195POPC   GL142061  12.242  27.798   5.909
 3195POPC   GL242062  11.899  27.883   5.837
 3195POPC   C1A42063  12.224  27.778   6.374
 3195POPC   D2A42064  12.432  27.569   6.705
 3195POPC   C3A42065  12.126  27.344   6.924
 3195POPC   C4A42066  12.038  27.490   7.307
 3195POPC   C1B42067  11.639  27.866   6.166
 3195POPC   C2B42068  11.710  27.893   6.574
 3195POPC   C3B42069  11.909  27.856   6.942
 3195POPC   C4B42070  11.734  27.884   7.346
 3196POPC   NC342071  43.473  30.182   5.530
 3196POPC   PO442072  42.780  30.192   5.663
 3196POPC   GL142073  43.124  29.898   5.808
 3196POPC   GL242074  43.193  29.536   5.727
 3196POPC   C1A42075  43.289  29.884   6.228
 3196POPC   D2A42076  43.087  29.803   6.591
 3196POPC   C3A42077  43.210  30.048   6.909
 3196POPC   C4A42078  42.951  30.070   7.256
 3196POPC   C1B42079  42.931  29.491   6.144
 3196POPC   C2B42080  42.783  29.389   6.589
 3196POPC   C3B42081  42.775  29.588   7.007
 3196POPC   C4B42082  42.805  29.583   7.454
 3197POPC   NC342083  32.821   6.939   5.136
 3197POPC   PO442084  33.002   6.386   5.535
 3197POPC   GL142085  33.001   6.603   5.892
 3197POPC   GL242086  33.322   6.480   6.004
 3197POPC   C1A42087  32.689   6.703   6.198
 3197POPC   D2A42088  32.549   6.555   6.595
 3197POPC   C3A42089  32.814   6.605   6.961
 3197POPC   C4A42090  32.608   6.767   7.329
 3197POPC   C1B42091  33.160   6.641   6.401
 3197POPC   C2B42092  33.327   6.823   6.790
 3197POPC   C3B42093  33.343   6.616   7.196
 3197POPC   C4B42094  33.098   6.283   7.398
 3198POPC   NC342095  27.397  25.591   5.497
 3198POPC   PO442096  27.625  24.913   5.422
 3198POPC   GL142097  27.548  25.173   5.745
 3198POPC   GL242098  27.592  24.922   5.971
 3198POPC   C1A42099  27.479  25.430   6.116
 3198POPC   D2A42100  27.554  25.256   6.493
 3198POPC   C3A42101  27.629  25.492   6.837
 3198POPC   C4A42102  27.734  25.400   7.220
 3198POPC   C1B42103  27.266  24.848   6.268
 3198POPC   C2B42104  27.193  24.947   6.712
 3198POPC   C3B42105  27.209  24.783   7.097
 3198POPC   C4B42106  27.565  24.925   7.287
 3199POPC   NC342107  34.287  12.006   5.325
 3199POPC   PO442108  34.912  12.186   5.533
 3199POPC   GL142109  34.637  12.240   5.854
 3199POPC   GL242110  34.436  11.944   5.820
 3199POPC   C1A42111  34.694  12.086   6.275
 3199POPC   D2A42112  34.577  11.881   6.644
 3199POPC   C3A42113  34.512  12.073   7.062
 3199POPC   C4A42114  34.786  12.346   7.338
 3199POPC   C1B42115  34.215  11.867   6.207
 3199POPC   C2B42116  34.161  11.590   6.531
 3199POPC   C3B42117  34.240  11.615   6.932
 3199POPC   C4B42118  34.043  11.799   7.257
 3200POPC   NC342119   5.547  17.368   5.381
 3200POPC   PO442120   6.093  17.771   5.532
 3200POPC   GL142121   5.801  17.625   5.814
 3200POPC   GL242122   5.861  17.304   5.762
 3200POPC   C1A42123   5.790  17.749   6.235
 3200POPC   D2A42124   6.088  17.859   6.557
 3200POPC   C3A42125   5.958  17.732   6.967
 3200POPC   C4A42126   6.193  17.741   7.353
 3200POPC   C1B42127   5.794  17.216   6.168
 3200POPC   C2B42128   5.816  17.361   6.599
 3200POPC   C3B42129   5.662  17.299   7.007
 3200POPC   C4B42130   5.801  17.134   7.399
 3201POPC   NC342131  34.554  42.560   5.253
 3201POPC   PO442132  34.397  43.201   5.219
 3201POPC   GL142133  34.512  43.170   5.665
 3201POPC   GL242134  34.236  43.401   5.757
 3201POPC   C1A42135  34.671  42.987   6.086
 3201POPC   D2A42136  34.891  43.223   6.402
 3201POPC   C3A42137  34.730  43.328   6.791
 3201POPC   C4A42138  34.747  43.184   7.191
 3201POPC   C1B42139  34.206  43.161   6.155
 3201POPC   C2B42140  34.357  43.022   6.572
 3201POPC   C3B42141  34.259  43.161   7.007
 3201POPC   C4B42142  34.344  42.998   7.449
 3202POPC   NC342143   6.152  12.067   5.497
 3202POPC   PO442144   5.434  11.790   5.428
 3202POPC   GL142145   5.640  11.965   5.789
 3202POPC   GL242146   5.905  11.739   5.807
 3202POPC   C1A42147   5.784  11.962   6.243
 3202POPC   D2A42148   5.919  12.205   6.587
 3202POPC   C3A42149   5.695  12.040   6.876
 3202POPC   C4A42150   5.745  12.069   7.257
 3202POPC   C1B42151   6.262  11.796   6.112
 3202POPC   C2B42152   6.344  11.948   6.530
 3202POPC   C3B42153   6.216  11.842   6.989
 3202POPC   C4B42154   6.092  11.774   7.435
 3203POPC   NC342155  36.864  17.057   5.427
 3203POPC   PO442156  37.428  16.682   5.485
 3203POPC   GL142157  37.030  16.712   5.778
 3203POPC   GL242158  36.671  16.887   5.866
 3203POPC   C1A42159  37.053  16.955   6.176
 3203POPC   D2A42160  37.201  16.948   6.595
 3203POPC   C3A42161  36.929  16.817   6.886
 3203POPC   C4A42162  36.966  16.722   7.288
 3203POPC   C1B42163  36.738  16.503   6.144
 3203POPC   C2B42164  36.805  16.419   6.579
 3203POPC   C3B42165  36.626  16.430   7.010
 3203POPC   C4B42166  36.471  16.813   7.249
 3204POPC   NC342167  29.787  19.227   5.353
 3204POPC   PO442168  30.383  19.100   5.488
 3204POPC   GL142169  30.050  19.211   5.796
 3204POPC   GL242170  29.759  18.983   5.817
 3204POPC   C1A42171  29.871  19.290   6.222
 3204POPC   D2A42172  30.081  19.337   6.624
 3204POPC   C3A42173  29.967  19.312   7.077
 3204POPC   C4A42174  30.222  19.281   7.482
 3204POPC   C1B42175  29.749  18.809   6.282
 3204POPC   C2B42176  29.735  18.952   6.737
 3204POPC   C3B42177  29.755  18.793   7.186
 3204POPC   C4B42178  29.696  18.426   7.489
 3205POPC   NC342179  37.600  17.115   5.566
 3205POPC   PO442180  37.769  17.757   5.433
 3205POPC   GL142181  37.703  17.590   5.822
 3205POPC   GL242182  37.924  17.299   5.908
 3205POPC   C1A42183  37.387  17.545   6.125
 3205POPC   D2A42184  37.344  17.429   6.539
 3205POPC   C3A42185  37.651  17.555   6.824
 3205POPC   C4A42186  37.565  17.367   7.219
 3205POPC   C1B42187  37.896  17.461   6.328
 3205POPC   C2B42188  38.082  17.275   6.683
 3205POPC   C3B42189  38.074  17.400   7.124
 3205POPC   C4B42190  37.982  17.224   7.527
 3206POPC   NC342191  32.244  37.893   5.626
 3206POPC   PO442192  32.170  38.422   5.208
 3206POPC   GL142193  32.201  38.395   5.709
 3206POPC   GL242194  31.898  38.226   5.766
 3206POPC   C1A42195  32.354  38.349   6.202
 3206POPC   D2A42196  32.391  38.512   6.626
 3206POPC   C3A42197  32.264  38.417   7.016
 3206POPC   C4A42198  32.129  38.643   7.449
 3206POPC   C1B42199  31.927  38.098   6.193
 3206POPC   C2B42200  32.092  38.066   6.605
 3206POPC   C3B42201  31.865  38.109   6.999
 3206POPC   C4B42202  32.082  38.132   7.387
 3207POPC   NC342203   6.409   3.247   5.570
 3207POPC   PO442204   6.759   3.682   5.165
 3207POPC   GL142205   6.705   3.629   5.642
 3207POPC   GL242206   6.891   3.308   5.763
 3207POPC   C1A42207   6.623   3.654   6.098
 3207POPC   D2A42208   6.320   3.442   6.420
 3207POPC   C3A42209   6.328   3.401   6.871
 3207POPC   C4A42210   6.644   3.576   7.145
 3207POPC   C1B42211   6.768   3.189   6.204
 3207POPC   C2B42212   6.616   3.049   6.619
 3207POPC   C3B42213   6.693   3.094   7.062
 3207POPC   C4B42214   6.514   3.152   7.484
 3208POPC   NC342215  29.510   0.721   5.390
 3208POPC   PO442216  28.936   0.425   5.281
 3208POPC   GL142217  28.946   0.393   5.800
 3208POPC   GL242218  29.315   0.432   5.899
 3208POPC   C1A42219  29.000   0.483   6.293
 3208POPC   D2A42220  29.155   0.748   6.670
 3208POPC   C3A42221  29.002   0.619   7.056
 3208POPC   C4A42222  28.804   0.203   7.101
 3208POPC   C1B42223  29.392   0.807   6.219
 3208POPC   C2B42224  29.591   1.050   6.538
 3208POPC   C3B42225  29.559   0.960   6.962
 3208POPC   C4B42226  29.451   0.679   7.274
 3209POPC   NC342227  16.136  10.197   5.479
 3209POPC   PO442228  16.455  10.839   5.448
 3209POPC   GL142229  16.168  10.625   5.796
 3209POPC   GL242230  15.947  10.351   5.914
 3209POPC   C1A42231  16.314  10.467   6.234
 3209POPC   D2A42232  16.115  10.321   6.589
 3209POPC   C3A42233  16.300  10.443   6.964
 3209POPC   C4A42234  15.904  10.516   7.202
 3209POPC   C1B42235  15.793  10.555   6.268
 3209POPC   C2B42236  15.534  10.383   6.599
 3209POPC   C3B42237  15.547  10.194   6.992
 3209POPC   C4B42238  15.441  10.327   7.394
 3210POPC   NC342239  42.753  16.813   5.331
 3210POPC   PO442240  43.230  16.339   5.400
 3210POPC   GL142241  43.113  16.511   5.806
 3210POPC   GL242242  43.080  16.870   5.760
 3210POPC   C1A42243  43.251  16.643   6.232
 3210POPC   D2A42244  43.454  16.891   6.578
 3210POPC   C3A42245  43.347  16.758   7.016
 3210POPC   C4A42246  43.001  16.435   7.135
 3210POPC   C1B42247  42.787  16.764   6.098
 3210POPC   C2B42248  42.927  16.938   6.486
 3210POPC   C3B42249  42.864  16.846   6.872
 3210POPC   C4B42250  42.906  17.002   7.270
 3211POPC   NC342251   1.725  39.296   5.241
 3211POPC   PO442252   1.164  39.014   5.376
 3211POPC   GL142253   1.146  39.273   5.737
 3211POPC   GL242254   1.474  39.442   5.710
 3211POPC   C1A42255   1.047  39.308   6.172
 3211POPC   D2A42256   0.969  39.320   6.608
 3211POPC   C3A42257   1.294  39.473   6.884
 3211POPC   C4A42258   1.229  39.419   7.324
 3211POPC   C1B42259   1.554  39.469   6.166
 3211POPC   C2B42260   1.738  39.348   6.577
 3211POPC   C3B42261   1.850  39.576   6.924
 3211POPC   C4B42262   1.605  39.740   7.237
 3212POPC   NC342263  26.711   2.332   5.438
 3212POPC   PO442264  26.485   1.719   5.481
 3212POPC   GL142265  26.643   1.752   5.909
 3212POPC   GL242266  26.791   2.080   5.947
 3212POPC   C1A42267  26.659   1.756   6.359
 3212POPC   D2A42268  26.838   2.059   6.607
 3212POPC   C3A42269  26.647   2.003   6.980
 3212POPC   C4A42270  26.844   2.050   7.375
 3212POPC   C1B42271  27.138   1.871   6.190
 3212POPC   C2B42272  27.163   1.653   6.584
 3212POPC   C3B42273  27.110   1.799   6.992
 3212POPC   C4B42274  27.361   1.946   7.307
 3213POPC   NC342275  23.339  18.971   5.515
 3213POPC   PO442276  23.810  19.214   5.109
 3213POPC   GL142277  23.799  19.235   5.689
 3213POPC   GL242278  23.545  19.007   5.958
 3213POPC   C1A42279  23.736  19.388   6.190
 3213POPC   D2A42280  23.439  19.292   6.511
 3213POPC   C3A42281  23.588  19.247   6.921
 3213POPC   C4A42282  23.813  19.032   7.247
 3213POPC   C1B42283  23.504  18.738   6.335
 3213POPC   C2B42284  23.561  18.634   6.786
 3213POPC   C3B42285  23.371  18.833   7.138
 3213POPC   C4B42286  23.356  18.779   7.597
 3214POPC   NC342287  30.877  13.571   5.302
 3214POPC   PO442288  30.876  13.001   5.460
 3214POPC   GL142289  30.879  13.340   5.775
 3214POPC   GL242290  30.785  13.680   5.802
 3214POPC   C1A42291  30.564  13.389   6.142
 3214POPC   D2A42292  30.339  13.651   6.429
 3214POPC   C3A42293  30.520  13.657   6.839
 3214POPC   C4A42294  30.444  13.658   7.295
 3214POPC   C1B42295  30.772  13.849   6.209
 3214POPC   C2B42296  31.035  13.861   6.567
 3214POPC   C3B42297  30.952  13.859   7.006
 3214POPC   C4B42298  31.096  13.990   7.385
 3215POPC   NC342299  33.117  39.474   5.397
 3215POPC   PO442300  33.005  38.792   5.404
 3215POPC   GL142301  32.933  39.119   5.758
 3215POPC   GL242302  33.132  39.380   5.878
 3215POPC   C1A42303  32.747  39.182   6.191
 3215POPC   D2A42304  32.695  38.894   6.559
 3215POPC   C3A42305  32.798  39.026   6.973
 3215POPC   C4A42306  32.773  39.438   7.134
 3215POPC   C1B42307  33.293  39.271   6.230
 3215POPC   C2B42308  33.081  39.273   6.578
 3215POPC   C3B42309  33.223  39.383   6.925
 3215POPC   C4B42310  33.268  39.068   7.209
 3216POPC   NC342311   4.856  38.686   5.663
 3216POPC   PO442312   5.219  39.149   5.378
 3216POPC   GL142313   5.219  39.374   5.768
 3216POPC   GL242314   4.938  39.191   5.873
 3216POPC   C1A42315   5.207  39.456   6.234
 3216POPC   D2A42316   4.949  39.279   6.573
 3216POPC   C3A42317   5.078  39.400   7.009
 3216POPC   C4A42318   5.168  39.284   7.438
 3216POPC   C1B42319   4.655  39.013   6.185
 3216POPC   C2B42320   4.656  38.839   6.572
 3216POPC   C3B42321   4.805  38.964   6.965
 3216POPC   C4B42322   4.771  38.795   7.342
 3217POPC   NC342323  25.895  26.237   5.658
 3217POPC   PO442324  26.421  25.978   5.468
 3217POPC   GL142325  26.319  25.907   5.912
 3217POPC   GL242326  26.530  25.607   6.045
 3217POPC   C1A42327  26.094  26.130   6.294
 3217POPC   D2A42328  26.149  26.337   6.701
 3217POPC   C3A42329  25.971  26.122   7.014
 3217POPC   C4A42330  26.037  26.051   7.424
 3217POPC   C1B42331  26.236  25.651   6.345
 3217POPC   C2B42332  26.296  25.803   6.718
 3217POPC   C3B42333  26.481  25.611   7.042
 3217POPC   C4B42334  26.438  25.751   7.443
 3218POPC   NC342335   4.140  41.744   5.309
 3218POPC   PO442336   4.171  41.175   5.661
 3218POPC   GL142337   4.292  41.585   5.781
 3218POPC   GL242338   4.602  41.496   5.655
 3218POPC   C1A42339   4.288  41.743   6.195
 3218POPC   D2A42340   4.050  41.558   6.557
 3218POPC   C3A42341   4.171  41.428   6.966
 3218POPC   C4A42342   3.971  41.394   7.379
 3218POPC   C1B42343   4.713  41.410   6.104
 3218POPC   C2B42344   4.568  41.465   6.533
 3218POPC   C3B42345   4.569  41.755   6.874
 3218POPC   C4B42346   4.694  41.622   7.279
 3219POPC   NC342347  13.511  31.956   5.426
 3219POPC   PO442348  13.817  32.574   5.406
 3219POPC   GL142349  13.754  32.258   5.757
 3219POPC   GL242350  13.364  32.231   5.822
 3219POPC   C1A42351  13.883  32.117   6.179
 3219POPC   D2A42352  13.886  32.366   6.563
 3219POPC   C3A42353  13.863  32.173   6.956
 3219POPC   C4A42354  13.829  32.375   7.343
 3219POPC   C1B42355  13.404  31.923   6.157
 3219POPC   C2B42356  13.498  32.038   6.566
 3219POPC   C3B42357  13.378  31.999   6.999
 3219POPC   C4B42358  13.360  32.195   7.430
 3220POPC   NC342359   7.542  41.567   5.520
 3220POPC   PO442360   7.006  41.928   5.620
 3220POPC   GL142361   7.242  41.703   5.904
 3220POPC   GL242362   7.111  41.382   5.912
 3220POPC   C1A42363   7.442  41.526   6.279
 3220POPC   D2A42364   7.326  41.383   6.698
 3220POPC   C3A42365   7.606  41.409   7.076
 3220POPC   C4A42366   7.639  41.668   7.451
 3220POPC   C1B42367   6.909  41.679   6.265
 3220POPC   C2B42368   6.752  42.010   6.586
 3220POPC   C3B42369   6.857  41.891   7.017
 3220POPC   C4B42370   7.115  41.527   7.130
 3221POPC   NC342371  26.907  43.138   5.498
 3221POPC   PO442372  26.322  43.228   5.798
 3221POPC   GL142373  26.705  43.045   5.975
 3221POPC   GL242374  26.931  42.761   5.840
 3221POPC   C1A42375  26.774  43.140   6.414
 3221POPC   D2A42376  26.901  43.355   6.790
 3221POPC   C3A42377  26.782  43.127   7.153
 3221POPC   C4A42378  26.392  43.206   7.300
 3221POPC   C1B42379  27.159  42.872   6.213
 3221POPC   C2B42380  27.194  42.946   6.673
 3221POPC   C3B42381  27.109  42.725   7.089
 3221POPC   C4B42382  27.152  42.909   7.520
 3222POPC   NC342383   6.076   5.128   5.419
 3222POPC   PO442384   5.486   4.885   5.431
 3222POPC   GL142385   5.751   4.930   5.807
 3222POPC   GL242386   5.836   5.281   5.872
 3222POPC   C1A42387   5.708   4.999   6.280
 3222POPC   D2A42388   5.742   5.260   6.659
 3222POPC   C3A42389   5.779   5.015   7.021
 3222POPC   C4A42390   5.972   4.746   7.318
 3222POPC   C1B42391   6.160   5.234   6.226
 3222POPC   C2B42392   6.226   5.439   6.607
 3222POPC   C3B42393   6.188   5.293   7.012
 3222POPC   C4B42394   6.406   5.293   7.373
 3223POPC   NC342395  44.739  37.738   5.078
 3223POPC   PO442396  44.574  37.375   5.607
 3223POPC   GL142397  44.746  37.702   5.861
 3223POPC   GL242398  44.409  37.768   6.036
 3223POPC   C1A42399  44.810  37.951   6.249
 3223POPC   D2A42400  44.503  37.887   6.566
 3223POPC   C3A42401  44.637  37.970   6.998
 3223POPC   C4A42402  44.892  37.856   7.364
 3223POPC   C1B42403  44.609  37.428   6.294
 3223POPC   C2B42404  44.662  37.251   6.713
 3223POPC   C3B42405  44.714  37.448   7.102
 3223POPC   C4B42406  44.789  37.408   7.570
 3224POPC   NC342407   9.311   3.771   5.516
 3224POPC   PO442408   8.703   3.387   5.352
 3224POPC   GL142409   8.925   3.509   5.746
 3224POPC   GL242410   9.239   3.308   5.820
 3224POPC   C1A42411   8.946   3.501   6.207
 3224POPC   D2A42412   8.943   3.676   6.625
 3224POPC   C3A42413   9.011   3.362   6.934
 3224POPC   C4A42414   8.908   3.537   7.313
 3224POPC   C1B42415   9.446   3.502   6.148
 3224POPC   C2B42416   9.375   3.378   6.573
 3224POPC   C3B42417   9.405   3.696   6.898
 3224POPC   C4B42418   9.492   3.805   7.313
 3225POPC   NC342419  23.556  19.757   5.487
 3225POPC   PO442420  24.178  19.876   5.646
 3225POPC   GL142421  23.883  19.788   5.909
 3225POPC   GL242422  23.623  20.050   5.897
 3225POPC   C1A42423  23.962  19.862   6.335
 3225POPC   D2A42424  24.023  20.119   6.692
 3225POPC   C3A42425  23.838  19.911   7.055
 3225POPC   C4A42426  23.717  19.551   7.311
 3225POPC   C1B42427  23.461  19.818   6.224
 3225POPC   C2B42428  23.556  19.774   6.635
 3225POPC   C3B42429  23.343  19.708   6.982
 3225POPC   C4B42430  23.381  19.973   7.305
 3226POPC   NC342431  30.038  34.748   5.579
 3226POPC   PO442432  30.086  34.189   5.737
 3226POPC   GL142433  30.111  34.505   6.034
 3226POPC   GL242434  29.856  34.769   6.052
 3226POPC   C1A42435  30.185  34.471   6.449
 3226POPC   D2A42436  30.338  34.410   6.825
 3226POPC   C3A42437  30.023  34.287   7.074
 3226POPC   C4A42438  29.863  34.636   7.298
 3226POPC   C1B42439  29.628  34.408   6.241
 3226POPC   C2B42440  29.612  34.200   6.649
 3226POPC   C3B42441  29.501  34.286   7.065
 3226POPC   C4B42442  29.351  34.676   7.188
 3227POPC   NC342443   4.414   9.518   5.396
 3227POPC   PO442444   4.257  10.210   5.298
 3227POPC   GL142445   4.326   9.918   5.738
 3227POPC   GL242446   4.221   9.555   5.870
 3227POPC   C1A42447   4.330   9.914   6.215
 3227POPC   D2A42448   4.285  10.014   6.672
 3227POPC   C3A42449   4.225   9.676   6.965
 3227POPC   C4A42450   4.343   9.899   7.269
 3227POPC   C1B42451   4.497   9.406   6.153
 3227POPC   C2B42452   4.493   9.552   6.556
 3227POPC   C3B42453   4.723   9.767   6.867
 3227POPC   C4B42454   4.674   9.494   7.195
 3228POPC   NC342455  40.863  30.202   5.582
 3228POPC   PO442456  40.536  29.598   5.498
 3228POPC   GL142457  40.564  29.862   5.862
 3228POPC   GL242458  40.901  29.909   6.012
 3228POPC   C1A42459  40.423  30.036   6.256
 3228POPC   D2A42460  40.585  30.201   6.645
 3228POPC   C3A42461  40.944  29.944   6.793
 3228POPC   C4A42462  40.873  29.861   7.230
 3228POPC   C1B42463  40.891  30.325   6.242
 3228POPC   C2B42464  41.036  30.457   6.679
 3228POPC   C3B42465  40.879  30.355   7.075
 3228POPC   C4B42466  41.006  30.337   7.509
 3229POPC   NC342467  40.399   6.502   5.600
 3229POPC   PO442468  40.761   6.985   5.325
 3229POPC   GL142469  40.895   6.755   5.709
 3229POPC   GL242470  40.640   6.712   5.976
 3229POPC   C1A42471  41.098   6.783   6.125
 3229POPC   D2A42472  40.849   6.661   6.477
 3229POPC   C3A42473  40.977   6.706   6.889
 3229POPC   C4A42474  40.916   6.444   7.259
 3229POPC   C1B42475  40.331   6.710   6.292
 3229POPC   C2B42476  40.224   6.611   6.710
 3229POPC   C3B42477  40.499   6.623   7.060
 3229POPC   C4B42478  40.460   6.519   7.518
 3230POPC   NC342479  26.149  24.711   5.291
 3230POPC   PO442480  26.275  24.100   5.611
 3230POPC   GL142481  26.331  24.499   5.820
 3230POPC   GL242482  26.046  24.759   5.807
 3230POPC   C1A42483  26.319  24.684   6.240
 3230POPC   D2A42484  26.264  24.830   6.619
 3230POPC   C3A42485  26.209  24.614   6.993
 3230POPC   C4A42486  26.137  24.795   7.368
 3230POPC   C1B42487  25.894  24.450   6.113
 3230POPC   C2B42488  25.939  24.398   6.557
 3230POPC   C3B42489  25.749  24.368   6.938
 3230POPC   C4B42490  25.793  24.432   7.318
 3231POPC   NC342491  42.163  30.535   5.146
 3231POPC   PO442492  42.486  31.032   5.421
 3231POPC   GL142493  42.313  30.893   5.806
 3231POPC   GL242494  42.061  31.036   5.829
 3231POPC   C1A42495  42.429  30.682   6.194
 3231POPC   D2A42496  42.294  30.454   6.570
 3231POPC   C3A42497  42.441  30.553   6.983
 3231POPC   C4A42498  42.179  30.418   7.319
 3231POPC   C1B42499  41.933  30.869   6.214
 3231POPC   C2B42500  41.800  30.931   6.635
 3231POPC   C3B42501  41.968  30.815   7.024
 3231POPC   C4B42502  41.884  30.840   7.451
 3232POPC   NC342503  11.113  35.828   5.360
 3232POPC   PO442504  11.557  36.328   5.560
 3232POPC   GL142505  11.266  36.111   5.794
 3232POPC   GL242506  11.401  35.774   5.758
 3232POPC   C1A42507  11.138  36.204   6.230
 3232POPC   D2A42508  11.006  36.198   6.642
 3232POPC   C3A42509  11.302  36.201   6.914
 3232POPC   C4A42510  11.248  36.166   7.302
 3232POPC   C1B42511  11.145  35.708   6.115
 3232POPC   C2B42512  11.263  35.750   6.541
 3232POPC   C3B42513  11.113  35.745   6.973
 3232POPC   C4B42514  10.952  35.547   7.357
 3233POPC   NC342515  22.229  34.326   5.461
 3233POPC   PO442516  21.685  34.790   5.624
 3233POPC   GL142517  21.898  34.456   5.839
 3233POPC   GL242518  22.259  34.562   5.911
 3233POPC   C1A42519  22.037  34.260   6.217
 3233POPC   D2A42520  22.238  34.465   6.573
 3233POPC   C3A42521  22.177  34.248   6.957
 3233POPC   C4A42522  22.049  34.402   7.295
 3233POPC   C1B42523  22.058  34.808   6.233
 3233POPC   C2B42524  22.212  35.004   6.585
 3233POPC   C3B42525  22.165  34.805   6.970
 3233POPC   C4B42526  21.797  34.839   7.212
 3234POPC   NC342527  18.409  10.886   5.267
 3234POPC   PO442528  18.249  10.300   5.509
 3234POPC   GL142529  18.218  10.518   5.868
 3234POPC   GL242530  18.255  10.817   5.752
 3234POPC   C1A42531  18.108  10.409   6.289
 3234POPC   D2A42532  17.855  10.466   6.671
 3234POPC   C3A42533  18.187  10.408   6.966
 3234POPC   C4A42534  18.142  10.567   7.362
 3234POPC   C1B42535  18.146  10.929   6.180
 3234POPC   C2B42536  18.241  10.799   6.609
 3234POPC   C3B42537  18.134  10.938   7.025
 3234POPC   C4B42538  18.403  11.009   7.392
 3235POPC   NC342539  33.272   5.241   5.084
 3235POPC   PO442540  33.889   5.180   5.386
 3235POPC   GL142541  33.919   4.900   5.737
 3235POPC   GL242542  33.719   5.168   5.907
 3235POPC   C1A42543  34.021   4.862   6.191
 3235POPC   D2A42544  33.654   4.890   6.461
 3235POPC   C3A42545  33.715   4.975   6.889
 3235POPC   C4A42546  33.796   5.138   7.299
 3235POPC   C1B42547  33.975   5.395   6.177
 3235POPC   C2B42548  34.051   5.268   6.581
 3235POPC   C3B42549  34.159   5.368   6.973
 3235POPC   C4B42550  34.158   5.497   7.376
 3236POPC   NC342551  18.653  34.662   5.519
 3236POPC   PO442552  19.276  34.488   5.334
 3236POPC   GL142553  19.125  34.632   5.760
 3236POPC   GL242554  18.925  34.332   5.833
 3236POPC   C1A42555  19.154  34.745   6.221
 3236POPC   D2A42556  18.899  34.720   6.635
 3236POPC   C3A42557  19.091  34.785   7.053
 3236POPC   C4A42558  19.553  34.841   7.221
 3236POPC   C1B42559  18.855  34.339   6.271
 3236POPC   C2B42560  19.073  34.242   6.637
 3236POPC   C3B42561  18.879  34.268   7.037
 3236POPC   C4B42562  18.591  34.371   7.355
 3237POPC   NC342563  42.918  28.639   5.064
 3237POPC   PO442564  42.666  28.114   5.456
 3237POPC   GL142565  42.925  28.187   5.828
 3237POPC   GL242566  43.169  28.472   5.774
 3237POPC   C1A42567  42.913  28.440   6.220
 3237POPC   D2A42568  43.099  28.459   6.641
 3237POPC   C3A42569  42.870  28.385   7.051
 3237POPC   C4A42570  42.929  28.573   7.477
 3237POPC   C1B42571  43.382  28.211   6.128
 3237POPC   C2B42572  43.533  28.195   6.591
 3237POPC   C3B42573  43.387  28.288   7.041
 3237POPC   C4B42574  43.391  28.356   7.501
 3238POPC   NC342575   9.477  18.441   5.571
 3238POPC   PO442576  10.027  17.987   5.578
 3238POPC   GL142577   9.813  18.191   5.920
 3238POPC   GL242578   9.906  18.550   5.925
 3238POPC   C1A42579   9.579  18.355   6.297
 3238POPC   D2A42580   9.771  18.532   6.683
 3238POPC   C3A42581   9.814  18.271   7.053
 3238POPC   C4A42582   9.420  18.245   7.239
 3238POPC   C1B42583  10.090  18.371   6.322
 3238POPC   C2B42584  10.278  18.490   6.733
 3238POPC   C3B42585  10.081  18.730   7.040
 3238POPC   C4B42586  10.002  18.630   7.438
 3239POPC   NC342587  29.350  27.809   5.421
 3239POPC   PO442588  29.362  27.066   5.391
 3239POPC   GL142589  29.229  27.388   5.760
 3239POPC   GL242590  29.439  27.679   5.884
 3239POPC   C1A42591  29.025  27.522   6.177
 3239POPC   D2A42592  29.171  27.289   6.554
 3239POPC   C3A42593  29.250  27.487   6.954
 3239POPC   C4A42594  28.948  27.715   7.174
 3239POPC   C1B42595  29.512  27.568   6.278
 3239POPC   C2B42596  29.307  27.822   6.570
 3239POPC   C3B42597  29.333  28.006   6.956
 3239POPC   C4B42598  29.422  27.820   7.363
 3240POPC   NC342599   1.330  13.373   5.080
 3240POPC   PO442600   0.981  13.239   5.662
 3240POPC   GL142601   1.126  13.522   6.010
 3240POPC   GL242602   1.245  13.869   5.895
 3240POPC   C1A42603   1.485  13.551   6.260
 3240POPC   D2A42604   1.595  13.316   6.604
 3240POPC   C3A42605   1.197  13.287   6.762
 3240POPC   C4A42606   1.131  13.370   7.171
 3240POPC   C1B42607   1.152  14.158   6.264
 3240POPC   C2B42608   1.116  14.124   6.718
 3240POPC   C3B42609   1.339  13.800   6.917
 3240POPC   C4B42610   1.563  13.904   7.240
 3241POPC   NC342611  26.899  35.384   5.405
 3241POPC   PO442612  26.308  35.036   5.685
 3241POPC   GL142613  26.689  35.275   5.890
 3241POPC   GL242614  26.935  35.583   5.872
 3241POPC   C1A42615  27.024  35.165   6.216
 3241POPC   D2A42616  27.058  35.318   6.673
 3241POPC   C3A42617  26.975  35.052   7.049
 3241POPC   C4A42618  27.237  34.992   7.420
 3241POPC   C1B42619  26.761  35.582   6.292
 3241POPC   C2B42620  26.574  35.818   6.582
 3241POPC   C3B42621  26.491  35.754   6.995
 3241POPC   C4B42622  26.814  35.517   7.154
 3242POPC   NC342623  15.223   4.626   5.585
 3242POPC   PO442624  14.945   3.951   5.503
 3242POPC   GL142625  15.121   4.057   5.839
 3242POPC   GL242626  15.448   4.142   5.764
 3242POPC   C1A42627  14.997   4.088   6.255
 3242POPC   D2A42628  15.085   4.417   6.567
 3242POPC   C3A42629  14.979   4.146   6.893
 3242POPC   C4A42630  14.789   4.100   7.244
 3242POPC   C1B42631  15.427   4.313   6.169
 3242POPC   C2B42632  15.491   4.118   6.567
 3242POPC   C3B42633  15.426   4.341   6.939
 3242POPC   C4B42634  15.133   4.535   7.233
 3243POPC   NC342635  28.920  27.031   5.527
 3243POPC   PO442636  29.507  26.499   5.560
 3243POPC   GL142637  29.289  26.761   5.841
 3243POPC   GL242638  28.963  26.669   5.879
 3243POPC   C1A42639  29.244  26.746   6.291
 3243POPC   D2A42640  29.005  26.805   6.652
 3243POPC   C3A42641  29.297  26.964   6.935
 3243POPC   C4A42642  29.509  27.009   7.314
 3243POPC   C1B42643  28.862  27.051   6.168
 3243POPC   C2B42644  28.663  27.174   6.572
 3243POPC   C3B42645  28.824  27.218   7.000
 3243POPC   C4B42646  28.969  26.948   7.329
 3244POPC   NC342647  30.379  40.185   5.494
 3244POPC   PO442648  31.023  40.360   5.592
 3244POPC   GL142649  30.908  40.125   5.936
 3244POPC   GL242650  30.543  40.129   5.974
 3244POPC   C1A42651  30.856  40.019   6.380
 3244POPC   D2A42652  30.991  40.133   6.758
 3244POPC   C3A42653  30.897  40.015   7.189
 3244POPC   C4A42654  30.701  40.221   7.528
 3244POPC   C1B42655  30.372  39.844   6.304
 3244POPC   C2B42656  30.301  39.674   6.708
 3244POPC   C3B42657  30.380  39.870   7.088
 3244POPC   C4B42658  30.204  40.047   7.464
 3245POPC   NC342659   1.708  23.245   5.307
 3245POPC   PO442660   1.784  23.940   5.411
 3245POPC   GL142661   1.925  23.718   5.770
 3245POPC   GL242662   2.018  23.357   5.760
 3245POPC   C1A42663   2.052  23.843   6.197
 3245POPC   D2A42664   2.064  23.777   6.642
 3245POPC   C3A42665   1.955  23.956   7.000
 3245POPC   C4A42666   2.194  23.770   7.298
 3245POPC   C1B42667   1.709  23.434   6.120
 3245POPC   C2B42668   1.588  23.752   6.443
 3245POPC   C3B42669   1.586  23.628   6.869
 3245POPC   C4B42670   1.709  23.595   7.301
 3246POPC   NC342671  30.812  38.856   5.426
 3246POPC   PO442672  30.558  39.452   5.165
 3246POPC   GL142673  30.710  39.307   5.647
 3246POPC   GL242674  31.076  39.410   5.711
 3246POPC   C1A42675  30.696  39.130   6.130
 3246POPC   D2A42676  30.947  39.018   6.555
 3246POPC   C3A42677  30.795  38.952   7.003
 3246POPC   C4A42678  30.366  38.944   7.132
 3246POPC   C1B42679  30.817  39.629   6.029
 3246POPC   C2B42680  30.769  39.523   6.449
 3246POPC   C3B42681  30.822  39.642   6.834
 3246POPC   C4B42682  30.607  39.413   7.084
 3247POPC   NC342683  11.744  44.476   5.435
 3247POPC   PO442684  11.170  44.840   5.479
 3247POPC   GL142685  11.502  44.775   5.788
 3247POPC   GL242686  11.454  44.411   5.855
 3247POPC   C1A42687  11.501  44.769   6.237
 3247POPC   D2A42688  11.284  44.640   6.570
 3247POPC   C3A42689  11.345  44.916   6.908
 3247POPC   C4A42690  11.203  44.789   7.246
 3247POPC   C1B42691  11.619  44.251   6.235
 3247POPC   C2B42692  11.704  44.290   6.654
 3247POPC   C3B42693  11.501  44.445   6.996
 3247POPC   C4B42694  11.423  44.328   7.386
 3248POPC   NC342695   1.078  14.066   5.435
 3248POPC   PO442696   1.464  14.561   5.452
 3248POPC   GL142697   1.333  14.386   5.825
 3248POPC   GL242698   0.984  14.408   5.799
 3248POPC   C1A42699   1.522  14.517   6.227
 3248POPC   D2A42700   1.612  14.332   6.627
 3248POPC   C3A42701   1.473  14.566   6.959
 3248POPC   C4A42702   1.261  14.315   7.209
 3248POPC   C1B42703   1.019  14.665   6.159
 3248POPC   C2B42704   1.129  14.607   6.574
 3248POPC   C3B42705   0.884  14.535   6.955
 3248POPC   C4B42706   0.637  14.549   7.318
 3249POPC   NC342707  32.118  31.985   5.385
 3249POPC   PO442708  32.536  31.400   5.377
 3249POPC   GL142709  32.304  31.400   5.762
 3249POPC   GL242710  32.099  31.680   5.821
 3249POPC   C1A42711  32.228  31.275   6.191
 3249POPC   D2A42712  32.091  31.476   6.562
 3249POPC   C3A42713  32.186  31.261   6.935
 3249POPC   C4A42714  32.342  31.341   7.320
 3249POPC   C1B42715  31.887  31.788   6.193
 3249POPC   C2B42716  31.779  31.886   6.571
 3249POPC   C3B42717  31.969  31.949   6.921
 3249POPC   C4B42718  32.005  31.724   7.285
 3250POPC   NC342719  19.327  17.226   5.618
 3250POPC   PO442720  18.896  17.699   5.300
 3250POPC   GL142721  18.996  17.670   5.783
 3250POPC   GL242722  19.096  17.349   6.041
 3250POPC   C1A42723  18.915  17.790   6.223
 3250POPC   D2A42724  18.825  17.503   6.566
 3250POPC   C3A42725  19.001  17.551   6.965
 3250POPC   C4A42726  19.049  17.500   7.441
 3250POPC   C1B42727  19.527  17.199   6.257
 3250POPC   C2B42728  19.568  17.134   6.741
 3250POPC   C3B42729  19.420  17.300   7.150
 3250POPC   C4B42730  19.457  17.224   7.627
 3251POPC   NC342731  34.516  36.020   5.266
 3251POPC   PO442732  34.968  36.513   5.425
 3251POPC   GL142733  34.636  36.277   5.709
 3251POPC   GL242734  34.249  36.398   5.744
 3251POPC   C1A42735  34.502  36.214   6.155
 3251POPC   D2A42736  34.507  35.933   6.513
 3251POPC   C3A42737  34.253  35.992   6.895
 3251POPC   C4A42738  34.583  36.107   7.177
 3251POPC   C1B42739  34.044  36.472   6.176
 3251POPC   C2B42740  34.227  36.387   6.594
 3251POPC   C3B42741  34.267  36.484   7.052
 3251POPC   C4B42742  34.524  36.634   7.400
 3252POPC   NC342743  22.629  18.299   5.306
 3252POPC   PO442744  23.205  18.519   5.494
 3252POPC   GL142745  22.981  18.447   5.866
 3252POPC   GL242746  22.793  18.181   5.769
 3252POPC   C1A42747  23.040  18.485   6.311
 3252POPC   D2A42748  22.822  18.428   6.678
 3252POPC   C3A42749  23.016  18.465   7.019
 3252POPC   C4A42750  23.293  18.370   7.289
 3252POPC   C1B42751  22.913  17.984   6.164
 3252POPC   C2B42752  22.883  17.936   6.608
 3252POPC   C3B42753  22.995  17.957   7.043
 3252POPC   C4B42754  22.800  18.077   7.423
 3253POPC   NC342755  30.730  10.522   5.146
 3253POPC   PO442756  31.449  10.541   5.209
 3253POPC   GL142757  31.366  10.596   5.660
 3253POPC   GL242758  31.567  10.387   5.893
 3253POPC   C1A42759  31.129  10.581   6.089
 3253POPC   D2A42760  30.995  10.597   6.541
 3253POPC   C3A42761  31.305  10.466   6.845
 3253POPC   C4A42762  31.514  10.506   7.235
 3253POPC   C1B42763  31.524  10.308   6.384
 3253POPC   C2B42764  31.854  10.147   6.705
 3253POPC   C3B42765  31.812  10.072   7.156
 3253POPC   C4B42766  31.649  10.175   7.615
 3254POPC   NC342767  41.177  22.399   5.397
 3254POPC   PO442768  41.350  21.768   5.616
 3254POPC   GL142769  41.345  21.952   5.965
 3254POPC   GL242770  41.471  22.240   5.828
 3254POPC   C1A42771  41.241  21.893   6.374
 3254POPC   D2A42772  41.344  22.074   6.732
 3254POPC   C3A42773  41.729  21.969   6.778
 3254POPC   C4A42774  41.868  21.993   7.146
 3254POPC   C1B42775  41.680  22.252   6.240
 3254POPC   C2B42776  41.688  22.467   6.632
 3254POPC   C3B42777  41.552  22.417   7.070
 3254POPC   C4B42778  41.898  22.493   7.331
 3255POPC   NC342779   9.255   4.439   5.510
 3255POPC   PO442780   8.670   4.111   5.563
 3255POPC   GL142781   8.891   4.328   5.858
 3255POPC   GL242782   9.104   4.021   5.913
 3255POPC   C1A42783   9.113   4.383   6.261
 3255POPC   D2A42784   8.939   4.316   6.673
 3255POPC   C3A42785   9.165   4.164   7.029
 3255POPC   C4A42786   9.189   4.493   7.324
 3255POPC   C1B42787   8.751   3.985   6.223
 3255POPC   C2B42788   8.545   4.007   6.614
 3255POPC   C3B42789   8.668   3.978   7.060
 3255POPC   C4B42790   8.594   4.096   7.515
 3256POPC   NC342791  24.161  17.949   5.518
 3256POPC   PO442792  24.550  17.440   5.203
 3256POPC   GL142793  24.530  17.388   5.679
 3256POPC   GL242794  24.395  17.655   5.851
 3256POPC   C1A42795  24.765  17.464   6.113
 3256POPC   D2A42796  24.674  17.329   6.523
 3256POPC   C3A42797  24.734  17.573   6.890
 3256POPC   C4A42798  24.667  17.427   7.290
 3256POPC   C1B42799  24.308  17.624   6.302
 3256POPC   C2B42800  24.211  17.661   6.756
 3256POPC   C3B42801  24.200  17.635   7.230
 3256POPC   C4B42802  24.323  17.818   7.639
 3257POPC   NC342803   2.345  41.550   5.545
 3257POPC   PO442804   2.939  41.296   5.429
 3257POPC   GL142805   2.812  41.484   5.795
 3257POPC   GL242806   2.959  41.205   5.944
 3257POPC   C1A42807   2.592  41.528   6.192
 3257POPC   D2A42808   2.469  41.337   6.578
 3257POPC   C3A42809   2.592  41.555   6.945
 3257POPC   C4A42810   2.517  41.464   7.384
 3257POPC   C1B42811   3.020  41.282   6.374
 3257POPC   C2B42812   2.998  41.706   6.531
 3257POPC   C3B42813   3.113  41.862   6.920
 3257POPC   C4B42814   3.026  41.591   7.276
 3258POPC   NC342815  44.782  14.913   5.551
 3258POPC   PO442816  44.446  15.452   5.457
 3258POPC   GL142817  44.530  15.262   5.840
 3258POPC   GL242818  44.886  15.294   5.861
 3258POPC   C1A42819  44.574  15.227   6.266
 3258POPC   D2A42820  44.600  15.026   6.608
 3258POPC   C3A42821  44.280  15.200   6.843
 3258POPC   C4A42822  44.343  15.156   7.255
 3258POPC   C1B42823   0.084  15.195   6.235
 3258POPC   C2B42824  44.968  15.381   6.627
 3258POPC   C3B42825  44.820  15.204   7.018
 3258POPC   C4B42826  44.772  14.813   7.116
 3259POPC   NC342827   0.901   0.049   5.082
 3259POPC   PO442828   0.564   0.473   5.442
 3259POPC   GL142829   0.388   0.601   5.805
 3259POPC   GL242830   0.681   0.823   5.874
 3259POPC   C1A42831   0.210   0.389   6.206
 3259POPC   D2A42832   0.444   0.186   6.571
 3259POPC   C3A42833   0.339   0.247   7.011
 3259POPC   C4A42834   0.631   0.311   7.343
 3259POPC   C1B42835   0.687   0.581   6.274
 3259POPC   C2B42836   0.604   0.640   6.727
 3259POPC   C3B42837   0.786   0.743   7.122
 3259POPC   C4B42838   0.780   0.831   7.546
 3260POPC   NC342839  22.491  20.812   5.551
 3260POPC   PO442840  22.107  20.288   5.457
 3260POPC   GL142841  21.997  20.547   5.814
 3260POPC   GL242842  22.038  20.932   5.800
 3260POPC   C1A42843  22.122  20.533   6.245
 3260POPC   D2A42844  22.168  20.333   6.631
 3260POPC   C3A42845  22.466  20.384   6.939
 3260POPC   C4A42846  22.084  20.566   7.122
 3260POPC   C1B42847  22.250  21.030   6.186
 3260POPC   C2B42848  22.398  20.820   6.557
 3260POPC   C3B42849  22.438  20.895   6.980
 3260POPC   C4B42850  22.306  21.068   7.404
 3261POPC   NC342851  40.585  23.126   5.457
 3261POPC   PO442852  41.247  22.865   5.404
 3261POPC   GL142853  40.974  22.961   5.766
 3261POPC   GL242854  40.991  23.328   5.737
 3261POPC   C1A42855  40.867  22.810   6.202
 3261POPC   D2A42856  40.680  22.648   6.592
 3261POPC   C3A42857  40.827  22.859   6.935
 3261POPC   C4A42858  40.713  22.948   7.308
 3261POPC   C1B42859  40.871  23.319   6.171
 3261POPC   C2B42860  40.695  23.188   6.572
 3261POPC   C3B42861  40.840  23.368   6.957
 3261POPC   C4B42862  41.068  23.297   7.309
 3262POPC   NC342863  36.717  14.708   5.281
 3262POPC   PO442864  36.984  14.062   5.402
 3262POPC   GL142865  36.804  14.211   5.760
 3262POPC   GL242866  36.830  14.555   5.757
 3262POPC   C1A42867  36.699  14.252   6.183
 3262POPC   D2A42868  36.573  14.100   6.594
 3262POPC   C3A42869  36.851  14.213   6.956
 3262POPC   C4A42870  37.007  14.090   7.360
 3262POPC   C1B42871  36.993  14.672   6.163
 3262POPC   C2B42872  36.823  14.589   6.583
 3262POPC   C3B42873  36.996  14.712   6.992
 3262POPC   C4B42874  37.203  14.900   7.332
 3263POPC   NC342875  44.761  17.338   5.312
 3263POPC   PO442876  44.198  17.633   5.523
 3263POPC   GL142877  44.533  17.403   5.814
 3263POPC   GL242878  44.893  17.223   5.784
 3263POPC   C1A42879  44.739  17.567   6.213
 3263POPC   D2A42880  44.658  17.645   6.651
 3263POPC   C3A42881  44.889  17.634   7.000
 3263POPC   C4A42882  44.500  17.746   7.192
 3263POPC   C1B42883  44.764  17.048   6.177
 3263POPC   C2B42884  44.512  17.181   6.487
 3263POPC   C3B42885  44.542  17.174   6.914
 3263POPC   C4B42886  44.651  17.275   7.291
 3264POPC   NC342887  25.093  15.570   5.442
 3264POPC   PO442888  25.596  15.064   5.294
 3264POPC   GL142889  25.350  15.159   5.637
 3264POPC   GL242890  25.136  14.891   5.689
 3264POPC   C1A42891  25.233  15.238   6.059
 3264POPC   D2A42892  25.272  15.255   6.498
 3264POPC   C3A42893  25.249  15.560   6.841
 3264POPC   C4A42894  25.362  15.456   7.279
 3264POPC   C1B42895  25.061  14.759   6.138
 3264POPC   C2B42896  24.932  14.879   6.572
 3264POPC   C3B42897  25.101  15.063   6.983
 3264POPC   C4B42898  24.854  15.385   7.250
 3265POPC   NC342899   8.338  14.430   5.292
 3265POPC   PO442900   7.746  14.461   5.201
 3265POPC   GL142901   7.979  14.470   5.663
 3265POPC   GL242902   7.871  14.251   5.894
 3265POPC   C1A42903   8.254  14.510   6.088
 3265POPC   D2A42904   8.403  14.249   6.472
 3265POPC   C3A42905   8.359  14.396   6.908
 3265POPC   C4A42906   8.356  14.239   7.339
 3265POPC   C1B42907   8.002  14.055   6.228
 3265POPC   C2B42908   7.935  14.165   6.663
 3265POPC   C3B42909   7.898  14.018   7.064
 3265POPC   C4B42910   7.890  14.060   7.494
 3266POPC   NC342911  35.652  34.775   5.539
 3266POPC   PO442912  35.065  34.342   5.449
 3266POPC   GL142913  35.268  34.506   5.800
 3266POPC   GL242914  35.579  34.329   5.931
 3266POPC   C1A42915  35.156  34.735   6.190
 3266POPC   D2A42916  35.326  34.840   6.604
 3266POPC   C3A42917  35.086  34.823   6.997
 3266POPC   C4A42918  35.350  34.699   7.345
 3266POPC   C1B42919  35.183  34.214   6.182
 3266POPC   C2B42920  35.070  34.386   6.582
 3266POPC   C3B42921  35.377  34.409   6.893
 3266POPC   C4B42922  35.416  34.197   7.240
 3267POPC   NC342923  39.367  16.327   5.491
 3267POPC   PO442924  38.973  15.827   5.519
 3267POPC   GL142925  39.314  15.836   5.833
 3267POPC   GL242926  39.555  16.144   5.917
 3267POPC   C1A42927  39.158  15.739   6.226
 3267POPC   D2A42928  39.098  15.989   6.585
 3267POPC   C3A42929  39.238  15.862   6.977
 3267POPC   C4A42930  39.208  16.142   7.315
 3267POPC   C1B42931  39.572  16.015   6.331
 3267POPC   C2B42932  39.552  16.239   6.719
 3267POPC   C3B42933  39.683  16.118   7.118
 3267POPC   C4B42934  39.583  15.745   7.347
 3268POPC   NC342935  41.113   2.083   5.604
 3268POPC   PO442936  41.551   1.711   5.150
 3268POPC   GL142937  41.607   1.954   5.676
 3268POPC   GL242938  41.610   1.796   6.018
 3268POPC   C1A42939  41.546   2.272   6.091
 3268POPC   D2A42940  41.661   2.281   6.541
 3268POPC   C3A42941  41.403   2.049   6.807
 3268POPC   C4A42942  41.446   2.116   7.229
 3268POPC   C1B42943  41.563   1.562   6.373
 3268POPC   C2B42944  41.632   1.487   6.775
 3268POPC   C3B42945  41.511   1.628   7.136
 3268POPC   C4B42946  41.709   1.744   7.485
 3269POPC   NC342947   6.803  29.674   5.725
 3269POPC   PO442948   6.843  30.287   5.340
 3269POPC   GL142949   6.579  30.348   5.806
 3269POPC   GL242950   6.462  30.010   5.902
 3269POPC   C1A42951   6.641  30.241   6.303
 3269POPC   D2A42952   6.707  29.864   6.538
 3269POPC   C3A42953   6.692  30.054   6.930
 3269POPC   C4A42954   6.862  30.046   7.299
 3269POPC   C1B42955   6.290  29.740   6.234
 3269POPC   C2B42956   6.303  29.439   6.583
 3269POPC   C3B42957   6.518  29.566   6.930
 3269POPC   C4B42958   6.474  29.710   7.328
 3270POPC   NC342959  40.010  39.379   5.274
 3270POPC   PO442960  40.115  38.887   5.848
 3270POPC   GL142961  39.997  39.288   5.872
 3270POPC   GL242962  40.264  39.461   5.704
 3270POPC   C1A42963  39.946  39.371   6.335
 3270POPC   D2A42964  39.951  39.666   6.666
 3270POPC   C3A42965  39.968  39.339   6.946
 3270POPC   C4A42966  39.832  39.288   7.346
 3270POPC   C1B42967  40.313  39.614   6.113
 3270POPC   C2B42968  40.433  39.467   6.530
 3270POPC   C3B42969  40.414  39.621   6.927
 3270POPC   C4B42970  40.319  39.441   7.303
 3271POPC   NC342971  40.988  35.941   5.528
 3271POPC   PO442972  40.588  36.513   5.404
 3271POPC   GL142973  40.586  36.211   5.773
 3271POPC   GL242974  40.919  36.216   5.946
 3271POPC   C1A42975  40.539  35.954   6.147
 3271POPC   D2A42976  40.485  36.171   6.529
 3271POPC   C3A42977  40.601  36.020   6.905
 3271POPC   C4A42978  40.843  36.035   7.239
 3271POPC   C1B42979  40.972  36.222   6.383
 3271POPC   C2B42980  41.105  36.030   6.756
 3271POPC   C3B42981  41.300  36.219   7.079
 3271POPC   C4B42982  41.199  36.422   7.451
 3272POPC   NC342983  10.256  33.548   5.450
 3272POPC   PO442984  10.754  34.081   5.576
 3272POPC   GL142985  10.437  33.884   5.821
 3272POPC   GL242986  10.585  33.537   5.816
 3272POPC   C1A42987  10.397  33.940   6.266
 3272POPC   D2A42988  10.620  33.926   6.657
 3272POPC   C3A42989  10.435  33.928   7.068
 3272POPC   C4A42990  10.838  33.778   7.258
 3272POPC   C1B42991  10.411  33.420   6.198
 3272POPC   C2B42992  10.307  33.485   6.607
 3272POPC   C3B42993  10.515  33.439   6.991
 3272POPC   C4B42994  10.405  33.561   7.435
 3273POPC   NC342995   1.787  29.639   5.568
 3273POPC   PO442996   2.372  30.042   5.438
 3273POPC   GL142997   2.062  30.096   5.778
 3273POPC   GL242998   2.093  29.777   5.959
 3273POPC   C1A42999   1.836  30.135   6.190
 3273POPC   D2A43000   2.146  30.076   6.559
 3273POPC   C3A43001   1.988  30.056   6.997
 3273POPC   C4A43002   1.560  30.212   7.138
 3273POPC   C1B43003   1.864  29.655   6.361
 3273POPC   C2B43004   1.828  29.376   6.705
 3273POPC   C3B43005   2.167  29.400   6.972
 3273POPC   C4B43006   2.262  29.628   7.321
 3274POPC   NC343007  43.463  25.785   5.451
 3274POPC   PO443008  43.116  26.335   5.436
 3274POPC   GL143009  43.086  26.067   5.856
 3274POPC   GL243010  43.407  25.878   5.945
 3274POPC   C1A43011  43.052  26.058   6.351
 3274POPC   D2A43012  43.098  26.366   6.712
 3274POPC   C3A43013  43.191  26.223   7.137
 3274POPC   C4A43014  42.928  26.237   7.475
 3274POPC   C1B43015  43.355  25.637   6.315
 3274POPC   C2B43016  43.125  25.618   6.697
 3274POPC   C3B43017  43.211  25.703   7.115
 3274POPC   C4B43018  43.166  25.737   7.543
 3275POPC   NC343019  41.246  18.375   5.471
 3275POPC   PO443020  41.845  18.289   5.379
 3275POPC   GL143021  41.757  18.412   5.785
 3275POPC   GL243022  41.504  18.158   5.861
 3275POPC   C1A43023  41.851  18.282   6.223
 3275POPC   D2A43024  41.571  18.187   6.574
 3275POPC   C3A43025  41.702  18.159   7.024
 3275POPC   C4A43026  41.832  18.569   7.166
 3275POPC   C1B43027  41.298  18.397   6.176
 3275POPC   C2B43028  41.059  18.307   6.532
 3275POPC   C3B43029  41.224  18.324   6.939
 3275POPC   C4B43030  41.054  18.165   7.294
 3276POPC   NC343031  43.604  16.412   5.671
 3276POPC   PO443032  44.101  16.098   5.308
 3276POPC   GL143033  44.152  15.974   5.767
 3276POPC   GL243034  44.128  15.609   5.865
 3276POPC   C1A43035  43.917  15.997   6.183
 3276POPC   D2A43036  43.770  16.108   6.606
 3276POPC   C3A43037  43.893  15.932   6.984
 3276POPC   C4A43038  43.652  15.804   7.321
 3276POPC   C1B43039  44.336  15.682   6.218
 3276POPC   C2B43040  44.320  15.741   6.633
 3276POPC   C3B43041  44.399  15.860   7.033
 3276POPC   C4B43042  44.157  15.668   7.346
 3277POPC   NC343043  28.417  18.896   5.513
 3277POPC   PO443044  27.854  18.533   5.524
 3277POPC   GL143045  28.001  18.823   5.775
 3277POPC   GL243046  28.071  19.194   5.794
 3277POPC   C1A43047  28.272  18.820   6.126
 3277POPC   D2A43048  28.224  18.934   6.502
 3277POPC   C3A43049  28.394  18.673   6.811
 3277POPC   C4A43050  28.352  18.679   7.258
 3277POPC   C1B43051  28.136  19.386   6.222
 3277POPC   C2B43052  28.209  19.432   6.682
 3277POPC   C3B43053  28.332  19.375   7.121
 3277POPC   C4B43054  28.566  19.253   7.485
 3278POPC   NC343055  24.846  42.368   5.399
 3278POPC   PO443056  24.227  42.100   5.445
 3278POPC   GL143057  24.435  42.237   5.841
 3278POPC   GL243058  24.744  42.114   5.844
 3278POPC   C1A43059  24.377  42.543   6.223
 3278POPC   D2A43060  24.654  42.602   6.552
 3278POPC   C3A43061  24.465  42.518   6.938
 3278POPC   C4A43062  24.652  42.596   7.328
 3278POPC   C1B43063  24.602  42.084   6.303
 3278POPC   C2B43064  24.618  41.971   6.762
 3278POPC   C3B43065  24.686  42.116   7.172
 3278POPC   C4B43066  24.379  42.161   7.485
 3279POPC   NC343067  42.288  35.579   5.458
 3279POPC   PO443068  41.780  35.253   5.225
 3279POPC   GL143069  42.016  35.248   5.750
 3279POPC   GL243070  42.356  35.443   5.918
 3279POPC   C1A43071  42.213  35.070   6.194
 3279POPC   D2A43072  42.341  35.305   6.540
 3279POPC   C3A43073  42.318  35.103   6.908
 3279POPC   C4A43074  42.289  35.076   7.333
 3279POPC   C1B43075  42.404  35.738   6.256
 3279POPC   C2B43076  42.651  35.684   6.649
 3279POPC   C3B43077  42.627  35.471   7.060
 3279POPC   C4B43078  42.332  35.564   7.394
 3280POPC   NC343079  27.808   0.291   5.327
 3280POPC   PO443080  27.104   0.347   5.465
 3280POPC   GL143081  27.472   0.270   5.749
 3280POPC   GL243082  27.771   0.541   5.762
 3280POPC   C1A43083  27.590   0.286   6.189
 3280POPC   D2A43084  27.489   0.127   6.594
 3280POPC   C3A43085  27.537   0.374   6.964
 3280POPC   C4A43086  27.777   0.273   7.295
 3280POPC   C1B43087  28.047   0.633   6.118
 3280POPC   C2B43088  28.181   0.487   6.509
 3280POPC   C3B43089  28.007   0.656   6.889
 3280POPC   C4B43090  28.081   0.655   7.312
 3281POPC   NC343091   3.703  42.634   5.441
 3281POPC   PO443092   3.236  42.230   5.631
 3281POPC   GL143093   3.396  42.029   5.975
 3281POPC   GL243094   3.728  42.024   5.755
 3281POPC   C1A43095   3.217  42.170   6.404
 3281POPC   D2A43096   3.228  42.606   6.543
 3281POPC   C3A43097   3.399  42.735   6.933
 3281POPC   C4A43098   3.355  42.542   7.328
 3281POPC   C1B43099   3.839  42.253   6.134
 3281POPC   C2B43100   3.682  42.377   6.538
 3281POPC   C3B43101   3.494  42.232   6.908
 3281POPC   C4B43102   3.787  42.249   7.230
 3282POPC   NC343103  20.039  22.822   5.403
 3282POPC   PO443104  19.413  23.037   5.376
 3282POPC   GL143105  19.735  22.985   5.783
 3282POPC   GL243106  20.106  23.057   5.935
 3282POPC   C1A43107  19.864  22.684   6.151
 3282POPC   D2A43108  19.719  22.777   6.550
 3282POPC   C3A43109  19.886  22.833   6.938
 3282POPC   C4A43110  19.674  22.935   7.306
 3282POPC   C1B43111  19.881  23.198   6.276
 3282POPC   C2B43112  19.966  23.340   6.701
 3282POPC   C3B43113  20.041  23.288   7.131
 3282POPC   C4B43114  19.671  23.440   7.373
 3283POPC   NC343115  20.366  17.633   5.434
 3283POPC   PO443116  20.876  17.148   5.232
 3283POPC   GL143117  20.642  17.213   5.654
 3283POPC   GL243118  20.796  17.519   5.774
 3283POPC   C1A43119  20.507  17.248   6.120
 3283POPC   D2A43120  20.336  17.412   6.526
 3283POPC   C3A43121  20.510  17.353   6.950
 3283POPC   C4A43122  20.355  17.627   7.274
 3283POPC   C1B43123  20.918  17.612   6.208
 3283POPC   C2B43124  20.775  17.692   6.629
 3283POPC   C3B43125  20.937  17.691   7.036
 3283POPC   C4B43126  20.819  17.449   7.368
 3284POPC   NC343127  34.062  22.269   5.317
 3284POPC   PO443128  33.393  22.467   5.396
 3284POPC   GL143129  33.556  22.155   5.705
 3284POPC   GL243130  33.886  22.004   5.741
 3284POPC   C1A43131  33.557  22.107   6.168
 3284POPC   D2A43132  33.623  22.177   6.628
 3284POPC   C3A43133  33.653  21.882   6.985
 3284POPC   C4A43134  33.502  22.193   7.257
 3284POPC   C1B43135  33.884  21.736   6.137
 3284POPC   C2B43136  33.980  21.825   6.575
 3284POPC   C3B43137  34.097  22.137   6.925
 3284POPC   C4B43138  34.115  22.039   7.381
 3285POPC   NC343139  10.986  40.995   5.416
 3285POPC   PO443140  11.517  40.508   5.477
 3285POPC   GL143141  11.232  40.672   5.753
 3285POPC   GL243142  11.486  40.907   5.831
 3285POPC   C1A43143  11.199  40.592   6.203
 3285POPC   D2A43144  11.407  40.285   6.496
 3285POPC   C3A43145  11.424  40.429   6.932
 3285POPC   C4A43146  11.244  40.550   7.322
 3285POPC   C1B43147  11.495  41.056   6.254
 3285POPC   C2B43148  11.398  40.854   6.635
 3285POPC   C3B43149  11.304  40.979   7.061
 3285POPC   C4B43150  11.412  41.024   7.535
 3286POPC   NC343151  26.492  28.955   5.093
 3286POPC   PO443152  26.891  29.396   5.401
 3286POPC   GL143153  26.949  29.176   5.813
 3286POPC   GL243154  27.299  29.273   5.934
 3286POPC   C1A43155  26.671  29.009   6.192
 3286POPC   D2A43156  26.493  28.817   6.583
 3286POPC   C3A43157  26.641  28.986   6.953
 3286POPC   C4A43158  26.713  28.947   7.356
 3286POPC   C1B43159  27.057  29.335   6.292
 3286POPC   C2B43160  26.800  29.351   6.641
 3286POPC   C3B43161  26.948  29.434   7.071
 3286POPC   C4B43162  27.288  29.306   7.351
 3287POPC   NC343163  12.494  27.166   5.440
 3287POPC   PO443164  13.089  26.817   5.387
 3287POPC   GL143165  12.902  26.987   5.730
 3287POPC   GL243166  12.654  26.720   5.740
 3287POPC   C1A43167  13.036  27.117   6.144
 3287POPC   D2A43168  13.155  26.850   6.498
 3287POPC   C3A43169  13.048  26.846   6.959
 3287POPC   C4A43170  12.850  26.637   7.369
 3287POPC   C1B43171  12.651  26.806   6.186
 3287POPC   C2B43172  12.673  26.651   6.596
 3287POPC   C3B43173  12.554  26.818   6.993
 3287POPC   C4B43174  12.680  27.085   7.334
 3288POPC   NC343175  40.598  28.527   5.267
 3288POPC   PO443176  40.975  28.025   5.399
 3288POPC   GL143177  40.877  28.358   5.693
 3288POPC   GL243178  40.515  28.429   5.774
 3288POPC   C1A43179  40.998  28.541   6.085
 3288POPC   D2A43180  40.701  28.476   6.404
 3288POPC   C3A43181  40.813  28.401   6.822
 3288POPC   C4A43182  40.928  28.512   7.220
 3288POPC   C1B43183  40.346  28.761   6.073
 3288POPC   C2B43184  40.299  28.759   6.540
 3288POPC   C3B43185  40.400  28.870   6.983
 3288POPC   C4B43186  40.306  28.660   7.344
 3289POPC   NC343187  12.480   2.909   5.387
 3289POPC   PO443188  12.987   2.615   5.585
 3289POPC   GL143189  12.804   2.746   5.903
 3289POPC   GL243190  12.542   2.546   5.828
 3289POPC   C1A43191  12.965   2.658   6.311
 3289POPC   D2A43192  12.826   2.570   6.718
 3289POPC   C3A43193  12.826   2.928   7.012
 3289POPC   C4A43194  13.004   2.930   7.464
 3289POPC   C1B43195  12.557   2.364   6.216
 3289POPC   C2B43196  12.435   2.195   6.601
 3289POPC   C3B43197  12.421   2.416   6.995
 3289POPC   C4B43198  12.791   2.495   7.242
 3290POPC   NC343199  36.408   6.327   5.307
 3290POPC   PO443200  35.987   6.846   5.378
 3290POPC   GL143201  36.092   6.948   5.811
 3290POPC   GL243202  36.173   6.600   5.902
 3290POPC   C1A43203  35.905   6.972   6.231
 3290POPC   D2A43204  35.857   6.758   6.632
 3290POPC   C3A43205  35.895   6.928   7.048
 3290POPC   C4A43206  35.993   6.662   7.402
 3290POPC   C1B43207  36.401   6.369   6.240
 3290POPC   C2B43208  36.412   6.178   6.658
 3290POPC   C3B43209  36.307   6.419   7.036
 3290POPC   C4B43210  36.318   6.283   7.462
 3291POPC   NC343211   0.044   0.253   5.535
 3291POPC   PO443212   0.101   0.933   5.373
 3291POPC   GL143213  44.896   0.792   5.759
 3291POPC   GL243214  44.626   0.546   5.704
 3291POPC   C1A43215  44.738   0.761   6.190
 3291POPC   D2A43216  44.724   0.388   6.466
 3291POPC   C3A43217  44.872   0.431   6.890
 3291POPC   C4A43218  44.755   0.696   7.228
 3291POPC   C1B43219  44.361   0.412   6.062
 3291POPC   C2B43220  44.276   0.651   6.421
 3291POPC   C3B43221  44.349   0.495   6.830
 3291POPC   C4B43222  44.255   0.605   7.225
 3292POPC   NC343223  14.472  37.800   5.380
 3292POPC   PO443224  14.087  37.305   5.663
 3292POPC   GL143225  14.218  37.716   5.866
 3292POPC   GL243226  14.602  37.823   5.885
 3292POPC   C1A43227  14.310  37.764   6.303
 3292POPC   D2A43228  14.491  37.535   6.605
 3292POPC   C3A43229  14.352  37.742   6.949
 3292POPC   C4A43230  14.477  37.571   7.331
 3292POPC   C1B43231  14.835  37.830   6.310
 3292POPC   C2B43232  14.807  37.930   6.770
 3292POPC   C3B43233  14.759  37.996   7.232
 3292POPC   C4B43234  14.603  37.888   7.682
 3293POPC   NC343235  29.729  10.227   5.509
 3293POPC   PO443236  30.282  10.621   5.284
 3293POPC   GL143237  30.158  10.514   5.792
 3293POPC   GL243238  29.807  10.409   5.988
 3293POPC   C1A43239  30.228  10.481   6.238
 3293POPC   D2A43240  29.860  10.588   6.517
 3293POPC   C3A43241  29.906  10.691   6.924
 3293POPC   C4A43242  30.232  10.664   7.167
 3293POPC   C1B43243  29.862  10.123   6.349
 3293POPC   C2B43244  29.907  10.197   6.819
 3293POPC   C3B43245  29.819  10.314   7.259
 3293POPC   C4B43246  29.632  10.302   7.663
 3294POPC   NC343247  44.805   9.426   5.501
 3294POPC   PO443248  44.520  10.082   5.476
 3294POPC   GL143249  44.542   9.804   5.831
 3294POPC   GL243250  44.319   9.506   5.782
 3294POPC   C1A43251  44.602   9.857   6.278
 3294POPC   D2A43252  44.361   9.956   6.647
 3294POPC   C3A43253  44.588   9.946   7.047
 3294POPC   C4A43254  44.927   9.674   7.140
 3294POPC   C1B43255  44.591   9.355   6.119
 3294POPC   C2B43256  44.648   9.267   6.535
 3294POPC   C3B43257  44.805   9.220   6.941
 3294POPC   C4B43258  44.659   9.273   7.352
 3295POPC   NC343259  22.245  13.058   5.423
 3295POPC   PO443260  22.121  12.395   5.219
 3295POPC   GL143261  22.003  12.671   5.669
 3295POPC   GL243262  22.286  12.786   5.879
 3295POPC   C1A43263  21.869  12.977   6.091
 3295POPC   D2A43264  21.982  13.199   6.537
 3295POPC   C3A43265  21.951  12.945   6.952
 3295POPC   C4A43266  21.969  12.596   7.279
 3295POPC   C1B43267  22.240  12.734   6.334
 3295POPC   C2B43268  22.378  12.899   6.682
 3295POPC   C3B43269  22.428  12.778   7.081
 3295POPC   C4B43270  22.410  12.783   7.510
 3296POPC   NC343271   0.032  27.542   5.534
 3296POPC   PO443272  44.270  27.423   5.491
 3296POPC   GL143273  44.603  27.414   5.781
 3296POPC   GL243274  44.676  27.709   5.973
 3296POPC   C1A43275  44.793  27.251   6.170
 3296POPC   D2A43276  44.732  27.431   6.579
 3296POPC   C3A43277  44.856  27.218   6.940
 3296POPC   C4A43278  44.880  27.420   7.296
 3296POPC   C1B43279  44.507  27.883   6.376
 3296POPC   C2B43280  44.527  28.007   6.794
 3296POPC   C3B43281  44.747  27.992   7.145
 3296POPC   C4B43282   0.105  27.897   7.401
 3297POPC   NC343283   0.071   3.550   5.429
 3297POPC   PO443284  44.475   3.591   5.460
 3297POPC   GL143285  44.684   3.527   5.831
 3297POPC   GL243286  44.497   3.208   5.835
 3297POPC   C1A43287  44.815   3.678   6.263
 3297POPC   D2A43288  44.844   3.859   6.680
 3297POPC   C3A43289  44.957   3.492   6.942
 3297POPC   C4A43290  44.811   3.473   7.349
 3297POPC   C1B43291  44.365   3.402   6.226
 3297POPC   C2B43292  44.520   3.421   6.650
 3297POPC   C3B43293  44.418   3.339   7.072
 3297POPC   C4B43294  44.417   3.164   7.480
 3298POPC   NC343295  14.237   7.746   5.377
 3298POPC   PO443296  14.649   8.381   5.480
 3298POPC   GL143297  14.448   8.276   5.843
 3298POPC   GL243298  14.670   8.111   6.071
 3298POPC   C1A43299  14.171   8.279   6.210
 3298POPC   D2A43300  14.203   8.466   6.643
 3298POPC   C3A43301  14.255   8.160   6.996
 3298POPC   C4A43302  14.329   8.063   7.421
 3298POPC   C1B43303  14.612   8.552   6.272
 3298POPC   C2B43304  14.690   8.660   6.725
 3298POPC   C3B43305  14.604   8.520   7.177
 3298POPC   C4B43306  14.659   8.412   7.631
 3299POPC   NC343307  14.492  38.730   5.460
 3299POPC   PO443308  14.175  38.163   5.349
 3299POPC   GL143309  14.364  38.290   5.750
 3299POPC   GL243310  14.233  38.625   5.893
 3299POPC   C1A43311  14.489  38.247   6.190
 3299POPC   D2A43312  14.389  38.495   6.559
 3299POPC   C3A43313  14.414  38.270   6.952
 3299POPC   C4A43314  14.257  38.054   7.330
 3299POPC   C1B43315  14.605  38.755   6.136
 3299POPC   C2B43316  14.788  38.846   6.535
 3299POPC   C3B43317  14.593  38.811   6.932
 3299POPC   C4B43318  14.743  38.539   7.217
 3300POPC   NC343319   0.633  34.544   5.094
 3300POPC   PO443320   0.179  34.524   5.565
 3300POPC   GL143321   0.235  34.430   5.945
 3300POPC   GL243322   0.563  34.309   5.940
 3300POPC   C1A43323   0.300  34.816   6.150
 3300POPC   D2A43324   0.395  34.971   6.525
 3300POPC   C3A43325   0.460  34.698   6.871
 3300POPC   C4A43326   0.336  34.987   7.193
 3300POPC   C1B43327   0.501  34.428   6.402
 3300POPC   C2B43328   0.209  34.228   6.689
 3300POPC   C3B43329   0.218  34.207   7.127
 3300POPC   C4B43330   0.456  34.501   7.348
 3301POPC   NC343331  21.758  44.161   5.261
 3301POPC   PO443332  21.226  43.637   5.384
 3301POPC   GL143333  21.204  43.761   5.835
 3301POPC   GL243334  21.532  43.918   5.863
 3301POPC   C1A43335  21.304  43.700   6.300
 3301POPC   D2A43336  21.571  43.844   6.688
 3301POPC   C3A43337  21.280  43.851   7.038
 3301POPC   C4A43338  21.239  43.756   7.469
 3301POPC   C1B43339  21.573  44.174   6.252
 3301POPC   C2B43340  21.589  44.383   6.652
 3301POPC   C3B43341  21.589  44.260   7.074
 3301POPC   C4B43342  21.674  43.978   7.385
 3302POPC   NC343343  28.042  10.735   5.738
 3302POPC   PO443344  28.665  10.579   5.477
 3302POPC   GL143345  28.677  10.352   5.877
 3302POPC   GL243346  28.298  10.338   5.949
 3302POPC   C1A43347  28.665  10.302   6.309
 3302POPC   D2A43348  28.644  10.603   6.644
 3302POPC   C3A43349  28.505  10.385   7.014
 3302POPC   C4A43350  28.286  10.516   7.334
 3302POPC   C1B43351  28.214  10.549   6.341
 3302POPC   C2B43352  28.152  10.648   6.755
 3302POPC   C3B43353  27.935  10.773   7.088
 3302POPC   C4B43354  28.148  11.033   7.386
 3303POPC   NC343355  20.272  21.681   5.563
 3303POPC   PO443356  19.725  21.259   5.410
 3303POPC   GL143357  19.744  21.326   5.811
 3303POPC   GL243358  20.072  21.281   5.849
 3303POPC   C1A43359  19.660  21.381   6.217
 3303POPC   D2A43360  19.834  21.251   6.582
 3303POPC   C3A43361  19.652  21.459   6.894
 3303POPC   C4A43362  19.720  21.267   7.257
 3303POPC   C1B43363  20.183  21.503   6.234
 3303POPC   C2B43364  20.105  21.690   6.648
 3303POPC   C3B43365  20.114  21.595   7.062
 3303POPC   C4B43366  20.248  21.201   7.213
 3304POPC   NC343367   5.049  30.742   5.363
 3304POPC   PO443368   5.550  30.269   5.568
 3304POPC   GL143369   5.318  30.421   5.929
 3304POPC   GL243370   5.012  30.567   5.866
 3304POPC   C1A43371   5.247  30.722   6.293
 3304POPC   D2A43372   4.902  30.832   6.592
 3304POPC   C3A43373   4.996  30.731   7.012
 3304POPC   C4A43374   5.278  30.450   7.167
 3304POPC   C1B43375   4.908  30.336   6.277
 3304POPC   C2B43376   4.786  30.350   6.716
 3304POPC   C3B43377   4.793  30.273   7.155
 3304POPC   C4B43378   4.983  30.301   7.585
 3305POPC   NC343379  15.783  33.419   5.349
 3305POPC   PO443380  16.029  34.088   5.344
 3305POPC   GL143381  15.931  33.837   5.703
 3305POPC   GL243382  15.635  34.012   5.790
 3305POPC   C1A43383  16.010  33.630   6.114
 3305POPC   D2A43384  16.104  33.501   6.546
 3305POPC   C3A43385  15.804  33.593   6.858
 3305POPC   C4A43386  16.020  33.576   7.248
 3305POPC   C1B43387  15.941  34.152   6.118
 3305POPC   C2B43388  15.967  33.998   6.540
 3305POPC   C3B43389  15.828  34.124   6.942
 3305POPC   C4B43390  15.651  33.897   7.274
 3306POPC   NC343391  32.205  39.585   5.489
 3306POPC   PO443392  32.636  40.034   5.335
 3306POPC   GL143393  32.442  40.020   5.782
 3306POPC   GL243394  32.391  39.691   5.964
 3306POPC   C1A43395  32.264  40.094   6.236
 3306POPC   D2A43396  32.171  39.859   6.636
 3306POPC   C3A43397  32.077  40.120   7.039
 3306POPC   C4A43398  32.266  40.073   7.470
 3306POPC   C1B43399  31.934  39.693   6.130
 3306POPC   C2B43400  31.759  39.550   6.534
 3306POPC   C3B43401  31.784  39.702   6.952
 3306POPC   C4B43402  31.911  39.709   7.357
 3307POPC   NC343403  37.445  31.152   5.395
 3307POPC   PO443404  37.743  31.722   5.165
 3307POPC   GL143405  37.679  31.548   5.650
 3307POPC   GL243406  37.747  31.170   5.791
 3307POPC   C1A43407  37.563  31.524   6.114
 3307POPC   D2A43408  37.745  31.388   6.510
 3307POPC   C3A43409  37.725  31.632   6.908
 3307POPC   C4A43410  37.609  31.482   7.316
 3307POPC   C1B43411  38.017  31.075   6.145
 3307POPC   C2B43412  38.185  31.157   6.558
 3307POPC   C3B43413  37.910  31.156   6.931
 3307POPC   C4B43414  37.947  31.029   7.293
 3308POPC   NC343415  32.889  11.788   5.322
 3308POPC   PO443416  33.134  12.411   5.314
 3308POPC   GL143417  33.289  12.089   5.623
 3308POPC   GL243418  33.442  12.293   5.873
 3308POPC   C1A43419  33.104  11.941   6.038
 3308POPC   D2A43420  32.805  11.720   6.350
 3308POPC   C3A43421  32.907  11.804   6.801
 3308POPC   C4A43422  32.803  12.141   7.088
 3308POPC   C1B43423  33.399  12.329   6.320
 3308POPC   C2B43424  33.226  12.249   6.748
 3308POPC   C3B43425  33.260  12.311   7.209
 3308POPC   C4B43426  33.411  12.555   7.594
 3309POPC   NC343427  24.024  24.013   5.244
 3309POPC   PO443428  23.776  24.619   5.428
 3309POPC   GL143429  23.849  24.714   5.872
 3309POPC   GL243430  23.697  24.466   6.035
 3309POPC   C1A43431  24.111  24.626   6.268
 3309POPC   D2A43432  24.079  24.647   6.715
 3309POPC   C3A43433  23.711  24.455   6.877
 3309POPC   C4A43434  23.289  24.521   7.016
 3309POPC   C1B43435  23.888  24.158   6.340
 3309POPC   C2B43436  23.939  23.988   6.762
 3309POPC   C3B43437  23.938  24.111   7.200
 3309POPC   C4B43438  23.930  24.227   7.658
 3310POPC   NC343439  37.212  27.681   5.529
 3310POPC   PO443440  36.687  27.389   5.324
 3310POPC   GL143441  36.804  27.362   5.798
 3310POPC   GL243442  37.146  27.367   5.951
 3310POPC   C1A43443  36.701  27.583   6.194
 3310POPC   D2A43444  36.916  27.725   6.582
 3310POPC   C3A43445  36.651  27.682   6.958
 3310POPC   C4A43446  36.673  27.777   7.400
 3310POPC   C1B43447  37.040  27.264   6.406
 3310POPC   C2B43448  36.968  27.279   6.862
 3310POPC   C3B43449  37.148  27.485   7.230
 3310POPC   C4B43450  37.306  27.212   7.555
 3311POPC   NC343451  14.753  33.908   5.368
 3311POPC   PO443452  14.352  33.402   5.576
 3311POPC   GL143453  14.411  33.666   5.890
 3311POPC   GL243454  14.146  33.912   5.957
 3311POPC   C1A43455  14.335  33.583   6.335
 3311POPC   D2A43456  14.263  33.683   6.768
 3311POPC   C3A43457  14.530  33.660   7.118
 3311POPC   C4A43458  14.142  33.606   7.320
 3311POPC   C1B43459  14.502  34.052   6.220
 3311POPC   C2B43460  14.570  34.069   6.674
 3311POPC   C3B43461  14.313  34.146   7.060
 3311POPC   C4B43462  14.453  34.138   7.486
 3312POPC   NC343463   9.627  12.817   5.353
 3312POPC   PO443464  10.096  12.362   5.454
 3312POPC   GL143465  10.019  12.704   5.788
 3312POPC   GL243466   9.699  12.901   5.865
 3312POPC   C1A43467   9.974  12.696   6.246
 3312POPC   D2A43468   9.906  12.530   6.674
 3312POPC   C3A43469   9.945  12.828   7.043
 3312POPC   C4A43470   9.841  12.814   7.537
 3312POPC   C1B43471   9.631  13.111   6.288
 3312POPC   C2B43472   9.558  13.049   6.751
 3312POPC   C3B43473   9.483  12.969   7.226
 3312POPC   C4B43474   9.463  13.110   7.709
 3313POPC   NC343475  21.045   8.423   5.514
 3313POPC   PO443476  20.342   8.250   5.394
 3313POPC   GL143477  20.364   8.377   5.796
 3313POPC   GL243478  20.333   8.007   5.886
 3313POPC   C1A43479  20.542   8.502   6.181
 3313POPC   D2A43480  20.571   8.216   6.521
 3313POPC   C3A43481  20.629   8.366   6.931
 3313POPC   C4A43482  20.699   8.497   7.375
 3313POPC   C1B43483  20.346   7.758   6.281
 3313POPC   C2B43484  20.574   7.718   6.685
 3313POPC   C3B43485  20.688   7.880   7.123
 3313POPC   C4B43486  20.886   7.987   7.539
 3314POPC   NC343487  28.002   9.250   5.395
 3314POPC   PO443488  28.605   8.929   5.317
 3314POPC   GL143489  28.338   8.967   5.644
 3314POPC   GL243490  28.431   9.298   5.751
 3314POPC   C1A43491  28.168   8.958   6.046
 3314POPC   D2A43492  28.238   8.834   6.460
 3314POPC   C3A43493  27.957   8.888   6.786
 3314POPC   C4A43494  28.079   9.016   7.189
 3314POPC   C1B43495  28.264   9.462   6.115
 3314POPC   C2B43496  28.414   9.529   6.515
 3314POPC   C3B43497  28.381   9.243   6.836
 3314POPC   C4B43498  28.503   9.311   7.236
 3315POPC   NC343499   9.101  38.171   4.866
 3315POPC   PO443500   9.037  38.632   5.339
 3315POPC   GL143501   8.949  38.488   5.786
 3315POPC   GL243502   9.284  38.502   5.953
 3315POPC   C1A43503   8.774  38.469   6.252
 3315POPC   D2A43504   8.771  38.166   6.609
 3315POPC   C3A43505   8.709  38.281   7.055
 3315POPC   C4A43506   8.803  38.188   7.499
 3315POPC   C1B43507   9.253  38.572   6.405
 3315POPC   C2B43508   9.116  38.562   6.813
 3315POPC   C3B43509   9.288  38.525   7.209
 3315POPC   C4B43510   9.166  38.524   7.629
 3316POPC   NC343511   9.903  19.858   5.086
 3316POPC   PO443512   9.445  19.999   5.568
 3316POPC   GL143513   9.681  20.047   5.915
 3316POPC   GL243514  10.021  19.923   5.813
 3316POPC   C1A43515   9.721  19.826   6.328
 3316POPC   D2A43516   9.496  19.539   6.626
 3316POPC   C3A43517   9.529  19.547   7.090
 3316POPC   C4A43518   9.442  19.648   7.532
 3316POPC   C1B43519  10.095  20.177   6.180
 3316POPC   C2B43520  10.149  20.020   6.598
 3316POPC   C3B43521  10.021  19.984   7.015
 3316POPC   C4B43522   9.954  19.694   7.353
 3317POPC   NC343523  12.073  25.290   5.374
 3317POPC   PO443524  11.813  25.907   5.415
 3317POPC   GL143525  11.900  25.582   5.800
 3317POPC   GL243526  12.097  25.248   5.872
 3317POPC   C1A43527  12.046  25.567   6.259
 3317POPC   D2A43528  11.918  25.350   6.639
 3317POPC   C3A43529  12.166  25.288   6.996
 3317POPC   C4A43530  11.904  25.293   7.359
 3317POPC   C1B43531  11.923  25.037   6.241
 3317POPC   C2B43532  12.018  24.837   6.672
 3317POPC   C3B43533  11.969  24.840   7.137
 3317POPC   C4B43534  12.304  24.969   7.452
 3318POPC   NC343535  21.068   5.831   5.292
 3318POPC   PO443536  21.715   6.038   5.371
 3318POPC   GL143537  21.438   5.951   5.772
 3318POPC   GL243538  21.065   6.001   5.837
 3318POPC   C1A43539  21.361   5.832   6.250
 3318POPC   D2A43540  21.667   5.696   6.605
 3318POPC   C3A43541  21.563   5.594   7.045
 3318POPC   C4A43542  21.725   5.746   7.454
 3318POPC   C1B43543  21.038   6.259   6.247
 3318POPC   C2B43544  21.145   6.138   6.682
 3318POPC   C3B43545  21.172   5.927   7.097
 3318POPC   C4B43546  21.325   6.079   7.476
 3319POPC   NC343547  30.997  29.117   5.229
 3319POPC   PO443548  31.676  29.061   5.349
 3319POPC   GL143549  31.510  29.027   5.776
 3319POPC   GL243550  31.186  28.876   5.704
 3319POPC   C1A43551  31.635  28.895   6.210
 3319POPC   D2A43552  31.535  29.092   6.614
 3319POPC   C3A43553  31.662  28.909   7.008
 3319POPC   C4A43554  31.616  29.074   7.433
 3319POPC   C1B43555  31.148  28.999   6.153
 3319POPC   C2B43556  31.051  28.892   6.578
 3319POPC   C3B43557  31.140  29.013   7.002
 3319POPC   C4B43558  30.862  28.913   7.329
 3320POPC   NC343559  34.218  40.320   5.688
 3320POPC   PO443560  34.617  39.928   5.278
 3320POPC   GL143561  34.655  39.981   5.734
 3320POPC   GL243562  34.768  40.260   5.895
 3320POPC   C1A43563  34.479  39.811   6.132
 3320POPC   D2A43564  34.573  39.773   6.571
 3320POPC   C3A43565  34.350  39.788   6.959
 3320POPC   C4A43566  34.352  40.133   7.223
 3320POPC   C1B43567  34.939  40.015   6.275
 3320POPC   C2B43568  34.880  40.164   6.723
 3320POPC   C3B43569  34.869  40.099   7.172
 3320POPC   C4B43570  34.883  40.134   7.605
 3321POPC   NC343571   5.370  26.111   5.376
 3321POPC   PO443572   4.740  25.834   5.331
 3321POPC   GL143573   5.032  25.901   5.717
 3321POPC   GL243574   5.106  26.273   5.802
 3321POPC   C1A43575   5.126  25.878   6.185
 3321POPC   D2A43576   5.259  26.012   6.617
 3321POPC   C3A43577   4.951  25.987   6.963
 3321POPC   C4A43578   4.948  25.614   7.252
 3321POPC   C1B43579   5.241  26.388   6.252
 3321POPC   C2B43580   5.396  26.489   6.704
 3321POPC   C3B43581   5.261  26.409   7.179
 3321POPC   C4B43582   5.240  26.450   7.678
 3322POPC   NC343583  11.659  10.645   5.362
 3322POPC   PO443584  11.146  10.398   5.236
 3322POPC   GL143585  11.207  10.411   5.717
 3322POPC   GL243586  11.171  10.682   5.956
 3322POPC   C1A43587  11.403  10.258   6.114
 3322POPC   D2A43588  11.313  10.463   6.510
 3322POPC   C3A43589  11.559  10.413   6.905
 3322POPC   C4A43590  11.478  10.671   7.269
 3322POPC   C1B43591  10.901  10.343   6.175
 3322POPC   C2B43592  10.740  10.256   6.605
 3322POPC   C3B43593  11.047  10.245   6.936
 3322POPC   C4B43594  11.088  10.352   7.354
 3323POPC   NC343595  20.069  44.148   5.421
 3323POPC   PO443596  19.582  43.744   5.512
 3323POPC   GL143597  19.724  43.859   5.926
 3323POPC   GL243598  20.079  44.013   5.949
 3323POPC   C1A43599  19.686  43.832   6.384
 3323POPC   D2A43600  20.009  43.937   6.658
 3323POPC   C3A43601  19.816  43.833   7.014
 3323POPC   C4A43602  19.923  43.892   7.440
 3323POPC   C1B43603  20.146  43.637   6.235
 3323POPC   C2B43604  20.242  43.473   6.664
 3323POPC   C3B43605  20.308  43.700   7.065
 3323POPC   C4B43606  20.303  43.546   7.495
 3324POPC   NC343607  17.968  15.985   5.469
 3324POPC   PO443608  18.465  15.487   5.519
 3324POPC   GL143609  18.322  15.775   5.806
 3324POPC   GL243610  18.454  16.094   5.661
 3324POPC   C1A43611  18.343  15.829   6.242
 3324POPC   D2A43612  18.110  15.765   6.630
 3324POPC   C3A43613  18.206  16.077   6.878
 3324POPC   C4A43614  18.289  16.043   7.293
 3324POPC   C1B43615  18.569  16.245   6.058
 3324POPC   C2B43616  18.621  16.148   6.529
 3324POPC   C3B43617  18.751  16.222   6.946
 3324POPC   C4B43618  18.772  16.238   7.389
 3325POPC   NC343619  35.442  36.562   5.451
 3325POPC   PO443620  35.576  35.842   5.439
 3325POPC   GL143621  35.525  36.150   5.774
 3325POPC   GL243622  35.173  36.191   5.758
 3325POPC   C1A43623  35.433  36.140   6.228
 3325POPC   D2A43624  35.543  35.860   6.560
 3325POPC   C3A43625  35.513  35.996   6.994
 3325POPC   C4A43626  35.452  36.405   7.179
 3325POPC   C1B43627  34.958  35.923   6.045
 3325POPC   C2B43628  35.032  35.823   6.471
 3325POPC   C3B43629  34.989  35.944   6.883
 3325POPC   C4B43630  35.076  36.033   7.299
 3326POPC   NC343631  34.489   0.197   5.384
 3326POPC   PO443632  34.693  44.566   5.181
 3326POPC   GL143633  34.644  44.738   5.678
 3326POPC   GL243634  34.401  44.563   5.928
 3326POPC   C1A43635  34.719  44.892   6.149
 3326POPC   D2A43636  34.550  44.668   6.530
 3326POPC   C3A43637  34.555  44.815   6.960
 3326POPC   C4A43638  34.898  44.955   7.178
 3326POPC   C1B43639  34.755  44.344   6.162
 3326POPC   C2B43640  34.916  44.280   6.596
 3326POPC   C3B43641  34.980  44.443   7.006
 3326POPC   C4B43642  34.772  44.509   7.384
 3327POPC   NC343643  31.670   8.186   5.440
 3327POPC   PO443644  31.021   8.179   5.338
 3327POPC   GL143645  31.240   8.268   5.729
 3327POPC   GL243646  31.366   7.922   5.761
 3327POPC   C1A43647  31.467   8.303   6.141
 3327POPC   D2A43648  31.603   8.477   6.547
 3327POPC   C3A43649  31.506   8.265   6.922
 3327POPC   C4A43650  31.210   8.313   7.244
 3327POPC   C1B43651  31.515   7.795   6.162
 3327POPC   C2B43652  31.603   7.872   6.588
 3327POPC   C3B43653  31.536   7.712   6.959
 3327POPC   C4B43654  31.505   7.925   7.325
 3328POPC   NC343655  40.658  27.701   5.488
 3328POPC   PO443656  41.146  27.312   5.564
 3328POPC   GL143657  40.891  27.517   5.899
 3328POPC   GL243658  40.945  27.876   5.903
 3328POPC   C1A43659  40.659  27.672   6.297
 3328POPC   D2A43660  40.669  27.868   6.728
 3328POPC   C3A43661  40.782  27.566   7.050
 3328POPC   C4A43662  40.825  27.641   7.479
 3328POPC   C1B43663  41.037  28.063   6.325
 3328POPC   C2B43664  41.203  28.067   6.753
 3328POPC   C3B43665  41.016  28.013   7.177
 3328POPC   C4B43666  40.968  28.098   7.660
 3329POPC   NC343667  42.518   1.223   5.465
 3329POPC   PO443668  41.897   0.909   5.636
 3329POPC   GL143669  42.260   0.972   5.887
 3329POPC   GL243670  42.315   1.317   5.920
 3329POPC   C1A43671  42.425   0.925   6.307
 3329POPC   D2A43672  42.213   0.948   6.730
 3329POPC   C3A43673  42.334   1.083   7.144
 3329POPC   C4A43674  42.423   0.995   7.562
 3329POPC   C1B43675  42.710   1.325   6.129
 3329POPC   C2B43676  42.694   1.288   6.572
 3329POPC   C3B43677  42.816   1.217   6.988
 3329POPC   C4B43678  42.680   1.403   7.369
 3330POPC   NC343679   3.497  18.084   4.926
 3330POPC   PO443680   3.832  18.459   5.456
 3330POPC   GL143681   3.546  18.297   5.804
 3330POPC   GL243682   3.387  17.924   5.784
 3330POPC   C1A43683   3.503  18.298   6.268
 3330POPC   D2A43684   3.679  18.086   6.648
 3330POPC   C3A43685   3.547  18.252   7.074
 3330POPC   C4A43686   3.804  18.462   7.419
 3330POPC   C1B43687   3.377  17.804   6.265
 3330POPC   C2B43688   3.187  18.022   6.658
 3330POPC   C3B43689   3.114  17.993   7.142
 3330POPC   C4B43690   3.420  18.047   7.529
 3331POPC   NC343691   7.346  20.563   5.346
 3331POPC   PO443692   7.933  20.606   5.163
 3331POPC   GL143693   7.843  20.538   5.672
 3331POPC   GL243694   7.588  20.350   5.790
 3331POPC   C1A43695   7.662  20.703   6.137
 3331POPC   D2A43696   7.535  20.491   6.534
 3331POPC   C3A43697   7.518  20.611   6.976
 3331POPC   C4A43698   7.771  20.848   7.283
 3331POPC   C1B43699   7.226  20.312   6.083
 3331POPC   C2B43700   7.119  20.212   6.535
 3331POPC   C3B43701   7.115  20.264   6.968
 3331POPC   C4B43702   7.481  20.126   7.197
 3332POPC   NC343703  36.835   8.675   5.498
 3332POPC   PO443704  37.210   8.105   5.427
 3332POPC   GL143705  36.900   8.242   5.766
 3332POPC   GL243706  36.858   7.949   5.954
 3332POPC   C1A43707  36.631   8.352   6.162
 3332POPC   D2A43708  36.629   8.137   6.563
 3332POPC   C3A43709  36.583   8.381   6.933
 3332POPC   C4A43710  36.670   8.338   7.349
 3332POPC   C1B43711  37.100   8.176   6.275
 3332POPC   C2B43712  37.152   8.035   6.689
 3332POPC   C3B43713  37.096   8.211   7.074
 3332POPC   C4B43714  37.103   8.115   7.493
 3333POPC   NC343715   1.760  21.304   5.515
 3333POPC   PO443716   2.375  21.505   5.321
 3333POPC   GL143717   2.185  21.466   5.758
 3333POPC   GL243718   2.210  21.101   5.812
 3333POPC   C1A43719   1.953  21.611   6.173
 3333POPC   D2A43720   1.771  21.475   6.590
 3333POPC   C3A43721   1.808  21.620   7.026
 3333POPC   C4A43722   1.949  21.399   7.407
 3333POPC   C1B43723   2.393  21.323   6.195
 3333POPC   C2B43724   2.313  21.593   6.588
 3333POPC   C3B43725   2.322  21.614   7.068
 3333POPC   C4B43726   2.362  21.615   7.570
 3334POPC   NC343727  28.467   2.819   5.429
 3334POPC   PO443728  27.838   2.840   5.242
 3334POPC   GL143729  28.065   2.741   5.721
 3334POPC   GL243730  28.427   2.541   5.844
 3334POPC   C1A43731  28.198   2.806   6.191
 3334POPC   D2A43732  28.361   2.715   6.591
 3334POPC   C3A43733  28.130   2.873   6.948
 3334POPC   C4A43734  28.165   2.614   7.291
 3334POPC   C1B43735  28.728   2.746   6.195
 3334POPC   C2B43736  28.870   2.843   6.645
 3334POPC   C3B43737  28.627   2.773   7.037
 3334POPC   C4B43738  28.590   2.817   7.497
 3335POPC   NC343739  27.393  29.417   5.437
 3335POPC   PO443740  27.924  28.919   5.253
 3335POPC   GL143741  27.672  29.009   5.679
 3335POPC   GL243742  27.371  28.800   5.733
 3335POPC   C1A43743  27.664  28.887   6.141
 3335POPC   D2A43744  27.487  29.110   6.496
 3335POPC   C3A43745  27.642  29.041   6.931
 3335POPC   C4A43746  27.808  29.359   7.228
 3335POPC   C1B43747  27.162  28.827   6.162
 3335POPC   C2B43748  27.023  28.901   6.592
 3335POPC   C3B43749  27.155  28.862   7.031
 3335POPC   C4B43750  27.163  28.750   7.465
 3336POPC   NC343751  31.331  37.503   5.514
 3336POPC   PO443752  31.895  37.876   5.304
 3336POPC   GL143753  31.782  37.719   5.781
 3336POPC   GL243754  31.693  37.358   5.852
 3336POPC   C1A43755  31.828  37.620   6.257
 3336POPC   D2A43756  31.624  37.790   6.641
 3336POPC   C3A43757  31.691  37.643   7.104
 3336POPC   C4A43758  31.692  37.855   7.526
 3336POPC   C1B43759  31.342  37.592   6.140
 3336POPC   C2B43760  31.132  37.573   6.522
 3336POPC   C3B43761  31.217  37.708   6.924
 3336POPC   C4B43762  31.205  37.564   7.304
 3337POPC   NC343763  14.626  10.274   5.470
 3337POPC   PO443764  14.072  10.494   5.494
 3337POPC   GL143765  14.363  10.670   5.778
 3337POPC   GL243766  14.140  10.957   5.775
 3337POPC   C1A43767  14.570  10.490   6.156
 3337POPC   D2A43768  14.560  10.301   6.574
 3337POPC   C3A43769  14.519  10.525   6.903
 3337POPC   C4A43770  14.188  10.563   7.176
 3337POPC   C1B43771  14.306  10.922   6.233
 3337POPC   C2B43772  14.173  10.943   6.662
 3337POPC   C3B43773  14.420  11.015   7.016
 3337POPC   C4B43774  14.642  10.759   7.334
 3338POPC   NC343775  30.680  23.567   5.402
 3338POPC   PO443776  31.157  23.806   5.601
 3338POPC   GL143777  30.833  23.713   5.884
 3338POPC   GL243778  30.763  23.366   5.872
 3338POPC   C1A43779  30.657  23.793   6.282
 3338POPC   D2A43780  30.736  23.669   6.704
 3338POPC   C3A43781  30.637  23.935   7.074
 3338POPC   C4A43782  30.633  24.067   7.510
 3338POPC   C1B43783  30.488  23.246   6.221
 3338POPC   C2B43784  30.573  23.173   6.674
 3338POPC   C3B43785  30.463  23.419   7.058
 3338POPC   C4B43786  30.512  23.583   7.480
 3339POPC   NC343787  42.173  32.728   5.331
 3339POPC   PO443788  42.505  33.294   5.447
 3339POPC   GL143789  42.323  33.076   5.769
 3339POPC   GL243790  42.461  32.727   5.809
 3339POPC   C1A43791  42.160  33.255   6.161
 3339POPC   D2A43792  42.361  33.282   6.548
 3339POPC   C3A43793  42.135  33.059   6.863
 3339POPC   C4A43794  42.216  33.351   7.168
 3339POPC   C1B43795  42.587  32.944   6.194
 3339POPC   C2B43796  42.517  32.794   6.598
 3339POPC   C3B43797  42.612  32.911   7.002
 3339POPC   C4B43798  42.848  32.815   7.347
 3340POPC   NC343799  21.204  40.844   5.412
 3340POPC   PO443800  21.835  40.769   5.203
 3340POPC   GL143801  21.558  40.681   5.733
 3340POPC   GL243802  21.216  40.611   5.862
 3340POPC   C1A43803  21.585  40.662   6.224
 3340POPC   D2A43804  21.572  40.911   6.638
 3340POPC   C3A43805  21.440  40.680   7.029
 3340POPC   C4A43806  21.475  40.688   7.493
 3340POPC   C1B43807  21.046  40.826   6.231
 3340POPC   C2B43808  21.030  40.932   6.675
 3340POPC   C3B43809  20.892  40.708   6.997
 3340POPC   C4B43810  20.997  40.588   7.417
 3341POPC   NC343811  23.432  16.018   5.554
 3341POPC   PO443812  22.848  15.756   5.321
 3341POPC   GL143813  22.938  15.812   5.857
 3341POPC   GL243814  23.241  15.989   6.010
 3341POPC   C1A43815  22.921  15.900   6.387
 3341POPC   D2A43816  22.988  16.172   6.798
 3341POPC   C3A43817  22.811  15.948   7.160
 3341POPC   C4A43818  22.527  15.642   7.266
 3341POPC   C1B43819  23.312  15.614   6.233
 3341POPC   C2B43820  23.252  15.497   6.594
 3341POPC   C3B43821  23.191  15.715   6.925
 3341POPC   C4B43822  23.312  15.668   7.316
 3342POPC   NC343823  33.989  41.991   5.517
 3342POPC   PO443824  33.601  41.438   5.289
 3342POPC   GL143825  33.666  41.682   5.713
 3342POPC   GL243826  34.002  41.654   5.927
 3342POPC   C1A43827  33.553  41.863   6.104
 3342POPC   D2A43828  33.451  41.718   6.527
 3342POPC   C3A43829  33.567  41.931   6.902
 3342POPC   C4A43830  33.676  41.762   7.323
 3342POPC   C1B43831  34.105  41.562   6.389
 3342POPC   C2B43832  34.016  41.649   6.843
 3342POPC   C3B43833  33.975  41.345   7.175
 3342POPC   C4B43834  33.996  41.143   7.602
 3343POPC   NC343835  40.619  19.059   5.208
 3343POPC   PO443836  41.193  19.345   5.436
 3343POPC   GL143837  40.977  19.098   5.800
 3343POPC   GL243838  40.634  18.968   5.785
 3343POPC   C1A43839  40.948  18.926   6.238
 3343POPC   D2A43840  40.914  18.785   6.683
 3343POPC   C3A43841  41.076  19.135   6.926
 3343POPC   C4A43842  41.033  19.343   7.333
 3343POPC   C1B43843  40.472  19.148   6.216
 3343POPC   C2B43844  40.629  19.228   6.670
 3343POPC   C3B43845  40.619  19.075   7.118
 3343POPC   C4B43846  40.584  19.177   7.566
 3344POPC   NC343847  20.733  43.400   5.409
 3344POPC   PO443848  20.140  43.029   5.447
 3344POPC   GL143849  20.441  43.136   5.796
 3344POPC   GL243850  20.720  42.906   5.757
 3344POPC   C1A43851  20.484  43.241   6.245
 3344POPC   D2A43852  20.539  43.043   6.642
 3344POPC   C3A43853  20.555  43.248   7.041
 3344POPC   C4A43854  20.659  43.189   7.456
 3344POPC   C1B43855  20.903  42.855   6.168
 3344POPC   C2B43856  20.877  42.669   6.569
 3344POPC   C3B43857  20.938  42.892   6.924
 3344POPC   C4B43858  20.873  42.759   7.302
 3345POPC   NC343859  37.336   9.436   5.086
 3345POPC   PO443860  37.197   8.949   5.531
 3345POPC   GL143861  36.839   9.083   5.794
 3345POPC   GL243862  36.684   8.806   5.948
 3345POPC   C1A43863  36.775   9.220   6.233
 3345POPC   D2A43864  36.777   8.998   6.637
 3345POPC   C3A43865  36.847   9.210   7.024
 3345POPC   C4A43866  37.155   9.133   7.338
 3345POPC   C1B43867  37.013   8.716   6.249
 3345POPC   C2B43868  36.987   8.539   6.667
 3345POPC   C3B43869  36.938   8.710   7.089
 3345POPC   C4B43870  37.048   8.658   7.515
 3346POPC   NC343871   1.019   0.385   5.528
 3346POPC   PO443872   1.337  44.908   5.121
 3346POPC   GL143873   1.391   0.130   5.706
 3346POPC   GL243874   1.481   0.455   5.794
 3346POPC   C1A43875   1.121   0.219   6.128
 3346POPC   D2A43876   0.964   0.114   6.540
 3346POPC   C3A43877   1.067   0.414   6.865
 3346POPC   C4A43878   1.139   0.374   7.331
 3346POPC   C1B43879   1.475   0.636   6.206
 3346POPC   C2B43880   1.579   0.565   6.632
 3346POPC   C3B43881   1.664   0.694   7.041
 3346POPC   C4B43882   1.378   0.819   7.356
 3347POPC   NC343883  42.111  28.791   5.408
 3347POPC   PO443884  42.515  29.344   5.548
 3347POPC   GL143885  42.475  29.274   5.906
 3347POPC   GL243886  42.224  29.024   5.894
 3347POPC   C1A43887  42.381  29.397   6.278
 3347POPC   D2A43888  42.284  29.078   6.549
 3347POPC   C3A43889  42.353  29.283   6.914
 3347POPC   C4A43890  42.426  29.259   7.320
 3347POPC   C1B43891  41.949  28.761   6.183
 3347POPC   C2B43892  42.022  28.586   6.589
 3347POPC   C3B43893  42.081  28.823   6.946
 3347POPC   C4B43894  41.980  28.926   7.353
 3348POPC   NC343895   7.818  10.213   5.248
 3348POPC   PO443896   7.244  10.533   5.361
 3348POPC   GL143897   7.547  10.530   5.770
 3348POPC   GL243898   7.726  10.222   5.824
 3348POPC   C1A43899   7.730  10.510   6.255
 3348POPC   D2A43900   7.783  10.801   6.661
 3348POPC   C3A43901   7.684  10.732   7.128
 3348POPC   C4A43902   7.282  10.702   7.272
 3348POPC   C1B43903   7.319  10.200   6.100
 3348POPC   C2B43904   7.304  10.165   6.555
 3348POPC   C3B43905   7.427  10.305   6.976
 3348POPC   C4B43906   7.160  10.159   7.310
 3349POPC   NC343907   4.780   7.866   5.481
 3349POPC   PO443908   4.152   8.059   5.298
 3349POPC   GL143909   4.160   8.143   5.745
 3349POPC   GL243910   4.492   8.136   5.842
 3349POPC   C1A43911   4.018   8.101   6.168
 3349POPC   D2A43912   4.226   8.082   6.557
 3349POPC   C3A43913   4.142   8.337   6.892
 3349POPC   C4A43914   4.108   8.060   7.227
 3349POPC   C1B43915   4.546   8.352   6.245
 3349POPC   C2B43916   4.717   8.224   6.660
 3349POPC   C3B43917   4.608   8.196   7.103
 3349POPC   C4B43918   4.519   8.178   7.533
 3350POPC   NC343919  27.146  38.563   5.406
 3350POPC   PO443920  26.647  38.223   5.446
 3350POPC   GL143921  26.835  38.412   5.796
 3350POPC   GL243922  26.802  38.770   5.742
 3350POPC   C1A43923  27.052  38.292   6.176
 3350POPC   D2A43924  26.883  38.060   6.535
 3350POPC   C3A43925  26.730  38.314   6.848
 3350POPC   C4A43926  26.759  38.213   7.244
 3350POPC   C1B43927  27.187  38.850   6.016
 3350POPC   C2B43928  27.221  38.893   6.467
 3350POPC   C3B43929  27.201  38.583   6.777
 3350POPC   C4B43930  27.042  38.621   7.184
 3351POPC   NC343931  24.004  38.420   5.481
 3351POPC   PO443932  23.529  38.739   5.022
 3351POPC   GL143933  23.599  38.717   5.544
 3351POPC   GL243934  23.497  38.389   5.672
 3351POPC   C1A43935  23.750  38.641   6.048
 3351POPC   D2A43936  23.905  38.272   6.351
 3351POPC   C3A43937  23.877  38.272   6.821
 3351POPC   C4A43938  24.005  38.647   7.063
 3351POPC   C1B43939  23.319  38.360   6.101
 3351POPC   C2B43940  23.464  38.485   6.508
 3351POPC   C3B43941  23.350  38.485   6.928
 3351POPC   C4B43942  23.553  38.594   7.283
 3352POPC   NC343943   1.144  16.826   5.329
 3352POPC   PO443944   1.544  16.350   5.194
 3352POPC   GL143945   1.481  16.708   5.682
 3352POPC   GL243946   1.095  16.776   5.839
 3352POPC   C1A43947   1.399  16.555   6.166
 3352POPC   D2A43948   1.139  16.396   6.506
 3352POPC   C3A43949   1.263  16.615   6.846
 3352POPC   C4A43950   1.367  16.451   7.232
 3352POPC   C1B43951   0.848  16.792   6.291
 3352POPC   C2B43952   0.738  16.622   6.747
 3352POPC   C3B43953   0.914  16.697   7.200
 3352POPC   C4B43954   0.931  17.028   7.474
 3353POPC   NC343955  14.535   6.123   5.431
 3353POPC   PO443956  14.133   5.575   5.516
 3353POPC   GL143957  14.438   5.759   5.831
 3353POPC   GL243958  14.418   6.074   5.922
 3353POPC   C1A43959  14.598   5.790   6.292
 3353POPC   D2A43960  14.302   5.690   6.635
 3353POPC   C3A43961  14.317   5.776   7.047
 3353POPC   C4A43962  14.704   5.793   7.227
 3353POPC   C1B43963  14.135   6.356   6.120
 3353POPC   C2B43964  14.038   6.367   6.550
 3353POPC   C3B43965  14.198   6.264   6.955
 3353POPC   C4B43966  14.362   6.225   7.360
 3354POPC   NC343967  19.661   4.146   5.519
 3354POPC   PO443968  20.019   4.710   5.298
 3354POPC   GL143969  20.042   4.467   5.753
 3354POPC   GL243970  19.965   4.090   5.919
 3354POPC   C1A43971  20.071   4.464   6.217
 3354POPC   D2A43972  19.882   4.168   6.532
 3354POPC   C3A43973  19.876   4.357   6.954
 3354POPC   C4A43974  19.772   4.201   7.360
 3354POPC   C1B43975  20.289   3.981   6.258
 3354POPC   C2B43976  20.281   3.796   6.677
 3354POPC   C3B43977  20.182   3.978   7.072
 3354POPC   C4B43978  20.240   4.316   7.396
 3355POPC   NC343979   7.405  38.793   5.562
 3355POPC   PO443980   7.653  39.455   5.409
 3355POPC   GL143981   7.614  39.223   5.784
 3355POPC   GL243982   7.849  38.979   5.861
 3355POPC   C1A43983   7.447  39.270   6.207
 3355POPC   D2A43984   7.314  39.030   6.579
 3355POPC   C3A43985   7.322  39.229   6.974
 3355POPC   C4A43986   7.653  39.495   7.094
 3355POPC   C1B43987   7.837  38.954   6.348
 3355POPC   C2B43988   7.785  38.976   6.824
 3355POPC   C3B43989   7.671  38.985   7.284
 3355POPC   C4B43990   7.657  38.901   7.766
 3356POPC   NC343991  30.545  31.663   5.464
 3356POPC   PO443992  30.992  31.192   5.468
 3356POPC   GL143993  30.818  31.357   5.822
 3356POPC   GL243994  30.497  31.275   5.838
 3356POPC   C1A43995  30.887  31.524   6.240
 3356POPC   D2A43996  30.824  31.680   6.637
 3356POPC   C3A43997  30.860  31.469   7.059
 3356POPC   C4A43998  30.838  31.733   7.441
 3356POPC   C1B43999  30.407  31.603   6.113
 3356POPC   C2B44000  30.322  31.550   6.529
 3356POPC   C3B44001  30.394  31.640   6.939
 3356POPC   C4B44002  30.406  31.492   7.343
 3357POPC   NC344003  25.205  36.484   5.545
 3357POPC   PO444004  25.563  35.914   5.453
 3357POPC   GL144005  25.426  36.092   5.809
 3357POPC   GL244006  25.076  35.998   5.776
 3357POPC   C1A44007  25.507  36.249   6.194
 3357POPC   D2A44008  25.317  36.394   6.535
 3357POPC   C3A44009  25.277  36.189   6.892
 3357POPC   C4A44010  25.496  35.918   7.147
 3357POPC   C1B44011  24.977  36.242   6.155
 3357POPC   C2B44012  24.815  36.239   6.571
 3357POPC   C3B44013  24.772  36.057   6.923
 3357POPC   C4B44014  24.981  36.001   7.262
 3358POPC   NC344015  11.236  23.734   5.314
 3358POPC   PO444016  10.672  23.954   5.148
 3358POPC   GL144017  10.905  23.975   5.698
 3358POPC   GL244018  11.252  23.956   5.807
 3358POPC   C1A44019  10.947  23.869   6.197
 3358POPC   D2A44020  10.799  23.828   6.686
 3358POPC   C3A44021  10.994  23.696   7.106
 3358POPC   C4A44022  11.139  23.617   7.582
 3358POPC   C1B44023  11.463  24.193   6.177
 3358POPC   C2B44024  11.673  24.207   6.618
 3358POPC   C3B44025  11.688  24.084   7.087
 3358POPC   C4B44026  11.703  23.977   7.548
 3359POPC   NC344027  40.524  14.892   5.114
 3359POPC   PO444028  41.027  15.225   5.505
 3359POPC   GL144029  41.015  15.415   5.908
 3359POPC   GL244030  40.692  15.303   5.907
 3359POPC   C1A44031  40.879  15.399   6.378
 3359POPC   D2A44032  41.056  15.434   6.797
 3359POPC   C3A44033  41.102  15.111   7.074
 3359POPC   C4A44034  40.905  14.832   7.286
 3359POPC   C1B44035  40.398  15.313   6.204
 3359POPC   C2B44036  40.428  15.142   6.585
 3359POPC   C3B44037  40.608  15.225   6.990
 3359POPC   C4B44038  40.408  15.093   7.328
 3360POPC   NC344039   7.171  39.780   5.418
 3360POPC   PO444040   7.467  40.301   5.521
 3360POPC   GL144041   7.416  40.043   5.843
 3360POPC   GL244042   7.528  39.719   5.852
 3360POPC   C1A44043   7.536  40.112   6.255
 3360POPC   D2A44044   7.387  40.015   6.643
 3360POPC   C3A44045   7.558  40.109   7.032
 3360POPC   C4A44046   7.387  40.449   7.254
 3360POPC   C1B44047   7.183  39.718   6.174
 3360POPC   C2B44048   7.105  39.557   6.577
 3360POPC   C3B44049   7.148  39.714   6.974
 3360POPC   C4B44050   7.048  39.554   7.333
 3361POPC   NC344051  30.537  32.663   5.456
 3361POPC   PO444052  30.802  32.082   5.511
 3361POPC   GL144053  30.738  32.368   5.840
 3361POPC   GL244054  30.391  32.324   5.806
 3361POPC   C1A44055  30.649  32.336   6.290
 3361POPC   D2A44056  30.484  32.044   6.604
 3361POPC   C3A44057  30.733  31.993   7.020
 3361POPC   C4A44058  30.695  32.255   7.334
 3361POPC   C1B44059  30.189  32.546   6.109
 3361POPC   C2B44060  30.212  32.499   6.550
 3361POPC   C3B44061  30.547  32.506   6.850
 3361POPC   C4B44062  30.347  32.598   7.248
 3362POPC   NC344063  40.172   1.746   5.568
 3362POPC   PO444064  39.727   2.227   5.420
 3362POPC   GL144065  39.958   2.161   5.816
 3362POPC   GL244066  39.774   2.418   5.970
 3362POPC   C1A44067  40.143   1.974   6.216
 3362POPC   D2A44068  40.086   2.167   6.618
 3362POPC   C3A44069  40.257   1.958   6.967
 3362POPC   C4A44070  40.114   1.712   7.295
 3362POPC   C1B44071  39.642   2.049   6.227
 3362POPC   C2B44072  39.515   2.083   6.633
 3362POPC   C3B44073  39.723   2.117   7.004
 3362POPC   C4B44074  39.979   2.221   7.352
 3363POPC   NC344075  35.473  33.166   5.249
 3363POPC   PO444076  35.325  32.550   5.146
 3363POPC   GL144077  35.398  32.781   5.623
 3363POPC   GL244078  35.363  33.176   5.744
 3363POPC   C1A44079  35.371  32.785   6.122
 3363POPC   D2A44080  35.201  32.949   6.538
 3363POPC   C3A44081  35.357  32.733   6.937
 3363POPC   C4A44082  35.345  32.887   7.374
 3363POPC   C1B44083  35.374  33.305   6.177
 3363POPC   C2B44084  35.631  33.215   6.540
 3363POPC   C3B44085  35.529  33.221   6.988
 3363POPC   C4B44086  35.474  33.385   7.409
 3364POPC   NC344087   1.461  44.461   5.146
 3364POPC   PO444088   1.012  44.881   5.507
 3364POPC   GL144089   1.198  44.705   5.867
 3364POPC   GL244090   1.474  44.578   5.670
 3364POPC   C1A44091   1.097  44.679   6.292
 3364POPC   D2A44092   1.046  44.558   6.744
 3364POPC   C3A44093   1.061  44.919   7.017
 3364POPC   C4A44094   1.334  44.894   7.365
 3364POPC   C1B44095   1.572  44.466   6.107
 3364POPC   C2B44096   1.519  44.519   6.557
 3364POPC   C3B44097   1.488  44.464   7.025
 3364POPC   C4B44098   1.425  44.401   7.501
 3365POPC   NC344099  12.977   5.400   5.439
 3365POPC   PO444100  12.680   6.092   5.389
 3365POPC   GL144101  12.789   5.816   5.734
 3365POPC   GL244102  13.057   5.950   5.986
 3365POPC   C1A44103  12.611   5.815   6.139
 3365POPC   D2A44104  12.840   6.012   6.476
 3365POPC   C3A44105  12.764   5.900   6.905
 3365POPC   C4A44106  12.627   6.188   7.242
 3365POPC   C1B44107  13.057   5.583   6.252
 3365POPC   C2B44108  13.205   5.689   6.640
 3365POPC   C3B44109  13.297   5.934   6.949
 3365POPC   C4B44110  13.095   5.746   7.275
 3366POPC   NC344111   7.989  33.565   5.224
 3366POPC   PO444112   8.465  34.009   5.370
 3366POPC   GL144113   8.189  33.888   5.806
 3366POPC   GL244114   8.037  33.523   5.773
 3366POPC   C1A44115   8.229  33.917   6.324
 3366POPC   D2A44116   8.431  33.989   6.770
 3366POPC   C3A44117   8.318  34.009   7.230
 3366POPC   C4A44118   8.274  34.179   7.653
 3366POPC   C1B44119   8.204  33.416   6.207
 3366POPC   C2B44120   8.511  33.550   6.558
 3366POPC   C3B44121   8.468  33.559   7.007
 3366POPC   C4B44122   8.078  33.544   7.154
 3367POPC   NC344123  22.998  40.602   5.301
 3367POPC   PO444124  22.429  40.794   5.549
 3367POPC   GL144125  22.809  40.859   5.755
 3367POPC   GL244126  22.891  40.527   5.793
 3367POPC   C1A44127  22.969  40.865   6.193
 3367POPC   D2A44128  22.777  40.816   6.603
 3367POPC   C3A44129  23.010  40.818   6.973
 3367POPC   C4A44130  22.836  40.935   7.340
 3367POPC   C1B44131  23.167  40.402   6.110
 3367POPC   C2B44132  23.171  40.497   6.537
 3367POPC   C3B44133  23.413  40.513   6.914
 3367POPC   C4B44134  23.224  40.539   7.338
 3368POPC   NC344135   4.582  26.645   5.351
 3368POPC   PO444136   4.219  27.244   5.321
 3368POPC   GL144137   4.237  26.904   5.657
 3368POPC   GL244138   4.560  26.902   5.800
 3368POPC   C1A44139   4.177  26.702   6.082
 3368POPC   D2A44140   4.392  26.627   6.491
 3368POPC   C3A44141   4.270  26.673   6.926
 3368POPC   C4A44142   4.618  26.834   7.172
 3368POPC   C1B44143   4.323  27.172   6.102
 3368POPC   C2B44144   4.097  27.061   6.494
 3368POPC   C3B44145   4.173  27.172   6.920
 3368POPC   C4B44146   4.381  27.268   7.294
 3369POPC   NC344147  26.225  35.477   5.784
 3369POPC   PO444148  25.797  35.108   5.391
 3369POPC   GL144149  25.773  35.193   5.880
 3369POPC   GL244150  26.056  35.113   6.120
 3369POPC   C1A44151  25.636  35.296   6.330
 3369POPC   D2A44152  25.986  35.457   6.589
 3369POPC   C3A44153  26.056  35.309   7.020
 3369POPC   C4A44154  26.077  35.231   7.473
 3369POPC   C1B44155  26.405  35.240   6.356
 3369POPC   C2B44156  26.527  35.309   6.737
 3369POPC   C3B44157  26.476  35.008   7.024
 3369POPC   C4B44158  26.569  35.115   7.409
 3370POPC   NC344159  39.764   9.284   5.527
 3370POPC   PO444160  40.166   9.904   5.560
 3370POPC   GL144161  39.950   9.788   5.922
 3370POPC   GL244162  39.941  10.127   6.030
 3370POPC   C1A44163  39.976   9.582   6.336
 3370POPC   D2A44164  39.819   9.484   6.775
 3370POPC   C3A44165  39.945   9.736   7.137
 3370POPC   C4A44166  39.669   9.956   7.474
 3370POPC   C1B44167  40.303   9.974   6.278
 3370POPC   C2B44168  40.237   9.862   6.700
 3370POPC   C3B44169  40.463   9.971   7.028
 3370POPC   C4B44170  40.367  10.038   7.435
 3371POPC   NC344171  44.822  32.014   5.419
 3371POPC   PO444172  44.180  32.136   5.499
 3371POPC   GL144173  44.371  32.285   5.859
 3371POPC   GL244174  44.702  32.378   5.772
 3371POPC   C1A44175  44.432  32.148   6.265
 3371POPC   D2A44176  44.648  32.367   6.568
 3371POPC   C3A44177  44.520  32.207   6.930
 3371POPC   C4A44178  44.214  32.307   7.237
 3371POPC   C1B44179  44.928  32.217   6.138
 3371POPC   C2B44180   0.168  32.318   6.514
 3371POPC   C3B44181   0.026  32.279   6.930
 3371POPC   C4B44182  44.826  32.147   7.336
 3372POPC   NC344183  20.008  33.373   5.509
 3372POPC   PO444184  19.516  33.861   5.390
 3372POPC   GL144185  19.794  33.870   5.745
 3372POPC   GL244186  19.760  33.563   5.892
 3372POPC   C1A44187  19.862  34.074   6.153
 3372POPC   D2A44188  20.179  34.070   6.479
 3372POPC   C3A44189  20.084  33.996   6.910
 3372POPC   C4A44190  19.770  33.808   7.152
 3372POPC   C1B44191  20.080  33.603   6.197
 3372POPC   C2B44192  19.867  33.642   6.573
 3372POPC   C3B44193  19.720  33.391   6.877
 3372POPC   C4B44194  20.055  33.353   7.196
 3373POPC   NC344195  14.127  27.732   5.473
 3373POPC   PO444196  13.421  27.701   5.347
 3373POPC   GL144197  13.537  27.778   5.776
 3373POPC   GL244198  13.670  27.451   5.789
 3373POPC   C1A44199  13.695  27.766   6.221
 3373POPC   D2A44200  13.737  27.492   6.631
 3373POPC   C3A44201  13.725  27.674   7.056
 3373POPC   C4A44202  13.538  27.803   7.469
 3373POPC   C1B44203  13.502  27.294   6.183
 3373POPC   C2B44204  13.249  27.348   6.577
 3373POPC   C3B44205  13.384  27.245   7.000
 3373POPC   C4B44206  13.190  27.090   7.391
 3374POPC   NC344207  39.793  40.984   5.373
 3374POPC   PO444208  40.451  40.787   5.362
 3374POPC   GL144209  40.125  40.739   5.708
 3374POPC   GL244210  39.791  40.800   5.855
 3374POPC   C1A44211  40.178  40.594   6.131
 3374POPC   D2A44212  40.241  40.715   6.522
 3374POPC   C3A44213  40.038  40.635   6.918
 3374POPC   C4A44214  40.159  40.969   7.192
 3374POPC   C1B44215  39.791  40.907   6.308
 3374POPC   C2B44216  39.871  41.075   6.723
 3374POPC   C3B44217  39.659  40.964   7.116
 3374POPC   C4B44218  39.447  41.002   7.485
 3375POPC   NC344219  27.442   2.620   5.290
 3375POPC   PO444220  27.333   3.242   5.427
 3375POPC   GL144221  27.563   2.927   5.698
 3375POPC   GL244222  27.366   2.638   5.792
 3375POPC   C1A44223  27.723   2.691   6.109
 3375POPC   D2A44224  27.816   2.761   6.541
 3375POPC   C3A44225  27.703   2.538   6.913
 3375POPC   C4A44226  27.682   2.769   7.289
 3375POPC   C1B44227  27.234   2.823   6.210
 3375POPC   C2B44228  27.281   2.743   6.674
 3375POPC   C3B44229  27.185   2.830   7.119
 3375POPC   C4B44230  27.256   2.932   7.575
 3376POPC   NC344231  42.758  42.941   5.372
 3376POPC   PO444232  42.115  43.113   5.464
 3376POPC   GL144233  42.463  43.151   5.754
 3376POPC   GL244234  42.535  42.865   5.831
 3376POPC   C1A44235  42.503  43.357   6.149
 3376POPC   D2A44236  42.505  43.472   6.588
 3376POPC   C3A44237  42.624  43.184   6.943
 3376POPC   C4A44238  42.676  42.813   7.216
 3376POPC   C1B44239  42.266  42.873   6.170
 3376POPC   C2B44240  42.158  43.053   6.572
 3376POPC   C3B44241  42.193  42.905   7.000
 3376POPC   C4B44242  42.187  42.690   7.379
 3377POPC   NC344243  24.318   3.061   5.282
 3377POPC   PO444244  24.657   2.521   5.377
 3377POPC   GL144245  24.646   2.860   5.696
 3377POPC   GL244246  24.307   2.812   5.843
 3377POPC   C1A44247  24.751   2.998   6.139
 3377POPC   D2A44248  24.657   3.118   6.611
 3377POPC   C3A44249  24.742   2.802   6.978
 3377POPC   C4A44250  24.714   2.668   7.433
 3377POPC   C1B44251  23.972   2.987   6.148
 3377POPC   C2B44252  24.046   3.110   6.579
 3377POPC   C3B44253  24.256   2.850   6.845
 3377POPC   C4B44254  24.154   2.844   7.257
 3378POPC   NC344255  25.205  43.430   5.377
 3378POPC   PO444256  24.890  42.825   5.257
 3378POPC   GL144257  25.007  43.081   5.691
 3378POPC   GL244258  25.271  43.287   5.844
 3378POPC   C1A44259  25.108  42.959   6.166
 3378POPC   D2A44260  25.365  43.140   6.498
 3378POPC   C3A44261  25.232  42.983   6.913
 3378POPC   C4A44262  25.080  42.899   7.350
 3378POPC   C1B44263  25.422  43.551   6.129
 3378POPC   C2B44264  25.493  43.634   6.575
 3378POPC   C3B44265  25.446  43.443   6.977
 3378POPC   C4B44266  25.535  43.120   7.281
 3379POPC   NC344267  24.736  32.004   5.508
 3379POPC   PO444268  24.353  32.551   5.380
 3379POPC   GL144269  24.353  32.327   5.761
 3379POPC   GL244270  24.272  31.940   5.721
 3379POPC   C1A44271  24.311  32.563   6.173
 3379POPC   D2A44272  24.214  32.563   6.616
 3379POPC   C3A44273  24.497  32.556   6.959
 3379POPC   C4A44274  24.337  32.320   7.286
 3379POPC   C1B44275  24.437  31.840   6.139
 3379POPC   C2B44276  24.366  32.034   6.539
 3379POPC   C3B44277  24.586  32.057   6.925
 3379POPC   C4B44278  24.685  31.956   7.355
 3380POPC   NC344279  34.963   7.253   5.480
 3380POPC   PO444280  34.380   7.740   5.444
 3380POPC   GL144281  34.625   7.491   5.803
 3380POPC   GL244282  34.419   7.270   5.968
 3380POPC   C1A44283  34.758   7.393   6.294
 3380POPC   D2A44284  34.783   7.144   6.713
 3380POPC   C3A44285  34.944   7.365   7.106
 3380POPC   C4A44286  34.877   7.489   7.590
 3380POPC   C1B44287  34.220   7.564   6.214
 3380POPC   C2B44288  34.391   7.790   6.545
 3380POPC   C3B44289  34.564   7.624   6.891
 3380POPC   C4B44290  34.476   7.484   7.300
 3381POPC   NC344291  27.090   7.571   5.383
 3381POPC   PO444292  26.539   7.269   5.528
 3381POPC   GL144293  26.567   7.629   5.848
 3381POPC   GL244294  26.912   7.748   5.838
 3381POPC   C1A44295  26.709   7.679   6.325
 3381POPC   D2A44296  26.778   7.399   6.698
 3381POPC   C3A44297  26.917   7.420   7.128
 3381POPC   C4A44298  26.705   7.119   7.407
 3381POPC   C1B44299  26.991   7.338   6.077
 3381POPC   C2B44300  27.199   7.159   6.435
 3381POPC   C3B44301  27.309   7.215   6.849
 3381POPC   C4B44302  27.391   7.180   7.269
 3382POPC   NC344303   0.234  20.859   5.380
 3382POPC   PO444304   0.594  21.442   5.548
 3382POPC   GL144305   0.372  21.426   5.902
 3382POPC   GL244306   0.098  21.250   5.750
 3382POPC   C1A44307   0.555  21.352   6.299
 3382POPC   D2A44308   0.866  21.445   6.600
 3382POPC   C3A44309   0.695  21.316   6.992
 3382POPC   C4A44310   0.654  21.532   7.379
 3382POPC   C1B44311   0.090  21.118   6.207
 3382POPC   C2B44312   0.192  21.168   6.654
 3382POPC   C3B44313   0.167  21.217   7.096
 3382POPC   C4B44314   0.110  21.643   7.270
 3383POPC   NC344315   2.347  15.591   5.242
 3383POPC   PO444316   2.017  14.973   5.317
 3383POPC   GL144317   2.013  15.249   5.656
 3383POPC   GL244318   1.693  15.357   5.775
 3383POPC   C1A44319   2.093  15.304   6.089
 3383POPC   D2A44320   2.127  15.063   6.439
 3383POPC   C3A44321   2.075  15.257   6.806
 3383POPC   C4A44322   2.289  15.131   7.167
 3383POPC   C1B44323   1.654  15.014   6.121
 3383POPC   C2B44324   1.646  14.884   6.571
 3383POPC   C3B44325   1.632  15.054   6.969
 3383POPC   C4B44326   1.820  15.292   7.261
 3384POPC   NC344327  37.669  16.380   5.192
 3384POPC   PO444328  37.997  16.801   5.614
 3384POPC   GL144329  37.839  16.744   6.013
 3384POPC   GL244330  37.493  16.762   5.992
 3384POPC   C1A44331  37.708  16.950   6.406
 3384POPC   D2A44332  37.650  17.038   6.824
 3384POPC   C3A44333  37.946  16.904   7.109
 3384POPC   C4A44334  37.675  16.822   7.448
 3384POPC   C1B44335  37.251  16.516   6.338
 3384POPC   C2B44336  37.291  16.312   6.746
 3384POPC   C3B44337  37.394  16.509   7.135
 3384POPC   C4B44338  37.294  16.430   7.582
 3385POPC   NC344339  38.147  19.639   5.486
 3385POPC   PO444340  38.782  19.960   5.372
 3385POPC   GL144341  38.606  19.746   5.743
 3385POPC   GL244342  38.332  20.011   5.823
 3385POPC   C1A44343  38.369  19.588   6.103
 3385POPC   D2A44344  38.147  19.798   6.434
 3385POPC   C3A44345  38.125  19.644   6.877
 3385POPC   C4A44346  37.968  19.727   7.282
 3385POPC   C1B44347  38.563  20.054   6.210
 3385POPC   C2B44348  38.661  19.900   6.635
 3385POPC   C3B44349  38.543  19.867   7.069
 3385POPC   C4B44350  38.630  19.935   7.528
 3386POPC   NC344351   0.885   3.568   5.151
 3386POPC   PO444352   1.382   3.499   5.681
 3386POPC   GL144353   1.309   3.605   6.065
 3386POPC   GL244354   0.957   3.733   6.116
 3386POPC   C1A44355   1.251   3.606   6.504
 3386POPC   D2A44356   0.858   3.628   6.674
 3386POPC   C3A44357   1.003   3.642   7.061
 3386POPC   C4A44358   1.404   3.805   7.153
 3386POPC   C1B44359   0.997   3.258   6.240
 3386POPC   C2B44360   0.957   3.100   6.651
 3386POPC   C3B44361   1.016   3.129   7.059
 3386POPC   C4B44362   1.400   3.183   7.212
 3387POPC   NC344363  24.367  15.847   5.456
 3387POPC   PO444364  24.986  16.020   5.570
 3387POPC   GL144365  24.628  16.101   5.842
 3387POPC   GL244366  24.301  16.310   5.724
 3387POPC   C1A44367  24.548  15.788   6.158
 3387POPC   D2A44368  24.407  15.672   6.557
 3387POPC   C3A44369  24.606  15.809   6.947
 3387POPC   C4A44370  24.401  15.714   7.309
 3387POPC   C1B44371  24.218  16.185   6.155
 3387POPC   C2B44372  24.458  16.193   6.520
 3387POPC   C3B44373  24.340  16.243   6.908
 3387POPC   C4B44374  24.437  16.220   7.309
 3388POPC   NC344375   0.827   8.677   5.518
 3388POPC   PO444376   0.262   9.209   5.464
 3388POPC   GL144377   0.435   8.941   5.787
 3388POPC   GL244378   0.777   9.087   5.801
 3388POPC   C1A44379   0.526   8.917   6.246
 3388POPC   D2A44380   0.558   8.703   6.640
 3388POPC   C3A44381   0.462   8.926   6.991
 3388POPC   C4A44382   0.129   9.057   7.315
 3388POPC   C1B44383   0.920   9.256   6.181
 3388POPC   C2B44384   0.987   9.135   6.618
 3388POPC   C3B44385   0.873   9.195   7.044
 3388POPC   C4B44386   0.801   8.908   7.374
 3389POPC   NC344387  20.828   5.532   5.682
 3389POPC   PO444388  20.292   5.863   5.473
 3389POPC   GL144389  20.496   5.866   5.847
 3389POPC   GL244390  20.382   5.505   5.913
 3389POPC   C1A44391  20.704   5.888   6.244
 3389POPC   D2A44392  20.878   5.702   6.610
 3389POPC   C3A44393  20.694   5.915   6.967
 3389POPC   C4A44394  20.529   5.850   7.348
 3389POPC   C1B44395  20.484   5.446   6.340
 3389POPC   C2B44396  20.353   5.687   6.674
 3389POPC   C3B44397  20.151   5.649   7.076
 3389POPC   C4B44398  20.150   5.607   7.572
 3390POPC   NC344399  22.073  28.149   5.318
 3390POPC   PO444400  21.800  28.698   5.549
 3390POPC   GL144401  21.858  28.318   5.811
 3390POPC   GL244402  22.165  28.093   5.835
 3390POPC   C1A44403  21.883  28.227   6.249
 3390POPC   D2A44404  22.103  28.175   6.622
 3390POPC   C3A44405  21.978  28.385   6.986
 3390POPC   C4A44406  22.293  28.616   7.177
 3390POPC   C1B44407  22.467  28.162   6.195
 3390POPC   C2B44408  22.610  28.030   6.627
 3390POPC   C3B44409  22.453  28.133   7.077
 3390POPC   C4B44410  22.541  28.207   7.531
 3391POPC   NC344411   1.742  33.270   5.330
 3391POPC   PO444412   2.214  32.916   5.147
 3391POPC   GL144413   2.130  33.103   5.658
 3391POPC   GL244414   1.821  33.271   5.831
 3391POPC   C1A44415   2.173  33.120   6.160
 3391POPC   D2A44416   2.039  32.828   6.510
 3391POPC   C3A44417   2.010  32.931   6.951
 3391POPC   C4A44418   2.085  33.256   7.259
 3391POPC   C1B44419   1.557  33.378   6.192
 3391POPC   C2B44420   1.464  33.208   6.616
 3391POPC   C3B44421   1.604  33.200   7.066
 3391POPC   C4B44422   1.682  32.892   7.377
 3392POPC   NC344423  44.771  13.237   5.344
 3392POPC   PO444424  44.708  12.518   5.296
 3392POPC   GL144425  44.765  12.835   5.672
 3392POPC   GL244426  44.484  13.101   5.750
 3392POPC   C1A44427  44.923  13.070   6.072
 3392POPC   D2A44428   0.041  13.299   6.475
 3392POPC   C3A44429  44.823  13.102   6.836
 3392POPC   C4A44430  44.719  12.938   7.236
 3392POPC   C1B44431  44.385  13.172   6.205
 3392POPC   C2B44432  44.337  13.001   6.646
 3392POPC   C3B44433  44.292  13.195   7.056
 3392POPC   C4B44434  44.413  13.297   7.491
 3393POPC   NC344435  36.406   3.851   5.255
 3393POPC   PO444436  36.310   4.524   5.484
 3393POPC   GL144437  36.319   4.366   5.856
 3393POPC   GL244438  36.225   4.051   5.764
 3393POPC   C1A44439  36.339   4.523   6.249
 3393POPC   D2A44440  36.123   4.769   6.503
 3393POPC   C3A44441  36.173   4.594   6.857
 3393POPC   C4A44442  36.154   4.425   7.235
 3393POPC   C1B44443  36.349   4.003   6.217
 3393POPC   C2B44444  36.172   4.123   6.601
 3393POPC   C3B44445  35.914   4.062   6.936
 3393POPC   C4B44446  36.117   3.923   7.263
 3394POPC   NC344447  32.193  35.056   5.390
 3394POPC   PO444448  32.748  35.443   5.329
 3394POPC   GL144449  32.494  35.262   5.773
 3394POPC   GL244450  32.103  35.287   5.825
 3394POPC   C1A44451  32.378  35.312   6.269
 3394POPC   D2A44452  32.426  35.222   6.745
 3394POPC   C3A44453  32.318  35.422   7.165
 3394POPC   C4A44454  32.190  35.518   7.642
 3394POPC   C1B44455  31.881  35.069   6.159
 3394POPC   C2B44456  31.693  35.221   6.511
 3394POPC   C3B44457  31.907  35.254   6.901
 3394POPC   C4B44458  31.826  35.436   7.296
 3395POPC   NC344459   7.049  44.879   5.563
 3395POPC   PO444460   7.617  44.572   5.304
 3395POPC   GL144461   7.604  44.627   5.755
 3395POPC   GL244462   7.280  44.471   5.822
 3395POPC   C1A44463   7.588  44.787   6.195
 3395POPC   D2A44464   7.437  44.873   6.619
 3395POPC   C3A44465   7.647   0.037   6.995
 3395POPC   C4A44466   7.639  44.762   7.353
 3395POPC   C1B44467   7.188  44.351   6.236
 3395POPC   C2B44468   7.074  44.514   6.634
 3395POPC   C3B44469   7.261  44.614   7.030
 3395POPC   C4B44470   7.194  44.429   7.440
 3396POPC   NC344471  20.516  26.869   5.414
 3396POPC   PO444472  20.326  26.351   5.736
 3396POPC   GL144473  20.617  26.648   5.897
 3396POPC   GL244474  20.685  27.023   5.866
 3396POPC   C1A44475  20.684  26.767   6.325
 3396POPC   D2A44476  20.455  26.973   6.671
 3396POPC   C3A44477  20.681  26.863   7.056
 3396POPC   C4A44478  20.726  26.762   7.484
 3396POPC   C1B44479  20.890  27.210   6.211
 3396POPC   C2B44480  20.771  27.387   6.626
 3396POPC   C3B44481  20.818  27.352   7.083
 3396POPC   C4B44482  20.725  27.271   7.546
 3397POPC   NC344483  12.263  16.662   5.310
 3397POPC   PO444484  11.647  16.422   5.333
 3397POPC   GL144485  11.885  16.575   5.757
 3397POPC   GL244486  12.056  16.902   5.781
 3397POPC   C1A44487  12.075  16.616   6.218
 3397POPC   D2A44488  12.109  16.780   6.677
 3397POPC   C3A44489  12.079  16.561   7.109
 3397POPC   C4A44490  11.836  16.744   7.508
 3397POPC   C1B44491  12.342  17.069   6.104
 3397POPC   C2B44492  12.367  17.181   6.505
 3397POPC   C3B44493  12.482  17.044   6.943
 3397POPC   C4B44494  12.295  16.965   7.360
 3398POPC   NC344495  21.865   3.273   5.427
 3398POPC   PO444496  21.164   3.601   5.489
 3398POPC   GL144497  21.462   3.453   5.758
 3398POPC   GL244498  21.735   3.690   5.716
 3398POPC   C1A44499  21.340   3.336   6.181
 3398POPC   D2A44500  21.357   3.190   6.633
 3398POPC   C3A44501  21.200   3.329   7.043
 3398POPC   C4A44502  21.580   3.356   7.286
 3398POPC   C1B44503  21.551   3.879   6.081
 3398POPC   C2B44504  21.474   3.727   6.479
 3398POPC   C3B44505  21.470   3.707   6.903
 3398POPC   C4B44506  21.114   3.817   7.174
 3399POPC   NC344507  40.096  13.332   5.643
 3399POPC   PO444508  40.359  12.638   5.609
 3399POPC   GL144509  40.133  12.864   5.884
 3399POPC   GL244510  39.815  12.831   5.729
 3399POPC   C1A44511  40.123  13.109   6.272
 3399POPC   D2A44512  40.404  13.212   6.622
 3399POPC   C3A44513  40.271  12.982   6.960
 3399POPC   C4A44514  40.091  13.012   7.334
 3399POPC   C1B44515  39.690  12.839   6.154
 3399POPC   C2B44516  39.708  13.025   6.562
 3399POPC   C3B44517  39.728  12.905   6.986
 3399POPC   C4B44518  39.820  12.605   7.334
 3400POPC   NC344519  28.674  13.813   5.527
 3400POPC   PO444520  29.327  13.559   5.435
 3400POPC   GL144521  29.163  13.784   5.782
 3400POPC   GL244522  28.951  13.523   5.868
 3400POPC   C1A44523  29.042  13.940   6.186
 3400POPC   D2A44524  29.175  13.757   6.577
 3400POPC   C3A44525  29.080  13.896   6.991
 3400POPC   C4A44526  29.189  13.699   7.379
 3400POPC   C1B44527  29.300  13.445   6.165
 3400POPC   C2B44528  29.452  13.304   6.588
 3400POPC   C3B44529  29.375  13.342   7.038
 3400POPC   C4B44530  29.388  13.090   7.417
 3401POPC   NC344531  43.105  14.856   5.346
 3401POPC   PO444532  42.803  14.284   5.445
 3401POPC   GL144533  42.984  14.510   5.760
 3401POPC   GL244534  43.193  14.246   5.849
 3401POPC   C1A44535  42.860  14.538   6.184
 3401POPC   D2A44536  42.760  14.386   6.591
 3401POPC   C3A44537  42.905  14.551   6.945
 3401POPC   C4A44538  43.161  14.385   7.194
 3401POPC   C1B44539  43.334  14.318   6.262
 3401POPC   C2B44540  43.322  14.469   6.666
 3401POPC   C3B44541  43.358  14.808   6.962
 3401POPC   C4B44542  43.466  15.047   7.310
 3402POPC   NC344543  25.725  25.112   5.583
 3402POPC   PO444544  25.055  25.372   5.454
 3402POPC   GL144545  25.168  25.149   5.790
 3402POPC   GL244546  25.426  25.352   5.902
 3402POPC   C1A44547  25.124  25.083   6.226
 3402POPC   D2A44548  25.295  25.005   6.624
 3402POPC   C3A44549  25.037  24.970   6.995
 3402POPC   C4A44550  25.246  25.183   7.343
 3402POPC   C1B44551  25.159  25.585   6.163
 3402POPC   C2B44552  25.324  25.565   6.574
 3402POPC   C3B44553  25.511  25.384   6.922
 3402POPC   C4B44554  25.502  25.624   7.314
 3403POPC   NC344555  17.009  43.849   5.540
 3403POPC   PO444556  16.411  43.926   5.275
 3403POPC   GL144557  16.487  44.009   5.737
 3403POPC   GL244558  16.812  44.083   5.938
 3403POPC   C1A44559  16.512  43.700   6.075
 3403POPC   D2A44560  16.794  43.470   6.398
 3403POPC   C3A44561  16.675  43.489   6.856
 3403POPC   C4A44562  16.603  43.413   7.306
 3403POPC   C1B44563  16.845  43.993   6.373
 3403POPC   C2B44564  16.801  43.983   6.807
 3403POPC   C3B44565  16.603  43.898   7.155
 3403POPC   C4B44566  16.731  43.871   7.549
 3404POPC   NC344567   8.829  27.759   5.295
 3404POPC   PO444568   9.381  27.938   5.602
 3404POPC   GL144569   8.998  27.849   5.822
 3404POPC   GL244570   8.630  27.783   5.788
 3404POPC   C1A44571   8.965  27.660   6.218
 3404POPC   D2A44572   9.188  27.684   6.615
 3404POPC   C3A44573   8.969  27.529   6.989
 3404POPC   C4A44574   9.339  27.488   7.232
 3404POPC   C1B44575   8.506  27.894   6.213
 3404POPC   C2B44576   8.692  27.802   6.632
 3404POPC   C3B44577   8.661  27.983   7.073
 3404POPC   C4B44578   8.558  27.918   7.537
 3405POPC   NC344579  29.743  20.322   5.451
 3405POPC   PO444580  29.909  19.673   5.449
 3405POPC   GL144581  29.873  19.696   5.855
 3405POPC   GL244582  29.753  20.039   5.889
 3405POPC   C1A44583  30.091  19.758   6.222
 3405POPC   D2A44584  29.904  19.938   6.532
 3405POPC   C3A44585  30.069  19.787   6.863
 3405POPC   C4A44586  30.090  19.949   7.240
 3405POPC   C1B44587  29.518  20.142   6.253
 3405POPC   C2B44588  29.420  20.009   6.685
 3405POPC   C3B44589  29.498  20.205   7.077
 3405POPC   C4B44590  29.642  20.094   7.497
 3406POPC   NC344591  41.432  27.991   5.402
 3406POPC   PO444592  41.838  28.486   5.605
 3406POPC   GL144593  41.557  28.480   5.952
 3406POPC   GL244594  41.339  28.207   5.870
 3406POPC   C1A44595  41.446  28.538   6.389
 3406POPC   D2A44596  41.332  28.554   6.810
 3406POPC   C3A44597  41.609  28.556   7.100
 3406POPC   C4A44598  41.362  28.325   7.384
 3406POPC   C1B44599  41.549  28.062   6.246
 3406POPC   C2B44600  41.706  28.171   6.661
 3406POPC   C3B44601  41.648  28.039   7.077
 3406POPC   C4B44602  41.785  28.106   7.514
 3407POPC   NC344603   2.805   0.552   5.357
 3407POPC   PO444604   2.317   0.924   5.644
 3407POPC   GL144605   2.530   0.539   5.852
 3407POPC   GL244606   2.915   0.485   5.849
 3407POPC   C1A44607   2.558   0.375   6.297
 3407POPC   D2A44608   2.565   0.335   6.761
 3407POPC   C3A44609   2.911   0.493   7.026
 3407POPC   C4A44610   2.827   0.844   7.282
 3407POPC   C1B44611   2.969   0.109   6.100
 3407POPC   C2B44612   3.035   0.077   6.547
 3407POPC   C3B44613   2.930  44.972   6.949
 3407POPC   C4B44614   3.086   0.084   7.343
 3408POPC   NC344615  21.122  19.577   5.097
 3408POPC   PO444616  21.467  20.114   5.378
 3408POPC   GL144617  21.221  19.926   5.668
 3408POPC   GL244618  21.428  19.659   5.773
 3408POPC   C1A44619  21.092  20.095   6.090
 3408POPC   D2A44620  21.298  20.167   6.504
 3408POPC   C3A44621  21.171  20.280   6.919
 3408POPC   C4A44622  21.219  20.073   7.347
 3408POPC   C1B44623  21.485  19.783   6.186
 3408POPC   C2B44624  21.430  19.643   6.565
 3408POPC   C3B44625  21.465  19.812   6.957
 3408POPC   C4B44626  21.388  19.597   7.349
 3409POPC   NC344627  41.562  40.999   5.406
 3409POPC   PO444628  41.070  40.508   5.192
 3409POPC   GL144629  41.296  40.423   5.683
 3409POPC   GL244630  41.584  40.657   5.778
 3409POPC   C1A44631  41.276  40.528   6.168
 3409POPC   D2A44632  41.542  40.427   6.558
 3409POPC   C3A44633  41.348  40.535   6.920
 3409POPC   C4A44634  41.301  40.944   7.107
 3409POPC   C1B44635  41.682  40.853   6.190
 3409POPC   C2B44636  41.586  40.920   6.632
 3409POPC   C3B44637  41.794  40.771   7.008
 3409POPC   C4B44638  41.782  40.980   7.419
 3410POPC   NC344639   1.325  24.103   5.444
 3410POPC   PO444640   1.356  23.514   5.112
 3410POPC   GL144641   1.357  23.655   5.668
 3410POPC   GL244642   1.130  23.973   5.876
 3410POPC   C1A44643   1.197  23.568   6.142
 3410POPC   D2A44644   1.078  23.718   6.568
 3410POPC   C3A44645   1.047  23.444   6.928
 3410POPC   C4A44646   1.223  23.668   7.219
 3410POPC   C1B44647   0.883  24.223   6.195
 3410POPC   C2B44648   0.735  24.171   6.636
 3410POPC   C3B44649   0.896  23.991   7.007
 3410POPC   C4B44650   0.841  23.931   7.461
 3411POPC   NC344651  31.361  25.979   5.319
 3411POPC   PO444652  32.069  25.758   5.312
 3411POPC   GL144653  31.703  25.790   5.671
 3411POPC   GL244654  31.399  26.016   5.804
 3411POPC   C1A44655  31.678  25.771   6.129
 3411POPC   D2A44656  31.792  25.703   6.541
 3411POPC   C3A44657  31.812  26.079   6.793
 3411POPC   C4A44658  31.652  25.957   7.172
 3411POPC   C1B44659  31.184  25.944   6.200
 3411POPC   C2B44660  31.344  26.006   6.608
 3411POPC   C3B44661  31.162  26.011   6.998
 3411POPC   C4B44662  31.244  26.164   7.407
 3412POPC   NC344663  33.881  34.379   5.184
 3412POPC   PO444664  33.382  34.582   5.670
 3412POPC   GL144665  33.745  34.388   5.836
 3412POPC   GL244666  34.094  34.404   5.700
 3412POPC   C1A44667  33.701  34.296   6.281
 3412POPC   D2A44668  33.406  34.518   6.582
 3412POPC   C3A44669  33.437  34.386   7.022
 3412POPC   C4A44670  33.775  34.487   7.341
 3412POPC   C1B44671  34.165  34.488   6.159
 3412POPC   C2B44672  33.997  34.649   6.569
 3412POPC   C3B44673  34.128  34.684   7.012
 3412POPC   C4B44674  34.334  34.413   7.304
 3413POPC   NC344675  32.538  27.270   5.577
 3413POPC   PO444676  32.546  26.628   5.334
 3413POPC   GL144677  32.225  26.568   5.651
 3413POPC   GL244678  32.051  26.867   5.784
 3413POPC   C1A44679  32.275  26.514   6.102
 3413POPC   D2A44680  32.129  26.651   6.522
 3413POPC   C3A44681  32.406  26.697   6.866
 3413POPC   C4A44682  32.283  26.644   7.273
 3413POPC   C1B44683  32.129  27.060   6.209
 3413POPC   C2B44684  31.964  27.159   6.632
 3413POPC   C3B44685  31.866  26.923   7.000
 3413POPC   C4B44686  31.970  27.021   7.423
 3414POPC   NC344687  27.340  19.822   5.418
 3414POPC   PO444688  26.664  19.764   5.347
 3414POPC   GL144689  26.872  19.711   5.692
 3414POPC   GL244690  27.057  19.420   5.623
 3414POPC   C1A44691  26.954  19.853   6.105
 3414POPC   D2A44692  26.778  19.892   6.510
 3414POPC   C3A44693  26.900  19.890   6.893
 3414POPC   C4A44694  26.840  20.036   7.294
 3414POPC   C1B44695  27.110  19.382   6.034
 3414POPC   C2B44696  27.215  19.557   6.445
 3414POPC   C3B44697  27.300  19.433   6.855
 3414POPC   C4B44698  27.131  19.602   7.230
 3415POPC   NC344699  26.769   0.680   5.518
 3415POPC   PO444700  26.513   0.180   5.152
 3415POPC   GL144701  26.599   0.214   5.671
 3415POPC   GL244702  26.479   0.482   5.926
 3415POPC   C1A44703  26.899   0.316   6.091
 3415POPC   D2A44704  26.957   0.589   6.470
 3415POPC   C3A44705  27.028   0.305   6.817
 3415POPC   C4A44706  27.107   0.321   7.262
 3415POPC   C1B44707  26.270   0.631   6.305
 3415POPC   C2B44708  26.495   0.437   6.633
 3415POPC   C3B44709  26.613   0.480   7.050
 3415POPC   C4B44710  26.524   0.728   7.387
 3416POPC   NC344711  42.030  26.433   5.499
 3416POPC   PO444712  41.536  26.833   5.289
 3416POPC   GL144713  41.546  26.910   5.746
 3416POPC   GL244714  41.704  26.618   5.854
 3416POPC   C1A44715  41.635  27.166   6.131
 3416POPC   D2A44716  41.786  27.155   6.578
 3416POPC   C3A44717  41.552  27.175   6.969
 3416POPC   C4A44718  41.315  26.911   7.245
 3416POPC   C1B44719  41.960  26.587   6.215
 3416POPC   C2B44720  41.918  26.404   6.633
 3416POPC   C3B44721  41.651  26.633   6.932
 3416POPC   C4B44722  41.564  26.503   7.353
 3417POPC   NC344723   0.767  16.374   5.594
 3417POPC   PO444724   0.362  15.895   5.365
 3417POPC   GL144725   0.428  15.975   5.795
 3417POPC   GL244726   0.747  15.842   5.801
 3417POPC   C1A44727   0.261  15.941   6.222
 3417POPC   D2A44728   0.334  15.765   6.619
 3417POPC   C3A44729   0.346  15.999   6.960
 3417POPC   C4A44730   0.280  15.861   7.337
 3417POPC   C1B44731   0.963  15.680   6.141
 3417POPC   C2B44732   0.901  15.525   6.564
 3417POPC   C3B44733   0.723  15.610   6.968
 3417POPC   C4B44734   0.781  15.830   7.347
 3418POPC   NC344735   6.181   4.105   5.315
 3418POPC   PO444736   5.555   4.093   5.599
 3418POPC   GL144737   5.964   4.169   5.820
 3418POPC   GL244738   6.311   3.986   5.806
 3418POPC   C1A44739   5.995   4.367   6.227
 3418POPC   D2A44740   5.954   4.144   6.630
 3418POPC   C3A44741   6.038   4.320   7.028
 3418POPC   C4A44742   5.695   4.237   7.306
 3418POPC   C1B44743   6.248   3.932   6.264
 3418POPC   C2B44744   6.407   3.903   6.693
 3418POPC   C3B44745   6.190   3.834   7.087
 3418POPC   C4B44746   6.092   3.999   7.467
 3419POPC   NC344747  36.926  10.794   5.358
 3419POPC   PO444748  37.216  10.107   5.527
 3419POPC   GL144749  37.022  10.458   5.752
 3419POPC   GL244750  37.044  10.811   5.864
 3419POPC   C1A44751  36.849  10.383   6.134
 3419POPC   D2A44752  37.046  10.370   6.526
 3419POPC   C3A44753  36.859  10.228   6.872
 3419POPC   C4A44754  37.049  10.141   7.255
 3419POPC   C1B44755  36.911  10.847   6.305
 3419POPC   C2B44756  36.988  10.848   6.733
 3419POPC   C3B44757  36.853  10.691   7.114
 3419POPC   C4B44758  36.695  10.862   7.507
 3420POPC   NC344759  38.157  31.867   5.476
 3420POPC   PO444760  38.570  31.265   5.493
 3420POPC   GL144761  38.483  31.558   5.806
 3420POPC   GL244762  38.174  31.430   5.789
 3420POPC   C1A44763  38.564  31.788   6.209
 3420POPC   D2A44764  38.784  31.923   6.571
 3420POPC   C3A44765  38.643  31.816   6.968
 3420POPC   C4A44766  38.662  31.629   7.380
 3420POPC   C1B44767  38.091  31.587   6.184
 3420POPC   C2B44768  38.231  31.670   6.599
 3420POPC   C3B44769  38.297  31.461   6.963
 3420POPC   C4B44770  38.096  31.522   7.284
 3421POPC   NC344771  35.107   3.063   5.540
 3421POPC   PO444772  34.450   2.911   5.457
 3421POPC   GL144773  34.748   2.765   5.765
 3421POPC   GL244774  34.490   2.751   5.990
 3421POPC   C1A44775  34.970   2.624   6.163
 3421POPC   D2A44776  34.812   2.704   6.566
 3421POPC   C3A44777  34.919   2.535   6.958
 3421POPC   C4A44778  34.777   2.664   7.376
 3421POPC   C1B44779  34.728   3.081   6.203
 3421POPC   C2B44780  34.686   3.220   6.600
 3421POPC   C3B44781  34.697   2.998   6.992
 3421POPC   C4B44782  34.796   3.177   7.389
 3422POPC   NC344783  11.475  18.307   5.400
 3422POPC   PO444784  10.981  17.855   5.360
 3422POPC   GL144785  11.129  18.057   5.749
 3422POPC   GL244786  11.481  17.924   5.803
 3422POPC   C1A44787  11.031  18.345   6.118
 3422POPC   D2A44788  11.038  18.589   6.529
 3422POPC   C3A44789  11.369  18.466   6.828
 3422POPC   C4A44790  11.222  18.404   7.217
 3422POPC   C1B44791  11.283  17.901   6.221
 3422POPC   C2B44792  11.110  18.072   6.585
 3422POPC   C3B44793  11.182  17.939   6.983
 3422POPC   C4B44794  11.567  18.042   7.183
 3423POPC   NC344795   4.848  17.657   5.558
 3423POPC   PO444796   4.180  17.602   5.437
 3423POPC   GL144797   4.206  17.445   5.819
 3423POPC   GL244798   4.522  17.469   5.880
 3423POPC   C1A44799   4.186  17.591   6.257
 3423POPC   D2A44800   4.235  17.402   6.656
 3423POPC   C3A44801   4.326  17.668   7.012
 3423POPC   C4A44802   4.256  17.573   7.452
 3423POPC   C1B44803   4.632  17.816   6.151
 3423POPC   C2B44804   4.655  17.749   6.587
 3423POPC   C3B44805   4.859  17.619   6.936
 3423POPC   C4B44806   4.760  17.548   7.314
 3424POPC   NC344807  38.755  41.103   5.030
 3424POPC   PO444808  38.651  41.741   5.303
 3424POPC   GL144809  38.445  41.564   5.729
 3424POPC   GL244810  38.185  41.285   5.721
 3424POPC   C1A44811  38.591  41.564   6.188
 3424POPC   D2A44812  38.673  41.303   6.601
 3424POPC   C3A44813  38.697  41.481   7.045
 3424POPC   C4A44814  38.496  41.873   7.234
 3424POPC   C1B44815  38.076  41.515   6.107
 3424POPC   C2B44816  38.210  41.625   6.528
 3424POPC   C3B44817  38.060  41.614   6.924
 3424POPC   C4B44818  38.235  41.429   7.258
 3425POPC   NC344819  16.936  42.652   5.524
 3425POPC   PO444820  16.948  43.367   5.523
 3425POPC   GL144821  16.594  43.237   5.809
 3425POPC   GL244822  16.642  42.889   5.876
 3425POPC   C1A44823  16.390  43.223   6.228
 3425POPC   D2A44824  16.550  43.028   6.629
 3425POPC   C3A44825  16.926  43.062   6.889
 3425POPC   C4A44826  16.979  43.063   7.323
 3425POPC   C1B44827  16.874  42.898   6.227
 3425POPC   C2B44828  16.915  42.654   6.591
 3425POPC   C3B44829  16.632  42.618   6.930
 3425POPC   C4B44830  16.518  42.919   7.196
 3426POPC   NC344831  25.471  40.477   5.508
 3426POPC   PO444832  24.795  40.491   5.557
 3426POPC   GL144833  25.002  40.814   5.855
 3426POPC   GL244834  25.388  40.846   5.895
 3426POPC   C1A44835  25.103  40.734   6.295
 3426POPC   D2A44836  24.924  40.599   6.685
 3426POPC   C3A44837  25.244  40.553   6.989
 3426POPC   C4A44838  25.030  40.716   7.304
 3426POPC   C1B44839  25.535  41.071   6.275
 3426POPC   C2B44840  25.434  41.022   6.721
 3426POPC   C3B44841  25.413  41.025   7.165
 3426POPC   C4B44842  25.589  40.813   7.501
 3427POPC   NC344843  34.100  33.493   5.740
 3427POPC   PO444844  33.503  33.726   5.416
 3427POPC   GL144845  33.684  33.807   5.832
 3427POPC   GL244846  33.990  33.962   5.974
 3427POPC   C1A44847  33.592  33.776   6.266
 3427POPC   D2A44848  33.440  33.983   6.632
 3427POPC   C3A44849  33.549  33.846   7.047
 3427POPC   C4A44850  33.554  34.045   7.435
 3427POPC   C1B44851  34.223  33.993   6.344
 3427POPC   C2B44852  34.324  33.693   6.661
 3427POPC   C3B44853  34.043  33.644   7.000
 3427POPC   C4B44854  34.020  34.028   7.242
 3428POPC   NC344855  42.811  36.431   5.452
 3428POPC   PO444856  42.332  36.038   5.505
 3428POPC   GL144857  42.317  36.212   5.911
 3428POPC   GL244858  42.039  36.438   5.884
 3428POPC   C1A44859  42.285  36.271   6.359
 3428POPC   D2A44860  42.182  35.996   6.681
 3428POPC   C3A44861  42.388  35.942   7.057
 3428POPC   C4A44862  42.550  36.269   7.287
 3428POPC   C1B44863  42.278  36.738   6.115
 3428POPC   C2B44864  42.428  36.748   6.531
 3428POPC   C3B44865  42.320  36.475   6.855
 3428POPC   C4B44866  42.191  36.630   7.219
 3429POPC   NC344867  35.047   8.540   5.686
 3429POPC   PO444868  35.671   8.415   5.461
 3429POPC   GL144869  35.758   8.326   5.891
 3429POPC   GL244870  35.398   8.269   6.020
 3429POPC   C1A44871  35.777   8.003   6.209
 3429POPC   D2A44872  35.451   8.002   6.537
 3429POPC   C3A44873  35.592   8.064   6.950
 3429POPC   C4A44874  35.690   8.419   7.222
 3429POPC   C1B44875  35.033   8.181   6.307
 3429POPC   C2B44876  34.851   8.416   6.602
 3429POPC   C3B44877  34.960   8.527   6.969
 3429POPC   C4B44878  35.181   8.231   7.191
 3430POPC   NC344879  10.944  25.234   5.569
 3430POPC   PO444880  11.626  25.127   5.451
 3430POPC   GL144881  11.414  25.340   5.834
 3430POPC   GL244882  11.086  25.243   6.048
 3430POPC   C1A44883  11.540  25.360   6.265
 3430POPC   D2A44884  11.341  25.360   6.672
 3430POPC   C3A44885  11.577  25.154   6.968
 3430POPC   C4A44886  11.480  24.939   7.307
 3430POPC   C1B44887  10.961  24.885   6.308
 3430POPC   C2B44888  10.788  24.876   6.728
 3430POPC   C3B44889  10.973  25.110   7.073
 3430POPC   C4B44890  10.995  25.035   7.514
 3431POPC   NC344891   4.184   3.187   5.239
 3431POPC   PO444892   4.243   3.864   5.403
 3431POPC   GL144893   4.339   3.815   5.880
 3431POPC   GL244894   4.573   3.586   5.982
 3431POPC   C1A44895   4.185   3.583   6.296
 3431POPC   D2A44896   4.426   3.483   6.688
 3431POPC   C3A44897   4.321   3.743   7.063
 3431POPC   C4A44898   4.036   3.790   7.400
 3431POPC   C1B44899   4.714   3.261   6.268
 3431POPC   C2B44900   4.704   3.037   6.663
 3431POPC   C3B44901   4.782   3.281   7.053
 3431POPC   C4B44902   4.791   3.658   7.315
 3432POPC   NC344903  25.316  42.738   5.446
 3432POPC   PO444904  25.219  42.037   5.338
 3432POPC   GL144905  25.220  42.280   5.745
 3432POPC   GL244906  25.503  42.169   5.901
 3432POPC   C1A44907  25.026  42.385   6.180
 3432POPC   D2A44908  25.026  42.224   6.592
 3432POPC   C3A44909  24.995  42.502   6.932
 3432POPC   C4A44910  25.113  42.379   7.321
 3432POPC   C1B44911  25.485  42.584   6.114
 3432POPC   C2B44912  25.402  42.618   6.580
 3432POPC   C3B44913  25.502  42.582   7.046
 3432POPC   C4B44914  25.534  42.614   7.477
 3433POPC   NC344915  12.634   8.856   5.462
 3433POPC   PO444916  13.039   9.359   5.361
 3433POPC   GL144917  12.904   9.166   5.786
 3433POPC   GL244918  12.532   9.192   5.858
 3433POPC   C1A44919  12.833   8.858   6.170
 3433POPC   D2A44920  12.742   8.868   6.636
 3433POPC   C3A44921  13.076   8.948   6.945
 3433POPC   C4A44922  13.268   9.166   7.312
 3433POPC   C1B44923  12.582   9.312   6.280
 3433POPC   C2B44924  12.417   9.287   6.668
 3433POPC   C3B44925  12.436   9.097   7.050
 3433POPC   C4B44926  12.729   8.919   7.305
 3434POPC   NC344927  10.307  18.999   5.585
 3434POPC   PO444928  10.832  19.490   5.479
 3434POPC   GL144929  10.721  19.214   5.837
 3434POPC   GL244930  10.406  19.209   6.037
 3434POPC   C1A44931  10.819  18.939   6.179
 3434POPC   D2A44932  10.842  19.079   6.594
 3434POPC   C3A44933  10.720  18.811   6.958
 3434POPC   C4A44934  10.892  18.757   7.390
 3434POPC   C1B44935  10.187  19.517   6.313
 3434POPC   C2B44936  10.279  19.552   6.733
 3434POPC   C3B44937  10.603  19.343   6.960
 3434POPC   C4B44938  10.771  19.261   7.315
 3435POPC   NC344939   4.565  40.917   5.600
 3435POPC   PO444940   3.994  40.602   5.381
 3435POPC   GL144941   4.012  40.712   5.808
 3435POPC   GL244942   4.337  40.598   5.908
 3435POPC   C1A44943   3.939  40.907   6.210
 3435POPC   D2A44944   4.094  41.010   6.617
 3435POPC   C3A44945   4.180  40.685   6.916
 3435POPC   C4A44946   4.224  40.986   7.224
 3435POPC   C1B44947   4.461  40.915   6.243
 3435POPC   C2B44948   4.644  40.958   6.648
 3435POPC   C3B44949   4.653  41.207   6.993
 3435POPC   C4B44950   4.710  41.030   7.399
 3436POPC   NC344951   5.498  24.212   5.315
 3436POPC   PO444952   5.963  23.730   5.381
 3436POPC   GL144953   5.912  23.802   5.827
 3436POPC   GL244954   5.653  24.089   5.845
 3436POPC   C1A44955   6.138  23.616   6.217
 3436POPC   D2A44956   6.226  23.383   6.619
 3436POPC   C3A44957   5.905  23.470   6.960
 3436POPC   C4A44958   5.897  23.798   7.284
 3436POPC   C1B44959   5.819  24.017   6.295
 3436POPC   C2B44960   5.809  23.963   6.765
 3436POPC   C3B44961   5.482  24.054   7.081
 3436POPC   C4B44962   5.494  24.012   7.551
 3437POPC   NC344963  40.971  21.592   5.409
 3437POPC   PO444964  40.240  21.679   5.437
 3437POPC   GL144965  40.618  21.629   5.808
 3437POPC   GL244966  40.994  21.554   5.922
 3437POPC   C1A44967  40.612  21.359   6.211
 3437POPC   D2A44968  40.484  21.151   6.608
 3437POPC   C3A44969  40.670  21.288   7.001
 3437POPC   C4A44970  40.639  21.588   7.310
 3437POPC   C1B44971  41.104  21.153   6.165
 3437POPC   C2B44972  41.121  20.986   6.577
 3437POPC   C3B44973  41.229  21.194   6.974
 3437POPC   C4B44974  41.122  21.419   7.336
 3438POPC   NC344975  39.143  40.917   5.377
 3438POPC   PO444976  39.721  40.508   5.421
 3438POPC   GL144977  39.374  40.513   5.800
 3438POPC   GL244978  39.032  40.712   5.835
 3438POPC   C1A44979  39.306  40.666   6.275
 3438POPC   D2A44980  39.500  40.684   6.713
 3438POPC   C3A44981  39.284  40.618   7.135
 3438POPC   C4A44982  39.013  40.739   7.502
 3438POPC   C1B44983  38.798  40.788   6.256
 3438POPC   C2B44984  38.873  40.828   6.719
 3438POPC   C3B44985  38.993  41.051   7.101
 3438POPC   C4B44986  39.025  41.301   7.503
 3439POPC   NC344987  15.196  39.324   5.354
 3439POPC   PO444988  14.600  39.596   5.238
 3439POPC   GL144989  14.910  39.576   5.705
 3439POPC   GL244990  15.298  39.462   5.799
 3439POPC   C1A44991  15.035  39.570   6.199
 3439POPC   D2A44992  14.980  39.337   6.627
 3439POPC   C3A44993  14.956  39.587   6.987
 3439POPC   C4A44994  14.946  39.718   7.414
 3439POPC   C1B44995  15.550  39.279   6.085
 3439POPC   C2B44996  15.477  39.437   6.490
 3439POPC   C3B44997  15.572  39.323   6.908
 3439POPC   C4B44998  15.295  39.287   7.210
 3440POPC   NC344999  32.707  35.874   5.168
 3440POPC   PO445000  32.347  35.748   5.687
 3440POPC   GL145001  32.269  36.119   5.915
 3440POPC   GL245002  32.603  36.233   5.766
 3440POPC   C1A45003  32.057  36.147   6.342
 3440POPC   D2A45004  31.970  35.819   6.702
 3440POPC   C3A45005  32.202  35.908   7.092
 3440POPC   C4A45006  32.116  36.089   7.484
 3440POPC   C1B45007  32.577  36.310   6.237
 3440POPC   C2B45008  32.465  36.117   6.648
 3440POPC   C3B45009  32.455  36.346   7.025
 3440POPC   C4B45010  32.616  36.218   7.411
 3441POPC   NC345011  12.908  31.159   5.450
 3441POPC   PO445012  12.405  31.593   5.471
 3441POPC   GL145013  12.746  31.527   5.817
 3441POPC   GL245014  12.992  31.827   5.885
 3441POPC   C1A45015  12.707  31.257   6.215
 3441POPC   D2A45016  12.739  31.390   6.644
 3441POPC   C3A45017  12.685  31.206   7.052
 3441POPC   C4A45018  12.638  31.520   7.335
 3441POPC   C1B45019  12.903  31.774   6.303
 3441POPC   C2B45020  13.167  31.662   6.646
 3441POPC   C3B45021  13.075  31.555   7.055
 3441POPC   C4B45022  12.996  31.863   7.370
 3442POPC   NC345023  32.536   5.560   5.420
 3442POPC   PO445024  32.069   5.075   5.377
 3442POPC   GL145025  32.123   4.895   5.811
 3442POPC   GL245026  32.149   5.232   5.888
 3442POPC   C1A45027  32.233   4.925   6.289
 3442POPC   D2A45028  32.487   5.138   6.639
 3442POPC   C3A45029  32.298   4.987   7.011
 3442POPC   C4A45030  31.952   4.703   6.967
 3442POPC   C1B45031  32.238   5.423   6.285
 3442POPC   C2B45032  31.982   5.330   6.647
 3442POPC   C3B45033  31.999   5.431   7.064
 3442POPC   C4B45034  32.113   5.428   7.464
 3443POPC   NC345035  32.912  33.356   5.383
 3443POPC   PO445036  33.341  32.781   5.290
 3443POPC   GL145037  33.261  32.848   5.725
 3443POPC   GL245038  32.897  32.857   5.807
 3443POPC   C1A45039  33.262  33.043   6.130
 3443POPC   D2A45040  33.040  32.918   6.495
 3443POPC   C3A45041  33.206  33.106   6.846
 3443POPC   C4A45042  33.288  32.947   7.248
 3443POPC   C1B45043  32.786  33.214   6.124
 3443POPC   C2B45044  32.641  33.269   6.574
 3443POPC   C3B45045  32.720  33.142   6.999
 3443POPC   C4B45046  33.013  33.381   7.222
 3444POPC   NC345047  25.131   7.376   5.397
 3444POPC   PO445048  25.686   7.789   5.483
 3444POPC   GL145049  25.463   7.551   5.848
 3444POPC   GL245050  25.106   7.476   5.895
 3444POPC   C1A45051  25.346   7.492   6.329
 3444POPC   D2A45052  25.480   7.235   6.666
 3444POPC   C3A45053  25.431   7.467   7.062
 3444POPC   C4A45054  25.090   7.630   7.261
 3444POPC   C1B45055  25.066   7.090   6.122
 3444POPC   C2B45056  25.010   7.029   6.573
 3444POPC   C3B45057  24.948   7.125   7.033
 3444POPC   C4B45058  24.786   6.895   7.416
 3445POPC   NC345059   5.460  40.286   5.403
 3445POPC   PO445060   4.847  40.085   5.314
 3445POPC   GL145061   4.987  40.027   5.736
 3445POPC   GL245062   5.327  39.900   5.714
 3445POPC   C1A45063   4.919  39.926   6.182
 3445POPC   D2A45064   4.790  39.777   6.596
 3445POPC   C3A45065   5.007  39.906   6.988
 3445POPC   C4A45066   4.876  39.730   7.385
 3445POPC   C1B45067   5.460  39.944   6.131
 3445POPC   C2B45068   5.310  39.898   6.538
 3445POPC   C3B45069   5.496  39.747   6.882
 3445POPC   C4B45070   5.379  39.751   7.290
 3446POPC   NC345071  29.468  39.382   5.450
 3446POPC   PO445072  28.901  39.132   5.608
 3446POPC   GL145073  29.237  39.164   5.896
 3446POPC   GL245074  29.415  38.856   5.829
 3446POPC   C1A45075  29.132  39.429   6.250
 3446POPC   D2A45076  28.843  39.605   6.563
 3446POPC   C3A45077  28.978  39.484   6.940
 3446POPC   C4A45078  28.931  39.324   7.317
 3446POPC   C1B45079  29.574  38.939   6.248
 3446POPC   C2B45080  29.409  39.157   6.603
 3446POPC   C3B45081  29.302  39.082   7.004
 3446POPC   C4B45082  29.463  38.859   7.351
 3447POPC   NC345083  36.571  26.984   5.522
 3447POPC   PO445084  37.180  26.906   5.375
 3447POPC   GL145085  37.004  26.849   5.776
 3447POPC   GL245086  36.988  26.496   5.778
 3447POPC   C1A45087  36.914  26.820   6.212
 3447POPC   D2A45088  36.652  26.722   6.559
 3447POPC   C3A45089  36.935  26.738   6.878
 3447POPC   C4A45090  37.082  26.901   7.227
 3447POPC   C1B45091  37.228  26.441   6.188
 3447POPC   C2B45092  37.386  26.646   6.588
 3447POPC   C3B45093  37.345  26.476   7.036
 3447POPC   C4B45094  36.962  26.371   7.317
 3448POPC   NC345095  33.440  24.431   4.971
 3448POPC   PO445096  32.926  24.528   5.329
 3448POPC   GL145097  32.951  24.485   5.749
 3448POPC   GL245098  33.290  24.387   5.706
 3448POPC   C1A45099  32.825  24.390   6.178
 3448POPC   D2A45100  32.715  24.532   6.584
 3448POPC   C3A45101  32.930  24.400   6.899
 3448POPC   C4A45102  33.057  24.423   7.296
 3448POPC   C1B45103  33.307  24.636   6.099
 3448POPC   C2B45104  33.214  24.639   6.533
 3448POPC   C3B45105  33.341  24.764   6.953
 3448POPC   C4B45106  33.543  24.591   7.313
 3449POPC   NC345107  30.766   5.876   5.242
 3449POPC   PO445108  30.472   5.423   5.629
 3449POPC   GL145109  30.590   5.686   5.927
 3449POPC   GL245110  30.673   5.982   5.745
 3449POPC   C1A45111  30.484   5.740   6.340
 3449POPC   D2A45112  30.778   5.770   6.659
 3449POPC   C3A45113  30.567   5.688   7.042
 3449POPC   C4A45114  30.767   5.751   7.445
 3449POPC   C1B45115  30.718   6.152   6.167
 3449POPC   C2B45116  30.530   6.204   6.573
 3449POPC   C3B45117  30.680   6.171   6.972
 3449POPC   C4B45118  30.479   6.148   7.377
 3450POPC   NC345119  39.210  21.042   5.604
 3450POPC   PO445120  39.135  21.715   5.411
 3450POPC   GL145121  39.349  21.508   5.770
 3450POPC   GL245122  38.991  21.436   5.876
 3450POPC   C1A45123  39.494  21.391   6.216
 3450POPC   D2A45124  39.622  21.483   6.654
 3450POPC   C3A45125  39.459  21.378   7.063
 3450POPC   C4A45126  39.333  21.281   7.489
 3450POPC   C1B45127  39.007  21.536   6.319
 3450POPC   C2B45128  39.135  21.266   6.670
 3450POPC   C3B45129  38.995  21.144   7.092
 3450POPC   C4B45130  38.871  21.455   7.393
 3451POPC   NC345131  41.765  32.091   5.693
 3451POPC   PO445132  41.107  32.177   5.547
 3451POPC   GL145133  41.309  32.245   5.904
 3451POPC   GL245134  41.327  31.924   5.930
 3451POPC   C1A45135  41.516  32.195   6.307
 3451POPC   D2A45136  41.537  32.391   6.681
 3451POPC   C3A45137  41.891  32.402   6.947
 3451POPC   C4A45138  41.898  32.316   7.393
 3451POPC   C1B45139  41.045  31.956   6.276
 3451POPC   C2B45140  41.258  31.930   6.675
 3451POPC   C3B45141  41.525  32.007   7.064
 3451POPC   C4B45142  41.534  31.993   7.512
 3452POPC   NC345143   4.637   4.086   5.495
 3452POPC   PO445144   4.422   4.699   5.332
 3452POPC   GL145145   4.360   4.508   5.734
 3452POPC   GL245146   4.108   4.245   5.735
 3452POPC   C1A45147   4.454   4.290   6.120
 3452POPC   D2A45148   4.395   4.491   6.504
 3452POPC   C3A45149   4.320   4.354   6.906
 3452POPC   C4A45150   4.554   4.559   7.218
 3452POPC   C1B45151   3.998   4.064   6.170
 3452POPC   C2B45152   4.062   3.965   6.618
 3452POPC   C3B45153   3.895   4.081   7.008
 3452POPC   C4B45154   4.074   4.323   7.384
 3453POPC   NC345155  12.694   0.148   5.537
 3453POPC   PO445156  12.904   0.765   5.357
 3453POPC   GL145157  12.994   0.527   5.769
 3453POPC   GL245158  13.126   0.168   5.809
 3453POPC   C1A45159  12.980   0.695   6.199
 3453POPC   D2A45160  12.945   0.939   6.562
 3453POPC   C3A45161  12.723   0.747   6.875
 3453POPC   C4A45162  13.046   0.871   7.169
 3453POPC   C1B45163  13.222   0.257   6.230
 3453POPC   C2B45164  12.982   0.356   6.623
 3453POPC   C3B45165  12.967   0.338   7.085
 3453POPC   C4B45166  13.030   0.062   7.419
 3454POPC   NC345167  28.154  37.060   5.338
 3454POPC   PO445168  28.697  36.650   5.504
 3454POPC   GL145169  28.530  36.915   5.886
 3454POPC   GL245170  28.186  36.891   5.938
 3454POPC   C1A45171  28.434  37.048   6.371
 3454POPC   D2A45172  28.676  36.968   6.758
 3454POPC   C3A45173  28.478  37.011   7.128
 3454POPC   C4A45174  28.282  36.661   7.294
 3454POPC   C1B45175  28.192  36.608   6.325
 3454POPC   C2B45176  28.158  36.764   6.777
 3454POPC   C3B45177  27.999  37.147   7.037
 3454POPC   C4B45178  28.128  37.195   7.490
 3455POPC   NC345179  36.255   0.948   5.553
 3455POPC   PO445180  35.971   1.506   5.267
 3455POPC   GL145181  35.943   1.375   5.741
 3455POPC   GL245182  35.857   1.028   5.855
 3455POPC   C1A45183  35.901   1.517   6.203
 3455POPC   D2A45184  35.702   1.560   6.608
 3455POPC   C3A45185  35.935   1.529   7.022
 3455POPC   C4A45186  36.394   1.540   7.038
 3455POPC   C1B45187  36.199   1.100   6.190
 3455POPC   C2B45188  36.188   1.292   6.605
 3455POPC   C3B45189  36.172   1.070   6.978
 3455POPC   C4B45190  36.520   0.950   7.226
 3456POPC   NC345191  31.738  34.546   5.442
 3456POPC   PO445192  32.436  34.542   5.347
 3456POPC   GL145193  32.199  34.428   5.693
 3456POPC   GL245194  32.088  34.744   5.787
 3456POPC   C1A45195  32.373  34.321   6.072
 3456POPC   D2A45196  32.547  34.397   6.455
 3456POPC   C3A45197  32.249  34.314   6.772
 3456POPC   C4A45198  32.266  34.284   7.219
 3456POPC   C1B45199  32.330  34.820   6.141
 3456POPC   C2B45200  32.194  34.797   6.558
 3456POPC   C3B45201  32.038  34.747   6.983
 3456POPC   C4B45202  32.117  35.000   7.327
 3457POPC   NC345203   2.232   2.362   5.606
 3457POPC   PO445204   2.025   2.877   5.234
 3457POPC   GL145205   1.999   2.948   5.712
 3457POPC   GL245206   2.262   2.780   5.900
 3457POPC   C1A45207   1.854   2.917   6.182
 3457POPC   D2A45208   1.883   2.721   6.615
 3457POPC   C3A45209   1.787   2.959   6.966
 3457POPC   C4A45210   2.049   3.027   7.298
 3457POPC   C1B45211   2.160   2.482   6.257
 3457POPC   C2B45212   2.247   2.365   6.698
 3457POPC   C3B45213   2.057   2.545   7.094
 3457POPC   C4B45214   1.975   2.358   7.500
 3458POPC   NC345215  28.683   5.782   5.587
 3458POPC   PO445216  29.303   5.862   5.342
 3458POPC   GL145217  29.101   6.050   5.747
 3458POPC   GL245218  28.847   6.323   5.731
 3458POPC   C1A45219  28.988   5.873   6.212
 3458POPC   D2A45220  28.975   5.570   6.621
 3458POPC   C3A45221  29.247   5.658   7.001
 3458POPC   C4A45222  29.407   6.046   7.213
 3458POPC   C1B45223  29.004   6.410   6.133
 3458POPC   C2B45224  28.866   6.333   6.548
 3458POPC   C3B45225  28.899   6.052   6.894
 3458POPC   C4B45226  28.866   5.885   7.291
 3459POPC   NC345227  35.777  44.520   5.561
 3459POPC   PO445228  36.373  44.724   5.501
 3459POPC   GL145229  36.112  44.788   5.857
 3459POPC   GL245230  36.046  44.457   5.981
 3459POPC   C1A45231  36.020  44.851   6.291
 3459POPC   D2A45232  36.206  44.745   6.658
 3459POPC   C3A45233  35.935  44.706   6.989
 3459POPC   C4A45234  35.729  44.875   7.348
 3459POPC   C1B45235  36.134  44.311   6.396
 3459POPC   C2B45236  35.950  44.229   6.791
 3459POPC   C3B45237  36.121  44.268   7.198
 3459POPC   C4B45238  36.181  44.645   7.439
 3460POPC   NC345239   8.541  34.456   5.471
 3460POPC   PO445240   9.189  34.227   5.405
 3460POPC   GL145241   9.313  34.377   5.830
 3460POPC   GL245242   9.347  34.736   5.845
 3460POPC   C1A45243   9.197  34.407   6.261
 3460POPC   D2A45244   9.319  34.572   6.654
 3460POPC   C3A45245   8.968  34.494   6.894
 3460POPC   C4A45246   8.810  34.131   7.062
 3460POPC   C1B45247   9.254  34.941   6.259
 3460POPC   C2B45248   9.200  35.099   6.690
 3460POPC   C3B45249   9.258  34.887   7.061
 3460POPC   C4B45250   8.982  34.730   7.346
 3461POPC   NC345251   3.071  39.883   5.370
 3461POPC   PO445252   2.656  40.336   5.403
 3461POPC   GL145253   2.664  40.019   5.761
 3461POPC   GL245254   2.971  39.805   5.860
 3461POPC   C1A45255   2.658  39.937   6.224
 3461POPC   D2A45256   2.710  39.652   6.586
 3461POPC   C3A45257   2.764  39.919   6.976
 3461POPC   C4A45258   2.598  40.093   7.343
 3461POPC   C1B45259   3.159  39.741   6.254
 3461POPC   C2B45260   3.153  39.886   6.661
 3461POPC   C3B45261   3.238  39.708   7.064
 3461POPC   C4B45262   2.964  39.742   7.439
 3462POPC   NC345263  34.060  42.985   5.442
 3462POPC   PO445264  33.435  43.085   5.464
 3462POPC   GL145265  33.716  43.112   5.818
 3462POPC   GL245266  33.922  42.826   5.904
 3462POPC   C1A45267  33.711  43.139   6.263
 3462POPC   D2A45268  33.911  43.310   6.632
 3462POPC   C3A45269  33.654  43.226   6.991
 3462POPC   C4A45270  33.860  43.119   7.360
 3462POPC   C1B45271  33.991  42.708   6.337
 3462POPC   C2B45272  33.860  42.799   6.750
 3462POPC   C3B45273  34.068  42.695   7.125
 3462POPC   C4B45274  33.958  42.674   7.575
 3463POPC   NC345275  24.309  20.234   5.399
 3463POPC   PO445276  24.671  20.794   5.395
 3463POPC   GL145277  24.515  20.542   5.774
 3463POPC   GL245278  24.258  20.755   5.892
 3463POPC   C1A45279  24.460  20.397   6.229
 3463POPC   D2A45280  24.576  20.164   6.617
 3463POPC   C3A45281  24.443  20.328   6.986
 3463POPC   C4A45282  24.626  20.430   7.371
 3463POPC   C1B45283  24.410  20.904   6.289
 3463POPC   C2B45284  24.575  20.727   6.647
 3463POPC   C3B45285  24.472  20.830   7.050
 3463POPC   C4B45286  24.292  20.828   7.477
 3464POPC   NC345287   8.143   1.986   5.383
 3464POPC   PO445288   8.696   1.944   5.718
 3464POPC   GL145289   8.308   1.864   5.872
 3464POPC   GL245290   8.113   2.200   5.833
 3464POPC   C1A45291   8.300   1.636   6.273
 3464POPC   D2A45292   8.435   1.813   6.657
 3464POPC   C3A45293   8.229   1.722   7.042
 3464POPC   C4A45294   8.368   1.943   7.428
 3464POPC   C1B45295   8.010   2.068   6.254
 3464POPC   C2B45296   7.918   1.924   6.678
 3464POPC   C3B45297   8.036   2.199   7.025
 3464POPC   C4B45298   8.124   2.387   7.433
 3465POPC   NC345299  13.692  41.150   5.630
 3465POPC   PO445300  13.749  41.747   5.268
 3465POPC   GL145301  13.675  41.721   5.681
 3465POPC   GL245302  13.362  41.592   5.778
 3465POPC   C1A45303  13.818  41.660   6.078
 3465POPC   D2A45304  13.876  41.836   6.466
 3465POPC   C3A45305  13.961  41.567   6.779
 3465POPC   C4A45306  13.903  41.639   7.220
 3465POPC   C1B45307  13.370  41.419   6.179
 3465POPC   C2B45308  13.498  41.435   6.588
 3465POPC   C3B45309  13.459  41.437   7.021
 3465POPC   C4B45310  13.406  41.820   7.229
 3466POPC   NC345311  44.285  44.683   5.477
 3466POPC   PO445312  43.611  44.365   5.397
 3466POPC   GL145313  43.642  44.553   5.811
 3466POPC   GL245314  43.988  44.611   5.892
 3466POPC   C1A45315  43.678  44.493   6.274
 3466POPC   D2A45316  43.881  44.728   6.589
 3466POPC   C3A45317  43.659  44.789   6.923
 3466POPC   C4A45318  43.621  44.625   7.309
 3466POPC   C1B45319  44.289  44.889   6.108
 3466POPC   C2B45320  44.496  44.897   6.491
 3466POPC   C3B45321  44.315  44.850   6.877
 3466POPC   C4B45322  44.077  44.806   7.231
 3467POPC   NC345323  29.462  43.407   5.460
 3467POPC   PO445324  29.061  42.954   5.302
 3467POPC   GL145325  29.256  42.976   5.754
 3467POPC   GL245326  29.206  43.286   5.868
 3467POPC   C1A45327  29.417  42.993   6.210
 3467POPC   D2A45328  29.306  42.795   6.590
 3467POPC   C3A45329  29.283  42.981   6.988
 3467POPC   C4A45330  28.979  42.980   7.340
 3467POPC   C1B45331  29.074  43.467   6.220
 3467POPC   C2B45332  29.138  43.359   6.627
 3467POPC   C3B45333  28.939  43.363   7.006
 3467POPC   C4B45334  29.184  43.450   7.357
 3468POPC   NC345335   4.680  42.519   5.623
 3468POPC   PO445336   5.221  42.078   5.614
 3468POPC   GL145337   4.943  42.151   5.932
 3468POPC   GL245338   4.687  41.927   5.917
 3468POPC   C1A45339   4.912  42.442   6.278
 3468POPC   D2A45340   5.192  42.597   6.589
 3468POPC   C3A45341   5.109  42.487   6.997
 3468POPC   C4A45342   4.978  42.636   7.357
 3468POPC   C1B45343   4.720  41.952   6.380
 3468POPC   C2B45344   4.641  42.271   6.700
 3468POPC   C3B45345   4.636  42.325   7.143
 3468POPC   C4B45346   4.632  42.065   7.491
 3469POPC   NC345347  38.914  39.383   5.442
 3469POPC   PO445348  39.570  39.245   5.246
 3469POPC   GL145349  39.482  39.462   5.632
 3469POPC   GL245350  39.215  39.256   5.834
 3469POPC   C1A45351  39.565  39.539   6.063
 3469POPC   D2A45352  39.441  39.265   6.448
 3469POPC   C3A45353  39.444  39.391   6.893
 3469POPC   C4A45354  39.361  39.162   7.249
 3469POPC   C1B45355  38.957  39.197   6.211
 3469POPC   C2B45356  38.955  39.347   6.636
 3469POPC   C3B45357  38.919  39.160   7.010
 3469POPC   C4B45358  38.920  38.977   7.395
 3470POPC   NC345359  34.432  11.029   5.484
 3470POPC   PO445360  34.810  11.570   5.395
 3470POPC   GL145361  34.591  11.440   5.800
 3470POPC   GL245362  34.609  11.077   5.949
 3470POPC   C1A45363  34.633  11.540   6.242
 3470POPC   D2A45364  34.621  11.350   6.640
 3470POPC   C3A45365  34.748  11.581   7.011
 3470POPC   C4A45366  34.536  11.452   7.318
 3470POPC   C1B45367  34.301  11.116   6.284
 3470POPC   C2B45368  34.070  11.098   6.689
 3470POPC   C3B45369  34.178  11.150   7.136
 3470POPC   C4B45370  34.251  11.157   7.621
 3471POPC   NC345371  19.900   6.122   5.468
 3471POPC   PO445372  19.654   5.479   5.424
 3471POPC   GL145373  19.651   5.744   5.800
 3471POPC   GL245374  19.973   5.800   5.859
 3471POPC   C1A45375  19.677   5.877   6.258
 3471POPC   D2A45376  19.845   5.720   6.638
 3471POPC   C3A45377  19.687   5.888   7.001
 3471POPC   C4A45378  19.671   5.643   7.364
 3471POPC   C1B45379  20.182   5.898   6.232
 3471POPC   C2B45380  20.123   6.145   6.572
 3471POPC   C3B45381  20.231   6.132   6.963
 3471POPC   C4B45382  20.038   6.050   7.352
 3472POPC   NC345383   0.496  38.163   5.574
 3472POPC   PO445384   0.202  38.756   5.472
 3472POPC   GL145385   0.257  38.600   5.854
 3472POPC   GL245386   0.596  38.489   5.949
 3472POPC   C1A45387   0.271  38.753   6.250
 3472POPC   D2A45388   0.238  38.519   6.600
 3472POPC   C3A45389   0.513  38.625   6.915
 3472POPC   C4A45390   0.525  38.708   7.331
 3472POPC   C1B45391   0.694  38.351   6.376
 3472POPC   C2B45392   0.557  38.136   6.766
 3472POPC   C3B45393   0.792  38.254   7.147
 3472POPC   C4B45394   0.767  38.329   7.608
 3473POPC   NC345395  38.725  20.647   5.016
 3473POPC   PO445396  39.228  20.594   5.433
 3473POPC   GL145397  39.159  20.573   5.838
 3473POPC   GL245398  38.880  20.793   5.919
 3473POPC   C1A45399  39.383  20.522   6.201
 3473POPC   D2A45400  39.333  20.731   6.578
 3473POPC   C3A45401  39.375  20.465   6.928
 3473POPC   C4A45402  39.336  20.628   7.336
 3473POPC   C1B45403  38.820  20.499   6.244
 3473POPC   C2B45404  38.897  20.395   6.672
 3473POPC   C3B45405  38.890  20.597   7.080
 3473POPC   C4B45406  38.876  20.386   7.489
 3474POPC   NC345407   3.574  29.739   5.392
 3474POPC   PO445408   3.226  30.343   5.342
 3474POPC   GL145409   3.394  30.053   5.729
 3474POPC   GL245410   3.757  30.099   5.782
 3474POPC   C1A45411   3.523  29.875   6.185
 3474POPC   D2A45412   3.368  30.057   6.598
 3474POPC   C3A45413   3.507  30.078   7.024
 3474POPC   C4A45414   3.430  29.707   7.222
 3474POPC   C1B45415   3.839  30.261   6.225
 3474POPC   C2B45416   3.884  30.086   6.666
 3474POPC   C3B45417   3.953  29.838   7.072
 3474POPC   C4B45418   3.806  30.001   7.484
 3475POPC   NC345419  12.644  40.338   5.601
 3475POPC   PO445420  13.084  39.869   5.425
 3475POPC   GL145421  13.012  40.007   5.827
 3475POPC   GL245422  12.658  39.922   5.905
 3475POPC   C1A45423  13.017  40.047   6.265
 3475POPC   D2A45424  12.773  39.758   6.483
 3475POPC   C3A45425  12.695  39.905   6.901
 3475POPC   C4A45426  12.870  40.225   7.147
 3475POPC   C1B45427  12.497  40.177   6.268
 3475POPC   C2B45428  12.304  40.357   6.658
 3475POPC   C3B45429  12.348  40.267   7.100
 3475POPC   C4B45430  12.529  40.371   7.505
 3476POPC   NC345431  17.075   7.098   5.653
 3476POPC   PO445432  16.623   7.519   5.345
 3476POPC   GL145433  16.625   7.451   5.764
 3476POPC   GL245434  16.960   7.570   5.797
 3476POPC   C1A45435  16.552   7.342   6.221
 3476POPC   D2A45436  16.591   7.109   6.632
 3476POPC   C3A45437  16.875   7.316   6.933
 3476POPC   C4A45438  16.625   7.466   7.313
 3476POPC   C1B45439  16.755   7.813   6.103
 3476POPC   C2B45440  16.859   7.824   6.515
 3476POPC   C3B45441  16.690   7.776   6.891
 3476POPC   C4B45442  16.736   7.971   7.254
 3477POPC   NC345443  22.319  43.872   5.487
 3477POPC   PO445444  22.192  44.476   5.252
 3477POPC   GL145445  22.454  44.285   5.721
 3477POPC   GL245446  22.276  43.911   5.969
 3477POPC   C1A45447  22.429  44.303   6.189
 3477POPC   D2A45448  22.064  44.132   6.450
 3477POPC   C3A45449  22.077  44.182   6.900
 3477POPC   C4A45450  22.362  44.005   7.223
 3477POPC   C1B45451  22.322  43.587   6.295
 3477POPC   C2B45452  22.365  43.644   6.759
 3477POPC   C3B45453  22.005  43.673   7.063
 3477POPC   C4B45454  21.597  43.495   7.182
 3478POPC   NC345455  13.423  40.197   5.491
 3478POPC   PO445456  13.879  39.619   5.380
 3478POPC   GL145457  13.685  39.816   5.735
 3478POPC   GL245458  13.881  40.152   5.749
 3478POPC   C1A45459  13.522  39.999   6.116
 3478POPC   D2A45460  13.561  40.179   6.525
 3478POPC   C3A45461  13.264  40.025   6.840
 3478POPC   C4A45462  13.344  40.082   7.254
 3478POPC   C1B45463  14.007  40.218   6.193
 3478POPC   C2B45464  14.096  40.103   6.613
 3478POPC   C3B45465  13.843  40.064   6.993
 3478POPC   C4B45466  13.797  40.361   7.331
 3479POPC   NC345467  35.500   8.001   5.581
 3479POPC   PO445468  35.440   7.431   5.402
 3479POPC   GL145469  35.451   7.445   5.820
 3479POPC   GL245470  35.599   7.125   5.844
 3479POPC   C1A45471  35.297   7.649   6.184
 3479POPC   D2A45472  35.163   7.508   6.585
 3479POPC   C3A45473  35.076   7.827   6.855
 3479POPC   C4A45474  35.301   7.711   7.205
 3479POPC   C1B45475  35.385   7.131   6.246
 3479POPC   C2B45476  35.558   7.183   6.661
 3479POPC   C3B45477  35.400   7.093   7.071
 3479POPC   C4B45478  35.563   6.955   7.466
 3480POPC   NC345479   2.364  12.114   5.390
 3480POPC   PO445480   2.938  11.796   5.246
 3480POPC   GL145481   2.923  11.753   5.735
 3480POPC   GL245482   2.576  11.856   5.781
 3480POPC   C1A45483   2.934  11.960   6.184
 3480POPC   D2A45484   3.185  12.256   6.482
 3480POPC   C3A45485   3.082  12.194   6.927
 3480POPC   C4A45486   3.172  11.873   7.229
 3480POPC   C1B45487   2.430  12.099   6.134
 3480POPC   C2B45488   2.420  11.886   6.522
 3480POPC   C3B45489   2.606  11.936   6.927
 3480POPC   C4B45490   2.572  12.354   7.121
 3481POPC   NC345491  16.281  16.686   5.311
 3481POPC   PO445492  15.683  16.759   5.440
 3481POPC   GL145493  15.891  16.738   5.824
 3481POPC   GL245494  16.035  17.064   5.907
 3481POPC   C1A45495  15.742  16.570   6.227
 3481POPC   D2A45496  15.702  16.362   6.634
 3481POPC   C3A45497  15.845  16.506   7.018
 3481POPC   C4A45498  16.215  16.606   7.209
 3481POPC   C1B45499  16.043  16.974   6.339
 3481POPC   C2B45500  16.099  16.905   6.778
 3481POPC   C3B45501  16.070  17.101   7.186
 3481POPC   C4B45502  16.256  17.090   7.609
 3482POPC   NC345503  30.845  38.357   5.479
 3482POPC   PO445504  30.314  38.792   5.657
 3482POPC   GL145505  30.586  38.495   5.939
 3482POPC   GL245506  30.962  38.453   5.955
 3482POPC   C1A45507  30.726  38.511   6.394
 3482POPC   D2A45508  30.911  38.496   6.804
 3482POPC   C3A45509  30.586  38.468   7.128
 3482POPC   C4A45510  30.347  38.383   7.514
 3482POPC   C1B45511  30.963  38.060   6.196
 3482POPC   C2B45512  30.897  38.003   6.652
 3482POPC   C3B45513  30.907  38.065   7.104
 3482POPC   C4B45514  31.267  38.078   7.355
 3483POPC   NC345515  37.532   3.974   5.510
 3483POPC   PO445516  37.796   3.484   5.270
 3483POPC   GL145517  37.737   3.457   5.739
 3483POPC   GL245518  37.853   3.768   5.859
 3483POPC   C1A45519  37.574   3.491   6.191
 3483POPC   D2A45520  37.501   3.289   6.609
 3483POPC   C3A45521  37.371   3.449   7.012
 3483POPC   C4A45522  37.652   3.287   7.344
 3483POPC   C1B45523  37.972   3.839   6.278
 3483POPC   C2B45524  37.940   3.589   6.593
 3483POPC   C3B45525  37.857   3.590   7.022
 3483POPC   C4B45526  37.894   3.716   7.510
 3484POPC   NC345527  26.728  15.837   5.612
 3484POPC   PO445528  26.169  15.878   5.201
 3484POPC   GL145529  26.025  16.026   5.675
 3484POPC   GL245530  25.946  15.727   5.862
 3484POPC   C1A45531  26.062  16.115   6.179
 3484POPC   D2A45532  25.937  15.951   6.613
 3484POPC   C3A45533  26.092  16.105   7.001
 3484POPC   C4A45534  26.144  16.432   7.259
 3484POPC   C1B45535  26.182  15.622   6.277
 3484POPC   C2B45536  26.344  15.657   6.719
 3484POPC   C3B45537  26.107  15.611   7.084
 3484POPC   C4B45538  25.697  15.777   7.070
 3485POPC   NC345539  25.082   5.794   5.232
 3485POPC   PO445540  25.508   6.261   5.395
 3485POPC   GL145541  25.196   6.048   5.668
 3485POPC   GL245542  25.401   5.784   5.770
 3485POPC   C1A45543  25.025   6.014   6.095
 3485POPC   D2A45544  25.109   5.955   6.524
 3485POPC   C3A45545  25.010   5.765   6.895
 3485POPC   C4A45546  25.148   6.119   7.137
 3485POPC   C1B45547  25.528   5.855   6.185
 3485POPC   C2B45548  25.547   5.736   6.596
 3485POPC   C3B45549  25.483   5.641   7.011
 3485POPC   C4B45550  25.527   5.879   7.365
 3486POPC   NC345551  25.661  41.246   5.632
 3486POPC   PO445552  26.097  41.712   5.298
 3486POPC   GL145553  26.066  41.548   5.701
 3486POPC   GL245554  25.760  41.751   5.744
 3486POPC   C1A45555  26.057  41.343   6.143
 3486POPC   D2A45556  26.231  41.482   6.528
 3486POPC   C3A45557  26.151  41.296   6.940
 3486POPC   C4A45558  26.282  41.291   7.360
 3486POPC   C1B45559  25.626  41.633   6.170
 3486POPC   C2B45560  25.735  41.459   6.565
 3486POPC   C3B45561  25.576  41.488   6.953
 3486POPC   C4B45562  25.772  41.352   7.305
 3487POPC   NC345563   1.564  40.939   5.671
 3487POPC   PO445564   2.076  40.808   5.229
 3487POPC   GL145565   2.050  40.666   5.722
 3487POPC   GL245566   1.805  40.435   5.759
 3487POPC   C1A45567   2.179  40.666   6.188
 3487POPC   D2A45568   2.059  40.464   6.601
 3487POPC   C3A45569   2.176  40.687   7.015
 3487POPC   C4A45570   2.134  40.815   7.487
 3487POPC   C1B45571   1.686  40.504   6.180
 3487POPC   C2B45572   1.518  40.425   6.561
 3487POPC   C3B45573   1.647  40.648   6.915
 3487POPC   C4B45574   1.660  40.690   7.331
 3488POPC   NC345575  12.658   6.519   5.199
 3488POPC   PO445576  13.222   6.753   5.474
 3488POPC   GL145577  12.935   6.585   5.829
 3488POPC   GL245578  12.706   6.303   5.877
 3488POPC   C1A45579  13.088   6.422   6.229
 3488POPC   D2A45580  13.011   6.590   6.627
 3488POPC   C3A45581  13.035   6.366   6.993
 3488POPC   C4A45582  13.054   6.662   7.327
 3488POPC   C1B45583  12.577   6.438   6.288
 3488POPC   C2B45584  12.569   6.361   6.729
 3488POPC   C3B45585  12.606   6.643   7.029
 3488POPC   C4B45586  12.574   6.902   7.329
 3489POPC   NC345587  37.921   7.026   5.456
 3489POPC   PO445588  37.452   6.569   5.432
 3489POPC   GL145589  37.481   6.571   5.849
 3489POPC   GL245590  37.852   6.551   5.923
 3489POPC   C1A45591  37.547   6.905   6.139
 3489POPC   D2A45592  37.771   6.756   6.467
 3489POPC   C3A45593  37.534   6.689   6.816
 3489POPC   C4A45594  37.256   6.573   7.112
 3489POPC   C1B45595  38.095   6.382   6.291
 3489POPC   C2B45596  37.981   6.330   6.713
 3489POPC   C3B45597  37.930   6.531   7.104
 3489POPC   C4B45598  38.090   6.529   7.519
 3490POPC   NC345599   7.987  16.970   5.491
 3490POPC   PO445600   8.350  16.322   5.466
 3490POPC   GL145601   8.204  16.546   5.837
 3490POPC   GL245602   7.840  16.673   5.881
 3490POPC   C1A45603   8.459  16.743   6.168
 3490POPC   D2A45604   8.414  17.030   6.541
 3490POPC   C3A45605   8.199  16.852   6.878
 3490POPC   C4A45606   8.445  16.628   7.160
 3490POPC   C1B45607   7.980  16.700   6.325
 3490POPC   C2B45608   7.863  16.467   6.685
 3490POPC   C3B45609   7.760  16.656   7.071
 3490POPC   C4B45610   7.991  16.568   7.410
 3491POPC   NC345611  24.226  39.416   5.506
 3491POPC   PO445612  24.776  39.029   5.322
 3491POPC   GL145613  24.576  39.063   5.716
 3491POPC   GL245614  24.639  39.401   5.837
 3491POPC   C1A45615  24.667  38.966   6.147
 3491POPC   D2A45616  24.762  39.286   6.414
 3491POPC   C3A45617  24.700  39.137   6.790
 3491POPC   C4A45618  24.711  39.283   7.181
 3491POPC   C1B45619  24.295  39.309   6.146
 3491POPC   C2B45620  24.232  39.086   6.546
 3491POPC   C3B45621  24.224  39.229   6.983
 3491POPC   C4B45622  24.066  39.617   7.117
 3492POPC   NC345623   0.113  22.879   5.484
 3492POPC   PO445624  44.449  22.711   5.292
 3492POPC   GL145625  44.655  22.734   5.729
 3492POPC   GL245626  44.960  22.524   5.818
 3492POPC   C1A45627  44.630  22.960   6.144
 3492POPC   D2A45628  44.872  23.105   6.487
 3492POPC   C3A45629  44.742  23.044   6.899
 3492POPC   C4A45630  44.561  23.121   7.290
 3492POPC   C1B45631   0.107  22.779   6.160
 3492POPC   C2B45632   0.306  22.823   6.555
 3492POPC   C3B45633   0.198  22.735   6.974
 3492POPC   C4B45634  44.989  22.883   7.348
 3493POPC   NC345635  38.065  37.185   5.514
 3493POPC   PO445636  38.639  37.060   5.303
 3493POPC   GL145637  38.527  36.906   5.697
 3493POPC   GL245638  38.440  37.211   5.875
 3493POPC   C1A45639  38.640  36.643   6.035
 3493POPC   D2A45640  38.836  36.656   6.416
 3493POPC   C3A45641  38.697  36.809   6.798
 3493POPC   C4A45642  38.806  36.755   7.246
 3493POPC   C1B45643  38.393  36.987   6.296
 3493POPC   C2B45644  38.173  36.896   6.691
 3493POPC   C3B45645  38.329  36.975   7.100
 3493POPC   C4B45646  38.611  37.300   7.151
 3494POPC   NC345647  28.263  40.317   5.523
 3494POPC   PO445648  28.714  39.844   5.356
 3494POPC   GL145649  28.546  39.934   5.776
 3494POPC   GL245650  28.761  40.232   5.820
 3494POPC   C1A45651  28.323  39.753   6.178
 3494POPC   D2A45652  28.318  39.556   6.630
 3494POPC   C3A45653  28.375  39.781   7.026
 3494POPC   C4A45654  28.061  40.062   7.210
 3494POPC   C1B45655  28.797  39.976   6.222
 3494POPC   C2B45656  28.496  40.047   6.582
 3494POPC   C3B45657  28.430  40.311   6.957
 3494POPC   C4B45658  28.784  40.439   7.207
 3495POPC   NC345659  22.510  14.688   5.457
 3495POPC   PO445660  22.015  14.218   5.345
 3495POPC   GL145661  22.257  14.164   5.723
 3495POPC   GL245662  22.189  14.507   5.807
 3495POPC   C1A45663  22.250  14.179   6.201
 3495POPC   D2A45664  22.023  14.112   6.611
 3495POPC   C3A45665  22.241  14.187   6.999
 3495POPC   C4A45666  22.133  14.167   7.433
 3495POPC   C1B45667  22.147  14.677   6.202
 3495POPC   C2B45668  22.277  14.557   6.586
 3495POPC   C3B45669  22.112  14.704   6.919
 3495POPC   C4B45670  22.180  14.657   7.333
 3496POPC   NC345671  35.936  11.754   5.415
 3496POPC   PO445672  36.388  11.233   5.534
 3496POPC   GL145673  36.275  11.300   5.904
 3496POPC   GL245674  35.930  11.427   5.807
 3496POPC   C1A45675  36.303  10.977   6.202
 3496POPC   D2A45676  36.120  10.894   6.585
 3496POPC   C3A45677  36.187  11.196   6.901
 3496POPC   C4A45678  36.044  11.178   7.287
 3496POPC   C1B45679  35.882  11.326   6.220
 3496POPC   C2B45680  36.166  11.508   6.495
 3496POPC   C3B45681  35.950  11.682   6.836
 3496POPC   C4B45682  35.952  11.675   7.264
 3497POPC   NC345683  16.060  19.740   5.340
 3497POPC   PO445684  15.585  20.119   5.492
 3497POPC   GL145685  15.823  19.799   5.801
 3497POPC   GL245686  15.590  19.575   5.927
 3497POPC   C1A45687  15.946  19.743   6.287
 3497POPC   D2A45688  15.962  19.915   6.740
 3497POPC   C3A45689  15.833  19.714   7.158
 3497POPC   C4A45690  16.085  19.756   7.552
 3497POPC   C1B45691  15.532  20.031   6.147
 3497POPC   C2B45692  15.619  20.265   6.542
 3497POPC   C3B45693  15.570  20.122   6.978
 3497POPC   C4B45694  15.716  20.089   7.459
 3498POPC   NC345695  23.094  38.726   5.193
 3498POPC   PO445696  22.612  38.396   5.498
 3498POPC   GL145697  22.842  38.629   5.862
 3498POPC   GL245698  22.579  38.733   6.047
 3498POPC   C1A45699  22.951  38.623   6.354
 3498POPC   D2A45700  23.021  38.239   6.573
 3498POPC   C3A45701  22.848  38.326   6.971
 3498POPC   C4A45702  22.982  38.640   7.272
 3498POPC   C1B45703  22.620  38.288   6.180
 3498POPC   C2B45704  22.520  38.300   6.575
 3498POPC   C3B45705  22.510  38.703   6.789
 3498POPC   C4B45706  22.499  38.841   7.238
 3499POPC   NC345707   7.754  18.776   5.441
 3499POPC   PO445708   7.220  19.175   5.531
 3499POPC   GL145709   7.637  19.122   5.791
 3499POPC   GL245710   7.435  18.897   5.967
 3499POPC   C1A45711   7.817  19.079   6.219
 3499POPC   D2A45712   7.640  18.870   6.542
 3499POPC   C3A45713   7.440  19.118   6.821
 3499POPC   C4A45714   7.491  18.879   7.181
 3499POPC   C1B45715   7.312  19.236   6.273
 3499POPC   C2B45716   6.995  19.417   6.566
 3499POPC   C3B45717   6.907  19.305   6.984
 3499POPC   C4B45718   7.267  19.325   7.255
 3500POPC   NC345719   5.259  32.669   5.206
 3500POPC   PO445720   4.814  33.147   5.449
 3500POPC   GL145721   5.089  33.162   5.790
 3500POPC   GL245722   5.441  33.193   5.670
 3500POPC   C1A45723   5.122  33.232   6.235
 3500POPC   D2A45724   5.138  33.424   6.635
 3500POPC   C3A45725   4.996  33.238   7.023
 3500POPC   C4A45726   4.974  32.923   7.324
 3500POPC   C1B45727   5.431  32.831   5.979
 3500POPC   C2B45728   5.419  32.870   6.449
 3500POPC   C3B45729   5.458  33.033   6.869
 3500POPC   C4B45730   5.482  32.826   7.269
 3501POPC   NC345731  20.226  19.305   5.447
 3501POPC   PO445732  19.711  18.858   5.203
 3501POPC   GL145733  19.757  18.885   5.661
 3501POPC   GL245734  20.121  18.824   5.736
 3501POPC   C1A45735  19.551  18.915   6.091
 3501POPC   D2A45736  19.488  19.190   6.483
 3501POPC   C3A45737  19.585  19.031   6.927
 3501POPC   C4A45738  19.729  19.052   7.371
 3501POPC   C1B45739  20.037  19.121   6.074
 3501POPC   C2B45740  20.078  19.252   6.502
 3501POPC   C3B45741  20.147  19.238   6.939
 3501POPC   C4B45742  20.192  18.939   7.270
 3502POPC   NC345743  24.919  13.168   5.524
 3502POPC   PO445744  25.447  12.708   5.469
 3502POPC   GL145745  25.256  12.906   5.829
 3502POPC   GL245746  24.947  12.769   5.935
 3502POPC   C1A45747  25.411  12.749   6.228
 3502POPC   D2A45748  25.365  12.854   6.636
 3502POPC   C3A45749  25.472  12.637   6.987
 3502POPC   C4A45750  25.586  12.865   7.325
 3502POPC   C1B45751  25.046  13.114   6.277
 3502POPC   C2B45752  25.142  13.304   6.719
 3502POPC   C3B45753  25.112  13.021   7.066
 3502POPC   C4B45754  24.811  12.681   7.153
 3503POPC   NC345755  26.579  23.922   5.235
 3503POPC   PO445756  27.157  24.049   5.611
 3503POPC   GL145757  26.941  23.601   5.782
 3503POPC   GL245758  26.519  23.607   5.818
 3503POPC   C1A45759  26.822  23.541   6.226
 3503POPC   D2A45760  26.631  23.813   6.534
 3503POPC   C3A45761  26.906  23.843   6.897
 3503POPC   C4A45762  26.879  23.707   7.307
 3503POPC   C1B45763  26.321  23.456   6.141
 3503POPC   C2B45764  26.404  23.331   6.575
 3503POPC   C3B45765  26.555  23.490   6.935
 3503POPC   C4B45766  26.399  23.510   7.308
 3504POPC   NC345767  16.755  14.244   5.469
 3504POPC   PO445768  16.957  14.927   5.569
 3504POPC   GL145769  16.605  14.635   5.818
 3504POPC   GL245770  16.436  14.251   5.857
 3504POPC   C1A45771  16.668  14.471   6.253
 3504POPC   D2A45772  16.923  14.472   6.611
 3504POPC   C3A45773  16.784  14.641   6.996
 3504POPC   C4A45774  16.923  14.452   7.376
 3504POPC   C1B45775  16.353  14.077   6.275
 3504POPC   C2B45776  16.423  14.266   6.698
 3504POPC   C3B45777  16.739  14.122   7.003
 3504POPC   C4B45778  16.688  14.003   7.435
 3505POPC   NC345779  31.351   9.206   5.451
 3505POPC   PO445780  31.705   8.629   5.588
 3505POPC   GL145781  31.393   8.759   5.888
 3505POPC   GL245782  31.062   8.894   5.815
 3505POPC   C1A45783  31.451   8.901   6.314
 3505POPC   D2A45784  31.660   9.070   6.708
 3505POPC   C3A45785  31.693   8.734   7.030
 3505POPC   C4A45786  31.460   8.704   7.455
 3505POPC   C1B45787  31.141   9.252   6.107
 3505POPC   C2B45788  31.161   9.249   6.545
 3505POPC   C3B45789  31.218   8.848   6.791
 3505POPC   C4B45790  31.357   9.087   7.160
 3506POPC   NC345791  21.371  22.238   5.465
 3506POPC   PO445792  21.983  22.091   5.547
 3506POPC   GL145793  21.614  22.033   5.871
 3506POPC   GL245794  21.391  22.363   5.959
 3506POPC   C1A45795  21.510  21.945   6.301
 3506POPC   D2A45796  21.457  21.938   6.729
 3506POPC   C3A45797  21.607  22.301   6.913
 3506POPC   C4A45798  21.449  22.131   7.289
 3506POPC   C1B45799  20.976  22.513   6.180
 3506POPC   C2B45800  20.775  22.457   6.591
 3506POPC   C3B45801  21.074  22.316   6.929
 3506POPC   C4B45802  21.062  22.469   7.350
 3507POPC   NC345803   5.222  37.205   5.414
 3507POPC   PO445804   5.340  36.564   5.434
 3507POPC   GL145805   4.985  36.708   5.719
 3507POPC   GL245806   5.103  37.011   5.878
 3507POPC   C1A45807   4.783  36.695   6.176
 3507POPC   D2A45808   4.554  36.606   6.587
 3507POPC   C3A45809   4.710  36.602   7.020
 3507POPC   C4A45810   4.936  36.831   7.363
 3507POPC   C1B45811   5.379  37.187   6.205
 3507POPC   C2B45812   5.525  37.254   6.644
 3507POPC   C3B45813   5.351  37.109   7.043
 3507POPC   C4B45814   5.236  37.237   7.476
 3508POPC   NC345815  41.182  36.872   5.617
 3508POPC   PO445816  41.754  36.763   5.243
 3508POPC   GL145817  41.815  36.889   5.772
 3508POPC   GL245818  41.531  37.040   5.928
 3508POPC   C1A45819  41.822  36.871   6.308
 3508POPC   D2A45820  42.018  37.009   6.731
 3508POPC   C3A45821  41.786  36.915   7.103
 3508POPC   C4A45822  41.669  36.533   7.257
 3508POPC   C1B45823  41.339  36.693   6.224
 3508POPC   C2B45824  41.331  36.511   6.652
 3508POPC   C3B45825  41.244  36.741   7.049
 3508POPC   C4B45826  41.401  36.898   7.465
 3509POPC   NC345827  31.630  39.197   5.424
 3509POPC   PO445828  31.155  38.887   5.737
 3509POPC   GL145829  31.538  39.078   5.910
 3509POPC   GL245830  31.572  39.412   5.898
 3509POPC   C1A45831  31.757  39.100   6.290
 3509POPC   D2A45832  31.589  38.969   6.684
 3509POPC   C3A45833  31.704  39.200   7.034
 3509POPC   C4A45834  31.532  39.377   7.428
 3509POPC   C1B45835  31.230  39.345   6.210
 3509POPC   C2B45836  31.270  39.415   6.619
 3509POPC   C3B45837  31.189  39.288   7.015
 3509POPC   C4B45838  31.036  39.528   7.338
 3510POPC   NC345839   6.194  37.611   5.482
 3510POPC   PO445840   5.570  37.507   5.421
 3510POPC   GL145841   5.691  37.703   5.838
 3510POPC   GL245842   5.718  38.081   5.810
 3510POPC   C1A45843   5.738  37.617   6.303
 3510POPC   D2A45844   5.914  37.784   6.696
 3510POPC   C3A45845   5.708  37.571   7.070
 3510POPC   C4A45846   5.754  37.340   7.474
 3510POPC   C1B45847   5.544  38.097   6.239
 3510POPC   C2B45848   5.433  38.278   6.667
 3510POPC   C3B45849   5.574  38.097   7.061
 3510POPC   C4B45850   5.992  37.971   7.174
 3511POPC   NC345851  43.445  35.088   5.384
 3511POPC   PO445852  42.792  35.506   5.458
 3511POPC   GL145853  42.896  35.404   5.843
 3511POPC   GL245854  43.096  35.157   5.739
 3511POPC   C1A45855  42.958  35.494   6.251
 3511POPC   D2A45856  42.931  35.253   6.607
 3511POPC   C3A45857  43.147  35.495   6.909
 3511POPC   C4A45858  43.069  35.354   7.308
 3511POPC   C1B45859  43.280  35.062   6.147
 3511POPC   C2B45860  43.437  35.093   6.539
 3511POPC   C3B45861  43.264  35.019   6.932
 3511POPC   C4B45862  43.496  35.095   7.290
 3512POPC   NC345863  32.808  29.298   5.459
 3512POPC   PO445864  33.547  29.291   5.329
 3512POPC   GL145865  33.253  29.222   5.719
 3512POPC   GL245866  33.132  29.552   5.755
 3512POPC   C1A45867  32.996  29.121   6.137
 3512POPC   D2A45868  32.805  28.931   6.578
 3512POPC   C3A45869  32.973  29.137   6.985
 3512POPC   C4A45870  33.101  29.084   7.436
 3512POPC   C1B45871  32.857  29.627   6.123
 3512POPC   C2B45872  32.855  29.444   6.551
 3512POPC   C3B45873  32.750  29.629   6.948
 3512POPC   C4B45874  32.701  29.401   7.348
 3513POPC   NC345875   6.051  18.933   5.423
 3513POPC   PO445876   5.638  19.484   5.555
 3513POPC   GL145877   5.742  19.080   5.838
 3513POPC   GL245878   6.082  18.885   5.910
 3513POPC   C1A45879   5.831  19.103   6.292
 3513POPC   D2A45880   6.020  19.350   6.604
 3513POPC   C3A45881   5.875  19.162   6.979
 3513POPC   C4A45882   6.001  19.299   7.371
 3513POPC   C1B45883   6.288  18.784   6.265
 3513POPC   C2B45884   6.100  18.835   6.652
 3513POPC   C3B45885   6.146  18.721   7.065
 3513POPC   C4B45886   5.821  18.829   7.362
 3514POPC   NC345887  15.215   2.694   5.326
 3514POPC   PO445888  15.627   3.109   5.716
 3514POPC   GL145889  15.304   2.813   5.812
 3514POPC   GL245890  15.022   3.007   5.943
 3514POPC   C1A45891  15.133   2.537   6.137
 3514POPC   D2A45892  15.155   2.516   6.609
 3514POPC   C3A45893  15.446   2.625   6.945
 3514POPC   C4A45894  15.408   2.555   7.432
 3514POPC   C1B45895  14.949   2.948   6.393
 3514POPC   C2B45896  15.014   3.002   6.856
 3514POPC   C3B45897  14.964   2.789   7.262
 3514POPC   C4B45898  14.947   2.814   7.732
 3515POPC   NC345899  25.902   8.441   5.605
 3515POPC   PO445900  26.311   8.009   5.357
 3515POPC   GL145901  26.335   8.158   5.770
 3515POPC   GL245902  26.027   7.961   5.842
 3515POPC   C1A45903  26.192   8.313   6.180
 3515POPC   D2A45904  26.030   8.099   6.512
 3515POPC   C3A45905  26.142   8.248   6.910
 3515POPC   C4A45906  26.126   8.378   7.349
 3515POPC   C1B45907  25.737   7.827   6.166
 3515POPC   C2B45908  25.773   7.657   6.568
 3515POPC   C3B45909  25.759   7.895   6.926
 3515POPC   C4B45910  25.563   7.968   7.297
 3516POPC   NC345911   0.795  43.600   5.440
 3516POPC   PO445912   0.081  43.655   5.499
 3516POPC   GL145913   0.418  43.758   5.809
 3516POPC   GL245914   0.606  44.063   5.785
 3516POPC   C1A45915   0.381  43.912   6.235
 3516POPC   D2A45916   0.176  43.757   6.605
 3516POPC   C3A45917   0.418  43.857   6.950
 3516POPC   C4A45918   0.340  43.749   7.359
 3516POPC   C1B45919   0.725  44.277   6.189
 3516POPC   C2B45920   0.753  44.146   6.608
 3516POPC   C3B45921   0.633  44.327   6.978
 3516POPC   C4B45922   0.658  44.137   7.374
 3517POPC   NC345923   8.526  10.107   5.290
 3517POPC   PO445924   8.889   9.525   5.390
 3517POPC   GL145925   9.071   9.675   5.814
 3517POPC   GL245926   8.767   9.754   5.956
 3517POPC   C1A45927   9.133   9.921   6.254
 3517POPC   D2A45928   9.316  10.125   6.646
 3517POPC   C3A45929   9.222  10.021   7.085
 3517POPC   C4A45930   9.435   9.976   7.481
 3517POPC   C1B45931   8.672   9.657   6.391
 3517POPC   C2B45932   8.626   9.620   6.852
 3517POPC   C3B45933   8.872   9.625   7.240
 3517POPC   C4B45934   8.815   9.582   7.694
 3518POPC   NC345935  21.059  39.662   5.428
 3518POPC   PO445936  21.064  40.376   5.373
 3518POPC   GL145937  20.776  40.103   5.689
 3518POPC   GL245938  20.914  39.834   5.877
 3518POPC   C1A45939  20.499  39.996   6.089
 3518POPC   D2A45940  20.671  40.132   6.491
 3518POPC   C3A45941  20.564  40.040   6.894
 3518POPC   C4A45942  20.623  39.820   7.268
 3518POPC   C1B45943  20.886  39.704   6.302
 3518POPC   C2B45944  21.068  39.850   6.703
 3518POPC   C3B45945  21.111  39.747   7.150
 3518POPC   C4B45946  20.988  39.708   7.602
 3519POPC   NC345947   2.563   5.492   5.415
 3519POPC   PO445948   2.932   6.086   5.406
 3519POPC   GL145949   2.876   5.799   5.767
 3519POPC   GL245950   2.518   5.791   5.834
 3519POPC   C1A45951   2.845   5.907   6.207
 3519POPC   D2A45952   2.618   6.012   6.543
 3519POPC   C3A45953   2.838   5.863   6.892
 3519POPC   C4A45954   2.708   6.053   7.243
 3519POPC   C1B45955   2.425   5.570   6.228
 3519POPC   C2B45956   2.316   5.617   6.646
 3519POPC   C3B45957   2.466   5.539   7.034
 3519POPC   C4B45958   2.676   5.578   7.386
 3520POPC   NC345959  15.285   5.473   5.532
 3520POPC   PO445960  14.881   4.912   5.476
 3520POPC   GL145961  15.015   5.042   5.886
 3520POPC   GL245962  14.750   5.108   6.119
 3520POPC   C1A45963  15.235   4.927   6.270
 3520POPC   D2A45964  15.592   4.945   6.543
 3520POPC   C3A45965  15.478   4.868   6.958
 3520POPC   C4A45966  15.361   4.982   7.370
 3520POPC   C1B45967  14.892   5.362   6.428
 3520POPC   C2B45968  15.154   5.207   6.728
 3520POPC   C3B45969  14.960   4.970   7.037
 3520POPC   C4B45970  14.825   5.033   7.459
 3521POPC   NC345971  27.434  26.954   5.283
 3521POPC   PO445972  27.722  26.432   5.540
 3521POPC   GL145973  27.605  26.483   5.962
 3521POPC   GL245974  27.358  26.701   5.817
 3521POPC   C1A45975  27.737  26.772   6.338
 3521POPC   D2A45976  27.604  27.168   6.599
 3521POPC   C3A45977  27.615  26.989   7.017
 3521POPC   C4A45978  27.526  26.535   7.101
 3521POPC   C1B45979  27.236  26.776   6.237
 3521POPC   C2B45980  27.305  26.757   6.663
 3521POPC   C3B45981  27.094  26.848   7.023
 3521POPC   C4B45982  27.282  26.842   7.416
 3522POPC   NC345983  37.832  30.234   5.481
 3522POPC   PO445984  37.516  29.575   5.420
 3522POPC   GL145985  37.781  29.708   5.760
 3522POPC   GL245986  37.629  29.993   5.866
 3522POPC   C1A45987  37.958  29.689   6.216
 3522POPC   D2A45988  38.059  29.896   6.616
 3522POPC   C3A45989  37.887  29.725   6.963
 3522POPC   C4A45990  37.539  29.847   7.170
 3522POPC   C1B45991  37.686  30.116   6.263
 3522POPC   C2B45992  37.672  30.263   6.652
 3522POPC   C3B45993  37.357  30.283   6.964
 3522POPC   C4B45994  37.320  30.202   7.442
 3523POPC   NC345995  10.007  14.781   5.766
 3523POPC   PO445996  10.166  14.092   5.522
 3523POPC   GL145997   9.818  14.306   5.703
 3523POPC   GL245998   9.544  14.559   5.835
 3523POPC   C1A45999   9.849  14.225   6.130
 3523POPC   D2A46000   9.744  14.122   6.527
 3523POPC   C3A46001   9.761  14.417   6.845
 3523POPC   C4A46002   9.801  14.316   7.249
 3523POPC   C1B46003   9.559  14.616   6.262
 3523POPC   C2B46004   9.312  14.492   6.575
 3523POPC   C3B46005   9.329  14.718   6.932
 3523POPC   C4B46006   9.651  14.818   7.204
 3524POPC   NC346007   0.728  12.926   5.439
 3524POPC   PO446008   0.191  13.317   5.510
 3524POPC   GL146009   0.289  12.911   5.712
 3524POPC   GL246010   0.558  13.069   5.913
 3524POPC   C1A46011   0.281  12.672   6.106
 3524POPC   D2A46012   0.399  12.951   6.418
 3524POPC   C3A46013   0.311  12.948   6.823
 3524POPC   C4A46014   0.346  12.666   7.132
 3524POPC   C1B46015   0.762  13.278   6.283
 3524POPC   C2B46016   0.672  13.319   6.731
 3524POPC   C3B46017   0.604  13.207   7.160
 3524POPC   C4B46018   0.202  13.127   7.309
 3525POPC   NC346019  14.031   9.697   5.365
 3525POPC   PO446020  14.765   9.868   5.296
 3525POPC   GL146021  14.619   9.868   5.776
 3525POPC   GL246022  14.261   9.797   5.807
 3525POPC   C1A46023  14.470   9.973   6.216
 3525POPC   D2A46024  14.168   9.938   6.585
 3525POPC   C3A46025  14.388  10.017   6.992
 3525POPC   C4A46026  14.760   9.885   7.242
 3525POPC   C1B46027  14.432   9.481   6.116
 3525POPC   C2B46028  14.396   9.475   6.555
 3525POPC   C3B46029  14.513   9.508   6.979
 3525POPC   C4B46030  14.284   9.311   7.309
 3526POPC   NC346031  30.973  40.790   5.407
 3526POPC   PO446032  30.353  40.587   5.187
 3526POPC   GL146033  30.571  40.632   5.688
 3526POPC   GL246034  30.856  40.729   5.889
 3526POPC   C1A46035  30.422  40.867   6.114
 3526POPC   D2A46036  30.194  40.928   6.512
 3526POPC   C3A46037  30.385  40.774   6.879
 3526POPC   C4A46038  30.447  40.938   7.303
 3526POPC   C1B46039  30.757  40.514   6.255
 3526POPC   C2B46040  30.843  40.601   6.656
 3526POPC   C3B46041  30.794  40.506   7.061
 3526POPC   C4B46042  30.903  40.688   7.397
 3527POPC   NC346043   9.535  35.641   5.554
 3527POPC   PO446044   9.691  36.264   5.350
 3527POPC   GL146045   9.666  36.104   5.763
 3527POPC   GL246046  10.016  36.064   5.845
 3527POPC   C1A46047   9.698  36.161   6.246
 3527POPC   D2A46048   9.918  36.211   6.671
 3527POPC   C3A46049   9.679  36.087   7.054
 3527POPC   C4A46050   9.665  36.216   7.487
 3527POPC   C1B46051  10.181  35.943   6.243
 3527POPC   C2B46052  10.237  35.792   6.655
 3527POPC   C3B46053  10.186  35.969   7.064
 3527POPC   C4B46054   9.915  35.731   7.335
 3528POPC   NC346055   4.522   6.901   5.541
 3528POPC   PO446056   5.110   6.735   5.183
 3528POPC   GL146057   4.988   6.716   5.698
 3528POPC   GL246058   4.866   7.041   5.895
 3528POPC   C1A46059   4.800   6.574   6.138
 3528POPC   D2A46060   4.842   6.563   6.648
 3528POPC   C3A46061   5.161   6.524   7.036
 3528POPC   C4A46062   5.194   6.267   7.466
 3528POPC   C1B46063   5.099   6.930   6.314
 3528POPC   C2B46064   5.320   6.908   6.700
 3528POPC   C3B46065   5.311   7.031   7.113
 3528POPC   C4B46066   5.079   6.894   7.458
 3529POPC   NC346067  27.793  14.096   5.607
 3529POPC   PO446068  27.213  13.758   5.463
 3529POPC   GL146069  27.529  13.691   5.800
 3529POPC   GL246070  27.728  13.430   5.671
 3529POPC   C1A46071  27.671  13.852   6.250
 3529POPC   D2A46072  27.789  13.783   6.701
 3529POPC   C3A46073  27.596  13.799   7.116
 3529POPC   C4A46074  27.800  13.968   7.483
 3529POPC   C1B46075  27.781  13.367   6.124
 3529POPC   C2B46076  27.755  13.267   6.570
 3529POPC   C3B46077  27.809  13.337   7.031
 3529POPC   C4B46078  27.703  13.450   7.497
 3530POPC   NC346079   3.048   7.626   5.032
 3530POPC   PO446080   3.528   7.439   5.412
 3530POPC   GL146081   3.543   7.388   5.806
 3530POPC   GL246082   3.872   7.304   5.880
 3530POPC   C1A46083   3.460   7.365   6.204
 3530POPC   D2A46084   3.655   7.242   6.552
 3530POPC   C3A46085   3.407   7.474   6.852
 3530POPC   C4A46086   3.424   7.450   7.305
 3530POPC   C1B46087   3.935   7.591   6.223
 3530POPC   C2B46088   3.955   7.642   6.672
 3530POPC   C3B46089   3.876   7.363   7.023
 3530POPC   C4B46090   3.931   7.580   7.379
 3531POPC   NC346091   4.751   3.381   5.553
 3531POPC   PO446092   5.451   3.130   5.468
 3531POPC   GL146093   5.370   3.267   5.914
 3531POPC   GL246094   5.069   3.460   5.939
 3531POPC   C1A46095   5.371   3.519   6.320
 3531POPC   D2A46096   5.089   3.392   6.625
 3531POPC   C3A46097   5.296   3.192   6.946
 3531POPC   C4A46098   5.245   3.450   7.242
 3531POPC   C1B46099   4.917   3.793   6.262
 3531POPC   C2B46100   4.590   3.975   6.550
 3531POPC   C3B46101   4.708   4.046   6.983
 3531POPC   C4B46102   4.547   4.103   7.427
 3532POPC   NC346103  36.483  40.786   5.425
 3532POPC   PO446104  35.956  40.442   5.396
 3532POPC   GL146105  36.035  40.834   5.686
 3532POPC   GL246106  35.746  40.928   5.814
 3532POPC   C1A46107  36.141  41.031   6.139
 3532POPC   D2A46108  36.320  41.047   6.581
 3532POPC   C3A46109  36.336  40.704   6.923
 3532POPC   C4A46110  36.066  40.715   7.286
 3532POPC   C1B46111  35.895  40.566   6.120
 3532POPC   C2B46112  36.071  40.447   6.530
 3532POPC   C3B46113  35.861  40.386   6.933
 3532POPC   C4B46114  35.758  40.304   7.378
 3533POPC   NC346115  37.958  33.831   5.328
 3533POPC   PO446116  37.661  34.388   5.595
 3533POPC   GL146117  37.728  33.957   5.791
 3533POPC   GL246118  37.933  33.611   5.801
 3533POPC   C1A46119  37.592  33.805   6.184
 3533POPC   D2A46120  37.484  33.655   6.580
 3533POPC   C3A46121  37.678  33.573   6.962
 3533POPC   C4A46122  37.697  33.890   7.256
 3533POPC   C1B46123  38.122  33.799   6.169
 3533POPC   C2B46124  37.946  33.999   6.550
 3533POPC   C3B46125  38.121  33.978   6.969
 3533POPC   C4B46126  38.127  33.597   7.221
 3534POPC   NC346127   8.820  20.990   5.510
 3534POPC   PO446128   9.239  20.496   5.313
 3534POPC   GL146129   9.223  20.416   5.772
 3534POPC   GL246130   8.918  20.582   5.832
 3534POPC   C1A46131   9.198  20.339   6.206
 3534POPC   D2A46132   9.284  20.580   6.566
 3534POPC   C3A46133   9.105  20.472   6.958
 3534POPC   C4A46134   9.224  20.632   7.333
 3534POPC   C1B46135   8.886  20.913   6.168
 3534POPC   C2B46136   9.058  21.070   6.558
 3534POPC   C3B46137   9.064  21.010   7.000
 3534POPC   C4B46138   8.703  20.760   7.191
 3535POPC   NC346139   4.501  28.441   5.387
 3535POPC   PO446140   3.883  28.213   5.533
 3535POPC   GL146141   4.202  28.414   5.859
 3535POPC   GL246142   4.585  28.519   5.886
 3535POPC   C1A46143   4.218  28.580   6.301
 3535POPC   D2A46144   4.473  28.480   6.663
 3535POPC   C3A46145   4.329  28.501   7.085
 3535POPC   C4A46146   4.172  28.102   7.281
 3535POPC   C1B46147   4.592  28.181   6.188
 3535POPC   C2B46148   4.471  27.978   6.578
 3535POPC   C3B46149   4.608  28.094   6.992
 3535POPC   C4B46150   4.607  28.265   7.452
 3536POPC   NC346151  14.218  39.334   5.181
 3536POPC   PO446152  14.771  39.097   5.518
 3536POPC   GL146153  14.396  39.124   5.775
 3536POPC   GL246154  14.469  39.415   5.912
 3536POPC   C1A46155  14.174  39.076   6.188
 3536POPC   D2A46156  13.943  39.234   6.551
 3536POPC   C3A46157  14.049  39.137   6.984
 3536POPC   C4A46158  14.261  39.143   7.411
 3536POPC   C1B46159  14.647  39.250   6.243
 3536POPC   C2B46160  14.450  39.206   6.622
 3536POPC   C3B46161  14.521  39.325   7.006
 3536POPC   C4B46162  14.794  39.181   7.261
 3537POPC   NC346163  16.949  27.404   5.246
 3537POPC   PO446164  17.122  27.826   5.764
 3537POPC   GL146165  16.810  27.609   5.939
 3537POPC   GL246166  16.987  27.281   5.954
 3537POPC   C1A46167  16.620  27.721   6.331
 3537POPC   D2A46168  16.711  27.578   6.750
 3537POPC   C3A46169  16.577  27.851   7.056
 3537POPC   C4A46170  16.553  27.635   7.437
 3537POPC   C1B46171  17.046  27.455   6.380
 3537POPC   C2B46172  17.232  27.725   6.704
 3537POPC   C3B46173  17.079  27.794   7.105
 3537POPC   C4B46174  17.043  27.672   7.517
 3538POPC   NC346175  18.839   7.623   5.491
 3538POPC   PO446176  19.285   7.205   5.180
 3538POPC   GL146177  19.174   7.329   5.695
 3538POPC   GL246178  19.162   7.610   5.878
 3538POPC   C1A46179  19.135   7.145   6.141
 3538POPC   D2A46180  19.049   7.280   6.556
 3538POPC   C3A46181  19.137   7.129   6.962
 3538POPC   C4A46182  18.851   7.116   7.307
 3538POPC   C1B46183  18.810   7.563   6.171
 3538POPC   C2B46184  18.596   7.488   6.571
 3538POPC   C3B46185  18.778   7.581   6.978
 3538POPC   C4B46186  18.629   7.582   7.395
 3539POPC   NC346187  38.767  29.302   5.374
 3539POPC   PO446188  38.255  28.863   5.507
 3539POPC   GL146189  38.355  29.161   5.835
 3539POPC   GL246190  38.692  29.356   5.876
 3539POPC   C1A46191  38.247  29.261   6.262
 3539POPC   D2A46192  38.307  29.452   6.672
 3539POPC   C3A46193  38.289  29.204   7.035
 3539POPC   C4A46194  38.070  28.772   7.100
 3539POPC   C1B46195  38.723  28.952   6.095
 3539POPC   C2B46196  38.496  28.839   6.439
 3539POPC   C3B46197  38.522  28.806   6.851
 3539POPC   C4B46198  38.597  28.642   7.236
 3540POPC   NC346199  40.666   3.098   5.256
 3540POPC   PO446200  40.459   3.684   5.455
 3540POPC   GL146201  40.779   3.554   5.764
 3540POPC   GL246202  40.704   3.172   5.773
 3540POPC   C1A46203  40.946   3.793   6.155
 3540POPC   D2A46204  40.816   4.006   6.553
 3540POPC   C3A46205  40.981   3.870   6.963
 3540POPC   C4A46206  40.970   3.858   7.406
 3540POPC   C1B46207  40.907   3.257   6.174
 3540POPC   C2B46208  40.962   3.468   6.590
 3540POPC   C3B46209  40.869   3.358   7.042
 3540POPC   C4B46210  41.020   3.264   7.467
 3541POPC   NC346211  15.286  25.490   5.034
 3541POPC   PO446212  15.357  24.880   5.361
 3541POPC   GL146213  15.221  25.022   5.733
 3541POPC   GL246214  15.169  25.364   5.704
 3541POPC   C1A46215  15.266  25.020   6.153
 3541POPC   D2A46216  15.305  25.158   6.568
 3541POPC   C3A46217  15.096  25.015   6.932
 3541POPC   C4A46218  15.296  24.981   7.338
 3541POPC   C1B46219  15.291  25.540   6.129
 3541POPC   C2B46220  15.425  25.657   6.575
 3541POPC   C3B46221  15.408  25.453   7.006
 3541POPC   C4B46222  15.537  25.638   7.419
 3542POPC   NC346223   1.760  17.398   5.390
 3542POPC   PO446224   1.155  17.267   5.102
 3542POPC   GL146225   1.208  17.291   5.617
 3542POPC   GL246226   1.522  17.186   5.803
 3542POPC   C1A46227   1.299  17.552   6.055
 3542POPC   D2A46228   1.469  17.456   6.507
 3542POPC   C3A46229   1.221  17.587   6.848
 3542POPC   C4A46230   1.311  17.599   7.272
 3542POPC   C1B46231   1.300  17.060   6.213
 3542POPC   C2B46232   1.100  17.089   6.640
 3542POPC   C3B46233   1.242  17.101   7.071
 3542POPC   C4B46234   1.454  17.110   7.485
 3543POPC   NC346235   1.439  15.901   5.090
 3543POPC   PO446236   1.236  16.312   5.593
 3543POPC   GL146237   1.129  16.159   5.944
 3543POPC   GL246238   0.892  16.354   6.065
 3543POPC   C1A46239   1.356  15.998   6.258
 3543POPC   D2A46240   1.280  15.846   6.643
 3543POPC   C3A46241   1.470  16.004   6.991
 3543POPC   C4A46242   1.271  15.886   7.354
 3543POPC   C1B46243   0.738  16.082   6.317
 3543POPC   C2B46244   0.799  16.027   6.693
 3543POPC   C3B46245   0.971  16.192   7.024
 3543POPC   C4B46246   0.630  16.303   7.253
 3544POPC   NC346247  41.828   6.310   5.555
 3544POPC   PO446248  41.316   5.881   5.319
 3544POPC   GL146249  41.324   5.853   5.799
 3544POPC   GL246250  41.598   6.034   5.917
 3544POPC   C1A46251  41.348   5.798   6.289
 3544POPC   D2A46252  41.521   5.958   6.702
 3544POPC   C3A46253  41.846   5.724   6.915
 3544POPC   C4A46254  41.777   5.562   7.294
 3544POPC   C1B46255  41.723   6.241   6.269
 3544POPC   C2B46256  41.916   6.339   6.635
 3544POPC   C3B46257  41.862   6.219   7.023
 3544POPC   C4B46258  41.582   6.044   7.310
 3545POPC   NC346259  41.844   2.841   5.393
 3545POPC   PO446260  42.341   2.382   5.308
 3545POPC   GL146261  42.285   2.733   5.658
 3545POPC   GL246262  42.564   2.984   5.665
 3545POPC   C1A46263  42.131   2.827   6.118
 3545POPC   D2A46264  42.049   2.639   6.558
 3545POPC   C3A46265  42.168   2.816   6.955
 3545POPC   C4A46266  42.460   2.697   7.224
 3545POPC   C1B46267  42.626   3.024   6.136
 3545POPC   C2B46268  42.483   3.058   6.599
 3545POPC   C3B46269  42.732   3.074   7.025
 3545POPC   C4B46270  42.614   3.062   7.513
 3546POPC   NC346271  43.441  36.811   5.419
 3546POPC   PO446272  43.164  37.407   5.542
 3546POPC   GL146273  43.046  37.143   5.873
 3546POPC   GL246274  43.051  36.776   5.778
 3546POPC   C1A46275  43.174  36.933   6.268
 3546POPC   D2A46276  43.409  36.658   6.576
 3546POPC   C3A46277  43.274  36.761   7.004
 3546POPC   C4A46278  43.365  37.190   7.173
 3546POPC   C1B46279  42.792  36.599   6.113
 3546POPC   C2B46280  42.907  36.581   6.548
 3546POPC   C3B46281  42.768  36.659   6.975
 3546POPC   C4B46282  42.818  36.738   7.414
 3547POPC   NC346283  14.724  20.966   5.492
 3547POPC   PO446284  15.089  20.454   5.280
 3547POPC   GL146285  15.040  20.509   5.741
 3547POPC   GL246286  15.111  20.840   5.816
 3547POPC   C1A46287  15.223  20.455   6.177
 3547POPC   D2A46288  15.114  20.134   6.515
 3547POPC   C3A46289  15.041  20.358   6.915
 3547POPC   C4A46290  15.230  20.254   7.302
 3547POPC   C1B46291  15.025  20.949   6.225
 3547POPC   C2B46292  15.075  20.930   6.652
 3547POPC   C3B46293  14.829  20.836   7.007
 3547POPC   C4B46294  15.096  20.727   7.341
 3548POPC   NC346295  22.793  20.067   4.955
 3548POPC   PO446296  22.909  20.678   5.360
 3548POPC   GL146297  22.879  20.549   5.812
 3548POPC   GL246298  22.554  20.567   5.988
 3548POPC   C1A46299  23.042  20.538   6.246
 3548POPC   D2A46300  22.896  20.765   6.602
 3548POPC   C3A46301  22.942  20.676   7.024
 3548POPC   C4A46302  23.264  20.907   7.250
 3548POPC   C1B46303  22.591  20.287   6.343
 3548POPC   C2B46304  22.893  20.164   6.647
 3548POPC   C3B46305  22.960  20.162   7.080
 3548POPC   C4B46306  23.080  20.403   7.456
 3549POPC   NC346307  20.049  30.155   5.520
 3549POPC   PO446308  20.633  29.837   5.321
 3549POPC   GL146309  20.715  29.800   5.757
 3549POPC   GL246310  20.528  30.093   5.821
 3549POPC   C1A46311  20.781  29.761   6.197
 3549POPC   D2A46312  20.644  30.010   6.563
 3549POPC   C3A46313  20.754  29.843   6.949
 3549POPC   C4A46314  20.630  29.545   7.266
 3549POPC   C1B46315  20.456  30.343   6.190
 3549POPC   C2B46316  20.263  30.368   6.612
 3549POPC   C3B46317  20.464  30.305   7.006
 3549POPC   C4B46318  20.518  30.046   7.367
 3550POPC   NC346319  27.983  16.639   5.226
 3550POPC   PO446320  28.554  16.909   5.477
 3550POPC   GL146321  28.427  16.595   5.821
 3550POPC   GL246322  28.078  16.513   5.796
 3550POPC   C1A46323  28.297  16.378   6.243
 3550POPC   D2A46324  28.063  16.446   6.662
 3550POPC   C3A46325  28.322  16.513   7.054
 3550POPC   C4A46326  28.468  16.927   7.212
 3550POPC   C1B46327  28.060  16.845   6.126
 3550POPC   C2B46328  27.806  16.939   6.525
 3550POPC   C3B46329  27.928  16.879   6.960
 3550POPC   C4B46330  27.841  16.498   7.209
 3551POPC   NC346331  11.769  43.060   5.444
 3551POPC   PO446332  12.293  43.472   5.370
 3551POPC   GL146333  12.154  43.299   5.752
 3551POPC   GL246334  11.917  43.591   5.742
 3551POPC   C1A46335  12.181  43.044   6.136
 3551POPC   D2A46336  11.885  42.825   6.430
 3551POPC   C3A46337  11.980  42.757   6.878
 3551POPC   C4A46338  12.058  43.042   7.211
 3551POPC   C1B46339  11.750  43.347   6.099
 3551POPC   C2B46340  11.986  43.346   6.490
 3551POPC   C3B46341  12.028  43.474   6.913
 3551POPC   C4B46342  11.832  43.488   7.284
 3552POPC   NC346343  29.931  23.993   5.269
 3552POPC   PO446344  29.545  23.500   5.306
 3552POPC   GL146345  29.877  23.618   5.649
 3552POPC   GL246346  29.820  23.973   5.788
 3552POPC   C1A46347  30.013  23.495   6.105
 3552POPC   D2A46348  30.215  23.585   6.532
 3552POPC   C3A46349  29.993  23.622   6.944
 3552POPC   C4A46350  30.039  23.403   7.340
 3552POPC   C1B46351  30.023  23.999   6.215
 3552POPC   C2B46352  29.847  24.021   6.640
 3552POPC   C3B46353  29.853  24.116   7.092
 3552POPC   C4B46354  30.143  23.924   7.387
 3553POPC   NC346355  15.698   6.611   5.412
 3553POPC   PO446356  16.323   6.650   5.667
 3553POPC   GL146357  15.973   6.660   5.837
 3553POPC   GL246358  15.892   6.307   5.765
 3553POPC   C1A46359  16.016   6.795   6.235
 3553POPC   D2A46360  16.063   6.567   6.617
 3553POPC   C3A46361  16.153   6.739   6.994
 3553POPC   C4A46362  15.862   6.754   7.314
 3553POPC   C1B46363  15.991   6.280   6.197
 3553POPC   C2B46364  15.649   6.255   6.540
 3553POPC   C3B46365  15.731   6.332   6.957
 3553POPC   C4B46366  15.976   6.225   7.295
 3554POPC   NC346367  35.816  16.253   5.617
 3554POPC   PO446368  36.396  16.061   5.274
 3554POPC   GL146369  36.321  16.118   5.706
 3554POPC   GL246370  36.085  15.847   5.801
 3554POPC   C1A46371  36.232  16.243   6.133
 3554POPC   D2A46372  36.291  16.266   6.580
 3554POPC   C3A46373  35.965  16.108   6.863
 3554POPC   C4A46374  35.755  16.028   7.251
 3554POPC   C1B46375  36.036  15.783   6.258
 3554POPC   C2B46376  36.212  15.712   6.673
 3554POPC   C3B46377  36.006  15.612   7.065
 3554POPC   C4B46378  36.173  15.708   7.460
 3555POPC   NC346379  41.625  19.498   5.511
 3555POPC   PO446380  41.771  20.161   5.420
 3555POPC   GL146381  41.786  19.906   5.771
 3555POPC   GL246382  41.433  19.793   5.870
 3555POPC   C1A46383  41.912  19.776   6.171
 3555POPC   D2A46384  41.663  19.663   6.508
 3555POPC   C3A46385  41.727  19.788   6.936
 3555POPC   C4A46386  41.304  19.725   7.128
 3555POPC   C1B46387  41.455  20.074   6.222
 3555POPC   C2B46388  41.308  20.031   6.647
 3555POPC   C3B46389  41.450  20.208   7.003
 3555POPC   C4B46390  41.349  20.186   7.387
 3556POPC   NC346391   0.455  31.822   5.542
 3556POPC   PO446392   0.574  31.102   5.525
 3556POPC   GL146393   0.513  31.408   5.881
 3556POPC   GL246394   0.196  31.548   5.896
 3556POPC   C1A46395   0.482  31.660   6.311
 3556POPC   D2A46396   0.370  31.885   6.722
 3556POPC   C3A46397   0.431  31.686   7.155
 3556POPC   C4A46398   0.485  31.222   7.273
 3556POPC   C1B46399   0.121  31.301   6.222
 3556POPC   C2B46400   0.142  31.441   6.657
 3556POPC   C3B46401   0.035  31.251   7.043
 3556POPC   C4B46402  44.942  31.096   7.441
 3557POPC   NC346403  36.526  13.941   5.408
 3557POPC   PO446404  35.850  13.736   5.332
 3557POPC   GL146405  36.182  13.670   5.701
 3557POPC   GL246406  36.374  13.954   5.876
 3557POPC   C1A46407  36.287  13.539   6.144
 3557POPC   D2A46408  36.226  13.342   6.548
 3557POPC   C3A46409  36.256  13.596   6.899
 3557POPC   C4A46410  36.221  13.464   7.312
 3557POPC   C1B46411  35.996  14.000   6.095
 3557POPC   C2B46412  36.025  13.904   6.529
 3557POPC   C3B46413  36.170  14.100   6.911
 3557POPC   C4B46414  36.024  13.944   7.297
 3558POPC   NC346415   5.568  20.629   5.179
 3558POPC   PO446416   6.062  20.413   5.586
 3558POPC   GL146417   6.020  20.697   5.913
 3558POPC   GL246418   5.862  20.425   6.080
 3558POPC   C1A46419   5.828  20.883   6.291
 3558POPC   D2A46420   5.733  20.811   6.738
 3558POPC   C3A46421   6.018  20.882   7.099
 3558POPC   C4A46422   6.015  20.880   7.566
 3558POPC   C1B46423   5.874  20.366   6.487
 3558POPC   C2B46424   6.095  20.421   6.842
 3558POPC   C3B46425   6.010  20.370   7.243
 3558POPC   C4B46426   5.772  20.431   7.590
 3559POPC   NC346427  17.453   6.681   5.385
 3559POPC   PO446428  17.681   6.063   5.289
 3559POPC   GL146429  17.542   6.276   5.694
 3559POPC   GL246430  17.657   6.635   5.838
 3559POPC   C1A46431  17.376   6.310   6.115
 3559POPC   D2A46432  17.549   6.417   6.507
 3559POPC   C3A46433  17.521   6.627   6.900
 3559POPC   C4A46434  17.555   6.397   7.271
 3559POPC   C1B46435  17.522   6.844   6.227
 3559POPC   C2B46436  17.533   7.068   6.632
 3559POPC   C3B46437  17.381   7.104   7.026
 3559POPC   C4B46438  17.482   6.905   7.388
 3560POPC   NC346439  23.367  33.620   5.164
 3560POPC   PO446440  22.796  33.869   5.466
 3560POPC   GL146441  22.942  33.642   5.822
 3560POPC   GL246442  22.983  33.956   5.979
 3560POPC   C1A46443  22.983  33.507   6.264
 3560POPC   D2A46444  22.956  33.764   6.639
 3560POPC   C3A46445  22.997  33.580   7.025
 3560POPC   C4A46446  23.082  33.608   7.464
 3560POPC   C1B46447  22.872  34.195   6.343
 3560POPC   C2B46448  22.574  34.104   6.658
 3560POPC   C3B46449  22.665  33.990   7.056
 3560POPC   C4B46450  23.024  34.105   7.289
 3561POPC   NC346451  35.727  37.311   5.685
 3561POPC   PO446452  35.161  37.191   5.374
 3561POPC   GL146453  35.318  36.975   5.751
 3561POPC   GL246454  35.145  36.702   5.874
 3561POPC   C1A46455  35.369  37.035   6.222
 3561POPC   D2A46456  35.616  37.105   6.621
 3561POPC   C3A46457  35.723  36.765   6.890
 3561POPC   C4A46458  35.849  36.755   7.313
 3561POPC   C1B46459  34.991  36.423   6.206
 3561POPC   C2B46460  35.122  36.412   6.642
 3561POPC   C3B46461  35.197  36.816   6.844
 3561POPC   C4B46462  35.334  36.894   7.237
 3562POPC   NC346463  31.316  35.452   5.397
 3562POPC   PO446464  31.756  35.017   5.501
 3562POPC   GL146465  31.536  35.232   5.813
 3562POPC   GL246466  31.182  35.141   5.819
 3562POPC   C1A46467  31.493  35.543   6.137
 3562POPC   D2A46468  31.281  35.649   6.533
 3562POPC   C3A46469  31.453  35.511   6.945
 3562POPC   C4A46470  31.352  35.604   7.405
 3562POPC   C1B46471  31.183  35.164   6.289
 3562POPC   C2B46472  30.996  35.211   6.719
 3562POPC   C3B46473  31.099  35.195   7.173
 3562POPC   C4B46474  31.146  34.912   7.531
 3563POPC   NC346475  13.913  42.163   5.384
 3563POPC   PO446476  14.599  42.297   5.240
 3563POPC   GL146477  14.501  42.326   5.725
 3563POPC   GL246478  14.167  42.374   5.781
 3563POPC   C1A46479  14.499  42.454   6.202
 3563POPC   D2A46480  14.742  42.386   6.612
 3563POPC   C3A46481  14.547  42.376   7.016
 3563POPC   C4A46482  14.577  42.328   7.453
 3563POPC   C1B46483  14.288  41.982   6.066
 3563POPC   C2B46484  14.393  41.943   6.525
 3563POPC   C3B46485  14.159  42.042   6.917
 3563POPC   C4B46486  14.175  42.031   7.373
 3564POPC   NC346487   1.083  29.707   5.654
 3564POPC   PO446488   1.625  30.089   5.507
 3564POPC   GL146489   1.345  30.123   5.869
 3564POPC   GL246490   0.965  30.172   5.857
 3564POPC   C1A46491   1.354  30.007   6.306
 3564POPC   D2A46492   1.608  30.002   6.664
 3564POPC   C3A46493   1.532  29.718   7.028
 3564POPC   C4A46494   1.359  29.748   7.471
 3564POPC   C1B46495   0.922  30.273   6.311
 3564POPC   C2B46496   1.060  30.021   6.726
 3564POPC   C3B46497   1.063  30.037   7.182
 3564POPC   C4B46498   0.967  30.050   7.639
 3565POPC   NC346499   4.201  11.971   5.452
 3565POPC   PO446500   4.214  12.584   5.229
 3565POPC   GL146501   4.288  12.419   5.704
 3565POPC   GL246502   4.022  12.436   5.936
 3565POPC   C1A46503   4.375  12.103   6.092
 3565POPC   D2A46504   4.354  11.869   6.495
 3565POPC   C3A46505   4.458  11.912   6.933
 3565POPC   C4A46506   4.088  11.927   7.186
 3565POPC   C1B46507   4.169  12.506   6.352
 3565POPC   C2B46508   4.392  12.369   6.695
 3565POPC   C3B46509   4.426  12.428   7.125
 3565POPC   C4B46510   4.432  12.356   7.531
 3566POPC   NC346511  18.599  21.746   5.370
 3566POPC   PO446512  18.460  21.027   5.448
 3566POPC   GL146513  18.277  21.133   5.859
 3566POPC   GL246514  18.214  21.500   5.847
 3566POPC   C1A46515  18.294  21.247   6.286
 3566POPC   D2A46516  18.172  21.425   6.674
 3566POPC   C3A46517  18.308  21.164   7.044
 3566POPC   C4A46518  18.580  21.083   7.397
 3566POPC   C1B46519  17.916  21.588   6.208
 3566POPC   C2B46520  17.693  21.650   6.615
 3566POPC   C3B46521  17.820  21.763   7.006
 3566POPC   C4B46522  18.202  21.670   7.150
 3567POPC   NC346523  16.675   6.450   5.860
 3567POPC   PO446524  16.682   6.021   5.323
 3567POPC   GL146525  16.588   5.925   5.782
 3567POPC   GL246526  16.659   5.608   5.928
 3567POPC   C1A46527  16.439   5.967   6.225
 3567POPC   D2A46528  16.697   6.123   6.536
 3567POPC   C3A46529  16.754   5.926   6.895
 3567POPC   C4A46530  16.597   5.961   7.306
 3567POPC   C1B46531  16.918   5.460   6.277
 3567POPC   C2B46532  16.847   5.419   6.721
 3567POPC   C3B46533  16.656   5.480   7.140
 3567POPC   C4B46534  17.046   5.633   7.197
 3568POPC   NC346535  35.582  31.457   5.258
 3568POPC   PO446536  34.885  31.576   5.322
 3568POPC   GL146537  35.188  31.548   5.723
 3568POPC   GL246538  35.541  31.518   5.758
 3568POPC   C1A46539  35.272  31.266   6.131
 3568POPC   D2A46540  35.485  31.098   6.507
 3568POPC   C3A46541  35.253  31.152   6.908
 3568POPC   C4A46542  35.331  31.323   7.329
 3568POPC   C1B46543  35.505  31.724   6.186
 3568POPC   C2B46544  35.464  31.592   6.627
 3568POPC   C3B46545  35.717  31.391   6.959
 3568POPC   C4B46546  35.718  31.640   7.339
 3569POPC   NC346547   5.900  30.388   5.290
 3569POPC   PO446548   5.523  30.952   5.372
 3569POPC   GL146549   5.697  30.716   5.743
 3569POPC   GL246550   6.030  30.768   5.860
 3569POPC   C1A46551   5.746  30.590   6.207
 3569POPC   D2A46552   6.104  30.665   6.521
 3569POPC   C3A46553   5.964  30.496   6.914
 3569POPC   C4A46554   5.746  30.682   7.245
 3569POPC   C1B46555   6.158  31.069   6.123
 3569POPC   C2B46556   6.196  31.184   6.561
 3569POPC   C3B46557   6.158  30.982   6.984
 3569POPC   C4B46558   6.140  30.919   7.469
 3570POPC   NC346559  20.248  35.003   5.508
 3570POPC   PO446560  20.261  34.320   5.361
 3570POPC   GL146561  20.492  34.471   5.758
 3570POPC   GL246562  20.727  34.772   5.771
 3570POPC   C1A46563  20.552  34.322   6.181
 3570POPC   D2A46564  20.430  34.513   6.571
 3570POPC   C3A46565  20.730  34.562   6.875
 3570POPC   C4A46566  20.469  34.411   7.195
 3570POPC   C1B46567  20.531  34.857   6.193
 3570POPC   C2B46568  20.524  35.018   6.654
 3570POPC   C3B46569  20.449  34.919   7.105
 3570POPC   C4B46570  20.720  34.766   7.479
 3571POPC   NC346571  29.834  28.440   5.305
 3571POPC   PO446572  30.222  28.721   5.711
 3571POPC   GL146573  30.053  28.293   5.892
 3571POPC   GL246574  29.730  28.119   5.730
 3571POPC   C1A46575  30.030  28.248   6.352
 3571POPC   D2A46576  30.044  28.591   6.631
 3571POPC   C3A46577  30.084  28.437   7.038
 3571POPC   C4A46578  30.047  28.627   7.411
 3571POPC   C1B46579  29.565  28.095   6.172
 3571POPC   C2B46580  29.544  28.321   6.584
 3571POPC   C3B46581  29.537  28.488   7.013
 3571POPC   C4B46582  29.684  28.261   7.362
 3572POPC   NC346583  10.077   0.554   5.528
 3572POPC   PO446584  10.498   0.051   5.403
 3572POPC   GL146585  10.364   0.207   5.805
 3572POPC   GL246586  10.166   0.449   6.006
 3572POPC   C1A46587  10.554   0.168   6.211
 3572POPC   D2A46588  10.403   0.107   6.615
 3572POPC   C3A46589  10.571   0.282   6.990
 3572POPC   C4A46590  10.340   0.166   7.319
 3572POPC   C1B46591  10.469   0.652   6.270
 3572POPC   C2B46592  10.551   0.673   6.670
 3572POPC   C3B46593  10.340   0.758   7.033
 3572POPC   C4B46594  10.460   0.661   7.414
 3573POPC   NC346595   0.672   9.431   5.364
 3573POPC   PO446596   0.520  10.102   5.506
 3573POPC   GL146597   0.357   9.842   5.845
 3573POPC   GL246598   0.466   9.495   5.856
 3573POPC   C1A46599   0.049   9.648   6.138
 3573POPC   D2A46600   0.046   9.592   6.596
 3573POPC   C3A46601   0.312   9.878   6.841
 3573POPC   C4A46602   0.404   9.820   7.289
 3573POPC   C1B46603   0.542   9.596   6.294
 3573POPC   C2B46604   0.527   9.361   6.644
 3573POPC   C3B46605   0.347   9.403   7.018
 3573POPC   C4B46606   0.545   9.339   7.415
 3574POPC   NC346607   2.287  19.305   5.452
 3574POPC   PO446608   3.010  19.029   5.469
 3574POPC   GL146609   2.607  18.977   5.718
 3574POPC   GL246610   2.533  19.304   5.893
 3574POPC   C1A46611   2.584  18.866   6.148
 3574POPC   D2A46612   2.560  19.158   6.484
 3574POPC   C3A46613   2.803  19.007   6.836
 3574POPC   C4A46614   2.562  18.877   7.186
 3574POPC   C1B46615   2.892  19.409   6.152
 3574POPC   C2B46616   2.945  19.514   6.595
 3574POPC   C3B46617   2.752  19.475   7.004
 3574POPC   C4B46618   2.890  19.213   7.365
 3575POPC   NC346619  35.248  10.789   5.522
 3575POPC   PO446620  35.563  10.141   5.438
 3575POPC   GL146621  35.233  10.098   5.767
 3575POPC   GL246622  34.935  10.305   5.735
 3575POPC   C1A46623  35.323  10.235   6.183
 3575POPC   D2A46624  35.609  10.367   6.511
 3575POPC   C3A46625  35.411  10.498   6.888
 3575POPC   C4A46626  35.250  10.246   7.204
 3575POPC   C1B46627  35.002  10.625   6.108
 3575POPC   C2B46628  35.063  10.547   6.521
 3575POPC   C3B46629  34.893  10.529   6.943
 3575POPC   C4B46630  35.071  10.728   7.281
 3576POPC   NC346631  37.174  37.144   5.668
 3576POPC   PO446632  37.188  36.521   5.361
 3576POPC   GL146633  37.033  36.657   5.793
 3576POPC   GL246634  37.350  36.577   5.855
 3576POPC   C1A46635  36.903  36.870   6.210
 3576POPC   D2A46636  37.181  37.059   6.557
 3576POPC   C3A46637  37.077  37.097   7.003
 3576POPC   C4A46638  36.873  36.998   7.404
 3576POPC   C1B46639  37.215  36.460   6.249
 3576POPC   C2B46640  36.988  36.548   6.621
 3576POPC   C3B46641  36.924  36.599   7.062
 3576POPC   C4B46642  37.215  36.471   7.375
 3577POPC   NC346643  33.717  17.285   5.612
 3577POPC   PO446644  34.037  17.834   5.497
 3577POPC   GL146645  33.863  17.697   5.889
 3577POPC   GL246646  33.497  17.704   5.840
 3577POPC   C1A46647  33.931  17.562   6.340
 3577POPC   D2A46648  34.015  17.649   6.780
 3577POPC   C3A46649  33.984  17.318   7.097
 3577POPC   C4A46650  33.783  17.262   7.488
 3577POPC   C1B46651  33.434  17.486   6.254
 3577POPC   C2B46652  33.552  17.432   6.718
 3577POPC   C3B46653  33.565  17.614   7.153
 3577POPC   C4B46654  33.480  17.664   7.624
 3578POPC   NC346655  34.728   3.918   5.542
 3578POPC   PO446656  34.345   4.454   5.266
 3578POPC   GL146657  34.523   4.382   5.692
 3578POPC   GL246658  34.873   4.495   5.772
 3578POPC   C1A46659  34.394   4.300   6.128
 3578POPC   D2A46660  34.255   4.501   6.513
 3578POPC   C3A46661  34.462   4.349   6.879
 3578POPC   C4A46662  34.318   4.082   7.211
 3578POPC   C1B46663  34.893   4.343   6.221
 3578POPC   C2B46664  34.938   4.183   6.655
 3578POPC   C3B46665  34.943   4.394   7.074
 3578POPC   C4B46666  34.810   4.842   7.207
 3579POPC   NC346667  37.315   2.315   5.562
 3579POPC   PO446668  37.810   1.893   5.463
 3579POPC   GL146669  37.603   1.850   5.857
 3579POPC   GL246670  37.307   1.629   5.900
 3579POPC   C1A46671  37.746   2.017   6.255
 3579POPC   D2A46672  37.579   2.148   6.659
 3579POPC   C3A46673  37.942   2.104   6.942
 3579POPC   C4A46674  38.196   2.146   7.325
 3579POPC   C1B46675  37.343   1.735   6.363
 3579POPC   C2B46676  37.675   1.653   6.644
 3579POPC   C3B46677  37.636   1.707   7.061
 3579POPC   C4B46678  37.506   2.103   7.204
 3580POPC   NC346679  32.603   7.365   5.662
 3580POPC   PO446680  31.990   7.636   5.503
 3580POPC   GL146681  32.151   7.520   5.875
 3580POPC   GL246682  32.418   7.772   5.883
 3580POPC   C1A46683  32.138   7.610   6.324
 3580POPC   D2A46684  32.034   7.625   6.783
 3580POPC   C3A46685  32.251   7.341   7.100
 3580POPC   C4A46686  32.169   7.272   7.573
 3580POPC   C1B46687  32.670   7.698   6.253
 3580POPC   C2B46688  32.528   7.463   6.644
 3580POPC   C3B46689  32.660   7.660   7.034
 3580POPC   C4B46690  32.477   7.654   7.446
 3581POPC   NC346691  18.342  33.383   5.415
 3581POPC   PO446692  18.558  34.131   5.486
 3581POPC   GL146693  18.289  33.939   5.811
 3581POPC   GL246694  18.477  33.660   5.877
 3581POPC   C1A46695  18.082  33.734   6.183
 3581POPC   D2A46696  18.108  33.899   6.603
 3581POPC   C3A46697  17.999  33.674   6.956
 3581POPC   C4A46698  18.130  33.710   7.381
 3581POPC   C1B46699  18.504  33.976   6.256
 3581POPC   C2B46700  18.641  33.944   6.667
 3581POPC   C3B46701  18.414  34.017   7.035
 3581POPC   C4B46702  18.623  33.826   7.372
 3582POPC   NC346703   7.760  40.624   5.657
 3582POPC   PO446704   7.334  41.092   5.463
 3582POPC   GL146705   7.345  40.904   5.890
 3582POPC   GL246706   7.369  40.546   5.972
 3582POPC   C1A46707   7.393  41.000   6.344
 3582POPC   D2A46708   7.618  40.942   6.755
 3582POPC   C3A46709   7.424  40.951   7.175
 3582POPC   C4A46710   6.985  41.046   7.335
 3582POPC   C1B46711   7.706  40.600   6.299
 3582POPC   C2B46712   7.794  40.430   6.688
 3582POPC   C3B46713   7.862  40.567   7.088
 3582POPC   C4B46714   7.781  40.694   7.525
 3583POPC   NC346715  41.724  34.227   5.218
 3583POPC   PO446716  41.395  33.680   5.270
 3583POPC   GL146717  41.538  33.759   5.720
 3583POPC   GL246718  41.611  34.114   5.714
 3583POPC   C1A46719  41.684  33.550   6.142
 3583POPC   D2A46720  41.790  33.344   6.564
 3583POPC   C3A46721  41.718  33.617   6.931
 3583POPC   C4A46722  41.540  33.575   7.362
 3583POPC   C1B46723  41.434  34.157   6.102
 3583POPC   C2B46724  41.416  34.177   6.507
 3583POPC   C3B46725  41.312  34.036   6.886
 3583POPC   C4B46726  41.605  34.041   7.218
 3584POPC   NC346727  20.420  44.869   5.579
 3584POPC   PO446728  21.045  44.608   5.539
 3584POPC   GL146729  20.729  44.552   5.860
 3584POPC   GL246730  20.406  44.385   5.743
 3584POPC   C1A46731  20.618  44.743   6.261
 3584POPC   D2A46732  20.676   0.121   6.522
 3584POPC   C3A46733  20.821  44.965   6.906
 3584POPC   C4A46734  20.840  44.655   7.224
 3584POPC   C1B46735  20.162  44.531   6.110
 3584POPC   C2B46736  20.166  44.433   6.509
 3584POPC   C3B46737  20.399  44.679   6.795
 3584POPC   C4B46738  20.349  44.619   7.201
 3585POPC   NC346739  14.303  14.849   5.609
 3585POPC   PO446740  14.069  14.311   5.439
 3585POPC   GL146741  14.381  14.303   5.750
 3585POPC   GL246742  14.681  14.115   5.672
 3585POPC   C1A46743  14.280  14.398   6.174
 3585POPC   D2A46744  14.127  14.278   6.564
 3585POPC   C3A46745  14.363  14.474   6.912
 3585POPC   C4A46746  14.178  14.586   7.298
 3585POPC   C1B46747  14.761  14.199   6.111
 3585POPC   C2B46748  14.636  14.228   6.551
 3585POPC   C3B46749  14.554  14.018   6.969
 3585POPC   C4B46750  14.583  14.283   7.339
 3586POPC   NC346751  44.379  31.401   5.371
 3586POPC   PO446752   0.024  31.604   5.434
 3586POPC   GL146753  44.712  31.506   5.735
 3586POPC   GL246754  44.602  31.829   5.844
 3586POPC   C1A46755  44.578  31.258   6.081
 3586POPC   D2A46756  44.717  31.223   6.497
 3586POPC   C3A46757  44.611  31.450   6.848
 3586POPC   C4A46758  44.491  31.224   7.231
 3586POPC   C1B46759  44.799  31.709   6.221
 3586POPC   C2B46760  44.848  31.891   6.606
 3586POPC   C3B46761  44.955  31.783   7.007
 3586POPC   C4B46762  44.744  31.643   7.327
 3587POPC   NC346763  20.077  20.943   5.356
 3587POPC   PO446764  19.563  20.412   5.562
 3587POPC   GL146765  19.811  20.552   5.917
 3587POPC   GL246766  20.080  20.754   5.826
 3587POPC   C1A46767  19.796  20.851   6.254
 3587POPC   D2A46768  19.505  20.812   6.601
 3587POPC   C3A46769  19.673  20.562   6.946
 3587POPC   C4A46770  19.880  20.787   7.262
 3587POPC   C1B46771  20.227  20.527   6.205
 3587POPC   C2B46772  20.087  20.445   6.622
 3587POPC   C3B46773  20.256  20.304   7.002
 3587POPC   C4B46774  20.014  20.310   7.339
 3588POPC   NC346775  32.320  44.931   5.513
 3588POPC   PO446776  32.146   0.592   5.416
 3588POPC   GL146777  32.188   0.412   5.813
 3588POPC   GL246778  31.847   0.292   5.890
 3588POPC   C1A46779  32.454   0.535   6.201
 3588POPC   D2A46780  32.613   0.771   6.564
 3588POPC   C3A46781  32.630   0.545   6.965
 3588POPC   C4A46782  32.555   0.505   7.411
 3588POPC   C1B46783  32.036   0.265   6.278
 3588POPC   C2B46784  32.203   0.471   6.665
 3588POPC   C3B46785  32.182   0.342   7.078
 3588POPC   C4B46786  32.500   0.028   7.179
 3589POPC   NC346787  25.207  19.830   5.223
 3589POPC   PO446788  25.517  19.513   5.683
 3589POPC   GL146789  25.235  19.814   5.873
 3589POPC   GL246790  25.123  20.135   5.689
 3589POPC   C1A46791  25.398  19.954   6.273
 3589POPC   D2A46792  25.413  20.112   6.695
 3589POPC   C3A46793  25.365  19.763   6.980
 3589POPC   C4A46794  25.049  19.637   7.303
 3589POPC   C1B46795  24.934  20.154   6.126
 3589POPC   C2B46796  24.924  19.779   6.407
 3589POPC   C3B46797  24.871  19.778   6.842
 3589POPC   C4B46798  24.954  20.146   7.054
 3590POPC   NC346799  38.629  37.997   5.370
 3590POPC   PO446800  38.052  37.862   5.433
 3590POPC   GL146801  38.336  37.748   5.817
 3590POPC   GL246802  38.706  37.711   5.795
 3590POPC   C1A46803  38.457  37.553   6.252
 3590POPC   D2A46804  38.464  37.338   6.657
 3590POPC   C3A46805  38.130  37.408   6.940
 3590POPC   C4A46806  38.194  37.545   7.326
 3590POPC   C1B46807  38.685  38.004   6.149
 3590POPC   C2B46808  38.513  38.024   6.545
 3590POPC   C3B46809  38.546  37.779   6.948
 3590POPC   C4B46810  38.596  38.003   7.341
 3591POPC   NC346811  23.582   0.010   5.177
 3591POPC   PO446812  23.559   0.671   5.279
 3591POPC   GL146813  23.715   0.586   5.798
 3591POPC   GL246814  23.618   0.270   5.905
 3591POPC   C1A46815  23.858   0.660   6.240
 3591POPC   D2A46816  23.677   0.704   6.678
 3591POPC   C3A46817  23.951   0.629   7.033
 3591POPC   C4A46818  24.190   0.229   7.162
 3591POPC   C1B46819  23.862   0.138   6.258
 3591POPC   C2B46820  23.986   0.281   6.639
 3591POPC   C3B46821  23.640   0.251   6.914
 3591POPC   C4B46822  23.706   0.237   7.317
 3592POPC   NC346823  21.809  20.020   5.673
 3592POPC   PO446824  22.368  19.711   5.535
 3592POPC   GL146825  22.192  19.679   5.909
 3592POPC   GL246826  21.920  19.499   5.789
 3592POPC   C1A46827  22.070  19.951   6.267
 3592POPC   D2A46828  21.777  20.030   6.584
 3592POPC   C3A46829  21.996  19.937   6.962
 3592POPC   C4A46830  21.826  19.853   7.330
 3592POPC   C1B46831  21.856  19.430   6.217
 3592POPC   C2B46832  21.939  19.557   6.626
 3592POPC   C3B46833  21.842  19.420   7.042
 3592POPC   C4B46834  22.200  19.490   7.315
 3593POPC   NC346835  16.907  10.721   5.553
 3593POPC   PO446836  16.621  10.038   5.530
 3593POPC   GL146837  16.645  10.366   5.849
 3593POPC   GL246838  16.619  10.746   5.941
 3593POPC   C1A46839  16.856  10.367   6.246
 3593POPC   D2A46840  16.879  10.549   6.673
 3593POPC   C3A46841  16.836  10.365   7.075
 3593POPC   C4A46842  17.009  10.439   7.512
 3593POPC   C1B46843  16.655  10.858   6.299
 3593POPC   C2B46844  16.755  11.038   6.629
 3593POPC   C3B46845  16.650  10.888   7.016
 3593POPC   C4B46846  16.582  10.674   7.382
 3594POPC   NC346847   6.072  43.553   5.387
 3594POPC   PO446848   6.174  44.192   5.331
 3594POPC   GL146849   5.923  43.944   5.686
 3594POPC   GL246850   6.152  43.840   5.851
 3594POPC   C1A46851   5.756  43.822   6.165
 3594POPC   D2A46852   5.805  44.026   6.586
 3594POPC   C3A46853   5.781  43.821   6.997
 3594POPC   C4A46854   5.569  43.736   7.376
 3594POPC   C1B46855   6.250  43.981   6.251
 3594POPC   C2B46856   6.298  43.830   6.641
 3594POPC   C3B46857   6.200  43.530   6.924
 3594POPC   C4B46858   6.168  43.653   7.343
 3595POPC   NC346859  41.979   0.546   5.371
 3595POPC   PO446860  42.675   0.734   5.422
 3595POPC   GL146861  42.532   0.530   5.797
 3595POPC   GL246862  42.189   0.455   5.819
 3595POPC   C1A46863  42.551   0.326   6.171
 3595POPC   D2A46864  42.463   0.488   6.578
 3595POPC   C3A46865  42.349   0.259   6.930
 3595POPC   C4A46866  42.428   0.405   7.336
 3595POPC   C1B46867  42.074   0.541   6.251
 3595POPC   C2B46868  41.948   0.521   6.705
 3595POPC   C3B46869  42.015   0.654   7.165
 3595POPC   C4B46870  42.080   0.632   7.651
 3596POPC   NC346871  29.114  10.630   5.386
 3596POPC   PO446872  29.750  10.681   5.570
 3596POPC   GL146873  29.381  10.647   5.818
 3596POPC   GL246874  29.274  10.298   5.757
 3596POPC   C1A46875  29.089  10.567   6.167
 3596POPC   D2A46876  29.081  10.363   6.591
 3596POPC   C3A46877  28.986  10.571   7.019
 3596POPC   C4A46878  28.795  10.478   7.439
 3596POPC   C1B46879  29.356  10.133   6.177
 3596POPC   C2B46880  29.443  10.008   6.606
 3596POPC   C3B46881  29.438  10.316   6.932
 3596POPC   C4B46882  29.284  10.288   7.310
 3597POPC   NC346883  27.669   8.057   5.406
 3597POPC   PO446884  27.860   8.732   5.482
 3597POPC   GL146885  27.676   8.400   5.806
 3597POPC   GL246886  27.861   8.078   5.900
 3597POPC   C1A46887  27.434   8.323   6.199
 3597POPC   D2A46888  27.344   8.138   6.596
 3597POPC   C3A46889  27.187   8.241   7.003
 3597POPC   C4A46890  27.261   8.234   7.436
 3597POPC   C1B46891  27.774   7.948   6.343
 3597POPC   C2B46892  27.775   7.995   6.813
 3597POPC   C3B46893  27.716   8.106   7.221
 3597POPC   C4B46894  28.005   7.978   7.549
 3598POPC   NC346895   3.855  22.019   5.299
 3598POPC   PO446896   3.171  22.152   5.178
 3598POPC   GL146897   3.433  22.104   5.581
 3598POPC   GL246898   3.364  22.343   5.802
 3598POPC   C1A46899   3.615  21.977   6.023
 3598POPC   D2A46900   3.777  22.041   6.433
 3598POPC   C3A46901   3.658  22.075   6.846
 3598POPC   C4A46902   3.637  22.043   7.297
 3598POPC   C1B46903   3.615  22.472   6.169
 3598POPC   C2B46904   3.477  22.546   6.572
 3598POPC   C3B46905   3.432  22.500   6.980
 3598POPC   C4B46906   3.808  22.499   7.174
 3599POPC   NC346907   7.955  32.038   5.569
 3599POPC   PO446908   7.791  31.465   5.506
 3599POPC   GL146909   8.127  31.505   5.829
 3599POPC   GL246910   8.378  31.789   5.765
 3599POPC   C1A46911   8.271  31.277   6.218
 3599POPC   D2A46912   8.192  31.091   6.622
 3599POPC   C3A46913   8.386  31.305   6.930
 3599POPC   C4A46914   8.227  31.372   7.332
 3599POPC   C1B46915   8.346  31.816   6.225
 3599POPC   C2B46916   8.431  31.743   6.677
 3599POPC   C3B46917   8.255  31.807   7.089
 3599POPC   C4B46918   8.418  31.809   7.529
 3600POPC   NC346919  38.116   1.717   5.752
 3600POPC   PO446920  38.139   1.111   5.422
 3600POPC   GL146921  38.155   1.213   5.846
 3600POPC   GL246922  38.487   1.362   5.832
 3600POPC   C1A46923  38.204   1.346   6.288
 3600POPC   D2A46924  38.162   1.488   6.690
 3600POPC   C3A46925  38.346   1.249   7.020
 3600POPC   C4A46926  38.332   1.286   7.455
 3600POPC   C1B46927  38.717   1.510   6.193
 3600POPC   C2B46928  38.675   1.430   6.634
 3600POPC   C3B46929  38.754   1.559   7.050
 3600POPC   C4B46930  38.828   1.227   7.331
 3601POPC   NC346931   4.027   1.726   5.462
 3601POPC   PO446932   3.892   2.376   5.574
 3601POPC   GL146933   4.138   2.058   5.837
 3601POPC   GL246934   3.895   1.785   5.937
 3601POPC   C1A46935   4.231   1.957   6.269
 3601POPC   D2A46936   4.279   2.196   6.611
 3601POPC   C3A46937   4.290   1.964   6.947
 3601POPC   C4A46938   4.142   2.061   7.342
 3601POPC   C1B46939   3.939   1.511   6.281
 3601POPC   C2B46940   4.073   1.567   6.688
 3601POPC   C3B46941   3.936   1.641   7.108
 3601POPC   C4B46942   3.941   1.643   7.573
 3602POPC   NC346943  41.867  36.158   5.478
 3602POPC   PO446944  41.206  36.378   5.553
 3602POPC   GL146945  41.415  36.012   5.842
 3602POPC   GL246946  41.783  35.993   5.985
 3602POPC   C1A46947  41.402  35.839   6.299
 3602POPC   D2A46948  41.616  35.984   6.695
 3602POPC   C3A46949  41.580  35.784   7.106
 3602POPC   C4A46950  41.569  36.059   7.484
 3602POPC   C1B46951  41.740  36.336   6.308
 3602POPC   C2B46952  41.831  36.455   6.747
 3602POPC   C3B46953  41.941  36.162   7.100
 3602POPC   C4B46954  42.036  36.256   7.541
 3603POPC   NC346955   8.676  14.042   5.645
 3603POPC   PO446956   8.734  14.701   5.421
 3603POPC   GL146957   8.751  14.548   5.837
 3603POPC   GL246958   9.068  14.388   5.806
 3603POPC   C1A46959   8.851  14.377   6.265
 3603POPC   D2A46960   8.865  14.245   6.689
 3603POPC   C3A46961   8.884  14.476   7.049
 3603POPC   C4A46962   8.594  14.674   7.292
 3603POPC   C1B46963   9.318  14.160   6.160
 3603POPC   C2B46964   9.273  13.969   6.592
 3603POPC   C3B46965   9.311  14.174   6.986
 3603POPC   C4B46966   9.319  14.447   7.352
 3604POPC   NC346967  33.450  29.847   5.321
 3604POPC   PO446968  32.867  29.747   5.328
 3604POPC   GL146969  33.089  30.051   5.674
 3604POPC   GL246970  33.432  30.000   5.800
 3604POPC   C1A46971  33.122  30.157   6.158
 3604POPC   D2A46972  33.048  29.913   6.547
 3604POPC   C3A46973  33.090  30.035   6.979
 3604POPC   C4A46974  32.994  30.167   7.393
 3604POPC   C1B46975  33.377  29.728   6.152
 3604POPC   C2B46976  33.506  29.649   6.538
 3604POPC   C3B46977  33.298  29.536   6.866
 3604POPC   C4B46978  33.157  29.569   7.241
 3605POPC   NC346979  34.063  27.772   5.115
 3605POPC   PO446980  33.687  27.526   5.549
 3605POPC   GL146981  33.886  27.671   5.900
 3605POPC   GL246982  34.214  27.610   5.776
 3605POPC   C1A46983  33.740  27.771   6.325
 3605POPC   D2A46984  33.594  27.497   6.645
 3605POPC   C3A46985  33.677  27.640   7.048
 3605POPC   C4A46986  33.788  27.779   7.430
 3605POPC   C1B46987  34.156  27.298   6.094
 3605POPC   C2B46988  34.125  27.488   6.506
 3605POPC   C3B46989  34.032  27.300   6.893
 3605POPC   C4B46990  34.188  27.519   7.244
 3606POPC   NC346991  31.776   6.093   5.793
 3606POPC   PO446992  32.399   6.013   5.485
 3606POPC   GL146993  32.286   6.060   5.893
 3606POPC   GL246994  32.126   5.745   5.914
 3606POPC   C1A46995  32.296   5.966   6.353
 3606POPC   D2A46996  32.410   6.080   6.776
 3606POPC   C3A46997  32.401   5.786   7.126
 3606POPC   C4A46998  32.269   5.912   7.532
 3606POPC   C1B46999  31.834   5.720   6.310
 3606POPC   C2B47000  31.922   5.868   6.726
 3606POPC   C3B47001  31.910   5.940   7.152
 3606POPC   C4B47002  31.764   5.781   7.530
 3607POPC   NC347003  32.796   3.245   5.137
 3607POPC   PO447004  33.132   3.843   5.142
 3607POPC   GL147005  33.064   3.642   5.572
 3607POPC   GL247006  33.070   3.274   5.634
 3607POPC   C1A47007  33.096   3.665   6.046
 3607POPC   D2A47008  33.285   3.612   6.450
 3607POPC   C3A47009  33.087   3.600   6.845
 3607POPC   C4A47010  32.934   3.698   7.249
 3607POPC   C1B47011  32.883   3.190   6.064
 3607POPC   C2B47012  32.804   3.387   6.463
 3607POPC   C3B47013  32.624   3.374   6.880
 3607POPC   C4B47014  32.470   3.474   7.265
 3608POPC   NC347015  37.787  44.887   5.465
 3608POPC   PO447016  37.690  44.253   5.467
 3608POPC   GL147017  37.616  44.538   5.810
 3608POPC   GL247018  37.314  44.697   5.626
 3608POPC   C1A47019  37.748  44.679   6.286
 3608POPC   D2A47020  37.858  44.424   6.680
 3608POPC   C3A47021  37.766  44.484   7.108
 3608POPC   C4A47022  37.373  44.500   7.308
 3608POPC   C1B47023  37.349  44.888   6.050
 3608POPC   C2B47024  37.224  44.896   6.495
 3608POPC   C3B47025  37.475  44.875   6.884
 3608POPC   C4B47026  37.692  44.962   7.251
 3609POPC   NC347027   9.821  33.437   5.040
 3609POPC   PO447028  10.005  33.999   5.446
 3609POPC   GL147029   9.908  33.766   5.834
 3609POPC   GL247030  10.011  33.437   5.889
 3609POPC   C1A47031   9.912  33.739   6.305
 3609POPC   D2A47032  10.076  33.952   6.684
 3609POPC   C3A47033   9.781  33.997   7.006
 3609POPC   C4A47034   9.794  33.692   7.295
 3609POPC   C1B47035   9.560  33.421   6.066
 3609POPC   C2B47036   9.399  33.625   6.468
 3609POPC   C3B47037   9.485  33.556   6.902
 3609POPC   C4B47038   9.314  33.496   7.311
 3610POPC   NC347039  39.112  41.768   5.314
 3610POPC   PO447040  39.443  41.235   5.523
 3610POPC   GL147041  39.153  41.262   5.876
 3610POPC   GL247042  38.952  41.569   5.806
 3610POPC   C1A47043  39.117  41.203   6.347
 3610POPC   D2A47044  39.357  41.174   6.742
 3610POPC   C3A47045  39.355  41.407   7.132
 3610POPC   C4A47046  39.505  41.516   7.539
 3610POPC   C1B47047  39.084  41.706   6.244
 3610POPC   C2B47048  39.103  41.631   6.717
 3610POPC   C3B47049  39.057  41.827   7.147
 3610POPC   C4B47050  39.055  41.797   7.600
 3611POPC   NC347051   7.687  28.127   5.576
 3611POPC   PO447052   7.518  28.790   5.521
 3611POPC   GL147053   7.634  28.581   5.856
 3611POPC   GL247054   7.353  28.381   5.858
 3611POPC   C1A47055   7.499  28.631   6.265
 3611POPC   D2A47056   7.509  28.388   6.593
 3611POPC   C3A47057   7.436  28.541   6.944
 3611POPC   C4A47058   7.573  28.552   7.314
 3611POPC   C1B47059   7.417  28.084   6.200
 3611POPC   C2B47060   7.400  27.835   6.553
 3611POPC   C3B47061   7.442  28.023   6.953
 3611POPC   C4B47062   7.609  28.046   7.379
 3612POPC   NC347063   8.778  32.051   5.497
 3612POPC   PO447064   8.944  32.602   5.277
 3612POPC   GL147065   9.118  32.416   5.678
 3612POPC   GL247066   8.829  32.351   5.909
 3612POPC   C1A47067   9.325  32.352   6.113
 3612POPC   D2A47068   9.180  32.326   6.574
 3612POPC   C3A47069   9.269  32.117   7.000
 3612POPC   C4A47070   9.059  32.394   7.332
 3612POPC   C1B47071   8.928  32.012   6.236
 3612POPC   C2B47072   8.912  31.890   6.708
 3612POPC   C3B47073   8.771  32.009   7.162
 3612POPC   C4B47074   8.727  32.184   7.657
 3613POPC   NC347075  17.753  25.188   5.286
 3613POPC   PO447076  17.729  25.788   5.528
 3613POPC   GL147077  17.679  25.407   5.748
 3613POPC   GL247078  17.343  25.276   5.691
 3613POPC   C1A47079  17.596  25.389   6.183
 3613POPC   D2A47080  17.796  25.192   6.522
 3613POPC   C3A47081  17.714  25.326   6.894
 3613POPC   C4A47082  17.635  25.057   7.203
 3613POPC   C1B47083  17.122  25.230   6.110
 3613POPC   C2B47084  17.273  25.192   6.569
 3613POPC   C3B47085  17.218  25.261   7.016
 3613POPC   C4B47086  17.129  24.941   7.301
 3614POPC   NC347087  43.750  27.409   5.433
 3614POPC   PO447088  43.960  26.823   5.214
 3614POPC   GL147089  43.933  26.966   5.651
 3614POPC   GL247090  43.997  26.654   5.839
 3614POPC   C1A47091  43.766  27.029   6.076
 3614POPC   D2A47092  43.826  26.737   6.429
 3614POPC   C3A47093  43.900  26.983   6.803
 3614POPC   C4A47094  43.746  26.810   7.205
 3614POPC   C1B47095  44.227  26.456   6.177
 3614POPC   C2B47096  44.381  26.533   6.586
 3614POPC   C3B47097  44.215  26.611   7.010
 3614POPC   C4B47098  44.066  26.422   7.391
 3615POPC   NC347099  16.347  19.202   5.533
 3615POPC   PO447100  16.865  18.858   5.358
 3615POPC   GL147101  16.732  18.853   5.789
 3615POPC   GL247102  16.803  19.188   5.920
 3615POPC   C1A47103  16.728  18.776   6.240
 3615POPC   D2A47104  16.834  19.013   6.591
 3615POPC   C3A47105  16.709  18.794   6.952
 3615POPC   C4A47106  16.851  18.746   7.369
 3615POPC   C1B47107  16.404  19.158   6.185
 3615POPC   C2B47108  16.317  19.089   6.622
 3615POPC   C3B47109  16.562  19.274   6.986
 3615POPC   C4B47110  16.970  19.214   7.176
 3616POPC   NC347111  36.272  30.220   5.360
 3616POPC   PO447112  36.102  29.666   5.615
 3616POPC   GL147113  36.068  29.828   6.006
 3616POPC   GL247114  36.200  30.125   5.862
 3616POPC   C1A47115  35.790  29.707   6.352
 3616POPC   D2A47116  35.940  29.579   6.742
 3616POPC   C3A47117  35.841  29.868   7.085
 3616POPC   C4A47118  36.035  29.933   7.490
 3616POPC   C1B47119  36.400  30.100   6.259
 3616POPC   C2B47120  36.184  30.005   6.640
 3616POPC   C3B47121  36.346  29.776   6.995
 3616POPC   C4B47122  36.539  29.957   7.328
 3617POPC   NC347123   0.737  41.010   5.327
 3617POPC   PO447124   0.357  40.450   5.467
 3617POPC   GL147125   0.507  40.730   5.814
 3617POPC   GL247126   0.369  41.059   5.773
 3617POPC   C1A47127   0.511  40.694   6.273
 3617POPC   D2A47128   0.406  40.492   6.675
 3617POPC   C3A47129   0.654  40.510   7.034
 3617POPC   C4A47130   0.345  40.563   7.290
 3617POPC   C1B47131   0.407  41.204   6.227
 3617POPC   C2B47132   0.485  41.178   6.653
 3617POPC   C3B47133   0.792  40.970   6.915
 3617POPC   C4B47134   0.704  40.960   7.350
 3618POPC   NC347135  38.808  17.734   5.669
 3618POPC   PO447136  39.399  17.592   5.477
 3618POPC   GL147137  39.240  17.525   5.901
 3618POPC   GL247138  38.939  17.315   5.978
 3618POPC   C1A47139  39.345  17.466   6.340
 3618POPC   D2A47140  39.585  17.741   6.635
 3618POPC   C3A47141  39.510  17.575   7.047
 3618POPC   C4A47142  39.110  17.384   7.178
 3618POPC   C1B47143  38.866  17.670   6.271
 3618POPC   C2B47144  38.833  17.900   6.593
 3618POPC   C3B47145  39.088  17.832   6.903
 3618POPC   C4B47146  38.913  17.859   7.270
 3619POPC   NC347147  37.213  15.313   5.539
 3619POPC   PO447148  36.631  15.153   5.204
 3619POPC   GL147149  36.737  15.076   5.657
 3619POPC   GL247150  36.443  14.884   5.694
 3619POPC   C1A47151  36.892  15.188   6.114
 3619POPC   D2A47152  37.088  15.040   6.531
 3619POPC   C3A47153  37.061  15.236   6.938
 3619POPC   C4A47154  36.955  15.341   7.349
 3619POPC   C1B47155  36.502  14.784   6.099
 3619POPC   C2B47156  36.533  15.024   6.434
 3619POPC   C3B47157  36.624  14.996   6.825
 3619POPC   C4B47158  36.609  14.970   7.222
 3620POPC   NC347159  18.604  14.226   5.487
 3620POPC   PO447160  17.944  14.047   5.519
 3620POPC   GL147161  18.175  14.299   5.817
 3620POPC   GL247162  18.440  14.176   5.965
 3620POPC   C1A47163  18.082  14.438   6.230
 3620POPC   D2A47164  18.120  14.323   6.647
 3620POPC   C3A47165  18.174  14.653   6.943
 3620POPC   C4A47166  18.312  14.715   7.346
 3620POPC   C1B47167  18.571  14.545   6.193
 3620POPC   C2B47168  18.580  14.529   6.618
 3620POPC   C3B47169  18.533  14.215   6.945
 3620POPC   C4B47170  18.305  14.212   7.345
 3621POPC   NC347171  29.739  40.249   5.567
 3621POPC   PO447172  30.210  39.786   5.684
 3621POPC   GL147173  29.904  39.917   5.981
 3621POPC   GL247174  30.026  40.171   6.044
 3621POPC   C1A47175  29.868  39.888   6.439
 3621POPC   D2A47176  29.644  40.097   6.750
 3621POPC   C3A47177  29.800  40.027   7.145
 3621POPC   C4A47178  29.703  40.188   7.519
 3621POPC   C1B47179  30.263  40.385   6.339
 3621POPC   C2B47180  30.464  40.243   6.701
 3621POPC   C3B47181  30.198  40.335   7.038
 3621POPC   C4B47182  30.095  40.567   7.374
 3622POPC   NC347183   9.558  41.918   5.641
 3622POPC   PO447184   9.908  41.322   5.388
 3622POPC   GL147185   9.709  41.440   5.785
 3622POPC   GL247186   9.383  41.305   5.892
 3622POPC   C1A47187   9.720  41.608   6.223
 3622POPC   D2A47188   9.935  41.849   6.551
 3622POPC   C3A47189   9.787  41.868   6.976
 3622POPC   C4A47190  10.052  41.830   7.334
 3622POPC   C1B47191   9.359  41.281   6.375
 3622POPC   C2B47192   9.648  41.426   6.716
 3622POPC   C3B47193   9.690  41.420   7.148
 3622POPC   C4B47194   9.632  41.200   7.452
 3623POPC   NC347195   9.262  11.146   5.217
 3623POPC   PO447196   8.740  11.503   5.205
 3623POPC   GL147197   9.115  11.416   5.622
 3623POPC   GL247198   8.995  11.656   5.858
 3623POPC   C1A47199   9.274  11.309   6.085
 3623POPC   D2A47200   9.129  11.063   6.451
 3623POPC   C3A47201   9.133  11.209   6.883
 3623POPC   C4A47202   8.842  11.051   7.174
 3623POPC   C1B47203   8.843  11.586   6.282
 3623POPC   C2B47204   8.897  11.668   6.704
 3623POPC   C3B47205   8.810  11.559   7.115
 3623POPC   C4B47206   8.693  11.616   7.544
 3624POPC   NC347207  23.828   3.269   5.556
 3624POPC   PO447208  24.160   3.760   5.761
 3624POPC   GL147209  23.696   3.755   5.803
 3624POPC   GL247210  23.565   3.447   5.933
 3624POPC   C1A47211  23.503   3.880   6.179
 3624POPC   D2A47212  23.800   3.955   6.530
 3624POPC   C3A47213  23.904   3.699   6.885
 3624POPC   C4A47214  23.845   3.737   7.315
 3624POPC   C1B47215  23.792   3.465   6.309
 3624POPC   C2B47216  23.538   3.385   6.664
 3624POPC   C3B47217  23.460   3.485   7.083
 3624POPC   C4B47218  23.806   3.231   7.223
 3625POPC   NC347219  42.443  24.572   5.468
 3625POPC   PO447220  41.830  24.278   5.268
 3625POPC   GL147221  42.059  24.340   5.685
 3625POPC   GL247222  42.070  24.701   5.789
 3625POPC   C1A47223  42.199  24.246   6.129
 3625POPC   D2A47224  41.989  24.423   6.506
 3625POPC   C3A47225  42.186  24.527   6.898
 3625POPC   C4A47226  42.475  24.301   7.142
 3625POPC   C1B47227  42.350  24.741   6.167
 3625POPC   C2B47228  42.531  24.836   6.591
 3625POPC   C3B47229  42.606  24.802   7.050
 3625POPC   C4B47230  42.315  24.685   7.428
 3626POPC   NC347231  13.834  16.199   5.364
 3626POPC   PO447232  13.405  15.697   5.365
 3626POPC   GL147233  13.409  15.968   5.767
 3626POPC   GL247234  13.764  15.999   5.822
 3626POPC   C1A47235  13.463  16.217   6.168
 3626POPC   D2A47236  13.868  16.287   6.402
 3626POPC   C3A47237  13.805  16.170   6.834
 3626POPC   C4A47238  13.547  16.054   7.213
 3626POPC   C1B47239  13.743  15.806   6.203
 3626POPC   C2B47240  13.869  15.706   6.570
 3626POPC   C3B47241  13.698  15.661   6.926
 3626POPC   C4B47242  13.875  15.595   7.298
 3627POPC   NC347243  25.381   4.237   5.345
 3627POPC   PO447244  24.977   4.734   5.594
 3627POPC   GL147245  25.203   4.525   5.951
 3627POPC   GL247246  25.304   4.176   5.880
 3627POPC   C1A47247  25.359   4.465   6.399
 3627POPC   D2A47248  25.601   4.243   6.721
 3627POPC   C3A47249  25.465   4.261   7.156
 3627POPC   C4A47250  25.107   4.482   7.397
 3627POPC   C1B47251  25.021   4.126   6.264
 3627POPC   C2B47252  25.067   4.220   6.759
 3627POPC   C3B47253  25.017   4.021   7.190
 3627POPC   C4B47254  24.816   4.104   7.603
 3628POPC   NC347255  26.078  23.420   5.289
 3628POPC   PO447256  25.954  22.833   5.527
 3628POPC   GL147257  25.936  23.125   5.854
 3628POPC   GL247258  25.674  22.943   6.000
 3628POPC   C1A47259  26.011  23.107   6.334
 3628POPC   D2A47260  25.890  23.093   6.768
 3628POPC   C3A47261  26.178  23.085   7.091
 3628POPC   C4A47262  26.333  22.674   7.114
 3628POPC   C1B47263  25.880  22.611   6.243
 3628POPC   C2B47264  25.962  22.549   6.696
 3628POPC   C3B47265  25.771  22.706   7.090
 3628POPC   C4B47266  25.948  22.814   7.501
 3629POPC   NC347267  22.482  33.506   5.395
 3629POPC   PO447268  21.963  33.948   5.409
 3629POPC   GL147269  22.186  33.794   5.758
 3629POPC   GL247270  22.454  34.016   5.836
 3629POPC   C1A47271  22.047  33.737   6.183
 3629POPC   D2A47272  22.074  33.918   6.575
 3629POPC   C3A47273  22.251  33.745   6.883
 3629POPC   C4A47274  22.060  33.555   7.156
 3629POPC   C1B47275  22.550  33.802   6.229
 3629POPC   C2B47276  22.524  33.465   6.535
 3629POPC   C3B47277  22.529  33.325   6.958
 3629POPC   C4B47278  22.564  33.560   7.309
 3630POPC   NC347279  31.862  28.597   5.342
 3630POPC   PO447280  31.435  28.104   5.522
 3630POPC   GL147281  31.376  28.327   5.860
 3630POPC   GL247282  31.616  28.547   5.829
 3630POPC   C1A47283  31.287  28.503   6.261
 3630POPC   D2A47284  31.467  28.588   6.614
 3630POPC   C3A47285  31.241  28.514   6.940
 3630POPC   C4A47286  31.355  28.644   7.321
 3630POPC   C1B47287  31.777  28.365   6.228
 3630POPC   C2B47288  31.783  28.193   6.631
 3630POPC   C3B47289  31.750  28.399   7.015
 3630POPC   C4B47290  31.669  28.265   7.416
 3631POPC   NC347291  12.146  19.086   5.031
 3631POPC   PO447292  12.463  18.695   5.471
 3631POPC   GL147293  12.194  18.749   5.839
 3631POPC   GL247294  11.819  18.749   5.809
 3631POPC   C1A47295  12.322  18.900   6.249
 3631POPC   D2A47296  12.176  19.012   6.669
 3631POPC   C3A47297  11.798  18.907   6.916
 3631POPC   C4A47298  11.901  18.929   7.348
 3631POPC   C1B47299  11.829  19.002   6.209
 3631POPC   C2B47300  11.800  19.319   6.566
 3631POPC   C3B47301  11.964  19.385   7.000
 3631POPC   C4B47302  11.759  19.427   7.409
 3632POPC   NC347303  38.381  38.961   5.470
 3632POPC   PO447304  38.329  39.697   5.334
 3632POPC   GL147305  38.239  39.415   5.689
 3632POPC   GL247306  38.554  39.282   5.851
 3632POPC   C1A47307  38.152  39.365   6.133
 3632POPC   D2A47308  38.498  39.428   6.432
 3632POPC   C3A47309  38.506  39.437   6.891
 3632POPC   C4A47310  38.529  39.319   7.325
 3632POPC   C1B47311  38.494  38.958   6.204
 3632POPC   C2B47312  38.590  38.959   6.665
 3632POPC   C3B47313  38.480  38.873   7.101
 3632POPC   C4B47314  38.472  38.843   7.590
 3633POPC   NC347315  43.247  21.048   5.515
 3633POPC   PO447316  42.804  21.510   5.369
 3633POPC   GL147317  42.977  21.403   5.777
 3633POPC   GL247318  43.244  21.582   5.789
 3633POPC   C1A47319  43.181  21.201   6.172
 3633POPC   D2A47320  43.037  21.090   6.602
 3633POPC   C3A47321  43.118  21.254   7.027
 3633POPC   C4A47322  43.190  21.342   7.488
 3633POPC   C1B47323  43.380  21.656   6.227
 3633POPC   C2B47324  43.486  21.415   6.619
 3633POPC   C3B47325  43.490  21.581   7.045
 3633POPC   C4B47326  43.073  21.743   7.202
 3634POPC   NC347327   5.530  13.891   5.565
 3634POPC   PO447328   5.911  14.512   5.415
 3634POPC   GL147329   5.852  14.480   5.834
 3634POPC   GL247330   5.570  14.330   5.850
 3634POPC   C1A47331   6.006  14.397   6.244
 3634POPC   D2A47332   6.172  14.627   6.597
 3634POPC   C3A47333   6.089  14.411   6.976
 3634POPC   C4A47334   5.763  14.186   7.167
 3634POPC   C1B47335   5.515  14.557   6.275
 3634POPC   C2B47336   5.569  14.462   6.747
 3634POPC   C3B47337   5.486  14.608   7.199
 3634POPC   C4B47338   5.713  14.827   7.518
 3635POPC   NC347339   4.602  16.102   5.464
 3635POPC   PO447340   4.414  15.466   5.379
 3635POPC   GL147341   4.285  15.671   5.781
 3635POPC   GL247342   4.073  15.961   5.733
 3635POPC   C1A47343   4.111  15.745   6.218
 3635POPC   D2A47344   4.399  15.756   6.576
 3635POPC   C3A47345   4.329  15.839   7.013
 3635POPC   C4A47346   4.657  15.769   7.297
 3635POPC   C1B47347   4.198  16.240   6.088
 3635POPC   C2B47348   4.261  16.293   6.534
 3635POPC   C3B47349   4.547  16.314   6.868
 3635POPC   C4B47350   4.491  16.262   7.283
 3636POPC   NC347351  18.015  12.440   5.550
 3636POPC   PO447352  18.508  12.079   5.280
 3636POPC   GL147353  18.297  12.045   5.707
 3636POPC   GL247354  18.354  12.355   5.954
 3636POPC   C1A47355  18.208  11.893   6.111
 3636POPC   D2A47356  18.361  12.124   6.452
 3636POPC   C3A47357  18.337  12.093   6.863
 3636POPC   C4A47358  18.369  11.837   7.208
 3636POPC   C1B47359  18.129  12.562   6.321
 3636POPC   C2B47360  17.743  12.616   6.525
 3636POPC   C3B47361  17.850  12.548   6.964
 3636POPC   C4B47362  18.085  12.327   7.249
 3637POPC   NC347363  34.107   2.610   5.352
 3637POPC   PO447364  33.648   3.154   5.420
 3637POPC   GL147365  33.594   2.889   5.820
 3637POPC   GL247366  33.918   2.699   5.829
 3637POPC   C1A47367  33.682   2.776   6.271
 3637POPC   D2A47368  33.825   2.528   6.651
 3637POPC   C3A47369  33.623   2.739   6.989
 3637POPC   C4A47370  33.725   2.950   7.330
 3637POPC   C1B47371  34.107   2.528   6.213
 3637POPC   C2B47372  34.299   2.819   6.520
 3637POPC   C3B47373  34.159   2.912   6.943
 3637POPC   C4B47374  34.163   2.694   7.344
 3638POPC   NC347375   8.742  32.964   5.090
 3638POPC   PO447376   8.982  32.912   5.729
 3638POPC   GL147377   9.041  33.083   6.053
 3638POPC   GL247378   9.015  32.742   6.212
 3638POPC   C1A47379   9.167  33.170   6.441
 3638POPC   D2A47380   9.075  32.864   6.710
 3638POPC   C3A47381   9.205  33.064   7.055
 3638POPC   C4A47382   8.913  33.187   7.306
 3638POPC   C1B47383   8.595  32.640   6.263
 3638POPC   C2B47384   8.407  32.707   6.682
 3638POPC   C3B47385   8.657  32.674   7.096
 3638POPC   C4B47386   8.602  32.667   7.553
 3639POPC   NC347387  28.135  38.685   5.484
 3639POPC   PO447388  28.640  38.269   5.624
 3639POPC   GL147389  28.356  38.445   5.894
 3639POPC   GL247390  28.025  38.284   5.773
 3639POPC   C1A47391  28.524  38.555   6.288
 3639POPC   D2A47392  28.756  38.568   6.674
 3639POPC   C3A47393  28.501  38.492   7.026
 3639POPC   C4A47394  28.374  38.750   7.370
 3639POPC   C1B47395  27.958  38.248   6.197
 3639POPC   C2B47396  28.152  38.377   6.572
 3639POPC   C3B47397  28.104  38.168   6.939
 3639POPC   C4B47398  28.138  38.259   7.351
 3640POPC   NC347399   7.891   2.660   5.477
 3640POPC   PO447400   7.201   2.935   5.402
 3640POPC   GL147401   7.482   2.887   5.747
 3640POPC   GL247402   7.480   2.565   5.806
 3640POPC   C1A47403   7.678   3.030   6.126
 3640POPC   D2A47404   7.609   2.879   6.542
 3640POPC   C3A47405   7.626   3.079   6.944
 3640POPC   C4A47406   7.492   2.981   7.388
 3640POPC   C1B47407   7.707   2.496   6.177
 3640POPC   C2B47408   7.764   2.398   6.606
 3640POPC   C3B47409   7.611   2.570   6.968
 3640POPC   C4B47410   7.608   2.459   7.363
 3641POPC   NC347411  23.674  22.547   5.553
 3641POPC   PO447412  23.562  23.213   5.332
 3641POPC   GL147413  23.666  23.138   5.768
 3641POPC   GL247414  23.314  23.154   5.941
 3641POPC   C1A47415  23.758  23.211   6.222
 3641POPC   D2A47416  23.367  23.312   6.513
 3641POPC   C3A47417  23.424  23.235   6.985
 3641POPC   C4A47418  23.806  23.073   7.173
 3641POPC   C1B47419  23.444  22.836   6.262
 3641POPC   C2B47420  23.656  22.906   6.678
 3641POPC   C3B47421  23.465  22.707   7.062
 3641POPC   C4B47422  23.317  22.508   7.449
 3642POPC   NC347423   0.619  30.602   5.508
 3642POPC   PO447424   0.617  29.900   5.584
 3642POPC   GL147425   0.418  29.761   5.932
 3642POPC   GL247426   0.184  29.503   5.790
 3642POPC   C1A47427   0.326  29.976   6.311
 3642POPC   D2A47428   0.564  30.150   6.659
 3642POPC   C3A47429   0.403  30.270   7.024
 3642POPC   C4A47430   0.546  29.990   7.306
 3642POPC   C1B47431   0.026  29.559   6.202
 3642POPC   C2B47432   0.133  29.619   6.621
 3642POPC   C3B47433   0.175  29.716   7.032
 3642POPC   C4B47434   0.390  29.496   7.355
 3643POPC   NC347435  27.983  28.630   5.618
 3643POPC   PO447436  28.254  28.074   5.400
 3643POPC   GL147437  28.346  28.311   5.874
 3643POPC   GL247438  28.513  28.570   5.957
 3643POPC   C1A47439  28.479  28.285   6.347
 3643POPC   D2A47440  28.305  28.029   6.644
 3643POPC   C3A47441  28.290  28.296   6.965
 3643POPC   C4A47442  28.197  28.331   7.375
 3643POPC   C1B47443  28.127  28.639   6.223
 3643POPC   C2B47444  27.991  28.602   6.604
 3643POPC   C3B47445  27.872  28.588   7.013
 3643POPC   C4B47446  28.080  28.872   7.249
 3644POPC   NC347447   9.663  26.519   5.507
 3644POPC   PO447448  10.050  25.963   5.450
 3644POPC   GL147449   9.853  25.821   5.791
 3644POPC   GL247450   9.674  26.121   5.873
 3644POPC   C1A47451   9.806  25.768   6.245
 3644POPC   D2A47452   9.943  26.063   6.571
 3644POPC   C3A47453   9.781  26.059   6.953
 3644POPC   C4A47454   9.827  25.740   7.236
 3644POPC   C1B47455   9.396  26.082   6.267
 3644POPC   C2B47456   9.338  25.838   6.673
 3644POPC   C3B47457   9.347  25.848   7.141
 3644POPC   C4B47458   9.396  26.150   7.486
 3645POPC   NC347459  30.772  24.616   5.543
 3645POPC   PO447460  30.307  24.256   5.329
 3645POPC   GL147461  30.557  24.158   5.738
 3645POPC   GL247462  30.939  24.216   5.812
 3645POPC   C1A47463  30.523  24.305   6.182
 3645POPC   D2A47464  30.630  24.638   6.536
 3645POPC   C3A47465  30.490  24.482   6.957
 3645POPC   C4A47466  30.509  24.622   7.384
 3645POPC   C1B47467  31.021  24.342   6.238
 3645POPC   C2B47468  30.828  24.183   6.621
 3645POPC   C3B47469  30.973  24.357   7.000
 3645POPC   C4B47470  30.975  24.402   7.401
 3646POPC   NC347471  38.367  18.557   5.311
 3646POPC   PO447472  38.406  19.186   5.441
 3646POPC   GL147473  38.579  18.976   5.785
 3646POPC   GL247474  38.850  19.243   5.814
 3646POPC   C1A47475  38.568  18.751   6.189
 3646POPC   D2A47476  38.489  18.887   6.612
 3646POPC   C3A47477  38.726  18.792   6.988
 3646POPC   C4A47478  38.406  18.809   7.278
 3646POPC   C1B47479  38.700  19.229   6.235
 3646POPC   C2B47480  38.469  19.406   6.574
 3646POPC   C3B47481  38.499  19.277   6.974
 3646POPC   C4B47482  38.418  19.477   7.358
 3647POPC   NC347483   1.336   1.505   5.333
 3647POPC   PO447484   1.261   0.764   5.375
 3647POPC   GL147485   1.209   0.907   5.813
 3647POPC   GL247486   1.129   1.255   5.776
 3647POPC   C1A47487   1.055   0.965   6.256
 3647POPC   D2A47488   1.072   0.944   6.724
 3647POPC   C3A47489   1.437   1.150   6.913
 3647POPC   C4A47490   1.503   1.335   7.316
 3647POPC   C1B47491   1.086   1.485   6.164
 3647POPC   C2B47492   0.918   1.444   6.564
 3647POPC   C3B47493   1.012   1.447   6.985
 3647POPC   C4B47494   1.022   1.164   7.262
 3648POPC   NC347495  34.297  21.307   5.455
 3648POPC   PO447496  34.846  21.548   5.643
 3648POPC   GL147497  34.529  21.347   5.895
 3648POPC   GL247498  34.264  21.626   5.837
 3648POPC   C1A47499  34.498  21.142   6.296
 3648POPC   D2A47500  34.755  21.065   6.673
 3648POPC   C3A47501  34.612  21.259   7.061
 3648POPC   C4A47502  34.757  21.242   7.501
 3648POPC   C1B47503  34.361  21.621   6.267
 3648POPC   C2B47504  34.280  21.420   6.659
 3648POPC   C3B47505  34.217  21.646   7.018
 3648POPC   C4B47506  34.410  21.598   7.385
 3649POPC   NC347507  15.471  43.342   5.441
 3649POPC   PO447508  14.795  42.955   5.546
 3649POPC   GL147509  14.994  43.241   5.846
 3649POPC   GL247510  15.173  42.945   5.966
 3649POPC   C1A47511  15.117  43.322   6.305
 3649POPC   D2A47512  15.047  43.220   6.750
 3649POPC   C3A47513  15.298  43.033   7.042
 3649POPC   C4A47514  15.038  43.189   7.374
 3649POPC   C1B47515  14.761  42.962   6.224
 3649POPC   C2B47516  14.617  42.907   6.646
 3649POPC   C3B47517  14.842  42.810   7.016
 3649POPC   C4B47518  14.903  42.726   7.459
 3650POPC   NC347519   1.610   5.313   5.658
 3650POPC   PO447520   2.013   4.933   5.234
 3650POPC   GL147521   2.021   4.971   5.662
 3650POPC   GL247522   1.803   4.695   5.696
 3650POPC   C1A47523   2.096   5.059   6.104
 3650POPC   D2A47524   2.312   5.121   6.492
 3650POPC   C3A47525   2.123   5.063   6.886
 3650POPC   C4A47526   2.265   5.146   7.276
 3650POPC   C1B47527   1.731   4.672   6.132
 3650POPC   C2B47528   1.789   4.879   6.518
 3650POPC   C3B47529   1.647   4.844   6.942
 3650POPC   C4B47530   1.671   5.190   7.183
 3651POPC   NC347531  23.784   4.706   5.451
 3651POPC   PO447532  23.357   5.190   5.748
 3651POPC   GL147533  23.768   5.133   5.876
 3651POPC   GL247534  23.795   4.780   5.952
 3651POPC   C1A47535  23.846   5.329   6.272
 3651POPC   D2A47536  23.662   5.269   6.691
 3651POPC   C3A47537  23.918   5.264   7.059
 3651POPC   C4A47538  23.599   4.985   7.233
 3651POPC   C1B47539  23.722   4.834   6.389
 3651POPC   C2B47540  23.871   4.831   6.803
 3651POPC   C3B47541  24.017   4.701   7.188
 3651POPC   C4B47542  24.137   4.612   7.604
 3652POPC   NC347543   0.131  14.076   5.723
 3652POPC   PO447544  44.934  13.688   5.196
 3652POPC   GL147545  44.866  13.659   5.695
 3652POPC   GL247546  44.642  13.957   5.823
 3652POPC   C1A47547  44.730  13.565   6.141
 3652POPC   D2A47548  44.576  13.484   6.580
 3652POPC   C3A47549  44.495  13.795   6.877
 3652POPC   C4A47550  44.284  13.695   7.207
 3652POPC   C1B47551  44.737  14.072   6.274
 3652POPC   C2B47552  44.929  13.937   6.665
 3652POPC   C3B47553   0.058  13.938   7.112
 3652POPC   C4B47554   0.090  13.729   7.524
 3653POPC   NC347555   9.462  23.601   5.622
 3653POPC   PO447556  10.048  23.262   5.511
 3653POPC   GL147557   9.843  23.386   5.909
 3653POPC   GL247558   9.779  23.795   5.963
 3653POPC   C1A47559   9.911  23.464   6.340
 3653POPC   D2A47560   9.831  23.670   6.720
 3653POPC   C3A47561   9.972  23.504   7.093
 3653POPC   C4A47562   9.985  23.747   7.462
 3653POPC   C1B47563   9.470  23.704   6.301
 3653POPC   C2B47564   9.441  23.347   6.601
 3653POPC   C3B47565   9.434  23.472   7.025
 3653POPC   C4B47566   9.575  23.891   7.143
 3654POPC   NC347567  23.108  23.144   5.451
 3654POPC   PO447568  22.508  22.846   5.330
 3654POPC   GL147569  22.770  22.872   5.733
 3654POPC   GL247570  22.780  23.220   5.827
 3654POPC   C1A47571  22.927  22.786   6.196
 3654POPC   D2A47572  23.141  22.649   6.617
 3654POPC   C3A47573  22.963  22.802   7.004
 3654POPC   C4A47574  22.990  23.134   7.299
 3654POPC   C1B47575  22.762  23.283   6.238
 3654POPC   C2B47576  22.894  23.128   6.608
 3654POPC   C3B47577  22.673  23.253   6.929
 3654POPC   C4B47578  22.541  23.402   7.302
 3655POPC   NC347579  30.278   5.024   5.442
 3655POPC   PO447580  29.583   4.976   5.530
 3655POPC   GL147581  29.697   5.005   5.934
 3655POPC   GL247582  30.027   4.901   5.868
 3655POPC   C1A47583  29.690   5.187   6.337
 3655POPC   D2A47584  29.959   5.277   6.668
 3655POPC   C3A47585  29.761   5.203   7.063
 3655POPC   C4A47586  29.518   5.185   7.453
 3655POPC   C1B47587  30.189   5.093   6.237
 3655POPC   C2B47588  30.255   4.857   6.641
 3655POPC   C3B47589  30.185   4.686   7.018
 3655POPC   C4B47590  30.037   4.888   7.350
 3656POPC   NC347591  34.669  42.061   5.430
 3656POPC   PO447592  34.332  42.674   5.629
 3656POPC   GL147593  34.584  42.405   5.784
 3656POPC   GL247594  34.358  42.143   5.853
 3656POPC   C1A47595  34.710  42.340   6.189
 3656POPC   D2A47596  34.460  42.485   6.559
 3656POPC   C3A47597  34.623  42.364   6.972
 3656POPC   C4A47598  34.461  42.475   7.364
 3656POPC   C1B47599  34.423  41.933   6.251
 3656POPC   C2B47600  34.375  41.989   6.701
 3656POPC   C3B47601  34.281  42.011   7.156
 3656POPC   C4B47602  34.528  42.011   7.549
 3657POPC   NC347603   6.823  33.324   5.083
 3657POPC   PO447604   6.839  33.913   5.457
 3657POPC   GL147605   6.793  33.955   5.869
 3657POPC   GL247606   7.068  33.742   5.955
 3657POPC   C1A47607   6.448  33.821   6.135
 3657POPC   D2A47608   6.332  33.924   6.542
 3657POPC   C3A47609   6.418  33.710   6.916
 3657POPC   C4A47610   6.528  34.103   7.131
 3657POPC   C1B47611   6.881  33.708   6.358
 3657POPC   C2B47612   6.842  33.916   6.726
 3657POPC   C3B47613   6.888  33.752   7.118
 3657POPC   C4B47614   6.643  33.479   7.319
 3658POPC   NC347615  26.097  10.846   5.405
 3658POPC   PO447616  25.925  10.262   5.453
 3658POPC   GL147617  26.239  10.386   5.775
 3658POPC   GL247618  26.479  10.675   5.702
 3658POPC   C1A47619  26.138  10.412   6.239
 3658POPC   D2A47620  26.021  10.534   6.675
 3658POPC   C3A47621  25.968  10.302   7.086
 3658POPC   C4A47622  25.679  10.547   7.394
 3658POPC   C1B47623  26.313  10.879   6.092
 3658POPC   C2B47624  26.460  10.753   6.506
 3658POPC   C3B47625  26.440  10.647   6.936
 3658POPC   C4B47626  26.078  10.814   7.150
 3659POPC   NC347627  24.718  28.888   5.382
 3659POPC   PO447628  24.695  29.567   5.355
 3659POPC   GL147629  24.594  29.273   5.699
 3659POPC   GL247630  24.251  29.306   5.820
 3659POPC   C1A47631  24.628  29.195   6.171
 3659POPC   D2A47632  24.437  29.194   6.584
 3659POPC   C3A47633  24.615  29.288   6.960
 3659POPC   C4A47634  24.967  29.231   7.200
 3659POPC   C1B47635  24.063  29.177   6.227
 3659POPC   C2B47636  23.999  28.958   6.663
 3659POPC   C3B47637  24.210  28.981   7.059
 3659POPC   C4B47638  24.289  29.349   7.350
 3660POPC   NC347639  24.944  31.658   5.127
 3660POPC   PO447640  25.459  31.240   5.260
 3660POPC   GL147641  25.194  31.283   5.634
 3660POPC   GL247642  25.003  31.597   5.695
 3660POPC   C1A47643  25.222  31.355   6.099
 3660POPC   D2A47644  25.130  31.514   6.520
 3660POPC   C3A47645  25.418  31.475   6.881
 3660POPC   C4A47646  25.328  31.326   7.287
 3660POPC   C1B47647  24.975  31.816   6.117
 3660POPC   C2B47648  24.891  31.950   6.549
 3660POPC   C3B47649  25.010  31.766   6.988
 3660POPC   C4B47650  25.194  31.866   7.423
 3661POPC   NC347651   1.766  14.239   5.327
 3661POPC   PO447652   2.391  14.279   5.203
 3661POPC   GL147653   2.152  14.424   5.646
 3661POPC   GL247654   1.834  14.468   5.810
 3661POPC   C1A47655   2.195  14.721   6.048
 3661POPC   D2A47656   2.041  14.568   6.482
 3661POPC   C3A47657   2.083  14.736   6.878
 3661POPC   C4A47658   1.910  14.786   7.272
 3661POPC   C1B47659   2.115  14.228   6.134
 3661POPC   C2B47660   2.225  14.081   6.523
 3661POPC   C3B47661   2.391  14.251   6.914
 3661POPC   C4B47662   2.293  14.120   7.346
 3662POPC   NC347663  28.260   5.264   5.413
 3662POPC   PO447664  28.395   4.613   5.358
 3662POPC   GL147665  28.298   4.947   5.792
 3662POPC   GL247666  28.003   5.154   5.875
 3662POPC   C1A47667  28.514   5.163   6.204
 3662POPC   D2A47668  28.513   5.325   6.646
 3662POPC   C3A47669  28.636   5.002   6.974
 3662POPC   C4A47670  28.544   5.069   7.395
 3662POPC   C1B47671  28.082   4.903   6.247
 3662POPC   C2B47672  28.241   4.897   6.681
 3662POPC   C3B47673  28.121   5.033   7.085
 3662POPC   C4B47674  27.983   5.446   7.129
 3663POPC   NC347675  36.246  15.435   5.236
 3663POPC   PO447676  35.675  15.048   5.343
 3663POPC   GL147677  36.029  15.186   5.656
 3663POPC   GL247678  36.349  15.403   5.754
 3663POPC   C1A47679  36.118  15.132   6.111
 3663POPC   D2A47680  35.962  15.315   6.483
 3663POPC   C3A47681  36.157  15.176   6.842
 3663POPC   C4A47682  36.097  14.889   7.177
 3663POPC   C1B47683  36.472  15.495   6.224
 3663POPC   C2B47684  36.655  15.464   6.659
 3663POPC   C3B47685  36.509  15.446   7.100
 3663POPC   C4B47686  36.477  15.316   7.580
 3664POPC   NC347687  19.058  13.903   5.272
 3664POPC   PO447688  19.117  14.547   5.290
 3664POPC   GL147689  19.161  14.344   5.670
 3664POPC   GL247690  18.886  14.500   5.804
 3664POPC   C1A47691  19.279  14.187   6.095
 3664POPC   D2A47692  19.282  13.957   6.490
 3664POPC   C3A47693  19.055  14.090   6.858
 3664POPC   C4A47694  19.265  14.049   7.232
 3664POPC   C1B47695  19.073  14.662   6.145
 3664POPC   C2B47696  19.088  14.497   6.542
 3664POPC   C3B47697  18.951  14.612   6.959
 3664POPC   C4B47698  18.763  14.469   7.334
 3665POPC   NC347699  35.484  34.142   5.466
 3665POPC   PO447700  35.185  33.519   5.350
 3665POPC   GL147701  35.264  33.730   5.737
 3665POPC   GL247702  35.001  33.560   5.880
 3665POPC   C1A47703  35.533  33.832   6.107
 3665POPC   D2A47704  35.470  34.007   6.555
 3665POPC   C3A47705  35.602  33.798   6.968
 3665POPC   C4A47706  35.884  33.981   7.299
 3665POPC   C1B47707  35.082  33.712   6.282
 3665POPC   C2B47708  35.267  33.554   6.658
 3665POPC   C3B47709  35.098  33.503   7.066
 3665POPC   C4B47710  34.921  33.646   7.492
 3666POPC   NC347711  33.051  37.509   5.365
 3666POPC   PO447712  32.768  38.127   5.137
 3666POPC   GL147713  32.745  37.817   5.590
 3666POPC   GL247714  32.694  37.461   5.757
 3666POPC   C1A47715  33.009  37.768   6.028
 3666POPC   D2A47716  33.149  37.574   6.478
 3666POPC   C3A47717  33.151  37.767   6.924
 3666POPC   C4A47718  33.188  38.111   7.261
 3666POPC   C1B47719  32.714  37.380   6.251
 3666POPC   C2B47720  32.685  37.522   6.747
 3666POPC   C3B47721  32.724  37.423   7.207
 3666POPC   C4B47722  32.859  37.173   7.595
 3667POPC   NC347723  11.352  25.888   5.412
 3667POPC   PO447724  10.944  26.437   5.509
 3667POPC   GL147725  11.164  26.143   5.835
 3667POPC   GL247726  11.062  25.759   5.856
 3667POPC   C1A47727  11.247  26.179   6.304
 3667POPC   D2A47728  11.589  26.323   6.586
 3667POPC   C3A47729  11.571  26.188   6.982
 3667POPC   C4A47730  11.325  26.027   7.278
 3667POPC   C1B47731  11.171  25.697   6.308
 3667POPC   C2B47732  11.203  25.864   6.745
 3667POPC   C3B47733  11.111  25.621   7.067
 3667POPC   C4B47734  11.317  25.411   7.343
 3668POPC   NC347735   0.621  19.336   5.368
 3668POPC   PO447736   0.904  19.930   5.388
 3668POPC   GL147737   0.598  19.761   5.680
 3668POPC   GL247738   0.650  20.089   5.800
 3668POPC   C1A47739   0.431  19.596   6.066
 3668POPC   D2A47740   0.332  19.465   6.514
 3668POPC   C3A47741   0.336  19.796   6.791
 3668POPC   C4A47742   0.434  19.805   7.205
 3668POPC   C1B47743   0.764  20.013   6.172
 3668POPC   C2B47744   0.769  19.791   6.505
 3668POPC   C3B47745   0.813  19.923   6.908
 3668POPC   C4B47746   0.849  20.121   7.320
 3669POPC   NC347747  38.426  36.636   5.255
 3669POPC   PO447748  38.962  36.385   5.491
 3669POPC   GL147749  38.625  36.214   5.772
 3669POPC   GL247750  38.340  36.402   5.716
 3669POPC   C1A47751  38.616  36.159   6.230
 3669POPC   D2A47752  38.660  35.943   6.623
 3669POPC   C3A47753  38.783  36.158   7.001
 3669POPC   C4A47754  38.614  35.917   7.328
 3669POPC   C1B47755  38.186  36.435   6.187
 3669POPC   C2B47756  38.379  36.420   6.618
 3669POPC   C3B47757  38.397  36.478   7.080
 3669POPC   C4B47758  38.331  36.608   7.511
 3670POPC   NC347759  42.888  31.272   5.300
 3670POPC   PO447760  43.255  31.846   5.376
 3670POPC   GL147761  43.211  31.587   5.740
 3670POPC   GL247762  42.864  31.623   5.751
 3670POPC   C1A47763  43.274  31.667   6.198
 3670POPC   D2A47764  43.217  31.445   6.588
 3670POPC   C3A47765  43.220  31.625   6.988
 3670POPC   C4A47766  43.233  31.297   7.317
 3670POPC   C1B47767  42.761  31.561   6.199
 3670POPC   C2B47768  42.705  31.362   6.625
 3670POPC   C3B47769  42.789  31.388   7.077
 3670POPC   C4B47770  42.781  31.319   7.532
 3671POPC   NC347771  31.780   3.377   5.083
 3671POPC   PO447772  31.679   3.841   5.563
 3671POPC   GL147773  31.610   3.557   5.840
 3671POPC   GL247774  31.329   3.686   6.006
 3671POPC   C1A47775  31.761   3.543   6.244
 3671POPC   D2A47776  31.447   3.516   6.545
 3671POPC   C3A47777  31.597   3.363   6.905
 3671POPC   C4A47778  31.498   3.389   7.332
 3671POPC   C1B47779  31.163   3.946   6.307
 3671POPC   C2B47780  31.400   4.030   6.652
 3671POPC   C3B47781  31.309   3.756   6.981
 3671POPC   C4B47782  30.953   3.742   7.189
 3672POPC   NC347783  23.414   7.412   5.234
 3672POPC   PO447784  24.015   7.531   5.364
 3672POPC   GL147785  23.819   7.432   5.785
 3672POPC   GL247786  23.629   7.144   5.679
 3672POPC   C1A47787  23.743   7.529   6.252
 3672POPC   D2A47788  23.969   7.590   6.668
 3672POPC   C3A47789  23.745   7.763   7.038
 3672POPC   C4A47790  23.424   7.752   7.372
 3672POPC   C1B47791  23.627   7.031   6.125
 3672POPC   C2B47792  23.757   7.089   6.569
 3672POPC   C3B47793  23.730   7.269   7.006
 3672POPC   C4B47794  23.551   7.276   7.462
 3673POPC   NC347795  27.150   4.248   5.380
 3673POPC   PO447796  26.536   4.109   5.710
 3673POPC   GL147797  26.768   4.478   5.943
 3673POPC   GL247798  27.128   4.550   5.813
 3673POPC   C1A47799  26.697   4.668   6.391
 3673POPC   D2A47800  26.473   4.561   6.807
 3673POPC   C3A47801  26.571   4.181   7.035
 3673POPC   C4A47802  26.735   4.176   7.448
 3673POPC   C1B47803  27.236   4.447   6.256
 3673POPC   C2B47804  27.244   4.139   6.600
 3673POPC   C3B47805  27.078   4.165   7.030
 3673POPC   C4B47806  27.246   4.415   7.333
 3674POPC   NC347807   3.137  27.450   5.365
 3674POPC   PO447808   2.640  27.768   5.102
 3674POPC   GL147809   2.823  27.791   5.618
 3674POPC   GL247810   2.987  27.511   5.835
 3674POPC   C1A47811   2.585  27.688   6.079
 3674POPC   D2A47812   2.667  27.623   6.562
 3674POPC   C3A47813   2.481  27.379   6.917
 3674POPC   C4A47814   2.601  27.387   7.356
 3674POPC   C1B47815   3.076  27.650   6.240
 3674POPC   C2B47816   3.212  27.497   6.638
 3674POPC   C3B47817   3.012  27.460   7.031
 3674POPC   C4B47818   3.033  27.663   7.430
 3675POPC   NC347819  37.206  12.156   5.544
 3675POPC   PO447820  36.537  12.080   5.377
 3675POPC   GL147821  36.772  12.059   5.797
 3675POPC   GL247822  36.925  11.744   5.832
 3675POPC   C1A47823  36.913  12.162   6.235
 3675POPC   D2A47824  36.710  12.274   6.663
 3675POPC   C3A47825  36.734  12.052   7.061
 3675POPC   C4A47826  36.406  12.038   7.380
 3675POPC   C1B47827  37.111  11.695   6.237
 3675POPC   C2B47828  37.154  11.921   6.622
 3675POPC   C3B47829  37.149  11.769   7.015
 3675POPC   C4B47830  37.127  11.902   7.456
 3676POPC   NC347831  27.432  18.756   5.391
 3676POPC   PO447832  27.483  19.393   5.369
 3676POPC   GL147833  27.556  19.123   5.768
 3676POPC   GL247834  27.316  18.872   5.886
 3676POPC   C1A47835  27.779  18.976   6.180
 3676POPC   D2A47836  27.740  19.115   6.598
 3676POPC   C3A47837  28.012  18.983   6.950
 3676POPC   C4A47838  27.968  19.048   7.346
 3676POPC   C1B47839  27.303  19.028   6.318
 3676POPC   C2B47840  27.234  18.941   6.717
 3676POPC   C3B47841  27.513  19.001   7.051
 3676POPC   C4B47842  27.442  19.016   7.470
 3677POPC   NC347843  10.494  31.723   5.567
 3677POPC   PO447844  10.219  31.120   5.355
 3677POPC   GL147845  10.399  31.287   5.804
 3677POPC   GL247846  10.223  31.595   5.963
 3677POPC   C1A47847  10.702  31.450   6.170
 3677POPC   D2A47848  10.652  31.456   6.616
 3677POPC   C3A47849  10.574  31.817   6.878
 3677POPC   C4A47850  10.700  31.619   7.250
 3677POPC   C1B47851  10.225  31.357   6.321
 3677POPC   C2B47852  10.262  31.085   6.650
 3677POPC   C3B47853  10.059  31.144   7.026
 3677POPC   C4B47854  10.012  31.521   7.242
 3678POPC   NC347855  25.916  11.653   5.421
 3678POPC   PO447856  26.434  11.179   5.493
 3678POPC   GL147857  26.254  11.472   5.776
 3678POPC   GL247858  25.983  11.253   5.850
 3678POPC   C1A47859  26.271  11.433   6.234
 3678POPC   D2A47860  26.199  11.162   6.575
 3678POPC   C3A47861  26.167  11.296   6.957
 3678POPC   C4A47862  26.260  11.243   7.383
 3678POPC   C1B47863  25.820  11.062   6.265
 3678POPC   C2B47864  25.739  11.032   6.765
 3678POPC   C3B47865  25.744  11.215   7.215
 3678POPC   C4B47866  25.811  11.477   7.562
 3679POPC   NC347867  36.374  27.960   5.399
 3679POPC   PO447868  36.003  27.370   5.206
 3679POPC   GL147869  35.917  27.330   5.673
 3679POPC   GL247870  35.805  27.669   5.785
 3679POPC   C1A47871  36.122  27.391   6.102
 3679POPC   D2A47872  36.271  27.637   6.500
 3679POPC   C3A47873  36.101  27.486   6.899
 3679POPC   C4A47874  36.327  27.422   7.280
 3679POPC   C1B47875  35.912  27.845   6.203
 3679POPC   C2B47876  35.768  27.844   6.649
 3679POPC   C3B47877  35.920  27.910   7.125
 3679POPC   C4B47878  36.171  27.810   7.552
 3680POPC   NC347879   0.970  10.252   5.533
 3680POPC   PO447880   1.221   9.837   5.070
 3680POPC   GL147881   1.240   9.822   5.573
 3680POPC   GL247882   0.879   9.781   5.718
 3680POPC   C1A47883   1.242   9.708   6.054
 3680POPC   D2A47884   1.094   9.627   6.500
 3680POPC   C3A47885   1.310   9.798   6.874
 3680POPC   C4A47886   1.496   9.955   7.261
 3680POPC   C1B47887   0.811  10.000   6.137
 3680POPC   C2B47888   0.758  10.015   6.608
 3680POPC   C3B47889   0.798   9.703   6.955
 3680POPC   C4B47890   1.064   9.595   7.318
 3681POPC   NC347891  43.202   0.801   5.327
 3681POPC   PO447892  42.892   1.381   5.236
 3681POPC   GL147893  43.062   1.280   5.696
 3681POPC   GL247894  43.221   0.946   5.816
 3681POPC   C1A47895  43.231   1.340   6.149
 3681POPC   D2A47896  43.191   1.175   6.554
 3681POPC   C3A47897  43.254   1.454   6.889
 3681POPC   C4A47898  43.197   1.390   7.304
 3681POPC   C1B47899  43.418   0.810   6.223
 3681POPC   C2B47900  43.314   0.687   6.675
 3681POPC   C3B47901  43.356   0.973   7.029
 3681POPC   C4B47902  43.655   1.212   7.261
 3682POPC   NC347903  32.004  12.293   5.478
 3682POPC   PO447904  32.441  11.751   5.505
 3682POPC   GL147905  32.192  11.979   5.858
 3682POPC   GL247906  31.890  12.208   5.968
 3682POPC   C1A47907  32.281  12.071   6.292
 3682POPC   D2A47908  32.049  12.114   6.657
 3682POPC   C3A47909  32.316  12.149   6.966
 3682POPC   C4A47910  32.373  12.238   7.388
 3682POPC   C1B47911  31.830  11.835   6.248
 3682POPC   C2B47912  31.838  11.589   6.620
 3682POPC   C3B47913  31.977  11.722   7.003
 3682POPC   C4B47914  31.910  12.094   7.260
 3683POPC   NC347915   0.624  24.267   5.471
 3683POPC   PO447916   0.053  23.999   5.592
 3683POPC   GL147917   0.230  24.339   5.869
 3683POPC   GL247918   0.576  24.534   5.901
 3683POPC   C1A47919   0.351  24.313   6.308
 3683POPC   D2A47920   0.398  24.575   6.678
 3683POPC   C3A47921   0.257  24.424   7.056
 3683POPC   C4A47922   0.267  24.036   7.335
 3683POPC   C1B47923   0.420  24.845   6.228
 3683POPC   C2B47924   0.599  25.030   6.638
 3683POPC   C3B47925   0.667  24.816   7.092
 3683POPC   C4B47926   0.680  24.385   7.318
 3684POPC   NC347927  41.632   4.585   5.279
 3684POPC   PO447928  41.261   4.144   5.530
 3684POPC   GL147929  41.625   4.334   5.727
 3684POPC   GL247930  41.746   4.070   5.899
 3684POPC   C1A47931  41.739   4.487   6.149
 3684POPC   D2A47932  41.776   4.198   6.532
 3684POPC   C3A47933  41.727   4.381   6.960
 3684POPC   C4A47934  41.474   4.604   7.284
 3684POPC   C1B47935  41.431   3.998   6.179
 3684POPC   C2B47936  41.314   3.872   6.571
 3684POPC   C3B47937  41.501   3.930   6.962
 3684POPC   C4B47938  41.418   4.088   7.379
 3685POPC   NC347939  26.855  14.981   5.147
 3685POPC   PO447940  27.096  15.582   5.432
 3685POPC   GL147941  26.840  15.332   5.771
 3685POPC   GL247942  26.633  15.008   5.863
 3685POPC   C1A47943  26.652  15.415   6.175
 3685POPC   D2A47944  26.509  15.211   6.556
 3685POPC   C3A47945  26.674  15.346   6.952
 3685POPC   C4A47946  26.593  15.689   7.225
 3685POPC   C1B47947  26.805  14.913   6.287
 3685POPC   C2B47948  26.870  14.863   6.761
 3685POPC   C3B47949  26.931  14.991   7.214
 3685POPC   C4B47950  26.677  15.204   7.459
 3686POPC   NC347951  44.503  21.558   5.071
 3686POPC   PO447952  44.324  21.082   5.512
 3686POPC   GL147953  44.509  21.217   5.913
 3686POPC   GL247954  44.713  21.516   5.940
 3686POPC   C1A47955  44.588  21.193   6.360
 3686POPC   D2A47956  44.670  21.215   6.744
 3686POPC   C3A47957  44.372  21.162   7.040
 3686POPC   C4A47958  44.708  21.224   7.323
 3686POPC   C1B47959  44.345  21.601   6.231
 3686POPC   C2B47960  44.331  21.643   6.669
 3686POPC   C3B47961  44.594  21.631   7.043
 3686POPC   C4B47962  44.551  21.653   7.510
 3687POPC   NC347963  23.791  42.046   5.605
 3687POPC   PO447964  23.682  41.466   5.283
 3687POPC   GL147965  23.834  41.468   5.746
 3687POPC   GL247966  24.095  41.215   5.851
 3687POPC   C1A47967  23.788  41.697   6.172
 3687POPC   D2A47968  23.665  41.967   6.530
 3687POPC   C3A47969  23.733  41.881   6.943
 3687POPC   C4A47970  23.745  41.486   7.145
 3687POPC   C1B47971  23.856  41.202   6.247
 3687POPC   C2B47972  23.663  41.402   6.610
 3687POPC   C3B47973  23.339  41.588   6.840
 3687POPC   C4B47974  23.219  41.568   7.284
 3688POPC   NC347975   6.358  34.021   5.365
 3688POPC   PO447976   5.613  33.742   5.361
 3688POPC   GL147977   5.766  33.599   5.773
 3688POPC   GL247978   6.122  33.728   5.720
 3688POPC   C1A47979   5.987  33.610   6.187
 3688POPC   D2A47980   6.140  33.460   6.551
 3688POPC   C3A47981   5.923  33.793   6.805
 3688POPC   C4A47982   6.020  33.814   7.214
 3688POPC   C1B47983   5.853  34.057   5.959
 3688POPC   C2B47984   5.689  34.192   6.388
 3688POPC   C3B47985   5.633  34.316   6.854
 3688POPC   C4B47986   5.873  34.296   7.240
 3689POPC   NC347987  11.196   4.984   5.314
 3689POPC   PO447988  11.373   4.247   5.350
 3689POPC   GL147989  11.478   4.384   5.774
 3689POPC   GL247990  11.178   4.351   5.935
 3689POPC   C1A47991  11.613   4.226   6.208
 3689POPC   D2A47992  11.549   4.399   6.669
 3689POPC   C3A47993  11.707   4.234   7.074
 3689POPC   C4A47994  11.787   4.088   7.523
 3689POPC   C1B47995  11.296   4.618   6.256
 3689POPC   C2B47996  11.232   4.821   6.624
 3689POPC   C3B47997  11.115   4.704   7.016
 3689POPC   C4B47998  11.260   4.381   7.255
 3690POPC   NC347999  17.206  36.934   5.212
 3690POPC   PO448000  17.782  36.605   5.487
 3690POPC   GL148001  17.798  36.923   5.803
 3690POPC   GL248002  17.472  37.138   5.840
 3690POPC   C1A48003  17.728  36.893   6.258
 3690POPC   D2A48004  17.794  37.214   6.541
 3690POPC   C3A48005  17.634  37.161   6.944
 3690POPC   C4A48006  17.653  36.877   7.292
 3690POPC   C1B48007  17.255  37.106   6.264
 3690POPC   C2B48008  17.174  37.036   6.721
 3690POPC   C3B48009  17.188  37.185   7.177
 3690POPC   C4B48010  17.232  37.386   7.614
 3691POPC   NC348011  22.777  17.310   5.278
 3691POPC   PO448012  22.971  17.952   5.302
 3691POPC   GL148013  22.886  17.677   5.676
 3691POPC   GL248014  23.195  17.645   5.852
 3691POPC   C1A48015  22.764  17.496   6.086
 3691POPC   D2A48016  22.838  17.451   6.509
 3691POPC   C3A48017  22.784  17.507   6.906
 3691POPC   C4A48018  22.475  17.499   7.173
 3691POPC   C1B48019  23.263  17.590   6.286
 3691POPC   C2B48020  23.349  17.650   6.704
 3691POPC   C3B48021  23.245  17.505   7.111
 3691POPC   C4B48022  22.926  17.590   7.405
 3692POPC   NC348023  18.086  22.643   5.144
 3692POPC   PO448024  18.194  21.984   5.335
 3692POPC   GL148025  18.130  22.009   5.816
 3692POPC   GL248026  18.484  21.952   5.925
 3692POPC   C1A48027  17.930  22.098   6.243
 3692POPC   D2A48028  18.126  21.979   6.635
 3692POPC   C3A48029  18.113  22.204   7.013
 3692POPC   C4A48030  18.148  22.120   7.442
 3692POPC   C1B48031  18.456  21.734   6.322
 3692POPC   C2B48032  18.563  21.724   6.781
 3692POPC   C3B48033  18.572  22.019   7.142
 3692POPC   C4B48034  18.617  22.065   7.613
 3693POPC   NC348035  43.379  37.809   5.420
 3693POPC   PO448036  42.658  37.825   5.415
 3693POPC   GL148037  42.827  37.673   5.834
 3693POPC   GL248038  43.104  37.896   5.864
 3693POPC   C1A48039  42.967  37.556   6.257
 3693POPC   D2A48040  42.939  37.781   6.665
 3693POPC   C3A48041  42.865  37.503   6.996
 3693POPC   C4A48042  42.868  37.247   7.354
 3693POPC   C1B48043  43.235  38.021   6.276
 3693POPC   C2B48044  43.449  37.785   6.595
 3693POPC   C3B48045  43.337  37.706   7.007
 3693POPC   C4B48046  43.388  37.980   7.313
 3694POPC   NC348047   3.263  43.984   5.570
 3694POPC   PO448048   2.623  44.078   5.396
 3694POPC   GL148049   2.782  43.906   5.797
 3694POPC   GL248050   2.591  44.145   5.955
 3694POPC   C1A48051   3.065  43.737   6.149
 3694POPC   D2A48052   2.929  43.519   6.519
 3694POPC   C3A48053   3.019  43.633   6.969
 3694POPC   C4A48054   2.955  43.521   7.405
 3694POPC   C1B48055   2.633  43.910   6.342
 3694POPC   C2B48056   2.578  43.786   6.768
 3694POPC   C3B48057   2.639  43.999   7.144
 3694POPC   C4B48058   2.512  44.275   7.478
 3695POPC   NC348059  20.672  34.099   5.444
 3695POPC   PO448060  20.461  33.466   5.546
 3695POPC   GL148061  20.714  33.631   5.905
 3695POPC   GL248062  20.866  33.975   5.908
 3695POPC   C1A48063  20.574  33.770   6.330
 3695POPC   D2A48064  20.347  33.581   6.694
 3695POPC   C3A48065  20.475  33.678   7.128
 3695POPC   C4A48066  20.884  33.734   7.429
 3695POPC   C1B48067  21.059  34.182   6.263
 3695POPC   C2B48068  21.037  34.024   6.689
 3695POPC   C3B48069  20.796  34.067   7.067
 3695POPC   C4B48070  20.790  34.210   7.545
 3696POPC   NC348071  16.764   3.278   5.381
 3696POPC   PO448072  16.195   3.716   5.305
 3696POPC   GL148073  16.608   3.782   5.637
 3696POPC   GL248074  16.674   3.509   5.821
 3696POPC   C1A48075  16.878   3.873   6.083
 3696POPC   D2A48076  17.108   3.672   6.435
 3696POPC   C3A48077  16.876   3.642   6.851
 3696POPC   C4A48078  16.749   3.571   7.288
 3696POPC   C1B48079  16.746   3.371   6.249
 3696POPC   C2B48080  17.009   3.204   6.609
 3696POPC   C3B48081  17.053   3.176   7.062
 3696POPC   C4B48082  16.744   3.029   7.323
 3697POPC   NC348083  43.063  11.491   5.375
 3697POPC   PO448084  43.191  10.948   5.717
 3697POPC   GL148085  43.269  11.335   5.836
 3697POPC   GL248086  42.921  11.379   5.862
 3697POPC   C1A48087  43.330  11.434   6.265
 3697POPC   D2A48088  43.166  11.101   6.555
 3697POPC   C3A48089  43.253  11.159   6.983
 3697POPC   C4A48090  43.080  11.020   7.352
 3697POPC   C1B48091  42.829  11.409   6.297
 3697POPC   C2B48092  42.991  11.576   6.718
 3697POPC   C3B48093  42.942  11.513   7.186
 3697POPC   C4B48094  42.944  11.419   7.610
 3698POPC   NC348095   4.048  22.914   5.643
 3698POPC   PO448096   4.594  22.578   5.567
 3698POPC   GL148097   4.432  22.706   5.931
 3698POPC   GL248098   4.465  23.084   5.939
 3698POPC   C1A48099   4.182  22.818   6.283
 3698POPC   D2A48100   4.190  23.018   6.633
 3698POPC   C3A48101   4.209  22.769   7.010
 3698POPC   C4A48102   4.024  23.051   7.282
 3698POPC   C1B48103   4.706  22.900   6.306
 3698POPC   C2B48104   4.666  22.843   6.740
 3698POPC   C3B48105   4.523  23.158   6.985
 3698POPC   C4B48106   4.534  23.181   7.386
 3699POPC   NC348107  35.035  11.787   5.734
 3699POPC   PO448108  35.539  12.065   5.318
 3699POPC   GL148109  35.392  12.135   5.767
 3699POPC   GL248110  35.520  11.780   5.897
 3699POPC   C1A48111  35.283  12.147   6.232
 3699POPC   D2A48112  35.034  12.295   6.601
 3699POPC   C3A48113  35.036  12.047   6.972
 3699POPC   C4A48114  35.283  12.189   7.318
 3699POPC   C1B48115  35.727  11.842   6.329
 3699POPC   C2B48116  35.482  11.952   6.688
 3699POPC   C3B48117  35.509  11.814   7.090
 3699POPC   C4B48118  35.549  11.824   7.563
 3700POPC   NC348119  35.384  21.052   5.395
 3700POPC   PO448120  35.399  21.676   5.228
 3700POPC   GL148121  35.363  21.517   5.717
 3700POPC   GL248122  35.459  21.186   5.909
 3700POPC   C1A48123  35.209  21.606   6.181
 3700POPC   D2A48124  34.847  21.542   6.493
 3700POPC   C3A48125  34.920  21.649   6.927
 3700POPC   C4A48126  35.299  21.667   7.162
 3700POPC   C1B48127  35.222  21.104   6.334
 3700POPC   C2B48128  35.232  21.260   6.776
 3700POPC   C3B48129  35.357  21.164   7.210
 3700POPC   C4B48130  35.756  21.132   7.439
 3701POPC   NC348131  40.372   9.544   5.730
 3701POPC   PO448132  40.857   9.821   5.370
 3701POPC   GL148133  40.882   9.664   5.814
 3701POPC   GL248134  40.770   9.319   5.924
 3701POPC   C1A48135  40.978   9.640   6.258
 3701POPC   D2A48136  40.710   9.698   6.607
 3701POPC   C3A48137  40.907   9.687   6.999
 3701POPC   C4A48138  40.879   9.941   7.356
 3701POPC   C1B48139  40.477   9.341   6.300
 3701POPC   C2B48140  40.296   9.354   6.673
 3701POPC   C3B48141  40.464   9.442   6.993
 3701POPC   C4B48142  40.483   9.570   7.338
 3702POPC   NC348143  27.760  36.155   5.296
 3702POPC   PO448144  27.110  36.098   5.299
 3702POPC   GL148145  27.357  35.915   5.691
 3702POPC   GL248146  27.730  36.014   5.785
 3702POPC   C1A48147  27.416  35.924   6.157
 3702POPC   D2A48148  27.365  36.258   6.465
 3702POPC   C3A48149  27.482  36.102   6.885
 3702POPC   C4A48150  27.423  36.244   7.290
 3702POPC   C1B48151  27.859  36.212   6.196
 3702POPC   C2B48152  27.823  36.397   6.637
 3702POPC   C3B48153  27.917  36.371   7.090
 3702POPC   C4B48154  27.828  36.355   7.580
 3703POPC   NC348155   2.183  36.557   5.656
 3703POPC   PO448156   2.718  36.710   5.272
 3703POPC   GL148157   2.780  36.908   5.706
 3703POPC   GL248158   2.906  37.235   5.901
 3703POPC   C1A48159   2.652  36.866   6.149
 3703POPC   D2A48160   2.902  36.721   6.493
 3703POPC   C3A48161   2.791  36.676   6.895
 3703POPC   C4A48162   2.937  36.822   7.253
 3703POPC   C1B48163   3.141  37.386   6.259
 3703POPC   C2B48164   2.994  37.218   6.650
 3703POPC   C3B48165   2.593  37.139   6.773
 3703POPC   C4B48166   2.447  36.991   7.159
 3704POPC   NC348167  44.170  18.144   5.285
 3704POPC   PO448168  44.911  18.196   5.179
 3704POPC   GL148169  44.792  18.478   5.589
 3704POPC   GL248170  44.468  18.708   5.680
 3704POPC   C1A48171  44.676  18.280   5.989
 3704POPC   D2A48172  44.548  18.087   6.414
 3704POPC   C3A48173  44.805  18.120   6.814
 3704POPC   C4A48174  44.711  18.181   7.279
 3704POPC   C1B48175  44.606  18.774   6.133
 3704POPC   C2B48176  44.696  18.567   6.541
 3704POPC   C3B48177  44.564  18.560   6.955
 3704POPC   C4B48178  44.725  18.686   7.334
 3705POPC   NC348179  24.781  18.657   5.443
 3705POPC   PO448180  25.419  18.592   5.574
 3705POPC   GL148181  25.369  18.953   5.902
 3705POPC   GL248182  25.656  19.166   6.035
 3705POPC   C1A48183  25.147  19.260   6.181
 3705POPC   D2A48184  24.903  19.251   6.553
 3705POPC   C3A48185  25.030  18.916   6.867
 3705POPC   C4A48186  25.242  18.994   7.295
 3705POPC   C1B48187  25.733  18.779   6.246
 3705POPC   C2B48188  25.550  18.788   6.663
 3705POPC   C3B48189  25.449  19.206   6.860
 3705POPC   C4B48190  25.586  19.388   7.238
 3706POPC   NC348191   7.850  24.692   5.444
 3706POPC   PO448192   8.313  24.206   5.361
 3706POPC   GL148193   8.264  24.396   5.798
 3706POPC   GL248194   7.945  24.504   5.918
 3706POPC   C1A48195   8.205  24.175   6.245
 3706POPC   D2A48196   8.269  23.912   6.628
 3706POPC   C3A48197   8.309  24.174   6.973
 3706POPC   C4A48198   8.189  24.513   7.225
 3706POPC   C1B48199   8.065  24.674   6.313
 3706POPC   C2B48200   7.978  24.547   6.742
 3706POPC   C3B48201   7.805  24.811   7.083
 3706POPC   C4B48202   7.767  24.741   7.563
 3707POPC   NC348203   8.692  41.666   5.364
 3707POPC   PO448204   9.369  41.563   5.395
 3707POPC   GL148205   9.105  41.725   5.800
 3707POPC   GL248206   8.728  41.799   5.842
 3707POPC   C1A48207   8.984  41.629   6.236
 3707POPC   D2A48208   8.836  41.462   6.620
 3707POPC   C3A48209   9.153  41.373   6.872
 3707POPC   C4A48210   9.248  41.624   7.188
 3707POPC   C1B48211   8.487  41.923   6.237
 3707POPC   C2B48212   8.393  41.861   6.695
 3707POPC   C3B48213   8.487  41.880   7.139
 3707POPC   C4B48214   8.863  41.988   7.353
 3708POPC   NC348215  35.955   4.853   5.491
 3708POPC   PO448216  36.488   5.248   5.506
 3708POPC   GL148217  36.140   5.215   5.805
 3708POPC   GL248218  36.083   4.866   5.973
 3708POPC   C1A48219  35.997   5.312   6.219
 3708POPC   D2A48220  36.248   5.261   6.562
 3708POPC   C3A48221  36.084   5.198   6.974
 3708POPC   C4A48222  35.927   5.519   7.236
 3708POPC   C1B48223  35.702   4.815   6.237
 3708POPC   C2B48224  35.659   4.940   6.682
 3708POPC   C3B48225  35.785   4.795   7.115
 3708POPC   C4B48226  35.918   4.748   7.586
 3709POPC   NC348227  26.257  14.813   5.504
 3709POPC   PO448228  25.765  14.296   5.443
 3709POPC   GL148229  25.993  14.365   5.841
 3709POPC   GL248230  25.983  14.722   5.916
 3709POPC   C1A48231  25.847  14.400   6.285
 3709POPC   D2A48232  25.880  14.568   6.711
 3709POPC   C3A48233  25.900  14.332   7.073
 3709POPC   C4A48234  26.031  14.212   7.450
 3709POPC   C1B48235  26.338  14.618   6.204
 3709POPC   C2B48236  26.373  14.723   6.644
 3709POPC   C3B48237  26.255  14.695   7.070
 3709POPC   C4B48238  26.339  14.633   7.474
 3710POPC   NC348239  33.286  25.861   5.524
 3710POPC   PO448240  32.710  25.936   5.211
 3710POPC   GL148241  32.804  26.124   5.661
 3710POPC   GL248242  32.911  25.836   5.891
 3710POPC   C1A48243  32.810  26.287   6.145
 3710POPC   D2A48244  32.752  26.140   6.601
 3710POPC   C3A48245  32.778  26.369   7.025
 3710POPC   C4A48246  32.591  26.299   7.473
 3710POPC   C1B48247  33.264  25.785   6.170
 3710POPC   C2B48248  33.248  26.004   6.517
 3710POPC   C3B48249  33.161  26.039   6.934
 3710POPC   C4B48250  33.185  25.755   7.235
 3711POPC   NC348251  12.949  11.431   5.487
 3711POPC   PO448252  13.320  10.909   5.712
 3711POPC   GL148253  13.081  11.237   5.931
 3711POPC   GL248254  13.229  11.606   5.872
 3711POPC   C1A48255  12.796  11.245   6.279
 3711POPC   D2A48256  12.866  11.333   6.690
 3711POPC   C3A48257  12.779  11.137   7.035
 3711POPC   C4A48258  12.649  11.251   7.403
 3711POPC   C1B48259  13.112  11.674   6.276
 3711POPC   C2B48260  13.233  11.686   6.668
 3711POPC   C3B48261  13.004  11.662   7.056
 3711POPC   C4B48262  13.272  11.556   7.376
 3712POPC   NC348263  24.346  40.355   5.555
 3712POPC   PO448264  24.542  39.768   5.374
 3712POPC   GL148265  24.399  39.860   5.789
 3712POPC   GL248266  24.674  40.073   5.851
 3712POPC   C1A48267  24.568  39.755   6.230
 3712POPC   D2A48268  24.366  39.580   6.597
 3712POPC   C3A48269  24.549  39.698   6.951
 3712POPC   C4A48270  24.432  39.952   7.255
 3712POPC   C1B48271  24.320  40.211   6.166
 3712POPC   C2B48272  24.238  40.411   6.525
 3712POPC   C3B48273  24.382  40.320   6.915
 3712POPC   C4B48274  24.372  40.438   7.359
 3713POPC   NC348275  18.755  37.829   5.390
 3713POPC   PO448276  18.160  37.477   5.196
 3713POPC   GL148277  18.279  37.690   5.584
 3713POPC   GL248278  18.373  37.372   5.718
 3713POPC   C1A48279  18.316  37.829   6.034
 3713POPC   D2A48280  18.644  37.788   6.361
 3713POPC   C3A48281  18.620  37.846   6.819
 3713POPC   C4A48282  18.487  37.853   7.254
 3713POPC   C1B48283  18.475  37.332   6.150
 3713POPC   C2B48284  18.321  37.255   6.552
 3713POPC   C3B48285  18.418  37.382   6.971
 3713POPC   C4B48286  18.170  37.458   7.307
 3714POPC   NC348287   5.333  31.698   5.432
 3714POPC   PO448288   4.717  31.477   5.408
 3714POPC   GL148289   4.998  31.409   5.749
 3714POPC   GL248290   5.176  31.058   5.760
 3714POPC   C1A48291   4.964  31.610   6.169
 3714POPC   D2A48292   4.924  31.787   6.624
 3714POPC   C3A48293   4.820  31.471   6.964
 3714POPC   C4A48294   5.023  31.340   7.382
 3714POPC   C1B48295   4.944  31.105   6.156
 3714POPC   C2B48296   5.110  31.301   6.557
 3714POPC   C3B48297   5.325  31.324   6.966
 3714POPC   C4B48298   5.351  30.986   7.268
 3715POPC   NC348299  39.113  17.986   5.313
 3715POPC   PO448300  39.442  18.553   5.546
 3715POPC   GL148301  39.368  18.134   5.767
 3715POPC   GL248302  39.029  18.140   5.837
 3715POPC   C1A48303  39.312  17.972   6.215
 3715POPC   D2A48304  39.251  18.209   6.593
 3715POPC   C3A48305  39.591  18.199   6.865
 3715POPC   C4A48306  39.511  18.170   7.272
 3715POPC   C1B48307  38.862  18.272   6.224
 3715POPC   C2B48308  38.759  18.410   6.643
 3715POPC   C3B48309  38.966  18.311   7.063
 3715POPC   C4B48310  39.063  18.248   7.547
 3716POPC   NC348311  21.342  17.127   5.214
 3716POPC   PO448312  21.603  17.651   5.557
 3716POPC   GL148313  21.318  17.468   5.836
 3716POPC   GL248314  21.167  17.154   5.688
 3716POPC   C1A48315  21.401  17.407   6.265
 3716POPC   D2A48316  21.257  17.498   6.660
 3716POPC   C3A48317  21.523  17.262   6.942
 3716POPC   C4A48318  21.628  17.489   7.277
 3716POPC   C1B48319  20.998  17.121   6.087
 3716POPC   C2B48320  21.062  17.024   6.529
 3716POPC   C3B48321  21.012  17.166   6.967
 3716POPC   C4B48322  21.243  17.198   7.395
 3717POPC   NC348323  21.473  29.049   5.521
 3717POPC   PO448324  21.134  29.586   5.503
 3717POPC   GL148325  21.281  29.386   5.843
 3717POPC   GL248326  21.638  29.484   5.823
 3717POPC   C1A48327  21.409  29.140   6.207
 3717POPC   D2A48328  21.288  28.886   6.569
 3717POPC   C3A48329  21.324  29.040   6.970
 3717POPC   C4A48330  21.409  28.916   7.381
 3717POPC   C1B48331  21.826  29.465   6.239
 3717POPC   C2B48332  21.695  29.601   6.661
 3717POPC   C3B48333  21.668  29.407   7.087
 3717POPC   C4B48334  21.541  29.384   7.553
 3718POPC   NC348335  43.129   3.575   5.369
 3718POPC   PO448336  42.515   3.932   5.394
 3718POPC   GL148337  42.779   3.746   5.764
 3718POPC   GL248338  43.168   3.741   5.873
 3718POPC   C1A48339  42.800   3.564   6.221
 3718POPC   D2A48340  43.083   3.658   6.579
 3718POPC   C3A48341  43.036   3.525   6.995
 3718POPC   C4A48342  42.742   3.511   7.309
 3718POPC   C1B48343  43.378   3.952   6.270
 3718POPC   C2B48344  43.510   3.908   6.738
 3718POPC   C3B48345  43.526   3.841   7.182
 3718POPC   C4B48346  43.190   3.705   7.458
 3719POPC   NC348347   4.835  15.362   5.558
 3719POPC   PO448348   5.443  15.129   5.347
 3719POPC   GL148349   5.255  15.171   5.808
 3719POPC   GL248350   5.007  15.404   6.018
 3719POPC   C1A48351   5.303  15.052   6.238
 3719POPC   D2A48352   5.191  15.276   6.628
 3719POPC   C3A48353   5.306  15.051   6.994
 3719POPC   C4A48354   5.028  14.905   7.301
 3719POPC   C1B48355   4.907  15.672   6.380
 3719POPC   C2B48356   4.863  15.673   6.825
 3719POPC   C3B48357   4.852  15.336   7.125
 3719POPC   C4B48358   4.780  15.307   7.592
 3720POPC   NC348359  41.609  14.647   5.616
 3720POPC   PO448360  41.791  13.995   5.567
 3720POPC   GL148361  41.362  14.055   5.784
 3720POPC   GL248362  41.276  14.380   5.851
 3720POPC   C1A48363  41.368  14.122   6.246
 3720POPC   D2A48364  41.690  14.311   6.488
 3720POPC   C3A48365  41.576  14.166   6.864
 3720POPC   C4A48366  41.355  14.130   7.200
 3720POPC   C1B48367  41.370  14.646   6.244
 3720POPC   C2B48368  41.241  14.555   6.670
 3720POPC   C3B48369  41.344  14.634   7.099
 3720POPC   C4B48370  41.423  14.519   7.550
 3721POPC   NC348371   7.198  23.276   5.327
 3721POPC   PO448372   7.577  23.831   5.371
 3721POPC   GL148373   7.578  23.518   5.674
 3721POPC   GL248374   7.229  23.559   5.762
 3721POPC   C1A48375   7.607  23.516   6.119
 3721POPC   D2A48376   7.401  23.470   6.492
 3721POPC   C3A48377   7.579  23.586   6.863
 3721POPC   C4A48378   7.360  23.488   7.220
 3721POPC   C1B48379   7.138  23.783   6.150
 3721POPC   C2B48380   7.280  23.990   6.527
 3721POPC   C3B48381   7.280  23.981   6.981
 3721POPC   C4B48382   7.303  23.957   7.434
 3722POPC   NC348383  31.605  24.220   5.155
 3722POPC   PO448384  31.227  24.584   5.545
 3722POPC   GL148385  31.411  24.451   5.913
 3722POPC   GL248386  31.716  24.571   5.856
 3722POPC   C1A48387  31.464  24.675   6.320
 3722POPC   D2A48388  31.189  24.682   6.684
 3722POPC   C3A48389  31.436  24.674   7.077
 3722POPC   C4A48390  31.370  24.703   7.520
 3722POPC   C1B48391  31.781  24.273   6.230
 3722POPC   C2B48392  31.842  24.082   6.651
 3722POPC   C3B48393  31.896  24.297   7.054
 3722POPC   C4B48394  31.665  24.278   7.437
 3723POPC   NC348395  23.293  29.503   5.580
 3723POPC   PO448396  22.738  29.044   5.550
 3723POPC   GL148397  22.872  28.854   5.920
 3723POPC   GL248398  23.186  29.038   5.876
 3723POPC   C1A48399  22.836  29.029   6.352
 3723POPC   D2A48400  22.741  29.461   6.516
 3723POPC   C3A48401  22.658  29.530   6.958
 3723POPC   C4A48402  22.944  29.463   7.289
 3723POPC   C1B48403  23.273  28.780   6.243
 3723POPC   C2B48404  23.125  28.737   6.653
 3723POPC   C3B48405  22.994  29.035   6.973
 3723POPC   C4B48406  23.287  29.094   7.319
 3724POPC   NC348407  27.563  17.328   5.334
 3724POPC   PO448408  27.462  17.945   5.434
 3724POPC   GL148409  27.632  17.658   5.798
 3724POPC   GL248410  27.886  17.381   5.743
 3724POPC   C1A48411  27.639  17.737   6.258
 3724POPC   D2A48412  27.434  17.472   6.586
 3724POPC   C3A48413  27.448  17.671   6.975
 3724POPC   C4A48414  27.475  17.699   7.415
 3724POPC   C1B48415  27.929  17.337   6.213
 3724POPC   C2B48416  27.921  17.478   6.677
 3724POPC   C3B48417  27.840  17.371   7.134
 3724POPC   C4B48418  27.995  17.045   7.434
 3725POPC   NC348419   9.523  31.959   5.590
 3725POPC   PO448420   9.889  32.390   5.283
 3725POPC   GL148421   9.948  32.294   5.736
 3725POPC   GL248422   9.874  32.008   5.966
 3725POPC   C1A48423   9.857  32.485   6.144
 3725POPC   D2A48424   9.698  32.229   6.452
 3725POPC   C3A48425   9.794  32.343   6.841
 3725POPC   C4A48426   9.899  32.631   7.167
 3725POPC   C1B48427   9.877  31.758   6.327
 3725POPC   C2B48428  10.047  31.776   6.764
 3725POPC   C3B48429   9.944  32.006   7.169
 3725POPC   C4B48430   9.935  31.949   7.599
 3726POPC   NC348431  37.999  20.497   5.286
 3726POPC   PO448432  37.361  20.497   5.442
 3726POPC   GL148433  37.697  20.513   5.723
 3726POPC   GL248434  37.678  20.860   5.754
 3726POPC   C1A48435  37.615  20.438   6.170
 3726POPC   D2A48436  37.372  20.645   6.529
 3726POPC   C3A48437  37.490  20.489   6.935
 3726POPC   C4A48438  37.566  20.704   7.339
 3726POPC   C1B48439  37.703  20.932   6.216
 3726POPC   C2B48440  37.899  20.668   6.576
 3726POPC   C3B48441  37.994  20.581   7.033
 3726POPC   C4B48442  38.040  20.879   7.392
 3727POPC   NC348443   8.654  28.649   5.102
 3727POPC   PO448444   8.343  28.224   5.509
 3727POPC   GL148445   8.162  28.350   5.842
 3727POPC   GL248446   8.088  27.996   5.889
 3727POPC   C1A48447   8.363  28.393   6.236
 3727POPC   D2A48448   8.364  28.186   6.628
 3727POPC   C3A48449   8.366  28.422   6.982
 3727POPC   C4A48450   8.406  28.843   7.112
 3727POPC   C1B48451   7.905  28.178   6.248
 3727POPC   C2B48452   7.869  28.049   6.642
 3727POPC   C3B48453   7.893  28.243   7.006
 3727POPC   C4B48454   8.137  28.041   7.289
 3728POPC   NC348455  36.028  10.919   5.577
 3728POPC   PO448456  36.538  10.527   5.465
 3728POPC   GL148457  36.370  10.251   5.852
 3728POPC   GL248458  35.983  10.254   5.847
 3728POPC   C1A48459  36.429  10.183   6.328
 3728POPC   D2A48460  36.559  10.578   6.590
 3728POPC   C3A48461  36.364  10.709   6.998
 3728POPC   C4A48462  36.203  10.693   7.413
 3728POPC   C1B48463  36.047  10.496   6.248
 3728POPC   C2B48464  36.095  10.359   6.701
 3728POPC   C3B48465  35.883  10.455   7.083
 3728POPC   C4B48466  35.598  10.816   7.238
 3729POPC   NC348467  28.124  34.549   5.371
 3729POPC   PO448468  28.801  34.362   5.459
 3729POPC   GL148469  28.485  34.599   5.750
 3729POPC   GL248470  28.188  34.403   5.862
 3729POPC   C1A48471  28.280  34.832   6.131
 3729POPC   D2A48472  28.197  34.895   6.593
 3729POPC   C3A48473  28.372  34.631   6.966
 3729POPC   C4A48474  28.552  34.439   7.368
 3729POPC   C1B48475  28.013  34.266   6.270
 3729POPC   C2B48476  28.056  34.286   6.731
 3729POPC   C3B48477  28.040  34.283   7.207
 3729POPC   C4B48478  28.251  34.127   7.622
 3730POPC   NC348479  21.203  11.246   5.440
 3730POPC   PO448480  21.836  11.245   5.544
 3730POPC   GL148481  21.453  11.307   5.882
 3730POPC   GL248482  21.155  11.063   5.916
 3730POPC   C1A48483  21.357  11.484   6.340
 3730POPC   D2A48484  21.554  11.594   6.747
 3730POPC   C3A48485  21.350  11.486   7.153
 3730POPC   C4A48486  21.452  11.342   7.583
 3730POPC   C1B48487  21.231  10.993   6.359
 3730POPC   C2B48488  21.380  11.097   6.779
 3730POPC   C3B48489  21.321  10.950   7.221
 3730POPC   C4B48490  21.533  10.837   7.589
 3731POPC   NC348491  24.305  42.600   5.511
 3731POPC   PO448492  23.607  42.447   5.462
 3731POPC   GL148493  23.722  42.635   5.862
 3731POPC   GL248494  23.985  42.454   5.889
 3731POPC   C1A48495  23.789  42.596   6.342
 3731POPC   D2A48496  23.689  42.436   6.779
 3731POPC   C3A48497  23.834  42.687   7.150
 3731POPC   C4A48498  24.179  42.641   7.458
 3731POPC   C1B48499  24.064  42.139   6.219
 3731POPC   C2B48500  24.165  42.192   6.654
 3731POPC   C3B48501  24.069  42.237   7.095
 3731POPC   C4B48502  23.671  42.254   7.293
 3732POPC   NC348503  12.931  34.307   5.298
 3732POPC   PO448504  13.308  34.768   5.473
 3732POPC   GL148505  13.016  34.604   5.785
 3732POPC   GL248506  12.777  34.867   5.771
 3732POPC   C1A48507  12.782  34.588   6.212
 3732POPC   D2A48508  12.909  34.599   6.646
 3732POPC   C3A48509  12.590  34.518   6.941
 3732POPC   C4A48510  12.600  34.296   7.304
 3732POPC   C1B48511  13.053  35.010   6.125
 3732POPC   C2B48512  12.951  35.135   6.544
 3732POPC   C3B48513  13.132  34.965   6.919
 3732POPC   C4B48514  12.953  34.706   7.250
 3733POPC   NC348515   9.502  28.372   5.437
 3733POPC   PO448516  10.211  28.460   5.541
 3733POPC   GL148517   9.878  28.439   5.859
 3733POPC   GL248518   9.526  28.314   5.922
 3733POPC   C1A48519   9.838  28.370   6.310
 3733POPC   D2A48520   9.769  28.568   6.696
 3733POPC   C3A48521   9.955  28.313   7.032
 3733POPC   C4A48522   9.969  28.144   7.468
 3733POPC   C1B48523   9.338  28.601   6.151
 3733POPC   C2B48524   9.192  28.613   6.553
 3733POPC   C3B48525   9.341  28.516   6.974
 3733POPC   C4B48526   9.495  28.267   7.325
 3734POPC   NC348527  24.914  29.907   5.115
 3734POPC   PO448528  24.531  30.082   5.643
 3734POPC   GL148529  24.539  29.735   5.935
 3734POPC   GL248530  24.859  29.667   5.845
 3734POPC   C1A48531  24.428  29.680   6.382
 3734POPC   D2A48532  24.409  30.073   6.627
 3734POPC   C3A48533  24.329  30.041   7.060
 3734POPC   C4A48534  24.645  30.148   7.349
 3734POPC   C1B48535  25.039  29.490   6.207
 3734POPC   C2B48536  24.946  29.532   6.624
 3734POPC   C3B48537  24.726  29.774   6.905
 3734POPC   C4B48538  24.698  29.651   7.336
 3735POPC   NC348539  20.885  15.188   5.476
 3735POPC   PO448540  20.251  15.488   5.466
 3735POPC   GL148541  20.490  15.286   5.834
 3735POPC   GL248542  20.514  14.899   5.861
 3735POPC   C1A48543  20.689  15.246   6.262
 3735POPC   D2A48544  20.703  15.322   6.725
 3735POPC   C3A48545  20.448  15.135   7.013
 3735POPC   C4A48546  20.408  15.044   7.465
 3735POPC   C1B48547  20.841  14.755   6.170
 3735POPC   C2B48548  21.007  14.703   6.580
 3735POPC   C3B48549  20.903  14.885   6.981
 3735POPC   C4B48550  20.878  14.837   7.423
 3736POPC   NC348551  25.348  21.905   5.451
 3736POPC   PO448552  25.125  22.585   5.476
 3736POPC   GL148553  25.281  22.271   5.806
 3736POPC   GL248554  25.034  21.983   5.847
 3736POPC   C1A48555  25.302  22.130   6.258
 3736POPC   D2A48556  25.411  21.966   6.659
 3736POPC   C3A48557  25.498  22.167   7.031
 3736POPC   C4A48558  25.270  22.144   7.425
 3736POPC   C1B48559  24.876  22.357   6.091
 3736POPC   C2B48560  24.945  22.442   6.527
 3736POPC   C3B48561  24.976  22.128   6.886
 3736POPC   C4B48562  24.776  22.104   7.292
 3737POPC   NC348563  24.476  37.732   5.422
 3737POPC   PO448564  23.862  38.005   5.642
 3737POPC   GL148565  24.190  37.811   5.886
 3737POPC   GL248566  24.570  37.730   5.908
 3737POPC   C1A48567  24.349  38.044   6.226
 3737POPC   D2A48568  24.509  37.939   6.597
 3737POPC   C3A48569  24.310  37.886   6.978
 3737POPC   C4A48570  24.482  37.749   7.363
 3737POPC   C1B48571  24.454  37.530   6.285
 3737POPC   C2B48572  24.364  37.448   6.714
 3737POPC   C3B48573  24.552  37.327   7.078
 3737POPC   C4B48574  24.401  37.186   7.484
 3738POPC   NC348575  41.443  15.489   5.501
 3738POPC   PO448576  41.897  14.986   5.653
 3738POPC   GL148577  41.519  15.126   5.859
 3738POPC   GL248578  41.662  15.452   5.956
 3738POPC   C1A48579  41.326  15.175   6.256
 3738POPC   D2A48580  41.444  15.066   6.678
 3738POPC   C3A48581  41.552  15.333   7.063
 3738POPC   C4A48582  41.494  15.013   7.406
 3738POPC   C1B48583  41.903  15.225   6.264
 3738POPC   C2B48584  41.972  14.912   6.589
 3738POPC   C3B48585  41.811  14.908   7.007
 3738POPC   C4B48586  41.954  15.194   7.371
 3739POPC   NC348587  41.202  12.263   5.037
 3739POPC   PO448588  41.622  11.848   5.404
 3739POPC   GL148589  41.700  12.085   5.767
 3739POPC   GL248590  41.358  12.136   5.856
 3739POPC   C1A48591  41.784  12.180   6.196
 3739POPC   D2A48592  41.796  11.985   6.598
 3739POPC   C3A48593  41.774  12.209   6.966
 3739POPC   C4A48594  41.520  12.202   7.311
 3739POPC   C1B48595  41.350  11.938   6.284
 3739POPC   C2B48596  41.320  12.045   6.743
 3739POPC   C3B48597  41.305  11.802   7.109
 3739POPC   C4B48598  41.067  12.002   7.412
 3740POPC   NC348599  14.554  34.720   5.373
 3740POPC   PO448600  14.346  34.068   5.510
 3740POPC   GL148601  14.588  34.384   5.770
 3740POPC   GL248602  14.324  34.693   5.826
 3740POPC   C1A48603  14.647  34.531   6.201
 3740POPC   D2A48604  14.324  34.493   6.512
 3740POPC   C3A48605  14.520  34.619   6.862
 3740POPC   C4A48606  14.536  34.605   7.273
 3740POPC   C1B48607  14.308  34.917   6.225
 3740POPC   C2B48608  14.453  35.183   6.551
 3740POPC   C3B48609  14.565  35.131   6.980
 3740POPC   C4B48610  14.248  35.003   7.280
 3741POPC   NC348611  11.695  28.610   5.660
 3741POPC   PO448612  12.328  28.367   5.409
 3741POPC   GL148613  12.141  28.329   5.763
 3741POPC   GL248614  12.245  28.650   5.855
 3741POPC   C1A48615  12.220  28.237   6.185
 3741POPC   D2A48616  12.009  28.301   6.598
 3741POPC   C3A48617  12.206  28.283   6.998
 3741POPC   C4A48618  12.287  27.942   7.265
 3741POPC   C1B48619  12.053  28.706   6.269
 3741POPC   C2B48620  12.152  28.788   6.719
 3741POPC   C3B48621  11.926  28.704   7.130
 3741POPC   C4B48622  11.913  28.771   7.605
 3742POPC   NC348623   9.756  31.172   5.329
 3742POPC   PO448624   9.991  31.793   5.525
 3742POPC   GL148625   9.766  31.489   5.763
 3742POPC   GL248626   9.427  31.385   5.749
 3742POPC   C1A48627   9.739  31.263   6.152
 3742POPC   D2A48628   9.775  31.342   6.599
 3742POPC   C3A48629   9.499  31.171   6.891
 3742POPC   C4A48630   9.598  31.219   7.293
 3742POPC   C1B48631   9.351  31.623   6.165
 3742POPC   C2B48632   9.414  31.830   6.561
 3742POPC   C3B48633   9.581  31.689   6.938
 3742POPC   C4B48634   9.520  31.739   7.342
 3743POPC   NC348635  33.512  13.541   5.441
 3743POPC   PO448636  32.836  13.628   5.475
 3743POPC   GL148637  32.985  13.803   5.861
 3743POPC   GL248638  33.369  13.927   5.829
 3743POPC   C1A48639  32.879  13.521   6.237
 3743POPC   D2A48640  33.079  13.300   6.595
 3743POPC   C3A48641  32.887  13.460   6.972
 3743POPC   C4A48642  32.854  13.813   7.234
 3743POPC   C1B48643  33.331  13.736   6.242
 3743POPC   C2B48644  33.168  13.822   6.659
 3743POPC   C3B48645  33.368  13.688   7.050
 3743POPC   C4B48646  33.708  13.393   7.129
 3744POPC   NC348647   6.778  18.985   5.499
 3744POPC   PO448648   6.267  19.300   5.253
 3744POPC   GL148649   6.379  19.269   5.710
 3744POPC   GL248650   6.752  19.337   5.862
 3744POPC   C1A48651   6.294  19.304   6.150
 3744POPC   D2A48652   6.537  19.168   6.507
 3744POPC   C3A48653   6.397  19.175   6.910
 3744POPC   C4A48654   6.575  18.967   7.235
 3744POPC   C1B48655   6.857  18.990   6.157
 3744POPC   C2B48656   7.032  18.906   6.568
 3744POPC   C3B48657   7.019  18.803   7.006
 3744POPC   C4B48658   7.131  18.546   7.339
 3745POPC   NC348659  29.976  34.734   5.043
 3745POPC   PO448660  29.953  35.215   5.551
 3745POPC   GL148661  30.157  35.227   5.913
 3745POPC   GL248662  30.336  34.959   5.940
 3745POPC   C1A48663  30.256  35.506   6.240
 3745POPC   D2A48664  29.998  35.524   6.592
 3745POPC   C3A48665  30.118  35.590   7.016
 3745POPC   C4A48666  29.893  35.451   7.380
 3745POPC   C1B48667  30.186  34.980   6.372
 3745POPC   C2B48668  30.118  34.882   6.822
 3745POPC   C3B48669  30.182  35.072   7.233
 3745POPC   C4B48670  30.212  35.027   7.693
 3746POPC   NC348671   0.318  17.930   5.028
 3746POPC   PO448672   0.742  18.163   5.539
 3746POPC   GL148673   0.551  18.304   5.932
 3746POPC   GL248674   0.204  18.457   5.932
 3746POPC   C1A48675   0.511  18.087   6.331
 3746POPC   D2A48676   0.203  17.845   6.577
 3746POPC   C3A48677   0.296  18.009   6.967
 3746POPC   C4A48678   0.147  17.927   7.330
 3746POPC   C1B48679   0.053  18.287   6.316
 3746POPC   C2B48680   0.229  18.422   6.667
 3746POPC   C3B48681   0.095  18.467   7.063
 3746POPC   C4B48682   0.117  18.407   7.486
 3747POPC   NC348683  33.330   5.088   5.592
 3747POPC   PO448684  32.936   5.538   5.191
 3747POPC   GL148685  32.900   5.334   5.684
 3747POPC   GL248686  32.661   5.057   5.837
 3747POPC   C1A48687  33.050   5.239   6.154
 3747POPC   D2A48688  33.162   5.049   6.580
 3747POPC   C3A48689  33.082   5.362   6.905
 3747POPC   C4A48690  32.678   5.346   7.133
 3747POPC   C1B48691  32.750   4.815   6.274
 3747POPC   C2B48692  32.773   4.737   6.761
 3747POPC   C3B48693  32.789   4.842   7.212
 3747POPC   C4B48694  32.706   4.704   7.703
 3748POPC   NC348695  11.961  41.144   5.585
 3748POPC   PO448696  12.096  41.898   5.400
 3748POPC   GL148697  12.085  41.636   5.747
 3748POPC   GL248698  12.366  41.412   5.735
 3748POPC   C1A48699  12.071  41.500   6.176
 3748POPC   D2A48700  11.792  41.472   6.530
 3748POPC   C3A48701  12.033  41.526   6.886
 3748POPC   C4A48702  11.974  41.670   7.285
 3748POPC   C1B48703  12.558  41.256   6.098
 3748POPC   C2B48704  12.506  41.084   6.504
 3748POPC   C3B48705  12.354  41.108   6.915
 3748POPC   C4B48706  12.442  41.394   7.254
 3749POPC   NC348707  27.829  25.294   5.297
 3749POPC   PO448708  28.461  25.325   5.302
 3749POPC   GL148709  28.317  25.293   5.698
 3749POPC   GL248710  28.058  25.043   5.695
 3749POPC   C1A48711  28.456  25.203   6.107
 3749POPC   D2A48712  28.633  25.468   6.423
 3749POPC   C3A48713  28.534  25.430   6.852
 3749POPC   C4A48714  28.448  25.347   7.266
 3749POPC   C1B48715  27.955  25.269   6.082
 3749POPC   C2B48716  28.123  25.277   6.506
 3749POPC   C3B48717  28.079  25.189   6.930
 3749POPC   C4B48718  28.078  24.998   7.370
 3750POPC   NC348719  18.561  19.435   5.548
 3750POPC   PO448720  18.631  20.073   5.431
 3750POPC   GL148721  18.426  19.880   5.823
 3750POPC   GL248722  18.624  19.596   6.013
 3750POPC   C1A48723  18.243  19.800   6.247
 3750POPC   D2A48724  18.501  19.793   6.592
 3750POPC   C3A48725  18.249  19.720   6.944
 3750POPC   C4A48726  18.074  20.075   7.169
 3750POPC   C1B48727  18.588  19.325   6.340
 3750POPC   C2B48728  18.631  19.333   6.770
 3750POPC   C3B48729  18.710  19.526   7.151
 3750POPC   C4B48730  18.414  19.703   7.427
 3751POPC   NC348731  12.422  29.662   5.505
 3751POPC   PO448732  11.894  30.092   5.512
 3751POPC   GL148733  12.064  29.891   5.872
 3751POPC   GL248734  12.339  30.086   5.938
 3751POPC   C1A48735  12.153  29.765   6.308
 3751POPC   D2A48736  11.965  29.993   6.673
 3751POPC   C3A48737  12.128  29.881   7.081
 3751POPC   C4A48738  12.106  29.784   7.576
 3751POPC   C1B48739  12.334  30.242   6.372
 3751POPC   C2B48740  12.294  30.386   6.813
 3751POPC   C3B48741  12.337  30.294   7.270
 3751POPC   C4B48742  12.299  30.227   7.730
 3752POPC   NC348743  16.289  30.283   5.475
 3752POPC   PO448744  15.738  29.926   5.474
 3752POPC   GL148745  15.747  29.787   5.880
 3752POPC   GL248746  15.561  30.071   5.977
 3752POPC   C1A48747  15.743  29.776   6.343
 3752POPC   D2A48748  15.885  30.114   6.589
 3752POPC   C3A48749  15.979  29.956   6.960
 3752POPC   C4A48750  15.882  29.735   7.314
 3752POPC   C1B48751  15.449  30.326   6.333
 3752POPC   C2B48752  15.518  30.444   6.767
 3752POPC   C3B48753  15.590  30.207   7.175
 3752POPC   C4B48754  15.603  30.301   7.632
 3753POPC   NC348755  14.586   2.256   5.432
 3753POPC   PO448756  13.939   2.527   5.437
 3753POPC   GL148757  14.193   2.210   5.770
 3753POPC   GL248758  14.516   2.294   5.917
 3753POPC   C1A48759  14.269   1.916   6.137
 3753POPC   D2A48760  14.109   1.767   6.537
 3753POPC   C3A48761  14.340   1.835   6.956
 3753POPC   C4A48762  14.135   1.761   7.413
 3753POPC   C1B48763  14.672   2.431   6.296
 3753POPC   C2B48764  14.749   2.232   6.676
 3753POPC   C3B48765  14.652   2.292   7.073
 3753POPC   C4B48766  14.654   1.928   7.351
 3754POPC   NC348767   5.879  25.339   5.377
 3754POPC   PO448768   5.755  25.976   5.164
 3754POPC   GL148769   6.004  25.770   5.649
 3754POPC   GL248770   6.140  25.430   5.797
 3754POPC   C1A48771   5.868  25.635   6.160
 3754POPC   D2A48772   5.617  25.356   6.446
 3754POPC   C3A48773   5.653  25.404   6.883
 3754POPC   C4A48774   5.692  25.261   7.299
 3754POPC   C1B48775   6.279  25.329   6.235
 3754POPC   C2B48776   6.123  25.394   6.643
 3754POPC   C3B48777   6.187  25.431   7.074
 3754POPC   C4B48778   6.146  25.225   7.463
 3755POPC   NC348779  20.803   3.918   5.509
 3755POPC   PO448780  20.505   3.230   5.485
 3755POPC   GL148781  20.740   3.404   5.829
 3755POPC   GL248782  20.634   3.733   5.949
 3755POPC   C1A48783  20.736   3.359   6.295
 3755POPC   D2A48784  20.821   3.222   6.708
 3755POPC   C3A48785  20.675   3.552   6.977
 3755POPC   C4A48786  20.389   3.569   7.312
 3755POPC   C1B48787  21.032   3.753   6.147
 3755POPC   C2B48788  20.983   3.739   6.592
 3755POPC   C3B48789  20.736   4.030   6.815
 3755POPC   C4B48790  20.647   4.026   7.248
 3756POPC   NC348791  39.602  37.831   5.451
 3756POPC   PO448792  40.259  37.587   5.430
 3756POPC   GL148793  40.090  37.638   5.845
 3756POPC   GL248794  40.356  37.421   5.939
 3756POPC   C1A48795  39.915  37.554   6.283
 3756POPC   D2A48796  39.849  37.496   6.748
 3756POPC   C3A48797  39.912  37.779   7.114
 3756POPC   C4A48798  39.822  37.550   7.522
 3756POPC   C1B48799  40.395  37.709   6.299
 3756POPC   C2B48800  40.335  37.689   6.743
 3756POPC   C3B48801  40.288  37.446   7.143
 3756POPC   C4B48802  40.290  37.752   7.472
 3757POPC   NC348803  29.356  17.308   5.319
 3757POPC   PO448804  28.908  17.696   5.429
 3757POPC   GL148805  28.897  17.514   5.847
 3757POPC   GL248806  28.950  17.176   5.735
 3757POPC   C1A48807  29.056  17.449   6.287
 3757POPC   D2A48808  29.295  17.479   6.700
 3757POPC   C3A48809  29.217  17.546   7.145
 3757POPC   C4A48810  29.555  17.554   7.508
 3757POPC   C1B48811  28.890  16.947   6.123
 3757POPC   C2B48812  29.046  17.007   6.547
 3757POPC   C3B48813  28.854  17.211   6.935
 3757POPC   C4B48814  28.957  17.023   7.356
 3758POPC   NC348815  24.067   0.647   5.476
 3758POPC   PO448816  24.754   0.334   5.508
 3758POPC   GL148817  24.463   0.542   5.808
 3758POPC   GL248818  24.163   0.379   5.924
 3758POPC   C1A48819  24.368   0.809   6.174
 3758POPC   D2A48820  24.241   0.871   6.608
 3758POPC   C3A48821  24.437   0.597   6.918
 3758POPC   C4A48822  24.475   0.715   7.331
 3758POPC   C1B48823  24.406   0.308   6.299
 3758POPC   C2B48824  24.649   0.175   6.659
 3758POPC   C3B48825  24.712   0.163   7.102
 3758POPC   C4B48826  24.548   0.249   7.542
 3759POPC   NC348827  14.204  26.927   5.421
 3759POPC   PO448828  14.768  26.595   5.398
 3759POPC   GL148829  14.570  26.700   5.789
 3759POPC   GL248830  14.213  26.558   5.787
 3759POPC   C1A48831  14.727  26.870   6.205
 3759POPC   D2A48832  14.729  26.717   6.662
 3759POPC   C3A48833  14.464  26.888   7.022
 3759POPC   C4A48834  14.517  26.995   7.471
 3759POPC   C1B48835  14.224  26.751   6.207
 3759POPC   C2B48836  14.111  26.808   6.643
 3759POPC   C3B48837  14.067  26.564   7.002
 3759POPC   C4B48838  14.173  26.630   7.419
 3760POPC   NC348839  22.713  16.764   5.712
 3760POPC   PO448840  23.349  16.762   5.467
 3760POPC   GL148841  23.286  16.832   5.908
 3760POPC   GL248842  23.099  17.137   5.946
 3760POPC   C1A48843  23.180  16.635   6.332
 3760POPC   D2A48844  22.958  16.709   6.731
 3760POPC   C3A48845  23.050  16.606   7.142
 3760POPC   C4A48846  23.235  16.646   7.550
 3760POPC   C1B48847  22.819  16.998   6.309
 3760POPC   C2B48848  22.583  17.054   6.720
 3760POPC   C3B48849  22.704  17.038   7.142
 3760POPC   C4B48850  22.725  16.789   7.493
 3761POPC   NC348851  20.929  25.962   5.484
 3761POPC   PO448852  20.407  25.828   5.070
 3761POPC   GL148853  20.448  25.854   5.628
 3761POPC   GL248854  20.715  26.099   5.906
 3761POPC   C1A48855  20.422  25.766   6.108
 3761POPC   D2A48856  20.348  25.772   6.586
 3761POPC   C3A48857  20.699  25.868   6.883
 3761POPC   C4A48858  20.834  25.842   7.324
 3761POPC   C1B48859  20.562  26.235   6.337
 3761POPC   C2B48860  20.714  26.439   6.709
 3761POPC   C3B48861  20.706  26.341   7.113
 3761POPC   C4B48862  20.369  26.083   7.235
 3762POPC   NC348863  23.291  18.088   5.640
 3762POPC   PO448864  23.845  18.227   5.269
 3762POPC   GL148865  23.800  18.273   5.745
 3762POPC   GL248866  23.696  17.951   5.936
 3762POPC   C1A48867  23.835  18.337   6.232
 3762POPC   D2A48868  23.807  18.006   6.594
 3762POPC   C3A48869  23.927  18.232   6.950
 3762POPC   C4A48870  23.784  18.506   7.265
 3762POPC   C1B48871  23.396  18.084   6.284
 3762POPC   C2B48872  23.331  18.179   6.711
 3762POPC   C3B48873  23.506  17.968   7.081
 3762POPC   C4B48874  23.318  17.928   7.504
 3763POPC   NC348875  43.516  29.313   5.281
 3763POPC   PO448876  44.085  29.069   5.403
 3763POPC   GL148877  43.837  29.007   5.797
 3763POPC   GL248878  43.670  29.306   5.784
 3763POPC   C1A48879  43.823  29.036   6.267
 3763POPC   D2A48880  44.100  29.160   6.629
 3763POPC   C3A48881  44.063  28.996   7.059
 3763POPC   C4A48882  43.849  28.995   7.489
 3763POPC   C1B48883  43.447  29.375   6.184
 3763POPC   C2B48884  43.616  29.369   6.621
 3763POPC   C3B48885  43.580  29.169   7.037
 3763POPC   C4B48886  43.483  29.370   7.429
 3764POPC   NC348887   4.155  15.063   5.333
 3764POPC   PO448888   4.840  14.851   5.568
 3764POPC   GL148889   4.641  15.008   5.888
 3764POPC   GL248890   4.306  15.147   5.821
 3764POPC   C1A48891   4.532  14.852   6.274
 3764POPC   D2A48892   4.313  14.820   6.651
 3764POPC   C3A48893   4.609  14.802   6.963
 3764POPC   C4A48894   4.521  14.960   7.332
 3764POPC   C1B48895   4.472  15.374   6.194
 3764POPC   C2B48896   4.609  15.269   6.614
 3764POPC   C3B48897   4.360  15.315   6.975
 3764POPC   C4B48898   4.122  15.270   7.332
 3765POPC   NC348899  27.170  24.728   5.325
 3765POPC   PO448900  27.779  24.441   5.173
 3765POPC   GL148901  27.697  24.493   5.680
 3765POPC   GL248902  27.956  24.556   5.808
 3765POPC   C1A48903  27.657  24.459   6.194
 3765POPC   D2A48904  27.441  24.501   6.624
 3765POPC   C3A48905  27.578  24.344   7.030
 3765POPC   C4A48906  27.472  24.450   7.438
 3765POPC   C1B48907  28.081  24.779   6.178
 3765POPC   C2B48908  27.847  24.837   6.561
 3765POPC   C3B48909  27.932  24.700   6.981
 3765POPC   C4B48910  27.984  24.473   7.363
 3766POPC   NC348911  35.167  35.629   5.353
 3766POPC   PO448912  35.220  34.941   5.552
 3766POPC   GL148913  35.372  35.355   5.743
 3766POPC   GL248914  35.745  35.423   5.791
 3766POPC   C1A48915  35.373  35.598   6.131
 3766POPC   D2A48916  35.231  35.344   6.485
 3766POPC   C3A48917  35.370  35.494   6.848
 3766POPC   C4A48918  35.225  35.572   7.202
 3766POPC   C1B48919  35.634  35.159   6.188
 3766POPC   C2B48920  35.712  35.150   6.654
 3766POPC   C3B48921  35.550  35.069   7.052
 3766POPC   C4B48922  35.681  35.398   7.321
 3767POPC   NC348923  41.457   1.020   5.559
 3767POPC   PO448924  41.225   1.645   5.731
 3767POPC   GL148925  41.423   1.316   5.954
 3767POPC   GL248926  41.791   1.309   5.947
 3767POPC   C1A48927  41.396   1.095   6.322
 3767POPC   D2A48928  41.187   1.253   6.674
 3767POPC   C3A48929  41.319   1.144   7.065
 3767POPC   C4A48930  41.434   1.264   7.468
 3767POPC   C1B48931  41.898   1.039   6.314
 3767POPC   C2B48932  41.681   0.955   6.728
 3767POPC   C3B48933  41.819   1.140   7.122
 3767POPC   C4B48934  41.904   1.082   7.551
 3768POPC   NC348935  18.614   8.978   5.416
 3768POPC   PO448936  18.105   9.372   5.519
 3768POPC   GL148937  18.397   9.217   5.824
 3768POPC   GL248938  18.719   9.357   5.754
 3768POPC   C1A48939  18.395   8.868   6.120
 3768POPC   D2A48940  18.087   8.810   6.454
 3768POPC   C3A48941  18.252   8.766   6.864
 3768POPC   C4A48942  18.083   9.005   7.168
 3768POPC   C1B48943  18.757   9.228   6.196
 3768POPC   C2B48944  18.520   9.129   6.557
 3768POPC   C3B48945  18.479   9.273   6.963
 3768POPC   C4B48946  18.760   9.231   7.301
 3769POPC   NC348947  32.682  38.587   5.110
 3769POPC   PO448948  32.721  38.297   5.678
 3769POPC   GL148949  32.830  38.467   6.015
 3769POPC   GL248950  33.075  38.656   5.899
 3769POPC   C1A48951  32.861  38.400   6.430
 3769POPC   D2A48952  33.102  38.266   6.752
 3769POPC   C3A48953  32.852  38.489   7.010
 3769POPC   C4A48954  32.614  38.505   7.359
 3769POPC   C1B48955  33.114  38.813   6.286
 3769POPC   C2B48956  33.200  38.786   6.720
 3769POPC   C3B48957  33.367  38.577   7.086
 3769POPC   C4B48958  33.105  38.609   7.450
 3770POPC   NC348959  23.485  14.539   5.307
 3770POPC   PO448960  23.904  14.976   5.053
 3770POPC   GL148961  23.867  14.660   5.584
 3770POPC   GL248962  23.652  14.337   5.763
 3770POPC   C1A48963  23.727  14.677   6.106
 3770POPC   D2A48964  23.552  14.496   6.512
 3770POPC   C3A48965  23.717  14.497   6.933
 3770POPC   C4A48966  23.563  14.796   7.142
 3770POPC   C1B48967  23.819  14.183   6.221
 3770POPC   C2B48968  23.954  14.132   6.688
 3770POPC   C3B48969  23.786  14.009   7.153
 3770POPC   C4B48970  23.948  14.103   7.617
 3771POPC   NC348971   2.473  21.865   5.601
 3771POPC   PO448972   1.784  21.987   5.595
 3771POPC   GL148973   1.931  22.283   5.903
 3771POPC   GL248974   2.308  22.291   5.844
 3771POPC   C1A48975   1.831  22.317   6.343
 3771POPC   D2A48976   1.766  21.989   6.662
 3771POPC   C3A48977   1.770  22.194   7.068
 3771POPC   C4A48978   1.681  22.646   7.151
 3771POPC   C1B48979   2.260  22.031   6.237
 3771POPC   C2B48980   2.256  22.117   6.670
 3771POPC   C3B48981   2.263  22.337   7.035
 3771POPC   C4B48982   2.267  22.059   7.350
 3772POPC   NC348983  24.398   0.040   5.620
 3772POPC   PO448984  24.633  44.473   5.316
 3772POPC   GL148985  24.576  44.567   5.769
 3772POPC   GL248986  24.669  44.259   5.917
 3772POPC   C1A48987  24.594  44.777   6.198
 3772POPC   D2A48988  24.670  44.622   6.626
 3772POPC   C3A48989  24.422  44.786   6.925
 3772POPC   C4A48990  24.450  44.801   7.340
 3772POPC   C1B48991  24.367  44.320   6.277
 3772POPC   C2B48992  24.266  44.324   6.742
 3772POPC   C3B48993  24.579  44.337   7.122
 3772POPC   C4B48994  24.725  44.404   7.565
 3773POPC   NC348995  36.463  35.031   5.040
 3773POPC   PO448996  36.294  35.352   5.566
 3773POPC   GL148997  36.367  35.239   5.942
 3773POPC   GL248998  36.060  35.021   5.907
 3773POPC   C1A48999  36.391  35.463   6.297
 3773POPC   D2A49000  35.943  35.553   6.439
 3773POPC   C3A49001  35.882  35.612   6.885
 3773POPC   C4A49002  35.919  35.831   7.271
 3773POPC   C1B49003  36.112  35.052   6.354
 3773POPC   C2B49004  36.230  35.253   6.746
 3773POPC   C3B49005  36.056  35.092   7.101
 3773POPC   C4B49006  36.235  34.821   7.414
 3774POPC   NC349007  11.473  29.360   5.595
 3774POPC   PO449008  11.249  28.743   5.664
 3774POPC   GL149009  11.442  29.016   5.973
 3774POPC   GL249010  11.141  29.247   5.992
 3774POPC   C1A49011  11.550  29.377   6.263
 3774POPC   D2A49012  11.432  29.561   6.667
 3774POPC   C3A49013  11.428  29.281   7.023
 3774POPC   C4A49014  11.436  29.306   7.487
 3774POPC   C1B49015  11.091  29.234   6.461
 3774POPC   C2B49016  10.941  29.374   6.872
 3774POPC   C3B49017  10.993  29.081   7.223
 3774POPC   C4B49018  11.071  28.971   7.664
 3775POPC   NC349019  28.913  25.299   5.353
 3775POPC   PO449020  29.434  24.913   5.481
 3775POPC   GL149021  29.044  25.028   5.791
 3775POPC   GL249022  28.882  25.381   5.847
 3775POPC   C1A49023  28.934  25.088   6.247
 3775POPC   D2A49024  29.059  24.915   6.603
 3775POPC   C3A49025  28.926  25.102   6.966
 3775POPC   C4A49026  29.226  25.161   7.281
 3775POPC   C1B49027  29.238  25.468   6.147
 3775POPC   C2B49028  29.140  25.442   6.616
 3775POPC   C3B49029  29.023  25.597   7.037
 3775POPC   C4B49030  29.280  25.672   7.415
 3776POPC   NC349031   8.089  42.295   5.294
 3776POPC   PO449032   8.761  42.333   5.196
 3776POPC   GL149033   8.636  42.291   5.688
 3776POPC   GL249034   8.328  42.124   5.757
 3776POPC   C1A49035   8.547  42.448   6.155
 3776POPC   D2A49036   8.307  42.354   6.572
 3776POPC   C3A49037   8.369  42.417   7.052
 3776POPC   C4A49038   8.045  42.408   7.375
 3776POPC   C1B49039   8.008  42.085   6.105
 3776POPC   C2B49040   7.892  41.964   6.559
 3776POPC   C3B49041   8.001  42.042   7.015
 3776POPC   C4B49042   8.067  41.908   7.471
 3777POPC   NC349043   8.526  15.119   5.581
 3777POPC   PO449044   7.806  14.936   5.613
 3777POPC   GL149045   7.905  15.149   5.970
 3777POPC   GL249046   8.150  15.403   5.832
 3777POPC   C1A49047   7.983  14.938   6.363
 3777POPC   D2A49048   8.372  14.798   6.560
 3777POPC   C3A49049   8.382  14.978   6.971
 3777POPC   C4A49050   8.172  14.919   7.416
 3777POPC   C1B49051   8.368  15.265   6.226
 3777POPC   C2B49052   8.205  15.378   6.619
 3777POPC   C3B49053   8.034  15.336   7.013
 3777POPC   C4B49054   8.363  15.380   7.314
 3778POPC   NC349055  36.519  37.585   5.482
 3778POPC   PO449056  36.793  36.950   5.468
 3778POPC   GL149057  36.719  37.285   5.856
 3778POPC   GL249058  36.756  37.690   5.903
 3778POPC   C1A49059  36.899  37.401   6.286
 3778POPC   D2A49060  37.075  37.730   6.574
 3778POPC   C3A49061  37.238  37.597   6.945
 3778POPC   C4A49062  37.021  37.520   7.313
 3778POPC   C1B49063  36.777  37.972   6.253
 3778POPC   C2B49064  36.773  38.139   6.673
 3778POPC   C3B49065  36.739  37.953   7.116
 3778POPC   C4B49066  36.746  37.921   7.601
 3779POPC   NC349067  15.219  40.964   5.307
 3779POPC   PO449068  15.415  40.414   5.584
 3779POPC   GL149069  15.350  40.732   5.882
 3779POPC   GL249070  15.433  41.086   5.757
 3779POPC   C1A49071  15.240  40.648   6.338
 3779POPC   D2A49072  15.348  40.345   6.671
 3779POPC   C3A49073  15.266  40.519   7.058
 3779POPC   C4A49074  14.901  40.702   7.094
 3779POPC   C1B49075  15.237  41.137   6.158
 3779POPC   C2B49076  15.260  41.237   6.609
 3779POPC   C3B49077  15.239  41.097   7.087
 3779POPC   C4B49078  15.384  41.038   7.560
 3780POPC   NC349079  28.949  37.024   5.360
 3780POPC   PO449080  29.552  37.308   5.525
 3780POPC   GL149081  29.206  37.168   5.859
 3780POPC   GL249082  29.048  36.824   5.838
 3780POPC   C1A49083  29.394  36.999   6.270
 3780POPC   D2A49084  29.428  37.196   6.667
 3780POPC   C3A49085  29.417  36.904   7.009
 3780POPC   C4A49086  29.338  36.600   7.312
 3780POPC   C1B49087  28.901  36.935   6.244
 3780POPC   C2B49088  28.956  37.300   6.511
 3780POPC   C3B49089  29.019  37.277   6.972
 3780POPC   C4B49090  28.961  36.926   7.242
 3781POPC   NC349091  33.695  34.902   5.524
 3781POPC   PO449092  33.740  35.528   5.228
 3781POPC   GL149093  33.769  35.524   5.736
 3781POPC   GL249094  33.937  35.231   5.862
 3781POPC   C1A49095  33.756  35.561   6.205
 3781POPC   D2A49096  33.617  35.435   6.627
 3781POPC   C3A49097  33.610  35.004   6.832
 3781POPC   C4A49098  33.679  34.981   7.296
 3781POPC   C1B49099  34.062  35.106   6.293
 3781POPC   C2B49100  34.118  35.120   6.751
 3781POPC   C3B49101  33.901  35.375   7.048
 3781POPC   C4B49102  33.698  35.742   7.088
 3782POPC   NC349103  13.665  11.584   5.249
 3782POPC   PO449104  13.328  11.058   5.211
 3782POPC   GL149105  13.587  11.302   5.665
 3782POPC   GL249106  13.787  11.518   5.813
 3782POPC   C1A49107  13.483  11.341   6.195
 3782POPC   D2A49108  13.279  11.111   6.504
 3782POPC   C3A49109  13.335  11.269   6.929
 3782POPC   C4A49110  13.409  11.046   7.278
 3782POPC   C1B49111  13.948  11.255   6.123
 3782POPC   C2B49112  13.902  11.398   6.562
 3782POPC   C3B49113  13.851  11.229   6.973
 3782POPC   C4B49114  13.763  11.402   7.381
 3783POPC   NC349115  36.836   7.821   5.459
 3783POPC   PO449116  36.676   7.198   5.486
 3783POPC   GL149117  36.875   7.445   5.817
 3783POPC   GL249118  37.214   7.604   5.743
 3783POPC   C1A49119  36.753   7.549   6.254
 3783POPC   D2A49120  36.646   7.263   6.614
 3783POPC   C3A49121  36.749   7.424   7.013
 3783POPC   C4A49122  36.905   7.749   7.209
 3783POPC   C1B49123  37.271   7.381   6.151
 3783POPC   C2B49124  37.146   7.501   6.579
 3783POPC   C3B49125  37.300   7.332   6.944
 3783POPC   C4B49126  37.180   7.307   7.302
 3784POPC   NC349127  26.918  14.008   5.131
 3784POPC   PO449128  26.702  14.646   5.446
 3784POPC   GL149129  26.759  14.518   5.844
 3784POPC   GL249130  26.558  14.235   5.905
 3784POPC   C1A49131  26.993  14.458   6.184
 3784POPC   D2A49132  26.751  14.415   6.503
 3784POPC   C3A49133  26.925  14.323   6.854
 3784POPC   C4A49134  26.802  14.520   7.202
 3784POPC   C1B49135  26.770  13.979   6.234
 3784POPC   C2B49136  26.583  13.938   6.607
 3784POPC   C3B49137  26.432  14.237   6.904
 3784POPC   C4B49138  26.491  14.146   7.282
 3785POPC   NC349139  33.653  32.400   5.387
 3785POPC   PO449140  34.340  32.412   5.252
 3785POPC   GL149141  34.038  32.515   5.724
 3785POPC   GL249142  33.676  32.342   5.883
 3785POPC   C1A49143  34.035  32.384   6.216
 3785POPC   D2A49144  33.703  32.324   6.538
 3785POPC   C3A49145  33.876  32.254   6.954
 3785POPC   C4A49146  34.200  32.460   7.245
 3785POPC   C1B49147  33.429  32.038   6.185
 3785POPC   C2B49148  33.394  31.872   6.632
 3785POPC   C3B49149  33.388  32.060   7.035
 3785POPC   C4B49150  33.347  32.317   7.394
 3786POPC   NC349151  24.158  26.494   5.660
 3786POPC   PO449152  24.592  25.971   5.376
 3786POPC   GL149153  24.488  25.965   5.827
 3786POPC   GL249154  24.150  26.022   5.900
 3786POPC   C1A49155  24.452  25.845   6.280
 3786POPC   D2A49156  24.493  26.115   6.644
 3786POPC   C3A49157  24.438  25.883   6.969
 3786POPC   C4A49158  24.396  25.926   7.367
 3786POPC   C1B49159  24.200  26.295   6.264
 3786POPC   C2B49160  24.090  26.478   6.644
 3786POPC   C3B49161  24.192  26.400   7.046
 3786POPC   C4B49162  24.121  26.320   7.473
 3787POPC   NC349163  21.961  40.995   5.602
 3787POPC   PO449164  22.204  41.657   5.479
 3787POPC   GL149165  22.352  41.526   5.892
 3787POPC   GL249166  22.368  41.186   5.854
 3787POPC   C1A49167  22.118  41.397   6.284
 3787POPC   D2A49168  21.978  41.270   6.723
 3787POPC   C3A49169  21.903  41.676   6.915
 3787POPC   C4A49170  21.778  41.834   7.295
 3787POPC   C1B49171  22.513  41.077   6.231
 3787POPC   C2B49172  22.486  41.240   6.610
 3787POPC   C3B49173  22.410  41.113   7.008
 3787POPC   C4B49174  22.249  41.459   7.198
 3788POPC   NC349175   6.384   7.660   5.362
 3788POPC   PO449176   6.743   7.164   5.486
 3788POPC   GL149177   6.487   7.433   5.826
 3788POPC   GL249178   6.274   7.744   5.838
 3788POPC   C1A49179   6.543   7.550   6.280
 3788POPC   D2A49180   6.679   7.303   6.664
 3788POPC   C3A49181   6.765   7.423   7.097
 3788POPC   C4A49182   6.975   7.428   7.476
 3788POPC   C1B49183   6.125   7.845   6.221
 3788POPC   C2B49184   6.296   7.911   6.611
 3788POPC   C3B49185   6.346   7.708   7.030
 3788POPC   C4B49186   6.474   7.678   7.509
 3789POPC   NC349187  10.150  40.303   5.058
 3789POPC   PO449188  10.060  39.890   5.613
 3789POPC   GL149189   9.922  40.079   5.919
 3789POPC   GL249190   9.597  39.981   5.873
 3789POPC   C1A49191   9.924  39.943   6.313
 3789POPC   D2A49192   9.744  40.016   6.681
 3789POPC   C3A49193   9.996  40.151   7.008
 3789POPC   C4A49194   9.708  40.276   7.304
 3789POPC   C1B49195   9.417  40.133   6.257
 3789POPC   C2B49196   9.212  40.081   6.651
 3789POPC   C3B49197   9.381  39.989   7.044
 3789POPC   C4B49198   9.756  39.744   7.168
 3790POPC   NC349199  26.238  42.889   5.488
 3790POPC   PO449200  25.569  43.147   5.479
 3790POPC   GL149201  25.742  43.109   5.917
 3790POPC   GL249202  25.954  42.820   5.918
 3790POPC   C1A49203  25.867  43.372   6.298
 3790POPC   D2A49204  26.127  43.324   6.668
 3790POPC   C3A49205  25.945  43.361   7.077
 3790POPC   C4A49206  25.961  43.242   7.533
 3790POPC   C1B49207  25.834  42.857   6.370
 3790POPC   C2B49208  25.749  42.969   6.805
 3790POPC   C3B49209  25.954  42.845   7.198
 3790POPC   C4B49210  26.350  42.698   7.361
 3791POPC   NC349211  42.154   3.734   5.214
 3791POPC   PO449212  41.762   3.280   5.479
 3791POPC   GL149213  42.090   3.247   5.787
 3791POPC   GL249214  42.210   3.600   5.727
 3791POPC   C1A49215  42.259   3.352   6.202
 3791POPC   D2A49216  42.258   3.604   6.550
 3791POPC   C3A49217  42.509   3.502   6.851
 3791POPC   C4A49218  42.287   3.284   7.172
 3791POPC   C1B49219  42.388   3.834   6.082
 3791POPC   C2B49220  42.508   4.035   6.488
 3791POPC   C3B49221  42.618   4.003   6.913
 3791POPC   C4B49222  42.345   3.809   7.223
 3792POPC   NC349223  36.641  22.351   5.106
 3792POPC   PO449224  36.201  21.869   5.198
 3792POPC   GL149225  36.035  21.874   5.670
 3792POPC   GL249226  35.661  21.925   5.684
 3792POPC   C1A49227  36.153  22.052   6.138
 3792POPC   D2A49228  36.422  22.059   6.553
 3792POPC   C3A49229  36.451  22.248   6.982
 3792POPC   C4A49230  36.536  22.073   7.415
 3792POPC   C1B49231  35.693  21.824   6.145
 3792POPC   C2B49232  35.784  22.114   6.509
 3792POPC   C3B49233  35.960  22.334   6.868
 3792POPC   C4B49234  36.030  22.109   7.238
 3793POPC   NC349235  28.666   1.839   5.465
 3793POPC   PO449236  28.132   2.238   5.449
 3793POPC   GL149237  28.134   2.082   5.856
 3793POPC   GL249238  28.470   1.940   5.919
 3793POPC   C1A49239  28.261   2.270   6.255
 3793POPC   D2A49240  28.629   2.275   6.523
 3793POPC   C3A49241  28.462   2.275   6.934
 3793POPC   C4A49242  28.265   2.004   7.229
 3793POPC   C1B49243  28.691   1.661   6.200
 3793POPC   C2B49244  28.696   1.458   6.600
 3793POPC   C3B49245  28.582   1.692   6.931
 3793POPC   C4B49246  28.541   1.524   7.301
 3794POPC   NC349247  33.942  27.126   5.426
 3794POPC   PO449248  33.532  26.526   5.205
 3794POPC   GL149249  33.682  26.688   5.626
 3794POPC   GL249250  33.942  26.530   5.827
 3794POPC   C1A49251  33.705  26.958   6.013
 3794POPC   D2A49252  33.840  27.068   6.429
 3794POPC   C3A49253  33.592  26.976   6.781
 3794POPC   C4A49254  33.630  27.118   7.208
 3794POPC   C1B49255  33.773  26.514   6.261
 3794POPC   C2B49256  33.973  26.627   6.646
 3794POPC   C3B49257  33.850  26.609   7.061
 3794POPC   C4B49258  34.229  26.529   7.253
 3795POPC   NC349259   7.008  26.512   5.450
 3795POPC   PO449260   7.689  26.759   5.455
 3795POPC   GL149261   7.387  26.713   5.778
 3795POPC   GL249262   7.404  27.064   5.813
 3795POPC   C1A49263   7.474  26.623   6.212
 3795POPC   D2A49264   7.655  26.865   6.547
 3795POPC   C3A49265   7.470  26.715   6.966
 3795POPC   C4A49266   7.606  26.859   7.380
 3795POPC   C1B49267   7.159  27.066   6.157
 3795POPC   C2B49268   7.144  26.868   6.544
 3795POPC   C3B49269   7.115  27.096   6.916
 3795POPC   C4B49270   7.120  26.962   7.305
 3796POPC   NC349271  37.877  32.964   5.577
 3796POPC   PO449272  37.484  33.532   5.554
 3796POPC   GL149273  37.581  33.234   5.903
 3796POPC   GL249274  37.896  33.046   6.058
 3796POPC   C1A49275  37.432  33.011   6.257
 3796POPC   D2A49276  37.638  32.938   6.637
 3796POPC   C3A49277  37.292  32.907   6.923
 3796POPC   C4A49278  37.241  32.689   7.315
 3796POPC   C1B49279  37.845  33.386   6.326
 3796POPC   C2B49280  38.106  33.522   6.654
 3796POPC   C3B49281  38.041  33.192   6.903
 3796POPC   C4B49282  37.757  32.958   7.160
 3797POPC   NC349283  38.083  27.669   5.537
 3797POPC   PO449284  38.764  27.392   5.380
 3797POPC   GL149285  38.480  27.398   5.725
 3797POPC   GL249286  38.735  27.373   5.954
 3797POPC   C1A49287  38.298  27.501   6.159
 3797POPC   D2A49288  38.472  27.523   6.581
 3797POPC   C3A49289  38.445  27.279   6.936
 3797POPC   C4A49290  38.202  27.405   7.288
 3797POPC   C1B49291  38.715  27.812   6.176
 3797POPC   C2B49292  38.470  28.013   6.562
 3797POPC   C3B49293  38.332  27.833   6.989
 3797POPC   C4B49294  38.557  27.736   7.379
 3798POPC   NC349295  12.271  33.655   5.394
 3798POPC   PO449296  11.754  34.060   5.548
 3798POPC   GL149297  11.957  33.821   5.837
 3798POPC   GL249298  12.300  33.937   5.818
 3798POPC   C1A49299  11.882  33.784   6.272
 3798POPC   D2A49300  11.847  34.030   6.661
 3798POPC   C3A49301  11.919  33.824   7.036
 3798POPC   C4A49302  11.968  33.917   7.465
 3798POPC   C1B49303  12.381  33.682   6.177
 3798POPC   C2B49304  12.227  33.612   6.622
 3798POPC   C3B49305  12.221  33.394   7.017
 3798POPC   C4B49306  12.229  33.506   7.466
 3799POPC   NC349307  19.548   1.154   5.278
 3799POPC   PO449308  20.283   0.930   5.311
 3799POPC   GL149309  20.013   1.012   5.691
 3799POPC   GL249310  19.869   1.304   5.714
 3799POPC   C1A49311  19.914   1.105   6.164
 3799POPC   D2A49312  19.979   0.983   6.572
 3799POPC   C3A49313  20.074   1.312   6.835
 3799POPC   C4A49314  20.092   1.304   7.250
 3799POPC   C1B49315  19.654   1.522   6.089
 3799POPC   C2B49316  19.627   1.395   6.580
 3799POPC   C3B49317  19.637   1.498   7.066
 3799POPC   C4B49318  19.373   1.558   7.450
 3800POPC   NC349319  34.578  28.829   5.552
 3800POPC   PO449320  34.431  29.475   5.202
 3800POPC   GL149321  34.634  29.525   5.693
 3800POPC   GL249322  34.741  29.203   5.876
 3800POPC   C1A49323  34.617  29.598   6.163
 3800POPC   D2A49324  34.394  29.322   6.458
 3800POPC   C3A49325  34.452  29.276   6.910
 3800POPC   C4A49326  34.271  29.470   7.256
 3800POPC   C1B49327  34.521  28.895   6.209
 3800POPC   C2B49328  34.266  28.803   6.615
 3800POPC   C3B49329  34.329  28.760   7.051
 3800POPC   C4B49330  34.753  28.808   7.182
 3801POPC   NC349331  26.877  22.852   5.362
 3801POPC   PO449332  26.575  23.448   5.351
 3801POPC   GL149333  26.662  23.130   5.748
 3801POPC   GL249334  26.680  22.754   5.822
 3801POPC   C1A49335  26.658  23.054   6.216
 3801POPC   D2A49336  26.890  23.135   6.581
 3801POPC   C3A49337  26.691  23.015   6.951
 3801POPC   C4A49338  26.813  23.207   7.322
 3801POPC   C1B49339  26.641  22.499   6.199
 3801POPC   C2B49340  26.871  22.580   6.575
 3801POPC   C3B49341  27.020  22.644   6.984
 3801POPC   C4B49342  26.793  22.695   7.375
 3802POPC   NC349343  17.670  16.995   5.216
 3802POPC   PO449344  17.881  17.676   5.014
 3802POPC   GL149345  17.800  17.529   5.513
 3802POPC   GL249346  17.822  17.833   5.749
 3802POPC   C1A49347  17.577  17.449   5.981
 3802POPC   D2A49348  17.331  17.504   6.401
 3802POPC   C3A49349  17.454  17.325   6.812
 3802POPC   C4A49350  17.423  17.482   7.221
 3802POPC   C1B49351  17.776  17.881   6.226
 3802POPC   C2B49352  17.824  17.542   6.535
 3802POPC   C3B49353  17.927  17.516   6.980
 3802POPC   C4B49354  17.783  17.840   7.280
 3803POPC   NC349355  25.461   4.794   5.582
 3803POPC   PO449356  25.105   5.345   5.301
 3803POPC   GL149357  25.102   5.366   5.790
 3803POPC   GL249358  25.131   5.058   5.954
 3803POPC   C1A49359  25.160   5.493   6.249
 3803POPC   D2A49360  25.319   5.290   6.644
 3803POPC   C3A49361  25.167   5.243   7.066
 3803POPC   C4A49362  24.906   4.950   7.260
 3803POPC   C1B49363  25.444   4.944   6.243
 3803POPC   C2B49364  25.589   4.862   6.651
 3803POPC   C3B49365  25.366   4.762   7.036
 3803POPC   C4B49366  25.397   4.885   7.478
 3804POPC   NC349367  25.411  32.594   5.679
 3804POPC   PO449368  25.198  31.964   5.395
 3804POPC   GL149369  25.117  32.193   5.798
 3804POPC   GL249370  24.875  32.457   5.696
 3804POPC   C1A49371  25.202  32.262   6.291
 3804POPC   D2A49372  25.377  31.972   6.671
 3804POPC   C3A49373  25.509  32.150   7.083
 3804POPC   C4A49374  25.523  32.618   7.093
 3804POPC   C1B49375  24.718  32.256   6.107
 3804POPC   C2B49376  24.709  32.416   6.500
 3804POPC   C3B49377  25.005  32.494   6.789
 3804POPC   C4B49378  25.016  32.255   7.132
 3805POPC   NC349379  43.700   9.037   5.563
 3805POPC   PO449380  43.132   8.867   5.292
 3805POPC   GL149381  43.177   8.835   5.726
 3805POPC   GL249382  42.876   8.840   5.868
 3805POPC   C1A49383  43.283   8.927   6.179
 3805POPC   D2A49384  43.425   8.952   6.602
 3805POPC   C3A49385  43.266   9.142   6.974
 3805POPC   C4A49386  43.383   8.863   7.306
 3805POPC   C1B49387  42.750   8.851   6.288
 3805POPC   C2B49388  42.863   9.005   6.690
 3805POPC   C3B49389  42.903   8.815   7.110
 3805POPC   C4B49390  42.740   8.743   7.506
 3806POPC   NC349391  43.776  25.397   5.108
 3806POPC   PO449392  44.020  24.881   5.396
 3806POPC   GL149393  44.072  25.106   5.863
 3806POPC   GL249394  44.159  25.470   5.810
 3806POPC   C1A49395  44.144  25.268   6.318
 3806POPC   D2A49396  43.975  25.194   6.722
 3806POPC   C3A49397  44.198  25.055   7.066
 3806POPC   C4A49398  43.935  24.969   7.325
 3806POPC   C1B49399  43.867  25.668   6.099
 3806POPC   C2B49400  43.817  25.649   6.541
 3806POPC   C3B49401  43.674  25.540   6.947
 3806POPC   C4B49402  43.954  25.464   7.274
 3807POPC   NC349403  14.803   7.917   5.590
 3807POPC   PO449404  15.449   7.835   5.390
 3807POPC   GL149405  15.247   8.189   5.652
 3807POPC   GL249406  15.220   7.927   5.892
 3807POPC   C1A49407  15.075   8.394   6.061
 3807POPC   D2A49408  14.959   8.244   6.507
 3807POPC   C3A49409  15.074   8.393   6.936
 3807POPC   C4A49410  15.100   8.344   7.384
 3807POPC   C1B49411  15.059   7.775   6.276
 3807POPC   C2B49412  15.155   7.571   6.671
 3807POPC   C3B49413  15.142   7.748   7.083
 3807POPC   C4B49414  14.769   8.015   7.182
 3808POPC   NC349415  10.524  23.212   5.497
 3808POPC   PO449416  10.606  22.557   5.458
 3808POPC   GL149417  10.519  22.801   5.862
 3808POPC   GL249418  10.374  23.149   5.978
 3808POPC   C1A49419  10.448  22.703   6.295
 3808POPC   D2A49420  10.417  22.958   6.670
 3808POPC   C3A49421  10.596  22.800   7.036
 3808POPC   C4A49422  10.408  22.505   7.300
 3808POPC   C1B49423  10.736  23.119   6.290
 3808POPC   C2B49424  10.816  23.277   6.738
 3808POPC   C3B49425  10.824  23.231   7.207
 3808POPC   C4B49426  11.086  23.130   7.554
 3809POPC   NC349427   6.062   1.361   5.390
 3809POPC   PO449428   5.888   0.731   5.382
 3809POPC   GL149429   5.934   1.065   5.793
 3809POPC   GL249430   5.762   1.384   5.796
 3809POPC   C1A49431   6.056   1.241   6.219
 3809POPC   D2A49432   6.117   1.124   6.645
 3809POPC   C3A49433   5.785   0.984   6.871
 3809POPC   C4A49434   5.698   1.071   7.287
 3809POPC   C1B49435   5.668   1.591   6.166
 3809POPC   C2B49436   5.692   1.437   6.567
 3809POPC   C3B49437   5.713   1.497   6.978
 3809POPC   C4B49438   5.487   1.574   7.320
 3810POPC   NC349439  41.788  29.639   5.383
 3810POPC   PO449440  41.273  29.979   5.542
 3810POPC   GL149441  41.342  30.181   5.927
 3810POPC   GL249442  41.609  29.927   5.950
 3810POPC   C1A49443  41.318  30.078   6.368
 3810POPC   D2A49444  41.566  30.053   6.741
 3810POPC   C3A49445  41.325  30.118   7.114
 3810POPC   C4A49446  41.442  30.053   7.514
 3810POPC   C1B49447  41.526  29.615   6.302
 3810POPC   C2B49448  41.438  29.546   6.751
 3810POPC   C3B49449  41.528  29.657   7.176
 3810POPC   C4B49450  41.433  29.551   7.604
 3811POPC   NC349451  36.324  21.436   5.355
 3811POPC   PO449452  36.008  20.893   5.103
 3811POPC   GL149453  36.144  21.032   5.584
 3811POPC   GL249454  35.922  21.336   5.694
 3811POPC   C1A49455  36.146  21.033   6.073
 3811POPC   D2A49456  36.280  20.996   6.512
 3811POPC   C3A49457  36.105  21.238   6.838
 3811POPC   C4A49458  36.280  21.181   7.226
 3811POPC   C1B49459  36.139  21.539   6.069
 3811POPC   C2B49460  36.077  21.672   6.508
 3811POPC   C3B49461  36.232  21.737   6.932
 3811POPC   C4B49462  35.975  21.584   7.259
 3812POPC   NC349463  33.602  10.589   5.446
 3812POPC   PO449464  34.121  10.255   5.138
 3812POPC   GL149465  34.033  10.372   5.614
 3812POPC   GL249466  33.706  10.220   5.785
 3812POPC   C1A49467  34.038  10.562   6.076
 3812POPC   D2A49468  34.171  10.417   6.546
 3812POPC   C3A49469  34.035  10.497   7.002
 3812POPC   C4A49470  33.940  10.789   7.380
 3812POPC   C1B49471  33.534  10.511   6.125
 3812POPC   C2B49472  33.736  10.672   6.516
 3812POPC   C3B49473  33.558  10.587   6.925
 3812POPC   C4B49474  33.643  10.393   7.323
 3813POPC   NC349475  22.864  37.093   5.515
 3813POPC   PO449476  22.818  36.462   5.682
 3813POPC   GL149477  22.662  36.852   5.914
 3813POPC   GL249478  23.005  36.919   5.983
 3813POPC   C1A49479  22.666  37.119   6.289
 3813POPC   D2A49480  22.854  37.009   6.685
 3813POPC   C3A49481  22.559  37.084   7.047
 3813POPC   C4A49482  22.557  36.950   7.455
 3813POPC   C1B49483  23.190  37.190   6.281
 3813POPC   C2B49484  23.395  37.117   6.655
 3813POPC   C3B49485  23.216  36.945   7.032
 3813POPC   C4B49486  22.981  37.250   7.242
 3814POPC   NC349487  40.641  25.555   5.265
 3814POPC   PO449488  41.083  25.124   5.440
 3814POPC   GL149489  40.826  25.361   5.747
 3814POPC   GL249490  40.500  25.222   5.738
 3814POPC   C1A49491  40.915  25.439   6.181
 3814POPC   D2A49492  40.923  25.151   6.527
 3814POPC   C3A49493  40.989  25.343   6.906
 3814POPC   C4A49494  40.744  25.287   7.283
 3814POPC   C1B49495  40.487  25.111   6.217
 3814POPC   C2B49496  40.525  24.780   6.581
 3814POPC   C3B49497  40.591  24.804   7.059
 3814POPC   C4B49498  40.541  24.864   7.531
 3815POPC   NC349499  43.532  39.500   5.428
 3815POPC   PO449500  43.070  39.067   5.151
 3815POPC   GL149501  43.028  39.262   5.650
 3815POPC   GL249502  42.697  39.157   5.754
 3815POPC   C1A49503  43.152  39.298   6.158
 3815POPC   D2A49504  43.356  39.204   6.615
 3815POPC   C3A49505  43.316  39.416   7.071
 3815POPC   C4A49506  43.384  39.143   7.473
 3815POPC   C1B49507  42.667  39.069   6.202
 3815POPC   C2B49508  42.831  39.229   6.574
 3815POPC   C3B49509  42.683  39.112   6.967
 3815POPC   C4B49510  42.896  39.247   7.301
 3816POPC   NC349511  38.821  22.026   5.572
 3816POPC   PO449512  39.524  22.355   5.610
 3816POPC   GL149513  39.163  22.286   5.844
 3816POPC   GL249514  39.150  21.938   5.936
 3816POPC   C1A49515  38.939  22.287   6.246
 3816POPC   D2A49516  39.114  22.291   6.663
 3816POPC   C3A49517  38.949  22.279   7.065
 3816POPC   C4A49518  39.344  22.268   7.274
 3816POPC   C1B49519  39.335  21.935   6.325
 3816POPC   C2B49520  39.232  21.791   6.727
 3816POPC   C3B49521  39.171  21.789   7.129
 3816POPC   C4B49522  39.395  21.794   7.492
 3817POPC   NC349523   6.622   6.783   5.283
 3817POPC   PO449524   6.215   6.324   5.361
 3817POPC   GL149525   6.355   6.550   5.754
 3817POPC   GL249526   6.371   6.926   5.736
 3817POPC   C1A49527   6.665   6.606   6.118
 3817POPC   D2A49528   6.846   6.783   6.544
 3817POPC   C3A49529   6.944   6.559   6.951
 3817POPC   C4A49530   6.959   6.239   7.258
 3817POPC   C1B49531   6.418   7.051   6.177
 3817POPC   C2B49532   6.363   6.903   6.597
 3817POPC   C3B49533   6.582   6.914   7.004
 3817POPC   C4B49534   6.448   6.790   7.420
 3818POPC   NC349535  36.765  18.618   5.252
 3818POPC   PO449536  36.829  17.947   5.378
 3818POPC   GL149537  36.899  18.175   5.776
 3818POPC   GL249538  36.935  18.536   5.777
 3818POPC   C1A49539  36.874  18.319   6.223
 3818POPC   D2A49540  36.740  18.522   6.597
 3818POPC   C3A49541  36.896  18.200   6.843
 3818POPC   C4A49542  37.060  18.187   7.224
 3818POPC   C1B49543  37.283  18.601   6.119
 3818POPC   C2B49544  37.276  18.418   6.553
 3818POPC   C3B49545  37.118  18.677   6.926
 3818POPC   C4B49546  37.075  18.717   7.384
 3819POPC   NC349547   7.694  14.090   5.462
 3819POPC   PO449548   7.440  13.509   5.223
 3819POPC   GL149549   7.471  13.534   5.710
 3819POPC   GL249550   7.659  13.794   5.880
 3819POPC   C1A49551   7.384  13.449   6.145
 3819POPC   D2A49552   7.277  13.651   6.525
 3819POPC   C3A49553   7.466  13.644   6.883
 3819POPC   C4A49554   7.311  13.412   7.232
 3819POPC   C1B49555   7.505  14.014   6.236
 3819POPC   C2B49556   7.424  14.158   6.629
 3819POPC   C3B49557   7.443  14.214   7.025
 3819POPC   C4B49558   7.387  13.905   7.313
 3820POPC   NC349559  36.474  34.911   5.572
 3820POPC   PO449560  36.919  34.356   5.505
 3820POPC   GL149561  37.017  34.404   5.872
 3820POPC   GL249562  36.672  34.561   5.914
 3820POPC   C1A49563  37.121  34.523   6.259
 3820POPC   D2A49564  37.000  34.831   6.549
 3820POPC   C3A49565  37.178  34.688   6.920
 3820POPC   C4A49566  37.144  34.645   7.309
 3820POPC   C1B49567  36.662  34.252   6.234
 3820POPC   C2B49568  36.838  34.334   6.640
 3820POPC   C3B49569  36.744  34.406   7.050
 3820POPC   C4B49570  36.686  34.075   7.320
 3821POPC   NC349571   1.397  13.430   5.606
 3821POPC   PO449572   1.226  12.918   5.218
 3821POPC   GL149573   1.311  12.869   5.713
 3821POPC   GL249574   0.993  12.740   5.824
 3821POPC   C1A49575   1.268  12.998   6.207
 3821POPC   D2A49576   1.384  12.785   6.608
 3821POPC   C3A49577   1.490  12.955   7.003
 3821POPC   C4A49578   1.348  12.951   7.406
 3821POPC   C1B49579   0.811  12.736   6.213
 3821POPC   C2B49580   0.886  12.879   6.607
 3821POPC   C3B49581   0.976  12.893   7.014
 3821POPC   C4B49582   0.864  12.647   7.314
 3822POPC   NC349583   3.517  18.827   5.449
 3822POPC   PO449584   3.648  19.473   5.646
 3822POPC   GL149585   3.695  19.176   5.989
 3822POPC   GL249586   3.591  18.819   5.960
 3822POPC   C1A49587   3.660  19.044   6.432
 3822POPC   D2A49588   3.376  19.139   6.778
 3822POPC   C3A49589   3.680  19.251   7.098
 3822POPC   C4A49590   3.907  18.981   7.386
 3822POPC   C1B49591   3.245  18.737   6.289
 3822POPC   C2B49592   3.282  18.573   6.730
 3822POPC   C3B49593   3.489  18.760   7.113
 3822POPC   C4B49594   3.363  19.044   7.463
 3823POPC   NC349595   5.642  39.309   5.421
 3823POPC   PO449596   6.157  38.836   5.533
 3823POPC   GL149597   6.054  39.163   5.856
 3823POPC   GL249598   5.701  39.206   5.913
 3823POPC   C1A49599   6.104  39.393   6.275
 3823POPC   D2A49600   5.932  39.454   6.718
 3823POPC   C3A49601   6.146  39.303   7.113
 3823POPC   C4A49602   6.101  39.349   7.567
 3823POPC   C1B49603   5.648  39.137   6.327
 3823POPC   C2B49604   5.456  39.245   6.700
 3823POPC   C3B49605   5.607  39.321   7.125
 3823POPC   C4B49606   5.666  39.088   7.475
 3824POPC   NC349607  41.674   0.044   5.534
 3824POPC   PO449608  41.444   0.585   5.350
 3824POPC   GL149609  41.616   0.525   5.800
 3824POPC   GL249610  41.755   0.236   5.983
 3824POPC   C1A49611  41.568   0.624   6.255
 3824POPC   D2A49612  41.360   0.500   6.628
 3824POPC   C3A49613  41.542   0.480   7.028
 3824POPC   C4A49614  41.545   0.762   7.376
 3824POPC   C1B49615  41.735   0.155   6.422
 3824POPC   C2B49616  41.854   0.033   6.846
 3824POPC   C3B49617  41.582  44.930   7.192
 3824POPC   C4B49618  41.292   0.005   7.545
 3825POPC   NC349619  35.536  42.066   5.343
 3825POPC   PO449620  34.993  42.490   5.416
 3825POPC   GL149621  35.081  42.283   5.794
 3825POPC   GL249622  35.288  42.005   5.775
 3825POPC   C1A49623  35.232  42.329   6.219
 3825POPC   D2A49624  35.427  42.570   6.559
 3825POPC   C3A49625  35.383  42.405   6.976
 3825POPC   C4A49626  35.637  42.399   7.337
 3825POPC   C1B49627  35.485  41.864   6.148
 3825POPC   C2B49628  35.516  42.065   6.564
 3825POPC   C3B49629  35.645  41.951   6.967
 3825POPC   C4B49630  35.360  41.955   7.293
 3826POPC   NC349631   5.387  16.188   5.444
 3826POPC   PO449632   4.891  15.822   5.683
 3826POPC   GL149633   5.270  15.895   5.876
 3826POPC   GL249634   5.478  15.631   5.772
 3826POPC   C1A49635   5.219  16.093   6.262
 3826POPC   D2A49636   4.981  16.152   6.631
 3826POPC   C3A49637   5.161  16.068   7.031
 3826POPC   C4A49638   4.976  16.143   7.435
 3826POPC   C1B49639   5.416  15.579   6.253
 3826POPC   C2B49640   5.383  15.769   6.661
 3826POPC   C3B49641   5.312  15.563   7.071
 3826POPC   C4B49642   5.131  15.654   7.467
 3827POPC   NC349643  34.815  34.732   5.474
 3827POPC   PO449644  34.175  34.904   5.541
 3827POPC   GL149645  34.463  34.788   5.867
 3827POPC   GL249646  34.736  34.510   5.908
 3827POPC   C1A49647  34.574  35.034   6.205
 3827POPC   D2A49648  34.845  34.974   6.535
 3827POPC   C3A49649  34.579  34.904   6.854
 3827POPC   C4A49650  34.623  34.839   7.271
 3827POPC   C1B49651  34.650  34.558   6.325
 3827POPC   C2B49652  34.461  34.394   6.655
 3827POPC   C3B49653  34.725  34.422   6.977
 3827POPC   C4B49654  34.928  34.429   7.354
 3828POPC   NC349655  10.523  19.944   5.484
 3828POPC   PO449656  10.109  19.423   5.660
 3828POPC   GL149657  10.486  19.684   5.906
 3828POPC   GL249658  10.828  19.913   5.870
 3828POPC   C1A49659  10.541  19.945   6.268
 3828POPC   D2A49660  10.651  20.196   6.607
 3828POPC   C3A49661  10.545  19.938   6.938
 3828POPC   C4A49662  10.459  19.718   7.271
 3828POPC   C1B49663  11.022  20.197   6.210
 3828POPC   C2B49664  11.131  20.375   6.648
 3828POPC   C3B49665  10.962  20.181   7.056
 3828POPC   C4B49666  10.676  20.141   7.467
 3829POPC   NC349667  38.159  26.339   5.362
 3829POPC   PO449668  38.798  26.618   5.415
 3829POPC   GL149669  38.540  26.327   5.762
 3829POPC   GL249670  38.651  25.991   5.911
 3829POPC   C1A49671  38.174  26.099   6.049
 3829POPC   D2A49672  37.969  25.972   6.437
 3829POPC   C3A49673  38.188  25.973   6.815
 3829POPC   C4A49674  38.335  26.161   7.177
 3829POPC   C1B49675  38.594  26.123   6.370
 3829POPC   C2B49676  38.692  26.211   6.803
 3829POPC   C3B49677  38.778  25.932   7.165
 3829POPC   C4B49678  38.671  26.076   7.588
 3830POPC   NC349679  26.672  11.631   5.504
 3830POPC   PO449680  27.167  11.183   5.401
 3830POPC   GL149681  26.885  11.094   5.777
 3830POPC   GL249682  26.730  11.380   5.956
 3830POPC   C1A49683  26.813  10.914   6.184
 3830POPC   D2A49684  26.701  11.221   6.538
 3830POPC   C3A49685  26.693  11.084   6.975
 3830POPC   C4A49686  27.041  10.906   7.256
 3830POPC   C1B49687  26.975  11.712   6.166
 3830POPC   C2B49688  27.136  11.681   6.588
 3830POPC   C3B49689  26.926  11.559   6.948
 3830POPC   C4B49690  26.541  11.596   7.084
 3831POPC   NC349691   8.820  18.289   5.259
 3831POPC   PO449692   9.110  18.722   5.598
 3831POPC   GL149693   8.980  18.352   5.770
 3831POPC   GL249694   8.785  18.554   5.994
 3831POPC   C1A49695   9.046  18.120   6.154
 3831POPC   D2A49696   8.907  18.280   6.520
 3831POPC   C3A49697   9.060  18.114   6.888
 3831POPC   C4A49698   8.992  17.899   7.240
 3831POPC   C1B49699   9.157  18.659   6.244
 3831POPC   C2B49700   9.263  18.603   6.674
 3831POPC   C3B49701   8.924  18.606   6.953
 3831POPC   C4B49702   9.097  18.633   7.310
 3832POPC   NC349703   3.238  13.496   5.510
 3832POPC   PO449704   3.453  14.048   5.460
 3832POPC   GL149705   3.627  13.771   5.795
 3832POPC   GL249706   3.344  13.635   5.976
 3832POPC   C1A49707   3.764  13.682   6.255
 3832POPC   D2A49708   3.555  13.879   6.630
 3832POPC   C3A49709   3.699  13.833   7.069
 3832POPC   C4A49710   3.615  13.997   7.484
 3832POPC   C1B49711   3.044  13.533   6.274
 3832POPC   C2B49712   3.220  13.482   6.651
 3832POPC   C3B49713   3.275  13.554   7.071
 3832POPC   C4B49714   3.653  13.321   7.146
 3833POPC   NC349715  35.536  40.507   5.586
 3833POPC   PO449716  35.102  40.960   5.358
 3833POPC   GL149717  35.233  40.970   5.774
 3833POPC   GL249718  35.073  40.683   5.855
 3833POPC   C1A49719  35.414  40.844   6.196
 3833POPC   D2A49720  35.343  41.088   6.556
 3833POPC   C3A49721  35.272  41.010   6.968
 3833POPC   C4A49722  35.550  40.728   7.163
 3833POPC   C1B49723  35.062  40.499   6.259
 3833POPC   C2B49724  35.240  40.557   6.665
 3833POPC   C3B49725  35.040  40.574   7.061
 3833POPC   C4B49726  35.208  40.484   7.458
 3834POPC   NC349727   8.792  17.389   5.441
 3834POPC   PO449728   9.164  18.006   5.406
 3834POPC   GL149729   8.915  17.799   5.776
 3834POPC   GL249730   8.535  17.708   5.753
 3834POPC   C1A49731   9.098  17.564   6.176
 3834POPC   D2A49732   9.336  17.509   6.599
 3834POPC   C3A49733   9.221  17.287   7.000
 3834POPC   C4A49734   9.121  17.446   7.439
 3834POPC   C1B49735   8.617  17.756   6.208
 3834POPC   C2B49736   8.855  17.729   6.604
 3834POPC   C3B49737   8.768  17.496   6.985
 3834POPC   C4B49738   8.610  17.562   7.396
 3835POPC   NC349739  36.807  16.225   5.486
 3835POPC   PO449740  37.222  15.755   5.559
 3835POPC   GL149741  37.020  15.963   5.900
 3835POPC   GL249742  36.696  15.800   5.853
 3835POPC   C1A49743  37.165  15.988   6.338
 3835POPC   D2A49744  37.118  15.666   6.642
 3835POPC   C3A49745  37.006  15.766   7.046
 3835POPC   C4A49746  36.992  16.163   7.254
 3835POPC   C1B49747  36.649  15.984   6.279
 3835POPC   C2B49748  36.671  15.963   6.723
 3835POPC   C3B49749  36.470  15.953   7.108
 3835POPC   C4B49750  36.690  15.757   7.454
 3836POPC   NC349751  44.484  12.262   5.600
 3836POPC   PO449752  44.330  11.621   5.525
 3836POPC   GL149753  44.475  11.815   5.930
 3836POPC   GL249754  44.436  12.187   6.092
 3836POPC   C1A49755  44.772  11.871   6.274
 3836POPC   D2A49756  44.915  11.986   6.676
 3836POPC   C3A49757  44.690  11.915   7.091
 3836POPC   C4A49758  44.574  11.958   7.557
 3836POPC   C1B49759  44.856  12.378   6.302
 3836POPC   C2B49760   0.022  12.494   6.744
 3836POPC   C3B49761  44.884  12.393   7.192
 3836POPC   C4B49762   0.047  12.126   7.552
 3837POPC   NC349763  35.239   9.806   5.337
 3837POPC   PO449764  35.595   9.384   5.693
 3837POPC   GL149765  35.264   9.583   5.883
 3837POPC   GL249766  34.993   9.468   5.672
 3837POPC   C1A49767  35.150   9.776   6.305
 3837POPC   D2A49768  35.187  10.070   6.669
 3837POPC   C3A49769  35.586  10.005   6.891
 3837POPC   C4A49770  35.537   9.742   7.224
 3837POPC   C1B49771  34.843   9.416   6.119
 3837POPC   C2B49772  34.979   9.338   6.524
 3837POPC   C3B49773  35.185   9.552   6.849
 3837POPC   C4B49774  35.110   9.484   7.272
 3838POPC   NC349775   2.216  34.291   5.358
 3838POPC   PO449776   2.234  33.554   5.401
 3838POPC   GL149777   2.034  33.720   5.788
 3838POPC   GL249778   2.009  34.079   5.790
 3838POPC   C1A49779   1.988  33.621   6.240
 3838POPC   D2A49780   1.950  33.366   6.629
 3838POPC   C3A49781   1.871  33.636   7.002
 3838POPC   C4A49782   1.666  33.623   7.413
 3838POPC   C1B49783   2.269  34.027   6.151
 3838POPC   C2B49784   2.460  34.036   6.550
 3838POPC   C3B49785   2.273  33.955   6.970
 3838POPC   C4B49786   2.089  34.159   7.329
 3839POPC   NC349787  15.947  40.290   5.221
 3839POPC   PO449788  15.991  40.999   5.178
 3839POPC   GL149789  15.832  40.750   5.637
 3839POPC   GL249790  15.919  41.005   5.905
 3839POPC   C1A49791  15.943  40.547   6.115
 3839POPC   D2A49792  15.845  40.472   6.581
 3839POPC   C3A49793  16.071  40.622   6.967
 3839POPC   C4A49794  16.025  40.498   7.413
 3839POPC   C1B49795  15.674  40.934   6.315
 3839POPC   C2B49796  15.533  40.829   6.748
 3839POPC   C3B49797  15.660  40.809   7.197
 3839POPC   C4B49798  15.915  41.027   7.510
 3840POPC   NC349799  44.393  20.615   5.415
 3840POPC   PO449800   0.039  20.430   5.340
 3840POPC   GL149801  44.851  20.468   5.735
 3840POPC   GL249802  44.775  20.836   5.685
 3840POPC   C1A49803  44.873  20.316   6.187
 3840POPC   D2A49804   0.070  20.271   6.598
 3840POPC   C3A49805  44.781  20.316   6.946
 3840POPC   C4A49806  44.878  20.373   7.390
 3840POPC   C1B49807  44.711  20.780   6.122
 3840POPC   C2B49808  44.888  20.759   6.560
 3840POPC   C3B49809  44.816  20.815   7.025
 3840POPC   C4B49810  44.507  20.773   7.358
 3841POPC   NC349811  43.782  28.679   5.401
 3841POPC   PO449812  44.359  28.390   5.509
 3841POPC   GL149813  44.022  28.479   5.832
 3841POPC   GL249814  43.870  28.152   5.829
 3841POPC   C1A49815  43.783  28.517   6.251
 3841POPC   D2A49816  43.808  28.721   6.684
 3841POPC   C3A49817  43.704  28.651   7.134
 3841POPC   C4A49818  43.932  28.440   7.474
 3841POPC   C1B49819  43.874  27.987   6.243
 3841POPC   C2B49820  44.053  27.992   6.634
 3841POPC   C3B49821  43.893  28.173   6.995
 3841POPC   C4B49822  43.727  28.003   7.366
 3842POPC   NC349823   2.456  44.476   5.243
 3842POPC   PO449824   2.802   0.059   5.323
 3842POPC   GL149825   2.797  44.802   5.713
 3842POPC   GL249826   2.473  44.611   5.750
 3842POPC   C1A49827   2.831  44.591   6.127
 3842POPC   D2A49828   2.818  44.358   6.496
 3842POPC   C3A49829   2.742  44.493   6.913
 3842POPC   C4A49830   2.957  44.558   7.266
 3842POPC   C1B49831   2.430  44.910   6.104
 3842POPC   C2B49832   2.561  44.836   6.534
 3842POPC   C3B49833   2.408  44.900   6.952
 3842POPC   C4B49834   2.591  44.893   7.362
 3843POPC   NC349835  22.835   3.213   5.461
 3843POPC   PO449836  22.967   2.475   5.492
 3843POPC   GL149837  22.800   2.759   5.834
 3843POPC   GL249838  23.040   3.031   5.895
 3843POPC   C1A49839  22.807   2.807   6.304
 3843POPC   D2A49840  22.845   2.603   6.740
 3843POPC   C3A49841  22.660   2.556   7.163
 3843POPC   C4A49842  22.545   2.910   7.440
 3843POPC   C1B49843  23.218   2.629   6.109
 3843POPC   C2B49844  23.262   2.481   6.495
 3843POPC   C3B49845  23.329   2.479   6.941
 3843POPC   C4B49846  23.134   2.673   7.304
 3844POPC   NC349847  23.511  27.874   5.275
 3844POPC   PO449848  23.860  27.353   5.140
 3844POPC   GL149849  23.717  27.386   5.576
 3844POPC   GL249850  23.986  27.445   5.834
 3844POPC   C1A49851  23.469  27.477   5.979
 3844POPC   D2A49852  23.644  27.635   6.358
 3844POPC   C3A49853  23.517  27.505   6.750
 3844POPC   C4A49854  23.611  27.790   7.047
 3844POPC   C1B49855  24.003  27.278   6.268
 3844POPC   C2B49856  24.021  27.429   6.698
 3844POPC   C3B49857  24.037  27.528   7.126
 3844POPC   C4B49858  24.086  27.281   7.483
 3845POPC   NC349859  16.582  26.528   5.560
 3845POPC   PO449860  17.063  26.926   5.333
 3845POPC   GL149861  16.957  26.774   5.788
 3845POPC   GL249862  16.612  26.921   5.896
 3845POPC   C1A49863  16.952  26.750   6.263
 3845POPC   D2A49864  16.974  27.013   6.666
 3845POPC   C3A49865  16.901  26.799   7.080
 3845POPC   C4A49866  16.917  26.645   7.513
 3845POPC   C1B49867  16.442  26.855   6.315
 3845POPC   C2B49868  16.537  26.659   6.700
 3845POPC   C3B49869  16.349  26.790   7.090
 3845POPC   C4B49870  16.332  27.152   7.414
 3846POPC   NC349871  23.175  31.216   5.305
 3846POPC   PO449872  22.783  31.704   5.508
 3846POPC   GL149873  23.018  31.653   5.847
 3846POPC   GL249874  23.012  31.284   5.845
 3846POPC   C1A49875  23.052  31.829   6.271
 3846POPC   D2A49876  22.814  31.748   6.655
 3846POPC   C3A49877  23.085  31.684   7.010
 3846POPC   C4A49878  22.929  31.637   7.448
 3846POPC   C1B49879  22.787  31.381   6.247
 3846POPC   C2B49880  22.617  31.234   6.652
 3846POPC   C3B49881  22.708  31.360   7.037
 3846POPC   C4B49882  23.135  31.214   7.247
 3847POPC   NC349883  21.480  15.663   5.535
 3847POPC   PO449884  21.469  15.052   5.264
 3847POPC   GL149885  21.386  15.165   5.678
 3847POPC   GL249886  21.685  15.306   5.842
 3847POPC   C1A49887  21.221  15.104   6.091
 3847POPC   D2A49888  21.155  15.196   6.515
 3847POPC   C3A49889  21.384  14.999   6.834
 3847POPC   C4A49890  21.320  15.018   7.249
 3847POPC   C1B49891  21.555  15.475   6.236
 3847POPC   C2B49892  21.534  15.504   6.677
 3847POPC   C3B49893  21.615  15.532   7.110
 3847POPC   C4B49894  21.676  15.368   7.509
 3848POPC   NC349895  43.587  18.157   5.614
 3848POPC   PO449896  43.997  18.586   5.295
 3848POPC   GL149897  44.026  18.399   5.742
 3848POPC   GL249898  43.750  18.374   6.029
 3848POPC   C1A49899  44.224  18.418   6.164
 3848POPC   D2A49900  44.187  18.462   6.604
 3848POPC   C3A49901  44.298  18.118   6.881
 3848POPC   C4A49902  44.198  18.270   7.257
 3848POPC   C1B49903  43.745  18.001   6.273
 3848POPC   C2B49904  43.837  18.070   6.691
 3848POPC   C3B49905  43.752  18.382   7.007
 3848POPC   C4B49906  43.564  18.033   7.192
 3849POPC   NC349907  23.842  10.978   5.282
 3849POPC   PO449908  23.618  11.471   5.246
 3849POPC   GL149909  23.557  11.378   5.724
 3849POPC   GL249910  23.866  11.468   5.904
 3849POPC   C1A49911  23.480  11.374   6.216
 3849POPC   D2A49912  23.564  11.501   6.646
 3849POPC   C3A49913  23.600  11.191   6.964
 3849POPC   C4A49914  23.610  10.956   7.340
 3849POPC   C1B49915  23.997  11.426   6.360
 3849POPC   C2B49916  24.054  11.399   6.831
 3849POPC   C3B49917  24.058  11.183   7.229
 3849POPC   C4B49918  23.950  11.146   7.676
 3850POPC   NC349919   6.126  40.555   5.576
 3850POPC   PO449920   5.833  39.938   5.384
 3850POPC   GL149921   6.057  40.058   5.729
 3850POPC   GL249922   5.777  40.238   5.834
 3850POPC   C1A49923   6.019  39.916   6.163
 3850POPC   D2A49924   5.837  39.971   6.565
 3850POPC   C3A49925   6.066  39.905   6.940
 3850POPC   C4A49926   5.886  39.719   7.285
 3850POPC   C1B49927   5.724  40.380   6.272
 3850POPC   C2B49928   5.526  40.362   6.701
 3850POPC   C3B49929   5.649  40.189   7.102
 3850POPC   C4B49930   6.038  40.257   7.331
 3851POPC   NC349931  38.919   3.041   5.078
 3851POPC   PO449932  39.100   2.540   5.467
 3851POPC   GL149933  39.211   2.725   5.833
 3851POPC   GL249934  38.911   2.703   5.984
 3851POPC   C1A49935  39.341   2.940   6.192
 3851POPC   D2A49936  39.351   2.804   6.629
 3851POPC   C3A49937  39.351   3.033   6.996
 3851POPC   C4A49938  39.384   2.853   7.396
 3851POPC   C1B49939  38.892   2.766   6.401
 3851POPC   C2B49940  38.841   2.762   6.814
 3851POPC   C3B49941  38.916   2.850   7.185
 3851POPC   C4B49942  38.954   2.559   7.435
 3852POPC   NC349943   9.337  19.105   5.424
 3852POPC   PO449944   8.746  18.900   5.243
 3852POPC   GL149945   8.745  19.048   5.746
 3852POPC   GL249946   9.054  19.170   5.851
 3852POPC   C1A49947   8.760  19.005   6.213
 3852POPC   D2A49948   8.723  19.239   6.548
 3852POPC   C3A49949   8.665  19.078   6.933
 3852POPC   C4A49950   8.813  19.047   7.374
 3852POPC   C1B49951   9.285  19.277   6.199
 3852POPC   C2B49952   9.224  19.102   6.583
 3852POPC   C3B49953   9.169  19.056   6.992
 3852POPC   C4B49954   9.335  19.118   7.369
 3853POPC   NC349955  13.637  34.464   5.371
 3853POPC   PO449956  14.023  34.991   5.384
 3853POPC   GL149957  13.768  34.794   5.765
 3853POPC   GL249958  13.534  34.496   5.863
 3853POPC   C1A49959  13.805  34.784   6.232
 3853POPC   D2A49960  14.000  34.932   6.639
 3853POPC   C3A49961  13.864  34.750   7.026
 3853POPC   C4A49962  13.482  34.771   7.273
 3853POPC   C1B49963  13.315  34.579   6.260
 3853POPC   C2B49964  13.423  34.569   6.709
 3853POPC   C3B49965  13.212  34.333   7.031
 3853POPC   C4B49966  13.247  34.354   7.482
 3854POPC   NC349967   6.876   3.252   5.237
 3854POPC   PO449968   6.394   2.798   5.458
 3854POPC   GL149969   6.611   2.853   5.836
 3854POPC   GL249970   6.959   2.787   5.829
 3854POPC   C1A49971   6.678   2.699   6.245
 3854POPC   D2A49972   6.775   2.450   6.555
 3854POPC   C3A49973   6.697   2.619   6.912
 3854POPC   C4A49974   6.609   2.643   7.316
 3854POPC   C1B49975   7.190   2.858   6.182
 3854POPC   C2B49976   7.113   2.989   6.584
 3854POPC   C3B49977   7.155   2.895   6.998
 3854POPC   C4B49978   6.992   2.960   7.450
 3855POPC   NC349979  41.992  41.534   5.197
 3855POPC   PO449980  42.328  42.005   5.434
 3855POPC   GL149981  42.231  41.626   5.725
 3855POPC   GL249982  42.519  41.561   5.967
 3855POPC   C1A49983  42.071  41.678   6.175
 3855POPC   D2A49984  42.281  41.539   6.540
 3855POPC   C3A49985  42.128  41.561   6.959
 3855POPC   C4A49986  42.265  41.625   7.370
 3855POPC   C1B49987  42.599  41.204   6.278
 3855POPC   C2B49988  42.563  41.142   6.721
 3855POPC   C3B49989  42.613  41.386   7.080
 3855POPC   C4B49990  42.784  41.119   7.352
 3856POPC   NC349991  40.515  14.036   5.500
 3856POPC   PO449992  39.896  13.753   5.698
 3856POPC   GL149993  40.269  13.809   5.902
 3856POPC   GL249994  40.230  14.158   5.915
 3856POPC   C1A49995  40.347  13.590   6.275
 3856POPC   D2A49996  39.956  13.522   6.552
 3856POPC   C3A49997  39.951  13.398   6.995
 3856POPC   C4A49998  40.117  13.525   7.396
 3856POPC   C1B49999  40.178  14.071   6.356
 3856POPC   C2B50000  40.451  13.900   6.674
 3856POPC   C3B50001  40.279  13.835   7.035
 3856POPC   C4B50002  39.860  13.910   7.139
 3857POPC   NC350003  13.404  20.107   5.459
 3857POPC   PO450004  14.031  19.843   5.476
 3857POPC   GL150005  13.855  19.993   5.856
 3857POPC   GL250006  13.571  19.795   5.833
 3857POPC   C1A50007  13.599  20.082   6.244
 3857POPC   D2A50008  13.714  20.155   6.651
 3857POPC   C3A50009  13.619  19.902   6.981
 3857POPC   C4A50010  13.297  19.879   7.243
 3857POPC   C1B50011  13.717  19.590   6.204
 3857POPC   C2B50012  13.889  19.641   6.602
 3857POPC   C3B50013  13.888  19.427   6.992
 3857POPC   C4B50014  13.666  19.545   7.372
 3858POPC   NC350015  40.390   0.901   5.487
 3858POPC   PO450016  41.027   1.106   5.184
 3858POPC   GL150017  40.960   1.181   5.692
 3858POPC   GL250018  40.603   1.295   5.795
 3858POPC   C1A50019  40.951   1.294   6.188
 3858POPC   D2A50020  40.665   1.261   6.550
 3858POPC   C3A50021  40.617   1.413   6.990
 3858POPC   C4A50022  40.886   1.247   7.306
 3858POPC   C1B50023  40.586   0.950   6.126
 3858POPC   C2B50024  40.489   0.765   6.563
 3858POPC   C3B50025  40.520   0.906   6.972
 3858POPC   C4B50026  40.701   0.770   7.366
 3859POPC   NC350027  12.873  41.027   5.406
 3859POPC   PO450028  13.091  40.488   5.651
 3859POPC   GL150029  12.845  40.802   5.880
 3859POPC   GL250030  13.028  41.155   5.883
 3859POPC   C1A50031  12.742  40.644   6.287
 3859POPC   D2A50032  12.810  40.360   6.644
 3859POPC   C3A50033  12.647  40.651   6.946
 3859POPC   C4A50034  12.830  40.737   7.314
 3859POPC   C1B50035  13.298  40.897   6.170
 3859POPC   C2B50036  13.213  40.665   6.552
 3859POPC   C3B50037  13.162  40.897   6.942
 3859POPC   C4B50038  12.929  41.227   7.152
 3860POPC   NC350039   5.694  23.351   5.446
 3860POPC   PO450040   6.151  22.910   5.446
 3860POPC   GL150041   6.150  22.953   5.864
 3860POPC   GL250042   6.017  23.277   5.860
 3860POPC   C1A50043   6.270  22.741   6.245
 3860POPC   D2A50044   6.098  22.609   6.627
 3860POPC   C3A50045   5.985  22.954   6.855
 3860POPC   C4A50046   6.132  22.883   7.249
 3860POPC   C1B50047   5.903  23.118   6.287
 3860POPC   C2B50048   5.604  23.250   6.575
 3860POPC   C3B50049   5.493  23.114   6.958
 3860POPC   C4B50050   5.694  23.091   7.292
 3861POPC   NC350051  11.979  11.195   5.428
 3861POPC   PO450052  12.502  11.531   5.542
 3861POPC   GL150053  12.141  11.482   5.876
 3861POPC   GL250054  11.945  11.129   5.929
 3861POPC   C1A50055  11.773  11.539   6.166
 3861POPC   D2A50056  11.659  11.260   6.508
 3861POPC   C3A50057  11.823  11.393   6.899
 3861POPC   C4A50058  12.056  11.504   7.261
 3861POPC   C1B50059  12.297  11.069   6.200
 3861POPC   C2B50060  12.407  11.063   6.626
 3861POPC   C3B50061  12.277  11.028   7.035
 3861POPC   C4B50062  12.484  10.743   7.253
 3862POPC   NC350063   6.319  17.333   5.517
 3862POPC   PO450064   6.882  17.675   5.581
 3862POPC   GL150065   6.587  17.573   5.903
 3862POPC   GL250066   6.299  17.781   5.989
 3862POPC   C1A50067   6.681  17.669   6.347
 3862POPC   D2A50068   7.004  17.687   6.658
 3862POPC   C3A50069   6.862  17.503   6.999
 3862POPC   C4A50070   6.638  17.453   7.324
 3862POPC   C1B50071   6.228  17.455   6.278
 3862POPC   C2B50072   6.373  17.369   6.699
 3862POPC   C3B50073   6.202  17.298   7.109
 3862POPC   C4B50074   6.276  17.268   7.598
 3863POPC   NC350075   8.038  15.991   5.543
 3863POPC   PO450076   8.564  15.585   5.547
 3863POPC   GL150077   8.481  15.952   5.828
 3863POPC   GL250078   8.531  15.710   6.053
 3863POPC   C1A50079   8.313  16.208   6.222
 3863POPC   D2A50080   8.374  16.401   6.656
 3863POPC   C3A50081   8.169  16.225   7.065
 3863POPC   C4A50082   8.344  15.873   7.371
 3863POPC   C1B50083   8.102  15.736   6.234
 3863POPC   C2B50084   8.015  15.958   6.628
 3863POPC   C3B50085   7.884  15.820   7.043
 3863POPC   C4B50086   7.910  15.601   7.429
 3864POPC   NC350087  40.160  34.251   5.257
 3864POPC   PO450088  39.899  33.560   5.478
 3864POPC   GL150089  40.029  33.692   5.862
 3864POPC   GL250090  40.348  33.769   5.806
 3864POPC   C1A50091  40.078  33.790   6.298
 3864POPC   D2A50092  40.303  33.960   6.642
 3864POPC   C3A50093  40.033  34.015   7.008
 3864POPC   C4A50094  40.234  33.942   7.400
 3864POPC   C1B50095  40.429  33.447   6.154
 3864POPC   C2B50096  40.344  33.420   6.608
 3864POPC   C3B50097  40.275  33.563   7.034
 3864POPC   C4B50098  40.251  33.409   7.477
 3865POPC   NC350099  37.942   3.045   5.293
 3865POPC   PO450100  37.347   2.776   5.536
 3865POPC   GL150101  37.525   2.673   5.913
 3865POPC   GL250102  37.559   2.988   6.086
 3865POPC   C1A50103  37.702   2.546   6.298
 3865POPC   D2A50104  37.625   2.790   6.640
 3865POPC   C3A50105  37.676   2.538   6.968
 3865POPC   C4A50106  37.828   2.508   7.360
 3865POPC   C1B50107  37.930   3.120   6.336
 3865POPC   C2B50108  38.007   3.132   6.779
 3865POPC   C3B50109  37.947   2.936   7.136
 3865POPC   C4B50110  38.073   2.933   7.568
 3866POPC   NC350111   0.036  19.130   5.385
 3866POPC   PO450112  44.423  19.294   5.365
 3866POPC   GL150113  44.605  19.236   5.786
 3866POPC   GL250114  44.915  19.449   5.781
 3866POPC   C1A50115  44.414  19.245   6.231
 3866POPC   D2A50116  44.389  18.966   6.614
 3866POPC   C3A50117  44.592  19.070   7.003
 3866POPC   C4A50118  44.746  19.184   7.402
 3866POPC   C1B50119  44.958  19.319   6.189
 3866POPC   C2B50120  44.798  19.315   6.591
 3866POPC   C3B50121   0.016  19.395   6.973
 3866POPC   C4B50122   0.189  19.415   7.381
 3867POPC   NC350123  28.169  12.769   5.218
 3867POPC   PO450124  28.627  13.257   5.513
 3867POPC   GL150125  28.516  12.881   5.835
 3867POPC   GL250126  28.151  12.725   5.820
 3867POPC   C1A50127  28.494  12.824   6.266
 3867POPC   D2A50128  28.488  13.072   6.636
 3867POPC   C3A50129  28.421  12.884   7.031
 3867POPC   C4A50130  28.310  12.456   7.196
 3867POPC   C1B50131  27.967  12.891   6.221
 3867POPC   C2B50132  27.933  12.767   6.663
 3867POPC   C3B50133  27.921  12.798   7.115
 3867POPC   C4B50134  28.104  13.101   7.381
 3868POPC   NC350135  11.813  42.188   5.124
 3868POPC   PO450136  11.222  42.097   5.422
 3868POPC   GL150137  11.223  42.248   5.842
 3868POPC   GL250138  10.895  42.391   5.825
 3868POPC   C1A50139  11.444  42.283   6.250
 3868POPC   D2A50140  11.647  42.410   6.656
 3868POPC   C3A50141  11.500  42.232   7.069
 3868POPC   C4A50142  11.544  42.370   7.532
 3868POPC   C1B50143  10.951  42.490   6.243
 3868POPC   C2B50144  11.055  42.295   6.623
 3868POPC   C3B50145  11.001  42.467   7.017
 3868POPC   C4B50146  11.087  42.246   7.371
 3869POPC   NC350147  21.459  42.475   5.407
 3869POPC   PO450148  21.062  42.045   5.461
 3869POPC   GL150149  21.149  42.372   5.794
 3869POPC   GL250150  21.534  42.379   5.889
 3869POPC   C1A50151  21.154  42.420   6.222
 3869POPC   D2A50152  21.392  42.322   6.577
 3869POPC   C3A50153  21.251  42.477   6.966
 3869POPC   C4A50154  21.421  42.188   7.260
 3869POPC   C1B50155  21.573  42.714   6.165
 3869POPC   C2B50156  21.386  42.825   6.559
 3869POPC   C3B50157  21.710  42.669   6.851
 3869POPC   C4B50158  21.642  42.638   7.305
 3870POPC   NC350159   8.727  21.807   5.515
 3870POPC   PO450160   9.177  21.291   5.471
 3870POPC   GL150161   9.011  21.356   5.858
 3870POPC   GL250162   9.131  21.695   5.930
 3870POPC   C1A50163   8.801  21.445   6.245
 3870POPC   D2A50164   8.966  21.572   6.631
 3870POPC   C3A50165   8.802  21.549   7.009
 3870POPC   C4A50166   8.718  21.250   7.292
 3870POPC   C1B50167   9.319  21.437   6.287
 3870POPC   C2B50168   9.485  21.312   6.691
 3870POPC   C3B50169   9.329  21.590   6.992
 3870POPC   C4B50170   9.115  21.825   7.313
 3871POPC   NC350171  26.475  29.246   5.574
 3871POPC   PO450172  26.139  28.707   5.238
 3871POPC   GL150173  25.982  28.753   5.684
 3871POPC   GL250174  26.252  28.867   5.875
 3871POPC   C1A50175  25.842  28.764   6.174
 3871POPC   D2A50176  25.854  29.017   6.613
 3871POPC   C3A50177  26.119  29.019   6.987
 3871POPC   C4A50178  26.015  29.345   7.255
 3871POPC   C1B50179  26.159  29.162   6.214
 3871POPC   C2B50180  26.298  29.291   6.609
 3871POPC   C3B50181  26.433  29.444   6.997
 3871POPC   C4B50182  26.538  29.428   7.390
 3872POPC   NC350183  30.924   5.430   5.599
 3872POPC   PO450184  30.689   4.825   5.408
 3872POPC   GL150185  30.556   4.852   5.870
 3872POPC   GL250186  30.783   5.087   5.916
 3872POPC   C1A50187  30.659   4.959   6.360
 3872POPC   D2A50188  30.490   5.321   6.632
 3872POPC   C3A50189  30.321   5.221   7.041
 3872POPC   C4A50190  30.609   4.985   7.253
 3872POPC   C1B50191  30.882   5.400   6.255
 3872POPC   C2B50192  31.033   5.334   6.664
 3872POPC   C3B50193  31.022   5.476   7.093
 3872POPC   C4B50194  30.946   5.290   7.531
 3873POPC   NC350195  38.864   3.017   5.596
 3873POPC   PO450196  38.307   2.736   5.259
 3873POPC   GL150197  38.476   2.663   5.701
 3873POPC   GL250198  38.404   2.993   5.820
 3873POPC   C1A50199  38.430   2.669   6.201
 3873POPC   D2A50200  38.141   2.683   6.562
 3873POPC   C3A50201  38.232   2.529   6.966
 3873POPC   C4A50202  38.423   2.610   7.343
 3873POPC   C1B50203  38.632   3.162   6.186
 3873POPC   C2B50204  38.506   3.099   6.604
 3873POPC   C3B50205  38.447   3.004   7.037
 3873POPC   C4B50206  38.594   3.069   7.495
 3874POPC   NC350207  20.559  23.284   5.433
 3874POPC   PO450208  20.494  24.032   5.506
 3874POPC   GL150209  20.388  23.847   5.908
 3874POPC   GL250210  20.402  23.512   5.858
 3874POPC   C1A50211  20.586  23.857   6.325
 3874POPC   D2A50212  20.660  23.962   6.755
 3874POPC   C3A50213  20.480  23.721   7.086
 3874POPC   C4A50214  20.879  23.632   7.174
 3874POPC   C1B50215  20.513  23.297   6.219
 3874POPC   C2B50216  20.478  23.418   6.641
 3874POPC   C3B50217  20.563  23.225   7.028
 3874POPC   C4B50218  20.470  23.264   7.475
 3875POPC   NC350219  17.438  32.982   5.268
 3875POPC   PO450220  17.971  33.227   5.151
 3875POPC   GL150221  17.782  33.167   5.643
 3875POPC   GL250222  17.572  32.860   5.773
 3875POPC   C1A50223  17.774  33.326   6.137
 3875POPC   D2A50224  17.666  33.571   6.553
 3875POPC   C3A50225  17.564  33.406   6.959
 3875POPC   C4A50226  17.839  33.283   7.304
 3875POPC   C1B50227  17.386  33.014   6.182
 3875POPC   C2B50228  17.542  33.070   6.581
 3875POPC   C3B50229  17.494  32.904   7.001
 3875POPC   C4B50230  17.183  32.917   7.312
 3876POPC   NC350231  36.789  44.940   5.474
 3876POPC   PO450232  36.973  44.381   5.349
 3876POPC   GL150233  36.719  44.476   5.767
 3876POPC   GL250234  36.892  44.737   5.927
 3876POPC   C1A50235  36.499  44.600   6.196
 3876POPC   D2A50236  36.674  44.520   6.623
 3876POPC   C3A50237  36.494  44.583   7.028
 3876POPC   C4A50238  36.673  44.779   7.368
 3876POPC   C1B50239  36.745   0.085   6.201
 3876POPC   C2B50240  36.665   0.036   6.649
 3876POPC   C3B50241  36.953  44.845   6.949
 3876POPC   C4B50242  37.186  44.957   7.323
 3877POPC   NC350243  17.660   9.390   5.367
 3877POPC   PO450244  17.350   8.890   5.142
 3877POPC   GL150245  17.419   8.990   5.641
 3877POPC   GL250246  17.519   9.317   5.838
 3877POPC   C1A50247  17.627   8.888   6.089
 3877POPC   D2A50248  17.634   9.117   6.504
 3877POPC   C3A50249  17.713   8.850   6.865
 3877POPC   C4A50250  17.552   8.792   7.304
 3877POPC   C1B50251  17.212   9.200   6.145
 3877POPC   C2B50252  17.131   9.291   6.564
 3877POPC   C3B50253  17.305   9.164   6.966
 3877POPC   C4B50254  17.263   9.335   7.363
 3878POPC   NC350255  44.583   7.843   5.408
 3878POPC   PO450256  44.684   8.422   5.537
 3878POPC   GL150257  44.492   8.174   5.808
 3878POPC   GL250258  44.351   8.451   5.976
 3878POPC   C1A50259  44.516   8.026   6.241
 3878POPC   D2A50260  44.607   8.330   6.527
 3878POPC   C3A50261  44.743   8.268   6.936
 3878POPC   C4A50262  44.926   8.275   7.328
 3878POPC   C1B50263  44.126   8.371   6.353
 3878POPC   C2B50264  44.139   7.995   6.636
 3878POPC   C3B50265  44.261   8.073   7.052
 3878POPC   C4B50266  44.292   8.519   7.088
 3879POPC   NC350267  14.859  27.052   5.487
 3879POPC   PO450268  15.409  26.580   5.556
 3879POPC   GL150269  15.222  26.857   5.874
 3879POPC   GL250270  15.465  27.128   5.959
 3879POPC   C1A50271  15.267  26.856   6.347
 3879POPC   D2A50272  15.550  26.825   6.694
 3879POPC   C3A50273  15.306  26.740   7.042
 3879POPC   C4A50274  14.950  26.761   7.347
 3879POPC   C1B50275  15.079  27.282   6.170
 3879POPC   C2B50276  14.886  27.227   6.563
 3879POPC   C3B50277  14.923  27.089   6.959
 3879POPC   C4B50278  14.926  27.272   7.335
 3880POPC   NC350279  41.260  20.153   5.509
 3880POPC   PO450280  41.291  20.797   5.387
 3880POPC   GL150281  41.462  20.861   5.832
 3880POPC   GL250282  41.846  20.781   5.935
 3880POPC   C1A50283  41.452  20.769   6.250
 3880POPC   D2A50284  41.453  20.522   6.592
 3880POPC   C3A50285  41.276  20.681   6.981
 3880POPC   C4A50286  41.452  20.680   7.391
 3880POPC   C1B50287  41.965  20.765   6.376
 3880POPC   C2B50288  42.123  20.922   6.779
 3880POPC   C3B50289  42.092  20.698   7.196
 3880POPC   C4B50290  41.896  20.265   7.256
 3881POPC   NC350291  41.714  37.659   5.305
 3881POPC   PO450292  41.139  37.324   5.605
 3881POPC   GL150293  41.537  37.547   5.787
 3881POPC   GL250294  41.323  37.502   6.061
 3881POPC   C1A50295  41.695  37.795   6.172
 3881POPC   D2A50296  41.411  37.766   6.552
 3881POPC   C3A50297  41.487  37.903   6.974
 3881POPC   C4A50298  41.688  37.760   7.347
 3881POPC   C1B50299  41.369  37.215   6.368
 3881POPC   C2B50300  41.480  37.115   6.763
 3881POPC   C3B50301  41.437  37.318   7.166
 3881POPC   C4B50302  41.164  37.646   7.291
 3882POPC   NC350303  17.530  27.975   5.614
 3882POPC   PO450304  17.703  28.518   5.304
 3882POPC   GL150305  17.518  28.501   5.711
 3882POPC   GL250306  17.231  28.325   5.855
 3882POPC   C1A50307  17.627  28.454   6.153
 3882POPC   D2A50308  17.838  28.292   6.535
 3882POPC   C3A50309  17.709  28.530   6.898
 3882POPC   C4A50310  17.341  28.568   7.130
 3882POPC   C1B50311  17.272  28.123   6.296
 3882POPC   C2B50312  17.327  28.270   6.679
 3882POPC   C3B50313  17.482  28.091   7.034
 3882POPC   C4B50314  17.278  28.144   7.444
 3883POPC   NC350315  33.365  21.276   5.128
 3883POPC   PO450316  33.874  21.590   5.413
 3883POPC   GL150317  33.841  21.292   5.714
 3883POPC   GL250318  33.493  21.165   5.686
 3883POPC   C1A50319  34.013  21.218   6.123
 3883POPC   D2A50320  33.797  21.123   6.509
 3883POPC   C3A50321  33.793  21.390   6.866
 3883POPC   C4A50322  33.935  21.331   7.280
 3883POPC   C1B50323  33.519  21.381   6.113
 3883POPC   C2B50324  33.501  21.621   6.493
 3883POPC   C3B50325  33.296  21.518   6.880
 3883POPC   C4B50326  33.386  21.331   7.260
 3884POPC   NC350327  30.094   0.734   5.515
 3884POPC   PO450328  29.623   1.217   5.365
 3884POPC   GL150329  29.855   1.135   5.717
 3884POPC   GL250330  29.732   0.833   5.864
 3884POPC   C1A50331  30.082   1.263   6.081
 3884POPC   D2A50332  29.996   1.431   6.488
 3884POPC   C3A50333  30.015   1.179   6.823
 3884POPC   C4A50334  29.902   1.260   7.220
 3884POPC   C1B50335  29.966   0.804   6.288
 3884POPC   C2B50336  30.070   0.686   6.716
 3884POPC   C3B50337  30.008   0.758   7.143
 3884POPC   C4B50338  29.817   0.891   7.567
 3885POPC   NC350339  36.655  44.059   5.446
 3885POPC   PO450340  36.033  43.784   5.515
 3885POPC   GL150341  36.053  43.929   5.961
 3885POPC   GL250342  36.401  44.099   5.988
 3885POPC   C1A50343  35.876  43.871   6.402
 3885POPC   D2A50344  36.088  43.741   6.810
 3885POPC   C3A50345  35.942  43.775   7.228
 3885POPC   C4A50346  35.692  43.974   7.526
 3885POPC   C1B50347  36.446  43.912   6.412
 3885POPC   C2B50348  36.452  44.097   6.831
 3885POPC   C3B50349  36.457  43.858   7.211
 3885POPC   C4B50350  36.321  43.580   7.532
 3886POPC   NC350351   7.188  17.282   5.064
 3886POPC   PO450352   7.465  16.787   5.475
 3886POPC   GL150353   7.308  16.739   5.859
 3886POPC   GL250354   6.951  16.712   5.849
 3886POPC   C1A50355   7.476  16.724   6.246
 3886POPC   D2A50356   7.569  16.870   6.634
 3886POPC   C3A50357   7.243  16.920   6.937
 3886POPC   C4A50358   7.310  16.721   7.330
 3886POPC   C1B50359   7.047  16.463   6.225
 3886POPC   C2B50360   7.243  16.464   6.630
 3886POPC   C3B50361   7.062  16.407   7.013
 3886POPC   C4B50362   7.089  16.261   7.440
 3887POPC   NC350363  27.979   4.429   5.520
 3887POPC   PO450364  27.384   4.044   5.725
 3887POPC   GL150365  27.627   4.320   5.882
 3887POPC   GL250366  27.891   4.103   5.896
 3887POPC   C1A50367  27.743   4.524   6.218
 3887POPC   D2A50368  27.641   4.657   6.616
 3887POPC   C3A50369  27.917   4.581   6.920
 3887POPC   C4A50370  27.735   4.596   7.290
 3887POPC   C1B50371  28.013   4.041   6.282
 3887POPC   C2B50372  27.789   4.138   6.630
 3887POPC   C3B50373  27.576   4.198   6.987
 3887POPC   C4B50374  27.642   4.097   7.397
 3888POPC   NC350375  33.064  39.998   5.185
 3888POPC   PO450376  32.699  39.547   5.583
 3888POPC   GL150377  32.906  39.831   5.866
 3888POPC   GL250378  32.958  40.198   5.797
 3888POPC   C1A50379  33.024  39.730   6.280
 3888POPC   D2A50380  32.815  39.708   6.642
 3888POPC   C3A50381  33.019  39.898   6.941
 3888POPC   C4A50382  33.391  39.896   7.100
 3888POPC   C1B50383  32.777  40.180   6.234
 3888POPC   C2B50384  32.594  40.178   6.672
 3888POPC   C3B50385  32.520  39.879   7.026
 3888POPC   C4B50386  32.755  39.885   7.403
 3889POPC   NC350387  15.430  16.454   5.136
 3889POPC   PO450388  15.011  16.140   5.612
 3889POPC   GL150389  15.237  15.949   5.914
 3889POPC   GL250390  15.551  15.837   5.841
 3889POPC   C1A50391  15.121  16.023   6.292
 3889POPC   D2A50392  15.225  16.423   6.446
 3889POPC   C3A50393  15.233  16.409   6.865
 3889POPC   C4A50394  15.049  16.110   7.128
 3889POPC   C1B50395  15.635  15.969   6.265
 3889POPC   C2B50396  15.445  15.931   6.665
 3889POPC   C3B50397  15.186  15.670   6.883
 3889POPC   C4B50398  15.301  15.685   7.299
 3890POPC   NC350399  36.169   7.276   5.415
 3890POPC   PO450400  36.374   7.908   5.438
 3890POPC   GL150401  36.361   7.600   5.796
 3890POPC   GL250402  35.986   7.512   5.834
 3890POPC   C1A50403  36.287   7.344   6.212
 3890POPC   D2A50404  36.079   7.243   6.629
 3890POPC   C3A50405  36.257   7.297   7.034
 3890POPC   C4A50406  36.342   7.551   7.382
 3890POPC   C1B50407  35.786   7.480   6.246
 3890POPC   C2B50408  35.849   7.707   6.633
 3890POPC   C3B50409  35.961   7.727   7.054
 3890POPC   C4B50410  35.733   7.431   7.256
 3891POPC   NC350411  20.430   7.747   5.425
 3891POPC   PO450412  20.790   7.140   5.374
 3891POPC   GL150413  20.774   7.353   5.785
 3891POPC   GL250414  20.438   7.469   5.851
 3891POPC   C1A50415  20.801   7.385   6.258
 3891POPC   D2A50416  21.004   7.348   6.684
 3891POPC   C3A50417  20.731   7.376   7.028
 3891POPC   C4A50418  20.772   7.474   7.467
 3891POPC   C1B50419  20.367   7.134   6.124
 3891POPC   C2B50420  20.368   7.248   6.553
 3891POPC   C3B50421  20.214   7.121   6.930
 3891POPC   C4B50422  20.291   7.366   7.267
 3892POPC   NC350423   0.019  43.179   5.380
 3892POPC   PO450424   0.525  42.777   5.318
 3892POPC   GL150425   0.485  42.967   5.751
 3892POPC   GL250426   0.268  43.258   5.811
 3892POPC   C1A50427   0.628  43.001   6.200
 3892POPC   D2A50428   0.500  42.730   6.543
 3892POPC   C3A50429   0.587  42.830   6.952
 3892POPC   C4A50430   0.449  42.900   7.346
 3892POPC   C1B50431   0.305  43.414   6.223
 3892POPC   C2B50432   0.554  43.401   6.613
 3892POPC   C3B50433   0.446  43.331   7.046
 3892POPC   C4B50434   0.106  43.305   7.364
 3893POPC   NC350435  41.564  30.325   5.492
 3893POPC   PO450436  41.893  30.867   5.345
 3893POPC   GL150437  41.895  30.571   5.758
 3893POPC   GL250438  41.547  30.683   5.899
 3893POPC   C1A50439  41.811  30.353   6.184
 3893POPC   D2A50440  41.508  30.530   6.493
 3893POPC   C3A50441  41.511  30.564   6.959
 3893POPC   C4A50442  41.432  30.602   7.426
 3893POPC   C1B50443  41.417  30.975   6.268
 3893POPC   C2B50444  41.281  30.969   6.718
 3893POPC   C3B50445  41.513  31.051   7.125
 3893POPC   C4B50446  41.481  31.110   7.588
 3894POPC   NC350447  16.022  10.940   5.357
 3894POPC   PO450448  15.777  11.515   5.289
 3894POPC   GL150449  15.903  11.450   5.747
 3894POPC   GL250450  16.125  11.150   5.819
 3894POPC   C1A50451  15.793  11.344   6.196
 3894POPC   D2A50452  15.837  11.119   6.601
 3894POPC   C3A50453  15.898  11.439   6.893
 3894POPC   C4A50454  15.673  11.599   7.246
 3894POPC   C1B50455  16.146  10.943   6.218
 3894POPC   C2B50456  16.272  10.821   6.640
 3894POPC   C3B50457  16.138  10.962   7.063
 3894POPC   C4B50458  15.704  11.048   7.150
 3895POPC   NC350459   7.148  21.540   5.419
 3895POPC   PO450460   7.506  20.966   5.537
 3895POPC   GL150461   7.237  21.182   5.865
 3895POPC   GL250462   7.339  21.533   5.897
 3895POPC   C1A50463   7.196  21.110   6.334
 3895POPC   D2A50464   7.516  21.014   6.651
 3895POPC   C3A50465   7.390  21.105   7.071
 3895POPC   C4A50466   7.564  21.313   7.433
 3895POPC   C1B50467   7.443  21.565   6.328
 3895POPC   C2B50468   7.328  21.494   6.748
 3895POPC   C3B50469   7.518  21.676   7.093
 3895POPC   C4B50470   7.415  21.920   7.464
 3896POPC   NC350471  10.620  36.917   5.304
 3896POPC   PO450472  10.100  37.374   5.302
 3896POPC   GL150473  10.328  37.133   5.723
 3896POPC   GL250474  10.667  36.945   5.797
 3896POPC   C1A50475  10.349  36.971   6.205
 3896POPC   D2A50476  10.242  36.766   6.617
 3896POPC   C3A50477  10.286  36.910   7.048
 3896POPC   C4A50478  10.415  36.522   7.176
 3896POPC   C1B50479  10.878  36.872   6.186
 3896POPC   C2B50480  10.774  36.643   6.539
 3896POPC   C3B50481  10.873  36.618   6.964
 3896POPC   C4B50482  10.779  36.907   7.271
 3897POPC   NC350483  19.557  35.719   5.432
 3897POPC   PO450484  20.112  36.181   5.459
 3897POPC   GL150485  19.982  36.155   5.893
 3897POPC   GL250486  19.900  35.837   5.793
 3897POPC   C1A50487  19.823  36.404   6.265
 3897POPC   D2A50488  19.691  36.534   6.687
 3897POPC   C3A50489  19.847  36.276   7.028
 3897POPC   C4A50490  19.774  36.306   7.489
 3897POPC   C1B50491  19.694  35.772   6.191
 3897POPC   C2B50492  19.739  35.966   6.624
 3897POPC   C3B50493  19.679  35.792   7.071
 3897POPC   C4B50494  19.745  35.816   7.563
 3898POPC   NC350495  38.740  35.166   5.492
 3898POPC   PO450496  38.200  35.673   5.357
 3898POPC   GL150497  38.366  35.466   5.728
 3898POPC   GL250498  38.237  35.117   5.711
 3898POPC   C1A50499  38.539  35.511   6.160
 3898POPC   D2A50500  38.303  35.483   6.546
 3898POPC   C3A50501  38.448  35.571   6.958
 3898POPC   C4A50502  38.663  35.376   7.268
 3898POPC   C1B50503  38.434  34.993   6.082
 3898POPC   C2B50504  38.601  35.043   6.449
 3898POPC   C3B50505  38.466  35.067   6.871
 3898POPC   C4B50506  38.380  34.908   7.264
 3899POPC   NC350507  41.301   9.829   5.522
 3899POPC   PO450508  41.974   9.942   5.403
 3899POPC   GL150509  41.780   9.714   5.740
 3899POPC   GL250510  41.679  10.017   5.903
 3899POPC   C1A50511  41.579   9.588   6.167
 3899POPC   D2A50512  41.679   9.401   6.589
 3899POPC   C3A50513  41.687   9.587   7.001
 3899POPC   C4A50514  41.322   9.561   7.271
 3899POPC   C1B50515  41.312  10.052   6.187
 3899POPC   C2B50516  41.143  10.011   6.622
 3899POPC   C3B50517  41.308  10.024   7.048
 3899POPC   C4B50518  41.667  10.000   7.307
 3900POPC   NC350519  20.882  12.186   5.399
 3900POPC   PO450520  20.257  11.825   5.474
 3900POPC   GL150521  20.594  11.898   5.774
 3900POPC   GL250522  20.646  12.251   5.839
 3900POPC   C1A50523  20.588  11.956   6.234
 3900POPC   D2A50524  20.367  12.041   6.610
 3900POPC   C3A50525  20.649  11.974   6.925
 3900POPC   C4A50526  20.701  11.635   7.169
 3900POPC   C1B50527  20.937  12.365   6.169
 3900POPC   C2B50528  20.837  12.295   6.560
 3900POPC   C3B50529  20.585  12.489   6.827
 3900POPC   C4B50530  20.631  12.379   7.237
 3901POPC   NC350531  41.472   5.469   5.475
 3901POPC   PO450532  41.913   4.939   5.437
 3901POPC   GL150533  41.600   4.859   5.774
 3901POPC   GL250534  41.248   4.976   5.747
 3901POPC   C1A50535  41.466   4.899   6.216
 3901POPC   D2A50536  41.593   4.702   6.585
 3901POPC   C3A50537  41.559   4.960   6.908
 3901POPC   C4A50538  41.751   5.064   7.274
 3901POPC   C1B50539  41.236   5.323   6.081
 3901POPC   C2B50540  41.435   5.332   6.517
 3901POPC   C3B50541  41.390   5.461   6.950
 3901POPC   C4B50542  41.286   5.207   7.291
 3902POPC   NC350543  20.726   9.439   5.574
 3902POPC   PO450544  21.103   8.884   5.528
 3902POPC   GL150545  20.728   8.948   5.830
 3902POPC   GL250546  20.372   8.919   5.769
 3902POPC   C1A50547  20.476   9.191   6.165
 3902POPC   D2A50548  20.360   9.117   6.569
 3902POPC   C3A50549  20.635   8.856   6.764
 3902POPC   C4A50550  20.776   8.946   7.149
 3902POPC   C1B50551  20.128   8.797   6.169
 3902POPC   C2B50552  20.210   8.600   6.623
 3902POPC   C3B50553  20.263   8.682   7.099
 3902POPC   C4B50554  20.140   8.547   7.572
 3903POPC   NC350555  11.060   2.118   5.392
 3903POPC   PO450556  11.727   1.919   5.477
 3903POPC   GL150557  11.395   1.983   5.779
 3903POPC   GL250558  11.108   1.752   5.734
 3903POPC   C1A50559  11.455   2.089   6.212
 3903POPC   D2A50560  11.408   2.306   6.604
 3903POPC   C3A50561  11.593   2.024   6.883
 3903POPC   C4A50562  11.573   1.949   7.312
 3903POPC   C1B50563  10.968   1.913   6.127
 3903POPC   C2B50564  11.104   1.896   6.543
 3903POPC   C3B50565  11.057   2.068   6.917
 3903POPC   C4B50566  11.080   1.884   7.288
 3904POPC   NC350567  32.105  36.051   5.448
 3904POPC   PO450568  31.406  35.941   5.347
 3904POPC   GL150569  31.568  36.045   5.741
 3904POPC   GL250570  31.813  36.324   5.778
 3904POPC   C1A50571  31.375  36.043   6.142
 3904POPC   D2A50572  31.564  36.107   6.519
 3904POPC   C3A50573  31.413  36.032   6.896
 3904POPC   C4A50574  31.694  35.930   7.207
 3904POPC   C1B50575  31.682  36.458   6.161
 3904POPC   C2B50576  31.809  36.574   6.554
 3904POPC   C3B50577  31.912  36.299   6.877
 3904POPC   C4B50578  31.748  36.441   7.252
 3905POPC   NC350579  33.983  41.123   5.755
 3905POPC   PO450580  33.861  40.472   5.422
 3905POPC   GL150581  33.792  40.631   5.861
 3905POPC   GL250582  34.079  40.727   6.117
 3905POPC   C1A50583  33.626  40.633   6.303
 3905POPC   D2A50584  33.879  40.696   6.692
 3905POPC   C3A50585  33.652  40.896   7.012
 3905POPC   C4A50586  33.283  40.775   7.203
 3905POPC   C1B50587  34.358  41.040   6.337
 3905POPC   C2B50588  34.300  41.175   6.771
 3905POPC   C3B50589  34.166  40.879   7.125
 3905POPC   C4B50590  33.967  40.469   7.165
 3906POPC   NC350591  29.134  36.041   5.343
 3906POPC   PO450592  29.544  36.433   5.480
 3906POPC   GL150593  29.429  36.130   5.768
 3906POPC   GL250594  29.075  36.214   5.838
 3906POPC   C1A50595  29.393  36.020   6.201
 3906POPC   D2A50596  29.162  36.122   6.573
 3906POPC   C3A50597  29.338  35.989   6.960
 3906POPC   C4A50598  29.046  35.847   7.242
 3906POPC   C1B50599  29.205  36.501   6.193
 3906POPC   C2B50600  29.154  36.657   6.630
 3906POPC   C3B50601  28.998  36.417   6.993
 3906POPC   C4B50602  28.762  36.468   7.388
 3907POPC   NC350603  44.028  19.036   5.439
 3907POPC   PO450604  43.545  18.643   5.654
 3907POPC   GL150605  43.851  18.861   5.889
 3907POPC   GL250606  43.888  19.211   5.903
 3907POPC   C1A50607  44.007  18.864   6.291
 3907POPC   D2A50608  43.815  18.835   6.700
 3907POPC   C3A50609  44.058  19.013   7.012
 3907POPC   C4A50610  44.248  18.795   7.313
 3907POPC   C1B50611  43.583  19.157   6.245
 3907POPC   C2B50612  43.453  19.235   6.651
 3907POPC   C3B50613  43.535  19.163   7.052
 3907POPC   C4B50614  43.784  19.331   7.319
 3908POPC   NC350615  10.017  10.302   5.205
 3908POPC   PO450616   9.633  10.839   5.245
 3908POPC   GL150617   9.816  10.678   5.681
 3908POPC   GL250618   9.869  10.304   5.695
 3908POPC   C1A50619   9.802  10.750   6.154
 3908POPC   D2A50620   9.616  10.911   6.562
 3908POPC   C3A50621   9.758  10.705   6.961
 3908POPC   C4A50622   9.460  10.485   7.270
 3908POPC   C1B50623   9.843  10.227   6.138
 3908POPC   C2B50624   9.746  10.390   6.550
 3908POPC   C3B50625   9.734  10.192   6.968
 3908POPC   C4B50626   9.964  10.176   7.348
 3909POPC   NC350627  12.975   4.521   5.510
 3909POPC   PO450628  12.635   5.104   5.247
 3909POPC   GL150629  12.778   4.967   5.675
 3909POPC   GL250630  12.576   4.690   5.798
 3909POPC   C1A50631  12.917   5.073   6.095
 3909POPC   D2A50632  12.791   5.073   6.521
 3909POPC   C3A50633  12.948   5.307   6.820
 3909POPC   C4A50634  12.998   5.237   7.225
 3909POPC   C1B50635  12.314   4.733   6.153
 3909POPC   C2B50636  12.296   4.920   6.546
 3909POPC   C3B50637  12.512   4.918   6.930
 3909POPC   C4B50638  12.299   4.782   7.271
 3910POPC   NC350639   3.889  39.463   5.430
 3910POPC   PO450640   3.523  38.877   5.457
 3910POPC   GL150641   3.540  39.274   5.790
 3910POPC   GL250642   3.736  39.624   5.881
 3910POPC   C1A50643   3.498  39.350   6.253
 3910POPC   D2A50644   3.548  39.075   6.602
 3910POPC   C3A50645   3.476  39.242   7.007
 3910POPC   C4A50646   3.542  38.985   7.338
 3910POPC   C1B50647   3.984  39.546   6.281
 3910POPC   C2B50648   3.921  39.450   6.754
 3910POPC   C3B50649   3.752  39.674   7.140
 3910POPC   C4B50650   3.853  39.697   7.598
 3911POPC   NC350651  32.868  44.354   5.512
 3911POPC   PO450652  32.792   0.024   5.582
 3911POPC   GL150653  33.009  44.710   5.862
 3911POPC   GL250654  33.237  44.417   5.844
 3911POPC   C1A50655  32.866  44.497   6.235
 3911POPC   D2A50656  32.841  44.734   6.610
 3911POPC   C3A50657  32.961  44.604   7.016
 3911POPC   C4A50658  32.747  44.618   7.398
 3911POPC   C1B50659  33.303  44.185   6.210
 3911POPC   C2B50660  33.351  44.080   6.627
 3911POPC   C3B50661  33.287  44.182   7.050
 3911POPC   C4B50662  33.224  44.434   7.424
 3912POPC   NC350663   3.386   6.158   5.362
 3912POPC   PO450664   3.788   5.655   5.286
 3912POPC   GL150665   3.608   5.802   5.700
 3912POPC   GL250666   3.712   6.106   5.792
 3912POPC   C1A50667   3.358   5.831   6.107
 3912POPC   D2A50668   3.279   5.666   6.533
 3912POPC   C3A50669   3.390   5.910   6.896
 3912POPC   C4A50670   3.211   6.076   7.231
 3912POPC   C1B50671   3.878   6.321   6.180
 3912POPC   C2B50672   3.849   6.213   6.624
 3912POPC   C3B50673   4.009   6.314   7.032
 3912POPC   C4B50674   3.867   6.238   7.420
 3913POPC   NC350675   5.830  29.464   5.626
 3913POPC   PO450676   6.173  28.892   5.625
 3913POPC   GL150677   5.940  29.066   5.952
 3913POPC   GL250678   5.590  29.011   5.841
 3913POPC   C1A50679   5.689  29.296   6.262
 3913POPC   D2A50680   5.530  29.258   6.671
 3913POPC   C3A50681   5.912  29.223   6.878
 3913POPC   C4A50682   6.038  29.575   7.115
 3913POPC   C1B50683   5.538  28.752   6.227
 3913POPC   C2B50684   5.739  28.776   6.641
 3913POPC   C3B50685   5.726  28.722   7.098
 3913POPC   C4B50686   5.734  28.830   7.559
 3914POPC   NC350687  39.500   6.432   5.472
 3914POPC   PO450688  38.813   6.514   5.576
 3914POPC   GL150689  39.134   6.516   5.869
 3914POPC   GL250690  39.137   6.885   5.895
 3914POPC   C1A50691  39.279   6.463   6.299
 3914POPC   D2A50692  39.100   6.563   6.692
 3914POPC   C3A50693  39.305   6.629   7.086
 3914POPC   C4A50694  39.226   6.394   7.445
 3914POPC   C1B50695  38.813   7.047   6.193
 3914POPC   C2B50696  38.663   6.991   6.591
 3914POPC   C3B50697  38.846   6.929   6.964
 3914POPC   C4B50698  38.922   6.796   7.370
 3915POPC   NC350699  15.733   8.213   5.443
 3915POPC   PO450700  16.231   7.914   5.596
 3915POPC   GL150701  15.984   8.014   5.972
 3915POPC   GL250702  15.675   8.197   5.943
 3915POPC   C1A50703  15.932   8.242   6.388
 3915POPC   D2A50704  15.994   8.536   6.741
 3915POPC   C3A50705  16.284   8.335   7.031
 3915POPC   C4A50706  16.254   7.878   7.138
 3915POPC   C1B50707  15.435   8.132   6.308
 3915POPC   C2B50708  15.388   8.031   6.723
 3915POPC   C3B50709  15.496   8.166   7.118
 3915POPC   C4B50710  15.883   8.264   7.322
 3916POPC   NC350711   8.613  40.685   5.545
 3916POPC   PO450712   8.007  41.028   5.662
 3916POPC   GL150713   8.228  40.728   5.886
 3916POPC   GL250714   8.478  40.964   5.958
 3916POPC   C1A50715   8.404  40.578   6.281
 3916POPC   D2A50716   8.342  40.429   6.688
 3916POPC   C3A50717   8.455  40.652   7.032
 3916POPC   C4A50718   8.258  40.589   7.404
 3916POPC   C1B50719   8.141  41.017   6.305
 3916POPC   C2B50720   8.122  40.923   6.751
 3916POPC   C3B50721   8.037  41.037   7.190
 3916POPC   C4B50722   8.180  41.034   7.647
 3917POPC   NC350723  36.389  43.489   5.594
 3917POPC   PO450724  36.646  42.800   5.486
 3917POPC   GL150725  36.393  42.871   5.862
 3917POPC   GL250726  36.098  43.114   5.810
 3917POPC   C1A50727  36.293  43.011   6.291
 3917POPC   D2A50728  36.321  43.406   6.513
 3917POPC   C3A50729  36.332  43.318   6.975
 3917POPC   C4A50730  36.384  42.945   7.255
 3917POPC   C1B50731  35.922  43.414   6.128
 3917POPC   C2B50732  35.800  43.382   6.572
 3917POPC   C3B50733  35.851  43.130   6.919
 3917POPC   C4B50734  35.948  43.264   7.328
 3918POPC   NC350735  11.771   0.173   5.302
 3918POPC   PO450736  12.364   0.455   5.571
 3918POPC   GL150737  12.245   0.571   5.933
 3918POPC   GL250738  12.539   0.729   5.988
 3918POPC   C1A50739  12.003   0.465   6.301
 3918POPC   D2A50740  11.715   0.579   6.623
 3918POPC   C3A50741  11.864   0.353   7.019
 3918POPC   C4A50742  12.033   0.126   7.414
 3918POPC   C1B50743  12.536   0.404   6.330
 3918POPC   C2B50744  12.338   0.324   6.749
 3918POPC   C3B50745  12.310   0.552   7.138
 3918POPC   C4B50746  12.618   0.729   7.399
 3919POPC   NC350747  14.862   9.495   5.544
 3919POPC   PO450748  15.072  10.173   5.553
 3919POPC   GL150749  15.141   9.822   5.849
 3919POPC   GL250750  15.473   9.641   5.783
 3919POPC   C1A50751  14.903   9.660   6.221
 3919POPC   D2A50752  14.759   9.824   6.632
 3919POPC   C3A50753  15.099   9.969   6.869
 3919POPC   C4A50754  15.274   9.864   7.276
 3919POPC   C1B50755  15.418   9.535   6.215
 3919POPC   C2B50756  15.203   9.517   6.634
 3919POPC   C3B50757  15.103   9.411   7.082
 3919POPC   C4B50758  15.256   9.446   7.558
 3920POPC   NC350759  18.924   4.388   5.349
 3920POPC   PO450760  19.516   4.544   5.697
 3920POPC   GL150761  19.123   4.398   5.823
 3920POPC   GL250762  19.213   4.060   5.767
 3920POPC   C1A50763  18.909   4.192   6.184
 3920POPC   D2A50764  18.955   4.140   6.645
 3920POPC   C3A50765  18.911   4.494   6.964
 3920POPC   C4A50766  18.978   4.482   7.406
 3920POPC   C1B50767  19.464   3.964   6.156
 3920POPC   C2B50768  19.423   3.966   6.624
 3920POPC   C3B50769  19.367   4.186   7.040
 3920POPC   C4B50770  19.339   3.992   7.462
 3921POPC   NC350771  10.656   3.032   5.434
 3921POPC   PO450772  10.665   2.396   5.476
 3921POPC   GL150773  10.606   2.673   5.823
 3921POPC   GL250774  10.291   2.865   5.788
 3921POPC   C1A50775  10.586   2.762   6.265
 3921POPC   D2A50776  10.397   2.626   6.646
 3921POPC   C3A50777  10.638   2.779   6.981
 3921POPC   C4A50778  10.862   2.846   7.384
 3921POPC   C1B50779  10.083   2.893   6.186
 3921POPC   C2B50780  10.152   3.092   6.593
 3921POPC   C3B50781  10.118   2.888   7.007
 3921POPC   C4B50782  10.322   2.619   7.344
 3922POPC   NC350783  40.302  33.308   5.521
 3922POPC   PO450784  40.050  32.668   5.461
 3922POPC   GL150785  40.072  32.960   5.835
 3922POPC   GL250786  39.818  33.222   5.847
 3922POPC   C1A50787  40.085  33.074   6.276
 3922POPC   D2A50788  40.019  32.858   6.658
 3922POPC   C3A50789  40.080  33.103   6.983
 3922POPC   C4A50790  40.091  32.922   7.350
 3922POPC   C1B50791  39.686  33.451   6.200
 3922POPC   C2B50792  39.833  33.408   6.601
 3922POPC   C3B50793  39.655  33.450   6.963
 3922POPC   C4B50794  39.824  33.599   7.296
 3923POPC   NC350795   1.418  34.736   5.358
 3923POPC   PO450796   1.027  34.297   5.088
 3923POPC   GL150797   0.988  34.457   5.648
 3923POPC   GL250798   1.344  34.401   5.798
 3923POPC   C1A50799   1.002  34.390   6.188
 3923POPC   D2A50800   0.935  34.642   6.633
 3923POPC   C3A50801   0.911  34.604   7.132
 3923POPC   C4A50802   1.024  34.719   7.574
 3923POPC   C1B50803   1.524  34.542   6.164
 3923POPC   C2B50804   1.530  34.491   6.592
 3923POPC   C3B50805   1.372  34.688   6.948
 3923POPC   C4B50806   1.428  34.511   7.340
 3924POPC   NC350807  42.072  25.500   5.472
 3924POPC   PO450808  42.465  24.978   5.158
 3924POPC   GL150809  42.434  25.066   5.652
 3924POPC   GL250810  42.155  25.216   5.897
 3924POPC   C1A50811  42.605  25.189   6.097
 3924POPC   D2A50812  42.367  25.325   6.486
 3924POPC   C3A50813  42.557  25.328   6.917
 3924POPC   C4A50814  42.422  25.174   7.362
 3924POPC   C1B50815  42.078  25.635   6.163
 3924POPC   C2B50816  42.002  25.698   6.648
 3924POPC   C3B50817  42.112  25.517   7.097
 3924POPC   C4B50818  42.036  25.427   7.580
 3925POPC   NC350819  37.552  26.612   5.441
 3925POPC   PO450820  37.983  27.196   5.443
 3925POPC   GL150821  37.795  26.994   5.776
 3925POPC   GL250822  37.488  27.028   5.751
 3925POPC   C1A50823  37.898  26.887   6.231
 3925POPC   D2A50824  37.866  26.798   6.678
 3925POPC   C3A50825  37.987  27.059   6.982
 3925POPC   C4A50826  38.061  26.959   7.441
 3925POPC   C1B50827  37.401  26.957   6.151
 3925POPC   C2B50828  37.519  27.149   6.514
 3925POPC   C3B50829  37.441  27.071   6.906
 3925POPC   C4B50830  37.608  26.865   7.244
 3926POPC   NC350831  10.948  34.456   5.744
 3926POPC   PO450832  11.424  34.503   5.308
 3926POPC   GL150833  11.501  34.482   5.767
 3926POPC   GL250834  11.406  34.159   5.912
 3926POPC   C1A50835  11.355  34.655   6.191
 3926POPC   D2A50836  11.245  34.880   6.569
 3926POPC   C3A50837  11.190  34.742   6.964
 3926POPC   C4A50838  11.269  34.637   7.398
 3926POPC   C1B50839  11.680  34.271   6.243
 3926POPC   C2B50840  11.532  34.447   6.636
 3926POPC   C3B50841  11.653  34.517   7.036
 3926POPC   C4B50842  11.683  34.333   7.430
 3927POPC   NC350843   7.269  17.913   5.509
 3927POPC   PO450844   7.730  18.318   5.425
 3927POPC   GL150845   7.570  18.427   5.827
 3927POPC   GL250846   7.235  18.275   5.862
 3927POPC   C1A50847   7.391  18.494   6.280
 3927POPC   D2A50848   7.143  18.418   6.651
 3927POPC   C3A50849   7.442  18.472   6.912
 3927POPC   C4A50850   7.653  18.276   7.224
 3927POPC   C1B50851   7.538  18.014   6.127
 3927POPC   C2B50852   7.611  18.104   6.559
 3927POPC   C3B50853   7.381  17.969   6.880
 3927POPC   C4B50854   7.041  18.125   7.080
 3928POPC   NC350855  37.535  11.227   5.376
 3928POPC   PO450856  38.084  11.458   5.087
 3928POPC   GL150857  38.006  11.298   5.599
 3928POPC   GL250858  37.744  11.081   5.807
 3928POPC   C1A50859  38.151  11.174   6.083
 3928POPC   D2A50860  38.075  11.280   6.505
 3928POPC   C3A50861  37.715  11.131   6.723
 3928POPC   C4A50862  37.745  11.116   7.163
 3928POPC   C1B50863  37.712  11.420   6.132
 3928POPC   C2B50864  37.541  11.577   6.519
 3928POPC   C3B50865  37.608  11.567   6.970
 3928POPC   C4B50866  37.428  11.499   7.365
 3929POPC   NC350867   7.823  32.501   5.181
 3929POPC   PO450868   8.372  32.278   5.547
 3929POPC   GL150869   8.197  32.485   5.876
 3929POPC   GL250870   7.846  32.456   5.834
 3929POPC   C1A50871   8.171  32.371   6.295
 3929POPC   D2A50872   8.528  32.213   6.517
 3929POPC   C3A50873   8.413  32.250   6.902
 3929POPC   C4A50874   8.361  32.265   7.325
 3929POPC   C1B50875   7.732  32.125   6.185
 3929POPC   C2B50876   7.908  32.073   6.632
 3929POPC   C3B50877   7.923  32.267   7.041
 3929POPC   C4B50878   7.712  32.521   7.355
 3930POPC   NC350879  41.630   3.844   5.469
 3930POPC   PO450880  41.333   3.344   5.108
 3930POPC   GL150881  41.329   3.498   5.681
 3930POPC   GL250882  41.686   3.564   5.867
 3930POPC   C1A50883  41.350   3.490   6.200
 3930POPC   D2A50884  41.389   3.199   6.526
 3930POPC   C3A50885  41.377   3.422   6.892
 3930POPC   C4A50886  41.377   3.564   7.280
 3930POPC   C1B50887  41.879   3.715   6.219
 3930POPC   C2B50888  41.750   3.622   6.607
 3930POPC   C3B50889  41.900   3.621   7.024
 3930POPC   C4B50890  41.900   3.979   7.344
 3931POPC   NC350891  20.146   0.478   5.271
 3931POPC   PO450892  19.638   0.715   5.384
 3931POPC   GL150893  19.872   0.523   5.726
 3931POPC   GL250894  20.027   0.182   5.669
 3931POPC   C1A50895  20.069   0.632   6.150
 3931POPC   D2A50896  20.264   0.486   6.524
 3931POPC   C3A50897  20.055   0.597   6.907
 3931POPC   C4A50898  20.027   0.385   7.292
 3931POPC   C1B50899  19.865   0.163   6.082
 3931POPC   C2B50900  19.791   0.258   6.537
 3931POPC   C3B50901  19.671   0.224   6.966
 3931POPC   C4B50902  19.561   0.222   7.418
 3932POPC   NC350903  34.754  27.080   5.308
 3932POPC   PO450904  34.204  26.705   5.422
 3932POPC   GL150905  34.365  26.873   5.789
 3932POPC   GL250906  34.744  26.838   5.783
 3932POPC   C1A50907  34.232  26.779   6.207
 3932POPC   D2A50908  34.359  27.048   6.542
 3932POPC   C3A50909  34.392  26.934   6.971
 3932POPC   C4A50910  34.727  27.078   7.208
 3932POPC   C1B50911  34.743  26.838   6.236
 3932POPC   C2B50912  34.689  26.669   6.669
 3932POPC   C3B50913  34.763  26.558   7.149
 3932POPC   C4B50914  34.931  26.544   7.638
 3933POPC   NC350915  39.478  12.623   5.392
 3933POPC   PO450916  39.078  12.119   5.574
 3933POPC   GL150917  39.218  11.994   5.925
 3933POPC   GL250918  39.519  12.073   5.905
 3933POPC   C1A50919  39.161  12.150   6.301
 3933POPC   D2A50920  39.228  12.116   6.691
 3933POPC   C3A50921  39.469  11.853   6.869
 3933POPC   C4A50922  39.340  11.928   7.253
 3933POPC   C1B50923  39.650  12.329   6.195
 3933POPC   C2B50924  39.545  12.515   6.571
 3933POPC   C3B50925  39.592  12.348   6.979
 3933POPC   C4B50926  39.357  12.417   7.374
 3934POPC   NC350927  12.953  35.870   5.434
 3934POPC   PO450928  12.703  36.558   5.518
 3934POPC   GL150929  12.876  36.213   5.804
 3934POPC   GL250930  12.551  36.056   5.938
 3934POPC   C1A50931  12.938  36.046   6.240
 3934POPC   D2A50932  12.679  36.096   6.623
 3934POPC   C3A50933  12.822  35.985   7.039
 3934POPC   C4A50934  13.066  35.895   7.416
 3934POPC   C1B50935  12.572  35.692   6.304
 3934POPC   C2B50936  12.548  35.547   6.752
 3934POPC   C3B50937  12.410  35.715   7.175
 3934POPC   C4B50938  12.619  35.853   7.613
 3935POPC   NC350939  18.543   5.300   5.202
 3935POPC   PO450940  19.034   4.858   5.390
 3935POPC   GL150941  19.219   4.965   5.804
 3935POPC   GL250942  19.350   5.298   5.796
 3935POPC   C1A50943  19.075   5.115   6.241
 3935POPC   D2A50944  18.973   5.370   6.629
 3935POPC   C3A50945  18.880   5.124   7.016
 3935POPC   C4A50946  18.793   5.304   7.409
 3935POPC   C1B50947  19.506   5.389   6.195
 3935POPC   C2B50948  19.547   5.290   6.627
 3935POPC   C3B50949  19.364   5.285   7.047
 3935POPC   C4B50950  19.263   4.892   7.292
 3936POPC   NC350951  31.731  13.797   5.152
 3936POPC   PO450952  31.575  14.413   5.475
 3936POPC   GL150953  31.536  14.404   5.898
 3936POPC   GL250954  31.853  14.435   5.932
 3936POPC   C1A50955  31.457  14.527   6.348
 3936POPC   D2A50956  31.149  14.420   6.675
 3936POPC   C3A50957  31.204  14.688   7.022
 3936POPC   C4A50958  31.417  14.904   7.366
 3936POPC   C1B50959  31.892  14.247   6.305
 3936POPC   C2B50960  31.880  14.419   6.711
 3936POPC   C3B50961  31.707  14.546   7.119
 3936POPC   C4B50962  31.742  14.568   7.604
 3937POPC   NC350963   6.738  15.481   5.413
 3937POPC   PO450964   6.482  16.163   5.407
 3937POPC   GL150965   6.522  15.952   5.795
 3937POPC   GL250966   6.819  15.753   5.835
 3937POPC   C1A50967   6.672  16.124   6.202
 3937POPC   D2A50968   6.884  16.084   6.595
 3937POPC   C3A50969   6.648  16.125   6.949
 3937POPC   C4A50970   6.602  16.064   7.347
 3937POPC   C1B50971   6.644  15.611   6.230
 3937POPC   C2B50972   6.611  15.464   6.628
 3937POPC   C3B50973   6.729  15.624   6.987
 3937POPC   C4B50974   6.597  15.571   7.388
 3938POPC   NC350975  31.451  31.242   5.449
 3938POPC   PO450976  31.680  31.914   5.516
 3938POPC   GL150977  31.607  31.568   5.811
 3938POPC   GL250978  31.285  31.550   5.887
 3938POPC   C1A50979  31.727  31.317   6.172
 3938POPC   D2A50980  31.621  31.300   6.584
 3938POPC   C3A50981  31.716  31.498   6.924
 3938POPC   C4A50982  31.677  31.349   7.321
 3938POPC   C1B50983  31.373  31.672   6.325
 3938POPC   C2B50984  31.304  31.808   6.757
 3938POPC   C3B50985  31.310  31.700   7.180
 3938POPC   C4B50986  31.265  31.492   7.580
 3939POPC   NC350987  15.373   3.795   5.384
 3939POPC   PO450988  15.347   3.140   5.265
 3939POPC   GL150989  15.280   3.457   5.732
 3939POPC   GL250990  14.958   3.547   5.849
 3939POPC   C1A50991  15.412   3.748   6.116
 3939POPC   D2A50992  15.471   3.593   6.568
 3939POPC   C3A50993  15.344   3.784   6.972
 3939POPC   C4A50994  15.318   4.064   7.331
 3939POPC   C1B50995  15.043   3.453   6.291
 3939POPC   C2B50996  14.917   3.712   6.635
 3939POPC   C3B50997  14.846   3.622   7.061
 3939POPC   C4B50998  15.122   3.330   7.250
 3940POPC   NC350999  22.279  42.832   5.629
 3940POPC   PO451000  22.207  43.449   5.331
 3940POPC   GL151001  22.244  43.416   5.776
 3940POPC   GL251002  22.550  43.300   5.893
 3940POPC   C1A51003  21.923  43.304   6.100
 3940POPC   D2A51004  21.842  43.046   6.475
 3940POPC   C3A51005  21.903  43.143   6.926
 3940POPC   C4A51006  22.123  42.797   7.155
 3940POPC   C1B51007  22.341  43.046   6.240
 3940POPC   C2B51008  22.324  43.016   6.678
 3940POPC   C3B51009  22.399  43.226   7.060
 3940POPC   C4B51010  22.436  43.027   7.480
 3941POPC   NC351011  10.463  12.654   5.499
 3941POPC   PO451012  10.465  13.281   5.314
 3941POPC   GL151013  10.475  13.065   5.767
 3941POPC   GL251014  10.817  12.859   5.829
 3941POPC   C1A51015  10.479  12.870   6.208
 3941POPC   D2A51016  10.280  12.900   6.617
 3941POPC   C3A51017  10.494  12.954   6.998
 3941POPC   C4A51018  10.316  12.770   7.369
 3941POPC   C1B51019  11.008  12.926   6.220
 3941POPC   C2B51020  10.854  12.935   6.618
 3941POPC   C3B51021  10.989  12.772   6.996
 3941POPC   C4B51022  10.808  12.725   7.363
 3942POPC   NC351023   5.800   6.162   5.276
 3942POPC   PO451024   5.798   5.522   5.407
 3942POPC   GL151025   5.850   5.792   5.834
 3942POPC   GL251026   6.017   6.129   5.793
 3942POPC   C1A51027   5.847   5.635   6.287
 3942POPC   D2A51028   5.666   5.780   6.693
 3942POPC   C3A51029   5.757   5.585   7.081
 3942POPC   C4A51030   6.108   5.696   7.343
 3942POPC   C1B51031   5.927   6.138   6.241
 3942POPC   C2B51032   6.154   5.963   6.604
 3942POPC   C3B51033   6.038   6.082   7.022
 3942POPC   C4B51034   5.622   6.202   7.165
 3943POPC   NC351035   8.431   9.322   5.391
 3943POPC   PO451036   8.071   9.826   5.185
 3943POPC   GL151037   8.369   9.760   5.642
 3943POPC   GL251038   8.328   9.500   5.863
 3943POPC   C1A51039   8.309   9.936   6.132
 3943POPC   D2A51040   8.209   9.807   6.574
 3943POPC   C3A51041   8.218   9.883   7.024
 3943POPC   C4A51042   8.429   9.803   7.428
 3943POPC   C1B51043   8.041   9.487   6.202
 3943POPC   C2B51044   7.966   9.365   6.609
 3943POPC   C3B51045   8.165   9.379   6.994
 3943POPC   C4B51046   7.995   9.563   7.363
 3944POPC   NC351047  32.345  34.078   5.347
 3944POPC   PO451048  32.543  33.515   5.600
 3944POPC   GL151049  32.304  33.611   5.936
 3944POPC   GL251050  32.105  33.889   5.795
 3944POPC   C1A51051  32.261  33.556   6.361
 3944POPC   D2A51052  31.951  33.660   6.632
 3944POPC   C3A51053  32.091  33.862   6.956
 3944POPC   C4A51054  32.099  33.602   7.272
 3944POPC   C1B51055  32.011  34.012   6.240
 3944POPC   C2B51056  31.736  34.142   6.599
 3944POPC   C3B51057  31.765  34.253   7.036
 3944POPC   C4B51058  31.885  34.033   7.430
 3945POPC   NC351059   6.336  22.483   5.429
 3945POPC   PO451060   6.874  22.002   5.446
 3945POPC   GL151061   6.803  22.265   5.875
 3945POPC   GL251062   6.477  22.419   5.910
 3945POPC   C1A51063   6.682  22.244   6.347
 3945POPC   D2A51064   6.572  22.444   6.752
 3945POPC   C3A51065   6.641  22.176   7.119
 3945POPC   C4A51066   6.665  22.308   7.595
 3945POPC   C1B51067   6.178  22.236   6.235
 3945POPC   C2B51068   6.221  22.091   6.658
 3945POPC   C3B51069   6.137  22.275   7.071
 3945POPC   C4B51070   6.282  22.014   7.428
 3946POPC   NC351071   0.918  27.212   5.209
 3946POPC   PO451072   0.733  27.809   5.442
 3946POPC   GL151073   0.522  27.671   5.808
 3946POPC   GL251074   0.438  27.317   5.804
 3946POPC   C1A51075   0.308  27.747   6.199
 3946POPC   D2A51076   0.006  27.861   6.518
 3946POPC   C3A51077   0.098  27.702   6.914
 3946POPC   C4A51078   0.506  27.777   7.130
 3946POPC   C1B51079   0.591  27.293   6.232
 3946POPC   C2B51080   0.481  27.459   6.656
 3946POPC   C3B51081   0.377  27.294   7.076
 3946POPC   C4B51082   0.533  27.381   7.493
 3947POPC   NC351083  44.296  23.455   5.453
 3947POPC   PO451084  44.905  23.277   5.638
 3947POPC   GL151085  44.807  23.581   5.903
 3947POPC   GL251086  44.559  23.795   5.814
 3947POPC   C1A51087  44.654  23.532   6.310
 3947POPC   D2A51088  44.373  23.543   6.674
 3947POPC   C3A51089  44.600  23.572   7.060
 3947POPC   C4A51090  44.620  23.523   7.559
 3947POPC   C1B51091  44.739  24.040   6.165
 3947POPC   C2B51092  44.692  23.970   6.593
 3947POPC   C3B51093  44.868  24.077   6.978
 3947POPC   C4B51094  44.734  23.967   7.365
 3948POPC   NC351095  25.724  37.332   5.434
 3948POPC   PO451096  25.777  37.996   5.304
 3948POPC   GL151097  25.968  37.751   5.680
 3948POPC   GL251098  25.736  37.523   5.895
 3948POPC   C1A51099  26.112  37.760   6.139
 3948POPC   D2A51100  26.051  37.602   6.581
 3948POPC   C3A51101  25.798  37.837   6.867
 3948POPC   C4A51102  25.916  37.892   7.286
 3948POPC   C1B51103  25.647  37.264   6.269
 3948POPC   C2B51104  25.600  37.369   6.714
 3948POPC   C3B51105  25.746  37.416   7.182
 3948POPC   C4B51106  25.616  37.363   7.639
 3949POPC   NC351107  12.937  20.827   5.428
 3949POPC   PO451108  12.535  20.295   5.435
 3949POPC   GL151109  12.731  20.462   5.815
 3949POPC   GL251110  13.020  20.246   5.769
 3949POPC   C1A51111  12.727  20.619   6.273
 3949POPC   D2A51112  12.645  20.477   6.710
 3949POPC   C3A51113  12.851  20.681   7.055
 3949POPC   C4A51114  13.135  21.027   7.152
 3949POPC   C1B51115  13.188  20.407   6.148
 3949POPC   C2B51116  13.236  20.350   6.593
 3949POPC   C3B51117  12.997  20.179   6.922
 3949POPC   C4B51118  12.911  20.234   7.348
 3950POPC   NC351119  25.710   6.557   5.075
 3950POPC   PO451120  25.174   6.793   5.473
 3950POPC   GL151121  25.254   6.606   5.908
 3950POPC   GL251122  25.522   6.328   5.928
 3950POPC   C1A51123  25.447   6.828   6.299
 3950POPC   D2A51124  25.404   6.728   6.750
 3950POPC   C3A51125  25.466   6.944   7.112
 3950POPC   C4A51126  25.241   6.662   7.341
 3950POPC   C1B51127  25.406   6.328   6.347
 3950POPC   C2B51128  25.576   6.213   6.736
 3950POPC   C3B51129  25.597   6.387   7.118
 3950POPC   C4B51130  25.574   6.325   7.573
 3951POPC   NC351131   4.109  18.070   5.551
 3951POPC   PO451132   4.752  18.076   5.373
 3951POPC   GL151133   4.536  18.278   5.715
 3951POPC   GL251134   4.298  18.548   5.676
 3951POPC   C1A51135   4.491  18.335   6.154
 3951POPC   D2A51136   4.566  18.514   6.560
 3951POPC   C3A51137   4.484  18.201   6.855
 3951POPC   C4A51138   4.640  18.037   7.202
 3951POPC   C1B51139   3.998  18.527   6.083
 3951POPC   C2B51140   3.866  18.564   6.531
 3951POPC   C3B51141   4.010  18.365   6.928
 3951POPC   C4B51142   4.138  18.087   7.304
 3952POPC   NC351143   8.269   6.151   5.408
 3952POPC   PO451144   8.617   5.708   5.555
 3952POPC   GL151145   8.832   5.720   5.959
 3952POPC   GL251146   9.042   6.014   6.006
 3952POPC   C1A51147   8.877   5.665   6.396
 3952POPC   D2A51148   8.687   5.635   6.785
 3952POPC   C3A51149   8.969   5.507   7.147
 3952POPC   C4A51150   9.106   5.747   7.534
 3952POPC   C1B51151   9.197   6.074   6.437
 3952POPC   C2B51152   9.126   5.900   6.850
 3952POPC   C3B51153   8.776   5.996   7.141
 3952POPC   C4B51154   8.475   6.099   7.482
 3953POPC   NC351155  11.597  24.677   5.379
 3953POPC   PO451156  11.310  24.183   5.354
 3953POPC   GL151157  11.257  24.466   5.724
 3953POPC   GL251158  10.961  24.651   5.764
 3953POPC   C1A51159  11.410  24.717   6.101
 3953POPC   D2A51160  11.524  24.883   6.521
 3953POPC   C3A51161  11.556  24.623   6.896
 3953POPC   C4A51162  11.169  24.569   7.109
 3953POPC   C1B51163  10.981  24.396   6.146
 3953POPC   C2B51164  11.202  24.445   6.548
 3953POPC   C3B51165  11.223  24.120   6.877
 3953POPC   C4B51166  11.241  24.072   7.346
 3954POPC   NC351167  10.224  42.608   5.383
 3954POPC   PO451168   9.998  42.032   5.720
 3954POPC   GL151169   9.900  42.380   5.878
 3954POPC   GL251170   9.598  42.448   5.665
 3954POPC   C1A51171   9.813  42.301   6.310
 3954POPC   D2A51172   9.582  42.229   6.685
 3954POPC   C3A51173   9.821  42.365   7.060
 3954POPC   C4A51174   9.688  42.323   7.485
 3954POPC   C1B51175   9.487  42.623   6.096
 3954POPC   C2B51176   9.581  42.712   6.527
 3954POPC   C3B51177   9.394  42.638   6.924
 3954POPC   C4B51178   9.282  42.630   7.329
 3955POPC   NC351179  23.734   1.062   5.060
 3955POPC   PO451180  23.342   1.120   5.571
 3955POPC   GL151181  23.559   1.048   5.928
 3955POPC   GL251182  23.916   1.137   5.958
 3955POPC   C1A51183  23.575   1.080   6.354
 3955POPC   D2A51184  23.841   1.195   6.724
 3955POPC   C3A51185  23.633   1.025   7.090
 3955POPC   C4A51186  23.396   0.634   7.155
 3955POPC   C1B51187  23.865   1.494   6.284
 3955POPC   C2B51188  23.874   1.731   6.732
 3955POPC   C3B51189  23.795   1.527   7.129
 3955POPC   C4B51190  23.657   1.350   7.512
 3956POPC   NC351191  29.369   2.389   5.386
 3956POPC   PO451192  29.116   1.807   5.427
 3956POPC   GL151193  29.042   2.004   5.809
 3956POPC   GL251194  29.241   2.317   5.886
 3956POPC   C1A51195  29.163   1.877   6.210
 3956POPC   D2A51196  28.978   1.886   6.594
 3956POPC   C3A51197  29.126   1.708   6.936
 3956POPC   C4A51198  28.949   1.841   7.284
 3956POPC   C1B51199  29.513   2.240   6.252
 3956POPC   C2B51200  29.517   2.007   6.676
 3956POPC   C3B51201  29.422   2.087   7.138
 3956POPC   C4B51202  29.373   2.445   7.406
 3957POPC   NC351203  18.896  18.118   5.483
 3957POPC   PO451204  19.349  18.561   5.529
 3957POPC   GL151205  19.227  18.263   5.863
 3957POPC   GL251206  18.878  18.260   5.979
 3957POPC   C1A51207  19.282  18.147   6.296
 3957POPC   D2A51208  19.141  18.023   6.707
 3957POPC   C3A51209  19.351  18.290   7.025
 3957POPC   C4A51210  19.484  18.224   7.471
 3957POPC   C1B51211  18.756  18.315   6.419
 3957POPC   C2B51212  18.798  18.338   6.882
 3957POPC   C3B51213  18.807  17.988   7.153
 3957POPC   C4B51214  18.585  18.089   7.507
 3958POPC   NC351215   5.485  21.956   5.413
 3958POPC   PO451216   6.093  21.912   5.468
 3958POPC   GL151217   5.883  22.090   5.826
 3958POPC   GL251218   5.960  22.463   5.827
 3958POPC   C1A51219   5.680  22.041   6.241
 3958POPC   D2A51220   5.737  22.228   6.659
 3958POPC   C3A51221   5.660  22.047   7.077
 3958POPC   C4A51222   5.787  22.221   7.471
 3958POPC   C1B51223   5.763  22.587   6.238
 3958POPC   C2B51224   5.571  22.707   6.649
 3958POPC   C3B51225   5.669  22.609   7.102
 3958POPC   C4B51226   5.610  22.667   7.588
 3959POPC   NC351227   1.900   1.858   5.331
 3959POPC   PO451228   1.801   2.480   5.668
 3959POPC   GL151229   1.916   2.045   5.834
 3959POPC   GL251230   1.795   1.701   5.805
 3959POPC   C1A51231   2.054   1.919   6.234
 3959POPC   D2A51232   1.776   1.993   6.568
 3959POPC   C3A51233   1.914   2.080   6.972
 3959POPC   C4A51234   2.321   2.113   7.173
 3959POPC   C1B51235   1.515   1.765   6.163
 3959POPC   C2B51236   1.381   1.669   6.608
 3959POPC   C3B51237   1.711   1.600   6.924
 3959POPC   C4B51238   1.799   1.748   7.325
 3960POPC   NC351239   1.909  10.162   5.540
 3960POPC   PO451240   1.593  10.722   5.349
 3960POPC   GL151241   1.856  10.613   5.778
 3960POPC   GL251242   1.986  10.301   6.012
 3960POPC   C1A51243   2.035  10.787   6.168
 3960POPC   D2A51244   1.894  10.784   6.600
 3960POPC   C3A51245   2.145  10.692   6.954
 3960POPC   C4A51246   1.878  10.534   7.269
 3960POPC   C1B51247   1.720  10.292   6.381
 3960POPC   C2B51248   1.715  10.309   6.842
 3960POPC   C3B51249   1.989  10.080   7.156
 3960POPC   C4B51250   2.244  10.140   7.553
 3961POPC   NC351251  20.521  22.368   5.452
 3961POPC   PO451252  20.752  21.725   5.474
 3961POPC   GL151253  20.625  22.002   5.800
 3961POPC   GL251254  20.912  22.252   5.746
 3961POPC   C1A51255  20.556  22.165   6.236
 3961POPC   D2A51256  20.503  22.029   6.706
 3961POPC   C3A51257  20.588  22.314   7.095
 3961POPC   C4A51258  20.409  22.382   7.529
 3961POPC   C1B51259  21.043  22.019   6.082
 3961POPC   C2B51260  20.993  21.977   6.506
 3961POPC   C3B51261  20.942  21.816   6.914
 3961POPC   C4B51262  20.940  21.983   7.315
 3962POPC   NC351263   0.324  12.011   5.413
 3962POPC   PO451264   0.696  12.456   5.439
 3962POPC   GL151265   0.495  12.297   5.829
 3962POPC   GL251266   0.137  12.159   5.893
 3962POPC   C1A51267   0.606  12.278   6.267
 3962POPC   D2A51268   0.540  12.502   6.648
 3962POPC   C3A51269   0.685  12.297   7.011
 3962POPC   C4A51270   0.659  11.931   7.278
 3962POPC   C1B51271   0.287  11.876   6.251
 3962POPC   C2B51272   0.452  11.974   6.673
 3962POPC   C3B51273   0.227  12.031   7.066
 3962POPC   C4B51274   0.211  11.672   7.350
 3963POPC   NC351275  24.221  24.684   5.543
 3963POPC   PO451276  24.743  24.444   5.245
 3963POPC   GL151277  24.558  24.343   5.723
 3963POPC   GL251278  24.183  24.302   5.869
 3963POPC   C1A51279  24.607  24.605   6.120
 3963POPC   D2A51280  24.745  24.849   6.490
 3963POPC   C3A51281  24.518  24.861   6.892
 3963POPC   C4A51282  24.609  24.649   7.286
 3963POPC   C1B51283  24.402  24.144   6.220
 3963POPC   C2B51284  24.503  24.373   6.583
 3963POPC   C3B51285  24.379  24.293   6.984
 3963POPC   C4B51286  24.387  24.188   7.414
 3964POPC   NC351287  32.685   0.497   5.592
 3964POPC   PO451288  33.312   0.656   5.429
 3964POPC   GL151289  33.142   0.508   5.822
 3964POPC   GL251290  33.256   0.182   5.935
 3964POPC   C1A51291  32.997   0.560   6.242
 3964POPC   D2A51292  33.265   0.351   6.548
 3964POPC   C3A51293  33.327   0.624   6.903
 3964POPC   C4A51294  33.071   0.526   7.258
 3964POPC   C1B51295  32.899   0.066   6.214
 3964POPC   C2B51296  32.700   0.230   6.564
 3964POPC   C3B51297  32.943   0.142   6.926
 3964POPC   C4B51298  33.089  44.998   7.314
 3965POPC   NC351299  33.565   3.636   5.437
 3965POPC   PO451300  34.238   3.887   5.494
 3965POPC   GL151301  33.933   3.595   5.815
 3965POPC   GL251302  33.550   3.406   5.870
 3965POPC   C1A51303  33.778   3.549   6.279
 3965POPC   D2A51304  33.702   3.626   6.720
 3965POPC   C3A51305  33.857   3.341   6.998
 3965POPC   C4A51306  34.043   3.678   7.180
 3965POPC   C1B51307  33.374   3.177   6.238
 3965POPC   C2B51308  33.391   3.158   6.723
 3965POPC   C3B51309  33.375   3.310   7.186
 3965POPC   C4B51310  33.326   3.550   7.575
 3966POPC   NC351311  26.243  41.265   5.265
 3966POPC   PO451312  26.838  41.520   5.337
 3966POPC   GL151313  26.763  41.569   5.768
 3966POPC   GL251314  27.113  41.542   5.789
 3966POPC   C1A51315  26.595  41.638   6.196
 3966POPC   D2A51316  26.717  41.480   6.610
 3966POPC   C3A51317  26.527  41.651   6.954
 3966POPC   C4A51318  26.712  41.628   7.316
 3966POPC   C1B51319  27.016  41.898   6.064
 3966POPC   C2B51320  26.955  41.921   6.519
 3966POPC   C3B51321  27.060  41.728   6.938
 3966POPC   C4B51322  27.112  41.923   7.368
 3967POPC   NC351323  35.809  18.822   5.042
 3967POPC   PO451324  36.063  18.243   5.443
 3967POPC   GL151325  36.108  18.307   5.827
 3967POPC   GL251326  36.432  18.428   5.804
 3967POPC   C1A51327  35.884  18.434   6.170
 3967POPC   D2A51328  35.950  18.229   6.570
 3967POPC   C3A51329  35.971  18.453   6.948
 3967POPC   C4A51330  35.821  18.277   7.303
 3967POPC   C1B51331  36.373  18.333   6.261
 3967POPC   C2B51332  36.422  18.114   6.651
 3967POPC   C3B51333  36.439  18.245   7.054
 3967POPC   C4B51334  36.665  18.550   7.162
 3968POPC   NC351335  40.349  11.209   5.543
 3968POPC   PO451336  39.697  11.335   5.523
 3968POPC   GL151337  39.935  11.241   5.874
 3968POPC   GL251338  39.662  11.051   5.982
 3968POPC   C1A51339  40.191  11.434   6.216
 3968POPC   D2A51340  40.035  11.608   6.620
 3968POPC   C3A51341  40.064  11.308   6.953
 3968POPC   C4A51342  40.184  11.314   7.376
 3968POPC   C1B51343  39.720  11.285   6.359
 3968POPC   C2B51344  39.579  11.365   6.772
 3968POPC   C3B51345  39.589  11.112   7.132
 3968POPC   C4B51346  39.589  11.218   7.557
 3969POPC   NC351347   0.160  10.387   5.516
 3969POPC   PO451348   0.796  10.710   5.450
 3969POPC   GL151349   0.478  10.667   5.815
 3969POPC   GL251350   0.459  10.342   5.963
 3969POPC   C1A51351   0.424  10.790   6.252
 3969POPC   D2A51352   0.411  10.538   6.670
 3969POPC   C3A51353   0.567  10.782   7.039
 3969POPC   C4A51354   0.913  10.663   7.271
 3969POPC   C1B51355   0.306  10.080   6.315
 3969POPC   C2B51356  44.926  10.113   6.581
 3969POPC   C3B51357  44.977  10.257   6.987
 3969POPC   C4B51358   0.386  10.320   7.163
 3970POPC   NC351359  37.962  40.812   5.033
 3970POPC   PO451360  37.704  40.433   5.591
 3970POPC   GL151361  37.507  40.680   5.817
 3970POPC   GL251362  37.576  41.003   5.812
 3970POPC   C1A51363  37.609  40.615   6.238
 3970POPC   D2A51364  37.664  40.801   6.618
 3970POPC   C3A51365  37.776  40.625   6.978
 3970POPC   C4A51366  37.596  40.860   7.239
 3970POPC   C1B51367  37.875  41.034   6.167
 3970POPC   C2B51368  37.884  41.245   6.548
 3970POPC   C3B51369  37.964  41.103   6.952
 3970POPC   C4B51370  38.098  40.932   7.360
 3971POPC   NC351371  32.561   6.511   5.542
 3971POPC   PO451372  32.350   7.138   5.335
 3971POPC   GL151373  32.173   6.933   5.722
 3971POPC   GL251374  32.093   6.562   5.767
 3971POPC   C1A51375  32.010   6.928   6.162
 3971POPC   D2A51376  32.077   7.136   6.573
 3971POPC   C3A51377  32.257   6.868   6.890
 3971POPC   C4A51378  32.099   6.864   7.297
 3971POPC   C1B51379  32.209   6.457   6.207
 3971POPC   C2B51380  32.045   6.407   6.637
 3971POPC   C3B51381  32.120   6.396   7.103
 3971POPC   C4B51382  32.232   6.414   7.567
 3972POPC   NC351383  33.118  26.559   5.439
 3972POPC   PO451384  33.022  27.216   5.639
 3972POPC   GL151385  33.045  26.832   5.882
 3972POPC   GL251386  32.719  26.668   5.817
 3972POPC   C1A51387  33.257  26.702   6.272
 3972POPC   D2A51388  33.232  26.484   6.666
 3972POPC   C3A51389  33.216  26.716   7.033
 3972POPC   C4A51390  33.372  26.687   7.426
 3972POPC   C1B51391  32.661  26.839   6.249
 3972POPC   C2B51392  32.881  26.866   6.654
 3972POPC   C3B51393  32.817  27.097   7.040
 3972POPC   C4B51394  32.668  27.154   7.505
 3973POPC   NC351395  21.224  17.932   5.594
 3973POPC   PO451396  21.410  18.628   5.460
 3973POPC   GL151397  21.468  18.369   5.828
 3973POPC   GL251398  21.725  18.113   5.779
 3973POPC   C1A51399  21.640  18.432   6.241
 3973POPC   D2A51400  21.458  18.629   6.584
 3973POPC   C3A51401  21.533  18.429   6.939
 3973POPC   C4A51402  21.454  18.501   7.340
 3973POPC   C1B51403  21.547  17.928   6.175
 3973POPC   C2B51404  21.368  18.051   6.578
 3973POPC   C3B51405  21.490  17.894   6.983
 3973POPC   C4B51406  21.705  17.994   7.361
 3974POPC   NC351407  18.144   9.838   5.488
 3974POPC   PO451408  18.660  10.194   5.208
 3974POPC   GL151409  18.558   9.955   5.719
 3974POPC   GL251410  18.194  10.019   5.948
 3974POPC   C1A51411  18.484   9.653   6.097
 3974POPC   D2A51412  18.655   9.638   6.510
 3974POPC   C3A51413  18.409   9.780   6.853
 3974POPC   C4A51414  18.594   9.712   7.245
 3974POPC   C1B51415  17.970   9.632   6.139
 3974POPC   C2B51416  18.076   9.402   6.539
 3974POPC   C3B51417  17.990   9.477   6.975
 3974POPC   C4B51418  18.082   9.808   7.270
 3975POPC   NC351419  22.011  19.548   5.289
 3975POPC   PO451420  22.170  18.902   5.357
 3975POPC   GL151421  22.330  19.121   5.757
 3975POPC   GL251422  22.083  19.030   5.948
 3975POPC   C1A51423  22.415  19.261   6.212
 3975POPC   D2A51424  22.130  19.102   6.535
 3975POPC   C3A51425  22.291  19.139   6.945
 3975POPC   C4A51426  22.364  18.925   7.361
 3975POPC   C1B51427  22.153  18.681   6.238
 3975POPC   C2B51428  21.952  18.624   6.642
 3975POPC   C3B51429  21.880  18.866   7.046
 3975POPC   C4B51430  21.911  18.842   7.558
 3976POPC   NC351431  10.368  24.003   5.490
 3976POPC   PO451432  10.873  23.519   5.511
 3976POPC   GL151433  10.601  23.610   5.867
 3976POPC   GL251434  10.266  23.675   5.870
 3976POPC   C1A51435  10.531  23.580   6.310
 3976POPC   D2A51436  10.307  23.459   6.659
 3976POPC   C3A51437  10.488  23.573   7.024
 3976POPC   C4A51438  10.446  23.534   7.448
 3976POPC   C1B51439  10.156  23.906   6.287
 3976POPC   C2B51440  10.292  23.977   6.739
 3976POPC   C3B51441  10.303  24.018   7.181
 3976POPC   C4B51442  10.032  24.256   7.439
 3977POPC   NC351443  34.954  26.394   5.574
 3977POPC   PO451444  34.719  25.867   5.251
 3977POPC   GL151445  34.565  25.997   5.693
 3977POPC   GL251446  34.510  26.359   5.834
 3977POPC   C1A51447  34.562  25.839   6.125
 3977POPC   D2A51448  34.702  25.867   6.545
 3977POPC   C3A51449  34.493  25.716   6.879
 3977POPC   C4A51450  34.481  25.697   7.295
 3977POPC   C1B51451  34.780  26.313   6.255
 3977POPC   C2B51452  34.969  26.261   6.706
 3977POPC   C3B51453  34.853  26.037   7.089
 3977POPC   C4B51454  34.639  26.163   7.447
 3978POPC   NC351455  10.068  41.758   5.351
 3978POPC   PO451456  10.725  41.424   5.443
 3978POPC   GL151457  10.531  41.280   5.825
 3978POPC   GL251458  10.238  41.487   5.756
 3978POPC   C1A51459  10.606  41.219   6.284
 3978POPC   D2A51460  10.631  41.574   6.561
 3978POPC   C3A51461  10.350  41.646   6.913
 3978POPC   C4A51462  10.559  41.635   7.305
 3978POPC   C1B51463  10.254  41.603   6.180
 3978POPC   C2B51464  10.127  41.359   6.513
 3978POPC   C3B51465  10.077  41.210   6.917
 3978POPC   C4B51466  10.148  41.340   7.335
 3979POPC   NC351467  44.392   4.281   5.497
 3979POPC   PO451468   0.020   4.414   5.413
 3979POPC   GL151469  44.781   4.471   5.805
 3979POPC   GL251470  44.780   4.105   5.908
 3979POPC   C1A51471  44.625   4.515   6.250
 3979POPC   D2A51472  44.847   4.571   6.640
 3979POPC   C3A51473  44.721   4.327   6.999
 3979POPC   C4A51474  44.301   4.424   7.186
 3979POPC   C1B51475  44.464   4.037   6.255
 3979POPC   C2B51476  44.391   4.159   6.661
 3979POPC   C3B51477  44.418   3.857   6.975
 3979POPC   C4B51478  44.567   3.955   7.323
 3980POPC   NC351479  15.276  15.799   5.422
 3980POPC   PO451480  15.451  15.154   5.371
 3980POPC   GL151481  15.321  15.082   5.830
 3980POPC   GL251482  15.233  15.431   5.899
 3980POPC   C1A51483  15.041  15.062   6.227
 3980POPC   D2A51484  14.952  15.247   6.664
 3980POPC   C3A51485  15.055  14.984   7.037
 3980POPC   C4A51486  15.024  14.981   7.520
 3980POPC   C1B51487  15.291  15.494   6.363
 3980POPC   C2B51488  15.466  15.103   6.612
 3980POPC   C3B51489  15.527  14.835   7.001
 3980POPC   C4B51490  15.452  15.180   7.321
 3981POPC   NC351491  11.677  40.085   5.637
 3981POPC   PO451492  12.335  39.997   5.405
 3981POPC   GL151493  12.145  39.881   5.773
 3981POPC   GL251494  12.151  40.199   5.903
 3981POPC   C1A51495  12.176  39.734   6.201
 3981POPC   D2A51496  12.294  39.858   6.613
 3981POPC   C3A51497  12.176  39.784   7.052
 3981POPC   C4A51498  12.165  39.978   7.478
 3981POPC   C1B51499  11.949  40.167   6.319
 3981POPC   C2B51500  11.841  40.066   6.757
 3981POPC   C3B51501  11.824  40.223   7.185
 3981POPC   C4B51502  12.045  40.476   7.506
 3982POPC   NC351503   5.984  31.028   5.436
 3982POPC   PO451504   5.784  31.772   5.490
 3982POPC   GL151505   5.977  31.483   5.799
 3982POPC   GL251506   5.721  31.217   5.856
 3982POPC   C1A51507   6.209  31.577   6.204
 3982POPC   D2A51508   6.332  31.814   6.590
 3982POPC   C3A51509   6.263  31.596   7.005
 3982POPC   C4A51510   5.994  31.695   7.375
 3982POPC   C1B51511   5.748  31.316   6.323
 3982POPC   C2B51512   5.816  31.421   6.791
 3982POPC   C3B51513   5.791  31.255   7.228
 3982POPC   C4B51514   5.511  31.438   7.530
 3983POPC   NC351515  26.966   1.768   5.507
 3983POPC   PO451516  26.860   1.104   5.312
 3983POPC   GL151517  26.786   1.294   5.729
 3983POPC   GL251518  26.456   1.240   5.894
 3983POPC   C1A51519  26.956   1.376   6.153
 3983POPC   D2A51520  26.969   1.182   6.580
 3983POPC   C3A51521  26.715   1.443   6.844
 3983POPC   C4A51522  26.704   1.569   7.256
 3983POPC   C1B51523  26.602   1.004   6.253
 3983POPC   C2B51524  26.522   0.946   6.710
 3983POPC   C3B51525  26.827   0.947   7.040
 3983POPC   C4B51526  27.241   0.808   7.140
 3984POPC   NC351527  14.052  33.068   5.390
 3984POPC   PO451528  14.642  33.173   5.177
 3984POPC   GL151529  14.528  32.915   5.618
 3984POPC   GL251530  14.246  32.985   5.837
 3984POPC   C1A51531  14.580  32.766   6.114
 3984POPC   D2A51532  14.231  32.718   6.459
 3984POPC   C3A51533  14.281  32.679   6.903
 3984POPC   C4A51534  14.668  32.759   7.110
 3984POPC   C1B51535  14.100  33.130   6.217
 3984POPC   C2B51536  14.255  33.175   6.664
 3984POPC   C3B51537  14.319  33.166   7.100
 3984POPC   C4B51538  14.591  33.145   7.420
 3985POPC   NC351539  40.810  40.522   5.576
 3985POPC   PO451540  40.753  39.874   5.371
 3985POPC   GL151541  40.651  39.801   5.787
 3985POPC   GL251542  40.721  40.104   5.863
 3985POPC   C1A51543  40.804  39.616   6.167
 3985POPC   D2A51544  40.742  39.867   6.524
 3985POPC   C3A51545  40.909  39.775   6.916
 3985POPC   C4A51546  40.645  39.933   7.258
 3985POPC   C1B51547  41.046  40.065   6.149
 3985POPC   C2B51548  41.083  40.236   6.566
 3985POPC   C3B51549  40.920  40.275   6.983
 3985POPC   C4B51550  40.963  40.533   7.312
 3986POPC   NC351551   6.685   9.228   5.637
 3986POPC   PO451552   7.124   8.827   5.343
 3986POPC   GL151553   6.810   8.714   5.736
 3986POPC   GL251554   6.456   8.754   5.947
 3986POPC   C1A51555   6.866   8.728   6.221
 3986POPC   D2A51556   6.700   8.906   6.628
 3986POPC   C3A51557   6.700   8.676   7.030
 3986POPC   C4A51558   6.574   8.575   7.483
 3986POPC   C1B51559   6.429   9.146   6.239
 3986POPC   C2B51560   6.559   9.395   6.611
 3986POPC   C3B51561   6.634   9.262   7.035
 3986POPC   C4B51562   6.368   8.985   7.255
 3987POPC   NC351563  20.832  16.751   5.496
 3987POPC   PO451564  21.568  16.727   5.295
 3987POPC   GL151565  21.337  16.656   5.667
 3987POPC   GL251566  21.666  16.556   5.790
 3987POPC   C1A51567  21.204  16.662   6.127
 3987POPC   D2A51568  21.248  16.438   6.547
 3987POPC   C3A51569  21.129  16.656   6.926
 3987POPC   C4A51570  21.252  16.660   7.356
 3987POPC   C1B51571  21.732  16.692   6.215
 3987POPC   C2B51572  21.556  16.853   6.598
 3987POPC   C3B51573  21.649  16.736   7.016
 3987POPC   C4B51574  21.693  16.971   7.383
 3988POPC   NC351575  38.451  27.038   5.336
 3988POPC   PO451576  37.921  26.694   5.185
 3988POPC   GL151577  38.198  26.749   5.633
 3988POPC   GL251578  38.099  26.562   5.857
 3988POPC   C1A51579  38.331  27.009   6.019
 3988POPC   D2A51580  38.341  26.962   6.508
 3988POPC   C3A51581  38.676  26.757   6.748
 3988POPC   C4A51582  38.717  26.839   7.201
 3988POPC   C1B51583  38.347  26.544   6.219
 3988POPC   C2B51584  38.247  26.449   6.634
 3988POPC   C3B51585  38.264  26.644   7.042
 3988POPC   C4B51586  38.385  26.556   7.486
 3989POPC   NC351587   7.272  22.517   5.597
 3989POPC   PO451588   7.471  21.871   5.300
 3989POPC   GL151589   7.563  21.984   5.750
 3989POPC   GL251590   7.253  22.044   5.795
 3989POPC   C1A51591   7.535  22.070   6.222
 3989POPC   D2A51592   7.594  21.941   6.663
 3989POPC   C3A51593   7.580  22.193   7.052
 3989POPC   C4A51594   7.737  22.587   7.166
 3989POPC   C1B51595   7.039  21.881   6.156
 3989POPC   C2B51596   6.985  21.846   6.599
 3989POPC   C3B51597   7.102  21.957   7.014
 3989POPC   C4B51598   7.095  22.312   7.279
 3990POPC   NC351599  24.972  41.643   5.283
 3990POPC   PO451600  25.277  41.045   5.451
 3990POPC   GL151601  25.100  41.342   5.704
 3990POPC   GL251602  25.226  41.703   5.765
 3990POPC   C1A51603  25.088  41.295   6.127
 3990POPC   D2A51604  25.249  41.449   6.507
 3990POPC   C3A51605  25.065  41.623   6.858
 3990POPC   C4A51606  25.162  41.472   7.264
 3990POPC   C1B51607  25.183  41.883   6.212
 3990POPC   C2B51608  25.440  41.918   6.644
 3990POPC   C3B51609  25.369  41.960   7.126
 3990POPC   C4B51610  25.487  41.752   7.551
 3991POPC   NC351611  40.280  24.690   5.417
 3991POPC   PO451612  39.841  24.174   5.392
 3991POPC   GL151613  39.947  24.453   5.722
 3991POPC   GL251614  40.240  24.265   5.801
 3991POPC   C1A51615  39.804  24.700   6.065
 3991POPC   D2A51616  40.025  24.904   6.419
 3991POPC   C3A51617  40.033  24.739   6.839
 3991POPC   C4A51618  40.105  24.844   7.269
 3991POPC   C1B51619  40.179  24.432   6.234
 3991POPC   C2B51620  40.027  24.220   6.564
 3991POPC   C3B51621  39.912  24.049   6.929
 3991POPC   C4B51622  39.898  24.370   7.204
 3992POPC   NC351623  10.232  38.018   5.577
 3992POPC   PO451624  10.894  38.005   5.266
 3992POPC   GL151625  10.795  37.776   5.745
 3992POPC   GL251626  10.465  37.618   5.822
 3992POPC   C1A51627  10.606  37.875   6.230
 3992POPC   D2A51628  10.315  37.817   6.574
 3992POPC   C3A51629  10.293  37.913   7.008
 3992POPC   C4A51630  10.566  37.776   7.336
 3992POPC   C1B51631  10.682  37.353   6.142
 3992POPC   C2B51632  10.662  37.158   6.586
 3992POPC   C3B51633  10.576  37.330   7.013
 3992POPC   C4B51634  10.502  37.284   7.467
 3993POPC   NC351635  22.952   1.939   5.366
 3993POPC   PO451636  22.474   1.615   5.628
 3993POPC   GL151637  22.660   1.834   5.925
 3993POPC   GL251638  22.800   2.139   5.835
 3993POPC   C1A51639  22.816   1.799   6.309
 3993POPC   D2A51640  22.971   1.600   6.649
 3993POPC   C3A51641  22.853   1.660   7.067
 3993POPC   C4A51642  22.633   1.347   7.265
 3993POPC   C1B51643  22.783   2.310   6.255
 3993POPC   C2B51644  22.679   2.129   6.663
 3993POPC   C3B51645  22.953   2.148   6.989
 3993POPC   C4B51646  23.215   2.142   7.346
 3994POPC   NC351647  19.909  13.255   5.390
 3994POPC   PO451648  19.906  12.644   5.523
 3994POPC   GL151649  19.714  12.945   5.792
 3994POPC   GL251650  19.466  12.701   5.914
 3994POPC   C1A51651  19.659  13.064   6.220
 3994POPC   D2A51652  19.778  12.838   6.608
 3994POPC   C3A51653  19.942  12.902   6.990
 3994POPC   C4A51654  19.822  13.124   7.349
 3994POPC   C1B51655  19.716  12.538   6.215
 3994POPC   C2B51656  19.607  12.344   6.591
 3994POPC   C3B51657  19.669  12.447   6.985
 3994POPC   C4B51658  19.766  12.616   7.391
 3995POPC   NC351659  35.750  12.452   5.517
 3995POPC   PO451660  35.263  12.986   5.540
 3995POPC   GL151661  35.383  12.677   5.853
 3995POPC   GL251662  35.699  12.844   5.856
 3995POPC   C1A51663  35.541  12.604   6.305
 3995POPC   D2A51664  35.499  12.519   6.771
 3995POPC   C3A51665  35.162  12.631   7.093
 3995POPC   C4A51666  34.887  12.867   7.406
 3995POPC   C1B51667  35.462  13.097   6.171
 3995POPC   C2B51668  35.322  13.063   6.604
 3995POPC   C3B51669  35.513  13.006   7.004
 3995POPC   C4B51670  35.763  12.673   7.194
 3996POPC   NC351671  33.263  23.901   5.501
 3996POPC   PO451672  32.672  23.730   5.478
 3996POPC   GL151673  32.934  23.630   5.855
 3996POPC   GL251674  32.930  23.979   5.883
 3996POPC   C1A51675  32.988  23.757   6.352
 3996POPC   D2A51676  32.758  23.924   6.753
 3996POPC   C3A51677  32.996  23.891   7.159
 3996POPC   C4A51678  33.120  23.638   7.539
 3996POPC   C1B51679  33.253  24.120   6.137
 3996POPC   C2B51680  33.255  24.130   6.589
 3996POPC   C3B51681  33.392  24.213   7.005
 3996POPC   C4B51682  33.378  24.084   7.467
 3997POPC   NC351683   3.906   9.183   5.468
 3997POPC   PO451684   3.432   8.641   5.505
 3997POPC   GL151685   3.707   8.858   5.843
 3997POPC   GL251686   3.823   9.220   5.961
 3997POPC   C1A51687   3.574   8.885   6.266
 3997POPC   D2A51688   3.269   9.051   6.504
 3997POPC   C3A51689   3.414   9.045   6.907
 3997POPC   C4A51690   3.334   8.734   7.141
 3997POPC   C1B51691   3.529   9.424   6.236
 3997POPC   C2B51692   3.511   9.482   6.656
 3997POPC   C3B51693   3.828   9.346   6.943
 3997POPC   C4B51694   3.778   9.262   7.351
 3998POPC   NC351695  23.868  31.882   5.028
 3998POPC   PO451696  23.614  32.258   5.467
 3998POPC   GL151697  23.655  32.249   5.891
 3998POPC   GL251698  23.440  31.950   5.889
 3998POPC   C1A51699  23.893  32.294   6.296
 3998POPC   D2A51700  23.883  32.122   6.722
 3998POPC   C3A51701  23.875  32.429   7.052
 3998POPC   C4A51702  23.928  32.653   7.466
 3998POPC   C1B51703  23.556  31.926   6.313
 3998POPC   C2B51704  23.376  31.992   6.712
 3998POPC   C3B51705  23.544  31.992   7.131
 3998POPC   C4B51706  23.399  31.811   7.582
 3999POPC   NC351707  38.095  17.869   5.133
 3999POPC   PO451708  38.434  17.516   5.539
 3999POPC   GL151709  38.392  17.566   5.953
 3999POPC   GL251710  38.505  17.921   6.010
 3999POPC   C1A51711  38.485  17.292   6.306
 3999POPC   D2A51712  38.780  17.336   6.643
 3999POPC   C3A51713  38.604  17.576   6.950
 3999POPC   C4A51714  38.423  17.729   7.300
 3999POPC   C1B51715  38.358  17.790   6.416
 3999POPC   C2B51716  38.123  17.771   6.779
 3999POPC   C3B51717  38.025  18.001   7.135
 3999POPC   C4B51718  38.167  18.083   7.579
 4000POPC   NC351719  22.592   3.917   5.667
 4000POPC   PO451720  23.205   3.521   5.588
 4000POPC   GL151721  22.990   3.715   5.937
 4000POPC   GL251722  22.726   3.468   5.901
 4000POPC   C1A51723  22.658   3.818   6.291
 4000POPC   D2A51724  22.508   3.634   6.671
 4000POPC   C3A51725  22.896   3.525   6.876
 4000POPC   C4A51726  23.040   3.764   7.220
 4000POPC   C1B51727  22.842   3.327   6.313
 4000POPC   C2B51728  22.660   3.111   6.661
 4000POPC   C3B51729  22.848   3.022   7.033
 4000POPC   C4B51730  22.862   3.297   7.351
 4001POPC   NC351731  33.246  27.551   5.415
 4001POPC   PO451732  32.600  27.625   5.268
 4001POPC   GL151733  32.794  27.703   5.688
 4001POPC   GL251734  33.100  27.864   5.764
 4001POPC   C1A51735  32.754  27.676   6.137
 4001POPC   D2A51736  32.849  27.444   6.508
 4001POPC   C3A51737  32.613  27.595   6.858
 4001POPC   C4A51738  32.757  27.589   7.260
 4001POPC   C1B51739  33.262  27.721   6.155
 4001POPC   C2B51740  33.180  27.827   6.575
 4001POPC   C3B51741  33.157  27.580   6.939
 4001POPC   C4B51742  33.259  27.741   7.335
 4002POPC   NC351743  35.671  29.790   5.709
 4002POPC   PO451744  35.210  29.898   5.227
 4002POPC   GL151745  35.340  30.160   5.709
 4002POPC   GL251746  35.691  30.235   5.932
 4002POPC   C1A51747  35.286  30.144   6.185
 4002POPC   D2A51748  35.133  29.765   6.371
 4002POPC   C3A51749  35.078  29.784   6.806
 4002POPC   C4A51750  35.351  29.701   7.127
 4002POPC   C1B51751  35.808  30.217   6.348
 4002POPC   C2B51752  35.525  30.014   6.660
 4002POPC   C3B51753  35.369  30.201   7.003
 4002POPC   C4B51754  35.706  30.391   7.176
 4003POPC   NC351755  13.226  28.876   5.107
 4003POPC   PO451756  13.601  29.351   5.470
 4003POPC   GL151757  13.595  29.138   5.876
 4003POPC   GL251758  13.905  28.948   5.855
 4003POPC   C1A51759  13.443  28.928   6.280
 4003POPC   D2A51760  13.580  28.799   6.703
 4003POPC   C3A51761  13.268  28.862   7.046
 4003POPC   C4A51762  13.259  29.209   7.337
 4003POPC   C1B51763  13.922  29.131   6.275
 4003POPC   C2B51764  13.990  29.127   6.708
 4003POPC   C3B51765  13.710  29.169   7.035
 4003POPC   C4B51766  13.915  29.298   7.347
 4004POPC   NC351767  12.509  28.817   5.405
 4004POPC   PO451768  11.863  29.095   5.593
 4004POPC   GL151769  12.061  29.122   5.924
 4004POPC   GL251770  12.358  29.169   5.762
 4004POPC   C1A51771  12.024  29.208   6.327
 4004POPC   D2A51772  11.952  29.456   6.664
 4004POPC   C3A51773  11.956  29.220   7.010
 4004POPC   C4A51774  11.797  29.550   7.240
 4004POPC   C1B51775  12.467  29.393   6.114
 4004POPC   C2B51776  12.454  29.334   6.546
 4004POPC   C3B51777  12.445  29.522   6.916
 4004POPC   C4B51778  12.305  29.404   7.316
 4005POPC   NC351779  23.960  34.436   5.371
 4005POPC   PO451780  23.338  34.749   5.535
 4005POPC   GL151781  23.615  34.466   5.765
 4005POPC   GL251782  23.807  34.133   5.768
 4005POPC   C1A51783  23.697  34.547   6.185
 4005POPC   D2A51784  23.689  34.905   6.459
 4005POPC   C3A51785  23.614  34.771   6.874
 4005POPC   C4A51786  23.386  34.855   7.243
 4005POPC   C1B51787  23.977  34.129   6.196
 4005POPC   C2B51788  23.795  34.032   6.583
 4005POPC   C3B51789  23.877  34.103   7.005
 4005POPC   C4B51790  23.716  34.423   7.238
 4006POPC   NC351791  10.719  13.714   5.202
 4006POPC   PO451792  10.852  13.400   5.748
 4006POPC   GL151793  10.720  13.336   6.115
 4006POPC   GL251794  10.438  13.538   6.009
 4006POPC   C1A51795  10.527  13.341   6.482
 4006POPC   D2A51796  10.668  13.651   6.727
 4006POPC   C3A51797  10.659  13.490   7.106
 4006POPC   C4A51798  10.387  13.761   7.294
 4006POPC   C1B51799  10.122  13.241   6.134
 4006POPC   C2B51800   9.998  13.330   6.545
 4006POPC   C3B51801  10.209  13.433   6.891
 4006POPC   C4B51802  10.234  13.266   7.296
 4007POPC   NC351803  27.924  18.224   5.159
 4007POPC   PO451804  28.542  18.569   5.179
 4007POPC   GL151805  28.436  18.414   5.681
 4007POPC   GL251806  28.172  18.352   5.908
 4007POPC   C1A51807  28.578  18.407   6.188
 4007POPC   D2A51808  28.567  18.217   6.619
 4007POPC   C3A51809  28.720  18.352   7.061
 4007POPC   C4A51810  28.874  18.126   7.428
 4007POPC   C1B51811  28.057  18.350   6.353
 4007POPC   C2B51812  27.854  18.041   6.657
 4007POPC   C3B51813  27.969  17.871   7.065
 4007POPC   C4B51814  28.311  18.076   7.322
 4008POPC   NC351815  15.352  30.178   5.519
 4008POPC   PO451816  14.968  29.658   5.468
 4008POPC   GL151817  15.138  29.805   5.833
 4008POPC   GL251818  14.902  30.088   5.759
 4008POPC   C1A51819  15.238  29.829   6.291
 4008POPC   D2A51820  15.397  29.959   6.716
 4008POPC   C3A51821  15.390  29.742   7.102
 4008POPC   C4A51822  15.133  29.548   7.421
 4008POPC   C1B51823  14.910  30.193   6.178
 4008POPC   C2B51824  15.018  30.306   6.613
 4008POPC   C3B51825  15.104  30.353   7.041
 4008POPC   C4B51826  14.781  30.340   7.307
 4009POPC   NC351827   7.433  30.185   5.359
 4009POPC   PO451828   7.005  30.088   5.817
 4009POPC   GL151829   7.388  29.887   5.775
 4009POPC   GL251830   7.394  29.531   5.841
 4009POPC   C1A51831   7.620  29.972   6.104
 4009POPC   D2A51832   7.549  29.901   6.529
 4009POPC   C3A51833   7.254  30.028   6.850
 4009POPC   C4A51834   7.566  30.051   7.156
 4009POPC   C1B51835   7.208  29.607   6.267
 4009POPC   C2B51836   7.341  29.472   6.704
 4009POPC   C3B51837   7.397  29.570   7.135
 4009POPC   C4B51838   6.985  29.568   7.236
 4010POPC   NC351839  10.149  27.163   5.478
 4010POPC   PO451840   9.463  26.944   5.529
 4010POPC   GL151841   9.831  26.909   5.793
 4010POPC   GL251842   9.680  26.653   5.989
 4010POPC   C1A51843  10.025  26.961   6.187
 4010POPC   D2A51844   9.757  27.032   6.522
 4010POPC   C3A51845   9.958  27.021   6.904
 4010POPC   C4A51846   9.622  27.045   7.196
 4010POPC   C1B51847   9.944  26.416   6.200
 4010POPC   C2B51848   9.950  26.577   6.588
 4010POPC   C3B51849   9.712  26.576   6.945
 4010POPC   C4B51850   9.802  26.398   7.336
 4011POPC   NC351851  40.097  36.331   5.424
 4011POPC   PO451852  40.099  35.673   5.281
 4011POPC   GL151853  40.106  35.971   5.765
 4011POPC   GL251854  39.792  36.024   5.962
 4011POPC   C1A51855  40.154  36.286   6.148
 4011POPC   D2A51856  39.976  36.244   6.585
 4011POPC   C3A51857  40.243  36.396   6.935
 4011POPC   C4A51858  40.347  36.188   7.316
 4011POPC   C1B51859  39.548  36.050   6.342
 4011POPC   C2B51860  39.697  35.836   6.721
 4011POPC   C3B51861  39.901  35.966   7.090
 4011POPC   C4B51862  39.601  36.075   7.424
 4012POPC   NC351863   3.191  24.499   5.541
 4012POPC   PO451864   2.479  24.655   5.494
 4012POPC   GL151865   2.774  24.611   5.868
 4012POPC   GL251866   3.026  24.874   5.857
 4012POPC   C1A51867   2.753  24.639   6.347
 4012POPC   D2A51868   2.456  24.622   6.733
 4012POPC   C3A51869   2.688  24.523   7.101
 4012POPC   C4A51870   3.032  24.225   7.236
 4012POPC   C1B51871   3.243  24.814   6.227
 4012POPC   C2B51872   3.241  24.577   6.629
 4012POPC   C3B51873   3.202  24.672   7.089
 4012POPC   C4B51874   2.931  24.784   7.466
 4013POPC   NC351875   4.649  24.448   5.174
 4013POPC   PO451876   5.183  24.304   5.658
 4013POPC   GL151877   5.224  24.344   6.032
 4013POPC   GL251878   5.002  24.640   5.999
 4013POPC   C1A51879   5.096  24.400   6.418
 4013POPC   D2A51880   4.925  24.698   6.659
 4013POPC   C3A51881   5.076  24.456   6.963
 4013POPC   C4A51882   5.159  24.333   7.372
 4013POPC   C1B51883   5.287  24.886   6.305
 4013POPC   C2B51884   5.438  24.936   6.746
 4013POPC   C3B51885   5.409  24.761   7.160
 4013POPC   C4B51886   4.977  24.797   7.335
 4014POPC   NC351887  14.522  30.400   5.574
 4014POPC   PO451888  14.116  30.967   5.343
 4014POPC   GL151889  14.345  30.981   5.755
 4014POPC   GL251890  14.208  30.696   5.885
 4014POPC   C1A51891  14.554  30.887   6.176
 4014POPC   D2A51892  14.484  30.992   6.595
 4014POPC   C3A51893  14.655  30.697   6.881
 4014POPC   C4A51894  14.420  30.684   7.235
 4014POPC   C1B51895  14.085  30.619   6.330
 4014POPC   C2B51896  14.155  30.594   6.786
 4014POPC   C3B51897  13.972  30.480   7.214
 4014POPC   C4B51898  14.140  30.601   7.656
 4015POPC   NC351899  17.088  21.501   5.277
 4015POPC   PO451900  16.412  21.463   5.441
 4015POPC   GL151901  16.782  21.527   5.703
 4015POPC   GL251902  16.886  21.176   5.790
 4015POPC   C1A51903  17.001  21.594   6.103
 4015POPC   D2A51904  16.971  21.335   6.489
 4015POPC   C3A51905  16.810  21.549   6.875
 4015POPC   C4A51906  16.928  21.675   7.267
 4015POPC   C1B51907  16.567  21.311   6.134
 4015POPC   C2B51908  16.436  21.460   6.519
 4015POPC   C3B51909  16.355  21.330   6.947
 4015POPC   C4B51910  16.611  21.202   7.287
 4016POPC   NC351911  31.936   2.051   5.591
 4016POPC   PO451912  31.288   2.014   5.405
 4016POPC   GL151913  31.426   2.164   5.798
 4016POPC   GL251914  31.114   2.344   5.846
 4016POPC   C1A51915  31.639   1.980   6.170
 4016POPC   D2A51916  31.846   1.920   6.558
 4016POPC   C3A51917  31.741   2.095   6.979
 4016POPC   C4A51918  31.836   2.227   7.439
 4016POPC   C1B51919  31.108   1.956   6.149
 4016POPC   C2B51920  31.324   1.675   6.481
 4016POPC   C3B51921  31.297   1.804   6.921
 4016POPC   C4B51922  31.389   1.971   7.327
 4017POPC   NC351923  19.186  24.264   5.443
 4017POPC   PO451924  19.074  24.953   5.303
 4017POPC   GL151925  19.116  24.721   5.718
 4017POPC   GL251926  18.932  24.414   5.886
 4017POPC   C1A51927  19.201  24.731   6.175
 4017POPC   D2A51928  18.974  24.522   6.521
 4017POPC   C3A51929  19.125  24.625   6.941
 4017POPC   C4A51930  18.971  24.576   7.351
 4017POPC   C1B51931  19.255  24.205   6.216
 4017POPC   C2B51932  19.309  24.183   6.697
 4017POPC   C3B51933  19.065  24.145   7.110
 4017POPC   C4B51934  19.242  24.190   7.565
 4018POPC   NC351935  31.562  24.012   5.646
 4018POPC   PO451936  31.873  23.323   5.671
 4018POPC   GL151937  31.623  23.570   5.924
 4018POPC   GL251938  31.284  23.455   5.978
 4018POPC   C1A51939  31.718  23.679   6.337
 4018POPC   D2A51940  31.515  23.657   6.709
 4018POPC   C3A51941  31.584  23.704   7.168
 4018POPC   C4A51942  31.334  23.413   7.473
 4018POPC   C1B51943  31.243  23.867   6.236
 4018POPC   C2B51944  31.333  24.131   6.591
 4018POPC   C3B51945  31.145  23.899   6.928
 4018POPC   C4B51946  31.140  23.933   7.328
 4019POPC   NC351947  29.084  11.630   5.386
 4019POPC   PO451948  29.358  11.004   5.266
 4019POPC   GL151949  29.199  11.142   5.668
 4019POPC   GL251950  29.313  11.476   5.808
 4019POPC   C1A51951  29.127  11.084   6.131
 4019POPC   D2A51952  29.141  10.880   6.571
 4019POPC   C3A51953  28.970  11.073   6.943
 4019POPC   C4A51954  28.916  10.972   7.416
 4019POPC   C1B51955  28.966  11.574   6.111
 4019POPC   C2B51956  29.093  11.542   6.543
 4019POPC   C3B51957  29.287  11.463   6.945
 4019POPC   C4B51958  28.964  11.454   7.279
 4020POPC   NC351959  22.725  24.651   5.336
 4020POPC   PO451960  22.124  24.336   5.479
 4020POPC   GL151961  22.121  24.589   5.865
 4020POPC   GL251962  22.448  24.722   5.797
 4020POPC   C1A51963  21.945  24.592   6.280
 4020POPC   D2A51964  22.013  24.279   6.577
 4020POPC   C3A51965  21.968  24.452   6.950
 4020POPC   C4A51966  22.361  24.501   7.177
 4020POPC   C1B51967  22.488  24.631   6.252
 4020POPC   C2B51968  22.358  24.690   6.682
 4020POPC   C3B51969  22.380  24.981   7.042
 4020POPC   C4B51970  22.633  24.858   7.422
 4021POPC   NC351971  32.985  20.001   5.490
 4021POPC   PO451972  33.527  19.630   5.436
 4021POPC   GL151973  33.315  19.757   5.823
 4021POPC   GL251974  33.495  20.004   5.993
 4021POPC   C1A51975  33.135  19.806   6.277
 4021POPC   D2A51976  33.326  19.799   6.707
 4021POPC   C3A51977  33.055  19.587   7.029
 4021POPC   C4A51978  32.830  19.636   7.445
 4021POPC   C1B51979  33.367  20.268   6.286
 4021POPC   C2B51980  33.079  20.232   6.613
 4021POPC   C3B51981  33.003  20.082   7.055
 4021POPC   C4B51982  33.266  19.889   7.407
 4022POPC   NC351983  14.561  16.461   5.606
 4022POPC   PO451984  14.263  15.991   5.234
 4022POPC   GL151985  14.265  16.019   5.708
 4022POPC   GL251986  14.182  16.296   5.953
 4022POPC   C1A51987  14.245  15.818   6.145
 4022POPC   D2A51988  14.311  15.960   6.582
 4022POPC   C3A51989  14.177  15.870   7.003
 4022POPC   C4A51990  14.387  15.628   7.356
 4022POPC   C1B51991  14.565  16.291   6.258
 4022POPC   C2B51992  14.789  16.153   6.657
 4022POPC   C3B51993  14.686  15.807   6.940
 4022POPC   C4B51994  14.562  16.083   7.250
 4023POPC   NC351995  23.831  41.045   5.426
 4023POPC   PO451996  23.435  40.517   5.478
 4023POPC   GL151997  23.755  40.683   5.786
 4023POPC   GL251998  23.585  40.994   5.864
 4023POPC   C1A51999  24.048  40.738   6.145
 4023POPC   D2A52000  23.876  40.807   6.573
 4023POPC   C3A52001  24.020  40.668   6.943
 4023POPC   C4A52002  23.769  40.590   7.264
 4023POPC   C1B52003  23.485  40.799   6.243
 4023POPC   C2B52004  23.373  40.964   6.644
 4023POPC   C3B52005  23.609  41.011   7.027
 4023POPC   C4B52006  23.828  41.051   7.474
 4024POPC   NC352007   6.245  16.500   5.159
 4024POPC   PO452008   6.678  16.985   5.439
 4024POPC   GL152009   6.453  16.855   5.787
 4024POPC   GL252010   6.277  17.077   5.957
 4024POPC   C1A52011   6.545  16.653   6.195
 4024POPC   D2A52012   6.731  16.606   6.604
 4024POPC   C3A52013   6.437  16.579   6.919
 4024POPC   C4A52014   6.663  16.551   7.304
 4024POPC   C1B52015   6.658  17.159   6.199
 4024POPC   C2B52016   6.858  17.152   6.596
 4024POPC   C3B52017   6.686  17.019   6.987
 4024POPC   C4B52018   6.884  16.998   7.357
 4025POPC   NC352019  27.127  18.242   5.285
 4025POPC   PO452020  26.526  17.985   5.563
 4025POPC   GL152021  26.690  18.269   5.905
 4025POPC   GL252022  26.948  18.478   5.843
 4025POPC   C1A52023  26.800  18.159   6.343
 4025POPC   D2A52024  26.523  18.276   6.696
 4025POPC   C3A52025  26.725  18.351   7.072
 4025POPC   C4A52026  26.799  17.962   7.238
 4025POPC   C1B52027  27.063  18.578   6.266
 4025POPC   C2B52028  27.091  18.453   6.710
 4025POPC   C3B52029  27.171  18.622   7.148
 4025POPC   C4B52030  26.971  18.782   7.541
 4026POPC   NC352031  42.980  26.772   5.396
 4026POPC   PO452032  43.275  27.321   5.491
 4026POPC   GL152033  43.097  27.070   5.853
 4026POPC   GL252034  42.738  26.992   5.779
 4026POPC   C1A52035  43.116  26.961   6.322
 4026POPC   D2A52036  43.398  26.885   6.689
 4026POPC   C3A52037  43.229  26.742   7.080
 4026POPC   C4A52038  42.803  26.581   7.116
 4026POPC   C1B52039  42.647  27.137   6.169
 4026POPC   C2B52040  42.734  27.247   6.566
 4026POPC   C3B52041  42.971  27.131   6.883
 4026POPC   C4B52042  42.957  27.481   7.072
 4027POPC   NC352043  32.194  22.619   5.589
 4027POPC   PO452044  32.469  23.142   5.226
 4027POPC   GL152045  32.529  23.195   5.748
 4027POPC   GL252046  32.224  23.049   5.887
 4027POPC   C1A52047  32.571  23.043   6.232
 4027POPC   D2A52048  32.505  22.773   6.612
 4027POPC   C3A52049  32.554  22.991   7.008
 4027POPC   C4A52050  32.292  22.951   7.368
 4027POPC   C1B52051  32.116  23.327   6.256
 4027POPC   C2B52052  32.231  23.197   6.636
 4027POPC   C3B52053  32.026  23.009   6.941
 4027POPC   C4B52054  32.020  23.411   7.147
 4028POPC   NC352055  18.612   6.926   5.510
 4028POPC   PO452056  18.383   7.584   5.381
 4028POPC   GL152057  18.425   7.375   5.784
 4028POPC   GL252058  18.083   7.340   5.930
 4028POPC   C1A52059  18.520   7.120   6.166
 4028POPC   D2A52060  18.355   6.984   6.559
 4028POPC   C3A52061  18.533   7.116   6.916
 4028POPC   C4A52062  18.268   7.256   7.221
 4028POPC   C1B52063  18.300   7.662   6.203
 4028POPC   C2B52064  18.180   7.816   6.640
 4028POPC   C3B52065  18.156   7.756   7.117
 4028POPC   C4B52066  18.166   7.640   7.581
 4029POPC   NC352067  39.776  15.479   5.426
 4029POPC   PO452068  40.420  15.269   5.388
 4029POPC   GL152069  40.145  15.146   5.794
 4029POPC   GL252070  39.767  15.122   5.809
 4029POPC   C1A52071  39.958  15.091   6.271
 4029POPC   D2A52072  39.971  15.407   6.593
 4029POPC   C3A52073  40.103  15.262   6.954
 4029POPC   C4A52074  40.028  14.863   7.083
 4029POPC   C1B52075  39.617  15.472   6.130
 4029POPC   C2B52076  39.489  15.570   6.592
 4029POPC   C3B52077  39.607  15.361   6.999
 4029POPC   C4B52078  39.842  15.266   7.395
 4030POPC   NC352079  40.070   3.402   5.446
 4030POPC   PO452080  39.646   3.842   5.567
 4030POPC   GL152081  39.971   3.693   5.890
 4030POPC   GL252082  40.279   3.472   5.900
 4030POPC   C1A52083  40.000   3.565   6.341
 4030POPC   D2A52084  40.011   3.722   6.763
 4030POPC   C3A52085  40.160   3.390   7.054
 4030POPC   C4A52086  40.102   3.371   7.503
 4030POPC   C1B52087  40.436   3.782   6.188
 4030POPC   C2B52088  40.485   3.625   6.597
 4030POPC   C3B52089  40.474   3.785   6.988
 4030POPC   C4B52090  40.106   3.848   7.277
 4031POPC   NC352091  18.861  14.929   5.336
 4031POPC   PO452092  19.227  15.537   5.423
 4031POPC   GL152093  19.126  15.188   5.708
 4031POPC   GL252094  18.785  15.038   5.816
 4031POPC   C1A52095  19.208  15.154   6.140
 4031POPC   D2A52096  19.070  15.363   6.487
 4031POPC   C3A52097  19.264  15.259   6.850
 4031POPC   C4A52098  19.189  15.405   7.267
 4031POPC   C1B52099  18.692  15.054   6.237
 4031POPC   C2B52100  18.725  15.017   6.651
 4031POPC   C3B52101  18.793  15.219   7.000
 4031POPC   C4B52102  18.932  14.966   7.333
 4032POPC   NC352103  37.735   6.222   5.291
 4032POPC   PO452104  37.349   5.721   5.480
 4032POPC   GL152105  37.576   5.912   5.800
 4032POPC   GL252106  37.548   5.577   5.949
 4032POPC   C1A52107  37.626   6.149   6.190
 4032POPC   D2A52108  37.458   6.199   6.615
 4032POPC   C3A52109  37.615   6.126   7.020
 4032POPC   C4A52110  37.517   5.720   7.170
 4032POPC   C1B52111  37.847   5.654   6.242
 4032POPC   C2B52112  37.821   5.814   6.648
 4032POPC   C3B52113  38.018   5.792   7.031
 4032POPC   C4B52114  38.083   5.527   7.365
 4033POPC   NC352115  32.187  20.105   5.362
 4033POPC   PO452116  32.619  19.715   5.455
 4033POPC   GL152117  32.499  20.064   5.780
 4033POPC   GL252118  32.145  20.266   5.850
 4033POPC   C1A52119  32.474  19.916   6.220
 4033POPC   D2A52120  32.726  19.878   6.617
 4033POPC   C3A52121  32.532  19.793   7.010
 4033POPC   C4A52122  32.452  19.990   7.383
 4033POPC   C1B52123  31.994  20.088   6.256
 4033POPC   C2B52124  32.199  19.993   6.653
 4033POPC   C3B52125  32.075  20.110   7.071
 4033POPC   C4B52126  31.845  20.236   7.453
 4034POPC   NC352127  22.392  32.707   5.032
 4034POPC   PO452128  22.004  32.328   5.438
 4034POPC   GL152129  22.027  32.002   5.765
 4034POPC   GL252130  21.687  31.926   5.923
 4034POPC   C1A52131  22.226  32.046   6.171
 4034POPC   D2A52132  22.415  32.114   6.582
 4034POPC   C3A52133  22.228  32.132   7.018
 4034POPC   C4A52134  22.306  32.420   7.355
 4034POPC   C1B52135  21.788  32.317   6.135
 4034POPC   C2B52136  21.993  32.539   6.480
 4034POPC   C3B52137  22.052  32.593   6.906
 4034POPC   C4B52138  21.800  32.418   7.207
 4035POPC   NC352139  35.390  13.865   5.301
 4035POPC   PO452140  34.977  13.802   5.816
 4035POPC   GL152141  35.352  13.667   5.952
 4035POPC   GL252142  35.625  13.449   5.780
 4035POPC   C1A52143  35.272  13.529   6.362
 4035POPC   D2A52144  35.164  13.527   6.770
 4035POPC   C3A52145  35.037  13.794   7.083
 4035POPC   C4A52146  35.443  13.843   7.277
 4035POPC   C1B52147  35.766  13.561   6.219
 4035POPC   C2B52148  35.706  13.485   6.651
 4035POPC   C3B52149  35.760  13.521   7.077
 4035POPC   C4B52150  35.771  13.234   7.411
 4036POPC   NC352151   4.914  44.735   5.651
 4036POPC   PO452152   4.299  44.704   5.362
 4036POPC   GL152153   4.184  44.609   5.820
 4036POPC   GL252154   4.497  44.707   5.953
 4036POPC   C1A52155   4.197  44.438   6.266
 4036POPC   D2A52156   4.132  44.648   6.671
 4036POPC   C3A52157   4.327  44.408   7.005
 4036POPC   C4A52158   4.221  44.287   7.422
 4036POPC   C1B52159   4.421  44.969   6.309
 4036POPC   C2B52160   4.673  44.948   6.683
 4036POPC   C3B52161   4.747  44.903   7.099
 4036POPC   C4B52162   4.550  44.661   7.431
 4037POPC   NC352163  17.278  25.882   5.579
 4037POPC   PO452164  17.777  26.251   5.228
 4037POPC   GL152165  17.720  26.246   5.723
 4037POPC   GL252166  17.364  26.266   5.898
 4037POPC   C1A52167  17.805  26.089   6.160
 4037POPC   D2A52168  17.604  26.169   6.579
 4037POPC   C3A52169  17.613  26.264   7.046
 4037POPC   C4A52170  17.173  26.351   7.189
 4037POPC   C1B52171  17.346  25.878   6.214
 4037POPC   C2B52172  17.417  25.672   6.607
 4037POPC   C3B52173  17.454  25.748   7.046
 4037POPC   C4B52174  17.507  25.496   7.410
 4038POPC   NC352175  36.721   3.934   5.677
 4038POPC   PO452176  36.799   3.428   5.222
 4038POPC   GL152177  36.888   3.438   5.748
 4038POPC   GL252178  37.223   3.283   5.828
 4038POPC   C1A52179  36.862   3.639   6.217
 4038POPC   D2A52180  36.687   3.837   6.617
 4038POPC   C3A52181  36.933   3.771   7.030
 4038POPC   C4A52182  36.820   3.631   7.473
 4038POPC   C1B52183  37.123   3.199   6.273
 4038POPC   C2B52184  36.973   3.394   6.663
 4038POPC   C3B52185  36.834   3.255   7.071
 4038POPC   C4B52186  37.116   3.204   7.389
 4039POPC   NC352187  41.754  24.720   5.385
 4039POPC   PO452188  41.358  24.245   5.585
 4039POPC   GL152189  41.595  24.443   5.856
 4039POPC   GL252190  41.565  24.788   5.857
 4039POPC   C1A52191  41.513  24.479   6.290
 4039POPC   D2A52192  41.493  24.363   6.718
 4039POPC   C3A52193  41.788  24.193   6.965
 4039POPC   C4A52194  41.932  24.365   7.343
 4039POPC   C1B52195  41.850  24.860   6.211
 4039POPC   C2B52196  41.876  24.908   6.664
 4039POPC   C3B52197  41.691  24.725   7.030
 4039POPC   C4B52198  41.412  24.439   7.237
 4040POPC   NC352199   0.361   7.039   5.074
 4040POPC   PO452200   0.496   6.629   5.625
 4040POPC   GL152201   0.233   6.588   5.951
 4040POPC   GL252202   0.340   6.265   6.085
 4040POPC   C1A52203   0.188   6.742   6.360
 4040POPC   D2A52204   0.349   6.572   6.736
 4040POPC   C3A52205   0.054   6.650   7.037
 4040POPC   C4A52206   0.118   6.925   7.372
 4040POPC   C1B52207   0.662   6.549   6.265
 4040POPC   C2B52208   0.783   6.876   6.538
 4040POPC   C3B52209   0.802   6.759   6.947
 4040POPC   C4B52210   0.510   6.647   7.238
 4041POPC   NC352211  20.934   1.854   5.554
 4041POPC   PO452212  21.571   1.785   5.466
 4041POPC   GL152213  21.606   2.003   5.823
 4041POPC   GL252214  21.270   2.122   5.829
 4041POPC   C1A52215  21.494   1.853   6.232
 4041POPC   D2A52216  21.359   2.042   6.612
 4041POPC   C3A52217  21.574   1.911   6.996
 4041POPC   C4A52218  21.476   1.611   7.306
 4041POPC   C1B52219  21.184   2.377   6.200
 4041POPC   C2B52220  21.017   2.417   6.621
 4041POPC   C3B52221  21.245   2.343   7.016
 4041POPC   C4B52222  21.282   2.537   7.454
 4042POPC   NC352223  15.590  12.798   5.486
 4042POPC   PO452224  15.054  13.068   5.354
 4042POPC   GL152225  15.167  12.902   5.778
 4042POPC   GL252226  15.136  12.533   5.839
 4042POPC   C1A52227  15.424  12.910   6.166
 4042POPC   D2A52228  15.240  13.076   6.546
 4042POPC   C3A52229  15.343  12.855   6.914
 4042POPC   C4A52230  15.527  12.976   7.286
 4042POPC   C1B52231  14.955  12.721   6.215
 4042POPC   C2B52232  14.849  12.741   6.631
 4042POPC   C3B52233  14.833  12.988   6.984
 4042POPC   C4B52234  15.030  12.870   7.343
 4043POPC   NC352235  40.782  20.611   5.358
 4043POPC   PO452236  40.810  21.199   5.582
 4043POPC   GL152237  40.931  20.811   5.810
 4043POPC   GL252238  40.638  20.555   5.840
 4043POPC   C1A52239  41.022  20.525   6.171
 4043POPC   D2A52240  40.938  20.458   6.610
 4043POPC   C3A52241  40.768  20.784   6.877
 4043POPC   C4A52242  40.914  20.928   7.287
 4043POPC   C1B52243  40.573  20.806   6.227
 4043POPC   C2B52244  40.319  20.662   6.599
 4043POPC   C3B52245  40.443  20.375   6.917
 4043POPC   C4B52246  40.653  20.487   7.270
 4044POPC   NC352247  21.844  18.715   5.653
 4044POPC   PO452248  22.216  18.165   5.452
 4044POPC   GL152249  22.196  18.349   5.802
 4044POPC   GL252250  22.425  18.580   5.745
 4044POPC   C1A52251  22.067  18.166   6.163
 4044POPC   D2A52252  21.883  18.077   6.541
 4044POPC   C3A52253  21.983  18.170   6.930
 4044POPC   C4A52254  21.958  18.431   7.263
 4044POPC   C1B52255  22.546  18.350   6.172
 4044POPC   C2B52256  22.355  18.288   6.568
 4044POPC   C3B52257  22.349  18.527   6.928
 4044POPC   C4B52258  22.540  18.464   7.276
 4045POPC   NC352259  40.585  17.625   5.467
 4045POPC   PO452260  41.231  17.530   5.283
 4045POPC   GL152261  40.956  17.413   5.723
 4045POPC   GL252262  40.844  17.689   5.930
 4045POPC   C1A52263  40.627  17.261   6.075
 4045POPC   D2A52264  40.658  17.127   6.515
 4045POPC   C3A52265  40.821  17.375   6.865
 4045POPC   C4A52266  40.690  17.282   7.266
 4045POPC   C1B52267  40.873  17.591   6.370
 4045POPC   C2B52268  40.755  17.856   6.679
 4045POPC   C3B52269  40.491  17.855   6.984
 4045POPC   C4B52270  40.725  17.771   7.317
 4046POPC   NC352271   0.807   5.398   5.475
 4046POPC   PO452272   0.389   4.918   5.333
 4046POPC   GL152273   0.298   5.173   5.733
 4046POPC   GL252274   0.614   5.042   5.837
 4046POPC   C1A52275   0.328   5.243   6.220
 4046POPC   D2A52276   0.380   4.945   6.578
 4046POPC   C3A52277   0.178   4.774   6.969
 4046POPC   C4A52278   0.264   4.834   7.389
 4046POPC   C1B52279   0.797   5.052   6.250
 4046POPC   C2B52280   0.844   5.164   6.666
 4046POPC   C3B52281   0.709   5.109   7.090
 4046POPC   C4B52282   0.912   5.263   7.437
 4047POPC   NC352283   0.391  13.686   5.316
 4047POPC   PO452284   1.031  13.715   5.142
 4047POPC   GL152285   0.799  13.707   5.648
 4047POPC   GL252286   0.444  13.649   5.815
 4047POPC   C1A52287   0.770  13.849   6.131
 4047POPC   D2A52288   0.995  13.684   6.508
 4047POPC   C3A52289   0.841  13.738   6.960
 4047POPC   C4A52290   0.516  13.695   7.267
 4047POPC   C1B52291   0.279  13.728   6.254
 4047POPC   C2B52292   0.403  13.757   6.687
 4047POPC   C3B52293   0.182  13.474   6.947
 4047POPC   C4B52294  44.780  13.478   7.186
 4048POPC   NC352295  14.762  27.835   5.391
 4048POPC   PO452296  14.353  27.342   5.569
 4048POPC   GL152297  14.163  27.567   5.943
 4048POPC   GL252298  14.433  27.780   5.913
 4048POPC   C1A52299  14.166  27.653   6.398
 4048POPC   D2A52300  14.292  27.298   6.668
 4048POPC   C3A52301  14.016  27.220   7.047
 4048POPC   C4A52302  14.088  27.523   7.412
 4048POPC   C1B52303  14.585  27.455   6.214
 4048POPC   C2B52304  14.653  27.704   6.558
 4048POPC   C3B52305  14.468  27.762   6.946
 4048POPC   C4B52306  14.494  27.390   7.130
 4049POPC   NC352307  20.318  11.361   5.444
 4049POPC   PO452308  20.856  10.927   5.475
 4049POPC   GL152309  20.731  11.317   5.748
 4049POPC   GL252310  20.978  11.554   5.870
 4049POPC   C1A52311  20.424  11.486   6.092
 4049POPC   D2A52312  20.512  11.548   6.555
 4049POPC   C3A52313  20.255  11.619   6.898
 4049POPC   C4A52314  20.092  11.488   7.255
 4049POPC   C1B52315  20.881  11.354   6.256
 4049POPC   C2B52316  20.981  11.399   6.697
 4049POPC   C3B52317  20.920  11.205   7.085
 4049POPC   C4B52318  20.925  11.344   7.537
 4050POPC   NC352319  39.249  19.880   5.385
 4050POPC   PO452320  39.878  19.836   5.397
 4050POPC   GL152321  39.581  19.678   5.772
 4050POPC   GL252322  39.164  19.666   5.830
 4050POPC   C1A52323  39.481  19.724   6.224
 4050POPC   D2A52324  39.258  19.911   6.567
 4050POPC   C3A52325  39.376  19.634   6.863
 4050POPC   C4A52326  39.408  19.638   7.266
 4050POPC   C1B52327  38.930  19.678   6.220
 4050POPC   C2B52328  38.964  19.449   6.628
 4050POPC   C3B52329  38.924  19.553   7.061
 4050POPC   C4B52330  39.039  19.994   7.190
 4051POPC   NC352331  38.003  40.802   5.578
 4051POPC   PO452332  38.702  40.743   5.315
 4051POPC   GL152333  38.510  40.803   5.740
 4051POPC   GL252334  38.667  41.109   5.845
 4051POPC   C1A52335  38.319  40.598   6.135
 4051POPC   D2A52336  38.442  40.375   6.516
 4051POPC   C3A52337  38.334  40.523   6.926
 4051POPC   C4A52338  38.703  40.545   7.166
 4051POPC   C1B52339  38.380  41.104   6.192
 4051POPC   C2B52340  38.304  40.917   6.587
 4051POPC   C3B52341  38.472  41.013   7.001
 4051POPC   C4B52342  38.582  41.093   7.421
 4052POPC   NC352343  13.727  17.010   5.559
 4052POPC   PO452344  13.393  16.381   5.446
 4052POPC   GL152345  13.653  16.517   5.802
 4052POPC   GL252346  13.917  16.732   5.941
 4052POPC   C1A52347  13.455  16.727   6.181
 4052POPC   D2A52348  13.182  16.633   6.564
 4052POPC   C3A52349  13.347  16.524   6.994
 4052POPC   C4A52350  13.750  16.518   7.199
 4052POPC   C1B52351  13.863  17.042   6.247
 4052POPC   C2B52352  13.664  16.897   6.618
 4052POPC   C3B52353  13.753  16.995   7.010
 4052POPC   C4B52354  14.113  16.881   7.255
 4053POPC   NC352355  27.888  41.980   5.401
 4053POPC   PO452356  28.469  42.286   5.479
 4053POPC   GL152357  28.195  42.184   5.788
 4053POPC   GL252358  28.071  42.521   5.784
 4053POPC   C1A52359  28.341  42.267   6.212
 4053POPC   D2A52360  28.445  42.454   6.600
 4053POPC   C3A52361  28.350  42.159   6.899
 4053POPC   C4A52362  28.479  42.065   7.281
 4053POPC   C1B52363  28.068  42.704   6.197
 4053POPC   C2B52364  27.980  42.834   6.618
 4053POPC   C3B52365  28.098  42.608   6.977
 4053POPC   C4B52366  28.468  42.573   7.263
 4054POPC   NC352367  23.746  37.564   5.511
 4054POPC   PO452368  23.345  37.066   5.642
 4054POPC   GL152369  23.570  37.284   5.949
 4054POPC   GL252370  23.502  37.640   5.957
 4054POPC   C1A52371  23.942  37.441   6.178
 4054POPC   D2A52372  24.009  37.772   6.501
 4054POPC   C3A52373  23.838  37.700   6.912
 4054POPC   C4A52374  24.076  37.489   7.212
 4054POPC   C1B52375  23.534  37.921   6.316
 4054POPC   C2B52376  23.439  37.997   6.750
 4054POPC   C3B52377  23.553  38.069   7.195
 4054POPC   C4B52378  23.488  37.984   7.624
 4055POPC   NC352379  34.399  15.841   5.355
 4055POPC   PO452380  34.739  16.439   5.342
 4055POPC   GL152381  34.765  16.215   5.769
 4055POPC   GL252382  34.932  15.897   5.646
 4055POPC   C1A52383  34.577  16.100   6.229
 4055POPC   D2A52384  34.662  16.266   6.681
 4055POPC   C3A52385  34.438  16.146   7.107
 4055POPC   C4A52386  34.341  16.144   7.593
 4055POPC   C1B52387  34.910  15.756   6.071
 4055POPC   C2B52388  35.027  15.865   6.498
 4055POPC   C3B52389  34.900  15.885   6.923
 4055POPC   C4B52390  34.887  15.664   7.326
 4056POPC   NC352391  16.409  42.038   5.406
 4056POPC   PO452392  17.059  42.297   5.259
 4056POPC   GL152393  16.923  42.177   5.733
 4056POPC   GL252394  16.598  42.032   5.858
 4056POPC   C1A52395  16.839  42.342   6.180
 4056POPC   D2A52396  17.045  42.158   6.562
 4056POPC   C3A52397  17.023  42.305   6.954
 4056POPC   C4A52398  16.799  42.278   7.295
 4056POPC   C1B52399  16.433  42.038   6.243
 4056POPC   C2B52400  16.470  42.273   6.585
 4056POPC   C3B52401  16.487  42.094   6.962
 4056POPC   C4B52402  16.524  41.759   7.246
 4057POPC   NC352403   5.011  22.721   5.455
 4057POPC   PO452404   5.226  23.328   5.442
 4057POPC   GL152405   5.314  23.103   5.795
 4057POPC   GL252406   4.975  23.000   5.881
 4057POPC   C1A52407   5.385  22.956   6.212
 4057POPC   D2A52408   5.135  22.991   6.576
 4057POPC   C3A52409   5.134  22.757   6.957
 4057POPC   C4A52410   5.228  22.869   7.351
 4057POPC   C1B52411   4.994  23.361   6.167
 4057POPC   C2B52412   4.959  23.474   6.612
 4057POPC   C3B52413   5.012  23.274   7.012
 4057POPC   C4B52414   5.021  23.322   7.428
 4058POPC   NC352415  12.450  18.241   5.472
 4058POPC   PO452416  11.827  17.992   5.433
 4058POPC   GL152417  11.982  18.261   5.760
 4058POPC   GL252418  12.228  18.063   5.932
 4058POPC   C1A52419  11.922  18.434   6.197
 4058POPC   D2A52420  12.035  18.257   6.611
 4058POPC   C3A52421  11.893  18.411   7.032
 4058POPC   C4A52422  11.678  18.475   7.442
 4058POPC   C1B52423  11.833  17.913   6.179
 4058POPC   C2B52424  11.646  17.923   6.624
 4058POPC   C3B52425  11.973  17.875   6.950
 4058POPC   C4B52426  12.151  18.020   7.322
 4059POPC   NC352427   4.699  14.372   5.524
 4059POPC   PO452428   4.097  14.574   5.355
 4059POPC   GL152429   4.299  14.600   5.799
 4059POPC   GL252430   4.452  14.268   5.941
 4059POPC   C1A52431   4.139  14.519   6.240
 4059POPC   D2A52432   3.903  14.257   6.505
 4059POPC   C3A52433   4.222  14.267   6.800
 4059POPC   C4A52434   4.370  14.377   7.203
 4059POPC   C1B52435   4.687  14.160   6.288
 4059POPC   C2B52436   4.697  14.380   6.646
 4059POPC   C3B52437   4.746  14.090   6.985
 4059POPC   C4B52438   4.687  13.937   7.393
 4060POPC   NC352439   2.062  31.430   5.386
 4060POPC   PO452440   1.444  31.552   5.325
 4060POPC   GL152441   1.718  31.610   5.767
 4060POPC   GL252442   2.121  31.674   5.826
 4060POPC   C1A52443   1.865  31.472   6.211
 4060POPC   D2A52444   1.685  31.479   6.620
 4060POPC   C3A52445   1.838  31.592   7.016
 4060POPC   C4A52446   1.831  31.442   7.441
 4060POPC   C1B52447   2.052  31.950   6.197
 4060POPC   C2B52448   2.019  31.904   6.644
 4060POPC   C3B52449   2.161  32.037   7.047
 4060POPC   C4B52450   1.850  31.972   7.348
 4061POPC   NC352451  34.736  33.680   5.370
 4061POPC   PO452452  34.080  33.891   5.485
 4061POPC   GL152453  34.474  33.827   5.802
 4061POPC   GL252454  34.804  34.017   5.763
 4061POPC   C1A52455  34.588  33.607   6.216
 4061POPC   D2A52456  34.785  33.427   6.603
 4061POPC   C3A52457  34.559  33.359   6.988
 4061POPC   C4A52458  34.376  33.504   7.356
 4061POPC   C1B52459  34.701  34.084   6.197
 4061POPC   C2B52460  34.794  33.959   6.619
 4061POPC   C3B52461  34.976  33.990   7.023
 4061POPC   C4B52462  34.596  33.977   7.267
 4062POPC   NC352463   2.686  43.185   5.405
 4062POPC   PO452464   3.244  43.327   5.621
 4062POPC   GL152465   2.899  43.098   5.862
 4062POPC   GL252466   2.607  43.351   5.913
 4062POPC   C1A52467   2.808  43.045   6.296
 4062POPC   D2A52468   3.063  43.063   6.666
 4062POPC   C3A52469   2.907  42.938   7.037
 4062POPC   C4A52470   2.540  42.868   7.272
 4062POPC   C1B52471   2.423  43.408   6.340
 4062POPC   C2B52472   2.551  43.211   6.721
 4062POPC   C3B52473   2.592  43.363   7.091
 4062POPC   C4B52474   2.278  43.554   7.286
 4063POPC   NC352475  42.644  30.620   5.565
 4063POPC   PO452476  43.204  30.895   5.291
 4063POPC   GL152477  43.052  30.888   5.721
 4063POPC   GL252478  42.797  31.102   5.829
 4063POPC   C1A52479  42.982  30.667   6.142
 4063POPC   D2A52480  43.101  30.351   6.474
 4063POPC   C3A52481  42.952  30.492   6.871
 4063POPC   C4A52482  43.196  30.532   7.208
 4063POPC   C1B52483  43.111  31.174   6.148
 4063POPC   C2B52484  43.295  30.934   6.498
 4063POPC   C3B52485  43.143  31.005   6.899
 4063POPC   C4B52486  42.847  30.901   7.205
 4064POPC   NC352487   3.848  19.726   5.316
 4064POPC   PO452488   3.350  20.071   5.119
 4064POPC   GL152489   3.500  19.957   5.671
 4064POPC   GL252490   3.399  19.736   5.993
 4064POPC   C1A52491   3.728  20.103   6.105
 4064POPC   D2A52492   3.768  20.217   6.580
 4064POPC   C3A52493   3.824  19.838   6.881
 4064POPC   C4A52494   3.736  19.741   7.307
 4064POPC   C1B52495   3.561  19.705   6.437
 4064POPC   C2B52496   3.363  19.646   6.865
 4064POPC   C3B52497   3.280  19.513   7.269
 4064POPC   C4B52498   3.238  19.515   7.737
 4065POPC   NC352499  32.915  32.580   5.287
 4065POPC   PO452500  33.288  32.056   5.316
 4065POPC   GL152501  33.203  32.336   5.678
 4065POPC   GL252502  32.876  32.332   5.748
 4065POPC   C1A52503  33.193  32.507   6.135
 4065POPC   D2A52504  33.163  32.349   6.594
 4065POPC   C3A52505  32.977  32.628   6.956
 4065POPC   C4A52506  32.887  32.686   7.420
 4065POPC   C1B52507  32.831  32.138   6.163
 4065POPC   C2B52508  32.916  31.830   6.474
 4065POPC   C3B52509  32.904  31.879   6.899
 4065POPC   C4B52510  32.890  32.181   7.244
 4066POPC   NC352511  14.832  36.179   5.203
 4066POPC   PO452512  15.362  36.417   5.778
 4066POPC   GL152513  15.324  36.087   6.026
 4066POPC   GL252514  15.572  35.835   5.924
 4066POPC   C1A52515  15.200  36.150   6.478
 4066POPC   D2A52516  15.131  36.038   6.931
 4066POPC   C3A52517  15.094  36.375   7.238
 4066POPC   C4A52518  14.944  36.367   7.661
 4066POPC   C1B52519  15.446  35.724   6.354
 4066POPC   C2B52520  15.601  35.871   6.727
 4066POPC   C3B52521  15.616  35.621   7.074
 4066POPC   C4B52522  15.478  35.701   7.481
 4067POPC   NC352523   8.346  44.305   5.453
 4067POPC   PO452524   8.202  43.766   5.121
 4067POPC   GL152525   8.151  43.821   5.643
 4067POPC   GL252526   7.863  43.648   5.854
 4067POPC   C1A52527   8.190  43.931   6.118
 4067POPC   D2A52528   8.069  44.182   6.508
 4067POPC   C3A52529   8.254  44.085   6.903
 4067POPC   C4A52530   8.426  43.817   7.251
 4067POPC   C1B52531   7.752  43.758   6.317
 4067POPC   C2B52532   7.754  43.835   6.786
 4067POPC   C3B52533   7.917  43.898   7.229
 4067POPC   C4B52534   7.941  43.529   7.471
 4068POPC   NC352535  10.212  32.064   5.225
 4068POPC   PO452536  10.551  32.469   5.674
 4068POPC   GL152537  10.400  32.093   5.909
 4068POPC   GL252538  10.691  31.916   5.983
 4068POPC   C1A52539  10.369  31.893   6.350
 4068POPC   D2A52540  10.203  32.216   6.559
 4068POPC   C3A52541  10.311  32.298   6.986
 4068POPC   C4A52542  10.412  32.669   7.192
 4068POPC   C1B52543  10.709  32.282   6.285
 4068POPC   C2B52544  10.607  32.531   6.642
 4068POPC   C3B52545  10.824  32.439   7.036
 4068POPC   C4B52546  10.933  32.068   7.281
 4069POPC   NC352547   9.005  15.765   5.425
 4069POPC   PO452548   9.186  16.338   5.763
 4069POPC   GL152549   9.014  15.973   5.903
 4069POPC   GL252550   9.295  15.712   5.841
 4069POPC   C1A52551   8.811  16.039   6.305
 4069POPC   D2A52552   8.514  15.821   6.546
 4069POPC   C3A52553   8.569  15.953   6.922
 4069POPC   C4A52554   8.847  15.887   7.235
 4069POPC   C1B52555   9.230  15.707   6.296
 4069POPC   C2B52556   9.058  15.773   6.719
 4069POPC   C3B52557   9.330  15.766   7.081
 4069POPC   C4B52558   9.292  16.144   7.311
 4070POPC   NC352559   5.121  13.348   5.260
 4070POPC   PO452560   5.169  12.714   5.494
 4070POPC   GL152561   5.080  12.812   5.903
 4070POPC   GL252562   5.189  13.153   5.919
 4070POPC   C1A52563   5.184  12.677   6.324
 4070POPC   D2A52564   5.047  12.741   6.747
 4070POPC   C3A52565   5.305  12.730   7.107
 4070POPC   C4A52566   5.322  12.306   7.126
 4070POPC   C1B52567   4.910  13.157   6.266
 4070POPC   C2B52568   4.857  13.207   6.691
 4070POPC   C3B52569   4.923  13.086   7.107
 4070POPC   C4B52570   4.967  13.215   7.482
 4071POPC   NC352571   3.502  28.470   5.440
 4071POPC   PO452572   3.418  27.801   5.538
 4071POPC   GL152573   3.499  28.163   5.899
 4071POPC   GL252574   3.686  28.527   5.899
 4071POPC   C1A52575   3.517  28.380   6.339
 4071POPC   D2A52576   3.327  28.649   6.642
 4071POPC   C3A52577   3.408  28.396   6.990
 4071POPC   C4A52578   3.373  28.275   7.417
 4071POPC   C1B52579   3.548  28.894   6.164
 4071POPC   C2B52580   3.774  28.900   6.539
 4071POPC   C3B52581   3.886  28.561   6.807
 4071POPC   C4B52582   3.842  28.484   7.248
 4072POPC   NC352583  16.746  17.712   5.487
 4072POPC   PO452584  17.253  17.150   5.392
 4072POPC   GL152585  17.054  17.312   5.751
 4072POPC   GL252586  16.779  17.104   5.755
 4072POPC   C1A52587  16.888  17.413   6.171
 4072POPC   D2A52588  16.832  17.750   6.462
 4072POPC   C3A52589  16.989  17.798   6.880
 4072POPC   C4A52590  16.850  17.717   7.303
 4072POPC   C1B52591  16.501  17.096   6.124
 4072POPC   C2B52592  16.419  17.311   6.502
 4072POPC   C3B52593  16.612  17.434   6.858
 4072POPC   C4B52594  16.475  17.394   7.258
 4073POPC   NC352595  18.070  34.063   5.384
 4073POPC   PO452596  18.206  34.766   5.442
 4073POPC   GL152597  18.268  34.526   5.811
 4073POPC   GL252598  17.983  34.362   5.789
 4073POPC   C1A52599  18.414  34.619   6.231
 4073POPC   D2A52600  18.386  34.374   6.609
 4073POPC   C3A52601  18.334  34.591   6.981
 4073POPC   C4A52602  18.292  34.849   7.367
 4073POPC   C1B52603  18.051  34.256   6.206
 4073POPC   C2B52604  17.851  34.330   6.595
 4073POPC   C3B52605  17.920  34.201   7.014
 4073POPC   C4B52606  18.019  34.402   7.376
 4074POPC   NC352607  32.861  22.389   5.353
 4074POPC   PO452608  33.004  21.723   5.371
 4074POPC   GL152609  33.052  22.025   5.662
 4074POPC   GL252610  32.796  21.911   5.831
 4074POPC   C1A52611  33.110  22.319   6.001
 4074POPC   D2A52612  33.161  22.284   6.434
 4074POPC   C3A52613  32.866  22.415   6.772
 4074POPC   C4A52614  32.947  22.326   7.235
 4074POPC   C1B52615  33.107  21.822   6.164
 4074POPC   C2B52616  33.039  21.822   6.570
 4074POPC   C3B52617  33.172  22.024   6.886
 4074POPC   C4B52618  33.122  21.839   7.247
 4075POPC   NC352619  25.503  21.243   5.579
 4075POPC   PO452620  24.972  21.597   5.487
 4075POPC   GL152621  25.136  21.430   5.875
 4075POPC   GL252622  25.463  21.652   5.919
 4075POPC   C1A52623  25.286  21.099   6.218
 4075POPC   D2A52624  25.084  20.956   6.615
 4075POPC   C3A52625  25.338  20.988   6.990
 4075POPC   C4A52626  25.442  21.297   7.256
 4075POPC   C1B52627  25.236  21.608   6.328
 4075POPC   C2B52628  25.246  21.463   6.763
 4075POPC   C3B52629  25.195  21.723   7.144
 4075POPC   C4B52630  25.342  21.653   7.613
 4076POPC   NC352631  24.647   1.457   5.398
 4076POPC   PO452632  24.020   1.146   5.410
 4076POPC   GL152633  24.374   1.076   5.738
 4076POPC   GL252634  24.737   0.984   5.746
 4076POPC   C1A52635  24.373   1.322   6.158
 4076POPC   D2A52636  24.309   1.568   6.540
 4076POPC   C3A52637  24.282   1.363   6.940
 4076POPC   C4A52638  24.515   1.316   7.311
 4076POPC   C1B52639  24.864   1.165   6.149
 4076POPC   C2B52640  24.703   1.217   6.566
 4076POPC   C3B52641  24.711   1.031   6.956
 4076POPC   C4B52642  24.924   0.933   7.361
 4077POPC   NC352643   1.280  26.430   5.410
 4077POPC   PO452644   1.356  27.088   5.139
 4077POPC   GL152645   1.428  26.937   5.610
 4077POPC   GL252646   1.214  26.716   5.855
 4077POPC   C1A52647   1.591  27.000   6.051
 4077POPC   D2A52648   1.411  26.850   6.431
 4077POPC   C3A52649   1.399  27.061   6.851
 4077POPC   C4A52650   1.203  26.904   7.228
 4077POPC   C1B52651   1.360  26.414   6.115
 4077POPC   C2B52652   1.461  26.346   6.529
 4077POPC   C3B52653   1.466  26.558   6.909
 4077POPC   C4B52654   1.349  26.400   7.295
 4078POPC   NC352655  35.256   5.567   5.455
 4078POPC   PO452656  35.237   6.219   5.587
 4078POPC   GL152657  35.073   5.974   5.902
 4078POPC   GL252658  34.757   6.087   5.959
 4078POPC   C1A52659  35.268   5.938   6.313
 4078POPC   D2A52660  35.420   5.635   6.597
 4078POPC   C3A52661  35.548   5.786   6.998
 4078POPC   C4A52662  35.475   5.621   7.417
 4078POPC   C1B52663  34.809   6.153   6.359
 4078POPC   C2B52664  35.038   6.298   6.634
 4078POPC   C3B52665  35.091   6.211   6.996
 4078POPC   C4B52666  35.274   6.069   7.334
 4079POPC   NC352667  39.060  37.218   5.414
 4079POPC   PO452668  39.075  37.937   5.457
 4079POPC   GL152669  39.219  37.722   5.840
 4079POPC   GL252670  39.560  37.560   5.881
 4079POPC   C1A52671  39.031  37.650   6.275
 4079POPC   D2A52672  38.983  37.900   6.700
 4079POPC   C3A52673  39.017  37.654   7.124
 4079POPC   C4A52674  39.406  37.424   7.207
 4079POPC   C1B52675  39.585  37.920   6.134
 4079POPC   C2B52676  39.465  37.780   6.516
 4079POPC   C3B52677  39.451  37.847   6.928
 4079POPC   C4B52678  39.475  37.925   7.379
 4080POPC   NC352679  10.349  39.645   5.346
 4080POPC   PO452680  10.654  39.114   5.400
 4080POPC   GL152681  10.643  39.297   5.803
 4080POPC   GL252682  10.354  39.474   5.832
 4080POPC   C1A52683  10.801  39.230   6.230
 4080POPC   D2A52684  10.884  39.241   6.726
 4080POPC   C3A52685  10.634  38.945   7.045
 4080POPC   C4A52686  10.593  39.001   7.530
 4080POPC   C1B52687  10.301  39.061   6.088
 4080POPC   C2B52688  10.427  39.055   6.519
 4080POPC   C3B52689  10.371  39.350   6.844
 4080POPC   C4B52690  10.228  39.217   7.252
 4081POPC   NC352691  34.769  29.772   5.277
 4081POPC   PO452692  35.234  29.652   5.717
 4081POPC   GL152693  34.889  29.952   5.866
 4081POPC   GL252694  34.514  30.015   5.832
 4081POPC   C1A52695  34.782  30.148   6.259
 4081POPC   D2A52696  35.023  30.280   6.612
 4081POPC   C3A52697  34.746  30.156   6.937
 4081POPC   C4A52698  34.666  29.755   7.134
 4081POPC   C1B52699  34.287  29.971   6.263
 4081POPC   C2B52700  34.365  29.815   6.700
 4081POPC   C3B52701  34.175  29.979   7.090
 4081POPC   C4B52702  34.267  30.330   7.373
 4082POPC   NC352703  12.726  14.854   5.655
 4082POPC   PO452704  12.869  15.529   5.488
 4082POPC   GL152705  12.768  15.333   5.868
 4082POPC   GL252706  13.072  15.173   5.948
 4082POPC   C1A52707  12.685  15.097   6.259
 4082POPC   D2A52708  12.936  15.208   6.578
 4082POPC   C3A52709  12.803  15.141   7.000
 4082POPC   C4A52710  12.936  15.308   7.403
 4082POPC   C1B52711  13.339  15.014   6.284
 4082POPC   C2B52712  13.353  14.960   6.749
 4082POPC   C3B52713  13.291  15.021   7.200
 4082POPC   C4B52714  13.227  14.981   7.641
 4083POPC   NC352715  18.905  28.608   5.478
 4083POPC   PO452716  19.461  28.394   5.483
 4083POPC   GL152717  19.262  28.300   5.882
 4083POPC   GL252718  18.932  28.181   5.821
 4083POPC   C1A52719  19.186  28.488   6.297
 4083POPC   D2A52720  19.085  28.306   6.705
 4083POPC   C3A52721  19.181  28.417   7.101
 4083POPC   C4A52722  19.285  28.310   7.505
 4083POPC   C1B52723  18.800  28.138   6.252
 4083POPC   C2B52724  18.758  27.928   6.650
 4083POPC   C3B52725  18.665  28.106   7.022
 4083POPC   C4B52726  18.764  28.320   7.424
 4084POPC   NC352727  21.600   2.310   5.392
 4084POPC   PO452728  21.481   3.035   5.388
 4084POPC   GL152729  21.472   2.927   5.813
 4084POPC   GL252730  21.529   2.557   5.843
 4084POPC   C1A52731  21.413   2.836   6.262
 4084POPC   D2A52732  21.450   2.659   6.667
 4084POPC   C3A52733  21.270   2.844   7.045
 4084POPC   C4A52734  21.229   3.034   7.501
 4084POPC   C1B52735  21.691   2.355   6.260
 4084POPC   C2B52736  21.807   2.306   6.723
 4084POPC   C3B52737  21.718   2.376   7.175
 4084POPC   C4B52738  21.801   2.438   7.644
 4085POPC   NC352739  14.018  33.716   5.483
 4085POPC   PO452740  13.364  34.089   5.321
 4085POPC   GL152741  13.565  33.885   5.684
 4085POPC   GL252742  13.443  33.567   5.843
 4085POPC   C1A52743  13.658  34.030   6.114
 4085POPC   D2A52744  13.926  33.949   6.495
 4085POPC   C3A52745  13.736  33.917   6.942
 4085POPC   C4A52746  13.686  34.289   7.214
 4085POPC   C1B52747  13.818  33.542   6.100
 4085POPC   C2B52748  13.843  33.442   6.526
 4085POPC   C3B52749  13.881  33.388   6.942
 4085POPC   C4B52750  13.633  33.454   7.270
 4086POPC   NC352751  13.350  32.828   5.592
 4086POPC   PO452752  13.688  33.373   5.404
 4086POPC   GL152753  13.732  33.128   5.802
 4086POPC   GL252754  13.797  32.761   5.886
 4086POPC   C1A52755  13.569  33.078   6.221
 4086POPC   D2A52756  13.747  32.894   6.586
 4086POPC   C3A52757  13.567  32.995   6.981
 4086POPC   C4A52758  13.897  32.901   7.247
 4086POPC   C1B52759  13.536  32.533   6.197
 4086POPC   C2B52760  13.350  32.538   6.605
 4086POPC   C3B52761  13.467  32.498   7.009
 4086POPC   C4B52762  13.429  32.715   7.401
 4087POPC   NC352763  14.933  12.215   5.469
 4087POPC   PO452764  15.453  12.043   5.203
 4087POPC   GL152765  15.356  11.915   5.699
 4087POPC   GL252766  15.032  11.927   5.865
 4087POPC   C1A52767  15.414  11.743   6.121
 4087POPC   D2A52768  15.297  12.001   6.471
 4087POPC   C3A52769  15.175  11.883   6.880
 4087POPC   C4A52770  15.353  12.061   7.250
 4087POPC   C1B52771  14.919  12.211   6.191
 4087POPC   C2B52772  14.838  12.227   6.648
 4087POPC   C3B52773  15.015  12.443   7.037
 4087POPC   C4B52774  14.966  12.405   7.507
 4088POPC   NC352775   0.937  41.515   5.590
 4088POPC   PO452776   1.522  41.523   5.403
 4088POPC   GL152777   1.390  41.418   5.828
 4088POPC   GL252778   1.265  41.740   5.916
 4088POPC   C1A52779   1.299  41.339   6.270
 4088POPC   D2A52780   1.413  41.617   6.615
 4088POPC   C3A52781   1.280  41.617   7.039
 4088POPC   C4A52782   1.548  41.525   7.344
 4088POPC   C1B52783   1.161  41.941   6.303
 4088POPC   C2B52784   0.991  41.905   6.739
 4088POPC   C3B52785   1.139  42.100   7.153
 4088POPC   C4B52786   1.345  41.968   7.539
 4089POPC   NC352787  24.839  33.849   5.133
 4089POPC   PO452788  24.315  33.923   5.604
 4089POPC   GL152789  24.333  33.657   5.958
 4089POPC   GL252790  24.463  33.965   6.097
 4089POPC   C1A52791  24.659  33.551   6.285
 4089POPC   D2A52792  24.719  33.800   6.625
 4089POPC   C3A52793  24.759  33.524   6.935
 4089POPC   C4A52794  24.549  33.604   7.253
 4089POPC   C1B52795  24.445  34.213   6.465
 4089POPC   C2B52796  24.369  34.148   6.880
 4089POPC   C3B52797  24.311  34.038   7.297
 4089POPC   C4B52798  24.221  34.012   7.726
 4090POPC   NC352799  14.606  16.394   5.042
 4090POPC   PO452800  14.111  16.559   5.497
 4090POPC   GL152801  14.338  16.925   5.723
 4090POPC   GL252802  14.451  16.738   5.995
 4090POPC   C1A52803  14.366  17.188   6.148
 4090POPC   D2A52804  14.220  17.185   6.601
 4090POPC   C3A52805  14.473  16.918   6.876
 4090POPC   C4A52806  14.616  16.977   7.313
 4090POPC   C1B52807  14.240  16.700   6.365
 4090POPC   C2B52808  14.319  16.449   6.699
 4090POPC   C3B52809  14.229  16.413   7.088
 4090POPC   C4B52810  14.415  16.509   7.487
 4091POPC   NC352811   9.285  32.911   5.390
 4091POPC   PO452812   9.913  33.204   5.442
 4091POPC   GL152813   9.852  32.939   5.797
 4091POPC   GL252814   9.588  32.677   5.735
 4091POPC   C1A52815   9.963  33.060   6.229
 4091POPC   D2A52816   9.696  33.213   6.528
 4091POPC   C3A52817   9.702  33.017   6.889
 4091POPC   C4A52818   9.709  33.169   7.243
 4091POPC   C1B52819   9.500  32.866   6.150
 4091POPC   C2B52820   9.532  32.701   6.544
 4091POPC   C3B52821   9.403  32.604   6.992
 4091POPC   C4B52822   9.437  32.736   7.416
 4092POPC   NC352823  33.768  28.404   5.393
 4092POPC   PO452824  34.341  28.174   5.159
 4092POPC   GL152825  34.035  28.039   5.576
 4092POPC   GL252826  33.986  28.285   5.830
 4092POPC   C1A52827  33.573  28.058   5.914
 4092POPC   D2A52828  33.433  28.216   6.340
 4092POPC   C3A52829  33.603  28.084   6.755
 4092POPC   C4A52830  33.563  28.188   7.204
 4092POPC   C1B52831  34.150  28.498   6.179
 4092POPC   C2B52832  33.836  28.538   6.468
 4092POPC   C3B52833  33.834  28.556   6.873
 4092POPC   C4B52834  34.067  28.261   7.101
 4093POPC   NC352835  22.015   1.628   5.525
 4093POPC   PO452836  22.067   2.274   5.429
 4093POPC   GL152837  22.190   2.047   5.809
 4093POPC   GL252838  22.031   1.751   6.010
 4093POPC   C1A52839  22.325   2.101   6.235
 4093POPC   D2A52840  22.186   1.970   6.624
 4093POPC   C3A52841  22.270   2.246   6.972
 4093POPC   C4A52842  22.113   2.130   7.376
 4093POPC   C1B52843  22.353   1.568   6.285
 4093POPC   C2B52844  22.484   1.562   6.713
 4093POPC   C3B52845  22.343   1.753   7.093
 4093POPC   C4B52846  22.332   1.694   7.556
 4094POPC   NC352847  28.188  13.190   5.624
 4094POPC   PO452848  28.202  13.888   5.526
 4094POPC   GL152849  28.121  13.724   5.910
 4094POPC   GL252850  28.431  13.527   5.929
 4094POPC   C1A52851  28.162  13.659   6.359
 4094POPC   D2A52852  28.235  13.496   6.773
 4094POPC   C3A52853  28.155  13.719   7.155
 4094POPC   C4A52854  28.186  13.569   7.576
 4094POPC   C1B52855  28.678  13.595   6.304
 4094POPC   C2B52856  28.671  13.768   6.701
 4094POPC   C3B52857  28.682  13.573   7.118
 4094POPC   C4B52858  28.671  13.701   7.559
 4095POPC   NC352859  29.800  13.126   5.594
 4095POPC   PO452860  30.153  12.535   5.619
 4095POPC   GL152861  29.836  12.706   5.945
 4095POPC   GL252862  29.810  13.076   6.090
 4095POPC   C1A52863  29.850  12.683   6.400
 4095POPC   D2A52864  30.069  12.861   6.756
 4095POPC   C3A52865  29.847  13.088   7.055
 4095POPC   C4A52866  29.796  12.782   7.326
 4095POPC   C1B52867  30.234  13.014   6.272
 4095POPC   C2B52868  30.497  13.164   6.631
 4095POPC   C3B52869  30.370  13.190   7.066
 4095POPC   C4B52870  30.230  13.013   7.458
 4096POPC   NC352871  24.061  31.390   5.514
 4096POPC   PO452872  23.505  31.648   5.218
 4096POPC   GL152873  23.485  31.472   5.675
 4096POPC   GL252874  23.712  31.196   5.837
 4096POPC   C1A52875  23.400  31.452   6.150
 4096POPC   D2A52876  23.597  31.490   6.563
 4096POPC   C3A52877  23.564  31.480   7.004
 4096POPC   C4A52878  23.800  31.626   7.346
 4096POPC   C1B52879  23.831  31.095   6.285
 4096POPC   C2B52880  23.872  31.103   6.751
 4096POPC   C3B52881  24.080  31.282   7.106
 4096POPC   C4B52882  24.036  31.254   7.565
 4097POPC   NC352883  27.326  27.948   5.297
 4097POPC   PO452884  27.591  27.377   5.216
 4097POPC   GL152885  27.721  27.700   5.574
 4097POPC   GL252886  27.445  27.875   5.778
 4097POPC   C1A52887  27.869  27.683   6.039
 4097POPC   D2A52888  27.708  27.712   6.469
 4097POPC   C3A52889  27.946  27.692   6.844
 4097POPC   C4A52890  27.799  27.487   7.171
 4097POPC   C1B52891  27.297  27.910   6.189
 4097POPC   C2B52892  27.285  27.996   6.620
 4097POPC   C3B52893  27.426  27.816   6.986
 4097POPC   C4B52894  27.368  27.963   7.396
 4098POPC   NC352895  40.869   5.672   5.302
 4098POPC   PO452896  40.788   6.362   5.398
 4098POPC   GL152897  40.842   6.033   5.756
 4098POPC   GL252898  40.680   5.702   5.776
 4098POPC   C1A52899  40.819   5.857   6.216
 4098POPC   D2A52900  40.565   6.001   6.551
 4098POPC   C3A52901  40.892   6.187   6.802
 4098POPC   C4A52902  41.137   5.919   7.080
 4098POPC   C1B52903  40.344   5.605   6.132
 4098POPC   C2B52904  40.399   5.488   6.578
 4098POPC   C3B52905  40.687   5.651   6.934
 4098POPC   C4B52906  40.623   6.034   7.208
 4099POPC   NC352907  16.249  34.510   5.227
 4099POPC   PO452908  15.629  34.774   5.454
 4099POPC   GL152909  15.741  34.537   5.796
 4099POPC   GL252910  16.084  34.474   5.724
 4099POPC   C1A52911  15.545  34.478   6.191
 4099POPC   D2A52912  15.408  34.676   6.603
 4099POPC   C3A52913  15.779  34.708   6.831
 4099POPC   C4A52914  16.026  34.547   7.164
 4099POPC   C1B52915  16.131  34.655   6.139
 4099POPC   C2B52916  16.139  34.481   6.545
 4099POPC   C3B52917  16.345  34.204   6.842
 4099POPC   C4B52918  16.215  34.052   7.245
 4100POPC   NC352919  25.330  17.078   5.249
 4100POPC   PO452920  25.589  17.656   5.441
 4100POPC   GL152921  25.324  17.418   5.740
 4100POPC   GL252922  25.015  17.231   5.721
 4100POPC   C1A52923  25.274  17.323   6.164
 4100POPC   D2A52924  25.156  17.543   6.528
 4100POPC   C3A52925  25.301  17.493   6.925
 4100POPC   C4A52926  25.119  17.676   7.264
 4100POPC   C1B52927  24.881  16.980   6.108
 4100POPC   C2B52928  25.080  17.021   6.526
 4100POPC   C3B52929  24.938  17.096   6.923
 4100POPC   C4B52930  25.101  17.171   7.330
 4101POPC   NC352931   1.899  18.384   5.477
 4101POPC   PO452932   2.553  18.140   5.509
 4101POPC   GL152933   2.230  18.165   5.805
 4101POPC   GL252934   2.214  18.540   5.872
 4101POPC   C1A52935   2.059  18.166   6.222
 4101POPC   D2A52936   2.299  18.223   6.604
 4101POPC   C3A52937   2.165  18.016   6.956
 4101POPC   C4A52938   1.805  18.220   7.139
 4101POPC   C1B52939   2.165  18.656   6.328
 4101POPC   C2B52940   2.301  18.744   6.728
 4101POPC   C3B52941   2.249  18.500   7.086
 4101POPC   C4B52942   2.052  18.596   7.443
 4102POPC   NC352943  18.557  27.431   5.502
 4102POPC   PO452944  17.960  27.790   5.465
 4102POPC   GL152945  18.206  27.663   5.802
 4102POPC   GL252946  18.154  27.315   5.776
 4102POPC   C1A52947  18.076  27.687   6.221
 4102POPC   D2A52948  18.262  27.855   6.590
 4102POPC   C3A52949  18.342  27.685   6.976
 4102POPC   C4A52950  18.072  27.544   7.283
 4102POPC   C1B52951  18.357  27.268   6.157
 4102POPC   C2B52952  18.457  27.358   6.586
 4102POPC   C3B52953  18.422  27.179   7.010
 4102POPC   C4B52954  18.564  27.281   7.381
 4103POPC   NC352955  32.398   7.801   5.361
 4103POPC   PO452956  32.059   8.304   5.234
 4103POPC   GL152957  32.185   8.203   5.711
 4103POPC   GL252958  31.914   7.994   5.857
 4103POPC   C1A52959  32.405   8.154   6.190
 4103POPC   D2A52960  32.411   7.955   6.603
 4103POPC   C3A52961  32.485   8.178   6.982
 4103POPC   C4A52962  32.341   8.134   7.392
 4103POPC   C1B52963  31.924   8.093   6.280
 4103POPC   C2B52964  32.013   8.230   6.695
 4103POPC   C3B52965  31.951   8.058   7.078
 4103POPC   C4B52966  31.802   8.337   7.386
 4104POPC   NC352967   2.688  28.175   5.285
 4104POPC   PO452968   3.105  28.725   5.327
 4104POPC   GL152969   2.717  28.526   5.657
 4104POPC   GL252970   2.537  28.179   5.801
 4104POPC   C1A52971   2.628  28.558   6.136
 4104POPC   D2A52972   2.831  28.471   6.556
 4104POPC   C3A52973   2.678  28.491   6.984
 4104POPC   C4A52974   2.911  28.235   7.232
 4104POPC   C1B52975   2.351  28.105   6.248
 4104POPC   C2B52976   2.471  28.080   6.723
 4104POPC   C3B52977   2.639  27.835   7.094
 4104POPC   C4B52978   2.602  27.880   7.581
 4105POPC   NC352979  32.555  30.100   5.323
 4105POPC   PO452980  32.372  29.483   5.524
 4105POPC   GL152981  32.280  29.872   5.709
 4105POPC   GL252982  32.594  30.021   5.829
 4105POPC   C1A52983  32.170  29.905   6.138
 4105POPC   D2A52984  32.401  29.642   6.430
 4105POPC   C3A52985  32.251  29.659   6.835
 4105POPC   C4A52986  32.283  29.649   7.262
 4105POPC   C1B52987  32.633  30.099   6.273
 4105POPC   C2B52988  32.442  30.111   6.674
 4105POPC   C3B52989  32.554  30.119   7.104
 4105POPC   C4B52990  32.526  30.033   7.547
 4106POPC   NC352991   5.403   8.238   5.445
 4106POPC   PO452992   4.796   8.361   5.477
 4106POPC   GL152993   5.015   8.123   5.840
 4106POPC   GL252994   5.337   7.973   5.861
 4106POPC   C1A52995   5.093   8.259   6.264
 4106POPC   D2A52996   5.217   8.445   6.644
 4106POPC   C3A52997   5.111   8.219   7.011
 4106POPC   C4A52998   5.053   8.219   7.465
 4106POPC   C1B52999   5.175   7.773   6.216
 4106POPC   C2B53000   5.126   7.846   6.629
 4106POPC   C3B53001   5.438   7.818   6.921
 4106POPC   C4B53002   5.520   8.052   7.259
 4107POPC   NC353003   3.137   4.673   5.447
 4107POPC   PO453004   2.654   4.268   5.454
 4107POPC   GL153005   2.772   4.495   5.817
 4107POPC   GL253006   3.125   4.426   5.904
 4107POPC   C1A53007   2.686   4.381   6.256
 4107POPC   D2A53008   2.523   4.139   6.600
 4107POPC   C3A53009   2.738   4.286   6.982
 4107POPC   C4A53010   2.964   4.673   7.059
 4107POPC   C1B53011   3.085   4.034   6.144
 4107POPC   C2B53012   2.983   3.912   6.576
 4107POPC   C3B53013   3.098   3.902   7.012
 4107POPC   C4B53014   3.120   3.965   7.451
 4108POPC   NC353015  30.039  15.756   5.297
 4108POPC   PO453016  29.551  16.016   5.519
 4108POPC   GL153017  29.703  15.809   5.890
 4108POPC   GL253018  29.984  15.629   5.805
 4108POPC   C1A53019  29.684  15.809   6.330
 4108POPC   D2A53020  29.703  16.142   6.603
 4108POPC   C3A53021  29.815  16.022   6.981
 4108POPC   C4A53022  30.077  16.235   7.269
 4108POPC   C1B53023  30.165  15.590   6.237
 4108POPC   C2B53024  30.120  15.706   6.680
 4108POPC   C3B53025  30.226  15.755   7.143
 4108POPC   C4B53026  30.345  15.913   7.594
 4109POPC   NC353027  26.273  33.057   5.473
 4109POPC   PO453028  25.710  32.828   5.433
 4109POPC   GL153029  25.884  33.086   5.803
 4109POPC   GL253030  26.181  33.312   5.902
 4109POPC   C1A53031  25.956  32.988   6.250
 4109POPC   D2A53032  25.728  32.866   6.641
 4109POPC   C3A53033  26.028  32.779   6.971
 4109POPC   C4A53034  26.081  32.850   7.426
 4109POPC   C1B53035  26.336  33.324   6.348
 4109POPC   C2B53036  26.397  33.194   6.789
 4109POPC   C3B53037  26.282  33.264   7.233
 4109POPC   C4B53038  26.348  33.497   7.668
 4110POPC   NC353039  15.197  21.844   5.561
 4110POPC   PO453040  15.118  21.215   5.460
 4110POPC   GL153041  15.131  21.380   5.853
 4110POPC   GL253042  14.783  21.277   5.925
 4110POPC   C1A53043  15.425  21.485   6.193
 4110POPC   D2A53044  15.607  21.330   6.572
 4110POPC   C3A53045  15.365  21.476   6.910
 4110POPC   C4A53046  15.183  21.176   7.131
 4110POPC   C1B53047  14.933  21.435   6.355
 4110POPC   C2B53048  14.811  21.358   6.803
 4110POPC   C3B53049  14.632  21.579   7.172
 4110POPC   C4B53050  14.493  21.533   7.626
 4111POPC   NC353051  19.070  34.068   5.401
 4111POPC   PO453052  18.825  33.509   5.315
 4111POPC   GL153053  18.976  33.614   5.769
 4111POPC   GL253054  19.285  33.767   5.830
 4111POPC   C1A53055  18.980  33.843   6.216
 4111POPC   D2A53056  19.142  33.743   6.639
 4111POPC   C3A53057  18.948  33.691   7.016
 4111POPC   C4A53058  19.110  33.679   7.442
 4111POPC   C1B53059  19.484  33.765   6.260
 4111POPC   C2B53060  19.558  34.032   6.665
 4111POPC   C3B53061  19.322  34.023   7.086
 4111POPC   C4B53062  19.486  34.001   7.552
 4112POPC   NC353063  40.713  40.693   4.984
 4112POPC   PO453064  41.109  40.865   5.568
 4112POPC   GL153065  40.895  40.923   5.941
 4112POPC   GL253066  40.581  40.814   5.911
 4112POPC   C1A53067  40.736  40.944   6.374
 4112POPC   D2A53068  40.967  40.809   6.694
 4112POPC   C3A53069  40.857  41.122   6.962
 4112POPC   C4A53070  40.784  40.995   7.311
 4112POPC   C1B53071  40.716  40.471   6.218
 4112POPC   C2B53072  40.590  40.373   6.620
 4112POPC   C3B53073  40.550  40.645   6.983
 4112POPC   C4B53074  40.359  40.542   7.375
 4113POPC   NC353075  39.417   1.092   5.516
 4113POPC   PO453076  40.116   1.278   5.559
 4113POPC   GL153077  40.087   1.071   5.928
 4113POPC   GL253078  39.728   1.161   5.951
 4113POPC   C1A53079  40.147   1.076   6.366
 4113POPC   D2A53080  40.189   1.350   6.696
 4113POPC   C3A53081  40.102   1.248   7.089
 4113POPC   C4A53082  40.361   1.137   7.398
 4113POPC   C1B53083  39.923   1.503   6.220
 4113POPC   C2B53084  39.861   1.715   6.617
 4113POPC   C3B53085  39.695   1.590   7.016
 4113POPC   C4B53086  39.758   1.387   7.451
 4114POPC   NC353087  30.176  24.651   5.141
 4114POPC   PO453088  29.654  24.344   5.134
 4114POPC   GL153089  29.860  24.468   5.537
 4114POPC   GL253090  29.584  24.458   5.747
 4114POPC   C1A53091  30.028  24.474   6.017
 4114POPC   D2A53092  30.151  24.418   6.513
 4114POPC   C3A53093  29.996  24.615   6.925
 4114POPC   C4A53094  29.975  24.567   7.380
 4114POPC   C1B53095  29.556  24.282   6.181
 4114POPC   C2B53096  29.633  24.482   6.589
 4114POPC   C3B53097  29.469  24.482   7.025
 4114POPC   C4B53098  29.343  24.148   7.297
 4115POPC   NC353099   5.083   7.135   5.407
 4115POPC   PO453100   5.271   7.791   5.382
 4115POPC   GL153101   5.104   7.539   5.725
 4115POPC   GL253102   4.813   7.621   5.917
 4115POPC   C1A53103   5.280   7.307   6.031
 4115POPC   D2A53104   5.345   7.362   6.458
 4115POPC   C3A53105   5.055   7.359   6.810
 4115POPC   C4A53106   5.201   7.513   7.239
 4115POPC   C1B53107   4.827   7.374   6.292
 4115POPC   C2B53108   4.666   7.045   6.583
 4115POPC   C3B53109   4.747   6.937   7.024
 4115POPC   C4B53110   4.762   7.285   7.307
 4116POPC   NC353111  36.720   2.528   5.216
 4116POPC   PO453112  36.888   1.884   5.309
 4116POPC   GL153113  36.862   1.850   5.784
 4116POPC   GL253114  36.661   2.082   5.993
 4116POPC   C1A53115  36.880   1.649   6.180
 4116POPC   D2A53116  36.864   1.571   6.625
 4116POPC   C3A53117  37.160   1.812   6.861
 4116POPC   C4A53118  37.143   1.748   7.288
 4116POPC   C1B53119  37.026   2.165   6.304
 4116POPC   C2B53120  37.097   2.338   6.741
 4116POPC   C3B53121  37.010   2.232   7.166
 4116POPC   C4B53122  36.871   2.328   7.577
 4117POPC   NC353123  12.164   3.371   5.060
 4117POPC   PO453124  12.008   3.893   5.451
 4117POPC   GL153125  12.124   3.667   5.783
 4117POPC   GL253126  12.330   3.429   5.601
 4117POPC   C1A53127  12.009   3.493   6.211
 4117POPC   D2A53128  11.944   3.147   6.530
 4117POPC   C3A53129  11.946   3.366   6.922
 4117POPC   C4A53130  11.779   3.766   6.950
 4117POPC   C1B53131  12.498   3.464   6.051
 4117POPC   C2B53132  12.484   3.692   6.468
 4117POPC   C3B53133  12.439   3.638   6.931
 4117POPC   C4B53134  12.347   3.315   7.243
 4118POPC   NC353135  35.116   4.824   5.417
 4118POPC   PO453136  35.645   5.271   5.468
 4118POPC   GL153137  35.369   5.155   5.780
 4118POPC   GL253138  35.494   4.844   5.775
 4118POPC   C1A53139  35.364   5.224   6.231
 4118POPC   D2A53140  35.131   5.200   6.606
 4118POPC   C3A53141  35.394   5.285   6.977
 4118POPC   C4A53142  35.157   5.231   7.305
 4118POPC   C1B53143  35.201   4.743   6.114
 4118POPC   C2B53144  35.231   4.622   6.543
 4118POPC   C3B53145  35.231   4.805   6.931
 4118POPC   C4B53146  35.332   4.744   7.337
 4119POPC   NC353147   4.936   1.760   5.562
 4119POPC   PO453148   4.965   1.065   5.569
 4119POPC   GL153149   5.301   1.170   5.819
 4119POPC   GL253150   5.196   1.479   5.972
 4119POPC   C1A53151   5.539   1.091   6.177
 4119POPC   D2A53152   5.371   1.007   6.580
 4119POPC   C3A53153   5.291   1.179   6.990
 4119POPC   C4A53154   4.980   0.930   7.213
 4119POPC   C1B53155   4.814   1.331   6.213
 4119POPC   C2B53156   4.605   1.487   6.611
 4119POPC   C3B53157   4.831   1.406   6.929
 4119POPC   C4B53158   4.943   1.478   7.306
 4120POPC   NC353159  16.555  12.618   5.290
 4120POPC   PO453160  17.029  13.041   5.338
 4120POPC   GL153161  16.862  12.994   5.706
 4120POPC   GL253162  16.507  13.055   5.670
 4120POPC   C1A53163  16.911  13.007   6.128
 4120POPC   D2A53164  16.663  12.856   6.462
 4120POPC   C3A53165  16.848  12.753   6.865
 4120POPC   C4A53166  17.002  12.739   7.261
 4120POPC   C1B53167  16.390  13.163   6.094
 4120POPC   C2B53168  16.272  13.233   6.542
 4120POPC   C3B53169  16.587  13.182   6.854
 4120POPC   C4B53170  16.533  12.952   7.244
 4121POPC   NC353171  29.517   9.462   5.664
 4121POPC   PO453172  30.078   9.787   5.442
 4121POPC   GL153173  30.037   9.967   5.843
 4121POPC   GL253174  29.695   9.886   5.900
 4121POPC   C1A53175  30.314   9.959   6.197
 4121POPC   D2A53176  30.356  10.090   6.589
 4121POPC   C3A53177  30.146   9.787   6.890
 4121POPC   C4A53178  29.803   9.800   7.158
 4121POPC   C1B53179  29.845   9.622   6.264
 4121POPC   C2B53180  29.720   9.569   6.702
 4121POPC   C3B53181  29.517   9.336   7.060
 4121POPC   C4B53182  29.348   9.316   7.490
 4122POPC   NC353183  27.913  23.136   5.590
 4122POPC   PO453184  27.340  22.805   5.318
 4122POPC   GL153185  27.501  22.835   5.718
 4122POPC   GL253186  27.350  22.543   5.807
 4122POPC   C1A53187  27.637  22.850   6.161
 4122POPC   D2A53188  27.802  22.615   6.520
 4122POPC   C3A53189  28.014  22.857   6.836
 4122POPC   C4A53190  27.910  22.945   7.258
 4122POPC   C1B53191  27.124  22.820   6.131
 4122POPC   C2B53192  27.314  22.846   6.559
 4122POPC   C3B53193  27.497  22.826   6.968
 4122POPC   C4B53194  27.247  22.949   7.321
 4123POPC   NC353195  27.392  44.474   5.244
 4123POPC   PO453196  27.780  44.887   5.578
 4123POPC   GL153197  27.553  44.681   5.865
 4123POPC   GL253198  27.256  44.758   5.686
 4123POPC   C1A53199  27.448  44.495   6.279
 4123POPC   D2A53200  27.610  44.604   6.663
 4123POPC   C3A53201  27.488  44.431   7.040
 4123POPC   C4A53202  27.681  44.477   7.427
 4123POPC   C1B53203  27.199  44.911   6.138
 4123POPC   C2B53204  27.103  44.805   6.595
 4123POPC   C3B53205  27.289  44.900   7.021
 4123POPC   C4B53206  27.437  44.924   7.449
 4124POPC   NC353207  34.712  28.014   5.409
 4124POPC   PO453208  34.368  27.395   5.327
 4124POPC   GL153209  34.633  27.343   5.717
 4124POPC   GL253210  34.788  27.658   5.772
 4124POPC   C1A53211  34.651  27.357   6.159
 4124POPC   D2A53212  34.626  27.637   6.498
 4124POPC   C3A53213  34.545  27.425   6.875
 4124POPC   C4A53214  34.710  27.589   7.284
 4124POPC   C1B53215  34.985  27.916   6.121
 4124POPC   C2B53216  35.138  27.849   6.559
 4124POPC   C3B53217  34.994  27.915   6.989
 4124POPC   C4B53218  35.136  27.883   7.447
 4125POPC   NC353219   1.748  16.293   5.627
 4125POPC   PO453220   2.051  15.945   5.145
 4125POPC   GL153221   2.006  15.802   5.623
 4125POPC   GL253222   2.315  15.652   5.769
 4125POPC   C1A53223   1.802  15.750   6.077
 4125POPC   D2A53224   1.791  15.912   6.535
 4125POPC   C3A53225   1.925  15.735   6.947
 4125POPC   C4A53226   1.770  15.777   7.370
 4125POPC   C1B53227   2.255  15.924   6.144
 4125POPC   C2B53228   2.315  15.904   6.595
 4125POPC   C3B53229   2.339  16.179   6.950
 4125POPC   C4B53230   2.340  16.171   7.390
 4126POPC   NC353231  25.858   6.031   5.604
 4126POPC   PO453232  26.307   5.669   5.286
 4126POPC   GL153233  26.251   5.696   5.717
 4126POPC   GL253234  26.334   5.998   5.814
 4126POPC   C1A53235  26.077   5.694   6.145
 4126POPC   D2A53236  26.194   5.703   6.570
 4126POPC   C3A53237  25.934   5.824   6.920
 4126POPC   C4A53238  25.950   5.595   7.327
 4126POPC   C1B53239  26.428   6.083   6.248
 4126POPC   C2B53240  26.596   5.992   6.693
 4126POPC   C3B53241  26.406   5.780   7.079
 4126POPC   C4B53242  26.345   5.866   7.544
 4127POPC   NC353243  25.756  29.903   5.345
 4127POPC   PO453244  26.324  29.674   5.417
 4127POPC   GL153245  26.144  29.902   5.761
 4127POPC   GL253246  25.939  30.227   5.691
 4127POPC   C1A53247  26.041  29.681   6.150
 4127POPC   D2A53248  25.856  29.520   6.525
 4127POPC   C3A53249  26.005  29.686   6.870
 4127POPC   C4A53250  26.141  29.859   7.222
 4127POPC   C1B53251  25.865  30.171   6.138
 4127POPC   C2B53252  26.064  30.044   6.517
 4127POPC   C3B53253  26.240  30.223   6.890
 4127POPC   C4B53254  25.946  30.354   7.231
 4128POPC   NC353255   2.878  21.813   5.244
 4128POPC   PO453256   2.676  22.443   5.478
 4128POPC   GL153257   2.855  22.353   5.822
 4128POPC   GL253258   2.946  22.013   5.777
 4128POPC   C1A53259   2.695  22.301   6.210
 4128POPC   D2A53260   2.558  22.516   6.559
 4128POPC   C3A53261   2.757  22.334   6.894
 4128POPC   C4A53262   2.729  22.287   7.298
 4128POPC   C1B53263   3.139  22.029   6.203
 4128POPC   C2B53264   3.167  22.160   6.647
 4128POPC   C3B53265   3.167  22.066   7.100
 4128POPC   C4B53266   3.102  22.040   7.559
 4129POPC   NC353267   6.758  11.567   5.329
 4129POPC   PO453268   6.574  12.239   5.374
 4129POPC   GL153269   6.554  12.156   5.805
 4129POPC   GL253270   6.680  11.809   5.789
 4129POPC   C1A53271   6.642  12.279   6.224
 4129POPC   D2A53272   6.424  12.486   6.566
 4129POPC   C3A53273   6.525  12.242   6.926
 4129POPC   C4A53274   6.457  12.126   7.347
 4129POPC   C1B53275   6.766  11.717   6.235
 4129POPC   C2B53276   6.840  11.939   6.638
 4129POPC   C3B53277   6.844  11.853   7.090
 4129POPC   C4B53278   6.954  11.962   7.526
 4130POPC   NC353279  19.129  10.201   5.370
 4130POPC   PO453280  19.523   9.645   5.164
 4130POPC   GL153281  19.022   9.715   5.554
 4130POPC   GL253282  19.011  10.108   5.843
 4130POPC   C1A53283  18.988   9.678   6.073
 4130POPC   D2A53284  19.138   9.864   6.512
 4130POPC   C3A53285  19.022   9.827   6.990
 4130POPC   C4A53286  19.253   9.773   7.432
 4130POPC   C1B53287  18.706  10.107   6.222
 4130POPC   C2B53288  18.728  10.161   6.697
 4130POPC   C3B53289  18.663  10.214   7.161
 4130POPC   C4B53290  18.825  10.030   7.562
 4131POPC   NC353291  15.606  22.361   5.510
 4131POPC   PO453292  16.312  22.455   5.514
 4131POPC   GL153293  16.080  22.209   5.833
 4131POPC   GL253294  16.122  21.862   5.861
 4131POPC   C1A53295  16.208  22.158   6.309
 4131POPC   D2A53296  16.368  22.397   6.656
 4131POPC   C3A53297  16.146  22.373   7.036
 4131POPC   C4A53298  16.156  22.156   7.442
 4131POPC   C1B53299  15.765  21.967   6.189
 4131POPC   C2B53300  15.782  22.108   6.643
 4131POPC   C3B53301  15.827  21.967   7.081
 4131POPC   C4B53302  15.536  21.882   7.412
 4132POPC   NC353303   1.640  20.649   5.508
 4132POPC   PO453304   2.280  20.524   5.486
 4132POPC   GL153305   2.024  20.482   5.893
 4132POPC   GL253306   1.801  20.773   5.962
 4132POPC   C1A53307   1.951  20.518   6.377
 4132POPC   D2A53308   1.863  20.724   6.751
 4132POPC   C3A53309   1.957  20.516   7.116
 4132POPC   C4A53310   1.733  20.523   7.513
 4132POPC   C1B53311   1.880  21.094   6.236
 4132POPC   C2B53312   2.135  21.114   6.579
 4132POPC   C3B53313   2.083  21.156   6.982
 4132POPC   C4B53314   2.124  20.932   7.341
 4133POPC   NC353315  30.044  36.448   5.426
 4133POPC   PO453316  29.975  35.829   5.370
 4133POPC   GL153317  29.951  35.998   5.805
 4133POPC   GL253318  30.174  36.296   5.900
 4133POPC   C1A53319  29.953  35.952   6.284
 4133POPC   D2A53320  29.850  36.001   6.741
 4133POPC   C3A53321  30.083  36.143   7.083
 4133POPC   C4A53322  30.084  35.935   7.497
 4133POPC   C1B53323  29.755  36.390   6.102
 4133POPC   C2B53324  29.596  36.395   6.517
 4133POPC   C3B53325  29.625  36.413   6.954
 4133POPC   C4B53326  29.693  36.249   7.396
 4134POPC   NC353327   9.765  22.900   5.413
 4134POPC   PO453328   9.256  23.215   5.757
 4134POPC   GL153329   9.594  22.915   5.915
 4134POPC   GL253330   9.975  22.827   5.863
 4134POPC   C1A53331   9.570  22.737   6.312
 4134POPC   D2A53332   9.416  22.813   6.708
 4134POPC   C3A53333   9.663  22.754   7.037
 4134POPC   C4A53334   9.651  23.079   7.281
 4134POPC   C1B53335  10.014  22.984   6.289
 4134POPC   C2B53336   9.913  23.102   6.735
 4134POPC   C3B53337  10.122  22.956   7.130
 4134POPC   C4B53338  10.043  22.767   7.572
 4135POPC   NC353339  39.449  33.402   5.500
 4135POPC   PO453340  39.133  32.823   5.408
 4135POPC   GL153341  39.303  32.984   5.789
 4135POPC   GL253342  39.575  32.794   5.734
 4135POPC   C1A53343  39.213  33.223   6.179
 4135POPC   D2A53344  39.261  33.388   6.619
 4135POPC   C3A53345  39.000  33.165   6.954
 4135POPC   C4A53346  38.898  32.943   7.350
 4135POPC   C1B53347  39.696  32.780   6.131
 4135POPC   C2B53348  39.565  32.992   6.486
 4135POPC   C3B53349  39.574  32.952   6.944
 4135POPC   C4B53350  39.386  33.163   7.318
 4136POPC   NC353351  14.749  29.973   5.228
 4136POPC   PO453352  14.192  29.831   5.515
 4136POPC   GL153353  14.363  30.010   5.888
 4136POPC   GL253354  14.089  30.209   5.934
 4136POPC   C1A53355  14.472  29.996   6.345
 4136POPC   D2A53356  14.806  29.762   6.589
 4136POPC   C3A53357  14.887  29.903   7.014
 4136POPC   C4A53358  14.716  29.837   7.426
 4136POPC   C1B53359  13.945  30.030   6.317
 4136POPC   C2B53360  14.064  30.079   6.734
 4136POPC   C3B53361  14.381  30.184   7.024
 4136POPC   C4B53362  14.331  30.181   7.458
 4137POPC   NC353363  37.402  38.873   5.652
 4137POPC   PO453364  37.482  38.263   5.303
 4137POPC   GL153365  37.566  38.362   5.750
 4137POPC   GL253366  37.923  38.477   5.845
 4137POPC   C1A53367  37.606  38.430   6.216
 4137POPC   D2A53368  37.898  38.279   6.514
 4137POPC   C3A53369  37.684  38.274   6.907
 4137POPC   C4A53370  37.724  38.425   7.314
 4137POPC   C1B53371  37.994  38.785   6.184
 4137POPC   C2B53372  37.775  38.826   6.575
 4137POPC   C3B53373  37.683  38.825   7.009
 4137POPC   C4B53374  38.022  38.849   7.362
 4138POPC   NC353375  30.972   4.451   5.400
 4138POPC   PO453376  30.755   3.924   5.757
 4138POPC   GL153377  30.620   4.204   6.023
 4138POPC   GL253378  30.876   4.451   5.893
 4138POPC   C1A53379  30.667   4.045   6.449
 4138POPC   D2A53380  30.933   4.138   6.817
 4138POPC   C3A53381  30.660   4.145   7.149
 4138POPC   C4A53382  30.234   4.128   7.114
 4138POPC   C1B53383  30.981   4.444   6.311
 4138POPC   C2B53384  30.636   4.513   6.589
 4138POPC   C3B53385  30.686   4.608   6.953
 4138POPC   C4B53386  30.963   4.542   7.271
 4139POPC   NC353387  43.955  35.956   5.358
 4139POPC   PO453388  44.275  36.554   5.408
 4139POPC   GL153389  44.208  36.275   5.708
 4139POPC   GL253390  43.846  36.350   5.701
 4139POPC   C1A53391  44.116  36.021   6.085
 4139POPC   D2A53392  44.088  35.784   6.475
 4139POPC   C3A53393  44.089  35.962   6.866
 4139POPC   C4A53394  44.002  36.056   7.275
 4139POPC   C1B53395  43.697  36.376   6.135
 4139POPC   C2B53396  43.695  36.195   6.549
 4139POPC   C3B53397  43.734  36.382   6.956
 4139POPC   C4B53398  43.529  36.244   7.309
 4140POPC   NC353399  30.351  41.741   5.436
 4140POPC   PO453400  30.970  41.480   5.499
 4140POPC   GL153401  30.704  41.655   5.821
 4140POPC   GL253402  30.444  41.454   5.906
 4140POPC   C1A53403  30.771  41.746   6.252
 4140POPC   D2A53404  30.881  41.538   6.639
 4140POPC   C3A53405  30.580  41.730   6.919
 4140POPC   C4A53406  30.559  41.852   7.362
 4140POPC   C1B53407  30.778  41.245   6.144
 4140POPC   C2B53408  30.705  41.058   6.532
 4140POPC   C3B53409  30.805  41.063   6.965
 4140POPC   C4B53410  30.708  41.370   7.264
 4141POPC   NC353411  16.214  41.385   4.963
 4141POPC   PO453412  15.969  41.998   5.229
 4141POPC   GL153413  15.911  41.857   5.671
 4141POPC   GL253414  15.813  41.483   5.670
 4141POPC   C1A53415  16.038  41.745   6.105
 4141POPC   D2A53416  16.000  41.893   6.562
 4141POPC   C3A53417  16.217  41.620   6.844
 4141POPC   C4A53418  16.132  41.404   7.239
 4141POPC   C1B53419  15.648  41.424   6.104
 4141POPC   C2B53420  15.853  41.383   6.509
 4141POPC   C3B53421  15.748  41.259   6.922
 4141POPC   C4B53422  15.615  41.397   7.313
 4142POPC   NC353423  29.347  42.586   5.336
 4142POPC   PO453424  29.150  41.914   5.415
 4142POPC   GL153425  29.248  42.114   5.827
 4142POPC   GL253426  29.187  42.461   5.813
 4142POPC   C1A53427  29.231  42.032   6.287
 4142POPC   D2A53428  29.009  42.338   6.552
 4142POPC   C3A53429  28.835  42.332   6.971
 4142POPC   C4A53430  28.974  42.467   7.377
 4142POPC   C1B53431  29.492  42.488   6.146
 4142POPC   C2B53432  29.554  42.352   6.580
 4142POPC   C3B53433  29.351  42.454   6.996
 4142POPC   C4B53434  29.421  42.699   7.397
 4143POPC   NC353435  32.537  21.699   5.401
 4143POPC   PO453436  32.342  21.016   5.338
 4143POPC   GL153437  32.258  21.283   5.726
 4143POPC   GL253438  32.125  21.654   5.735
 4143POPC   C1A53439  32.249  21.208   6.175
 4143POPC   D2A53440  32.306  21.386   6.577
 4143POPC   C3A53441  32.167  21.214   6.951
 4143POPC   C4A53442  32.383  21.332   7.299
 4143POPC   C1B53443  32.206  21.745   6.194
 4143POPC   C2B53444  32.019  21.827   6.630
 4143POPC   C3B53445  32.102  21.748   7.078
 4143POPC   C4B53446  32.199  22.066   7.405
 4144POPC   NC353447   4.180  33.145   5.495
 4144POPC   PO453448   4.376  32.428   5.529
 4144POPC   GL153449   4.331  32.732   5.931
 4144POPC   GL253450   4.111  33.046   5.999
 4144POPC   C1A53451   4.570  33.064   6.237
 4144POPC   D2A53452   4.603  33.336   6.646
 4144POPC   C3A53453   4.500  33.123   7.034
 4144POPC   C4A53454   4.630  32.726   7.046
 4144POPC   C1B53455   4.117  32.842   6.403
 4144POPC   C2B53456   4.154  32.795   6.842
 4144POPC   C3B53457   4.030  33.003   7.257
 4144POPC   C4B53458   4.040  32.973   7.735
 4145POPC   NC353459   1.669  25.705   5.320
 4145POPC   PO453460   1.034  26.010   5.394
 4145POPC   GL153461   1.294  25.900   5.776
 4145POPC   GL253462   1.584  25.666   5.810
 4145POPC   C1A53463   1.162  25.948   6.203
 4145POPC   D2A53464   0.964  26.235   6.447
 4145POPC   C3A53465   1.102  26.177   6.867
 4145POPC   C4A53466   0.954  26.026   7.253
 4145POPC   C1B53467   1.465  25.542   6.216
 4145POPC   C2B53468   1.425  25.751   6.617
 4145POPC   C3B53469   1.567  25.596   7.035
 4145POPC   C4B53470   1.422  25.867   7.385
 4146POPC   NC353471  36.059   3.222   5.080
 4146POPC   PO453472  36.409   3.566   5.617
 4146POPC   GL153473  36.258   3.554   5.970
 4146POPC   GL253474  35.957   3.659   5.925
 4146POPC   C1A53475  36.363   3.493   6.349
 4146POPC   D2A53476  36.464   3.347   6.714
 4146POPC   C3A53477  36.443   3.612   7.032
 4146POPC   C4A53478  36.321   3.424   7.381
 4146POPC   C1B53479  35.888   3.772   6.321
 4146POPC   C2B53480  35.997   3.587   6.699
 4146POPC   C3B53481  35.895   3.508   7.099
 4146POPC   C4B53482  35.614   3.819   7.300
 4147POPC   NC353483  26.644  17.535   5.571
 4147POPC   PO453484  27.173  17.178   5.526
 4147POPC   GL153485  27.106  17.604   5.783
 4147POPC   GL253486  26.760  17.781   5.978
 4147POPC   C1A53487  27.153  17.656   6.216
 4147POPC   D2A53488  26.907  17.691   6.566
 4147POPC   C3A53489  27.002  17.375   6.867
 4147POPC   C4A53490  27.061  17.460   7.272
 4147POPC   C1B53491  26.588  17.432   6.206
 4147POPC   C2B53492  26.567  17.280   6.600
 4147POPC   C3B53493  26.547  17.601   6.926
 4147POPC   C4B53494  26.511  17.565   7.349
 4148POPC   NC353495  41.116   1.561   5.295
 4148POPC   PO453496  40.648   1.991   5.455
 4148POPC   GL153497  40.611   1.854   5.843
 4148POPC   GL253498  40.487   2.176   5.909
 4148POPC   C1A53499  40.699   1.767   6.263
 4148POPC   D2A53500  41.093   1.731   6.485
 4148POPC   C3A53501  41.055   1.671   6.922
 4148POPC   C4A53502  40.940   1.953   7.213
 4148POPC   C1B53503  40.779   2.311   6.212
 4148POPC   C2B53504  40.961   2.332   6.618
 4148POPC   C3B53505  40.734   2.388   7.010
 4148POPC   C4B53506  40.494   2.231   7.347
 4149POPC   NC353507  42.436  27.346   5.541
 4149POPC   PO453508  42.507  26.648   5.440
 4149POPC   GL153509  42.290  26.737   5.832
 4149POPC   GL253510  42.058  27.011   5.773
 4149POPC   C1A53511  42.487  26.633   6.232
 4149POPC   D2A53512  42.728  26.744   6.628
 4149POPC   C3A53513  42.510  26.991   6.990
 4149POPC   C4A53514  42.380  26.889   7.412
 4149POPC   C1B53515  42.149  27.071   6.218
 4149POPC   C2B53516  42.212  26.821   6.614
 4149POPC   C3B53517  42.144  26.639   7.037
 4149POPC   C4B53518  41.865  26.925   7.300
 4150POPC   NC353519   7.074  28.720   5.592
 4150POPC   PO453520   6.574  28.592   5.259
 4150POPC   GL153521   6.552  28.544   5.704
 4150POPC   GL253522   6.818  28.321   5.766
 4150POPC   C1A53523   6.493  28.477   6.147
 4150POPC   D2A53524   6.626  28.536   6.575
 4150POPC   C3A53525   6.467  28.314   6.918
 4150POPC   C4A53526   6.646  28.347   7.262
 4150POPC   C1B53527   6.984  28.362   6.185
 4150POPC   C2B53528   7.033  28.184   6.543
 4150POPC   C3B53529   6.959  28.153   6.911
 4150POPC   C4B53530   7.141  28.263   7.276
 4151POPC   NC353531  23.952   3.938   5.396
 4151POPC   PO453532  23.419   4.334   5.406
 4151POPC   GL153533  23.682   4.288   5.781
 4151POPC   GL253534  24.012   4.215   5.880
 4151POPC   C1A53535  23.664   4.357   6.229
 4151POPC   D2A53536  23.424   4.322   6.600
 4151POPC   C3A53537  23.411   4.603   6.923
 4151POPC   C4A53538  23.588   4.452   7.297
 4151POPC   C1B53539  24.158   4.487   6.151
 4151POPC   C2B53540  24.095   4.468   6.547
 4151POPC   C3B53541  23.861   4.320   6.876
 4151POPC   C4B53542  24.035   4.191   7.235
 4152POPC   NC353543  26.297  21.612   5.341
 4152POPC   PO453544  25.845  21.148   5.296
 4152POPC   GL153545  25.971  21.189   5.763
 4152POPC   GL253546  26.080  21.522   5.805
 4152POPC   C1A53547  25.871  21.128   6.229
 4152POPC   D2A53548  26.120  21.257   6.627
 4152POPC   C3A53549  26.213  20.952   6.982
 4152POPC   C4A53550  26.114  20.983   7.436
 4152POPC   C1B53551  26.046  21.617   6.224
 4152POPC   C2B53552  25.724  21.596   6.515
 4152POPC   C3B53553  25.694  21.640   6.952
 4152POPC   C4B53554  25.959  21.376   7.165
 4153POPC   NC353555  35.240  14.930   5.227
 4153POPC   PO453556  35.467  14.314   5.182
 4153POPC   GL153557  35.374  14.327   5.638
 4153POPC   GL253558  35.440  14.650   5.773
 4153POPC   C1A53559  35.375  14.203   6.098
 4153POPC   D2A53560  35.472  13.992   6.490
 4153POPC   C3A53561  35.185  14.175   6.802
 4153POPC   C4A53562  35.177  14.264   7.240
 4153POPC   C1B53563  35.219  14.695   6.167
 4153POPC   C2B53564  35.363  14.585   6.549
 4153POPC   C3B53565  35.394  14.647   6.983
 4153POPC   C4B53566  35.007  14.759   7.220
 4154POPC   NC353567   0.081  16.645   5.527
 4154POPC   PO453568   0.716  16.827   5.491
 4154POPC   GL153569   0.508  16.692   5.895
 4154POPC   GL253570   0.168  16.821   5.983
 4154POPC   C1A53571   0.382  16.433   6.245
 4154POPC   D2A53572   0.138  16.316   6.616
 4154POPC   C3A53573   0.240  16.542   7.012
 4154POPC   C4A53574   0.222  16.467   7.473
 4154POPC   C1B53575   0.331  16.914   6.373
 4154POPC   C2B53576   0.581  17.187   6.574
 4154POPC   C3B53577   0.697  17.091   6.978
 4154POPC   C4B53578   0.443  16.936   7.325
 4155POPC   NC353579   7.087   8.370   5.316
 4155POPC   PO453580   6.455   8.115   5.375
 4155POPC   GL153581   6.616   8.203   5.773
 4155POPC   GL253582   6.758   7.898   5.903
 4155POPC   C1A53583   6.486   8.231   6.199
 4155POPC   D2A53584   6.651   8.384   6.579
 4155POPC   C3A53585   6.510   8.213   6.956
 4155POPC   C4A53586   6.364   8.137   7.323
 4155POPC   C1B53587   6.868   7.942   6.357
 4155POPC   C2B53588   6.793   7.827   6.785
 4155POPC   C3B53589   6.840   7.912   7.248
 4155POPC   C4B53590   7.151   7.906   7.608
 4156POPC   NC353591   4.449   8.397   5.172
 4156POPC   PO453592   4.338   9.042   5.369
 4156POPC   GL153593   4.288   9.003   5.831
 4156POPC   GL253594   4.189   8.640   5.911
 4156POPC   C1A53595   4.443   8.897   6.278
 4156POPC   D2A53596   4.284   8.815   6.703
 4156POPC   C3A53597   4.353   9.136   7.044
 4156POPC   C4A53598   4.618   9.057   7.442
 4156POPC   C1B53599   3.989   8.578   6.339
 4156POPC   C2B53600   3.737   8.661   6.727
 4156POPC   C3B53601   3.962   8.800   7.098
 4156POPC   C4B53602   4.426   8.659   7.196
 4157POPC   NC353603  19.441  23.474   5.519
 4157POPC   PO453604  18.825  23.923   5.431
 4157POPC   GL153605  19.011  23.910   5.816
 4157POPC   GL253606  19.348  23.892   5.798
 4157POPC   C1A53607  18.906  23.835   6.229
 4157POPC   D2A53608  18.828  24.022   6.629
 4157POPC   C3A53609  18.907  23.701   6.923
 4157POPC   C4A53610  18.804  23.496   7.298
 4157POPC   C1B53611  19.430  23.641   6.168
 4157POPC   C2B53612  19.288  23.701   6.557
 4157POPC   C3B53613  19.486  23.662   6.927
 4157POPC   C4B53614  19.264  23.717   7.305
 4158POPC   NC353615  16.945  28.019   5.374
 4158POPC   PO453616  17.040  28.662   5.499
 4158POPC   GL153617  16.737  28.383   5.767
 4158POPC   GL253618  16.410  28.531   5.885
 4158POPC   C1A53619  16.773  28.223   6.205
 4158POPC   D2A53620  16.865  28.055   6.631
 4158POPC   C3A53621  16.910  28.277   7.014
 4158POPC   C4A53622  16.491  28.367   7.150
 4158POPC   C1B53623  16.573  28.683   6.278
 4158POPC   C2B53624  16.646  28.524   6.654
 4158POPC   C3B53625  16.667  28.797   6.989
 4158POPC   C4B53626  16.561  28.929   7.390
 4159POPC   NC353627  11.187  43.646   5.468
 4159POPC   PO453628  11.705  43.996   5.435
 4159POPC   GL153629  11.487  43.885   5.851
 4159POPC   GL253630  11.127  43.983   5.860
 4159POPC   C1A53631  11.417  43.770   6.304
 4159POPC   D2A53632  11.722  43.777   6.658
 4159POPC   C3A53633  11.637  43.939   7.071
 4159POPC   C4A53634  11.207  43.895   7.199
 4159POPC   C1B53635  11.101  44.199   6.266
 4159POPC   C2B53636  11.202  44.139   6.699
 4159POPC   C3B53637  11.009  44.352   7.061
 4159POPC   C4B53638  10.937  44.412   7.494
 4160POPC   NC353639  26.058  17.692   5.446
 4160POPC   PO453640  26.431  17.123   5.527
 4160POPC   GL153641  26.199  17.395   5.847
 4160POPC   GL253642  25.831  17.423   5.831
 4160POPC   C1A53643  26.071  17.602   6.247
 4160POPC   D2A53644  26.104  17.500   6.670
 4160POPC   C3A53645  25.831  17.396   6.997
 4160POPC   C4A53646  26.027  17.383   7.375
 4160POPC   C1B53647  25.592  17.719   6.118
 4160POPC   C2B53648  25.647  17.748   6.564
 4160POPC   C3B53649  25.638  17.883   6.989
 4160POPC   C4B53650  25.620  17.685   7.405
 4161POPC   NC353651  43.138  13.951   5.435
 4161POPC   PO453652  43.391  13.414   5.631
 4161POPC   GL153653  43.114  13.672   5.898
 4161POPC   GL253654  42.787  13.888   5.796
 4161POPC   C1A53655  43.367  13.792   6.285
 4161POPC   D2A53656  43.524  13.996   6.685
 4161POPC   C3A53657  43.338  13.901   7.076
 4161POPC   C4A53658  43.348  13.491   7.219
 4161POPC   C1B53659  42.910  14.021   6.204
 4161POPC   C2B53660  43.022  13.967   6.622
 4161POPC   C3B53661  42.850  14.003   7.004
 4161POPC   C4B53662  42.899  13.713   7.311
 4162POPC   NC353663  30.271  29.987   5.482
 4162POPC   PO453664  29.671  29.886   5.371
 4162POPC   GL153665  29.892  29.768   5.770
 4162POPC   GL253666  29.954  30.099   5.885
 4162POPC   C1A53667  30.102  29.701   6.198
 4162POPC   D2A53668  30.015  29.928   6.602
 4162POPC   C3A53669  30.080  29.855   7.044
 4162POPC   C4A53670  30.178  30.139   7.411
 4162POPC   C1B53671  29.662  30.046   6.244
 4162POPC   C2B53672  29.461  30.153   6.693
 4162POPC   C3B53673  29.254  30.089   7.119
 4162POPC   C4B53674  29.194  29.820   7.489
 4163POPC   NC353675  39.484   8.441   5.307
 4163POPC   PO453676  38.828   8.173   5.346
 4163POPC   GL153677  39.113   8.341   5.724
 4163POPC   GL253678  39.030   8.083   6.047
 4163POPC   C1A53679  39.472   8.337   6.021
 4163POPC   D2A53680  39.361   8.294   6.448
 4163POPC   C3A53681  39.543   8.541   6.763
 4163POPC   C4A53682  39.378   8.305   7.101
 4163POPC   C1B53683  39.339   7.813   6.237
 4163POPC   C2B53684  39.534   7.782   6.642
 4163POPC   C3B53685  39.367   7.779   7.055
 4163POPC   C4B53686  39.043   7.941   7.259
 4164POPC   NC353687  10.306  41.085   5.399
 4164POPC   PO453688  10.731  40.596   5.385
 4164POPC   GL153689  10.553  40.753   5.738
 4164POPC   GL253690  10.701  40.469   5.898
 4164POPC   C1A53691  10.267  40.870   6.089
 4164POPC   D2A53692  10.301  40.878   6.560
 4164POPC   C3A53693  10.566  41.142   6.846
 4164POPC   C4A53694  10.456  40.953   7.239
 4164POPC   C1B53695  10.682  40.644   6.285
 4164POPC   C2B53696  10.888  40.832   6.597
 4164POPC   C3B53697  10.868  40.736   7.016
 4164POPC   C4B53698  10.684  40.499   7.319
 4165POPC   NC353699  20.757  42.401   5.455
 4165POPC   PO453700  20.090  42.330   5.350
 4165POPC   GL153701  20.319  42.316   5.742
 4165POPC   GL253702  20.215  42.642   5.791
 4165POPC   C1A53703  20.503  42.226   6.168
 4165POPC   D2A53704  20.394  42.043   6.581
 4165POPC   C3A53705  20.596  42.160   6.979
 4165POPC   C4A53706  20.908  42.247   7.262
 4165POPC   C1B53707  20.403  42.728   6.184
 4165POPC   C2B53708  20.345  42.561   6.595
 4165POPC   C3B53709  20.434  42.687   7.012
 4165POPC   C4B53710  20.384  42.481   7.388
 4166POPC   NC353711  36.978  43.082   5.326
 4166POPC   PO453712  36.929  43.719   5.281
 4166POPC   GL153713  36.935  43.345   5.726
 4166POPC   GL253714  37.203  43.143   5.816
 4166POPC   C1A53715  36.767  43.147   6.139
 4166POPC   D2A53716  36.728  43.122   6.626
 4166POPC   C3A53717  36.854  42.859   7.007
 4166POPC   C4A53718  36.865  42.918   7.471
 4166POPC   C1B53719  37.214  42.919   6.216
 4166POPC   C2B53720  37.248  43.016   6.647
 4166POPC   C3B53721  37.086  43.321   6.951
 4166POPC   C4B53722  36.740  43.381   7.269
 4167POPC   NC353723  17.885   7.581   5.332
 4167POPC   PO453724  17.509   7.112   5.497
 4167POPC   GL153725  17.463   7.384   5.843
 4167POPC   GL253726  17.471   7.741   5.801
 4167POPC   C1A53727  17.615   7.344   6.222
 4167POPC   D2A53728  17.983   7.319   6.447
 4167POPC   C3A53729  17.859   7.448   6.817
 4167POPC   C4A53730  17.765   7.360   7.216
 4167POPC   C1B53731  17.296   7.760   6.240
 4167POPC   C2B53732  17.319   7.546   6.681
 4167POPC   C3B53733  17.269   7.570   7.160
 4167POPC   C4B53734  17.074   7.687   7.526
 4168POPC   NC353735  40.640  31.805   5.329
 4168POPC   PO453736  40.990  31.286   5.444
 4168POPC   GL153737  40.853  31.433   5.808
 4168POPC   GL253738  40.807  31.794   5.828
 4168POPC   C1A53739  41.023  31.315   6.167
 4168POPC   D2A53740  40.991  31.497   6.554
 4168POPC   C3A53741  40.912  31.273   6.928
 4168POPC   C4A53742  41.110  31.327   7.320
 4168POPC   C1B53743  40.567  31.696   6.197
 4168POPC   C2B53744  40.621  31.897   6.595
 4168POPC   C3B53745  40.839  31.787   6.957
 4168POPC   C4B53746  40.678  31.613   7.320
 4169POPC   NC353747  40.405   2.535   5.078
 4169POPC   PO453748  40.949   2.811   5.463
 4169POPC   GL153749  40.791   2.638   5.814
 4169POPC   GL253750  41.137   2.547   5.908
 4169POPC   C1A53751  40.597   2.825   6.172
 4169POPC   D2A53752  40.581   3.099   6.547
 4169POPC   C3A53753  40.556   2.926   6.960
 4169POPC   C4A53754  40.869   2.830   7.241
 4169POPC   C1B53755  41.100   2.791   6.295
 4169POPC   C2B53756  41.046   2.846   6.738
 4169POPC   C3B53757  41.220   2.525   7.022
 4169POPC   C4B53758  41.073   2.398   7.418
 4170POPC   NC353759  32.258  23.509   5.415
 4170POPC   PO453760  31.698  23.779   5.255
 4170POPC   GL153761  32.023  23.838   5.729
 4170POPC   GL253762  32.309  23.635   5.878
 4170POPC   C1A53763  32.147  23.922   6.228
 4170POPC   D2A53764  32.259  23.711   6.629
 4170POPC   C3A53765  32.231  23.902   7.045
 4170POPC   C4A53766  32.035  23.856   7.434
 4170POPC   C1B53767  32.565  23.546   6.215
 4170POPC   C2B53768  32.699  23.408   6.637
 4170POPC   C3B53769  32.558  23.509   7.066
 4170POPC   C4B53770  32.578  23.766   7.453
 4171POPC   NC353771  27.007  16.773   5.398
 4171POPC   PO453772  26.541  16.389   5.235
 4171POPC   GL153773  26.633  16.575   5.705
 4171POPC   GL253774  26.477  16.265   5.783
 4171POPC   C1A53775  26.920  16.625   6.115
 4171POPC   D2A53776  26.903  16.386   6.536
 4171POPC   C3A53777  26.988  16.590   6.948
 4171POPC   C4A53778  26.967  16.957   7.260
 4171POPC   C1B53779  26.474  16.409   6.190
 4171POPC   C2B53780  26.499  16.728   6.489
 4171POPC   C3B53781  26.446  16.677   6.912
 4171POPC   C4B53782  26.601  16.603   7.300
 4172POPC   NC353783   1.843  42.968   5.593
 4172POPC   PO453784   2.511  42.758   5.490
 4172POPC   GL153785   2.381  42.866   5.930
 4172POPC   GL253786   2.116  43.136   5.999
 4172POPC   C1A53787   2.318  42.885   6.391
 4172POPC   D2A53788   2.025  43.109   6.656
 4172POPC   C3A53789   2.141  43.101   7.070
 4172POPC   C4A53790   2.063  43.155   7.500
 4172POPC   C1B53791   1.887  43.435   6.279
 4172POPC   C2B53792   1.610  43.498   6.600
 4172POPC   C3B53793   1.738  43.405   7.002
 4172POPC   C4B53794   1.782  43.560   7.417
 4173POPC   NC353795  21.661  24.031   5.439
 4173POPC   PO453796  21.171  23.464   5.357
 4173POPC   GL153797  21.237  23.762   5.691
 4173POPC   GL253798  20.893  23.790   5.812
 4173POPC   C1A53799  21.440  23.806   6.103
 4173POPC   D2A53800  21.542  23.658   6.535
 4173POPC   C3A53801  21.358  23.702   6.939
 4173POPC   C4A53802  21.506  23.624   7.347
 4173POPC   C1B53803  20.986  23.563   6.204
 4173POPC   C2B53804  20.991  23.474   6.648
 4173POPC   C3B53805  21.114  23.231   7.012
 4173POPC   C4B53806  21.139  23.318   7.467
 4174POPC   NC353807  10.568   1.356   5.502
 4174POPC   PO453808  10.506   0.716   5.606
 4174POPC   GL153809  10.635   1.008   5.940
 4174POPC   GL253810  10.509   1.332   6.010
 4174POPC   C1A53811  10.761   1.059   6.393
 4174POPC   D2A53812  10.504   1.178   6.779
 4174POPC   C3A53813  10.694   1.123   7.172
 4174POPC   C4A53814  10.863   1.452   7.453
 4174POPC   C1B53815  10.046   1.505   6.126
 4174POPC   C2B53816   9.867   1.560   6.537
 4174POPC   C3B53817  10.130   1.608   6.904
 4174POPC   C4B53818  10.274   1.393   7.248
 4175POPC   NC353819  24.388  12.322   5.307
 4175POPC   PO453820  24.807  11.951   5.607
 4175POPC   GL153821  24.673  12.297   5.864
 4175POPC   GL253822  24.298  12.323   5.808
 4175POPC   C1A53823  24.578  12.176   6.306
 4175POPC   D2A53824  24.500  11.885   6.651
 4175POPC   C3A53825  24.638  12.047   7.042
 4175POPC   C4A53826  24.716  12.252   7.415
 4175POPC   C1B53827  24.191  12.504   6.203
 4175POPC   C2B53828  24.159  12.317   6.614
 4175POPC   C3B53829  24.226  12.382   7.040
 4175POPC   C4B53830  24.226  12.138   7.409
 4176POPC   NC353831  19.382  41.533   5.414
 4176POPC   PO453832  18.905  42.006   5.290
 4176POPC   GL153833  19.092  41.835   5.745
 4176POPC   GL253834  19.120  41.445   5.837
 4176POPC   C1A53835  19.258  41.755   6.207
 4176POPC   D2A53836  19.124  41.475   6.554
 4176POPC   C3A53837  19.349  41.584   6.941
 4176POPC   C4A53838  19.219  41.847   7.286
 4176POPC   C1B53839  19.034  41.123   6.151
 4176POPC   C2B53840  19.012  40.969   6.571
 4176POPC   C3B53841  19.061  41.164   6.996
 4176POPC   C4B53842  19.285  41.257   7.388
 4177POPC   NC353843  27.963   1.209   5.306
 4177POPC   PO453844  28.635   1.374   5.372
 4177POPC   GL153845  28.413   1.411   5.780
 4177POPC   GL253846  28.090   1.567   5.723
 4177POPC   C1A53847  28.434   1.227   6.205
 4177POPC   D2A53848  28.302   0.995   6.577
 4177POPC   C3A53849  28.360   1.153   6.990
 4177POPC   C4A53850  28.317   1.067   7.450
 4177POPC   C1B53851  28.136   1.646   6.175
 4177POPC   C2B53852  28.193   1.512   6.598
 4177POPC   C3B53853  28.064   1.563   7.018
 4177POPC   C4B53854  28.074   1.509   7.461
 4178POPC   NC353855  30.475   9.451   5.377
 4178POPC   PO453856  30.771  10.103   5.341
 4178POPC   GL153857  30.788   9.816   5.687
 4178POPC   GL253858  30.475   9.714   5.799
 4178POPC   C1A53859  30.863   9.687   6.134
 4178POPC   D2A53860  30.745   9.617   6.577
 4178POPC   C3A53861  31.019   9.649   6.969
 4178POPC   C4A53862  30.861   9.817   7.379
 4178POPC   C1B53863  30.419   9.453   6.175
 4178POPC   C2B53864  30.267   9.403   6.590
 4178POPC   C3B53865  30.489   9.458   7.001
 4178POPC   C4B53866  30.359   9.667   7.384
 4179POPC   NC353867  22.780  35.147   5.492
 4179POPC   PO453868  23.079  35.702   5.381
 4179POPC   GL153869  22.983  35.500   5.802
 4179POPC   GL253870  23.204  35.198   5.816
 4179POPC   C1A53871  23.120  35.554   6.237
 4179POPC   D2A53872  23.265  35.654   6.651
 4179POPC   C3A53873  22.915  35.678   6.935
 4179POPC   C4A53874  22.758  35.563   7.362
 4179POPC   C1B53875  22.952  35.071   6.185
 4179POPC   C2B53876  22.943  35.218   6.624
 4179POPC   C3B53877  23.040  35.192   7.067
 4179POPC   C4B53878  23.114  35.207   7.510
 4180POPC   NC353879   4.102  36.280   5.348
 4180POPC   PO453880   4.441  35.738   5.627
 4180POPC   GL153881   4.195  36.084   5.810
 4180POPC   GL253882   3.869  36.155   5.976
 4180POPC   C1A53883   4.321  36.341   6.153
 4180POPC   D2A53884   4.465  36.120   6.497
 4180POPC   C3A53885   4.341  36.236   6.921
 4180POPC   C4A53886   4.462  35.877   7.154
 4180POPC   C1B53887   4.029  35.914   6.316
 4180POPC   C2B53888   4.142  35.776   6.727
 4180POPC   C3B53889   3.960  35.918   7.093
 4180POPC   C4B53890   3.924  36.278   7.347
 4181POPC   NC353891   1.391   4.420   5.531
 4181POPC   PO453892   1.022   4.021   5.182
 4181POPC   GL153893   1.265   3.999   5.738
 4181POPC   GL253894   1.127   4.366   5.962
 4181POPC   C1A53895   1.389   4.062   6.239
 4181POPC   D2A53896   1.234   4.078   6.695
 4181POPC   C3A53897   1.401   4.338   7.022
 4181POPC   C4A53898   1.746   4.305   7.229
 4181POPC   C1B53899   0.879   4.188   6.341
 4181POPC   C2B53900   0.716   4.127   6.738
 4181POPC   C3B53901   0.922   4.168   7.098
 4181POPC   C4B53902   1.023   4.500   7.345
 4182POPC   NC353903   0.813  28.207   5.197
 4182POPC   PO453904   1.309  28.547   5.586
 4182POPC   GL153905   1.282  28.397   5.924
 4182POPC   GL253906   1.484  28.104   5.867
 4182POPC   C1A53907   1.085  28.480   6.309
 4182POPC   D2A53908   0.808  28.387   6.632
 4182POPC   C3A53909   1.070  28.444   6.967
 4182POPC   C4A53910   1.115  28.586   7.367
 4182POPC   C1B53911   1.298  27.997   6.240
 4182POPC   C2B53912   1.208  28.058   6.645
 4182POPC   C3B53913   1.421  28.101   7.033
 4182POPC   C4B53914   1.266  28.086   7.433
 4183POPC   NC353915  16.440   6.757   5.239
 4183POPC   PO453916  17.031   6.642   5.599
 4183POPC   GL153917  17.093   6.717   6.012
 4183POPC   GL253918  16.809   6.925   6.067
 4183POPC   C1A53919  16.996   6.534   6.427
 4183POPC   D2A53920  16.588   6.586   6.694
 4183POPC   C3A53921  16.690   6.433   7.099
 4183POPC   C4A53922  17.049   6.644   7.339
 4183POPC   C1B53923  17.062   7.040   6.440
 4183POPC   C2B53924  17.004   6.825   6.856
 4183POPC   C3B53925  16.638   6.923   7.142
 4183POPC   C4B53926  16.296   7.049   7.383
 4184POPC   NC353927  27.891  35.351   5.527
 4184POPC   PO453928  27.286  35.167   5.532
 4184POPC   GL153929  27.488  35.428   5.870
 4184POPC   GL253930  27.809  35.224   6.011
 4184POPC   C1A53931  27.451  35.443   6.323
 4184POPC   D2A53932  27.496  35.056   6.500
 4184POPC   C3A53933  27.464  35.066   6.933
 4184POPC   C4A53934  27.338  35.420   7.178
 4184POPC   C1B53935  27.883  35.664   6.134
 4184POPC   C2B53936  27.772  35.827   6.543
 4184POPC   C3B53937  27.762  35.541   6.927
 4184POPC   C4B53938  27.905  35.155   7.176
 4185POPC   NC353939  18.014  39.259   5.463
 4185POPC   PO453940  18.642  39.058   5.428
 4185POPC   GL153941  18.470  39.243   5.853
 4185POPC   GL253942  18.095  39.316   5.945
 4185POPC   C1A53943  18.611  39.177   6.300
 4185POPC   D2A53944  18.648  39.123   6.768
 4185POPC   C3A53945  18.670  39.391   7.110
 4185POPC   C4A53946  18.542  39.173   7.513
 4185POPC   C1B53947  18.134  39.356   6.367
 4185POPC   C2B53948  18.189  39.315   6.771
 4185POPC   C3B53949  18.174  39.317   7.197
 4185POPC   C4B53950  17.908  39.191   7.531
 4186POPC   NC353951  37.295   9.609   5.573
 4186POPC   PO453952  37.851   9.873   5.266
 4186POPC   GL153953  37.738   9.708   5.766
 4186POPC   GL253954  38.032   9.588   6.001
 4186POPC   C1A53955  37.655   9.871   6.209
 4186POPC   D2A53956  37.718   9.692   6.630
 4186POPC   C3A53957  37.630   9.871   7.065
 4186POPC   C4A53958  37.578   9.504   7.340
 4186POPC   C1B53959  38.194   9.870   6.371
 4186POPC   C2B53960  38.177   9.858   6.819
 4186POPC   C3B53961  37.990   9.491   7.033
 4186POPC   C4B53962  38.043   9.308   7.443
 4187POPC   NC353963  28.798  18.138   5.329
 4187POPC   PO453964  28.833  18.720   5.603
 4187POPC   GL153965  28.937  18.350   5.831
 4187POPC   GL253966  28.720  18.016   5.841
 4187POPC   C1A53967  29.081  18.495   6.245
 4187POPC   D2A53968  28.896  18.618   6.639
 4187POPC   C3A53969  29.184  18.712   6.976
 4187POPC   C4A53970  29.206  18.481   7.344
 4187POPC   C1B53971  29.037  17.980   6.184
 4187POPC   C2B53972  29.205  18.133   6.588
 4187POPC   C3B53973  29.142  18.063   7.001
 4187POPC   C4B53974  29.405  18.008   7.345
 4188POPC   NC353975  36.416  17.936   5.592
 4188POPC   PO453976  36.291  17.386   5.249
 4188POPC   GL153977  36.243  17.461   5.706
 4188POPC   GL253978  36.004  17.745   5.797
 4188POPC   C1A53979  36.381  17.412   6.139
 4188POPC   D2A53980  36.203  17.205   6.485
 4188POPC   C3A53981  36.323  17.252   6.910
 4188POPC   C4A53982  36.180  17.477   7.269
 4188POPC   C1B53983  36.132  17.869   6.215
 4188POPC   C2B53984  36.110  17.700   6.623
 4188POPC   C3B53985  36.058  17.906   7.015
 4188POPC   C4B53986  36.266  17.967   7.436
 4189POPC   NC353987  44.802  35.549   5.079
 4189POPC   PO453988  44.665  35.115   5.477
 4189POPC   GL153989  44.586  35.421   5.749
 4189POPC   GL253990  44.683  35.209   5.988
 4189POPC   C1A53991  44.275  35.485   6.097
 4189POPC   D2A53992  44.465  35.333   6.481
 4189POPC   C3A53993  44.273  35.469   6.856
 4189POPC   C4A53994  44.382  35.348   7.246
 4189POPC   C1B53995  44.893  35.077   6.320
 4189POPC   C2B53996  44.963  35.290   6.675
 4189POPC   C3B53997  44.851  35.180   7.073
 4189POPC   C4B53998  44.779  35.066   7.475
 4190POPC   NC353999  26.462   9.259   5.479
 4190POPC   PO454000  25.991   8.799   5.339
 4190POPC   GL154001  26.154   8.919   5.757
 4190POPC   GL254002  25.973   9.208   5.844
 4190POPC   C1A54003  26.237   8.867   6.218
 4190POPC   D2A54004  26.029   8.634   6.555
 4190POPC   C3A54005  26.115   8.760   6.984
 4190POPC   C4A54006  25.942   8.866   7.380
 4190POPC   C1B54007  26.184   9.367   6.202
 4190POPC   C2B54008  26.247   9.221   6.622
 4190POPC   C3B54009  25.970   9.256   6.969
 4190POPC   C4B54010  26.184   9.364   7.302
 4191POPC   NC354011   4.730  32.717   5.596
 4191POPC   PO454012   5.234  32.243   5.378
 4191POPC   GL154013   5.146  32.108   5.767
 4191POPC   GL254014   5.093  32.456   5.864
 4191POPC   C1A54015   5.023  32.104   6.205
 4191POPC   D2A54016   5.064  32.337   6.551
 4191POPC   C3A54017   5.276  32.093   6.874
 4191POPC   C4A54018   5.152  31.796   7.196
 4191POPC   C1B54019   4.979  32.740   6.210
 4191POPC   C2B54020   4.918  32.898   6.621
 4191POPC   C3B54021   5.127  32.666   6.918
 4191POPC   C4B54022   5.172  32.418   7.244
 4192POPC   NC354023  44.088  24.428   5.356
 4192POPC   PO454024  43.706  23.988   5.608
 4192POPC   GL154025  43.856  24.364   5.788
 4192POPC   GL254026  44.174  24.188   5.856
 4192POPC   C1A54027  43.944  24.646   6.134
 4192POPC   D2A54028  43.742  24.811   6.485
 4192POPC   C3A54029  43.889  24.697   6.874
 4192POPC   C4A54030  43.734  24.527   7.261
 4192POPC   C1B54031  43.843  24.131   6.214
 4192POPC   C2B54032  43.749  24.312   6.566
 4192POPC   C3B54033  43.863  24.173   6.942
 4192POPC   C4B54034  43.716  24.019   7.297
 4193POPC   NC354035  20.175   5.403   5.432
 4193POPC   PO454036  20.842   5.280   5.300
 4193POPC   GL154037  20.975   5.088   5.810
 4193POPC   GL254038  20.691   5.098   6.035
 4193POPC   C1A54039  21.094   5.244   6.271
 4193POPC   D2A54040  20.795   5.159   6.613
 4193POPC   C3A54041  20.646   5.402   6.978
 4193POPC   C4A54042  20.370   5.252   7.278
 4193POPC   C1B54043  20.437   4.820   6.271
 4193POPC   C2B54044  20.380   4.844   6.684
 4193POPC   C3B54045  20.164   4.826   7.052
 4193POPC   C4B54046  20.243   4.803   7.486
 4194POPC   NC354047   1.208  34.073   5.449
 4194POPC   PO454048   1.294  33.464   5.192
 4194POPC   GL154049   1.313  33.618   5.681
 4194POPC   GL254050   1.539  33.871   5.793
 4194POPC   C1A54051   1.166  33.802   6.129
 4194POPC   D2A54052   1.257  34.050   6.515
 4194POPC   C3A54053   1.095  33.925   6.921
 4194POPC   C4A54054   1.212  33.854   7.350
 4194POPC   C1B54055   1.683  34.046   6.203
 4194POPC   C2B54056   1.803  34.047   6.665
 4194POPC   C3B54057   1.609  34.069   7.106
 4194POPC   C4B54058   1.635  34.112   7.586
 4195POPC   NC354059  30.283  27.521   5.366
 4195POPC   PO454060  30.854  27.781   5.377
 4195POPC   GL154061  30.634  27.712   5.774
 4195POPC   GL254062  30.496  28.046   5.747
 4195POPC   C1A54063  30.646  27.527   6.237
 4195POPC   D2A54064  30.868  27.670   6.646
 4195POPC   C3A54065  30.725  27.540   7.073
 4195POPC   C4A54066  30.608  27.392   7.508
 4195POPC   C1B54067  30.429  27.984   6.173
 4195POPC   C2B54068  30.346  27.806   6.569
 4195POPC   C3B54069  30.348  27.987   6.957
 4195POPC   C4B54070  30.445  27.882   7.343
 4196POPC   NC354071   1.660   9.537   5.419
 4196POPC   PO454072   1.190   8.997   5.457
 4196POPC   GL154073   1.238   8.799   5.843
 4196POPC   GL254074   1.581   8.923   5.910
 4196POPC   C1A54075   1.190   8.739   6.297
 4196POPC   D2A54076   1.425   8.889   6.674
 4196POPC   C3A54077   1.178   8.761   7.020
 4196POPC   C4A54078   1.181   8.596   7.434
 4196POPC   C1B54079   1.422   9.200   6.262
 4196POPC   C2B54080   1.549   9.381   6.635
 4196POPC   C3B54081   1.354   9.305   7.000
 4196POPC   C4B54082   1.284   9.105   7.408
 4197POPC   NC354083  26.563  12.415   5.447
 4197POPC   PO454084  27.057  11.961   5.500
 4197POPC   GL154085  26.723  12.042   5.793
 4197POPC   GL254086  26.829  12.334   5.876
 4197POPC   C1A54087  26.474  11.893   6.126
 4197POPC   D2A54088  26.590  11.739   6.545
 4197POPC   C3A54089  26.767  12.035   6.842
 4197POPC   C4A54090  26.709  12.027   7.291
 4197POPC   C1B54091  26.825  12.213   6.300
 4197POPC   C2B54092  26.867  12.611   6.508
 4197POPC   C3B54093  27.048  12.638   6.876
 4197POPC   C4B54094  27.056  12.386   7.200
 4198POPC   NC354095  35.116  25.997   5.064
 4198POPC   PO454096  35.409  26.293   5.561
 4198POPC   GL154097  35.239  26.204   5.965
 4198POPC   GL254098  35.324  25.870   5.948
 4198POPC   C1A54099  35.380  26.168   6.407
 4198POPC   D2A54100  35.439  26.470   6.745
 4198POPC   C3A54101  35.262  26.372   7.143
 4198POPC   C4A54102  35.176  26.136   7.527
 4198POPC   C1B54103  35.136  25.722   6.328
 4198POPC   C2B54104  35.172  25.792   6.760
 4198POPC   C3B54105  35.317  25.845   7.152
 4198POPC   C4B54106  35.459  25.662   7.536
 4199POPC   NC354107  21.107  37.051   5.460
 4199POPC   PO454108  21.746  37.023   5.223
 4199POPC   GL154109  21.595  36.957   5.718
 4199POPC   GL254110  21.722  36.723   5.966
 4199POPC   C1A54111  21.309  37.038   6.147
 4199POPC   D2A54112  21.368  37.237   6.616
 4199POPC   C3A54113  21.266  37.097   7.077
 4199POPC   C4A54114  21.483  37.151   7.507
 4199POPC   C1B54115  21.537  36.602   6.353
 4199POPC   C2B54116  21.610  36.774   6.770
 4199POPC   C3B54117  21.650  36.781   7.206
 4199POPC   C4B54118  21.377  36.615   7.541
 4200POPC   NC354119  16.943  16.769   5.344
 4200POPC   PO454120  16.349  17.112   5.451
 4200POPC   GL154121  16.432  16.721   5.785
 4200POPC   GL254122  16.795  16.586   5.811
 4200POPC   C1A54123  16.432  16.605   6.245
 4200POPC   D2A54124  16.658  16.874   6.570
 4200POPC   C3A54125  16.561  16.934   7.017
 4200POPC   C4A54126  16.638  16.784   7.442
 4200POPC   C1B54127  16.951  16.552   6.240
 4200POPC   C2B54128  16.776  16.387   6.628
 4200POPC   C3B54129  16.855  16.493   7.059
 4200POPC   C4B54130  17.067  16.509   7.475
 4201POPC   NC354131  20.250   1.408   5.349
 4201POPC   PO454132  20.986   1.298   5.432
 4201POPC   GL154133  20.707   1.435   5.739
 4201POPC   GL254134  20.491   1.191   5.736
 4201POPC   C1A54135  20.687   1.517   6.175
 4201POPC   D2A54136  20.463   1.436   6.524
 4201POPC   C3A54137  20.607   1.421   6.940
 4201POPC   C4A54138  20.577   1.238   7.378
 4201POPC   C1B54139  20.414   1.077   6.129
 4201POPC   C2B54140  20.479   0.929   6.531
 4201POPC   C3B54141  20.421   0.953   6.950
 4201POPC   C4B54142  20.307   0.803   7.325
 4202POPC   NC354143  15.760   2.768   5.439
 4202POPC   PO454144  16.330   3.039   5.423
 4202POPC   GL154145  16.080   2.862   5.818
 4202POPC   GL254146  15.780   2.610   5.914
 4202POPC   C1A54147  16.029   2.923   6.278
 4202POPC   D2A54148  15.894   2.828   6.726
 4202POPC   C3A54149  16.205   3.008   7.049
 4202POPC   C4A54150  16.283   2.817   7.468
 4202POPC   C1B54151  15.547   2.767   6.289
 4202POPC   C2B54152  15.444   3.077   6.584
 4202POPC   C3B54153  15.536   3.114   7.023
 4202POPC   C4B54154  15.802   2.818   7.280
 4203POPC   NC354155  34.751  24.625   5.157
 4203POPC   PO454156  34.334  24.163   5.435
 4203POPC   GL154157  34.531  24.383   5.794
 4203POPC   GL254158  34.681  24.681   5.674
 4203POPC   C1A54159  34.450  24.397   6.260
 4203POPC   D2A54160  34.232  24.526   6.648
 4203POPC   C3A54161  34.331  24.305   7.058
 4203POPC   C4A54162  34.637  24.315   7.389
 4203POPC   C1B54163  34.607  24.850   6.085
 4203POPC   C2B54164  34.569  24.908   6.538
 4203POPC   C3B54165  34.518  24.784   6.995
 4203POPC   C4B54166  34.786  24.910   7.334
 4204POPC   NC354167  37.094  20.224   5.195
 4204POPC   PO454168  36.814  19.663   5.490
 4204POPC   GL154169  36.706  19.796   5.890
 4204POPC   GL254170  36.803  20.126   5.811
 4204POPC   C1A54171  36.960  19.858   6.278
 4204POPC   D2A54172  37.181  19.919   6.680
 4204POPC   C3A54173  37.152  19.645   7.030
 4204POPC   C4A54174  37.168  19.648   7.498
 4204POPC   C1B54175  36.602  20.224   6.204
 4204POPC   C2B54176  36.592  19.987   6.622
 4204POPC   C3B54177  36.774  20.006   7.026
 4204POPC   C4B54178  36.735  20.225   7.416
 4205POPC   NC354179  12.890  25.657   5.275
 4205POPC   PO454180  12.514  25.158   5.358
 4205POPC   GL154181  12.604  25.358   5.774
 4205POPC   GL254182  12.790  25.695   5.784
 4205POPC   C1A54183  12.585  25.269   6.237
 4205POPC   D2A54184  12.878  25.206   6.602
 4205POPC   C3A54185  12.657  25.081   6.976
 4205POPC   C4A54186  12.788  25.151   7.400
 4205POPC   C1B54187  12.560  25.777   6.192
 4205POPC   C2B54188  12.575  25.630   6.660
 4205POPC   C3B54189  12.832  25.547   7.051
 4205POPC   C4B54190  12.870  25.661   7.482
 4206POPC   NC354191  29.717  23.059   5.332
 4206POPC   PO454192  30.292  23.323   5.433
 4206POPC   GL154193  30.006  23.114   5.763
 4206POPC   GL254194  29.660  23.183   5.827
 4206POPC   C1A54195  30.023  22.959   6.191
 4206POPC   D2A54196  30.240  22.782   6.570
 4206POPC   C3A54197  29.944  22.665   6.887
 4206POPC   C4A54198  29.891  22.889   7.257
 4206POPC   C1B54199  29.587  23.228   6.270
 4206POPC   C2B54200  29.845  23.183   6.650
 4206POPC   C3B54201  29.638  23.262   7.038
 4206POPC   C4B54202  29.580  23.235   7.467
 4207POPC   NC354203  22.089  38.373   5.382
 4207POPC   PO454204  21.829  38.940   5.677
 4207POPC   GL154205  22.070  38.667   5.918
 4207POPC   GL254206  22.236  38.392   5.867
 4207POPC   C1A54207  22.181  38.586   6.331
 4207POPC   D2A54208  22.029  38.376   6.660
 4207POPC   C3A54209  22.110  38.550   7.054
 4207POPC   C4A54210  21.971  38.378   7.393
 4207POPC   C1B54211  22.156  38.080   6.221
 4207POPC   C2B54212  22.190  37.869   6.603
 4207POPC   C3B54213  22.299  38.068   6.972
 4207POPC   C4B54214  22.479  38.262   7.322
 4208POPC   NC354215   5.074  21.056   5.434
 4208POPC   PO454216   5.046  21.795   5.383
 4208POPC   GL154217   5.244  21.567   5.705
 4208POPC   GL254218   4.973  21.353   5.845
 4208POPC   C1A54219   5.293  21.633   6.153
 4208POPC   D2A54220   5.062  21.444   6.502
 4208POPC   C3A54221   5.234  21.534   6.925
 4208POPC   C4A54222   4.992  21.705   7.254
 4208POPC   C1B54223   5.252  21.105   6.138
 4208POPC   C2B54224   5.143  20.927   6.549
 4208POPC   C3B54225   4.918  21.111   6.885
 4208POPC   C4B54226   5.129  21.120   7.252
 4209POPC   NC354227  39.066  18.778   5.685
 4209POPC   PO454228  39.274  19.412   5.397
 4209POPC   GL154229  39.378  19.198   5.778
 4209POPC   GL254230  39.642  18.966   5.766
 4209POPC   C1A54231  39.235  19.254   6.199
 4209POPC   D2A54232  39.412  19.181   6.607
 4209POPC   C3A54233  39.202  19.126   7.010
 4209POPC   C4A54234  39.265  19.196   7.449
 4209POPC   C1B54235  39.531  18.818   6.192
 4209POPC   C2B54236  39.479  18.676   6.622
 4209POPC   C3B54237  39.337  18.626   7.013
 4209POPC   C4B54238  39.109  18.724   7.382
 4210POPC   NC354239  19.627  17.421   5.189
 4210POPC   PO454240  20.229  17.182   5.326
 4210POPC   GL154241  20.047  17.363   5.710
 4210POPC   GL254242  19.724  17.492   5.753
 4210POPC   C1A54243  20.059  17.585   6.121
 4210POPC   D2A54244  19.832  17.521   6.498
 4210POPC   C3A54245  19.990  17.494   6.922
 4210POPC   C4A54246  19.895  17.315   7.349
 4210POPC   C1B54247  19.460  17.698   6.072
 4210POPC   C2B54248  19.325  17.601   6.487
 4210POPC   C3B54249  19.523  17.712   6.859
 4210POPC   C4B54250  19.334  17.830   7.202
 4211POPC   NC354251  27.334  40.413   5.168
 4211POPC   PO454252  27.784  40.106   5.579
 4211POPC   GL154253  27.791  39.807   5.927
 4211POPC   GL254254  27.435  39.846   5.928
 4211POPC   C1A54255  27.834  39.679   6.370
 4211POPC   D2A54256  27.888  39.967   6.725
 4211POPC   C3A54257  27.599  39.893   7.063
 4211POPC   C4A54258  27.625  39.885   7.488
 4211POPC   C1B54259  27.515  40.080   6.324
 4211POPC   C2B54260  27.442  40.293   6.721
 4211POPC   C3B54261  27.196  40.262   7.071
 4211POPC   C4B54262  27.102  39.961   7.378
 4212POPC   NC354263  15.898  32.679   5.272
 4212POPC   PO454264  16.049  32.019   5.418
 4212POPC   GL154265  15.855  32.020   5.868
 4212POPC   GL254266  15.865  32.319   5.963
 4212POPC   C1A54267  16.022  32.066   6.349
 4212POPC   D2A54268  16.379  32.255   6.606
 4212POPC   C3A54269  16.294  32.208   7.069
 4212POPC   C4A54270  15.944  32.153   7.391
 4212POPC   C1B54271  15.999  32.561   6.330
 4212POPC   C2B54272  15.926  32.457   6.759
 4212POPC   C3B54273  15.602  32.542   7.037
 4212POPC   C4B54274  15.507  32.694   7.454
 4213POPC   NC354275  12.701  43.281   5.454
 4213POPC   PO454276  12.674  42.689   5.602
 4213POPC   GL154277  12.654  43.038   5.919
 4213POPC   GL254278  12.878  43.340   5.927
 4213POPC   C1A54279  12.638  43.075   6.386
 4213POPC   D2A54280  12.360  43.109   6.758
 4213POPC   C3A54281  12.612  43.084   7.124
 4213POPC   C4A54282  13.083  43.068   7.058
 4213POPC   C1B54283  13.035  43.585   6.238
 4213POPC   C2B54284  13.302  43.466   6.583
 4213POPC   C3B54285  13.294  43.532   6.988
 4213POPC   C4B54286  12.944  43.513   7.245
 4214POPC   NC354287  17.803  27.337   5.414
 4214POPC   PO454288  17.311  27.725   5.278
 4214POPC   GL154289  17.443  27.474   5.749
 4214POPC   GL254290  17.716  27.564   5.849
 4214POPC   C1A54291  17.508  27.613   6.274
 4214POPC   D2A54292  17.748  27.783   6.621
 4214POPC   C3A54293  17.650  27.611   6.997
 4214POPC   C4A54294  17.529  27.705   7.377
 4214POPC   C1B54295  17.807  27.226   6.116
 4214POPC   C2B54296  17.944  27.285   6.507
 4214POPC   C3B54297  17.931  27.199   6.906
 4214POPC   C4B54298  17.712  27.163   7.275
 4215POPC   NC354299  12.542  14.527   5.205
 4215POPC   PO454300  13.186  14.465   5.196
 4215POPC   GL154301  12.893  14.312   5.649
 4215POPC   GL254302  12.957  14.469   5.911
 4215POPC   C1A54303  12.675  14.176   6.161
 4215POPC   D2A54304  12.448  14.133   6.580
 4215POPC   C3A54305  12.650  14.302   6.951
 4215POPC   C4A54306  12.978  14.209   7.250
 4215POPC   C1B54307  12.961  14.668   6.278
 4215POPC   C2B54308  12.796  14.720   6.649
 4215POPC   C3B54309  13.033  14.639   6.970
 4215POPC   C4B54310  12.908  14.733   7.316
 4216POPC   NC354311   2.904  16.060   5.383
 4216POPC   PO454312   2.237  16.360   5.564
 4216POPC   GL154313   2.606  16.082   5.803
 4216POPC   GL254314   2.997  16.108   5.871
 4216POPC   C1A54315   2.740  15.898   6.242
 4216POPC   D2A54316   2.717  16.234   6.544
 4216POPC   C3A54317   2.861  16.186   6.952
 4216POPC   C4A54318   2.854  16.023   7.374
 4216POPC   C1B54319   3.234  16.004   6.229
 4216POPC   C2B54320   3.157  15.899   6.630
 4216POPC   C3B54321   3.088  15.735   7.024
 4216POPC   C4B54322   3.356  15.674   7.357
 4217POPC   NC354323   5.272  29.909   5.510
 4217POPC   PO454324   4.764  30.308   5.465
 4217POPC   GL154325   4.900  30.064   5.840
 4217POPC   GL254326   4.901  29.706   5.810
 4217POPC   C1A54327   5.250  29.961   6.154
 4217POPC   D2A54328   5.334  29.749   6.540
 4217POPC   C3A54329   5.191  30.027   6.865
 4217POPC   C4A54330   5.179  29.949   7.283
 4217POPC   C1B54331   4.972  29.547   6.217
 4217POPC   C2B54332   4.994  29.369   6.654
 4217POPC   C3B54333   5.207  29.506   7.009
 4217POPC   C4B54334   5.116  29.474   7.443
 4218POPC   NC354335  27.639  37.823   5.388
 4218POPC   PO454336  27.916  37.247   5.687
 4218POPC   GL154337  27.701  37.606   5.853
 4218POPC   GL254338  27.366  37.482   5.892
 4218POPC   C1A54339  27.499  37.947   6.120
 4218POPC   D2A54340  27.351  37.856   6.545
 4218POPC   C3A54341  27.709  37.813   6.827
 4218POPC   C4A54342  27.744  37.952   7.223
 4218POPC   C1B54343  27.488  37.273   6.281
 4218POPC   C2B54344  27.435  37.372   6.736
 4218POPC   C3B54345  27.332  37.612   7.113
 4218POPC   C4B54346  27.172  37.443   7.524
 4219POPC   NC354347  34.491  10.132   5.427
 4219POPC   PO454348  34.787  10.748   5.527
 4219POPC   GL154349  34.482  10.587   5.788
 4219POPC   GL254350  34.445  10.255   5.916
 4219POPC   C1A54351  34.513  10.632   6.233
 4219POPC   D2A54352  34.643  10.838   6.555
 4219POPC   C3A54353  34.439  10.763   6.904
 4219POPC   C4A54354  34.516  10.805   7.341
 4219POPC   C1B54355  34.793  10.173   6.203
 4219POPC   C2B54356  34.657  10.258   6.583
 4219POPC   C3B54357  34.396  10.082   6.869
 4219POPC   C4B54358  34.440  10.300   7.228
 4220POPC   NC354359  44.255  41.485   5.614
 4220POPC   PO454360  43.717  41.451   5.295
 4220POPC   GL154361  43.794  41.398   5.783
 4220POPC   GL254362  43.915  41.710   5.960
 4220POPC   C1A54363  43.707  41.326   6.238
 4220POPC   D2A54364  43.840  41.493   6.658
 4220POPC   C3A54365  43.719  41.518   7.128
 4220POPC   C4A54366  43.864  41.754   7.527
 4220POPC   C1B54367  44.240  41.544   6.262
 4220POPC   C2B54368  44.361  41.384   6.645
 4220POPC   C3B54369  44.216  41.595   6.987
 4220POPC   C4B54370  44.184  41.409   7.352
 4221POPC   NC354371   5.674  11.362   5.457
 4221POPC   PO454372   6.285  11.543   5.474
 4221POPC   GL154373   6.069  11.272   5.853
 4221POPC   GL254374   5.725  11.130   5.909
 4221POPC   C1A54375   5.922  11.428   6.260
 4221POPC   D2A54376   5.931  11.637   6.625
 4221POPC   C3A54377   6.027  11.354   6.970
 4221POPC   C4A54378   6.172  11.265   7.388
 4221POPC   C1B54379   5.613  10.972   6.305
 4221POPC   C2B54380   5.497  11.113   6.704
 4221POPC   C3B54381   5.508  11.041   7.158
 4221POPC   C4B54382   5.586  11.061   7.620
 4222POPC   NC354383  39.512  23.456   5.382
 4222POPC   PO454384  38.915  23.572   5.472
 4222POPC   GL154385  39.219  23.495   5.807
 4222POPC   GL254386  38.974  23.281   5.983
 4222POPC   C1A54387  39.466  23.720   6.165
 4222POPC   D2A54388  39.445  23.653   6.640
 4222POPC   C3A54389  39.447  23.784   7.102
 4222POPC   C4A54390  39.253  23.818   7.527
 4222POPC   C1B54391  38.996  23.608   6.333
 4222POPC   C2B54392  38.982  23.772   6.778
 4222POPC   C3B54393  38.932  23.634   7.194
 4222POPC   C4B54394  38.700  23.732   7.579
 4223POPC   NC354395  11.230  14.062   5.514
 4223POPC   PO454396  11.642  14.597   5.241
 4223POPC   GL154397  11.451  14.483   5.685
 4223POPC   GL254398  11.065  14.514   5.695
 4223POPC   C1A54399  11.589  14.387   6.138
 4223POPC   D2A54400  11.387  14.196   6.499
 4223POPC   C3A54401  11.512  14.244   6.930
 4223POPC   C4A54402  11.183  14.308   7.196
 4223POPC   C1B54403  11.133  14.657   6.138
 4223POPC   C2B54404  11.172  14.663   6.597
 4223POPC   C3B54405  11.354  14.762   6.988
 4223POPC   C4B54406  11.071  14.852   7.322
 4224POPC   NC354407  18.102   6.104   5.101
 4224POPC   PO454408  18.511   6.495   5.420
 4224POPC   GL154409  18.411   6.619   5.857
 4224POPC   GL254410  18.151   6.849   5.744
 4224POPC   C1A54411  18.458   6.540   6.280
 4224POPC   D2A54412  18.572   6.374   6.676
 4224POPC   C3A54413  18.381   6.637   6.983
 4224POPC   C4A54414  18.492   6.763   7.380
 4224POPC   C1B54415  18.037   6.874   6.157
 4224POPC   C2B54416  17.922   6.746   6.550
 4224POPC   C3B54417  17.952   6.949   6.918
 4224POPC   C4B54418  17.977   6.825   7.304
 4225POPC   NC354419   5.417  43.969   5.599
 4225POPC   PO454420   4.755  43.930   5.617
 4225POPC   GL154421   5.036  44.023   5.935
 4225POPC   GL254422   5.124  43.676   5.886
 4225POPC   C1A54423   5.155  43.871   6.346
 4225POPC   D2A54424   4.944  43.930   6.734
 4225POPC   C3A54425   5.212  44.003   7.088
 4225POPC   C4A54426   5.244  44.107   7.546
 4225POPC   C1B54427   4.882  43.441   6.196
 4225POPC   C2B54428   4.970  43.435   6.625
 4225POPC   C3B54429   4.841  43.509   7.039
 4225POPC   C4B54430   5.071  43.634   7.399
 4226POPC   NC354431  31.245  12.204   5.505
 4226POPC   PO454432  31.767  11.889   5.518
 4226POPC   GL154433  31.515  11.835   5.843
 4226POPC   GL254434  31.236  11.683   5.726
 4226POPC   C1A54435  31.415  12.121   6.151
 4226POPC   D2A54436  31.592  12.278   6.500
 4226POPC   C3A54437  31.572  12.041   6.864
 4226POPC   C4A54438  31.423  12.239   7.221
 4226POPC   C1B54439  31.092  11.718   6.163
 4226POPC   C2B54440  31.171  11.925   6.557
 4226POPC   C3B54441  31.089  11.890   6.998
 4226POPC   C4B54442  31.201  11.834   7.431
 4227POPC   NC354443  29.991   7.159   5.280
 4227POPC   PO454444  29.542   7.491   5.534
 4227POPC   GL154445  29.802   7.534   5.906
 4227POPC   GL254446  30.051   7.803   5.866
 4227POPC   C1A54447  29.686   7.592   6.352
 4227POPC   D2A54448  29.727   7.578   6.816
 4227POPC   C3A54449  29.744   7.302   7.142
 4227POPC   C4A54450  29.827   7.384   7.566
 4227POPC   C1B54451  30.165   7.783   6.315
 4227POPC   C2B54452  30.190   7.803   6.781
 4227POPC   C3B54453  30.177   7.592   7.205
 4227POPC   C4B54454  30.344   7.381   7.604
 4228POPC   NC354455  25.677  27.732   5.494
 4228POPC   PO454456  26.253  27.227   5.424
 4228POPC   GL154457  26.134  27.562   5.743
 4228POPC   GL254458  25.824  27.492   5.927
 4228POPC   C1A54459  26.266  27.573   6.184
 4228POPC   D2A54460  26.001  27.318   6.423
 4228POPC   C3A54461  26.080  27.401   6.837
 4228POPC   C4A54462  26.178  27.673   7.186
 4228POPC   C1B54463  25.808  27.764   6.327
 4228POPC   C2B54464  25.587  27.659   6.689
 4228POPC   C3B54465  25.653  27.609   7.097
 4228POPC   C4B54466  25.788  27.634   7.510
 4229POPC   NC354467  27.317   0.963   5.190
 4229POPC   PO454468  27.655   1.567   5.324
 4229POPC   GL154469  27.626   1.332   5.747
 4229POPC   GL254470  27.896   1.072   5.812
 4229POPC   C1A54471  27.509   1.481   6.200
 4229POPC   D2A54472  27.689   1.640   6.606
 4229POPC   C3A54473  27.540   1.513   7.022
 4229POPC   C4A54474  27.149   1.324   7.165
 4229POPC   C1B54475  27.924   1.174   6.269
 4229POPC   C2B54476  27.842   1.157   6.739
 4229POPC   C3B54477  27.851   1.107   7.192
 4229POPC   C4B54478  27.793   1.130   7.645
 4230POPC   NC354479  36.638  32.604   5.224
 4230POPC   PO454480  36.817  32.024   5.392
 4230POPC   GL154481  36.904  32.290   5.728
 4230POPC   GL254482  36.788  32.610   5.737
 4230POPC   C1A54483  37.034  32.253   6.146
 4230POPC   D2A54484  36.986  31.913   6.411
 4230POPC   C3A54485  36.981  31.995   6.844
 4230POPC   C4A54486  36.963  32.152   7.284
 4230POPC   C1B54487  36.653  32.586   6.181
 4230POPC   C2B54488  36.741  32.375   6.573
 4230POPC   C3B54489  36.958  32.499   6.923
 4230POPC   C4B54490  36.698  32.609   7.258
 4231POPC   NC354491   5.256  37.835   5.320
 4231POPC   PO454492   4.837  37.410   5.612
 4231POPC   GL154493   5.184  37.560   5.843
 4231POPC   GL254494   5.211  37.939   5.835
 4231POPC   C1A54495   5.240  37.669   6.292
 4231POPC   D2A54496   5.409  37.757   6.682
 4231POPC   C3A54497   5.210  37.577   7.035
 4231POPC   C4A54498   4.861  37.525   7.275
 4231POPC   C1B54499   4.826  37.880   6.101
 4231POPC   C2B54500   4.799  37.778   6.550
 4231POPC   C3B54501   5.019  38.009   6.870
 4231POPC   C4B54502   5.122  37.984   7.311
 4232POPC   NC354503  36.718   4.777   5.500
 4232POPC   PO454504  37.116   4.183   5.556
 4232POPC   GL154505  37.050   4.194   5.986
 4232POPC   GL254506  36.818   4.456   5.888
 4232POPC   C1A54507  37.085   4.164   6.454
 4232POPC   D2A54508  37.099   4.547   6.759
 4232POPC   C3A54509  37.125   4.434   7.203
 4232POPC   C4A54510  37.106   4.053   7.430
 4232POPC   C1B54511  36.842   4.568   6.290
 4232POPC   C2B54512  36.630   4.364   6.643
 4232POPC   C3B54513  36.643   4.513   7.051
 4232POPC   C4B54514  36.728   4.553   7.512
 4233POPC   NC354515  30.040  37.353   5.431
 4233POPC   PO454516  29.961  38.004   5.344
 4233POPC   GL154517  30.066  37.752   5.727
 4233POPC   GL254518  29.725  37.627   5.880
 4233POPC   C1A54519  30.121  37.732   6.185
 4233POPC   D2A54520  30.032  37.966   6.562
 4233POPC   C3A54521  29.729  38.067   6.829
 4233POPC   C4A54522  29.829  37.805   7.188
 4233POPC   C1B54523  29.780  37.344   6.251
 4233POPC   C2B54524  29.885  37.445   6.666
 4233POPC   C3B54525  29.827  37.187   7.017
 4233POPC   C4B54526  29.891  37.260   7.436
 4234POPC   NC354527  11.760   8.610   5.480
 4234POPC   PO454528  12.169   8.099   5.369
 4234POPC   GL154529  12.170   7.957   5.778
 4234POPC   GL254530  12.385   8.211   5.906
 4234POPC   C1A54531  11.979   8.068   6.182
 4234POPC   D2A54532  11.971   8.441   6.446
 4234POPC   C3A54533  12.037   8.341   6.879
 4234POPC   C4A54534  11.873   8.420   7.326
 4234POPC   C1B54535  12.455   7.899   6.224
 4234POPC   C2B54536  12.281   7.936   6.610
 4234POPC   C3B54537  12.455   7.907   6.990
 4234POPC   C4B54538  12.487   8.119   7.385
 4235POPC   NC354539  32.864   9.210   5.444
 4235POPC   PO454540  32.696   8.603   5.524
 4235POPC   GL154541  32.976   8.850   5.842
 4235POPC   GL254542  33.117   9.208   5.900
 4235POPC   C1A54543  32.966   8.981   6.303
 4235POPC   D2A54544  32.893   9.330   6.558
 4235POPC   C3A54545  32.945   9.090   6.899
 4235POPC   C4A54546  32.928   8.929   7.273
 4235POPC   C1B54547  33.423   9.206   6.245
 4235POPC   C2B54548  33.396   9.267   6.712
 4235POPC   C3B54549  33.409   9.219   7.160
 4235POPC   C4B54550  33.320   9.085   7.563
 4236POPC   NC354551  25.968  20.741   5.494
 4236POPC   PO454552  26.283  20.249   5.284
 4236POPC   GL154553  26.140  20.361   5.781
 4236POPC   GL254554  26.170  20.746   5.965
 4236POPC   C1A54555  25.840  20.465   6.169
 4236POPC   D2A54556  26.021  20.710   6.531
 4236POPC   C3A54557  26.033  20.455   6.905
 4236POPC   C4A54558  25.877  20.345   7.299
 4236POPC   C1B54559  26.351  20.433   6.250
 4236POPC   C2B54560  26.467  20.281   6.645
 4236POPC   C3B54561  26.565  20.537   6.984
 4236POPC   C4B54562  26.357  20.536   7.352
 4237POPC   NC354563  24.431  14.821   5.461
 4237POPC   PO454564  24.643  15.482   5.388
 4237POPC   GL154565  24.796  15.339   5.808
 4237POPC   GL254566  24.681  14.999   5.862
 4237POPC   C1A54567  24.765  15.298   6.280
 4237POPC   D2A54568  24.779  15.363   6.725
 4237POPC   C3A54569  24.383  15.355   6.959
 4237POPC   C4A54570  24.363  15.222   7.377
 4237POPC   C1B54571  24.553  14.796   6.220
 4237POPC   C2B54572  24.425  14.989   6.598
 4237POPC   C3B54573  24.589  14.902   6.998
 4237POPC   C4B54574  24.348  14.731   7.380
 4238POPC   NC354575  27.678  21.518   5.205
 4238POPC   PO454576  27.802  20.900   5.403
 4238POPC   GL154577  27.574  21.225   5.703
 4238POPC   GL254578  27.687  21.575   5.703
 4238POPC   C1A54579  27.337  21.313   6.122
 4238POPC   D2A54580  27.517  21.227   6.519
 4238POPC   C3A54581  27.338  21.319   6.892
 4238POPC   C4A54582  27.549  21.150   7.227
 4238POPC   C1B54583  27.717  21.686   6.111
 4238POPC   C2B54584  27.906  21.557   6.459
 4238POPC   C3B54585  27.818  21.579   6.881
 4238POPC   C4B54586  28.027  21.568   7.242
 4239POPC   NC354587  37.323  17.881   5.456
 4239POPC   PO454588  37.986  18.282   5.359
 4239POPC   GL154589  37.751  18.329   5.740
 4239POPC   GL254590  37.406  18.333   5.703
 4239POPC   C1A54591  37.794  18.282   6.192
 4239POPC   D2A54592  37.687  18.018   6.547
 4239POPC   C3A54593  37.711  18.315   6.861
 4239POPC   C4A54594  37.485  18.457   7.199
 4239POPC   C1B54595  37.324  18.077   6.097
 4239POPC   C2B54596  37.108  17.891   6.464
 4239POPC   C3B54597  37.168  17.769   6.905
 4239POPC   C4B54598  37.516  17.933   7.153
 4240POPC   NC354599  32.350   1.010   5.382
 4240POPC   PO454600  32.036   1.579   5.534
 4240POPC   GL154601  32.299   1.308   5.823
 4240POPC   GL254602  32.298   0.930   5.889
 4240POPC   C1A54603  32.624   1.400   6.146
 4240POPC   D2A54604  32.774   1.558   6.536
 4240POPC   C3A54605  32.578   1.325   6.848
 4240POPC   C4A54606  32.271   1.418   7.177
 4240POPC   C1B54607  32.196   1.090   6.310
 4240POPC   C2B54608  32.192   1.006   6.753
 4240POPC   C3B54609  32.316   0.905   7.172
 4240POPC   C4B54610  32.096   0.925   7.569
 4241POPC   NC354611  26.231  16.685   5.430
 4241POPC   PO454612  25.682  16.495   5.737
 4241POPC   GL154613  26.052  16.548   5.901
 4241POPC   GL254614  26.223  16.861   5.914
 4241POPC   C1A54615  26.015  16.626   6.316
 4241POPC   D2A54616  26.057  16.457   6.653
 4241POPC   C3A54617  25.815  16.632   6.929
 4241POPC   C4A54618  25.929  16.898   7.213
 4241POPC   C1B54619  26.188  17.103   6.286
 4241POPC   C2B54620  26.083  16.998   6.694
 4241POPC   C3B54621  26.311  17.162   7.018
 4241POPC   C4B54622  26.432  17.059   7.387
 4242POPC   NC354623  19.590  20.870   5.597
 4242POPC   PO454624  18.998  20.574   5.380
 4242POPC   GL154625  18.969  20.779   5.790
 4242POPC   GL254626  19.271  20.647   5.947
 4242POPC   C1A54627  18.790  20.797   6.207
 4242POPC   D2A54628  18.986  20.880   6.608
 4242POPC   C3A54629  19.130  20.586   6.899
 4242POPC   C4A54630  18.949  20.396   7.258
 4242POPC   C1B54631  19.170  20.454   6.348
 4242POPC   C2B54632  19.346  20.164   6.659
 4242POPC   C3B54633  19.372  20.171   7.115
 4242POPC   C4B54634  19.478  20.418   7.514
 4243POPC   NC354635   7.055  30.564   5.648
 4243POPC   PO454636   7.783  30.465   5.523
 4243POPC   GL154637   7.519  30.428   5.837
 4243POPC   GL254638   7.475  30.794   5.844
 4243POPC   C1A54639   7.382  30.464   6.255
 4243POPC   D2A54640   7.425  30.753   6.586
 4243POPC   C3A54641   7.496  30.516   6.939
 4243POPC   C4A54642   7.229  30.389   7.272
 4243POPC   C1B54643   7.512  31.113   6.151
 4243POPC   C2B54644   7.672  31.183   6.542
 4243POPC   C3B54645   7.489  31.122   6.946
 4243POPC   C4B54646   7.446  30.887   7.274
 4244POPC   NC354647  42.069  16.976   5.511
 4244POPC   PO454648  42.493  16.405   5.371
 4244POPC   GL154649  42.480  16.467   5.778
 4244POPC   GL254650  42.122  16.575   5.817
 4244POPC   C1A54651  42.389  16.403   6.196
 4244POPC   D2A54652  42.518  16.633   6.527
 4244POPC   C3A54653  42.352  16.740   6.908
 4244POPC   C4A54654  42.552  16.647   7.273
 4244POPC   C1B54655  42.039  16.760   6.238
 4244POPC   C2B54656  41.956  16.538   6.644
 4244POPC   C3B54657  41.883  16.675   7.094
 4244POPC   C4B54658  41.948  17.136   7.162
 4245POPC   NC354659   3.851  26.843   5.330
 4245POPC   PO454660   3.185  26.611   5.163
 4245POPC   GL154661   3.395  26.798   5.575
 4245POPC   GL254662   3.200  26.731   5.866
 4245POPC   C1A54663   3.702  26.890   5.991
 4245POPC   D2A54664   3.837  26.641   6.437
 4245POPC   C3A54665   3.767  26.852   6.844
 4245POPC   C4A54666   3.346  27.042   6.995
 4245POPC   C1B54667   3.387  26.556   6.195
 4245POPC   C2B54668   3.356  26.622   6.615
 4245POPC   C3B54669   3.427  26.526   7.032
 4245POPC   C4B54670   3.307  26.699   7.397
 4246POPC   NC354671   0.310  21.799   5.532
 4246POPC   PO454672   0.315  22.433   5.454
 4246POPC   GL154673   0.363  22.180   5.855
 4246POPC   GL254674   0.096  21.903   5.979
 4246POPC   C1A54675   0.526  21.980   6.258
 4246POPC   D2A54676   0.883  21.996   6.549
 4246POPC   C3A54677   0.809  21.865   6.974
 4246POPC   C4A54678   0.513  22.013   7.305
 4246POPC   C1B54679   0.077  22.267   6.256
 4246POPC   C2B54680   0.253  22.315   6.644
 4246POPC   C3B54681   0.115  22.197   7.040
 4246POPC   C4B54682   0.143  22.407   7.396
 4247POPC   NC354683  25.672  13.859   5.587
 4247POPC   PO454684  25.037  13.617   5.537
 4247POPC   GL154685  25.211  13.431   5.884
 4247POPC   GL254686  25.548  13.344   5.769
 4247POPC   C1A54687  25.210  13.616   6.298
 4247POPC   D2A54688  25.158  13.829   6.686
 4247POPC   C3A54689  25.425  13.722   7.036
 4247POPC   C4A54690  25.101  13.524   7.253
 4247POPC   C1B54691  25.565  13.247   6.204
 4247POPC   C2B54692  25.614  13.482   6.606
 4247POPC   C3B54693  25.596  13.248   6.997
 4247POPC   C4B54694  25.537  13.360   7.447
 4248POPC   NC354695   5.443  27.059   5.648
 4248POPC   PO454696   5.905  26.760   5.166
 4248POPC   GL154697   5.748  26.626   5.625
 4248POPC   GL254698   6.021  26.755   5.804
 4248POPC   C1A54699   5.674  26.637   6.137
 4248POPC   D2A54700   5.694  26.893   6.532
 4248POPC   C3A54701   5.756  26.756   6.949
 4248POPC   C4A54702   5.559  26.906   7.285
 4248POPC   C1B54703   6.113  26.963   6.196
 4248POPC   C2B54704   6.250  26.858   6.616
 4248POPC   C3B54705   6.250  26.642   7.020
 4248POPC   C4B54706   6.031  26.772   7.425
 4249POPC   NC354707  21.347  14.633   5.417
 4249POPC   PO454708  21.136  14.027   5.488
 4249POPC   GL154709  21.335  14.260   5.802
 4249POPC   GL254710  21.691  14.337   5.755
 4249POPC   C1A54711  21.279  14.469   6.195
 4249POPC   D2A54712  21.242  14.229   6.598
 4249POPC   C3A54713  21.271  14.492   6.970
 4249POPC   C4A54714  21.308  14.530   7.392
 4249POPC   C1B54715  21.755  14.316   6.224
 4249POPC   C2B54716  21.700  14.512   6.664
 4249POPC   C3B54717  21.754  14.389   7.137
 4249POPC   C4B54718  21.653  14.163   7.551
 4250POPC   NC354719  30.332  10.196   5.451
 4250POPC   PO454720  30.826  10.774   5.515
 4250POPC   GL154721  30.654  10.607   5.900
 4250POPC   GL254722  30.593  10.252   5.881
 4250POPC   C1A54723  30.589  10.837   6.299
 4250POPC   D2A54724  30.376  10.708   6.675
 4250POPC   C3A54725  30.609  10.449   6.892
 4250POPC   C4A54726  30.913  10.300   7.154
 4250POPC   C1B54727  30.796  10.198   6.271
 4250POPC   C2B54728  30.911  10.091   6.684
 4250POPC   C3B54729  30.611   9.946   6.983
 4250POPC   C4B54730  30.303  10.162   7.210
 4251POPC   NC354731  42.244  20.196   5.338
 4251POPC   PO454732  42.675  19.752   5.544
 4251POPC   GL154733  42.313  19.772   5.805
 4251POPC   GL254734  42.093  19.456   5.778
 4251POPC   C1A54735  42.435  19.870   6.236
 4251POPC   D2A54736  42.614  19.712   6.628
 4251POPC   C3A54737  42.367  19.908   6.923
 4251POPC   C4A54738  42.368  20.072   7.308
 4251POPC   C1B54739  42.252  19.385   6.201
 4251POPC   C2B54740  42.139  19.498   6.629
 4251POPC   C3B54741  42.283  19.425   7.040
 4251POPC   C4B54742  42.192  19.572   7.449
 4252POPC   NC354743  24.666  32.869   5.235
 4252POPC   PO454744  24.552  33.530   5.323
 4252POPC   GL154745  24.591  33.252   5.713
 4252POPC   GL254746  24.564  32.867   5.729
 4252POPC   C1A54747  24.417  33.127   6.136
 4252POPC   D2A54748  24.315  33.260   6.567
 4252POPC   C3A54749  24.222  32.995   6.911
 4252POPC   C4A54750  24.244  33.202   7.308
 4252POPC   C1B54751  24.775  32.749   6.107
 4252POPC   C2B54752  24.682  32.916   6.537
 4252POPC   C3B54753  24.743  33.011   6.963
 4252POPC   C4B54754  24.914  32.731   7.249
 4253POPC   NC354755  16.577  44.347   5.154
 4253POPC   PO454756  16.011  44.593   5.358
 4253POPC   GL154757  15.802  44.615   5.786
 4253POPC   GL254758  15.628  44.319   5.758
 4253POPC   C1A54759  15.872  44.765   6.248
 4253POPC   D2A54760  15.704   0.100   6.558
 4253POPC   C3A54761  15.763   0.084   7.026
 4253POPC   C4A54762  15.648  44.660   7.173
 4253POPC   C1B54763  15.787  44.259   6.190
 4253POPC   C2B54764  15.732  44.435   6.611
 4253POPC   C3B54765  15.738  44.216   6.984
 4253POPC   C4B54766  15.818  44.071   7.372
 4254POPC   NC354767  27.602  39.676   5.476
 4254POPC   PO454768  28.019  39.138   5.491
 4254POPC   GL154769  27.804  39.293   5.846
 4254POPC   GL254770  27.470  39.323   5.820
 4254POPC   C1A54771  27.635  39.073   6.226
 4254POPC   D2A54772  27.564  39.220   6.659
 4254POPC   C3A54773  27.513  38.940   7.018
 4254POPC   C4A54774  27.623  39.158   7.393
 4254POPC   C1B54775  27.363  39.489   6.257
 4254POPC   C2B54776  27.381  39.697   6.668
 4254POPC   C3B54777  27.240  39.531   7.105
 4254POPC   C4B54778  27.293  39.518   7.587
 4255POPC   NC354779  28.406  23.991   5.425
 4255POPC   PO454780  28.654  23.358   5.277
 4255POPC   GL154781  28.458  23.566   5.682
 4255POPC   GL254782  28.194  23.460   5.895
 4255POPC   C1A54783  28.541  23.817   6.051
 4255POPC   D2A54784  28.620  23.759   6.472
 4255POPC   C3A54785  28.422  23.646   6.869
 4255POPC   C4A54786  28.554  23.707   7.286
 4255POPC   C1B54787  28.093  23.747   6.274
 4255POPC   C2B54788  28.149  24.034   6.641
 4255POPC   C3B54789  27.994  24.017   7.044
 4255POPC   C4B54790  28.019  23.637   7.279
 4256POPC   NC354791  36.270  20.592   5.326
 4256POPC   PO454792  35.706  20.806   5.614
 4256POPC   GL154793  35.975  20.610   5.862
 4256POPC   GL254794  36.007  20.286   5.823
 4256POPC   C1A54795  36.212  20.547   6.249
 4256POPC   D2A54796  36.446  20.495   6.638
 4256POPC   C3A54797  36.264  20.725   6.965
 4256POPC   C4A54798  36.064  20.723   7.352
 4256POPC   C1B54799  35.780  20.293   6.231
 4256POPC   C2B54800  35.861  20.524   6.639
 4256POPC   C3B54801  35.871  20.359   7.051
 4256POPC   C4B54802  35.753  20.269   7.480
 4257POPC   NC354803   0.878  40.420   5.615
 4257POPC   PO454804   1.130  41.081   5.539
 4257POPC   GL154805   1.018  40.881   5.876
 4257POPC   GL254806   0.834  41.170   5.959
 4257POPC   C1A54807   1.139  40.597   6.221
 4257POPC   D2A54808   0.914  40.514   6.575
 4257POPC   C3A54809   1.151  40.438   6.919
 4257POPC   C4A54810   1.149  40.710   7.249
 4257POPC   C1B54811   0.894  41.013   6.371
 4257POPC   C2B54812   1.249  40.910   6.642
 4257POPC   C3B54813   1.390  41.109   7.006
 4257POPC   C4B54814   1.133  41.232   7.339
 4258POPC   NC354815   4.190   2.712   5.508
 4258POPC   PO454816   4.280   3.364   5.647
 4258POPC   GL154817   4.466   3.016   5.880
 4258POPC   GL254818   4.564   2.631   5.836
 4258POPC   C1A54819   4.372   2.860   6.295
 4258POPC   D2A54820   4.257   2.710   6.709
 4258POPC   C3A54821   4.322   3.031   7.003
 4258POPC   C4A54822   4.334   3.290   7.349
 4258POPC   C1B54823   4.568   2.396   6.227
 4258POPC   C2B54824   4.737   2.490   6.620
 4258POPC   C3B54825   4.540   2.406   7.010
 4258POPC   C4B54826   4.215   2.583   7.240
 4259POPC   NC354827   0.097  37.251   5.673
 4259POPC   PO454828   0.434  37.748   5.377
 4259POPC   GL154829   0.274  37.755   5.840
 4259POPC   GL254830   0.246  38.088   6.019
 4259POPC   C1A54831   0.137  37.560   6.273
 4259POPC   D2A54832  44.969  37.672   6.698
 4259POPC   C3A54833   0.234  37.576   7.082
 4259POPC   C4A54834   0.516  37.310   7.356
 4259POPC   C1B54835   0.569  37.856   6.264
 4259POPC   C2B54836   0.736  37.647   6.644
 4259POPC   C3B54837   0.716  37.753   7.096
 4259POPC   C4B54838   0.374  38.039   7.344
 4260POPC   NC354839  37.083  19.306   5.391
 4260POPC   PO454840  37.210  18.703   5.388
 4260POPC   GL154841  37.213  18.969   5.746
 4260POPC   GL254842  36.834  19.043   5.770
 4260POPC   C1A54843  37.177  19.144   6.147
 4260POPC   D2A54844  36.855  19.037   6.434
 4260POPC   C3A54845  36.962  19.185   6.830
 4260POPC   C4A54846  36.753  19.042   7.170
 4260POPC   C1B54847  36.578  19.305   6.053
 4260POPC   C2B54848  36.571  19.511   6.449
 4260POPC   C3B54849  36.512  19.457   6.899
 4260POPC   C4B54850  36.726  19.533   7.260
 4261POPC   NC354851   9.751  37.636   5.122
 4261POPC   PO454852   9.755  38.007   5.644
 4261POPC   GL154853   9.892  37.718   5.892
 4261POPC   GL254854  10.121  37.914   6.082
 4261POPC   C1A54855   9.708  37.666   6.310
 4261POPC   D2A54856   9.853  37.684   6.746
 4261POPC   C3A54857   9.641  37.720   7.137
 4261POPC   C4A54858   9.664  37.456   7.482
 4261POPC   C1B54859  10.185  37.465   6.242
 4261POPC   C2B54860  10.174  37.292   6.686
 4261POPC   C3B54861  10.088  37.424   7.154
 4261POPC   C4B54862  10.149  37.636   7.583
 4262POPC   NC354863   4.372  33.693   5.082
 4262POPC   PO454864   3.970  33.804   5.591
 4262POPC   GL154865   4.181  33.542   5.866
 4262POPC   GL254866   4.460  33.701   5.872
 4262POPC   C1A54867   4.234  33.482   6.309
 4262POPC   D2A54868   4.236  33.770   6.679
 4262POPC   C3A54869   4.212  33.570   7.041
 4262POPC   C4A54870   4.639  33.588   7.180
 4262POPC   C1B54871   4.357  33.986   6.240
 4262POPC   C2B54872   4.064  34.244   6.517
 4262POPC   C3B54873   4.058  34.191   6.953
 4262POPC   C4B54874   4.356  34.017   7.262
 4263POPC   NC354875  23.448  20.735   5.308
 4263POPC   PO454876  23.781  20.191   5.320
 4263POPC   GL154877  23.939  20.401   5.709
 4263POPC   GL254878  23.734  20.722   5.804
 4263POPC   C1A54879  23.944  20.352   6.169
 4263POPC   D2A54880  23.548  20.333   6.413
 4263POPC   C3A54881  23.466  20.249   6.858
 4263POPC   C4A54882  23.544  20.464   7.253
 4263POPC   C1B54883  23.869  20.858   6.240
 4263POPC   C2B54884  24.056  20.640   6.621
 4263POPC   C3B54885  23.998  20.628   7.085
 4263POPC   C4B54886  23.792  20.948   7.376
 4264POPC   NC354887  17.815  37.801   5.248
 4264POPC   PO454888  17.341  37.351   5.355
 4264POPC   GL154889  17.431  37.666   5.715
 4264POPC   GL254890  17.780  37.802   5.792
 4264POPC   C1A54891  17.326  37.717   6.176
 4264POPC   D2A54892  17.355  37.502   6.592
 4264POPC   C3A54893  17.213  37.672   6.987
 4264POPC   C4A54894  17.541  37.896   7.235
 4264POPC   C1B54895  17.855  38.005   6.224
 4264POPC   C2B54896  18.159  37.942   6.576
 4264POPC   C3B54897  18.031  37.869   7.023
 4264POPC   C4B54898  17.976  37.871   7.512
 4265POPC   NC354899  40.385  38.614   5.608
 4265POPC   PO454900  40.897  38.292   5.663
 4265POPC   GL154901  40.816  38.635   5.916
 4265POPC   GL254902  41.142  38.707   5.958
 4265POPC   C1A54903  40.544  38.578   6.281
 4265POPC   D2A54904  40.408  38.189   6.470
 4265POPC   C3A54905  40.514  38.182   6.858
 4265POPC   C4A54906  40.516  38.583   7.067
 4265POPC   C1B54907  41.039  38.464   6.343
 4265POPC   C2B54908  40.936  38.474   6.759
 4265POPC   C3B54909  40.986  38.740   7.124
 4265POPC   C4B54910  40.863  38.422   7.434
 4266POPC   NC354911  12.833  13.080   5.567
 4266POPC   PO454912  12.831  12.404   5.360
 4266POPC   GL154913  12.734  12.589   5.764
 4266POPC   GL254914  13.061  12.732   5.887
 4266POPC   C1A54915  12.735  12.556   6.225
 4266POPC   D2A54916  13.091  12.633   6.513
 4266POPC   C3A54917  12.957  12.584   6.920
 4266POPC   C4A54918  12.847  12.856   7.228
 4266POPC   C1B54919  12.936  13.043   6.240
 4266POPC   C2B54920  12.687  13.112   6.629
 4266POPC   C3B54921  12.696  13.308   7.021
 4266POPC   C4B54922  13.058  13.316   7.231
 4267POPC   NC354923  15.189  10.596   5.414
 4267POPC   PO454924  15.807  10.531   5.441
 4267POPC   GL154925  15.448  10.494   5.846
 4267POPC   GL254926  15.033  10.494   5.913
 4267POPC   C1A54927  15.310  10.713   6.264
 4267POPC   D2A54928  15.354  10.940   6.644
 4267POPC   C3A54929  15.376  10.689   7.025
 4267POPC   C4A54930  15.167  10.756   7.410
 4267POPC   C1B54931  15.021  10.267   6.315
 4267POPC   C2B54932  15.022  10.473   6.725
 4267POPC   C3B54933  14.950  10.366   7.167
 4267POPC   C4B54934  14.986  10.209   7.609
 4268POPC   NC354935   4.106  24.901   5.512
 4268POPC   PO454936   4.337  24.215   5.464
 4268POPC   GL154937   4.528  24.446   5.851
 4268POPC   GL254938   4.529  24.781   5.801
 4268POPC   C1A54939   4.577  24.422   6.311
 4268POPC   D2A54940   4.280  24.259   6.675
 4268POPC   C3A54941   4.147  24.429   7.036
 4268POPC   C4A54942   4.136  24.344   7.442
 4268POPC   C1B54943   4.289  24.833   6.189
 4268POPC   C2B54944   4.422  24.797   6.616
 4268POPC   C3B54945   4.532  24.787   7.022
 4268POPC   C4B54946   4.245  24.863   7.321
 4269POPC   NC354947  42.077  11.638   5.458
 4269POPC   PO454948  41.560  11.038   5.541
 4269POPC   GL154949  41.609  11.272   5.926
 4269POPC   GL254950  41.505  11.621   5.871
 4269POPC   C1A54951  41.360  11.402   6.298
 4269POPC   D2A54952  41.458  11.573   6.652
 4269POPC   C3A54953  41.445  11.293   6.968
 4269POPC   C4A54954  41.179  11.271   7.332
 4269POPC   C1B54955  41.827  11.653   6.202
 4269POPC   C2B54956  41.979  11.516   6.631
 4269POPC   C3B54957  41.807  11.671   7.020
 4269POPC   C4B54958  41.694  11.411   7.376
 4270POPC   NC354959  13.225  28.128   5.296
 4270POPC   PO454960  12.740  27.604   5.323
 4270POPC   GL154961  12.760  27.537   5.773
 4270POPC   GL254962  13.116  27.470   5.782
 4270POPC   C1A54963  12.661  27.456   6.231
 4270POPC   D2A54964  12.750  27.160   6.580
 4270POPC   C3A54965  12.861  27.356   6.942
 4270POPC   C4A54966  12.556  27.537   7.218
 4270POPC   C1B54967  13.157  27.681   6.178
 4270POPC   C2B54968  13.329  27.863   6.571
 4270POPC   C3B54969  13.225  27.735   6.979
 4270POPC   C4B54970  13.064  27.593   7.356
 4271POPC   NC354971  30.382  34.109   5.400
 4271POPC   PO454972  30.962  33.776   5.373
 4271POPC   GL154973  30.814  33.672   5.787
 4271POPC   GL254974  30.549  33.410   5.768
 4271POPC   C1A54975  30.796  33.690   6.248
 4271POPC   D2A54976  30.941  33.646   6.674
 4271POPC   C3A54977  30.807  33.951   6.975
 4271POPC   C4A54978  30.521  34.154   7.220
 4271POPC   C1B54979  30.467  33.306   6.200
 4271POPC   C2B54980  30.436  33.482   6.621
 4271POPC   C3B54981  30.628  33.509   7.059
 4271POPC   C4B54982  31.102  33.567   7.192
 4272POPC   NC354983  31.296  27.696   5.354
 4272POPC   PO454984  31.750  27.342   5.225
 4272POPC   GL154985  31.587  27.381   5.698
 4272POPC   GL254986  31.462  27.708   5.848
 4272POPC   C1A54987  31.722  27.411   6.182
 4272POPC   D2A54988  31.777  27.644   6.588
 4272POPC   C3A54989  31.584  27.400   6.936
 4272POPC   C4A54990  31.220  27.487   7.176
 4272POPC   C1B54991  31.436  27.973   6.231
 4272POPC   C2B54992  31.235  28.106   6.616
 4272POPC   C3B54993  31.377  28.016   7.010
 4272POPC   C4B54994  31.767  27.884   7.078
 4273POPC   NC354995  34.752  40.529   5.388
 4273POPC   PO454996  34.250  40.773   5.658
 4273POPC   GL154997  34.564  40.740   5.887
 4273POPC   GL254998  34.706  41.063   5.882
 4273POPC   C1A54999  34.565  40.566   6.268
 4273POPC   D2A55000  34.734  40.670   6.639
 4273POPC   C3A55001  34.516  40.523   6.954
 4273POPC   C4A55002  34.626  40.540   7.363
 4273POPC   C1B55003  34.903  40.999   6.270
 4273POPC   C2B55004  34.854  41.153   6.701
 4273POPC   C3B55005  34.669  41.000   7.078
 4273POPC   C4B55006  34.480  41.044   7.506
 4274POPC   NC355007   7.872  19.551   5.563
 4274POPC   PO455008   8.475  19.853   5.373
 4274POPC   GL155009   8.271  19.775   5.832
 4274POPC   GL255010   7.924  19.935   5.908
 4274POPC   C1A55011   8.176  19.749   6.325
 4274POPC   D2A55012   8.312  19.493   6.708
 4274POPC   C3A55013   8.346  19.615   7.136
 4274POPC   C4A55014   8.072  19.522   7.485
 4274POPC   C1B55015   7.640  20.064   6.231
 4274POPC   C2B55016   7.796  20.050   6.612
 4274POPC   C3B55017   8.030  19.934   6.913
 4274POPC   C4B55018   7.959  19.980   7.337
 4275POPC   NC355019  38.970  31.009   5.530
 4275POPC   PO455020  39.266  30.457   5.413
 4275POPC   GL155021  39.415  30.527   5.855
 4275POPC   GL255022  39.297  30.867   5.916
 4275POPC   C1A55023  39.355  30.552   6.317
 4275POPC   D2A55024  39.310  30.255   6.652
 4275POPC   C3A55025  39.327  30.483   7.042
 4275POPC   C4A55026  39.615  30.806   7.183
 4275POPC   C1B55027  39.101  31.023   6.296
 4275POPC   C2B55028  39.254  30.911   6.719
 4275POPC   C3B55029  39.120  30.950   7.144
 4275POPC   C4B55030  38.741  30.770   7.365
 4276POPC   NC355031   9.263  14.801   5.366
 4276POPC   PO455032   9.398  15.447   5.361
 4276POPC   GL155033   9.057  15.292   5.649
 4276POPC   GL255034   9.076  14.966   5.792
 4276POPC   C1A55035   8.909  15.354   6.090
 4276POPC   D2A55036   8.960  15.297   6.537
 4276POPC   C3A55037   8.686  15.440   6.884
 4276POPC   C4A55038   8.899  15.374   7.278
 4276POPC   C1B55039   9.090  14.824   6.191
 4276POPC   C2B55040   8.896  14.783   6.595
 4276POPC   C3B55041   8.902  14.981   6.972
 4276POPC   C4B55042   9.035  14.879   7.385
 4277POPC   NC355043  14.666  41.537   5.471
 4277POPC   PO455044  14.115  41.226   5.448
 4277POPC   GL155045  14.258  41.471   5.843
 4277POPC   GL255046  14.624  41.567   5.977
 4277POPC   C1A55047  14.242  41.493   6.306
 4277POPC   D2A55048  14.459  41.381   6.655
 4277POPC   C3A55049  14.448  41.625   6.957
 4277POPC   C4A55050  14.443  41.581   7.371
 4277POPC   C1B55051  14.775  41.252   6.277
 4277POPC   C2B55052  14.781  40.987   6.667
 4277POPC   C3B55053  14.640  41.145   7.102
 4277POPC   C4B55054  14.408  41.117   7.537
 4278POPC   NC355055  43.286   8.371   5.333
 4278POPC   PO455056  42.670   8.274   5.193
 4278POPC   GL155057  42.948   8.303   5.679
 4278POPC   GL255058  43.220   8.063   5.821
 4278POPC   C1A55059  43.100   8.443   6.118
 4278POPC   D2A55060  43.089   8.559   6.558
 4278POPC   C3A55061  43.297   8.497   6.954
 4278POPC   C4A55062  43.169   8.417   7.387
 4278POPC   C1B55063  43.275   7.970   6.280
 4278POPC   C2B55064  43.384   8.025   6.721
 4278POPC   C3B55065  43.098   8.029   7.075
 4278POPC   C4B55066  43.041   7.901   7.484
 4279POPC   NC355067  34.791  37.542   5.420
 4279POPC   PO455068  34.194  37.429   5.277
 4279POPC   GL155069  34.392  37.676   5.736
 4279POPC   GL255070  34.713  37.788   5.840
 4279POPC   C1A55071  34.454  37.596   6.224
 4279POPC   D2A55072  34.312  37.636   6.635
 4279POPC   C3A55073  34.598  37.474   6.930
 4279POPC   C4A55074  34.437  37.428   7.322
 4279POPC   C1B55075  34.645  38.060   6.173
 4279POPC   C2B55076  34.721  37.938   6.556
 4279POPC   C3B55077  34.626  37.993   6.944
 4279POPC   C4B55078  35.004  37.974   7.141
 4280POPC   NC355079   5.232  40.920   5.314
 4280POPC   PO455080   4.814  40.530   5.674
 4280POPC   GL155081   5.116  40.741   5.852
 4280POPC   GL255082   5.292  40.420   5.873
 4280POPC   C1A55083   4.982  40.832   6.271
 4280POPC   D2A55084   5.193  40.781   6.662
 4280POPC   C3A55085   5.073  40.913   7.062
 4280POPC   C4A55086   5.243  40.966   7.497
 4280POPC   C1B55087   5.199  40.367   6.292
 4280POPC   C2B55088   5.005  40.308   6.687
 4280POPC   C3B55089   5.174  40.413   7.118
 4280POPC   C4B55090   5.496  40.516   7.474
 4281POPC   NC355091  43.186  27.777   5.429
 4281POPC   PO455092  42.652  27.575   5.217
 4281POPC   GL155093  42.871  27.513   5.730
 4281POPC   GL255094  43.239  27.618   5.885
 4281POPC   C1A55095  42.875  27.603   6.214
 4281POPC   D2A55096  43.052  27.977   6.468
 4281POPC   C3A55097  43.182  27.872   6.869
 4281POPC   C4A55098  43.082  27.974   7.322
 4281POPC   C1B55099  43.389  27.693   6.245
 4281POPC   C2B55100  43.252  27.417   6.566
 4281POPC   C3B55101  43.438  27.318   6.956
 4281POPC   C4B55102  43.431  27.604   7.274
 4282POPC   NC355103  39.384  10.953   5.491
 4282POPC   PO455104  38.936  10.464   5.425
 4282POPC   GL155105  39.121  10.515   5.780
 4282POPC   GL255106  38.809  10.394   5.932
 4282POPC   C1A55107  39.373  10.662   6.129
 4282POPC   D2A55108  39.451  10.484   6.537
 4282POPC   C3A55109  39.376  10.661   6.937
 4282POPC   C4A55110  39.443  10.330   7.198
 4282POPC   C1B55111  38.883  10.721   6.229
 4282POPC   C2B55112  38.927  10.683   6.669
 4282POPC   C3B55113  38.882  10.502   7.085
 4282POPC   C4B55114  38.908  10.557   7.557
 4283POPC   NC355115   4.462  40.335   5.453
 4283POPC   PO455116   4.256  39.710   5.549
 4283POPC   GL155117   4.190  39.952   5.902
 4283POPC   GL255118   3.943  40.202   5.762
 4283POPC   C1A55119   4.322  39.961   6.353
 4283POPC   D2A55120   4.485  40.208   6.705
 4283POPC   C3A55121   4.513  39.916   7.034
 4283POPC   C4A55122   4.272  39.671   7.289
 4283POPC   C1B55123   4.024  40.350   6.190
 4283POPC   C2B55124   3.871  40.309   6.576
 4283POPC   C3B55125   4.036  40.052   6.908
 4283POPC   C4B55126   4.185  40.223   7.286
 4284POPC   NC355127  11.217  42.584   5.435
 4284POPC   PO455128  11.331  43.212   5.453
 4284POPC   GL155129  11.250  43.007   5.804
 4284POPC   GL255130  11.544  42.778   5.823
 4284POPC   C1A55131  11.221  43.265   6.190
 4284POPC   D2A55132  11.490  43.276   6.571
 4284POPC   C3A55133  11.294  43.224   6.987
 4284POPC   C4A55134  10.984  42.956   7.207
 4284POPC   C1B55135  11.397  42.789   6.251
 4284POPC   C2B55136  11.261  42.775   6.671
 4284POPC   C3B55137  11.457  42.731   7.067
 4284POPC   C4B55138  11.550  42.978   7.392
 4285POPC   NC355139   2.053  20.068   5.483
 4285POPC   PO455140   1.818  19.433   5.456
 4285POPC   GL155141   2.093  19.596   5.842
 4285POPC   GL255142   2.157  19.962   5.969
 4285POPC   C1A55143   2.028  19.595   6.312
 4285POPC   D2A55144   2.011  19.816   6.715
 4285POPC   C3A55145   1.926  19.593   7.085
 4285POPC   C4A55146   2.044  19.709   7.498
 4285POPC   C1B55147   1.789  20.052   6.285
 4285POPC   C2B55148   1.654  20.199   6.739
 4285POPC   C3B55149   1.740  20.072   7.226
 4285POPC   C4B55150   1.685  19.995   7.715
 4286POPC   NC355151  27.844   9.867   5.375
 4286POPC   PO455152  27.280   9.465   5.550
 4286POPC   GL155153  27.575   9.720   5.809
 4286POPC   GL255154  27.601  10.034   5.787
 4286POPC   C1A55155  27.811   9.734   6.208
 4286POPC   D2A55156  27.958   9.760   6.666
 4286POPC   C3A55157  27.674   9.735   7.047
 4286POPC   C4A55158  27.695   9.790   7.500
 4286POPC   C1B55159  27.404  10.044   6.182
 4286POPC   C2B55160  27.465   9.932   6.609
 4286POPC   C3B55161  27.379  10.168   6.987
 4286POPC   C4B55162  27.320  10.071   7.380
 4287POPC   NC355163  12.104  37.531   5.461
 4287POPC   PO455164  12.067  36.827   5.501
 4287POPC   GL155165  12.062  37.091   5.865
 4287POPC   GL255166  11.755  37.259   5.784
 4287POPC   C1A55167  11.958  37.033   6.351
 4287POPC   D2A55168  11.776  36.755   6.707
 4287POPC   C3A55169  11.997  36.699   7.094
 4287POPC   C4A55170  12.427  36.717   7.132
 4287POPC   C1B55171  11.937  37.501   6.149
 4287POPC   C2B55172  12.050  37.531   6.582
 4287POPC   C3B55173  12.046  37.190   6.882
 4287POPC   C4B55174  11.668  37.089   7.115
 4288POPC   NC355175  18.060  13.388   5.520
 4288POPC   PO455176  18.691  13.692   5.450
 4288POPC   GL155177  18.462  13.664   5.863
 4288POPC   GL255178  18.110  13.751   5.893
 4288POPC   C1A55179  18.351  13.484   6.292
 4288POPC   D2A55180  18.105  13.480   6.701
 4288POPC   C3A55181  18.372  13.577   7.074
 4288POPC   C4A55182  18.252  13.729   7.465
 4288POPC   C1B55183  18.082  13.928   6.280
 4288POPC   C2B55184  17.819  13.922   6.622
 4288POPC   C3B55185  18.026  13.937   7.003
 4288POPC   C4B55186  17.838  14.006   7.389
 4289POPC   NC355187  25.636   9.153   5.303
 4289POPC   PO455188  25.470   8.533   5.493
 4289POPC   GL155189  25.614   8.856   5.727
 4289POPC   GL255190  25.325   8.999   5.848
 4289POPC   C1A55191  25.748   8.844   6.140
 4289POPC   D2A55192  25.770   9.067   6.520
 4289POPC   C3A55193  25.628   8.870   6.846
 4289POPC   C4A55194  25.370   8.873   7.168
 4289POPC   C1B55195  25.284   8.924   6.323
 4289POPC   C2B55196  25.111   8.988   6.754
 4289POPC   C3B55197  24.982   9.207   7.150
 4289POPC   C4B55198  24.652   9.205   7.496
 4290POPC   NC355199  36.951  35.536   5.138
 4290POPC   PO455200  36.888  34.917   5.343
 4290POPC   GL155201  36.826  35.293   5.680
 4290POPC   GL255202  36.737  35.685   5.720
 4290POPC   C1A55203  36.965  35.407   6.123
 4290POPC   D2A55204  37.316  35.493   6.419
 4290POPC   C3A55205  37.338  35.179   6.724
 4290POPC   C4A55206  36.997  35.201   6.994
 4290POPC   C1B55207  36.726  35.851   6.197
 4290POPC   C2B55208  36.857  35.659   6.614
 4290POPC   C3B55209  36.679  35.602   7.045
 4290POPC   C4B55210  36.515  35.272   7.277
 4291POPC   NC355211   6.199  16.423   5.683
 4291POPC   PO455212   5.810  16.933   5.375
 4291POPC   GL155213   5.862  16.796   5.794
 4291POPC   GL255214   5.665  16.517   5.794
 4291POPC   C1A55215   5.993  16.740   6.233
 4291POPC   D2A55216   5.954  16.538   6.635
 4291POPC   C3A55217   5.968  16.836   6.971
 4291POPC   C4A55218   6.262  16.852   7.314
 4291POPC   C1B55219   5.499  16.560   6.215
 4291POPC   C2B55220   5.465  16.363   6.618
 4291POPC   C3B55221   5.634  16.365   7.006
 4291POPC   C4B55222   5.417  16.363   7.365
 4292POPC   NC355223  33.909  39.033   5.506
 4292POPC   PO455224  33.692  39.613   5.491
 4292POPC   GL155225  33.642  39.302   5.841
 4292POPC   GL255226  33.465  38.984   5.807
 4292POPC   C1A55227  33.828  39.331   6.263
 4292POPC   D2A55228  34.144  39.483   6.566
 4292POPC   C3A55229  34.046  39.372   6.977
 4292POPC   C4A55230  33.665  39.478   7.145
 4292POPC   C1B55231  33.615  38.868   6.249
 4292POPC   C2B55232  33.636  39.072   6.703
 4292POPC   C3B55233  33.759  38.966   7.161
 4292POPC   C4B55234  33.587  38.729   7.539
 4293POPC   NC355235  27.883  42.838   5.408
 4293POPC   PO455236  27.361  43.257   5.564
 4293POPC   GL155237  27.529  43.097   5.938
 4293POPC   GL255238  27.633  42.775   5.877
 4293POPC   C1A55239  27.583  43.135   6.393
 4293POPC   D2A55240  27.828  43.340   6.718
 4293POPC   C3A55241  27.643  43.368   7.077
 4293POPC   C4A55242  27.280  43.203   7.113
 4293POPC   C1B55243  27.586  42.609   6.290
 4293POPC   C2B55244  27.552  42.584   6.728
 4293POPC   C3B55245  27.630  42.808   7.098
 4293POPC   C4B55246  27.586  42.633   7.512
 4294POPC   NC355247   2.334  17.489   5.528
 4294POPC   PO455248   1.757  17.867   5.464
 4294POPC   GL155249   1.945  17.687   5.811
 4294POPC   GL255250   2.007  17.328   5.885
 4294POPC   C1A55251   1.816  17.666   6.212
 4294POPC   D2A55252   1.854  17.852   6.586
 4294POPC   C3A55253   1.735  17.726   6.995
 4294POPC   C4A55254   2.083  17.570   7.247
 4294POPC   C1B55255   2.121  17.267   6.309
 4294POPC   C2B55256   1.958  17.352   6.721
 4294POPC   C3B55257   1.752  17.223   7.102
 4294POPC   C4B55258   1.978  17.126   7.524
 4295POPC   NC355259   1.387  27.424   5.438
 4295POPC   PO455260   1.241  28.057   5.378
 4295POPC   GL155261   1.152  27.720   5.772
 4295POPC   GL255262   0.948  27.391   5.693
 4295POPC   C1A55263   1.444  27.520   6.133
 4295POPC   D2A55264   1.652  27.425   6.556
 4295POPC   C3A55265   1.402  27.590   6.934
 4295POPC   C4A55266   1.002  27.837   7.053
 4295POPC   C1B55267   1.076  27.164   6.049
 4295POPC   C2B55268   1.043  27.204   6.488
 4295POPC   C3B55269   0.874  27.163   6.882
 4295POPC   C4B55270   0.972  27.370   7.230
 4296POPC   NC355271  32.675  40.468   5.451
 4296POPC   PO455272  32.285  40.967   5.342
 4296POPC   GL155273  32.148  40.996   5.788
 4296POPC   GL255274  31.803  41.037   5.727
 4296POPC   C1A55275  32.326  41.008   6.225
 4296POPC   D2A55276  32.199  40.781   6.604
 4296POPC   C3A55277  32.414  40.745   6.986
 4296POPC   C4A55278  32.549  40.358   7.172
 4296POPC   C1B55279  31.847  41.226   6.171
 4296POPC   C2B55280  32.057  41.285   6.580
 4296POPC   C3B55281  31.981  41.083   6.962
 4296POPC   C4B55282  32.159  41.036   7.367
 4297POPC   NC355283  10.712  10.326   5.331
 4297POPC   PO455284  10.209  10.720   5.367
 4297POPC   GL155285  10.362  10.472   5.713
 4297POPC   GL255286  10.685  10.616   5.781
 4297POPC   C1A55287  10.368  10.338   6.165
 4297POPC   D2A55288  10.309  10.585   6.555
 4297POPC   C3A55289  10.227  10.384   6.946
 4297POPC   C4A55290  10.470  10.282   7.303
 4297POPC   C1B55291  10.672  10.799   6.210
 4297POPC   C2B55292  10.861  10.750   6.603
 4297POPC   C3B55293  10.705  10.614   6.996
 4297POPC   C4B55294  10.435  10.796   7.302
 4298POPC   NC355295  41.476  14.235   5.309
 4298POPC   PO455296  41.476  13.587   5.279
 4298POPC   GL155297  41.469  13.556   5.800
 4298POPC   GL255298  41.709  13.754   6.004
 4298POPC   C1A55299  41.257  13.628   6.203
 4298POPC   D2A55300  41.502  13.742   6.555
 4298POPC   C3A55301  41.362  13.682   6.957
 4298POPC   C4A55302  41.586  13.649   7.334
 4298POPC   C1B55303  41.773  13.391   6.223
 4298POPC   C2B55304  41.849  13.342   6.640
 4298POPC   C3B55305  42.062  13.229   7.020
 4298POPC   C4B55306  42.064  13.467   7.395
 4299POPC   NC355307   2.033  32.622   5.453
 4299POPC   PO455308   1.926  31.912   5.416
 4299POPC   GL155309   2.091  32.195   5.746
 4299POPC   GL255310   2.425  32.095   5.789
 4299POPC   C1A55311   1.953  32.467   6.103
 4299POPC   D2A55312   1.634  32.494   6.443
 4299POPC   C3A55313   1.786  32.336   6.830
 4299POPC   C4A55314   1.924  32.466   7.245
 4299POPC   C1B55315   2.499  32.226   6.193
 4299POPC   C2B55316   2.232  32.345   6.513
 4299POPC   C3B55317   2.283  32.514   6.884
 4299POPC   C4B55318   2.461  32.465   7.248
 4300POPC   NC355319  34.140   8.124   5.607
 4300POPC   PO455320  33.472   8.111   5.635
 4300POPC   GL155321  33.725   8.136   5.928
 4300POPC   GL255322  33.881   7.797   5.901
 4300POPC   C1A55323  33.602   8.296   6.324
 4300POPC   D2A55324  33.409   8.289   6.723
 4300POPC   C3A55325  33.765   8.450   6.948
 4300POPC   C4A55326  34.163   8.410   7.138
 4300POPC   C1B55327  33.588   7.784   6.261
 4300POPC   C2B55328  33.452   7.776   6.673
 4300POPC   C3B55329  33.608   7.923   7.044
 4300POPC   C4B55330  33.821   8.119   7.360
 4301POPC   NC355331  14.256  20.256   5.580
 4301POPC   PO455332  14.235  20.920   5.510
 4301POPC   GL155333  14.502  20.699   5.896
 4301POPC   GL255334  14.438  20.342   6.049
 4301POPC   C1A55335  14.580  20.697   6.384
 4301POPC   D2A55336  14.287  20.807   6.738
 4301POPC   C3A55337  14.337  20.932   7.183
 4301POPC   C4A55338  14.308  21.022   7.642
 4301POPC   C1B55339  14.131  20.411   6.399
 4301POPC   C2B55340  14.155  20.316   6.843
 4301POPC   C3B55341  14.514  20.430   7.057
 4301POPC   C4B55342  14.744  20.181   7.371
 4302POPC   NC355343  33.942   8.891   5.343
 4302POPC   PO455344  33.338   9.088   5.465
 4302POPC   GL155345  33.599   8.979   5.780
 4302POPC   GL255346  33.579   8.620   5.756
 4302POPC   C1A55347  33.840   8.912   6.163
 4302POPC   D2A55348  33.868   9.186   6.517
 4302POPC   C3A55349  33.814   8.986   6.895
 4302POPC   C4A55350  33.987   9.172   7.226
 4302POPC   C1B55351  33.351   8.692   6.142
 4302POPC   C2B55352  33.458   8.781   6.555
 4302POPC   C3B55353  33.345   8.755   6.981
 4302POPC   C4B55354  33.634   8.763   7.338
 4303POPC   NC355355  22.470   2.484   5.532
 4303POPC   PO455356  22.337   3.173   5.454
 4303POPC   GL155357  22.292   2.921   5.767
 4303POPC   GL255358  21.969   2.780   5.628
 4303POPC   C1A55359  22.341   2.972   6.221
 4303POPC   D2A55360  22.386   2.588   6.491
 4303POPC   C3A55361  22.312   2.762   6.868
 4303POPC   C4A55362  22.129   2.667   7.238
 4303POPC   C1B55363  21.894   2.802   6.081
 4303POPC   C2B55364  21.917   2.787   6.528
 4303POPC   C3B55365  21.790   2.957   6.933
 4303POPC   C4B55366  21.677   2.847   7.362
 4304POPC   NC355367  42.618  34.593   5.650
 4304POPC   PO455368  43.249  34.635   5.347
 4304POPC   GL155369  43.126  34.383   5.751
 4304POPC   GL255370  43.025  34.698   5.905
 4304POPC   C1A55371  42.978  34.354   6.234
 4304POPC   D2A55372  43.068  34.697   6.516
 4304POPC   C3A55373  43.159  34.499   6.906
 4304POPC   C4A55374  43.195  34.657   7.297
 4304POPC   C1B55375  42.765  34.986   6.166
 4304POPC   C2B55376  42.583  34.852   6.544
 4304POPC   C3B55377  42.783  34.852   6.938
 4304POPC   C4B55378  42.771  34.938   7.349
 4305POPC   NC355379  40.808  12.700   5.469
 4305POPC   PO455380  41.107  13.268   5.635
 4305POPC   GL155381  40.967  12.923   5.935
 4305POPC   GL255382  40.742  12.613   5.952
 4305POPC   C1A55383  41.034  12.742   6.354
 4305POPC   D2A55384  40.890  13.008   6.689
 4305POPC   C3A55385  41.140  12.868   7.007
 4305POPC   C4A55386  41.119  12.418   7.092
 4305POPC   C1B55387  40.547  12.835   6.277
 4305POPC   C2B55388  40.539  12.639   6.680
 4305POPC   C3B55389  40.663  12.682   7.115
 4305POPC   C4B55390  40.488  12.738   7.530
 4306POPC   NC355391   6.595  29.013   5.480
 4306POPC   PO455392   6.329  29.641   5.577
 4306POPC   GL155393   6.453  29.347   5.920
 4306POPC   GL255394   6.489  28.988   6.004
 4306POPC   C1A55395   6.726  29.351   6.306
 4306POPC   D2A55396   6.749  29.060   6.662
 4306POPC   C3A55397   6.737  29.147   7.082
 4306POPC   C4A55398   6.298  29.135   7.208
 4306POPC   C1B55399   6.872  28.852   6.211
 4306POPC   C2B55400   7.102  28.706   6.590
 4306POPC   C3B55401   6.947  28.677   7.018
 4306POPC   C4B55402   7.112  28.721   7.466
 4307POPC   NC355403  10.868  24.304   5.354
 4307POPC   PO455404  10.207  24.349   5.202
 4307POPC   GL155405  10.490  24.470   5.666
 4307POPC   GL255406  10.508  24.170   5.935
 4307POPC   C1A55407  10.491  24.616   6.154
 4307POPC   D2A55408  10.221  24.505   6.565
 4307POPC   C3A55409  10.363  24.508   7.021
 4307POPC   C4A55410  10.701  24.706   7.244
 4307POPC   C1B55411  10.578  24.167   6.365
 4307POPC   C2B55412  10.737  24.345   6.725
 4307POPC   C3B55413  10.787  24.189   7.136
 4307POPC   C4B55414  10.755  23.921   7.516
 4308POPC   NC355415  26.595   2.927   5.317
 4308POPC   PO455416  27.020   2.494   5.144
 4308POPC   GL155417  26.908   2.734   5.648
 4308POPC   GL255418  26.632   2.566   5.855
 4308POPC   C1A55419  26.748   2.980   6.085
 4308POPC   D2A55420  26.518   3.016   6.497
 4308POPC   C3A55421  26.734   3.015   6.900
 4308POPC   C4A55422  26.595   2.924   7.293
 4308POPC   C1B55423  26.590   2.522   6.301
 4308POPC   C2B55424  26.792   2.562   6.687
 4308POPC   C3B55425  26.747   2.483   7.104
 4308POPC   C4B55426  26.468   2.394   7.461
 4309POPC   NC355427   6.297  44.611   5.494
 4309POPC   PO455428   6.911  44.347   5.479
 4309POPC   GL155429   6.711  44.509   5.824
 4309POPC   GL255430   6.413  44.281   5.855
 4309POPC   C1A55431   6.819  44.729   6.215
 4309POPC   D2A55432   6.591  44.680   6.590
 4309POPC   C3A55433   6.750  44.708   7.018
 4309POPC   C4A55434   6.473  44.741   7.382
 4309POPC   C1B55435   6.241  44.505   6.203
 4309POPC   C2B55436   6.172  44.388   6.620
 4309POPC   C3B55437   6.357  44.364   7.008
 4309POPC   C4B55438   6.192  44.208   7.345
 4310POPC   NC355439  24.321  19.510   5.412
 4310POPC   PO455440  24.774  20.069   5.310
 4310POPC   GL155441  24.663  19.908   5.768
 4310POPC   GL255442  24.550  19.537   5.870
 4310POPC   C1A55443  24.465  19.891   6.211
 4310POPC   D2A55444  24.453  19.653   6.595
 4310POPC   C3A55445  24.349  19.820   6.975
 4310POPC   C4A55446  24.581  19.916   7.313
 4310POPC   C1B55447  24.226  19.421   6.217
 4310POPC   C2B55448  23.989  19.483   6.682
 4310POPC   C3B55449  24.175  19.369   7.126
 4310POPC   C4B55450  24.565  19.430   7.463
 4311POPC   NC355451  38.293   2.278   5.244
 4311POPC   PO455452  38.481   1.754   5.476
 4311POPC   GL155453  38.456   2.131   5.742
 4311POPC   GL255454  38.802   2.241   5.763
 4311POPC   C1A55455  38.281   2.178   6.180
 4311POPC   D2A55456  38.445   1.867   6.455
 4311POPC   C3A55457  38.412   1.900   6.891
 4311POPC   C4A55458  38.146   1.680   7.170
 4311POPC   C1B55459  38.775   2.280   6.226
 4311POPC   C2B55460  38.590   2.336   6.642
 4311POPC   C3B55461  38.714   2.258   7.100
 4311POPC   C4B55462  38.612   2.200   7.596
 4312POPC   NC355463  35.616  20.372   5.493
 4312POPC   PO455464  35.054  20.705   5.334
 4312POPC   GL155465  35.129  20.446   5.733
 4312POPC   GL255466  35.443  20.519   5.937
 4312POPC   C1A55467  35.081  20.335   6.200
 4312POPC   D2A55468  35.372  20.421   6.518
 4312POPC   C3A55469  35.294  20.726   6.819
 4312POPC   C4A55470  35.096  20.452   7.096
 4312POPC   C1B55471  35.648  20.792   6.245
 4312POPC   C2B55472  35.701  21.035   6.587
 4312POPC   C3B55473  35.756  20.897   6.987
 4312POPC   C4B55474  35.535  20.692   7.305
 4313POPC   NC355475   2.641  18.588   5.373
 4313POPC   PO455476   3.108  18.208   5.140
 4313POPC   GL155477   3.046  18.320   5.634
 4313POPC   GL255478   2.763  18.484   5.835
 4313POPC   C1A55479   3.026  18.128   6.082
 4313POPC   D2A55480   2.773  17.879   6.384
 4313POPC   C3A55481   2.710  18.004   6.800
 4313POPC   C4A55482   2.608  18.147   7.192
 4313POPC   C1B55483   2.562  18.320   6.171
 4313POPC   C2B55484   2.809  18.404   6.488
 4313POPC   C3B55485   2.734  18.506   6.862
 4313POPC   C4B55486   2.958  18.548   7.200
 4314POPC   NC355487  42.774  10.922   5.502
 4314POPC   PO455488  42.588  11.588   5.422
 4314POPC   GL155489  42.408  11.423   5.802
 4314POPC   GL255490  42.504  11.076   5.904
 4314POPC   C1A55491  42.316  11.460   6.231
 4314POPC   D2A55492  42.484  11.617   6.607
 4314POPC   C3A55493  42.504  11.368   6.943
 4314POPC   C4A55494  42.155  11.346   7.203
 4314POPC   C1B55495  42.549  10.960   6.342
 4314POPC   C2B55496  42.190  11.010   6.650
 4314POPC   C3B55497  41.894  10.945   7.001
 4314POPC   C4B55498  42.130  10.848   7.346
 4315POPC   NC355499  14.034  29.412   5.644
 4315POPC   PO455500  14.466  28.876   5.632
 4315POPC   GL155501  14.381  29.158   5.957
 4315POPC   GL255502  14.488  29.512   5.869
 4315POPC   C1A55503  14.418  29.122   6.405
 4315POPC   D2A55504  14.539  29.215   6.819
 4315POPC   C3A55505  14.322  29.031   7.142
 4315POPC   C4A55506  14.503  29.012   7.603
 4315POPC   C1B55507  14.203  29.576   6.232
 4315POPC   C2B55508  14.282  29.614   6.644
 4315POPC   C3B55509  14.418  29.672   7.035
 4315POPC   C4B55510  14.397  29.451   7.388
 4316POPC   NC355511   9.329  25.110   5.561
 4316POPC   PO455512   8.932  25.633   5.452
 4316POPC   GL155513   8.963  25.387   5.788
 4316POPC   GL255514   8.821  25.075   5.671
 4316POPC   C1A55515   9.194  25.397   6.167
 4316POPC   D2A55516   8.969  25.363   6.535
 4316POPC   C3A55517   9.145  25.425   6.926
 4316POPC   C4A55518   8.992  25.557   7.343
 4316POPC   C1B55519   8.888  24.970   6.113
 4316POPC   C2B55520   8.760  24.866   6.518
 4316POPC   C3B55521   8.924  24.963   6.885
 4316POPC   C4B55522   9.033  25.075   7.261
 4317POPC   NC355523   2.469  16.804   5.500
 4317POPC   PO455524   3.109  16.519   5.274
 4317POPC   GL155525   2.862  16.553   5.673
 4317POPC   GL255526   2.859  16.924   5.820
 4317POPC   C1A55527   2.687  16.516   6.098
 4317POPC   D2A55528   2.818  16.757   6.487
 4317POPC   C3A55529   2.580  16.644   6.872
 4317POPC   C4A55530   2.712  16.525   7.304
 4317POPC   C1B55531   2.618  17.154   6.155
 4317POPC   C2B55532   2.515  17.172   6.608
 4317POPC   C3B55533   2.688  17.132   6.990
 4317POPC   C4B55534   2.474  17.256   7.398
 4318POPC   NC355535   3.836  17.284   5.421
 4318POPC   PO455536   3.227  17.509   5.355
 4318POPC   GL155537   3.371  17.332   5.753
 4318POPC   GL255538   3.693  17.502   5.865
 4318POPC   C1A55539   3.420  17.262   6.212
 4318POPC   D2A55540   3.493  17.427   6.627
 4318POPC   C3A55541   3.388  17.230   7.029
 4318POPC   C4A55542   3.431  17.605   7.295
 4318POPC   C1B55543   3.917  17.181   6.136
 4318POPC   C2B55544   3.860  17.056   6.588
 4318POPC   C3B55545   3.929  17.173   7.045
 4318POPC   C4B55546   3.787  17.322   7.496
 4319POPC   NC355547  17.246  16.115   5.432
 4319POPC   PO455548  17.681  15.605   5.436
 4319POPC   GL155549  17.449  15.766   5.776
 4319POPC   GL255550  17.666  16.036   5.888
 4319POPC   C1A55551  17.387  15.763   6.227
 4319POPC   D2A55552  17.587  15.940   6.614
 4319POPC   C3A55553  17.335  15.770   6.947
 4319POPC   C4A55554  17.244  15.868   7.362
 4319POPC   C1B55555  17.933  16.180   6.264
 4319POPC   C2B55556  17.856  16.444   6.646
 4319POPC   C3B55557  17.860  16.389   7.095
 4319POPC   C4B55558  17.764  15.960   7.168
 4320POPC   NC355559  21.732   0.735   5.324
 4320POPC   PO455560  21.217   0.444   5.267
 4320POPC   GL155561  21.359   0.612   5.697
 4320POPC   GL255562  21.059   0.725   5.785
 4320POPC   C1A55563  21.354   0.702   6.205
 4320POPC   D2A55564  21.410   0.797   6.667
 4320POPC   C3A55565  21.643   0.470   6.921
 4320POPC   C4A55566  21.584   0.136   7.182
 4320POPC   C1B55567  21.046   0.311   6.077
 4320POPC   C2B55568  21.198   0.208   6.534
 4320POPC   C3B55569  21.147   0.342   6.990
 4320POPC   C4B55570  21.065   0.086   7.383
 4321POPC   NC355571  26.460  40.537   5.639
 4321POPC   PO455572  26.025  40.982   5.559
 4321POPC   GL155573  26.180  40.820   5.955
 4321POPC   GL255574  26.041  40.448   5.948
 4321POPC   C1A55575  26.345  40.974   6.359
 4321POPC   D2A55576  25.956  40.995   6.591
 4321POPC   C3A55577  25.886  40.854   7.024
 4321POPC   C4A55578  26.108  40.798   7.396
 4321POPC   C1B55579  26.310  40.465   6.325
 4321POPC   C2B55580  26.378  40.611   6.755
 4321POPC   C3B55581  26.194  40.393   7.094
 4321POPC   C4B55582  25.783  40.390   7.314
 4322POPC   NC355583   4.783  22.148   5.568
 4322POPC   PO455584   4.292  21.853   5.154
 4322POPC   GL155585   4.286  22.029   5.628
 4322POPC   GL255586   3.989  22.191   5.768
 4322POPC   C1A55587   4.453  21.944   6.101
 4322POPC   D2A55588   4.439  22.076   6.563
 4322POPC   C3A55589   4.490  21.791   6.942
 4322POPC   C4A55590   4.443  21.848   7.385
 4322POPC   C1B55591   4.117  22.328   6.182
 4322POPC   C2B55592   4.023  22.444   6.641
 4322POPC   C3B55593   4.196  22.217   7.025
 4322POPC   C4B55594   4.156  22.257   7.489
 4323POPC   NC355595  40.320  12.232   5.393
 4323POPC   PO455596  39.658  12.181   5.383
 4323POPC   GL155597  39.965  11.976   5.710
 4323POPC   GL255598  40.132  12.258   5.891
 4323POPC   C1A55599  39.921  11.880   6.185
 4323POPC   D2A55600  39.923  12.128   6.598
 4323POPC   C3A55601  39.937  11.961   7.026
 4323POPC   C4A55602  39.745  11.602   7.241
 4323POPC   C1B55603  40.121  12.529   6.267
 4323POPC   C2B55604  40.029  12.628   6.679
 4323POPC   C3B55605  40.198  12.436   7.048
 4323POPC   C4B55606  40.196  12.317   7.500
 4324POPC   NC355607   5.749  18.074   5.563
 4324POPC   PO455608   5.559  18.651   5.509
 4324POPC   GL155609   5.739  18.501   5.873
 4324POPC   GL255610   6.092  18.371   5.799
 4324POPC   C1A55611   5.814  18.568   6.304
 4324POPC   D2A55612   5.700  18.339   6.672
 4324POPC   C3A55613   5.753  18.397   7.113
 4324POPC   C4A55614   5.742  18.024   7.346
 4324POPC   C1B55615   6.243  18.248   6.187
 4324POPC   C2B55616   6.243  18.357   6.584
 4324POPC   C3B55617   6.181  18.198   6.949
 4324POPC   C4B55618   6.220  18.275   7.360
 4325POPC   NC355619  10.265  16.722   5.414
 4325POPC   PO455620  10.826  16.977   5.200
 4325POPC   GL155621  10.447  17.088   5.685
 4325POPC   GL255622  10.352  16.754   5.927
 4325POPC   C1A55623  10.583  17.086   6.191
 4325POPC   D2A55624  10.414  16.832   6.555
 4325POPC   C3A55625  10.312  16.995   6.960
 4325POPC   C4A55626  10.207  16.787   7.365
 4325POPC   C1B55627  10.616  16.480   6.228
 4325POPC   C2B55628  10.826  16.491   6.632
 4325POPC   C3B55629  10.679  16.622   7.036
 4325POPC   C4B55630  10.546  16.406   7.409
 4326POPC   NC355631  21.422   6.427   5.420
 4326POPC   PO455632  21.559   7.053   5.606
 4326POPC   GL155633  21.443   6.797   5.940
 4326POPC   GL255634  21.194   6.541   5.856
 4326POPC   C1A55635  21.664   6.734   6.355
 4326POPC   D2A55636  21.707   6.615   6.786
 4326POPC   C3A55637  21.342   6.705   7.010
 4326POPC   C4A55638  21.534   6.878   7.350
 4326POPC   C1B55639  21.534   6.317   6.089
 4326POPC   C2B55640  21.630   6.203   6.502
 4326POPC   C3B55641  21.615   6.139   6.955
 4326POPC   C4B55642  21.672   6.412   7.308
 4327POPC   NC355643  13.068  29.644   5.463
 4327POPC   PO455644  12.605  30.106   5.505
 4327POPC   GL155645  12.773  29.849   5.821
 4327POPC   GL255646  13.081  29.992   5.852
 4327POPC   C1A55647  12.691  29.843   6.238
 4327POPC   D2A55648  12.842  30.105   6.569
 4327POPC   C3A55649  12.654  30.011   6.955
 4327POPC   C4A55650  12.569  29.855   7.346
 4327POPC   C1B55651  13.168  29.611   6.118
 4327POPC   C2B55652  13.357  29.373   6.512
 4327POPC   C3B55653  13.365  29.559   6.932
 4327POPC   C4B55654  13.134  29.894   7.171
 4328POPC   NC355655  35.864  28.745   5.048
 4328POPC   PO455656  35.969  28.231   5.391
 4328POPC   GL155657  35.981  28.472   5.811
 4328POPC   GL255658  36.310  28.690   5.906
 4328POPC   C1A55659  36.002  28.360   6.267
 4328POPC   D2A55660  36.159  28.161   6.663
 4328POPC   C3A55661  35.938  28.403   6.998
 4328POPC   C4A55662  35.604  28.701   7.080
 4328POPC   C1B55663  36.460  28.595   6.367
 4328POPC   C2B55664  36.408  28.560   6.841
 4328POPC   C3B55665  36.414  28.183   7.168
 4328POPC   C4B55666  36.530  28.220   7.644
 4329POPC   NC355667  43.150  38.777   5.521
 4329POPC   PO455668  43.561  38.220   5.584
 4329POPC   GL155669  43.208  38.437   5.908
 4329POPC   GL255670  43.059  38.822   5.988
 4329POPC   C1A55671  42.919  38.435   6.265
 4329POPC   D2A55672  42.907  38.300   6.673
 4329POPC   C3A55673  43.279  38.353   6.875
 4329POPC   C4A55674  43.415  38.476   7.255
 4329POPC   C1B55675  43.303  38.790   6.304
 4329POPC   C2B55676  43.075  38.784   6.662
 4329POPC   C3B55677  43.193  38.899   7.047
 4329POPC   C4B55678  43.003  38.738   7.408
 4330POPC   NC355679  42.726  42.211   5.248
 4330POPC   PO455680  43.167  42.042   5.814
 4330POPC   GL155681  43.122  42.439   5.935
 4330POPC   GL255682  42.822  42.474   5.742
 4330POPC   C1A55683  43.318  42.531   6.335
 4330POPC   D2A55684  43.653  42.392   6.665
 4330POPC   C3A55685  43.454  42.356   7.091
 4330POPC   C4A55686  43.192  42.318   7.482
 4330POPC   C1B55687  42.664  42.486   6.191
 4330POPC   C2B55688  42.799  42.326   6.622
 4330POPC   C3B55689  42.880  42.341   7.079
 4330POPC   C4B55690  42.616  42.372   7.478
 4331POPC   NC355691  44.369  39.842   5.395
 4331POPC   PO455692  44.846  40.218   5.133
 4331POPC   GL155693  44.820  40.126   5.653
 4331POPC   GL255694  44.548  40.101   5.841
 4331POPC   C1A55695  44.966  40.160   6.170
 4331POPC   D2A55696   0.176  40.017   6.634
 4331POPC   C3A55697  44.943  40.102   7.053
 4331POPC   C4A55698  44.639  40.360   7.311
 4331POPC   C1B55699  44.598  39.777   6.148
 4331POPC   C2B55700  44.716  39.817   6.559
 4331POPC   C3B55701  44.625  39.683   6.951
 4331POPC   C4B55702  44.469  39.865   7.314
 4332POPC   NC355703  17.245  11.992   5.602
 4332POPC   PO455704  16.517  12.152   5.399
 4332POPC   GL155705  16.763  12.096   5.785
 4332POPC   GL255706  16.844  11.724   5.852
 4332POPC   C1A55707  16.893  12.410   6.116
 4332POPC   D2A55708  16.898  12.371   6.549
 4332POPC   C3A55709  16.628  12.159   6.805
 4332POPC   C4A55710  16.658  12.293   7.208
 4332POPC   C1B55711  16.965  11.910   6.264
 4332POPC   C2B55712  17.092  11.929   6.703
 4332POPC   C3B55713  16.928  11.816   7.103
 4332POPC   C4B55714  17.184  11.690   7.451
 4333POPC   NC355715  33.435   9.522   5.599
 4333POPC   PO455716  34.085   9.358   5.288
 4333POPC   GL155717  33.964   9.551   5.700
 4333POPC   GL255718  34.116   9.879   5.768
 4333POPC   C1A55719  33.903   9.568   6.173
 4333POPC   D2A55720  34.064   9.718   6.591
 4333POPC   C3A55721  33.826   9.543   6.916
 4333POPC   C4A55722  33.545   9.693   7.191
 4333POPC   C1B55723  34.028  10.064   6.179
 4333POPC   C2B55724  33.702  10.157   6.490
 4333POPC   C3B55725  33.722  10.092   6.914
 4333POPC   C4B55726  34.022   9.965   7.196
 4334POPC   NC355727  39.666  20.719   5.347
 4334POPC   PO455728  40.349  20.624   5.099
 4334POPC   GL155729  40.168  20.516   5.604
 4334POPC   GL255730  39.794  20.516   5.789
 4334POPC   C1A55731  40.160  20.485   6.124
 4334POPC   D2A55732  39.822  20.487   6.505
 4334POPC   C3A55733  39.934  20.477   6.972
 4334POPC   C4A55734  40.193  20.756   7.236
 4334POPC   C1B55735  39.784  20.867   6.123
 4334POPC   C2B55736  39.792  21.008   6.557
 4334POPC   C3B55737  39.646  20.908   6.947
 4334POPC   C4B55738  39.738  21.001   7.327
 4335POPC   NC355739  42.906  24.975   5.302
 4335POPC   PO455740  43.310  25.504   5.068
 4335POPC   GL155741  43.306  25.307   5.551
 4335POPC   GL255742  43.633  25.382   5.734
 4335POPC   C1A55743  43.154  25.229   6.046
 4335POPC   D2A55744  42.928  25.174   6.497
 4335POPC   C3A55745  43.044  25.153   6.960
 4335POPC   C4A55746  42.881  25.380   7.331
 4335POPC   C1B55747  43.648  25.217   6.181
 4335POPC   C2B55748  43.452  25.209   6.600
 4335POPC   C3B55749  43.537  25.048   7.016
 4335POPC   C4B55750  43.445  25.299   7.385
 4336POPC   NC355751  34.501  16.827   5.235
 4336POPC   PO455752  33.841  16.854   5.486
 4336POPC   GL155753  34.288  16.735   5.716
 4336POPC   GL255754  34.672  16.817   5.718
 4336POPC   C1A55755  34.453  16.583   6.147
 4336POPC   D2A55756  34.293  16.616   6.591
 4336POPC   C3A55757  34.425  16.682   7.024
 4336POPC   C4A55758  34.419  17.087   7.284
 4336POPC   C1B55759  34.808  16.946   6.131
 4336POPC   C2B55760  34.837  16.751   6.523
 4336POPC   C3B55761  34.938  16.768   6.954
 4336POPC   C4B55762  34.876  16.374   7.156
 4337POPC   NC355763  29.426  15.559   5.540
 4337POPC   PO455764  28.806  15.949   5.461
 4337POPC   GL155765  28.999  15.703   5.792
 4337POPC   GL255766  29.194  15.981   5.876
 4337POPC   C1A55767  29.028  15.641   6.253
 4337POPC   D2A55768  28.800  15.740   6.659
 4337POPC   C3A55769  29.073  15.620   6.977
 4337POPC   C4A55770  29.493  15.660   7.116
 4337POPC   C1B55771  29.262  16.132   6.281
 4337POPC   C2B55772  29.213  16.040   6.700
 4337POPC   C3B55773  29.204  16.102   7.130
 4337POPC   C4B55774  29.556  16.213   7.364
 4338POPC   NC355775  39.165   3.828   5.419
 4338POPC   PO455776  39.267   3.082   5.385
 4338POPC   GL155777  39.146   3.380   5.782
 4338POPC   GL255778  39.271   3.731   5.908
 4338POPC   C1A55779  39.100   3.413   6.259
 4338POPC   D2A55780  39.382   3.746   6.435
 4338POPC   C3A55781  39.206   4.015   6.752
 4338POPC   C4A55782  39.170   3.711   7.095
 4338POPC   C1B55783  39.578   3.399   6.069
 4338POPC   C2B55784  39.625   3.242   6.489
 4338POPC   C3B55785  39.575   3.473   6.847
 4338POPC   C4B55786  39.590   3.436   7.263
 4339POPC   NC355787  44.048   7.060   5.724
 4339POPC   PO455788  44.069   6.485   5.324
 4339POPC   GL155789  43.927   6.545   5.763
 4339POPC   GL255790  43.572   6.476   5.771
 4339POPC   C1A55791  43.901   6.674   6.221
 4339POPC   D2A55792  43.869   6.813   6.633
 4339POPC   C3A55793  44.178   6.747   6.927
 4339POPC   C4A55794  43.987   6.663   7.276
 4339POPC   C1B55795  43.628   6.254   6.195
 4339POPC   C2B55796  43.728   6.310   6.650
 4339POPC   C3B55797  43.615   6.349   7.101
 4339POPC   C4B55798  43.468   6.348   7.583
 4340POPC   NC355799  15.476  34.326   5.401
 4340POPC   PO455800  14.986  34.779   5.219
 4340POPC   GL155801  15.089  34.614   5.701
 4340POPC   GL255802  15.193  34.292   5.828
 4340POPC   C1A55803  15.109  34.747   6.183
 4340POPC   D2A55804  14.911  34.904   6.614
 4340POPC   C3A55805  15.041  34.718   7.043
 4340POPC   C4A55806  15.475  34.580   7.208
 4340POPC   C1B55807  15.072  34.214   6.250
 4340POPC   C2B55808  14.963  34.378   6.663
 4340POPC   C3B55809  14.834  34.238   7.125
 4340POPC   C4B55810  14.878  34.453   7.598
 4341POPC   NC355811  20.051  41.906   5.524
 4341POPC   PO455812  19.830  41.283   5.382
 4341POPC   GL155813  19.860  41.487   5.752
 4341POPC   GL255814  19.595  41.626   5.865
 4341POPC   C1A55815  19.915  41.384   6.192
 4341POPC   D2A55816  19.658  41.386   6.551
 4341POPC   C3A55817  19.973  41.349   6.854
 4341POPC   C4A55818  20.072  41.077   7.170
 4341POPC   C1B55819  19.781  41.891   6.168
 4341POPC   C2B55820  19.943  41.818   6.565
 4341POPC   C3B55821  19.831  41.823   6.985
 4341POPC   C4B55822  19.744  41.512   7.288
 4342POPC   NC355823  22.642  37.930   5.596
 4342POPC   PO455824  23.040  37.500   5.379
 4342POPC   GL155825  23.013  37.460   5.854
 4342POPC   GL255826  22.643  37.462   5.915
 4342POPC   C1A55827  23.076  37.675   6.286
 4342POPC   D2A55828  23.036  37.483   6.718
 4342POPC   C3A55829  23.233  37.667   7.098
 4342POPC   C4A55830  23.144  37.630   7.547
 4342POPC   C1B55831  22.585  37.774   6.285
 4342POPC   C2B55832  22.702  37.857   6.738
 4342POPC   C3B55833  22.696  37.733   7.183
 4342POPC   C4B55834  22.642  37.856   7.616
 4343POPC   NC355835  11.583   3.760   5.302
 4343POPC   PO455836  11.042   3.324   5.429
 4343POPC   GL155837  11.319   3.531   5.727
 4343POPC   GL255838  11.253   3.889   5.708
 4343POPC   C1A55839  11.417   3.468   6.188
 4343POPC   D2A55840  11.148   3.467   6.570
 4343POPC   C3A55841  11.347   3.480   6.972
 4343POPC   C4A55842  11.046   3.475   7.309
 4343POPC   C1B55843  11.158   3.909   6.162
 4343POPC   C2B55844  11.386   3.915   6.543
 4343POPC   C3B55845  11.268   3.981   6.923
 4343POPC   C4B55846  11.394   3.879   7.292
 4344POPC   NC355847   3.553  24.234   5.014
 4344POPC   PO455848   3.555  24.759   5.366
 4344POPC   GL155849   3.671  24.548   5.753
 4344POPC   GL255850   4.016  24.460   5.789
 4344POPC   C1A55851   3.524  24.388   6.148
 4344POPC   D2A55852   3.636  24.224   6.543
 4344POPC   C3A55853   3.630  24.410   6.935
 4344POPC   C4A55854   3.692  24.171   7.283
 4344POPC   C1B55855   4.047  24.370   6.226
 4344POPC   C2B55856   3.947  24.641   6.580
 4344POPC   C3B55857   3.888  24.862   6.959
 4344POPC   C4B55858   3.764  24.690   7.365
 4345POPC   NC355859  38.093   7.780   5.606
 4345POPC   PO455860  37.582   7.395   5.450
 4345POPC   GL155861  37.850   7.368   5.814
 4345POPC   GL255862  37.720   7.633   5.931
 4345POPC   C1A55863  37.916   7.259   6.237
 4345POPC   D2A55864  37.649   7.242   6.577
 4345POPC   C3A55865  37.823   7.235   6.999
 4345POPC   C4A55866  37.669   7.394   7.411
 4345POPC   C1B55867  38.006   7.776   6.272
 4345POPC   C2B55868  38.074   7.621   6.701
 4345POPC   C3B55869  37.930   7.737   7.123
 4345POPC   C4B55870  38.011   7.724   7.580
 4346POPC   NC355871   5.013  11.605   5.360
 4346POPC   PO455872   4.912  10.940   5.493
 4346POPC   GL155873   4.975  11.229   5.818
 4346POPC   GL255874   5.274  11.374   5.761
 4346POPC   C1A55875   5.066  11.311   6.256
 4346POPC   D2A55876   4.949  11.091   6.626
 4346POPC   C3A55877   5.085  11.324   6.949
 4346POPC   C4A55878   5.141  11.338   7.347
 4346POPC   C1B55879   5.464  11.588   6.093
 4346POPC   C2B55880   5.422  11.664   6.527
 4346POPC   C3B55881   5.541  11.555   6.951
 4346POPC   C4B55882   5.678  11.491   7.334
 4347POPC   NC355883  24.171   2.332   5.488
 4347POPC   PO455884  24.748   1.925   5.459
 4347POPC   GL155885  24.615   1.686   5.853
 4347POPC   GL255886  24.243   1.566   5.726
 4347POPC   C1A55887  24.684   1.826   6.306
 4347POPC   D2A55888  24.657   2.245   6.561
 4347POPC   C3A55889  24.795   2.269   7.004
 4347POPC   C4A55890  24.644   2.167   7.427
 4347POPC   C1B55891  24.167   1.839   6.071
 4347POPC   C2B55892  24.176   2.072   6.446
 4347POPC   C3B55893  24.302   2.024   6.860
 4347POPC   C4B55894  24.213   1.818   7.208
 4348POPC   NC355895  21.221   7.319   5.445
 4348POPC   PO455896  21.263   7.998   5.466
 4348POPC   GL155897  21.205   7.676   5.847
 4348POPC   GL255898  21.276   7.307   5.940
 4348POPC   C1A55899  21.265   7.620   6.316
 4348POPC   D2A55900  21.458   7.632   6.715
 4348POPC   C3A55901  21.166   7.658   7.097
 4348POPC   C4A55902  21.267   7.589   7.544
 4348POPC   C1B55903  21.246   7.078   6.316
 4348POPC   C2B55904  21.499   7.092   6.683
 4348POPC   C3B55905  21.465   7.253   7.050
 4348POPC   C4B55906  21.114   7.151   7.281
 4349POPC   NC355907  41.331  33.262   5.418
 4349POPC   PO455908  41.625  32.718   5.127
 4349POPC   GL155909  41.455  32.643   5.599
 4349POPC   GL255910  41.206  32.879   5.784
 4349POPC   C1A55911  41.570  32.660   6.078
 4349POPC   D2A55912  41.799  32.816   6.468
 4349POPC   C3A55913  41.632  32.847   6.889
 4349POPC   C4A55914  41.711  33.158   7.162
 4349POPC   C1B55915  41.353  33.129   6.179
 4349POPC   C2B55916  41.300  33.145   6.636
 4349POPC   C3B55917  41.191  33.049   7.081
 4349POPC   C4B55918  41.064  33.318   7.403
 4350POPC   NC355919  20.633  30.920   5.239
 4350POPC   PO455920  20.161  30.602   5.549
 4350POPC   GL155921  20.627  30.650   5.743
 4350POPC   GL255922  20.937  30.398   5.787
 4350POPC   C1A55923  20.812  30.722   6.181
 4350POPC   D2A55924  20.746  30.521   6.618
 4350POPC   C3A55925  20.760  30.764   7.013
 4350POPC   C4A55926  20.742  31.005   7.438
 4350POPC   C1B55927  20.982  30.230   6.239
 4350POPC   C2B55928  21.112  30.170   6.697
 4350POPC   C3B55929  20.957  30.292   7.113
 4350POPC   C4B55930  20.709  30.504   7.449
 4351POPC   NC355931  29.051  34.750   5.422
 4351POPC   PO455932  29.700  34.501   5.325
 4351POPC   GL155933  29.491  34.563   5.731
 4351POPC   GL255934  29.212  34.324   5.806
 4351POPC   C1A55935  29.354  34.843   6.097
 4351POPC   D2A55936  29.469  34.875   6.554
 4351POPC   C3A55937  29.145  35.002   6.863
 4351POPC   C4A55938  28.847  34.784   7.129
 4351POPC   C1B55939  29.086  34.438   6.257
 4351POPC   C2B55940  29.137  34.470   6.725
 4351POPC   C3B55941  28.982  34.278   7.116
 4351POPC   C4B55942  29.188  34.050   7.455
 4352POPC   NC355943  15.173  22.917   5.474
 4352POPC   PO455944  15.145  22.295   5.517
 4352POPC   GL155945  15.061  22.549   5.847
 4352POPC   GL255946  15.400  22.660   5.888
 4352POPC   C1A55947  15.054  22.752   6.267
 4352POPC   D2A55948  14.984  22.923   6.695
 4352POPC   C3A55949  15.160  22.731   7.073
 4352POPC   C4A55950  15.144  22.763   7.532
 4352POPC   C1B55951  15.566  22.881   6.260
 4352POPC   C2B55952  15.537  22.974   6.721
 4352POPC   C3B55953  15.573  23.073   7.175
 4352POPC   C4B55954  15.661  22.865   7.589
 4353POPC   NC355955   3.651  14.474   5.426
 4353POPC   PO455956   2.979  14.712   5.392
 4353POPC   GL155957   3.158  14.423   5.671
 4353POPC   GL255958   3.351  14.682   5.795
 4353POPC   C1A55959   3.301  14.284   6.110
 4353POPC   D2A55960   3.408  14.522   6.500
 4353POPC   C3A55961   3.464  14.312   6.916
 4353POPC   C4A55962   3.862  14.299   7.156
 4353POPC   C1B55963   3.738  14.745   6.025
 4353POPC   C2B55964   3.812  14.873   6.444
 4353POPC   C3B55965   3.856  14.666   6.809
 4353POPC   C4B55966   4.071  14.784   7.170
 4354POPC   NC355967  25.993   1.936   5.347
 4354POPC   PO455968  26.278   2.588   5.426
 4354POPC   GL155969  25.983   2.282   5.702
 4354POPC   GL255970  26.256   2.072   5.789
 4354POPC   C1A55971  25.828   1.953   6.072
 4354POPC   D2A55972  25.572   1.828   6.493
 4354POPC   C3A55973  25.767   1.926   6.871
 4354POPC   C4A55974  25.839   1.852   7.281
 4354POPC   C1B55975  26.283   2.122   6.234
 4354POPC   C2B55976  26.257   2.186   6.676
 4354POPC   C3B55977  26.182   2.175   7.098
 4354POPC   C4B55978  26.339   1.885   7.381
 4355POPC   NC355979  17.522  42.233   5.299
 4355POPC   PO455980  17.427  41.659   5.669
 4355POPC   GL155981  17.622  42.096   5.783
 4355POPC   GL255982  17.394  42.388   5.804
 4355POPC   C1A55983  17.764  42.288   6.174
 4355POPC   D2A55984  17.546  42.048   6.474
 4355POPC   C3A55985  17.454  42.052   6.897
 4355POPC   C4A55986  17.629  42.284   7.214
 4355POPC   C1B55987  17.300  42.514   6.257
 4355POPC   C2B55988  17.421  42.567   6.695
 4355POPC   C3B55989  17.279  42.700   7.115
 4355POPC   C4B55990  17.222  42.493   7.478
 4356POPC   NC355991   2.508  14.671   5.422
 4356POPC   PO455992   2.475  14.007   5.666
 4356POPC   GL155993   2.588  14.346   5.928
 4356POPC   GL255994   2.743  14.652   5.863
 4356POPC   C1A55995   2.564  14.482   6.364
 4356POPC   D2A55996   2.905  14.430   6.665
 4356POPC   C3A55997   2.874  14.382   7.108
 4356POPC   C4A55998   2.742  14.257   7.523
 4356POPC   C1B55999   3.015  14.725   6.200
 4356POPC   C2B56000   2.963  14.924   6.595
 4356POPC   C3B56001   2.698  14.868   6.977
 4356POPC   C4B56002   2.427  14.638   7.279
 4357POPC   NC356003  34.179   1.722   5.340
 4357POPC   PO456004  33.754   2.311   5.548
 4357POPC   GL156005  33.902   2.156   5.919
 4357POPC   GL256006  33.988   1.832   5.814
 4357POPC   C1A56007  33.871   2.077   6.366
 4357POPC   D2A56008  33.787   1.702   6.650
 4357POPC   C3A56009  33.628   1.847   7.027
 4357POPC   C4A56010  33.730   2.268   7.153
 4357POPC   C1B56011  34.112   1.676   6.177
 4357POPC   C2B56012  34.269   1.850   6.575
 4357POPC   C3B56013  34.102   2.036   6.892
 4357POPC   C4B56014  34.094   1.901   7.282
 4358POPC   NC356015  20.519  36.464   5.233
 4358POPC   PO456016  20.823  35.867   5.247
 4358POPC   GL156017  20.789  36.073   5.673
 4358POPC   GL256018  20.463  35.949   5.809
 4358POPC   C1A56019  20.656  36.337   6.057
 4358POPC   D2A56020  20.301  36.232   6.342
 4358POPC   C3A56021  20.339  36.287   6.799
 4358POPC   C4A56022  20.605  36.346   7.160
 4358POPC   C1B56023  20.741  35.820   6.136
 4358POPC   C2B56024  20.766  36.038   6.513
 4358POPC   C3B56025  20.755  35.899   6.908
 4358POPC   C4B56026  20.592  35.820   7.274
 4359POPC   NC356027   3.537  33.214   5.312
 4359POPC   PO456028   3.886  32.808   5.608
 4359POPC   GL156029   3.610  32.960   5.878
 4359POPC   GL256030   3.294  33.021   5.749
 4359POPC   C1A56031   3.667  33.131   6.267
 4359POPC   D2A56032   3.689  32.994   6.678
 4359POPC   C3A56033   3.611  33.239   7.021
 4359POPC   C4A56034   3.465  33.129   7.395
 4359POPC   C1B56035   3.201  32.899   6.182
 4359POPC   C2B56036   3.130  32.840   6.619
 4359POPC   C3B56037   3.348  32.756   7.005
 4359POPC   C4B56038   3.174  32.707   7.417
 4360POPC   NC356039   3.064   7.424   5.566
 4360POPC   PO456040   2.359   7.583   5.543
 4360POPC   GL156041   2.621   7.453   5.892
 4360POPC   GL256042   2.727   7.134   5.854
 4360POPC   C1A56043   2.932   7.388   6.255
 4360POPC   D2A56044   2.806   7.343   6.686
 4360POPC   C3A56045   2.925   7.564   7.054
 4360POPC   C4A56046   2.563   7.549   7.326
 4360POPC   C1B56047   2.727   6.917   6.294
 4360POPC   C2B56048   2.744   6.832   6.749
 4360POPC   C3B56049   2.682   7.066   7.126
 4360POPC   C4B56050   2.994   7.189   7.389
 4361POPC   NC356051  21.478  25.646   5.439
 4361POPC   PO456052  21.244  26.280   5.378
 4361POPC   GL156053  21.446  26.140   5.769
 4361POPC   GL256054  21.619  25.821   5.874
 4361POPC   C1A56055  21.377  26.117   6.229
 4361POPC   D2A56056  21.491  26.226   6.660
 4361POPC   C3A56057  21.200  26.111   6.991
 4361POPC   C4A56058  21.523  26.158   7.278
 4361POPC   C1B56059  21.602  25.555   6.214
 4361POPC   C2B56060  21.436  25.719   6.582
 4361POPC   C3B56061  21.598  25.760   6.971
 4361POPC   C4B56062  21.516  25.646   7.391
 4362POPC   NC356063  43.263  32.247   5.168
 4362POPC   PO456064  42.684  32.563   5.352
 4362POPC   GL156065  42.996  32.414   5.736
 4362POPC   GL256066  43.089  32.089   5.784
 4362POPC   C1A56067  43.367  32.324   6.125
 4362POPC   D2A56068  43.419  32.064   6.526
 4362POPC   C3A56069  43.289  32.126   6.973
 4362POPC   C4A56070  43.400  31.981   7.400
 4362POPC   C1B56071  42.940  32.049   6.204
 4362POPC   C2B56072  42.936  31.885   6.601
 4362POPC   C3B56073  42.758  31.896   6.980
 4362POPC   C4B56074  42.926  31.811   7.372
 4363POPC   NC356075  16.770   4.792   5.471
 4363POPC   PO456076  16.414   5.359   5.555
 4363POPC   GL156077  16.651   5.088   5.884
 4363POPC   GL256078  16.499   4.797   6.061
 4363POPC   C1A56079  16.984   4.941   6.208
 4363POPC   D2A56080  16.946   4.871   6.679
 4363POPC   C3A56081  16.946   5.075   7.118
 4363POPC   C4A56082  17.025   4.856   7.527
 4363POPC   C1B56083  16.549   5.119   6.396
 4363POPC   C2B56084  16.500   5.080   6.840
 4363POPC   C3B56085  16.415   4.990   7.243
 4363POPC   C4B56086  16.479   5.088   7.670
 4364POPC   NC356087  27.680  20.519   5.145
 4364POPC   PO456088  28.406  20.558   5.444
 4364POPC   GL156089  28.324  20.560   5.836
 4364POPC   GL256090  28.438  20.885   5.961
 4364POPC   C1A56091  28.311  20.342   6.199
 4364POPC   D2A56092  28.386  20.536   6.571
 4364POPC   C3A56093  28.209  20.364   6.921
 4364POPC   C4A56094  28.316  20.512   7.311
 4364POPC   C1B56095  28.080  20.816   6.250
 4364POPC   C2B56096  27.915  20.731   6.691
 4364POPC   C3B56097  27.885  20.757   7.182
 4364POPC   C4B56098  27.983  20.649   7.659
 4365POPC   NC356099   4.627  10.493   5.349
 4365POPC   PO456100   4.084  10.719   5.633
 4365POPC   GL156101   4.320  10.423   5.829
 4365POPC   GL256102   4.029  10.301   6.048
 4365POPC   C1A56103   4.468  10.413   6.252
 4365POPC   D2A56104   4.243  10.508   6.638
 4365POPC   C3A56105   4.448  10.495   7.063
 4365POPC   C4A56106   4.611  10.870   7.286
 4365POPC   C1B56107   3.903  10.702   6.266
 4365POPC   C2B56108   3.970  10.954   6.633
 4365POPC   C3B56109   3.945  10.698   7.003
 4365POPC   C4B56110   3.989  10.259   7.162
 4366POPC   NC356111   6.483  18.031   5.561
 4366POPC   PO456112   6.430  18.668   5.544
 4366POPC   GL156113   6.635  18.431   5.906
 4366POPC   GL256114   6.773  18.066   5.959
 4366POPC   C1A56115   6.715  18.506   6.348
 4366POPC   D2A56116   6.587  18.706   6.736
 4366POPC   C3A56117   6.624  18.459   7.086
 4366POPC   C4A56118   6.695  18.367   7.509
 4366POPC   C1B56119   7.001  18.071   6.318
 4366POPC   C2B56120   6.697  18.108   6.688
 4366POPC   C3B56121   6.581  17.930   7.094
 4366POPC   C4B56122   6.806  17.893   7.484
 4367POPC   NC356123   3.903  10.178   5.575
 4367POPC   PO456124   3.266  10.298   5.405
 4367POPC   GL156125   3.428  10.524   5.778
 4367POPC   GL256126   3.309  10.893   5.803
 4367POPC   C1A56127   3.521  10.344   6.188
 4367POPC   D2A56128   3.787  10.247   6.550
 4367POPC   C3A56129   3.534  10.335   6.910
 4367POPC   C4A56130   3.559  10.542   7.295
 4367POPC   C1B56131   3.403  10.860   6.253
 4367POPC   C2B56132   3.485  10.798   6.707
 4367POPC   C3B56133   3.256  10.900   7.109
 4367POPC   C4B56134   3.330  10.957   7.568
 4368POPC   NC356135  31.731  30.331   5.148
 4368POPC   PO456136  31.805  30.944   5.453
 4368POPC   GL156137  31.461  30.753   5.714
 4368POPC   GL256138  31.426  31.038   5.896
 4368POPC   C1A56139  31.332  30.638   6.169
 4368POPC   D2A56140  31.506  30.815   6.546
 4368POPC   C3A56141  31.359  30.663   6.933
 4368POPC   C4A56142  31.513  30.551   7.322
 4368POPC   C1B56143  31.232  31.154   6.244
 4368POPC   C2B56144  31.137  31.291   6.646
 4368POPC   C3B56145  31.300  31.182   7.014
 4368POPC   C4B56146  31.283  30.994   7.406
 4369POPC   NC356147  14.293  39.706   5.554
 4369POPC   PO456148  14.532  40.337   5.635
 4369POPC   GL156149  14.426  40.006   5.959
 4369POPC   GL256150  14.119  39.777   6.011
 4369POPC   C1A56151  14.592  40.074   6.368
 4369POPC   D2A56152  14.820  40.369   6.649
 4369POPC   C3A56153  14.515  40.211   6.937
 4369POPC   C4A56154  14.288  40.248   7.316
 4369POPC   C1B56155  14.299  39.625   6.358
 4369POPC   C2B56156  14.184  39.627   6.767
 4369POPC   C3B56157  14.096  39.630   7.154
 4369POPC   C4B56158  14.477  39.771   7.253
 4370POPC   NC356159  30.789   7.098   5.719
 4370POPC   PO456160  30.503   7.381   5.214
 4370POPC   GL156161  30.499   7.544   5.664
 4370POPC   GL256162  30.296   7.324   5.855
 4370POPC   C1A56163  30.638   7.598   6.132
 4370POPC   D2A56164  30.694   7.824   6.527
 4370POPC   C3A56165  30.645   7.644   6.915
 4370POPC   C4A56166  30.700   7.427   7.243
 4370POPC   C1B56167  30.443   7.114   6.255
 4370POPC   C2B56168  30.711   7.229   6.596
 4370POPC   C3B56169  30.800   7.009   7.001
 4370POPC   C4B56170  30.688   7.015   7.518
 4371POPC   NC356171  43.887  40.282   5.396
 4371POPC   PO456172  43.963  39.635   5.246
 4371POPC   GL156173  43.945  39.723   5.698
 4371POPC   GL256174  44.054  40.033   5.786
 4371POPC   C1A56175  43.710  39.806   6.107
 4371POPC   D2A56176  43.649  39.600   6.508
 4371POPC   C3A56177  43.625  39.821   6.911
 4371POPC   C4A56178  43.527  40.019   7.322
 4371POPC   C1B56179  44.164  40.078   6.190
 4371POPC   C2B56180  43.991  39.979   6.562
 4371POPC   C3B56181  44.210  40.056   6.914
 4371POPC   C4B56182  44.089  40.293   7.251
 4372POPC   NC356183  15.843  28.745   5.488
 4372POPC   PO456184  16.372  28.356   5.372
 4372POPC   GL156185  16.028  28.282   5.638
 4372POPC   GL256186  15.960  27.942   5.719
 4372POPC   C1A56187  15.943  28.366   6.076
 4372POPC   D2A56188  15.883  28.319   6.519
 4372POPC   C3A56189  15.871  28.472   6.947
 4372POPC   C4A56190  15.722  28.300   7.343
 4372POPC   C1B56191  16.325  28.025   6.019
 4372POPC   C2B56192  16.343  28.114   6.494
 4372POPC   C3B56193  16.116  28.026   6.901
 4372POPC   C4B56194  16.185  28.038   7.359
 4373POPC   NC356195   1.617  30.547   5.540
 4373POPC   PO456196   1.021  30.799   5.413
 4373POPC   GL156197   1.165  30.640   5.812
 4373POPC   GL256198   0.829  30.657   5.971
 4373POPC   C1A56199   1.444  30.518   6.192
 4373POPC   D2A56200   1.303  30.461   6.616
 4373POPC   C3A56201   1.429  30.701   6.957
 4373POPC   C4A56202   1.532  30.643   7.398
 4373POPC   C1B56203   1.064  30.844   6.279
 4373POPC   C2B56204   1.123  31.023   6.649
 4373POPC   C3B56205   0.891  30.970   6.989
 4373POPC   C4B56206   1.076  30.819   7.301
 4374POPC   NC356207   3.831  27.805   5.724
 4374POPC   PO456208   3.590  27.279   5.328
 4374POPC   GL156209   3.435  27.279   5.752
 4374POPC   GL256210   3.508  27.536   5.990
 4374POPC   C1A56211   3.245  27.148   6.149
 4374POPC   D2A56212   3.551  27.084   6.455
 4374POPC   C3A56213   3.697  27.366   6.775
 4374POPC   C4A56214   3.529  27.500   7.178
 4374POPC   C1B56215   3.532  27.844   6.343
 4374POPC   C2B56216   3.199  28.034   6.618
 4374POPC   C3B56217   3.259  27.915   7.035
 4374POPC   C4B56218   3.691  27.983   7.174
 4375POPC   NC356219   7.544   3.983   5.379
 4375POPC   PO456220   7.192   4.555   5.391
 4375POPC   GL156221   7.493   4.365   5.720
 4375POPC   GL256222   7.351   4.103   5.846
 4375POPC   C1A56223   7.655   4.293   6.179
 4375POPC   D2A56224   7.391   4.155   6.536
 4375POPC   C3A56225   7.643   4.284   6.868
 4375POPC   C4A56226   7.743   4.337   7.292
 4375POPC   C1B56227   7.129   4.404   6.127
 4375POPC   C2B56228   6.924   4.351   6.550
 4375POPC   C3B56229   7.123   4.431   6.912
 4375POPC   C4B56230   7.265   4.163   7.218
 4376POPC   NC356231  43.933  44.044   5.430
 4376POPC   PO456232  43.835  43.393   5.455
 4376POPC   GL156233  43.709  43.611   5.847
 4376POPC   GL256234  43.702  44.020   5.886
 4376POPC   C1A56235  43.796  43.710   6.292
 4376POPC   D2A56236  43.757  44.062   6.576
 4376POPC   C3A56237  43.843  43.898   6.999
 4376POPC   C4A56238  43.713  43.540   7.206
 4376POPC   C1B56239  44.079  44.161   6.148
 4376POPC   C2B56240  44.229  44.366   6.539
 4376POPC   C3B56241  44.030  44.383   6.941
 4376POPC   C4B56242  44.077  44.222   7.349
 4377POPC   NC356243   2.203  44.044   5.569
 4377POPC   PO456244   1.891  43.436   5.625
 4377POPC   GL156245   1.924  43.779   5.893
 4377POPC   GL256246   1.685  44.065   5.773
 4377POPC   C1A56247   2.138  43.872   6.301
 4377POPC   D2A56248   2.095  43.662   6.718
 4377POPC   C3A56249   2.128  43.965   7.062
 4377POPC   C4A56250   2.091  43.988   7.497
 4377POPC   C1B56251   1.645  43.984   6.239
 4377POPC   C2B56252   1.811  44.103   6.621
 4377POPC   C3B56253   1.660  43.900   6.939
 4377POPC   C4B56254   1.622  44.009   7.293
 4378POPC   NC356255  32.866  23.329   5.377
 4378POPC   PO456256  32.681  22.738   5.600
 4378POPC   GL156257  32.970  22.809   5.902
 4378POPC   GL256258  33.119  23.121   5.804
 4378POPC   C1A56259  32.931  22.711   6.331
 4378POPC   D2A56260  32.974  22.975   6.685
 4378POPC   C3A56261  33.044  22.819   7.083
 4378POPC   C4A56262  32.788  22.784   7.439
 4378POPC   C1B56263  33.057  23.249   6.236
 4378POPC   C2B56264  33.233  23.409   6.644
 4378POPC   C3B56265  33.068  23.363   7.082
 4378POPC   C4B56266  33.213  23.122   7.474
 4379POPC   NC356267  39.499  17.077   5.470
 4379POPC   PO456268  38.985  16.682   5.514
 4379POPC   GL156269  39.336  16.685   5.854
 4379POPC   GL256270  39.424  17.014   5.985
 4379POPC   C1A56271  39.350  16.485   6.271
 4379POPC   D2A56272  39.090  16.501   6.658
 4379POPC   C3A56273  39.286  16.576   7.059
 4379POPC   C4A56274  39.448  16.981   7.173
 4379POPC   C1B56275  39.151  16.965   6.337
 4379POPC   C2B56276  39.151  17.016   6.766
 4379POPC   C3B56277  38.904  16.909   7.121
 4379POPC   C4B56278  38.961  17.041   7.536
 4380POPC   NC356279  38.648  30.058   5.585
 4380POPC   PO456280  38.349  29.507   5.435
 4380POPC   GL156281  38.299  29.682   5.837
 4380POPC   GL256282  38.168  30.007   5.891
 4380POPC   C1A56283  38.471  29.742   6.254
 4380POPC   D2A56284  38.605  29.890   6.666
 4380POPC   C3A56285  38.589  29.641   7.059
 4380POPC   C4A56286  38.475  29.449   7.469
 4380POPC   C1B56287  38.211  30.231   6.268
 4380POPC   C2B56288  38.185  30.404   6.708
 4380POPC   C3B56289  38.385  30.164   7.062
 4380POPC   C4B56290  38.209  29.866   7.324
 4381POPC   NC356291   3.686  31.741   5.464
 4381POPC   PO456292   3.383  31.121   5.505
 4381POPC   GL156293   3.379  31.477   5.780
 4381POPC   GL256294   3.735  31.430   5.890
 4381POPC   C1A56295   3.399  31.721   6.165
 4381POPC   D2A56296   3.606  31.723   6.584
 4381POPC   C3A56297   3.347  31.691   6.957
 4381POPC   C4A56298   3.377  31.790   7.379
 4381POPC   C1B56299   3.539  31.230   6.259
 4381POPC   C2B56300   3.321  30.970   6.585
 4381POPC   C3B56301   3.324  31.183   6.968
 4381POPC   C4B56302   3.755  31.358   6.955
 4382POPC   NC356303   2.203  40.379   5.341
 4382POPC   PO456304   1.855  39.736   5.380
 4382POPC   GL156305   2.032  39.977   5.723
 4382POPC   GL256306   1.694  39.931   5.848
 4382POPC   C1A56307   2.109  40.117   6.170
 4382POPC   D2A56308   2.294  39.950   6.579
 4382POPC   C3A56309   2.272  40.155   6.951
 4382POPC   C4A56310   2.031  40.317   7.304
 4382POPC   C1B56311   1.572  40.000   6.227
 4382POPC   C2B56312   1.791  39.932   6.559
 4382POPC   C3B56313   1.759  40.123   6.926
 4382POPC   C4B56314   1.489  40.230   7.255
 4383POPC   NC356315  23.641  43.532   5.452
 4383POPC   PO456316  23.673  44.200   5.368
 4383POPC   GL156317  23.568  44.097   5.824
 4383POPC   GL256318  23.605  43.738   5.900
 4383POPC   C1A56319  23.880  44.089   6.177
 4383POPC   D2A56320  24.175  43.884   6.474
 4383POPC   C3A56321  23.983  43.872   6.882
 4383POPC   C4A56322  23.549  43.954   7.093
 4383POPC   C1B56323  23.829  43.578   6.228
 4383POPC   C2B56324  24.014  43.405   6.577
 4383POPC   C3B56325  23.948  43.381   6.976
 4383POPC   C4B56326  23.725  43.530   7.318
 4384POPC   NC356327  35.726   2.423   5.186
 4384POPC   PO456328  35.546   3.135   5.352
 4384POPC   GL156329  35.542   2.795   5.712
 4384POPC   GL256330  35.262   2.560   5.736
 4384POPC   C1A56331  35.458   2.915   6.187
 4384POPC   D2A56332  35.187   3.076   6.529
 4384POPC   C3A56333  35.272   2.932   6.955
 4384POPC   C4A56334  35.238   2.899   7.407
 4384POPC   C1B56335  35.440   2.414   6.159
 4384POPC   C2B56336  35.325   2.537   6.573
 4384POPC   C3B56337  35.501   2.452   6.969
 4384POPC   C4B56338  35.262   2.399   7.320
 4385POPC   NC356339  37.965  40.041   5.441
 4385POPC   PO456340  37.334  39.782   5.394
 4385POPC   GL156341  37.573  39.968   5.767
 4385POPC   GL256342  37.392  40.211   5.967
 4385POPC   C1A56343  37.855  40.121   6.151
 4385POPC   D2A56344  37.938  40.348   6.574
 4385POPC   C3A56345  37.973  40.169   7.029
 4385POPC   C4A56346  37.771  39.835   7.248
 4385POPC   C1B56347  37.431  40.187   6.425
 4385POPC   C2B56348  37.586  40.002   6.763
 4385POPC   C3B56349  37.281  39.878   7.017
 4385POPC   C4B56350  37.042  39.889   7.385
 4386POPC   NC356351  36.172  12.258   5.132
 4386POPC   PO456352  35.884  12.072   5.738
 4386POPC   GL156353  36.265  12.166   5.817
 4386POPC   GL256354  36.334  11.803   5.816
 4386POPC   C1A56355  36.413  12.242   6.232
 4386POPC   D2A56356  36.271  12.017   6.600
 4386POPC   C3A56357  35.922  12.197   6.817
 4386POPC   C4A56358  35.850  12.170   7.240
 4386POPC   C1B56359  36.566  11.753   6.220
 4386POPC   C2B56360  36.670  11.690   6.669
 4386POPC   C3B56361  36.422  11.634   7.057
 4386POPC   C4B56362  36.358  11.554   7.531
 4387POPC   NC356363   1.120  33.004   5.295
 4387POPC   PO456364   1.659  32.865   5.558
 4387POPC   GL156365   1.342  33.097   5.769
 4387POPC   GL256366   0.974  33.251   5.699
 4387POPC   C1A56367   1.370  32.897   6.184
 4387POPC   D2A56368   1.186  32.783   6.558
 4387POPC   C3A56369   1.452  32.737   6.904
 4387POPC   C4A56370   1.184  32.864   7.228
 4387POPC   C1B56371   1.068  33.302   6.129
 4387POPC   C2B56372   1.017  33.493   6.555
 4387POPC   C3B56373   1.178  33.434   6.975
 4387POPC   C4B56374   1.242  33.345   7.408
 4388POPC   NC356375  12.498   6.981   5.697
 4388POPC   PO456376  12.695   7.603   5.480
 4388POPC   GL156377  12.914   7.403   5.838
 4388POPC   GL256378  13.028   7.082   5.838
 4388POPC   C1A56379  13.136   7.400   6.243
 4388POPC   D2A56380  13.280   7.590   6.623
 4388POPC   C3A56381  12.945   7.574   6.906
 4388POPC   C4A56382  12.809   7.731   7.296
 4388POPC   C1B56383  12.868   6.908   6.231
 4388POPC   C2B56384  12.622   6.940   6.588
 4388POPC   C3B56385  12.853   7.066   6.926
 4388POPC   C4B56386  12.926   7.249   7.289
 4389POPC   NC356387  20.711  29.399   5.438
 4389POPC   PO456388  20.143  28.916   5.375
 4389POPC   GL156389  20.443  29.035   5.745
 4389POPC   GL256390  20.760  29.231   5.899
 4389POPC   C1A56391  20.373  28.997   6.199
 4389POPC   D2A56392  20.210  28.866   6.625
 4389POPC   C3A56393  20.378  29.099   7.006
 4389POPC   C4A56394  20.721  29.007   7.275
 4389POPC   C1B56395  20.907  28.967   6.222
 4389POPC   C2B56396  20.773  28.942   6.653
 4389POPC   C3B56397  20.894  29.303   6.913
 4389POPC   C4B56398  21.093  29.328   7.348
 4390POPC   NC356399   1.161  17.967   5.408
 4390POPC   PO456400   1.411  18.567   5.417
 4390POPC   GL156401   1.443  18.311   5.774
 4390POPC   GL256402   1.234  18.546   5.946
 4390POPC   C1A56403   1.546  18.118   6.201
 4390POPC   D2A56404   1.693  18.320   6.622
 4390POPC   C3A56405   1.357  18.416   6.954
 4390POPC   C4A56406   1.334  18.123   7.332
 4390POPC   C1B56407   1.225  18.475   6.403
 4390POPC   C2B56408   0.858  18.373   6.664
 4390POPC   C3B56409   0.799  18.186   7.070
 4390POPC   C4B56410   0.926  18.404   7.425
 4391POPC   NC356411  19.019  20.147   5.210
 4391POPC   PO456412  19.095  19.574   5.514
 4391POPC   GL156413  18.940  19.922   5.810
 4391POPC   GL256414  18.917  20.271   5.810
 4391POPC   C1A56415  19.007  19.950   6.238
 4391POPC   D2A56416  19.006  19.617   6.513
 4391POPC   C3A56417  19.054  19.802   6.892
 4391POPC   C4A56418  19.275  19.683   7.234
 4391POPC   C1B56419  18.630  20.290   6.197
 4391POPC   C2B56420  18.777  20.249   6.646
 4391POPC   C3B56421  18.640  20.037   7.029
 4391POPC   C4B56422  18.867  19.929   7.416
 4392POPC   NC356423  17.336  33.743   5.356
 4392POPC   PO456424  17.934  33.649   5.551
 4392POPC   GL156425  17.713  33.923   5.808
 4392POPC   GL256426  17.322  33.912   5.855
 4392POPC   C1A56427  17.645  33.955   6.239
 4392POPC   D2A56428  17.397  34.083   6.537
 4392POPC   C3A56429  17.508  33.917   6.918
 4392POPC   C4A56430  17.644  33.774   7.300
 4392POPC   C1B56431  17.261  33.607   6.227
 4392POPC   C2B56432  17.120  33.671   6.676
 4392POPC   C3B56433  17.139  33.647   7.156
 4392POPC   C4B56434  17.350  33.368   7.435
 4393POPC   NC356435   0.366  20.080   5.356
 4393POPC   PO456436   0.708  20.693   5.433
 4393POPC   GL156437   0.393  20.508   5.726
 4393POPC   GL256438   0.247  20.766   5.876
 4393POPC   C1A56439   0.384  20.358   6.176
 4393POPC   D2A56440   0.582  20.260   6.592
 4393POPC   C3A56441   0.402  20.278   7.005
 4393POPC   C4A56442   0.390  20.235   7.463
 4393POPC   C1B56443   0.559  20.847   6.145
 4393POPC   C2B56444   0.429  20.739   6.532
 4393POPC   C3B56445   0.501  20.827   6.941
 4393POPC   C4B56446   0.256  20.692   7.255
 4394POPC   NC356447   8.916  33.869   5.316
 4394POPC   PO456448   9.089  33.265   5.128
 4394POPC   GL156449   9.116  33.424   5.621
 4394POPC   GL256450   9.316  33.759   5.678
 4394POPC   C1A56451   9.036  33.598   6.095
 4394POPC   D2A56452   8.937  33.873   6.499
 4394POPC   C3A56453   8.971  33.644   6.907
 4394POPC   C4A56454   8.840  33.697   7.347
 4394POPC   C1B56455   9.473  33.951   6.072
 4394POPC   C2B56456   9.556  34.110   6.490
 4394POPC   C3B56457   9.293  34.077   6.845
 4394POPC   C4B56458   9.276  33.992   7.279
 4395POPC   NC356459  27.412   8.948   5.456
 4395POPC   PO456460  27.659   9.485   5.205
 4395POPC   GL156461  27.694   9.245   5.766
 4395POPC   GL256462  27.620   8.917   5.901
 4395POPC   C1A56463  27.788   9.230   6.259
 4395POPC   D2A56464  27.638   9.347   6.686
 4395POPC   C3A56465  27.495   9.058   7.018
 4395POPC   C4A56466  27.299   9.072   7.488
 4395POPC   C1B56467  27.754   8.717   6.234
 4395POPC   C2B56468  27.522   8.675   6.580
 4395POPC   C3B56469  27.620   8.515   6.938
 4395POPC   C4B56470  27.525   8.658   7.308
 4396POPC   NC356471   0.842  32.425   5.440
 4396POPC   PO456472   0.163  32.315   5.511
 4396POPC   GL156473   0.374  32.351   5.889
 4396POPC   GL256474   0.691  32.201   5.898
 4396POPC   C1A56475   0.482  32.618   6.229
 4396POPC   D2A56476   0.695  32.604   6.613
 4396POPC   C3A56477   0.553  32.318   6.891
 4396POPC   C4A56478   0.407  32.211   7.271
 4396POPC   C1B56479   0.675  32.139   6.366
 4396POPC   C2B56480   0.880  31.937   6.752
 4396POPC   C3B56481   0.940  31.899   7.210
 4396POPC   C4B56482   0.735  31.999   7.605
 4397POPC   NC356483  23.036  28.676   5.424
 4397POPC   PO456484  22.474  28.303   5.487
 4397POPC   GL156485  22.830  28.308   5.812
 4397POPC   GL256486  23.189  28.441   5.840
 4397POPC   C1A56487  22.917  28.398   6.260
 4397POPC   D2A56488  22.639  28.548   6.564
 4397POPC   C3A56489  22.813  28.460   6.953
 4397POPC   C4A56490  22.776  28.690   7.308
 4397POPC   C1B56491  23.442  28.287   6.192
 4397POPC   C2B56492  23.501  28.082   6.592
 4397POPC   C3B56493  23.336  28.263   6.949
 4397POPC   C4B56494  23.275  28.631   7.136
 4398POPC   NC356495  37.831  16.345   5.655
 4398POPC   PO456496  37.434  15.984   5.128
 4398POPC   GL156497  37.522  16.013   5.799
 4398POPC   GL256498  37.458  16.253   5.985
 4398POPC   C1A56499  37.693  15.866   6.255
 4398POPC   D2A56500  37.591  15.865   6.682
 4398POPC   C3A56501  37.828  15.884   7.054
 4398POPC   C4A56502  37.526  16.048   7.309
 4398POPC   C1B56503  37.743  16.370   6.349
 4398POPC   C2B56504  37.779  16.514   6.776
 4398POPC   C3B56505  37.896  16.397   7.200
 4398POPC   C4B56506  37.805  16.369   7.628
 4399POPC   NC356507  36.971   3.033   5.444
 4399POPC   PO456508  36.861   2.342   5.608
 4399POPC   GL156509  37.025   2.549   5.935
 4399POPC   GL256510  36.900   2.869   5.952
 4399POPC   C1A56511  37.193   2.675   6.339
 4399POPC   D2A56512  37.071   2.898   6.717
 4399POPC   C3A56513  37.350   2.906   7.068
 4399POPC   C4A56514  37.325   2.552   7.370
 4399POPC   C1B56515  36.645   2.581   6.295
 4399POPC   C2B56516  36.366   2.392   6.669
 4399POPC   C3B56517  36.531   2.436   7.113
 4399POPC   C4B56518  36.868   2.742   7.197
 4400POPC   NC356519   3.776  34.932   5.307
 4400POPC   PO456520   3.400  34.347   5.455
 4400POPC   GL156521   3.386  34.780   5.656
 4400POPC   GL256522   3.736  34.853   5.793
 4400POPC   C1A56523   3.355  34.801   6.117
 4400POPC   D2A56524   3.166  34.679   6.505
 4400POPC   C3A56525   3.382  34.646   6.863
 4400POPC   C4A56526   3.546  34.285   7.071
 4400POPC   C1B56527   3.874  34.647   6.179
 4400POPC   C2B56528   3.840  34.739   6.618
 4400POPC   C3B56529   3.831  34.738   7.063
 4400POPC   C4B56530   4.008  34.949   7.382
 4401POPC   NC356531  36.018  38.447   5.402
 4401POPC   PO456532  35.590  37.960   5.279
 4401POPC   GL156533  35.949  38.073   5.710
 4401POPC   GL256534  36.302  38.031   5.650
 4401POPC   C1A56535  35.917  38.360   6.109
 4401POPC   D2A56536  36.165  38.553   6.443
 4401POPC   C3A56537  36.008  38.643   6.875
 4401POPC   C4A56538  35.869  38.361   7.216
 4401POPC   C1B56539  36.315  38.050   6.081
 4401POPC   C2B56540  36.281  38.068   6.535
 4401POPC   C3B56541  36.382  38.315   6.929
 4401POPC   C4B56542  36.414  38.298   7.365
 4402POPC   NC356543  34.299  13.898   5.370
 4402POPC   PO456544  33.881  13.377   5.224
 4402POPC   GL156545  33.940  13.464   5.748
 4402POPC   GL256546  34.139  13.260   5.936
 4402POPC   C1A56547  33.846  13.735   6.158
 4402POPC   D2A56548  33.696  13.701   6.612
 4402POPC   C3A56549  33.877  13.878   7.002
 4402POPC   C4A56550  33.695  13.833   7.440
 4402POPC   C1B56551  34.087  13.357   6.375
 4402POPC   C2B56552  34.218  13.672   6.660
 4402POPC   C3B56553  34.213  13.494   7.071
 4402POPC   C4B56554  34.119  13.384   7.474
 4403POPC   NC356555   1.823  37.521   5.430
 4403POPC   PO456556   2.412  37.694   5.482
 4403POPC   GL156557   2.227  37.611   5.864
 4403POPC   GL256558   1.883  37.467   5.945
 4403POPC   C1A56559   2.181  37.833   6.242
 4403POPC   D2A56560   1.887  37.695   6.566
 4403POPC   C3A56561   2.020  37.853   6.955
 4403POPC   C4A56562   1.871  37.775   7.342
 4403POPC   C1B56563   2.157  37.317   6.286
 4403POPC   C2B56564   2.081  37.188   6.690
 4403POPC   C3B56565   2.063  37.352   7.086
 4403POPC   C4B56566   2.296  37.399   7.467
 4404POPC   NC356567  17.558  11.169   5.529
 4404POPC   PO456568  17.205  11.705   5.250
 4404POPC   GL156569  17.321  11.541   5.793
 4404POPC   GL256570  17.650  11.556   5.883
 4404POPC   C1A56571  17.466  11.219   6.189
 4404POPC   D2A56572  17.719  10.984   6.503
 4404POPC   C3A56573  17.673  11.164   6.916
 4404POPC   C4A56574  17.400  11.216   7.243
 4404POPC   C1B56575  17.460  11.722   6.268
 4404POPC   C2B56576  17.356  11.490   6.634
 4404POPC   C3B56577  17.438  11.671   7.010
 4404POPC   C4B56578  17.696  11.590   7.378
 4405POPC   NC356579   8.457  10.852   5.546
 4405POPC   PO456580   8.163  10.192   5.559
 4405POPC   GL156581   8.350  10.425   5.828
 4405POPC   GL256582   8.065  10.655   5.835
 4405POPC   C1A56583   8.301  10.468   6.268
 4405POPC   D2A56584   8.089  10.327   6.600
 4405POPC   C3A56585   8.283  10.373   6.970
 4405POPC   C4A56586   7.936  10.272   7.191
 4405POPC   C1B56587   8.072  10.922   6.209
 4405POPC   C2B56588   8.280  10.864   6.617
 4405POPC   C3B56589   8.166  10.843   7.042
 4405POPC   C4B56590   8.446  10.762   7.324
 4406POPC   NC356591  16.482  22.011   5.500
 4406POPC   PO456592  17.160  21.941   5.382
 4406POPC   GL156593  16.919  22.021   5.805
 4406POPC   GL256594  16.597  22.239   5.925
 4406POPC   C1A56595  16.988  22.120   6.245
 4406POPC   D2A56596  17.025  22.372   6.608
 4406POPC   C3A56597  16.908  22.146   6.958
 4406POPC   C4A56598  16.654  22.150   7.284
 4406POPC   C1B56599  16.560  21.839   6.147
 4406POPC   C2B56600  16.627  21.929   6.572
 4406POPC   C3B56601  16.377  21.906   6.930
 4406POPC   C4B56602  16.419  21.700   7.310
 4407POPC   NC356603   4.383   0.144   5.127
 4407POPC   PO456604   4.192   0.681   5.548
 4407POPC   GL156605   4.332   0.510   5.904
 4407POPC   GL256606   4.265   0.149   5.810
 4407POPC   C1A56607   4.261   0.636   6.343
 4407POPC   D2A56608   4.494   0.414   6.647
 4407POPC   C3A56609   4.355   0.423   7.046
 4407POPC   C4A56610   4.107   0.712   7.215
 4407POPC   C1B56611   3.977   0.251   6.156
 4407POPC   C2B56612   4.034   0.189   6.585
 4407POPC   C3B56613   3.901   0.187   6.998
 4407POPC   C4B56614   4.223  44.917   7.127
 4408POPC   NC356615  38.515  11.421   5.325
 4408POPC   PO456616  38.159  10.812   5.533
 4408POPC   GL156617  38.508  11.102   5.726
 4408POPC   GL256618  38.422  11.474   5.818
 4408POPC   C1A56619  38.712  11.214   6.136
 4408POPC   D2A56620  38.679  11.376   6.572
 4408POPC   C3A56621  38.587  11.261   7.003
 4408POPC   C4A56622  38.686  11.349   7.435
 4408POPC   C1B56623  38.375  11.639   6.242
 4408POPC   C2B56624  38.301  11.703   6.690
 4408POPC   C3B56625  38.109  11.451   7.010
 4408POPC   C4B56626  37.929  11.540   7.437
 4409POPC   NC356627   4.475  31.890   5.410
 4409POPC   PO456628   3.917  31.909   5.823
 4409POPC   GL156629   4.256  32.160   5.958
 4409POPC   GL256630   4.633  32.135   5.850
 4409POPC   C1A56631   4.123  32.318   6.363
 4409POPC   D2A56632   3.964  32.071   6.714
 4409POPC   C3A56633   4.198  32.210   7.057
 4409POPC   C4A56634   4.252  32.539   7.293
 4409POPC   C1B56635   4.611  32.400   6.215
 4409POPC   C2B56636   4.559  32.474   6.627
 4409POPC   C3B56637   4.761  32.242   6.974
 4409POPC   C4B56638   4.710  31.992   7.327
 4410POPC   NC356639   6.685  14.950   5.196
 4410POPC   PO456640   6.372  15.365   5.658
 4410POPC   GL156641   6.663  15.219   5.905
 4410POPC   GL256642   6.772  14.924   5.715
 4410POPC   C1A56643   6.470  15.090   6.306
 4410POPC   D2A56644   6.202  15.132   6.684
 4410POPC   C3A56645   6.392  15.252   7.063
 4410POPC   C4A56646   6.575  15.090   7.489
 4410POPC   C1B56647   6.966  14.871   6.106
 4410POPC   C2B56648   6.979  15.180   6.400
 4410POPC   C3B56649   6.956  15.168   6.840
 4410POPC   C4B56650   7.017  15.258   7.246
 4411POPC   NC356651  10.192  27.968   5.501
 4411POPC   PO456652  10.624  27.344   5.426
 4411POPC   GL156653  10.418  27.536   5.748
 4411POPC   GL256654  10.712  27.734   5.735
 4411POPC   C1A56655  10.345  27.576   6.207
 4411POPC   D2A56656  10.242  27.434   6.666
 4411POPC   C3A56657  10.261  27.772   7.030
 4411POPC   C4A56658  10.241  27.719   7.502
 4411POPC   C1B56659  10.856  27.431   6.029
 4411POPC   C2B56660  10.796  27.465   6.468
 4411POPC   C3B56661  10.706  27.282   6.857
 4411POPC   C4B56662  10.648  27.500   7.249
 4412POPC   NC356663  36.460  34.187   5.511
 4412POPC   PO456664  36.091  34.748   5.354
 4412POPC   GL156665  36.163  34.538   5.805
 4412POPC   GL256666  36.237  34.214   5.953
 4412POPC   C1A56667  36.177  34.556   6.307
 4412POPC   D2A56668  35.825  34.636   6.644
 4412POPC   C3A56669  35.827  34.601   7.116
 4412POPC   C4A56670  35.762  34.433   7.535
 4412POPC   C1B56671  35.923  34.118   6.278
 4412POPC   C2B56672  35.943  34.119   6.738
 4412POPC   C3B56673  36.234  34.290   7.022
 4412POPC   C4B56674  36.262  34.316   7.449
 4413POPC   NC356675  17.835  16.859   5.749
 4413POPC   PO456676  17.373  16.562   5.304
 4413POPC   GL156677  17.300  16.758   5.708
 4413POPC   GL256678  17.370  16.471   5.854
 4413POPC   C1A56679  17.232  16.982   6.102
 4413POPC   D2A56680  17.177  16.936   6.553
 4413POPC   C3A56681  17.521  16.805   6.835
 4413POPC   C4A56682  17.494  16.745   7.266
 4413POPC   C1B56683  17.426  16.313   6.264
 4413POPC   C2B56684  17.287  16.391   6.663
 4413POPC   C3B56685  17.340  16.281   7.073
 4413POPC   C4B56686  17.524  16.284   7.489
 4414POPC   NC356687  29.707  21.115   5.581
 4414POPC   PO456688  30.148  21.609   5.608
 4414POPC   GL156689  30.153  21.351   5.953
 4414POPC   GL256690  30.186  21.002   5.841
 4414POPC   C1A56691  29.934  21.422   6.344
 4414POPC   D2A56692  29.562  21.382   6.614
 4414POPC   C3A56693  29.740  21.308   7.024
 4414POPC   C4A56694  29.912  21.693   7.257
 4414POPC   C1B56695  30.261  20.971   6.275
 4414POPC   C2B56696  30.018  21.027   6.659
 4414POPC   C3B56697  30.187  21.018   7.033
 4414POPC   C4B56698  30.146  21.269   7.361
 4415POPC   NC356699   4.280  34.130   5.630
 4415POPC   PO456700   4.266  34.785   5.491
 4415POPC   GL156701   4.446  34.571   5.822
 4415POPC   GL256702   4.740  34.374   5.831
 4415POPC   C1A56703   4.380  34.519   6.226
 4415POPC   D2A56704   4.341  34.836   6.494
 4415POPC   C3A56705   4.293  34.638   6.863
 4415POPC   C4A56706   4.257  34.527   7.281
 4415POPC   C1B56707   4.804  34.224   6.262
 4415POPC   C2B56708   4.561  34.253   6.664
 4415POPC   C3B56709   4.701  34.387   7.079
 4415POPC   C4B56710   4.650  34.325   7.553
 4416POPC   NC356711  13.429   2.566   5.475
 4416POPC   PO456712  13.625   3.242   5.341
 4416POPC   GL156713  13.682   2.943   5.717
 4416POPC   GL256714  13.318   2.955   5.829
 4416POPC   C1A56715  13.678   2.660   6.122
 4416POPC   D2A56716  13.836   2.671   6.589
 4416POPC   C3A56717  13.641   2.488   6.987
 4416POPC   C4A56718  13.408   2.497   7.404
 4416POPC   C1B56719  13.347   3.003   6.287
 4416POPC   C2B56720  13.324   2.856   6.705
 4416POPC   C3B56721  13.382   2.916   7.122
 4416POPC   C4B56722  13.611   2.969   7.524
 4417POPC   NC356723   4.065  38.576   5.454
 4417POPC   PO456724   4.701  38.348   5.362
 4417POPC   GL156725   4.447  38.388   5.783
 4417POPC   GL256726   4.345  38.755   5.860
 4417POPC   C1A56727   4.384  38.124   6.203
 4417POPC   D2A56728   4.332  37.961   6.654
 4417POPC   C3A56729   4.172  38.232   7.037
 4417POPC   C4A56730   4.465  38.376   7.355
 4417POPC   C1B56731   4.164  38.581   6.203
 4417POPC   C2B56732   4.291  38.477   6.612
 4417POPC   C3B56733   4.354  38.721   6.979
 4417POPC   C4B56734   4.205  38.805   7.377
 4418POPC   NC356735  23.426  18.055   5.123
 4418POPC   PO456736  23.793  17.628   5.543
 4418POPC   GL156737  23.920  17.490   5.948
 4418POPC   GL256738  23.602  17.371   5.992
 4418POPC   C1A56739  23.816  17.505   6.411
 4418POPC   D2A56740  23.736  17.229   6.737
 4418POPC   C3A56741  23.759  17.512   7.013
 4418POPC   C4A56742  23.643  17.564   7.406
 4418POPC   C1B56743  23.465  17.108   6.304
 4418POPC   C2B56744  23.217  17.144   6.661
 4418POPC   C3B56745  23.363  17.011   7.045
 4418POPC   C4B56746  23.734  17.057   7.296
 4419POPC   NC356747  22.530  29.534   5.514
 4419POPC   PO456748  23.129  29.783   5.236
 4419POPC   GL156749  22.940  29.852   5.680
 4419POPC   GL256750  22.940  30.225   5.715
 4419POPC   C1A56751  22.865  29.892   6.148
 4419POPC   D2A56752  23.125  30.192   6.418
 4419POPC   C3A56753  23.070  30.241   6.865
 4419POPC   C4A56754  23.002  29.926   7.163
 4419POPC   C1B56755  22.744  30.386   6.101
 4419POPC   C2B56756  22.584  30.262   6.497
 4419POPC   C3B56757  22.586  30.057   6.881
 4419POPC   C4B56758  22.686  30.294   7.264
 4420POPC   NC356759  17.618  13.971   5.211
 4420POPC   PO456760  17.584  13.393   5.356
 4420POPC   GL156761  17.607  13.640   5.743
 4420POPC   GL256762  17.273  13.627   5.876
 4420POPC   C1A56763  17.633  13.621   6.236
 4420POPC   D2A56764  17.350  13.662   6.626
 4420POPC   C3A56765  17.540  13.739   7.022
 4420POPC   C4A56766  17.855  13.508   7.232
 4420POPC   C1B56767  17.063  13.493   6.248
 4420POPC   C2B56768  17.050  13.218   6.590
 4420POPC   C3B56769  17.230  13.258   6.982
 4420POPC   C4B56770  17.091  13.232   7.374
 4421POPC   NC356771   3.249  25.754   5.623
 4421POPC   PO456772   2.839  26.237   5.389
 4421POPC   GL156773   2.794  26.064   5.796
 4421POPC   GL256774   3.067  26.199   5.945
 4421POPC   C1A56775   2.693  25.942   6.240
 4421POPC   D2A56776   2.575  26.213   6.645
 4421POPC   C3A56777   2.647  26.029   7.048
 4421POPC   C4A56778   2.816  25.811   7.440
 4421POPC   C1B56779   2.973  26.346   6.373
 4421POPC   C2B56780   3.093  26.209   6.811
 4421POPC   C3B56781   3.062  26.243   7.285
 4421POPC   C4B56782   3.168  26.375   7.756
 4422POPC   NC356783  29.447  37.846   5.485
 4422POPC   PO456784  28.912  37.460   5.485
 4422POPC   GL156785  29.067  37.660   5.847
 4422POPC   GL256786  29.272  37.957   5.963
 4422POPC   C1A56787  29.306  37.518   6.202
 4422POPC   D2A56788  29.557  37.760   6.440
 4422POPC   C3A56789  29.429  37.664   6.867
 4422POPC   C4A56790  29.442  37.445   7.243
 4422POPC   C1B56791  28.932  37.846   6.308
 4422POPC   C2B56792  28.932  37.746   6.759
 4422POPC   C3B56793  28.999  37.718   7.213
 4422POPC   C4B56794  28.908  37.838   7.625
 4423POPC   NC356795   2.679   6.485   5.436
 4423POPC   PO456796   3.124   6.968   5.504
 4423POPC   GL156797   2.909   6.668   5.839
 4423POPC   GL256798   2.529   6.653   5.901
 4423POPC   C1A56799   2.957   6.434   6.221
 4423POPC   D2A56800   3.118   6.183   6.558
 4423POPC   C3A56801   2.950   6.376   6.913
 4423POPC   C4A56802   3.043   6.699   7.200
 4423POPC   C1B56803   2.418   6.483   6.319
 4423POPC   C2B56804   2.436   6.439   6.776
 4423POPC   C3B56805   2.519   6.516   7.219
 4423POPC   C4B56806   2.379   6.429   7.656
 4424POPC   NC356807  14.228  36.944   5.427
 4424POPC   PO456808  14.575  36.451   5.481
 4424POPC   GL156809  14.597  36.612   5.896
 4424POPC   GL256810  14.298  36.799   5.912
 4424POPC   C1A56811  14.531  36.660   6.347
 4424POPC   D2A56812  14.606  36.998   6.652
 4424POPC   C3A56813  14.462  36.790   7.001
 4424POPC   C4A56814  14.636  36.672   7.388
 4424POPC   C1B56815  14.359  37.135   6.216
 4424POPC   C2B56816  14.114  37.165   6.568
 4424POPC   C3B56817  14.209  37.262   6.965
 4424POPC   C4B56818  14.288  37.115   7.353
 4425POPC   NC356819  17.400  26.531   5.300
 4425POPC   PO456820  17.932  26.908   5.514
 4425POPC   GL156821  17.618  26.739   5.756
 4425POPC   GL256822  17.417  26.983   5.830
 4425POPC   C1A56823  17.598  26.620   6.192
 4425POPC   D2A56824  17.725  26.814   6.587
 4425POPC   C3A56825  17.426  26.807   6.944
 4425POPC   C4A56826  17.372  26.814   7.391
 4425POPC   C1B56827  17.359  27.072   6.279
 4425POPC   C2B56828  17.443  27.258   6.686
 4425POPC   C3B56829  17.242  27.294   7.117
 4425POPC   C4B56830  17.330  27.284   7.589
 4426POPC   NC356831  38.123  17.929   5.672
 4426POPC   PO456832  38.687  18.154   5.454
 4426POPC   GL156833  38.573  18.397   5.817
 4426POPC   GL256834  38.258  18.414   5.782
 4426POPC   C1A56835  38.344  18.312   6.265
 4426POPC   D2A56836  38.202  18.257   6.679
 4426POPC   C3A56837  38.502  18.109   6.971
 4426POPC   C4A56838  38.559  18.331   7.361
 4426POPC   C1B56839  38.067  18.697   6.026
 4426POPC   C2B56840  38.036  18.688   6.466
 4426POPC   C3B56841  38.057  18.720   6.910
 4426POPC   C4B56842  37.992  18.486   7.270
 4427POPC   NC356843  41.236  25.565   5.513
 4427POPC   PO456844  41.784  25.148   5.542
 4427POPC   GL156845  41.658  25.289   5.921
 4427POPC   GL256846  41.316  25.250   5.918
 4427POPC   C1A56847  41.726  25.331   6.366
 4427POPC   D2A56848  41.477  25.247   6.706
 4427POPC   C3A56849  41.617  25.242   7.115
 4427POPC   C4A56850  41.273  25.389   7.361
 4427POPC   C1B56851  41.349  24.981   6.273
 4427POPC   C2B56852  41.264  24.800   6.666
 4427POPC   C3B56853  41.203  24.921   7.061
 4427POPC   C4B56854  41.390  24.907   7.441
 4428POPC   NC356855  40.995  23.992   5.468
 4428POPC   PO456856  40.552  23.582   5.367
 4428POPC   GL156857  40.587  23.789   5.750
 4428POPC   GL256858  40.498  23.470   5.864
 4428POPC   C1A56859  40.782  23.835   6.151
 4428POPC   D2A56860  40.829  23.678   6.552
 4428POPC   C3A56861  40.782  23.956   6.912
 4428POPC   C4A56862  40.862  23.761   7.276
 4428POPC   C1B56863  40.379  23.439   6.260
 4428POPC   C2B56864  40.192  23.287   6.626
 4428POPC   C3B56865  40.366  23.212   7.005
 4428POPC   C4B56866  40.507  23.407   7.398
 4429POPC   NC356867   3.082  38.978   5.543
 4429POPC   PO456868   2.752  39.576   5.466
 4429POPC   GL156869   2.747  39.330   5.824
 4429POPC   GL256870   2.484  39.539   5.953
 4429POPC   C1A56871   2.984  39.233   6.228
 4429POPC   D2A56872   3.132  39.369   6.647
 4429POPC   C3A56873   2.909  39.329   7.055
 4429POPC   C4A56874   3.029  39.015   7.369
 4429POPC   C1B56875   2.475  39.184   6.242
 4429POPC   C2B56876   2.687  39.068   6.634
 4429POPC   C3B56877   2.545  38.976   7.050
 4429POPC   C4B56878   2.382  39.275   7.358
 4430POPC   NC356879  28.847   6.924   5.348
 4430POPC   PO456880  28.485   6.257   5.394
 4430POPC   GL156881  28.327   6.446   5.767
 4430POPC   GL256882  28.501   6.784   5.729
 4430POPC   C1A56883  28.094   6.363   6.192
 4430POPC   D2A56884  28.174   6.188   6.634
 4430POPC   C3A56885  28.055   6.433   7.026
 4430POPC   C4A56886  28.242   6.792   7.235
 4430POPC   C1B56887  28.556   6.652   6.169
 4430POPC   C2B56888  28.602   6.770   6.605
 4430POPC   C3B56889  28.601   6.533   6.974
 4430POPC   C4B56890  28.464   6.189   7.202
 4431POPC   NC356891  23.340  26.988   5.506
 4431POPC   PO456892  22.819  26.504   5.629
 4431POPC   GL156893  23.057  26.723   5.834
 4431POPC   GL256894  22.989  27.042   5.857
 4431POPC   C1A56895  23.215  26.714   6.228
 4431POPC   D2A56896  23.030  26.474   6.525
 4431POPC   C3A56897  23.011  26.691   6.861
 4431POPC   C4A56898  22.837  26.707   7.233
 4431POPC   C1B56899  23.024  27.250   6.230
 4431POPC   C2B56900  23.123  27.189   6.657
 4431POPC   C3B56901  22.850  27.162   6.981
 4431POPC   C4B56902  22.718  27.295   7.320
 4432POPC   NC356903  24.981  12.353   5.424
 4432POPC   PO456904  25.571  11.951   5.550
 4432POPC   GL156905  25.245  12.095   5.844
 4432POPC   GL256906  25.350  12.403   5.847
 4432POPC   C1A56907  25.076  12.311   6.261
 4432POPC   D2A56908  24.889  12.392   6.698
 4432POPC   C3A56909  25.128  12.246   7.075
 4432POPC   C4A56910  25.158  12.033   7.500
 4432POPC   C1B56911  25.600  12.269   6.208
 4432POPC   C2B56912  25.460  12.230   6.638
 4432POPC   C3B56913  25.536  11.929   6.961
 4432POPC   C4B56914  25.644  11.990   7.378
 4433POPC   NC356915  23.531  29.601   5.068
 4433POPC   PO456916  23.872  30.124   5.465
 4433POPC   GL156917  23.730  30.173   5.882
 4433POPC   GL256918  23.408  29.999   5.852
 4433POPC   C1A56919  23.701  30.100   6.331
 4433POPC   D2A56920  23.922  29.940   6.696
 4433POPC   C3A56921  23.845  30.185   7.058
 4433POPC   C4A56922  23.478  30.059   7.160
 4433POPC   C1B56923  23.356  29.732   6.229
 4433POPC   C2B56924  23.403  29.810   6.672
 4433POPC   C3B56925  23.392  29.553   7.021
 4433POPC   C4B56926  23.455  29.561   7.450
 4434POPC   NC356927   0.290  14.679   5.376
 4434POPC   PO456928   0.562  14.140   5.549
 4434POPC   GL156929   0.522  14.288   5.962
 4434POPC   GL256930   0.307  14.562   5.877
 4434POPC   C1A56931   0.662  14.341   6.378
 4434POPC   D2A56932   0.388  14.369   6.726
 4434POPC   C3A56933   0.531  14.142   7.043
 4434POPC   C4A56934   0.848  14.089   7.365
 4434POPC   C1B56935   0.187  14.607   6.294
 4434POPC   C2B56936   0.120  14.881   6.640
 4434POPC   C3B56937   0.261  14.773   7.012
 4434POPC   C4B56938   0.141  14.439   7.239
 4435POPC   NC356939  21.103  44.157   5.420
 4435POPC   PO456940  20.472  43.800   5.404
 4435POPC   GL156941  20.662  43.722   5.804
 4435POPC   GL256942  20.774  44.039   5.811
 4435POPC   C1A56943  20.740  43.736   6.244
 4435POPC   D2A56944  20.533  43.854   6.565
 4435POPC   C3A56945  20.788  43.848   6.900
 4435POPC   C4A56946  20.769  43.669   7.307
 4435POPC   C1B56947  20.547  44.202   6.182
 4435POPC   C2B56948  20.678  44.331   6.576
 4435POPC   C3B56949  20.407  44.195   6.918
 4435POPC   C4B56950  20.616  44.157   7.265
 4436POPC   NC356951   1.968  12.669   5.390
 4436POPC   PO456952   1.854  13.358   5.451
 4436POPC   GL156953   2.066  13.094   5.824
 4436POPC   GL256954   2.076  12.709   5.888
 4436POPC   C1A56955   2.165  13.010   6.281
 4436POPC   D2A56956   1.921  12.911   6.687
 4436POPC   C3A56957   1.972  12.983   7.153
 4436POPC   C4A56958   1.810  13.180   7.542
 4436POPC   C1B56959   2.105  12.495   6.316
 4436POPC   C2B56960   1.749  12.422   6.620
 4436POPC   C3B56961   1.745  12.495   7.069
 4436POPC   C4B56962   2.125  12.520   7.327
 4437POPC   NC356963   3.533  33.909   5.489
 4437POPC   PO456964   3.960  33.434   5.189
 4437POPC   GL156965   3.721  33.411   5.716
 4437POPC   GL256966   3.381  33.524   5.772
 4437POPC   C1A56967   3.732  33.617   6.166
 4437POPC   D2A56968   3.804  33.499   6.619
 4437POPC   C3A56969   3.732  33.775   6.988
 4437POPC   C4A56970   3.843  34.005   7.379
 4437POPC   C1B56971   3.245  33.411   6.157
 4437POPC   C2B56972   3.297  33.331   6.587
 4437POPC   C3B56973   3.223  33.573   6.953
 4437POPC   C4B56974   3.382  33.642   7.347
 4438POPC   NC356975  41.767  21.922   5.487
 4438POPC   PO456976  42.414  22.182   5.249
 4438POPC   GL156977  42.481  22.304   5.682
 4438POPC   GL256978  42.576  21.984   5.812
 4438POPC   C1A56979  42.276  22.331   6.109
 4438POPC   D2A56980  42.118  22.139   6.500
 4438POPC   C3A56981  42.155  22.326   6.917
 4438POPC   C4A56982  42.269  22.167   7.384
 4438POPC   C1B56983  42.392  21.807   6.197
 4438POPC   C2B56984  42.513  21.826   6.636
 4438POPC   C3B56985  42.630  22.017   7.032
 4438POPC   C4B56986  42.657  21.861   7.468
 4439POPC   NC356987  11.324  10.011   5.442
 4439POPC   PO456988  11.573   9.404   5.228
 4439POPC   GL156989  11.337   9.549   5.659
 4439POPC   GL256990  11.567   9.764   5.822
 4439POPC   C1A56991  11.129   9.811   6.054
 4439POPC   D2A56992  11.156   9.974   6.484
 4439POPC   C3A56993  11.160   9.757   6.888
 4439POPC   C4A56994  11.151   9.848   7.312
 4439POPC   C1B56995  11.624   9.827   6.269
 4439POPC   C2B56996  11.636   9.904   6.729
 4439POPC   C3B56997  11.602   9.676   7.139
 4439POPC   C4B56998  11.533   9.659   7.622
 4440POPC   NC356999  21.819   5.556   5.550
 4440POPC   PO457000  22.389   5.047   5.510
 4440POPC   GL157001  22.091   5.227   5.842
 4440POPC   GL257002  21.914   5.006   6.027
 4440POPC   C1A57003  22.093   5.417   6.298
 4440POPC   D2A57004  22.355   5.308   6.655
 4440POPC   C3A57005  22.201   5.336   7.081
 4440POPC   C4A57006  22.445   5.242   7.457
 4440POPC   C1B57007  22.360   4.992   6.229
 4440POPC   C2B57008  22.504   4.783   6.626
 4440POPC   C3B57009  22.371   4.730   7.062
 4440POPC   C4B57010  22.073   4.916   7.356
 4441POPC   NC357011  39.681  34.891   5.575
 4441POPC   PO457012  40.357  34.711   5.373
 4441POPC   GL157013  40.076  34.552   5.717
 4441POPC   GL257014  40.019  34.201   5.783
 4441POPC   C1A57015  39.895  34.572   6.157
 4441POPC   D2A57016  40.106  34.763   6.530
 4441POPC   C3A57017  39.909  34.747   6.933
 4441POPC   C4A57018  39.665  34.409   7.064
 4441POPC   C1B57019  40.308  34.243   6.137
 4441POPC   C2B57020  40.517  34.421   6.515
 4441POPC   C3B57021  40.342  34.430   6.931
 4441POPC   C4B57022  40.128  34.438   7.327
 4442POPC   NC357023  30.336  22.838   5.497
 4442POPC   PO457024  30.969  23.120   5.441
 4442POPC   GL157025  30.767  22.859   5.792
 4442POPC   GL257026  31.069  22.918   5.929
 4442POPC   C1A57027  30.690  22.764   6.256
 4442POPC   D2A57028  30.989  22.770   6.637
 4442POPC   C3A57029  30.764  22.771   7.025
 4442POPC   C4A57030  30.361  22.926   7.100
 4442POPC   C1B57031  31.003  23.179   6.308
 4442POPC   C2B57032  31.103  23.300   6.738
 4442POPC   C3B57033  30.962  23.453   7.141
 4442POPC   C4B57034  30.863  23.221   7.528
 4443POPC   NC357035  22.273  23.256   5.278
 4443POPC   PO457036  21.693  22.899   5.268
 4443POPC   GL157037  21.961  22.991   5.650
 4443POPC   GL257038  22.291  23.073   5.741
 4443POPC   C1A57039  21.912  22.974   6.107
 4443POPC   D2A57040  22.011  22.667   6.447
 4443POPC   C3A57041  21.875  22.817   6.842
 4443POPC   C4A57042  22.029  22.753   7.240
 4443POPC   C1B57043  22.424  22.903   6.116
 4443POPC   C2B57044  22.386  23.032   6.527
 4443POPC   C3B57045  22.419  22.814   6.894
 4443POPC   C4B57046  22.549  22.854   7.303
 4444POPC   NC357047  38.612  40.078   5.257
 4444POPC   PO457048  38.114  40.458   5.277
 4444POPC   GL157049  38.341  40.289   5.701
 4444POPC   GL257050  38.285  39.920   5.833
 4444POPC   C1A57051  38.643  40.173   6.089
 4444POPC   D2A57052  38.730  39.904   6.494
 4444POPC   C3A57053  38.586  40.054   6.904
 4444POPC   C4A57054  38.749  40.011   7.329
 4444POPC   C1B57055  38.258  39.866   6.308
 4444POPC   C2B57056  38.159  39.787   6.755
 4444POPC   C3B57057  38.289  39.776   7.215
 4444POPC   C4B57058  38.104  39.839   7.633
 4445POPC   NC357059  17.618   3.252   5.396
 4445POPC   PO457060  17.083   3.692   5.498
 4445POPC   GL157061  17.262   3.410   5.744
 4445POPC   GL257062  17.608   3.573   5.791
 4445POPC   C1A57063  17.287   3.271   6.160
 4445POPC   D2A57064  17.520   3.293   6.550
 4445POPC   C3A57065  17.362   3.529   6.871
 4445POPC   C4A57066  17.253   3.618   7.265
 4445POPC   C1B57067  17.610   3.685   6.224
 4445POPC   C2B57068  17.717   3.789   6.657
 4445POPC   C3B57069  17.644   3.925   7.097
 4445POPC   C4B57070  17.481   4.034   7.525
 4446POPC   NC357071  16.282  25.405   5.054
 4446POPC   PO457072  16.848  25.324   5.463
 4446POPC   GL157073  16.668  25.092   5.797
 4446POPC   GL257074  16.611  25.378   6.012
 4446POPC   C1A57075  16.576  24.921   6.185
 4446POPC   D2A57076  16.778  25.144   6.485
 4446POPC   C3A57077  16.841  24.952   6.861
 4446POPC   C4A57078  16.694  25.261   7.160
 4446POPC   C1B57079  16.421  25.703   6.257
 4446POPC   C2B57080  16.451  25.539   6.679
 4446POPC   C3B57081  16.443  25.706   7.078
 4446POPC   C4B57082  16.560  25.644   7.523
 4447POPC   NC357083  36.350  36.603   5.471
 4447POPC   PO457084  35.941  37.106   5.322
 4447POPC   GL157085  36.146  37.018   5.767
 4447POPC   GL257086  36.464  36.821   5.902
 4447POPC   C1A57087  35.965  36.913   6.193
 4447POPC   D2A57088  36.198  36.778   6.568
 4447POPC   C3A57089  36.217  36.914   6.980
 4447POPC   C4A57090  36.383  36.765   7.373
 4447POPC   C1B57091  36.435  37.110   6.239
 4447POPC   C2B57092  36.602  37.161   6.662
 4447POPC   C3B57093  36.557  37.310   7.102
 4447POPC   C4B57094  36.201  37.247   7.368
 4448POPC   NC357095  41.780  34.882   5.487
 4448POPC   PO457096  41.313  34.419   5.362
 4448POPC   GL157097  41.328  34.560   5.787
 4448POPC   GL257098  41.674  34.592   5.894
 4448POPC   C1A57099  41.318  34.658   6.240
 4448POPC   D2A57100  41.456  34.808   6.653
 4448POPC   C3A57101  41.537  34.480   6.932
 4448POPC   C4A57102  41.236  34.373   7.280
 4448POPC   C1B57103  41.760  34.883   6.236
 4448POPC   C2B57104  41.857  35.129   6.626
 4448POPC   C3B57105  41.853  34.924   7.020
 4448POPC   C4B57106  41.495  34.855   7.246
 4449POPC   NC357107  37.178  20.939   5.509
 4449POPC   PO457108  36.709  20.395   5.360
 4449POPC   GL157109  36.834  20.624   5.725
 4449POPC   GL257110  36.496  20.716   5.828
 4449POPC   C1A57111  37.076  20.476   6.114
 4449POPC   D2A57112  36.944  20.347   6.554
 4449POPC   C3A57113  36.980  20.519   6.966
 4449POPC   C4A57114  37.214  20.920   7.017
 4449POPC   C1B57115  36.682  20.765   6.248
 4449POPC   C2B57116  36.801  20.915   6.667
 4449POPC   C3B57117  36.715  20.924   7.136
 4449POPC   C4B57118  36.545  20.688   7.505
 4450POPC   NC357119   4.250  19.506   5.505
 4450POPC   PO457120   4.690  19.923   5.293
 4450POPC   GL157121   4.428  19.969   5.714
 4450POPC   GL257122   4.069  19.782   5.870
 4450POPC   C1A57123   4.262  20.168   6.099
 4450POPC   D2A57124   4.120  19.894   6.436
 4450POPC   C3A57125   4.273  20.022   6.823
 4450POPC   C4A57126   4.352  20.027   7.239
 4450POPC   C1B57127   4.475  19.679   6.132
 4450POPC   C2B57128   4.668  19.554   6.539
 4450POPC   C3B57129   4.587  19.627   6.983
 4450POPC   C4B57130   4.606  19.548   7.443
 4451POPC   NC357131  22.436  30.586   5.543
 4451POPC   PO457132  21.982  30.385   5.169
 4451POPC   GL157133  21.995  30.435   5.724
 4451POPC   GL257134  22.122  30.737   5.924
 4451POPC   C1A57135  21.792  30.482   6.172
 4451POPC   D2A57136  21.959  30.488   6.587
 4451POPC   C3A57137  21.959  30.745   6.934
 4451POPC   C4A57138  21.762  30.616   7.254
 4451POPC   C1B57139  22.310  30.623   6.238
 4451POPC   C2B57140  22.383  30.761   6.614
 4451POPC   C3B57141  22.422  30.542   6.919
 4451POPC   C4B57142  22.313  30.664   7.325
 4452POPC   NC357143  12.950   9.709   5.061
 4452POPC   PO457144  13.560   9.543   5.432
 4452POPC   GL157145  13.744   9.606   5.823
 4452POPC   GL257146  13.996   9.358   5.825
 4452POPC   C1A57147  13.623   9.836   6.220
 4452POPC   D2A57148  13.645  10.113   6.590
 4452POPC   C3A57149  13.648   9.976   7.033
 4452POPC   C4A57150  13.450   9.629   7.208
 4452POPC   C1B57151  13.961   9.449   6.275
 4452POPC   C2B57152  13.767   9.544   6.657
 4452POPC   C3B57153  14.012   9.624   6.997
 4452POPC   C4B57154  13.933   9.644   7.410
 4453POPC   NC357155  44.385  29.450   5.431
 4453POPC   PO457156  44.992  29.095   5.499
 4453POPC   GL157157  44.585  29.064   5.705
 4453POPC   GL257158  44.684  29.370   5.836
 4453POPC   C1A57159  44.300  29.089   6.080
 4453POPC   D2A57160  44.433  28.819   6.435
 4453POPC   C3A57161  44.527  28.910   6.866
 4453POPC   C4A57162  44.481  29.311   7.060
 4453POPC   C1B57163  44.787  29.121   6.187
 4453POPC   C2B57164  44.760  29.269   6.589
 4453POPC   C3B57165  44.978  29.237   6.965
 4453POPC   C4B57166  44.914  29.367   7.376
 4454POPC   NC357167  22.653  19.336   5.447
 4454POPC   PO457168  23.304  19.393   5.689
 4454POPC   GL157169  23.001  19.158   5.877
 4454POPC   GL257170  22.834  18.902   5.665
 4454POPC   C1A57171  22.965  19.157   6.325
 4454POPC   D2A57172  23.127  18.914   6.673
 4454POPC   C3A57173  23.073  19.228   7.006
 4454POPC   C4A57174  22.684  19.309   7.246
 4454POPC   C1B57175  22.669  18.830   6.090
 4454POPC   C2B57176  22.569  18.838   6.532
 4454POPC   C3B57177  22.714  18.868   6.965
 4454POPC   C4B57178  22.912  18.830   7.357
 4455POPC   NC357179  29.258  28.772   5.279
 4455POPC   PO457180  29.211  29.269   5.624
 4455POPC   GL157181  29.195  28.931   5.874
 4455POPC   GL257182  28.826  28.964   5.870
 4455POPC   C1A57183  29.355  28.932   6.289
 4455POPC   D2A57184  29.297  29.224   6.621
 4455POPC   C3A57185  29.280  29.087   7.021
 4455POPC   C4A57186  29.271  29.290   7.403
 4455POPC   C1B57187  28.918  29.212   6.271
 4455POPC   C2B57188  28.768  29.211   6.716
 4455POPC   C3B57189  28.842  29.373   7.140
 4455POPC   C4B57190  28.677  29.686   7.449
 4456POPC   NC357191  14.074   3.051   5.373
 4456POPC   PO457192  14.750   2.721   5.433
 4456POPC   GL157193  14.540   2.801   5.865
 4456POPC   GL257194  14.174   2.729   5.837
 4456POPC   C1A57195  14.430   2.871   6.334
 4456POPC   D2A57196  14.610   2.717   6.731
 4456POPC   C3A57197  14.381   2.837   7.072
 4456POPC   C4A57198  13.923   2.934   7.073
 4456POPC   C1B57199  14.151   2.481   6.197
 4456POPC   C2B57200  14.251   2.278   6.553
 4456POPC   C3B57201  14.154   2.402   6.945
 4456POPC   C4B57202  14.235   2.231   7.321
 4457POPC   NC357203   3.244  44.975   5.435
 4457POPC   PO457204   3.513  44.395   5.556
 4457POPC   GL157205   3.449  44.729   5.863
 4457POPC   GL257206   3.759  44.922   5.811
 4457POPC   C1A57207   3.295  44.714   6.296
 4457POPC   D2A57208   3.230  44.558   6.722
 4457POPC   C3A57209   3.402  44.756   7.078
 4457POPC   C4A57210   3.654  44.955   7.389
 4457POPC   C1B57211   3.816  44.770   6.238
 4457POPC   C2B57212   3.690  44.402   6.486
 4457POPC   C3B57213   3.686  44.275   6.892
 4457POPC   C4B57214   3.864  44.545   7.184
 4458POPC   NC357215  41.592  27.331   5.447
 4458POPC   PO457216  41.877  27.938   5.293
 4458POPC   GL157217  41.771  27.910   5.784
 4458POPC   GL257218  41.471  27.689   5.816
 4458POPC   C1A57219  41.830  27.652   6.202
 4458POPC   D2A57220  41.616  27.663   6.582
 4458POPC   C3A57221  41.848  27.591   6.905
 4458POPC   C4A57222  41.781  27.596   7.310
 4458POPC   C1B57223  41.282  27.605   6.201
 4458POPC   C2B57224  41.099  27.591   6.606
 4458POPC   C3B57225  41.313  27.634   7.003
 4458POPC   C4B57226  41.220  27.393   7.318
 4459POPC   NC357227  26.817  36.369   5.553
 4459POPC   PO457228  26.438  35.808   5.549
 4459POPC   GL157229  26.539  36.002   5.930
 4459POPC   GL257230  26.483  36.362   5.914
 4459POPC   C1A57231  26.928  36.032   6.179
 4459POPC   D2A57232  27.107  35.837   6.590
 4459POPC   C3A57233  26.960  36.028   6.992
 4459POPC   C4A57234  26.687  36.057   7.361
 4459POPC   C1B57235  26.760  36.509   6.208
 4459POPC   C2B57236  26.791  36.305   6.577
 4459POPC   C3B57237  26.772  36.517   6.892
 4459POPC   C4B57238  27.031  36.538   7.198
 4460POPC   NC357239  27.702  41.279   5.601
 4460POPC   PO457240  27.448  41.835   5.502
 4460POPC   GL157241  27.790  41.729   5.822
 4460POPC   GL257242  27.519  41.785   6.014
 4460POPC   C1A57243  27.880  41.474   6.205
 4460POPC   D2A57244  27.642  41.720   6.502
 4460POPC   C3A57245  27.546  41.549   6.878
 4460POPC   C4A57246  27.668  41.702   7.255
 4460POPC   C1B57247  27.373  41.393   6.195
 4460POPC   C2B57248  27.191  41.323   6.558
 4460POPC   C3B57249  27.150  41.195   6.968
 4460POPC   C4B57250  27.246  41.418   7.324
 4461POPC   NC357251  22.582  12.290   5.168
 4461POPC   PO457252  22.218  11.973   5.719
 4461POPC   GL157253  21.932  12.008   6.051
 4461POPC   GL257254  21.968  12.364   6.103
 4461POPC   C1A57255  22.006  11.805   6.452
 4461POPC   D2A57256  22.274  12.001   6.749
 4461POPC   C3A57257  22.074  12.354   6.859
 4461POPC   C4A57258  22.037  12.091   7.245
 4461POPC   C1B57259  22.374  12.242   6.315
 4461POPC   C2B57260  22.570  12.427   6.685
 4461POPC   C3B57261  22.520  12.285   7.119
 4461POPC   C4B57262  22.385  12.287   7.579
 4462POPC   NC357263  15.219  13.889   5.384
 4462POPC   PO457264  14.618  13.640   5.447
 4462POPC   GL157265  14.867  13.448   5.749
 4462POPC   GL257266  15.030  13.752   5.821
 4462POPC   C1A57267  15.117  13.341   6.118
 4462POPC   D2A57268  15.209  13.616   6.465
 4462POPC   C3A57269  15.312  13.464   6.878
 4462POPC   C4A57270  15.150  13.356   7.262
 4462POPC   C1B57271  15.248  14.026   6.087
 4462POPC   C2B57272  15.131  14.144   6.481
 4462POPC   C3B57273  15.123  13.955   6.864
 4462POPC   C4B57274  14.985  14.001   7.249
 4463POPC   NC357275  26.399   1.228   5.394
 4463POPC   PO457276  25.909   1.535   5.143
 4463POPC   GL157277  25.924   1.278   5.546
 4463POPC   GL257278  26.052   1.557   5.731
 4463POPC   C1A57279  25.925   1.060   6.004
 4463POPC   D2A57280  26.131   1.171   6.414
 4463POPC   C3A57281  26.055   1.128   6.871
 4463POPC   C4A57282  26.383   1.164   7.187
 4463POPC   C1B57283  26.213   1.612   6.136
 4463POPC   C2B57284  26.101   1.696   6.553
 4463POPC   C3B57285  26.174   1.602   6.996
 4463POPC   C4B57286  25.941   1.338   7.353
 4464POPC   NC357287  32.489  43.158   5.374
 4464POPC   PO457288  31.804  43.103   5.465
 4464POPC   GL157289  32.183  43.048   5.760
 4464POPC   GL257290  32.377  43.363   5.850
 4464POPC   C1A57291  32.342  42.911   6.151
 4464POPC   D2A57292  32.105  42.941   6.505
 4464POPC   C3A57293  32.263  43.195   6.793
 4464POPC   C4A57294  32.271  43.158   7.233
 4464POPC   C1B57295  32.391  43.482   6.331
 4464POPC   C2B57296  32.536  43.621   6.782
 4464POPC   C3B57297  32.300  43.650   7.178
 4464POPC   C4B57298  32.327  43.604   7.658
 4465POPC   NC357299  31.892  10.663   5.331
 4465POPC   PO457300  32.420  10.304   5.188
 4465POPC   GL157301  32.337  10.682   5.607
 4465POPC   GL257302  31.994  10.686   5.819
 4465POPC   C1A57303  32.398  10.773   6.131
 4465POPC   D2A57304  32.308  10.543   6.594
 4465POPC   C3A57305  32.479  10.737   6.998
 4465POPC   C4A57306  32.377  10.793   7.441
 4465POPC   C1B57307  31.935  10.576   6.254
 4465POPC   C2B57308  31.796  10.645   6.694
 4465POPC   C3B57309  31.998  10.553   7.065
 4465POPC   C4B57310  32.295  10.304   7.259
 4466POPC   NC357311  23.383  24.383   5.388
 4466POPC   PO457312  22.853  24.136   5.256
 4466POPC   GL157313  22.930  24.360   5.702
 4466POPC   GL257314  23.227  24.557   5.839
 4466POPC   C1A57315  22.865  24.242   6.151
 4466POPC   D2A57316  22.648  24.129   6.555
 4466POPC   C3A57317  22.926  24.155   6.913
 4466POPC   C4A57318  22.858  24.384   7.290
 4466POPC   C1B57319  23.014  24.745   6.179
 4466POPC   C2B57320  22.896  24.605   6.593
 4466POPC   C3B57321  22.867  24.818   6.977
 4466POPC   C4B57322  23.137  24.904   7.345
 4467POPC   NC357323  37.387  28.209   5.381
 4467POPC   PO457324  37.906  28.033   5.784
 4467POPC   GL157325  37.729  28.420   5.979
 4467POPC   GL257326  37.380  28.337   5.893
 4467POPC   C1A57327  37.979  28.795   6.177
 4467POPC   D2A57328  38.009  28.929   6.617
 4467POPC   C3A57329  37.622  28.716   6.822
 4467POPC   C4A57330  37.348  28.525   7.178
 4467POPC   C1B57331  37.384  28.135   6.315
 4467POPC   C2B57332  37.620  28.156   6.721
 4467POPC   C3B57333  37.804  28.295   7.129
 4467POPC   C4B57334  37.574  28.180   7.500
 4468POPC   NC357335   8.987  42.610   5.506
 4468POPC   PO457336   9.019  43.312   5.475
 4468POPC   GL157337   8.870  43.047   5.803
 4468POPC   GL257338   8.715  43.284   5.994
 4468POPC   C1A57339   8.928  42.872   6.228
 4468POPC   D2A57340   9.161  42.980   6.613
 4468POPC   C3A57341   8.980  42.943   7.035
 4468POPC   C4A57342   8.779  43.004   7.463
 4468POPC   C1B57343   9.051  43.380   6.298
 4468POPC   C2B57344   9.047  43.461   6.742
 4468POPC   C3B57345   8.832  43.428   7.141
 4468POPC   C4B57346   8.851  43.555   7.584
 4469POPC   NC357347  20.879  27.973   5.485
 4469POPC   PO457348  20.595  27.321   5.415
 4469POPC   GL157349  20.594  27.533   5.795
 4469POPC   GL257350  20.953  27.543   5.795
 4469POPC   C1A57351  20.414  27.406   6.207
 4469POPC   D2A57352  20.138  27.527   6.554
 4469POPC   C3A57353  20.307  27.414   6.939
 4469POPC   C4A57354  20.457  27.644   7.284
 4469POPC   C1B57355  20.843  27.705   6.195
 4469POPC   C2B57356  20.550  27.842   6.503
 4469POPC   C3B57357  20.708  27.865   6.897
 4469POPC   C4B57358  20.850  27.967   7.284
 4470POPC   NC357359  20.391  38.196   5.115
 4470POPC   PO457360  20.953  38.499   5.482
 4470POPC   GL157361  20.809  38.602   5.875
 4470POPC   GL257362  20.461  38.628   5.874
 4470POPC   C1A57363  20.683  38.698   6.310
 4470POPC   D2A57364  20.698  38.500   6.686
 4470POPC   C3A57365  20.490  38.497   7.059
 4470POPC   C4A57366  20.824  38.455   7.313
 4470POPC   C1B57367  20.274  38.396   6.251
 4470POPC   C2B57368  20.128  38.291   6.659
 4470POPC   C3B57369  20.158  37.992   6.955
 4470POPC   C4B57370  20.345  38.010   7.349
 4471POPC   NC357371   6.274  11.072   5.444
 4471POPC   PO457372   6.884  11.092   5.158
 4471POPC   GL157373   6.900  11.167   5.666
 4471POPC   GL257374   6.595  11.293   5.799
 4471POPC   C1A57375   6.922  11.159   6.185
 4471POPC   D2A57376   6.732  11.051   6.642
 4471POPC   C3A57377   6.895  11.048   7.093
 4471POPC   C4A57378   6.980  11.406   7.341
 4471POPC   C1B57379   6.425  11.293   6.221
 4471POPC   C2B57380   6.422  11.459   6.631
 4471POPC   C3B57381   6.540  11.430   7.062
 4471POPC   C4B57382   6.562  11.644   7.468
 4472POPC   NC357383  44.081   3.651   5.665
 4472POPC   PO457384  43.513   3.326   5.524
 4472POPC   GL157385  43.687   3.420   5.920
 4472POPC   GL257386  43.972   3.178   5.883
 4472POPC   C1A57387  43.842   3.724   6.252
 4472POPC   D2A57388  44.129   3.742   6.546
 4472POPC   C3A57389  43.993   3.544   6.878
 4472POPC   C4A57390  44.021   3.626   7.285
 4472POPC   C1B57391  43.889   3.195   6.335
 4472POPC   C2B57392  43.586   3.431   6.568
 4472POPC   C3B57393  43.524   3.368   6.978
 4472POPC   C4B57394  43.577   3.372   7.386
 4473POPC   NC357395  15.616  31.835   5.444
 4473POPC   PO457396  14.934  31.521   5.406
 4473POPC   GL157397  15.091  31.519   5.838
 4473POPC   GL257398  15.451  31.593   5.878
 4473POPC   C1A57399  15.086  31.705   6.250
 4473POPC   D2A57400  15.269  31.785   6.650
 4473POPC   C3A57401  15.189  31.651   7.063
 4473POPC   C4A57402  14.910  31.503   7.428
 4473POPC   C1B57403  15.530  31.478   6.329
 4473POPC   C2B57404  15.346  31.283   6.713
 4473POPC   C3B57405  15.302  31.178   7.173
 4473POPC   C4B57406  15.454  31.278   7.555
 4474POPC   NC357407   1.840   6.260   5.433
 4474POPC   PO457408   2.005   5.593   5.438
 4474POPC   GL157409   2.016   5.911   5.785
 4474POPC   GL257410   1.702   6.048   5.933
 4474POPC   C1A57411   2.204   6.032   6.178
 4474POPC   D2A57412   2.075   6.099   6.592
 4474POPC   C3A57413   2.262   6.012   6.995
 4474POPC   C4A57414   2.088   6.037   7.412
 4474POPC   C1B57415   1.787   5.672   6.218
 4474POPC   C2B57416   1.852   5.405   6.598
 4474POPC   C3B57417   1.952   5.578   7.019
 4474POPC   C4B57418   1.731   5.650   7.396
 4475POPC   NC357419  30.538  44.926   5.553
 4475POPC   PO457420  30.953  44.423   5.380
 4475POPC   GL157421  30.862  44.576   5.785
 4475POPC   GL257422  31.053  44.854   5.692
 4475POPC   C1A57423  30.587  44.466   6.154
 4475POPC   D2A57424  30.609  44.271   6.571
 4475POPC   C3A57425  30.360  44.514   6.877
 4475POPC   C4A57426  30.456  44.787   7.247
 4475POPC   C1B57427  31.110  44.906   6.149
 4475POPC   C2B57428  30.939  44.644   6.502
 4475POPC   C3B57429  30.900  44.553   6.962
 4475POPC   C4B57430  31.041  44.881   7.243
 4476POPC   NC357431  37.803   0.802   5.469
 4476POPC   PO457432  37.459   0.228   5.432
 4476POPC   GL157433  37.572   0.426   5.815
 4476POPC   GL257434  37.923   0.517   5.864
 4476POPC   C1A57435  37.706   0.238   6.218
 4476POPC   D2A57436  37.856   0.083   6.622
 4476POPC   C3A57437  37.771   0.366   6.984
 4476POPC   C4A57438  37.922   0.396   7.401
 4476POPC   C1B57439  37.954   0.748   6.260
 4476POPC   C2B57440  37.784   0.756   6.684
 4476POPC   C3B57441  38.081   0.823   7.056
 4476POPC   C4B57442  38.059   0.863   7.522
 4477POPC   NC357443  20.321  41.198   5.351
 4477POPC   PO457444  20.533  41.787   5.547
 4477POPC   GL157445  20.607  41.424   5.798
 4477POPC   GL257446  20.324  41.323   5.854
 4477POPC   C1A57447  20.719  41.311   6.225
 4477POPC   D2A57448  20.879  41.610   6.535
 4477POPC   C3A57449  20.988  41.408   6.893
 4477POPC   C4A57450  20.757  41.377   7.242
 4477POPC   C1B57451  20.333  41.677   6.167
 4477POPC   C2B57452  20.371  41.531   6.571
 4477POPC   C3B57453  20.386  41.654   6.988
 4477POPC   C4B57454  20.274  41.491   7.403
 4478POPC   NC357455  32.821  35.684   5.728
 4478POPC   PO457456  32.968  36.220   5.285
 4478POPC   GL157457  33.168  36.295   5.704
 4478POPC   GL257458  33.200  35.993   5.925
 4478POPC   C1A57459  33.078  36.426   6.154
 4478POPC   D2A57460  32.969  36.090   6.468
 4478POPC   C3A57461  32.913  36.145   6.917
 4478POPC   C4A57462  32.994  36.498   7.190
 4478POPC   C1B57463  33.273  35.710   6.318
 4478POPC   C2B57464  33.279  35.806   6.774
 4478POPC   C3B57465  33.385  36.127   7.096
 4478POPC   C4B57466  33.510  35.971   7.520
 4479POPC   NC357467  36.098  13.356   5.270
 4479POPC   PO457468  36.191  12.756   5.247
 4479POPC   GL157469  36.190  12.791   5.676
 4479POPC   GL257470  36.168  13.151   5.751
 4479POPC   C1A57471  36.133  12.642   6.092
 4479POPC   D2A57472  36.313  12.816   6.474
 4479POPC   C3A57473  36.201  12.635   6.859
 4479POPC   C4A57474  36.478  12.492   7.160
 4479POPC   C1B57475  35.987  13.115   6.161
 4479POPC   C2B57476  35.832  12.984   6.567
 4479POPC   C3B57477  36.018  13.102   6.960
 4479POPC   C4B57478  36.200  12.923   7.320
 4480POPC   NC357479  31.697   0.443   5.442
 4480POPC   PO457480  30.991   0.218   5.339
 4480POPC   GL157481  31.297   0.299   5.770
 4480POPC   GL257482  31.385   0.637   5.857
 4480POPC   C1A57483  31.486   0.321   6.241
 4480POPC   D2A57484  31.718   0.238   6.654
 4480POPC   C3A57485  31.485   0.329   6.979
 4480POPC   C4A57486  31.704   0.204   7.285
 4480POPC   C1B57487  31.353   0.831   6.302
 4480POPC   C2B57488  31.378   0.838   6.791
 4480POPC   C3B57489  31.292   0.974   7.274
 4480POPC   C4B57490  31.209   0.822   7.733
 4481POPC   NC357491  16.306  43.420   5.411
 4481POPC   PO457492  15.764  42.974   5.300
 4481POPC   GL157493  15.888  43.067   5.746
 4481POPC   GL257494  16.174  42.866   5.694
 4481POPC   C1A57495  15.795  43.266   6.197
 4481POPC   D2A57496  15.536  43.326   6.625
 4481POPC   C3A57497  15.791  43.218   6.999
 4481POPC   C4A57498  16.242  43.259   6.968
 4481POPC   C1B57499  16.189  42.765   6.149
 4481POPC   C2B57500  16.060  42.985   6.548
 4481POPC   C3B57501  16.098  42.786   6.929
 4481POPC   C4B57502  15.689  42.693   6.952
 4482POPC   NC357503  41.409  28.713   5.521
 4482POPC   PO457504  41.869  29.188   5.370
 4482POPC   GL157505  41.726  29.040   5.761
 4482POPC   GL257506  41.633  29.384   5.839
 4482POPC   C1A57507  41.478  28.991   6.157
 4482POPC   D2A57508  41.675  28.983   6.578
 4482POPC   C3A57509  41.414  29.051   6.911
 4482POPC   C4A57510  41.430  28.978   7.325
 4482POPC   C1B57511  41.899  29.279   6.192
 4482POPC   C2B57512  41.934  29.443   6.609
 4482POPC   C3B57513  41.849  29.288   7.004
 4482POPC   C4B57514  41.923  29.421   7.405
 4483POPC   NC357515  35.523  19.609   5.433
 4483POPC   PO457516  34.921  19.912   5.514
 4483POPC   GL157517  35.208  19.951   5.862
 4483POPC   GL257518  35.563  19.989   5.869
 4483POPC   C1A57519  35.233  19.823   6.275
 4483POPC   D2A57520  35.150  19.521   6.592
 4483POPC   C3A57521  35.115  19.645   7.037
 4483POPC   C4A57522  35.056  19.912   7.406
 4483POPC   C1B57523  35.738  19.789   6.268
 4483POPC   C2B57524  35.600  19.968   6.646
 4483POPC   C3B57525  35.432  20.069   7.032
 4483POPC   C4B57526  35.589  19.747   7.260
 4484POPC   NC357527  17.801  19.868   5.629
 4484POPC   PO457528  17.237  19.778   5.231
 4484POPC   GL157529  17.247  19.520   5.685
 4484POPC   GL257530  17.581  19.477   5.875
 4484POPC   C1A57531  17.186  19.528   6.193
 4484POPC   D2A57532  17.401  19.549   6.646
 4484POPC   C3A57533  17.145  19.719   7.000
 4484POPC   C4A57534  17.022  20.084   7.275
 4484POPC   C1B57535  17.721  19.725   6.270
 4484POPC   C2B57536  17.841  19.893   6.679
 4484POPC   C3B57537  17.655  19.804   7.088
 4484POPC   C4B57538  17.609  20.071   7.463
 4485POPC   NC357539   2.407   9.668   5.017
 4485POPC   PO457540   1.982   9.738   5.670
 4485POPC   GL157541   2.048   9.587   5.987
 4485POPC   GL257542   1.682   9.457   5.945
 4485POPC   C1A57543   2.231   9.829   6.281
 4485POPC   D2A57544   2.183  10.116   6.569
 4485POPC   C3A57545   2.265   9.808   6.847
 4485POPC   C4A57546   2.289   9.679   7.247
 4485POPC   C1B57547   1.691   9.756   6.293
 4485POPC   C2B57548   1.785   9.833   6.687
 4485POPC   C3B57549   1.815   9.612   7.034
 4485POPC   C4B57550   1.715   9.367   7.337
 4486POPC   NC357551  19.883  36.594   5.605
 4486POPC   PO457552  19.759  37.214   5.412
 4486POPC   GL157553  19.751  37.056   5.804
 4486POPC   GL257554  20.126  37.019   5.813
 4486POPC   C1A57555  19.822  36.977   6.231
 4486POPC   D2A57556  19.915  37.243   6.563
 4486POPC   C3A57557  19.709  37.051   6.874
 4486POPC   C4A57558  19.784  37.114   7.286
 4486POPC   C1B57559  20.280  36.725   6.137
 4486POPC   C2B57560  20.176  36.754   6.569
 4486POPC   C3B57561  20.206  36.990   6.952
 4486POPC   C4B57562  20.067  36.689   7.235
 4487POPC   NC357563  33.696  20.730   5.380
 4487POPC   PO457564  33.357  20.256   5.595
 4487POPC   GL157565  33.667  20.460   5.830
 4487POPC   GL257566  33.849  20.791   5.859
 4487POPC   C1A57567  33.857  20.448   6.224
 4487POPC   D2A57568  34.063  20.622   6.568
 4487POPC   C3A57569  33.846  20.579   6.923
 4487POPC   C4A57570  33.901  20.478   7.319
 4487POPC   C1B57571  33.548  20.863   6.138
 4487POPC   C2B57572  33.489  20.687   6.550
 4487POPC   C3B57573  33.512  20.956   6.910
 4487POPC   C4B57574  33.660  20.909   7.287
 4488POPC   NC357575  12.525  41.690   5.306
 4488POPC   PO457576  13.138  41.423   5.360
 4488POPC   GL157577  12.850  41.605   5.682
 4488POPC   GL257578  12.553  41.872   5.772
 4488POPC   C1A57579  12.900  41.640   6.110
 4488POPC   D2A57580  12.965  41.407   6.504
 4488POPC   C3A57581  13.014  41.688   6.857
 4488POPC   C4A57582  12.909  41.722   7.277
 4488POPC   C1B57583  12.454  41.965   6.170
 4488POPC   C2B57584  12.511  41.661   6.489
 4488POPC   C3B57585  12.491  41.754   6.916
 4488POPC   C4B57586  12.397  41.925   7.317
 4489POPC   NC357587  10.125  28.909   5.709
 4489POPC   PO457588  10.480  29.222   5.229
 4489POPC   GL157589  10.712  29.289   5.704
 4489POPC   GL257590  10.629  29.020   5.902
 4489POPC   C1A57591  10.705  29.445   6.219
 4489POPC   D2A57592  10.427  29.405   6.646
 4489POPC   C3A57593  10.493  29.276   7.120
 4489POPC   C4A57594  10.701  29.340   7.543
 4489POPC   C1B57595  10.675  28.938   6.332
 4489POPC   C2B57596  10.686  28.943   6.764
 4489POPC   C3B57597  10.621  28.703   7.105
 4489POPC   C4B57598  10.599  28.848   7.496
 4490POPC   NC357599  35.924  42.677   5.320
 4490POPC   PO457600  35.906  42.145   5.634
 4490POPC   GL157601  36.274  42.362   5.776
 4490POPC   GL257602  36.556  42.156   5.810
 4490POPC   C1A57603  36.245  42.478   6.219
 4490POPC   D2A57604  35.941  42.363   6.581
 4490POPC   C3A57605  35.964  42.590   6.984
 4490POPC   C4A57606  36.171  42.474   7.373
 4490POPC   C1B57607  36.376  41.976   6.160
 4490POPC   C2B57608  36.394  42.105   6.572
 4490POPC   C3B57609  36.195  42.116   6.979
 4490POPC   C4B57610  36.418  42.026   7.361
 4491POPC   NC357611  15.284  11.613   5.323
 4491POPC   PO457612  14.935  10.979   5.353
 4491POPC   GL157613  15.045  11.250   5.733
 4491POPC   GL257614  15.212  10.960   5.815
 4491POPC   C1A57615  15.246  11.270   6.209
 4491POPC   D2A57616  15.442  11.483   6.579
 4491POPC   C3A57617  15.295  11.351   6.982
 4491POPC   C4A57618  15.149  11.610   7.310
 4491POPC   C1B57619  14.867  10.929   6.139
 4491POPC   C2B57620  14.851  11.122   6.544
 4491POPC   C3B57621  14.931  10.963   6.952
 4491POPC   C4B57622  14.902  11.175   7.329
 4492POPC   NC357623   0.197  32.785   5.613
 4492POPC   PO457624   0.061  33.531   5.532
 4492POPC   GL157625  44.795  33.281   5.848
 4492POPC   GL257626  44.700  32.919   5.782
 4492POPC   C1A57627  44.736  33.133   6.281
 4492POPC   D2A57628  44.898  32.819   6.624
 4492POPC   C3A57629  44.871  33.058   7.019
 4492POPC   C4A57630  44.519  33.266   7.224
 4492POPC   C1B57631  44.549  32.683   6.155
 4492POPC   C2B57632  44.401  32.837   6.560
 4492POPC   C3B57633  44.451  32.727   6.993
 4492POPC   C4B57634  44.266  32.825   7.392
 4493POPC   NC357635   1.596   2.807   5.420
 4493POPC   PO457636   1.087   3.202   5.354
 4493POPC   GL157637   1.120   2.884   5.708
 4493POPC   GL257638   1.138   2.494   5.648
 4493POPC   C1A57639   1.335   2.811   6.115
 4493POPC   D2A57640   1.438   2.971   6.542
 4493POPC   C3A57641   1.322   2.734   6.918
 4493POPC   C4A57642   1.497   2.663   7.355
 4493POPC   C1B57643   0.908   2.504   6.053
 4493POPC   C2B57644   1.004   2.630   6.469
 4493POPC   C3B57645   0.838   2.547   6.850
 4493POPC   C4B57646   0.819   2.718   7.268
 4494POPC   NC357647  12.912  37.832   5.350
 4494POPC   PO457648  12.454  37.450   5.738
 4494POPC   GL157649  12.847  37.615   5.834
 4494POPC   GL257650  13.191  37.480   5.825
 4494POPC   C1A57651  12.841  37.603   6.261
 4494POPC   D2A57652  12.902  37.859   6.588
 4494POPC   C3A57653  12.903  37.642   6.952
 4494POPC   C4A57654  12.728  37.687   7.345
 4494POPC   C1B57655  13.322  37.699   6.235
 4494POPC   C2B57656  13.411  37.858   6.663
 4494POPC   C3B57657  13.191  38.102   6.996
 4494POPC   C4B57658  13.069  38.074   7.470
 4495POPC   NC357659   3.026  34.574   5.297
 4495POPC   PO457660   2.374  34.743   5.260
 4495POPC   GL157661   2.642  34.719   5.690
 4495POPC   GL257662   2.921  34.520   5.787
 4495POPC   C1A57663   2.828  34.881   6.155
 4495POPC   D2A57664   2.905  35.089   6.599
 4495POPC   C3A57665   2.939  34.856   6.986
 4495POPC   C4A57666   2.761  34.731   7.357
 4495POPC   C1B57667   3.113  34.330   6.137
 4495POPC   C2B57668   3.073  34.178   6.582
 4495POPC   C3B57669   2.977  34.336   6.993
 4495POPC   C4B57670   2.580  34.293   7.183
 4496POPC   NC357671  26.547   6.073   5.328
 4496POPC   PO457672  26.986   5.588   5.556
 4496POPC   GL157673  26.769   5.736   5.850
 4496POPC   GL257674  26.861   6.066   5.742
 4496POPC   C1A57675  26.817   5.743   6.277
 4496POPC   D2A57676  27.111   5.934   6.551
 4496POPC   C3A57677  27.017   5.790   6.949
 4496POPC   C4A57678  27.184   5.939   7.300
 4496POPC   C1B57679  26.893   6.234   6.144
 4496POPC   C2B57680  26.846   6.418   6.534
 4496POPC   C3B57681  26.971   6.318   6.918
 4496POPC   C4B57682  26.720   6.142   7.188
 4497POPC   NC357683   3.886  32.344   5.661
 4497POPC   PO457684   3.277  32.014   5.487
 4497POPC   GL157685   3.450  32.148   5.882
 4497POPC   GL257686   3.387  32.496   5.902
 4497POPC   C1A57687   3.429  32.191   6.347
 4497POPC   D2A57688   3.238  32.312   6.737
 4497POPC   C3A57689   3.517  32.159   7.054
 4497POPC   C4A57690   3.846  31.823   7.144
 4497POPC   C1B57691   3.664  32.622   6.256
 4497POPC   C2B57692   3.717  32.501   6.679
 4497POPC   C3B57693   3.794  32.567   7.106
 4497POPC   C4B57694   3.683  32.693   7.512
 4498POPC   NC357695  14.600  13.157   5.427
 4498POPC   PO457696  14.475  12.407   5.460
 4498POPC   GL157697  14.589  12.560   5.860
 4498POPC   GL257698  14.374  12.860   5.861
 4498POPC   C1A57699  14.467  12.538   6.309
 4498POPC   D2A57700  14.340  12.756   6.697
 4498POPC   C3A57701  14.393  12.508   7.087
 4498POPC   C4A57702  14.124  12.517   7.459
 4498POPC   C1B57703  14.659  13.110   6.102
 4498POPC   C2B57704  14.730  13.225   6.514
 4498POPC   C3B57705  14.399  13.247   6.836
 4498POPC   C4B57706  14.453  13.171   7.292
 4499POPC   NC357707  42.345  27.911   5.135
 4499POPC   PO457708  42.010  27.501   5.595
 4499POPC   GL157709  42.240  27.691   5.912
 4499POPC   GL257710  42.529  27.842   5.871
 4499POPC   C1A57711  42.350  27.556   6.314
 4499POPC   D2A57712  42.244  27.340   6.667
 4499POPC   C3A57713  42.328  27.483   7.048
 4499POPC   C4A57714  42.557  27.370   7.358
 4499POPC   C1B57715  42.584  28.003   6.291
 4499POPC   C2B57716  42.655  27.757   6.694
 4499POPC   C3B57717  42.641  27.894   7.108
 4499POPC   C4B57718  42.615  27.808   7.562
 4500POPC   NC357719  43.453  41.134   5.099
 4500POPC   PO457720  42.975  40.796   5.436
 4500POPC   GL157721  42.842  40.763   5.859
 4500POPC   GL257722  42.890  41.100   5.866
 4500POPC   C1A57723  42.972  40.624   6.270
 4500POPC   D2A57724  43.283  40.688   6.607
 4500POPC   C3A57725  43.039  40.762   6.970
 4500POPC   C4A57726  43.037  40.427   7.222
 4500POPC   C1B57727  43.207  41.082   6.172
 4500POPC   C2B57728  43.047  41.139   6.559
 4500POPC   C3B57729  43.094  41.272   6.945
 4500POPC   C4B57730  43.299  41.110   7.287
 4501POPC   NC357731  44.477  19.742   5.205
 4501POPC   PO457732   0.192  19.576   5.336
 4501POPC   GL157733  44.932  19.916   5.587
 4501POPC   GL257734   0.143  20.025   5.854
 4501POPC   C1A57735  44.634  19.891   5.983
 4501POPC   D2A57736  44.397  19.771   6.408
 4501POPC   C3A57737  44.397  19.901   6.874
 4501POPC   C4A57738  44.535  19.564   7.128
 4501POPC   C1B57739   0.052  19.844   6.288
 4501POPC   C2B57740  44.849  19.813   6.690
 4501POPC   C3B57741  44.934  19.877   7.136
 4501POPC   C4B57742   0.035  19.865   7.554
 4502POPC   NC357743  19.234  37.134   5.400
 4502POPC   PO457744  19.412  36.517   5.627
 4502POPC   GL157745  19.262  36.874   5.858
 4502POPC   GL257746  18.930  36.804   5.989
 4502POPC   C1A57747  19.300  36.994   6.299
 4502POPC   D2A57748  19.079  36.906   6.689
 4502POPC   C3A57749  19.235  36.967   7.077
 4502POPC   C4A57750  19.552  36.672   7.188
 4502POPC   C1B57751  18.680  36.904   6.362
 4502POPC   C2B57752  18.583  36.909   6.821
 4502POPC   C3B57753  18.719  37.029   7.223
 4502POPC   C4B57754  18.884  36.996   7.643
 4503POPC   NC357755  26.719  37.242   5.447
 4503POPC   PO457756  27.315  37.481   5.381
 4503POPC   GL157757  26.961  37.734   5.651
 4503POPC   GL257758  26.560  37.702   5.726
 4503POPC   C1A57759  27.001  37.761   6.127
 4503POPC   D2A57760  27.004  37.379   6.428
 4503POPC   C3A57761  26.921  37.408   6.877
 4503POPC   C4A57762  26.850  37.755   7.108
 4503POPC   C1B57763  26.565  37.518   6.145
 4503POPC   C2B57764  26.566  37.624   6.593
 4503POPC   C3B57765  26.366  37.603   7.028
 4503POPC   C4B57766  26.399  37.896   7.426
 4504POPC   NC357767   9.950  17.579   5.393
 4504POPC   PO457768   9.841  16.943   5.369
 4504POPC   GL157769   9.897  17.229   5.784
 4504POPC   GL257770   9.816  17.630   5.885
 4504POPC   C1A57771   9.678  17.301   6.222
 4504POPC   D2A57772   9.841  17.554   6.560
 4504POPC   C3A57773   9.725  17.368   6.967
 4504POPC   C4A57774   9.959  17.210   7.278
 4504POPC   C1B57775   9.566  17.841   6.231
 4504POPC   C2B57776   9.533  17.990   6.684
 4504POPC   C3B57777   9.454  17.769   7.092
 4504POPC   C4B57778   9.411  17.858   7.565
 4505POPC   NC357779  36.308  32.793   5.654
 4505POPC   PO457780  35.938  33.181   5.254
 4505POPC   GL157781  35.898  33.089   5.718
 4505POPC   GL257782  36.217  33.283   5.784
 4505POPC   C1A57783  35.887  32.920   6.177
 4505POPC   D2A57784  35.745  32.724   6.583
 4505POPC   C3A57785  35.946  32.908   6.943
 4505POPC   C4A57786  35.840  32.997   7.359
 4505POPC   C1B57787  36.329  33.244   6.202
 4505POPC   C2B57788  36.312  33.139   6.622
 4505POPC   C3B57789  36.369  33.241   7.056
 4505POPC   C4B57790  36.338  32.962   7.301
 4506POPC   NC357791  37.650  18.795   5.506
 4506POPC   PO457792  37.465  19.508   5.544
 4506POPC   GL157793  37.673  19.215   5.848
 4506POPC   GL257794  38.050  19.214   5.830
 4506POPC   C1A57795  37.662  18.964   6.251
 4506POPC   D2A57796  37.590  18.793   6.688
 4506POPC   C3A57797  37.555  18.952   7.108
 4506POPC   C4A57798  37.211  19.188   7.295
 4506POPC   C1B57799  38.175  19.137   6.257
 4506POPC   C2B57800  38.000  19.180   6.682
 4506POPC   C3B57801  38.032  19.194   7.144
 4506POPC   C4B57802  37.945  18.963   7.484
 4507POPC   NC357803  15.187   7.454   5.263
 4507POPC   PO457804  14.620   7.343   5.659
 4507POPC   GL157805  15.005   7.440   5.839
 4507POPC   GL257806  15.289   7.221   5.718
 4507POPC   C1A57807  15.075   7.262   6.256
 4507POPC   D2A57808  15.162   7.030   6.630
 4507POPC   C3A57809  15.024   7.196   7.006
 4507POPC   C4A57810  15.005   7.373   7.411
 4507POPC   C1B57811  15.531   7.108   6.089
 4507POPC   C2B57812  15.580   7.297   6.516
 4507POPC   C3B57813  15.519   7.344   6.966
 4507POPC   C4B57814  15.435   7.089   7.325
 4508POPC   NC357815  26.361  33.893   5.347
 4508POPC   PO457816  26.762  34.322   5.472
 4508POPC   GL157817  26.843  33.971   5.776
 4508POPC   GL257818  26.572  33.673   5.767
 4508POPC   C1A57819  26.947  34.059   6.245
 4508POPC   D2A57820  27.034  34.164   6.711
 4508POPC   C3A57821  27.097  33.825   7.043
 4508POPC   C4A57822  26.995  33.842   7.500
 4508POPC   C1B57823  26.427  34.003   6.060
 4508POPC   C2B57824  26.475  33.972   6.505
 4508POPC   C3B57825  26.633  33.663   6.805
 4508POPC   C4B57826  26.628  33.625   7.241
 4509POPC   NC357827   3.099  29.029   4.974
 4509POPC   PO457828   3.603  29.257   5.381
 4509POPC   GL157829   3.572  29.412   5.799
 4509POPC   GL257830   3.270  29.561   5.891
 4509POPC   C1A57831   3.739  29.396   6.218
 4509POPC   D2A57832   3.676  29.609   6.634
 4509POPC   C3A57833   3.741  29.315   6.978
 4509POPC   C4A57834   3.826  28.995   7.306
 4509POPC   C1B57835   3.247  29.341   6.240
 4509POPC   C2B57836   3.349  29.184   6.633
 4509POPC   C3B57837   3.213  29.274   7.051
 4509POPC   C4B57838   3.328  29.106   7.454
 4510POPC   NC357839  38.987  13.173   5.014
 4510POPC   PO457840  39.525  13.158   5.422
 4510POPC   GL157841  39.298  12.918   5.786
 4510POPC   GL257842  39.324  12.545   5.857
 4510POPC   C1A57843  39.213  12.987   6.225
 4510POPC   D2A57844  39.264  13.260   6.566
 4510POPC   C3A57845  39.162  13.060   6.922
 4510POPC   C4A57846  39.324  12.917   7.281
 4510POPC   C1B57847  38.960  12.564   6.077
 4510POPC   C2B57848  39.044  12.604   6.509
 4510POPC   C3B57849  39.126  12.552   6.929
 4510POPC   C4B57850  38.865  12.599   7.254
 4511POPC   NC357851  23.174  42.413   5.235
 4511POPC   PO457852  22.626  42.562   5.523
 4511POPC   GL157853  22.952  42.525   5.820
 4511POPC   GL257854  23.250  42.334   5.802
 4511POPC   C1A57855  22.921  42.400   6.245
 4511POPC   D2A57856  22.709  42.229   6.579
 4511POPC   C3A57857  22.808  42.324   6.986
 4511POPC   C4A57858  22.493  42.398   7.293
 4511POPC   C1B57859  23.404  42.281   6.234
 4511POPC   C2B57860  23.229  42.218   6.686
 4511POPC   C3B57861  23.258  42.045   7.113
 4511POPC   C4B57862  23.429  41.938   7.578
 4512POPC   NC357863   2.266   4.545   5.403
 4512POPC   PO457864   1.777   4.145   5.611
 4512POPC   GL157865   2.019   4.276   5.959
 4512POPC   GL257866   2.253   4.569   5.919
 4512POPC   C1A57867   1.864   4.220   6.373
 4512POPC   D2A57868   1.864   4.422   6.745
 4512POPC   C3A57869   2.200   4.288   6.989
 4512POPC   C4A57870   2.278   4.069   7.357
 4512POPC   C1B57871   2.210   4.603   6.365
 4512POPC   C2B57872   2.472   4.645   6.711
 4512POPC   C3B57873   2.451   4.691   7.157
 4512POPC   C4B57874   2.006   4.716   7.275
 4513POPC   NC357875  43.601  21.884   5.355
 4513POPC   PO457876  44.214  22.075   5.558
 4513POPC   GL157877  44.022  21.880   5.898
 4513POPC   GL257878  43.701  21.807   5.853
 4513POPC   C1A57879  44.080  22.054   6.282
 4513POPC   D2A57880  44.033  22.424   6.491
 4513POPC   C3A57881  44.275  22.381   6.830
 4513POPC   C4A57882  44.202  22.389   7.269
 4513POPC   C1B57883  43.559  22.135   6.154
 4513POPC   C2B57884  43.539  22.344   6.570
 4513POPC   C3B57885  43.772  22.345   6.955
 4513POPC   C4B57886  43.732  22.562   7.359
 4514POPC   NC357887   4.664   5.086   5.510
 4514POPC   PO457888   3.968   5.125   5.433
 4514POPC   GL157889   4.247   5.041   5.769
 4514POPC   GL257890   4.429   5.380   5.863
 4514POPC   C1A57891   4.374   4.902   6.159
 4514POPC   D2A57892   4.093   4.918   6.517
 4514POPC   C3A57893   4.298   4.884   6.903
 4514POPC   C4A57894   4.154   4.853   7.317
 4514POPC   C1B57895   4.192   5.383   6.275
 4514POPC   C2B57896   4.144   5.379   6.723
 4514POPC   C3B57897   4.146   5.357   7.136
 4514POPC   C4B57898   4.457   5.553   7.335
 4515POPC   NC357899  30.779  42.623   5.633
 4515POPC   PO457900  30.311  42.190   5.588
 4515POPC   GL157901  30.662  42.179   5.918
 4515POPC   GL257902  31.000  42.060   5.769
 4515POPC   C1A57903  30.786  42.483   6.273
 4515POPC   D2A57904  30.574  42.661   6.615
 4515POPC   C3A57905  30.746  42.440   6.940
 4515POPC   C4A57906  30.661  42.334   7.337
 4515POPC   C1B57907  31.124  42.108   6.206
 4515POPC   C2B57908  30.943  42.062   6.653
 4515POPC   C3B57909  30.991  41.966   7.121
 4515POPC   C4B57910  31.028  42.059   7.583
 4516POPC   NC357911   8.079  12.392   5.376
 4516POPC   PO457912   8.279  12.987   5.378
 4516POPC   GL157913   8.126  12.729   5.770
 4516POPC   GL257914   8.407  12.499   5.827
 4516POPC   C1A57915   7.932  12.741   6.220
 4516POPC   D2A57916   7.857  12.796   6.674
 4516POPC   C3A57917   8.176  13.054   6.870
 4516POPC   C4A57918   8.168  13.255   7.290
 4516POPC   C1B57919   8.438  12.720   6.208
 4516POPC   C2B57920   8.364  12.580   6.614
 4516POPC   C3B57921   8.459  12.548   7.030
 4516POPC   C4B57922   8.121  12.735   7.256
 4517POPC   NC357923  25.125  29.415   5.447
 4517POPC   PO457924  25.164  28.778   5.449
 4517POPC   GL157925  25.065  29.048   5.817
 4517POPC   GL257926  25.361  29.298   5.868
 4517POPC   C1A57927  25.112  28.987   6.259
 4517POPC   D2A57928  24.927  29.005   6.652
 4517POPC   C3A57929  25.221  28.879   6.962
 4517POPC   C4A57930  25.642  28.947   7.182
 4517POPC   C1B57931  25.571  29.204   6.224
 4517POPC   C2B57932  25.394  29.257   6.615
 4517POPC   C3B57933  25.574  29.411   6.960
 4517POPC   C4B57934  25.545  29.478   7.372
 4518POPC   NC357935  44.745   1.205   5.478
 4518POPC   PO457936  44.219   0.918   5.642
 4518POPC   GL157937  44.404   1.185   5.951
 4518POPC   GL257938  44.771   1.248   5.984
 4518POPC   C1A57939  44.402   1.157   6.399
 4518POPC   D2A57940  44.650   0.903   6.713
 4518POPC   C3A57941  44.649   1.169   7.063
 4518POPC   C4A57942  44.373   1.493   7.094
 4518POPC   C1B57943  44.906   1.246   6.410
 4518POPC   C2B57944   0.032   1.424   6.789
 4518POPC   C3B57945   0.109   1.447   7.180
 4518POPC   C4B57946   0.008   1.101   7.420
 4519POPC   NC357947  22.419  40.330   5.588
 4519POPC   PO457948  22.187  39.664   5.423
 4519POPC   GL157949  22.079  39.959   5.766
 4519POPC   GL257950  22.349  40.097   6.035
 4519POPC   C1A57951  21.891  39.947   6.175
 4519POPC   D2A57952  22.173  39.945   6.545
 4519POPC   C3A57953  21.993  39.812   6.912
 4519POPC   C4A57954  22.181  39.777   7.313
 4519POPC   C1B57955  22.123  40.383   6.318
 4519POPC   C2B57956  21.940  40.382   6.690
 4519POPC   C3B57957  22.107  40.300   7.063
 4519POPC   C4B57958  21.781  40.281   7.339
 4520POPC   NC357959  18.053  15.211   5.508
 4520POPC   PO457960  18.513  14.675   5.495
 4520POPC   GL157961  18.250  14.834   5.869
 4520POPC   GL257962  18.299  15.195   5.942
 4520POPC   C1A57963  17.960  14.933   6.251
 4520POPC   D2A57964  17.928  15.028   6.681
 4520POPC   C3A57965  18.283  15.201   6.876
 4520POPC   C4A57966  18.413  15.212   7.316
 4520POPC   C1B57967  18.262  15.335   6.360
 4520POPC   C2B57968  18.583  15.532   6.606
 4520POPC   C3B57969  18.496  15.661   7.012
 4520POPC   C4B57970  18.095  15.584   7.221
 4521POPC   NC357971  42.818  32.963   5.545
 4521POPC   PO457972  43.302  33.382   5.593
 4521POPC   GL157973  43.194  33.138   5.904
 4521POPC   GL257974  43.298  32.827   5.781
 4521POPC   C1A57975  43.285  33.089   6.328
 4521POPC   D2A57976  42.990  32.975   6.601
 4521POPC   C3A57977  43.108  33.084   6.977
 4521POPC   C4A57978  43.247  33.161   7.375
 4521POPC   C1B57979  43.035  32.695   6.153
 4521POPC   C2B57980  42.991  32.444   6.536
 4521POPC   C3B57981  43.088  32.585   6.942
 4521POPC   C4B57982  43.246  32.517   7.341
 4522POPC   NC357983  18.719  26.648   5.438
 4522POPC   PO457984  19.410  26.599   5.418
 4522POPC   GL157985  19.137  26.575   5.795
 4522POPC   GL257986  18.921  26.880   5.847
 4522POPC   C1A57987  19.216  26.723   6.226
 4522POPC   D2A57988  19.346  27.040   6.510
 4522POPC   C3A57989  19.307  26.871   6.909
 4522POPC   C4A57990  19.416  27.065   7.289
 4522POPC   C1B57991  18.875  27.116   6.244
 4522POPC   C2B57992  18.824  27.023   6.717
 4522POPC   C3B57993  18.867  26.923   7.178
 4522POPC   C4B57994  18.847  26.650   7.581
 4523POPC   NC357995  26.253  10.083   5.144
 4523POPC   PO457996  25.944   9.510   5.437
 4523POPC   GL157997  26.103   9.703   5.765
 4523POPC   GL257998  26.363   9.893   5.627
 4523POPC   C1A57999  25.887   9.775   6.145
 4523POPC   D2A58000  25.841   9.564   6.543
 4523POPC   C3A58001  25.727   9.815   6.857
 4523POPC   C4A58002  25.806   9.702   7.245
 4523POPC   C1B58003  26.372   9.971   6.104
 4523POPC   C2B58004  26.134   9.982   6.541
 4523POPC   C3B58005  26.211   9.715   6.909
 4523POPC   C4B58006  26.301   9.856   7.324
 4524POPC   NC358007   3.077  23.559   5.453
 4524POPC   PO458008   2.458  23.679   5.640
 4524POPC   GL158009   2.857  23.745   5.907
 4524POPC   GL258010   2.994  24.100   5.828
 4524POPC   C1A58011   2.896  23.627   6.367
 4524POPC   D2A58012   2.978  23.504   6.802
 4524POPC   C3A58013   2.788  23.706   7.142
 4524POPC   C4A58014   2.934  23.814   7.542
 4524POPC   C1B58015   2.632  24.161   6.112
 4524POPC   C2B58016   2.506  23.967   6.494
 4524POPC   C3B58017   2.448  24.073   6.931
 4524POPC   C4B58018   2.560  24.100   7.369
 4525POPC   NC358019   0.907  42.685   5.554
 4525POPC   PO458020   1.108  43.318   5.619
 4525POPC   GL158021   1.297  43.018   5.866
 4525POPC   GL258022   1.569  43.208   5.962
 4525POPC   C1A58023   1.178  42.981   6.302
 4525POPC   D2A58024   0.938  43.045   6.677
 4525POPC   C3A58025   1.015  43.072   7.150
 4525POPC   C4A58026   0.893  42.944   7.597
 4525POPC   C1B58027   1.691  42.952   6.280
 4525POPC   C2B58028   1.519  42.972   6.696
 4525POPC   C3B58029   1.679  42.870   7.081
 4525POPC   C4B58030   1.501  43.154   7.359
 4526POPC   NC358031  19.808  42.691   5.436
 4526POPC   PO458032  19.559  41.989   5.516
 4526POPC   GL158033  19.800  42.268   5.793
 4526POPC   GL258034  19.667  42.555   5.907
 4526POPC   C1A58035  20.011  42.356   6.209
 4526POPC   D2A58036  19.826  42.316   6.616
 4526POPC   C3A58037  20.099  42.262   6.964
 4526POPC   C4A58038  20.214  42.001   7.324
 4526POPC   C1B58039  19.644  42.721   6.335
 4526POPC   C2B58040  19.707  42.772   6.810
 4526POPC   C3B58041  19.889  42.640   7.228
 4526POPC   C4B58042  19.713  42.519   7.643
 4527POPC   NC358043  33.848  31.419   5.381
 4527POPC   PO458044  33.963  32.052   5.568
 4527POPC   GL158045  33.907  31.650   5.824
 4527POPC   GL258046  33.664  31.332   5.864
 4527POPC   C1A58047  33.998  31.539   6.214
 4527POPC   D2A58048  33.891  31.832   6.559
 4527POPC   C3A58049  33.921  31.663   6.993
 4527POPC   C4A58050  34.105  31.286   7.174
 4527POPC   C1B58051  33.510  31.505   6.257
 4527POPC   C2B58052  33.727  31.336   6.620
 4527POPC   C3B58053  33.672  31.099   6.982
 4527POPC   C4B58054  33.616  31.327   7.365
 4528POPC   NC358055  16.422   9.611   5.431
 4528POPC   PO458056  17.108   9.444   5.525
 4528POPC   GL158057  16.802   9.637   5.821
 4528POPC   GL258058  16.443   9.653   5.919
 4528POPC   C1A58059  16.844   9.793   6.224
 4528POPC   D2A58060  16.695   9.608   6.590
 4528POPC   C3A58061  16.963   9.586   6.945
 4528POPC   C4A58062  17.141   9.957   7.120
 4528POPC   C1B58063  16.374   9.970   6.213
 4528POPC   C2B58064  16.581  10.118   6.602
 4528POPC   C3B58065  16.561   9.931   7.004
 4528POPC   C4B58066  16.340   9.751   7.344
 4529POPC   NC358067  29.738  44.963   5.360
 4529POPC   PO458068  30.246  44.533   5.560
 4529POPC   GL158069  29.996  44.808   5.789
 4529POPC   GL258070  30.045  44.554   6.030
 4529POPC   C1A58071  29.668  44.873   6.130
 4529POPC   D2A58072  29.578  44.880   6.606
 4529POPC   C3A58073  29.890  44.815   6.959
 4529POPC   C4A58074  29.967  44.905   7.379
 4529POPC   C1B58075  29.995  44.606   6.456
 4529POPC   C2B58076  29.761  44.375   6.747
 4529POPC   C3B58077  29.962  44.285   7.112
 4529POPC   C4B58078  30.096  44.435   7.493
 4530POPC   NC358079  12.612  32.732   5.493
 4530POPC   PO458080  13.062  33.189   5.632
 4530POPC   GL158081  12.885  32.942   5.886
 4530POPC   GL258082  12.572  33.072   5.861
 4530POPC   C1A58083  12.955  32.778   6.271
 4530POPC   D2A58084  12.829  32.608   6.651
 4530POPC   C3A58085  13.066  32.811   6.981
 4530POPC   C4A58086  12.863  32.762   7.359
 4530POPC   C1B58087  12.594  33.211   6.250
 4530POPC   C2B58088  12.784  33.125   6.625
 4530POPC   C3B58089  12.593  32.973   6.972
 4530POPC   C4B58090  12.493  33.108   7.341
 4531POPC   NC358091  11.838   4.311   5.387
 4531POPC   PO458092  12.516   4.369   5.361
 4531POPC   GL158093  12.285   4.250   5.764
 4531POPC   GL258094  11.998   4.450   5.849
 4531POPC   C1A58095  12.110   4.057   6.146
 4531POPC   D2A58096  12.047   4.333   6.506
 4531POPC   C3A58097  12.184   4.122   6.888
 4531POPC   C4A58098  12.174   4.295   7.292
 4531POPC   C1B58099  11.782   4.702   6.150
 4531POPC   C2B58100  11.780   4.850   6.554
 4531POPC   C3B58101  11.940   4.659   6.926
 4531POPC   C4B58102  11.736   4.660   7.341
 4532POPC   NC358103  18.564  42.123   5.005
 4532POPC   PO458104  18.031  42.147   5.441
 4532POPC   GL158105  18.140  42.149   5.860
 4532POPC   GL258106  18.369  42.413   5.820
 4532POPC   C1A58107  18.397  42.129   6.241
 4532POPC   D2A58108  18.619  42.276   6.609
 4532POPC   C3A58109  18.364  42.101   6.917
 4532POPC   C4A58110  18.112  41.952   7.263
 4532POPC   C1B58111  18.185  42.614   6.151
 4532POPC   C2B58112  18.141  42.501   6.556
 4532POPC   C3B58113  18.273  42.663   6.928
 4532POPC   C4B58114  18.113  42.491   7.273
 4533POPC   NC358115  12.620  35.243   5.464
 4533POPC   PO458116  13.171  35.444   5.352
 4533POPC   GL158117  13.040  35.386   5.784
 4533POPC   GL258118  12.724  35.350   5.962
 4533POPC   C1A58119  13.109  35.546   6.229
 4533POPC   D2A58120  13.057  35.741   6.648
 4533POPC   C3A58121  12.983  35.472   7.030
 4533POPC   C4A58122  13.076  35.174   7.377
 4533POPC   C1B58123  12.515  35.050   6.190
 4533POPC   C2B58124  12.499  34.891   6.596
 4533POPC   C3B58125  12.623  35.063   7.017
 4533POPC   C4B58126  12.580  35.312   7.416
 4534POPC   NC358127  33.561   0.271   5.427
 4534POPC   PO458128  33.811   0.910   5.480
 4534POPC   GL158129  33.860   0.599   5.812
 4534POPC   GL258130  33.770   0.260   5.872
 4534POPC   C1A58131  34.051   0.465   6.222
 4534POPC   D2A58132  33.752   0.577   6.557
 4534POPC   C3A58133  33.854   0.442   6.948
 4534POPC   C4A58134  34.069   0.553   7.314
 4534POPC   C1B58135  33.686   0.115   6.283
 4534POPC   C2B58136  33.706  44.974   6.696
 4534POPC   C3B58137  33.462   0.142   7.019
 4534POPC   C4B58138  33.555   0.398   7.377
 4535POPC   NC358139  26.232  13.892   5.129
 4535POPC   PO458140  25.856  13.487   5.384
 4535POPC   GL158141  26.055  13.549   5.775
 4535POPC   GL258142  26.186  13.879   5.782
 4535POPC   C1A58143  25.897  13.649   6.192
 4535POPC   D2A58144  26.150  13.604   6.552
 4535POPC   C3A58145  26.122  13.344   6.889
 4535POPC   C4A58146  26.024  13.301   7.299
 4535POPC   C1B58147  26.231  14.037   6.230
 4535POPC   C2B58148  26.043  14.077   6.648
 4535POPC   C3B58149  26.060  13.843   7.059
 4535POPC   C4B58150  26.263  13.737   7.474
 4536POPC   NC358151   4.503  37.181   5.386
 4536POPC   PO458152   4.548  36.503   5.308
 4536POPC   GL158153   4.463  36.738   5.752
 4536POPC   GL258154   4.594  37.087   5.898
 4536POPC   C1A58155   4.288  36.850   6.187
 4536POPC   D2A58156   4.483  37.104   6.515
 4536POPC   C3A58157   4.289  36.959   6.881
 4536POPC   C4A58158   4.256  36.678   7.252
 4536POPC   C1B58159   4.865  37.309   6.234
 4536POPC   C2B58160   5.011  37.310   6.638
 4536POPC   C3B58161   4.816  37.105   6.952
 4536POPC   C4B58162   4.520  37.127   7.287
 4537POPC   NC358163  44.944  40.623   5.320
 4537POPC   PO458164  44.347  40.377   5.455
 4537POPC   GL158165  44.637  40.613   5.762
 4537POPC   GL258166   0.004  40.559   5.829
 4537POPC   C1A58167  44.579  40.652   6.218
 4537POPC   D2A58168  44.425  40.862   6.598
 4537POPC   C3A58169  44.380  40.664   6.979
 4537POPC   C4A58170  44.369  40.907   7.326
 4537POPC   C1B58171   0.035  40.872   6.115
 4537POPC   C2B58172   0.048  40.853   6.559
 4537POPC   C3B58173  44.932  40.651   6.955
 4537POPC   C4B58174  44.879  40.830   7.364
 4538POPC   NC358175  25.352   3.471   5.438
 4538POPC   PO458176  24.981   4.002   5.468
 4538POPC   GL158177  25.123   3.687   5.844
 4538POPC   GL258178  25.177   3.281   5.903
 4538POPC   C1A58179  25.228   3.637   6.295
 4538POPC   D2A58180  25.254   3.761   6.727
 4538POPC   C3A58181  25.210   3.554   7.111
 4538POPC   C4A58182  25.523   3.744   7.374
 4538POPC   C1B58183  25.201   3.122   6.366
 4538POPC   C2B58184  25.446   3.260   6.742
 4538POPC   C3B58185  25.642   3.307   7.167
 4538POPC   C4B58186  25.392   3.271   7.560
 4539POPC   NC358187  27.749  43.597   5.501
 4539POPC   PO458188  27.511  44.244   5.622
 4539POPC   GL158189  27.313  43.939   5.887
 4539POPC   GL258190  27.496  43.617   5.955
 4539POPC   C1A58191  27.334  43.959   6.321
 4539POPC   D2A58192  27.613  44.080   6.652
 4539POPC   C3A58193  27.623  43.899   7.023
 4539POPC   C4A58194  27.436  44.042   7.363
 4539POPC   C1B58195  27.781  43.678   6.329
 4539POPC   C2B58196  28.063  43.802   6.706
 4539POPC   C3B58197  28.044  43.661   7.159
 4539POPC   C4B58198  27.703  43.640   7.520
 4540POPC   NC358199  38.164   6.086   5.696
 4540POPC   PO458200  38.659   5.656   5.420
 4540POPC   GL158201  38.624   5.855   5.837
 4540POPC   GL258202  38.308   5.718   6.001
 4540POPC   C1A58203  38.523   6.084   6.246
 4540POPC   D2A58204  38.332   5.949   6.633
 4540POPC   C3A58205  38.349   6.165   7.053
 4540POPC   C4A58206  38.366   5.942   7.448
 4540POPC   C1B58207  38.618   5.566   6.275
 4540POPC   C2B58208  38.550   5.287   6.585
 4540POPC   C3B58209  38.383   5.427   6.949
 4540POPC   C4B58210  38.588   5.503   7.319
 4541POPC   NC358211  27.312  26.227   5.487
 4541POPC   PO458212  27.874  25.745   5.441
 4541POPC   GL158213  27.664  25.965   5.806
 4541POPC   GL258214  27.328  25.895   5.910
 4541POPC   C1A58215  27.653  26.010   6.276
 4541POPC   D2A58216  27.603  26.319   6.606
 4541POPC   C3A58217  27.740  26.092   6.968
 4541POPC   C4A58218  27.904  26.219   7.330
 4541POPC   C1B58219  27.158  25.793   6.325
 4541POPC   C2B58220  27.319  25.910   6.733
 4541POPC   C3B58221  27.376  25.800   7.169
 4541POPC   C4B58222  27.680  25.792   7.521
 4542POPC   NC358223  20.299  14.603   5.486
 4542POPC   PO458224  20.896  14.725   5.509
 4542POPC   GL158225  20.820  14.377   5.804
 4542POPC   GL258226  20.482  14.300   5.869
 4542POPC   C1A58227  20.841  14.221   6.254
 4542POPC   D2A58228  20.759  13.989   6.648
 4542POPC   C3A58229  20.796  14.287   6.961
 4542POPC   C4A58230  20.836  14.342   7.392
 4542POPC   C1B58231  20.398  14.517   6.264
 4542POPC   C2B58232  20.500  14.709   6.686
 4542POPC   C3B58233  20.465  14.639   7.138
 4542POPC   C4B58234  20.312  14.266   7.277
 4543POPC   NC358235  27.479  10.813   5.418
 4543POPC   PO458236  27.968  10.322   5.544
 4543POPC   GL158237  27.597  10.529   5.819
 4543POPC   GL258238  27.774  10.433   6.069
 4543POPC   C1A58239  27.472  10.836   6.156
 4543POPC   D2A58240  27.672  10.765   6.573
 4543POPC   C3A58241  27.420  10.707   6.937
 4543POPC   C4A58242  27.549  10.544   7.321
 4543POPC   C1B58243  27.842  10.211   6.396
 4543POPC   C2B58244  27.822  10.279   6.790
 4543POPC   C3B58245  28.012  10.134   7.118
 4543POPC   C4B58246  27.942  10.210   7.526
 4544POPC   NC358247  23.189  26.244   5.611
 4544POPC   PO458248  22.586  25.834   5.435
 4544POPC   GL158249  22.761  26.008   5.785
 4544POPC   GL258250  23.006  25.779   5.779
 4544POPC   C1A58251  22.866  26.112   6.207
 4544POPC   D2A58252  22.735  25.985   6.616
 4544POPC   C3A58253  22.963  26.184   6.953
 4544POPC   C4A58254  23.137  26.304   7.321
 4544POPC   C1B58255  22.799  25.606   6.155
 4544POPC   C2B58256  22.977  25.547   6.563
 4544POPC   C3B58257  23.061  25.655   6.965
 4544POPC   C4B58258  22.965  25.836   7.357
 4545POPC   NC358259  24.733  34.758   5.537
 4545POPC   PO458260  24.216  34.795   5.124
 4545POPC   GL158261  24.424  34.400   5.544
 4545POPC   GL258262  24.235  34.373   5.842
 4545POPC   C1A58263  24.669  34.425   6.053
 4545POPC   D2A58264  24.715  34.707   6.435
 4545POPC   C3A58265  24.624  34.583   6.858
 4545POPC   C4A58266  24.726  34.351   7.249
 4545POPC   C1B58267  24.210  34.608   6.238
 4545POPC   C2B58268  24.017  34.509   6.619
 4545POPC   C3B58269  24.137  34.643   6.996
 4545POPC   C4B58270  24.211  34.513   7.399
 4546POPC   NC358271   8.077  27.024   5.397
 4546POPC   PO458272   8.378  26.421   5.524
 4546POPC   GL158273   8.141  26.651   5.820
 4546POPC   GL258274   8.331  26.915   5.832
 4546POPC   C1A58275   8.049  26.528   6.283
 4546POPC   D2A58276   7.880  26.456   6.722
 4546POPC   C3A58277   7.972  26.748   7.033
 4546POPC   C4A58278   8.359  26.680   7.180
 4546POPC   C1B58279   8.109  27.038   6.203
 4546POPC   C2B58280   8.206  26.922   6.619
 4546POPC   C3B58281   8.510  27.103   6.939
 4546POPC   C4B58282   8.505  27.108   7.394
 4547POPC   NC358283   3.595  40.371   5.351
 4547POPC   PO458284   3.503  39.731   5.370
 4547POPC   GL158285   3.433  40.038   5.731
 4547POPC   GL258286   3.134  40.271   5.691
 4547POPC   C1A58287   3.607  40.036   6.161
 4547POPC   D2A58288   3.644  39.833   6.557
 4547POPC   C3A58289   3.542  40.091   6.908
 4547POPC   C4A58290   3.679  40.177   7.296
 4547POPC   C1B58291   3.126  40.237   6.123
 4547POPC   C2B58292   3.311  40.331   6.501
 4547POPC   C3B58293   3.167  40.419   6.892
 4547POPC   C4B58294   3.144  40.169   7.234
 4548POPC   NC358295  40.785  37.604   5.430
 4548POPC   PO458296  41.387  38.012   5.316
 4548POPC   GL158297  41.129  37.852   5.733
 4548POPC   GL258298  40.722  37.844   5.861
 4548POPC   C1A58299  41.079  37.933   6.198
 4548POPC   D2A58300  40.836  37.890   6.562
 4548POPC   C3A58301  40.992  38.013   6.964
 4548POPC   C4A58302  40.708  37.971   7.286
 4548POPC   C1B58303  40.821  37.500   6.140
 4548POPC   C2B58304  40.766  37.376   6.565
 4548POPC   C3B58305  40.763  37.537   6.995
 4548POPC   C4B58306  40.716  37.488   7.479
 4549POPC   NC358307  35.475  38.008   5.721
 4549POPC   PO458308  36.049  37.612   5.556
 4549POPC   GL158309  36.227  37.529   5.924
 4549POPC   GL258310  35.937  37.680   6.072
 4549POPC   C1A58311  36.434  37.610   6.309
 4549POPC   D2A58312  36.561  37.671   6.714
 4549POPC   C3A58313  36.244  37.814   6.996
 4549POPC   C4A58314  36.355  37.736   7.374
 4549POPC   C1B58315  35.999  37.384   6.418
 4549POPC   C2B58316  35.994  37.367   6.881
 4549POPC   C3B58317  35.711  37.226   7.216
 4549POPC   C4B58318  35.809  37.165   7.699
 4550POPC   NC358319  41.095   8.471   5.463
 4550POPC   PO458320  40.757   7.921   5.292
 4550POPC   GL158321  40.898   8.103   5.740
 4550POPC   GL258322  40.663   7.989   5.962
 4550POPC   C1A58323  41.053   8.187   6.211
 4550POPC   D2A58324  40.945   7.996   6.635
 4550POPC   C3A58325  40.858   8.217   7.029
 4550POPC   C4A58326  40.905   8.213   7.492
 4550POPC   C1B58327  40.439   8.012   6.335
 4550POPC   C2B58328  40.380   8.052   6.735
 4550POPC   C3B58329  40.419   7.944   7.097
 4550POPC   C4B58330  40.340   8.245   7.296
 4551POPC   NC358331  30.207  14.774   5.378
 4551POPC   PO458332  29.829  15.361   5.366
 4551POPC   GL158333  29.702  15.179   5.739
 4551POPC   GL258334  29.859  14.878   5.759
 4551POPC   C1A58335  29.744  15.326   6.139
 4551POPC   D2A58336  29.944  15.215   6.543
 4551POPC   C3A58337  29.893  15.363   6.970
 4551POPC   C4A58338  29.888  15.133   7.322
 4551POPC   C1B58339  29.882  14.821   6.184
 4551POPC   C2B58340  30.140  14.725   6.534
 4551POPC   C3B58341  30.167  14.925   6.931
 4551POPC   C4B58342  30.377  15.030   7.319
 4552POPC   NC358343  11.981   9.466   5.014
 4552POPC   PO458344  12.200   9.047   5.489
 4552POPC   GL158345  12.036   9.024   5.862
 4552POPC   GL258346  11.779   9.283   5.828
 4552POPC   C1A58347  12.254   8.912   6.270
 4552POPC   D2A58348  12.249   8.782   6.695
 4552POPC   C3A58349  11.967   8.818   7.018
 4552POPC   C4A58350  12.094   8.924   7.422
 4552POPC   C1B58351  11.801   9.154   6.278
 4552POPC   C2B58352  11.922   9.199   6.695
 4552POPC   C3B58353  11.943   9.304   7.118
 4552POPC   C4B58354  11.667   9.179   7.480
 4553POPC   NC358355  13.209  10.622   5.361
 4553POPC   PO458356  12.751  10.113   5.508
 4553POPC   GL158357  12.903  10.455   5.767
 4553POPC   GL258358  12.565  10.601   5.823
 4553POPC   C1A58359  12.943  10.677   6.190
 4553POPC   D2A58360  12.848  10.813   6.592
 4553POPC   C3A58361  13.128  10.806   6.907
 4553POPC   C4A58362  12.996  10.741   7.302
 4553POPC   C1B58363  12.622  10.279   6.155
 4553POPC   C2B58364  12.863  10.253   6.550
 4553POPC   C3B58365  12.754  10.420   6.951
 4553POPC   C4B58366  12.434  10.248   7.239
 4554POPC   NC358367   3.755   0.832   5.492
 4554POPC   PO458368   3.249   0.428   5.437
 4554POPC   GL158369   3.402   0.296   5.810
 4554POPC   GL258370   3.481   0.609   5.857
 4554POPC   C1A58371   3.476   0.172   6.226
 4554POPC   D2A58372   3.558  44.985   6.639
 4554POPC   C3A58373   3.383   0.255   6.953
 4554POPC   C4A58374   3.499   0.445   7.332
 4554POPC   C1B58375   3.636   0.658   6.215
 4554POPC   C2B58376   3.653   0.507   6.590
 4554POPC   C3B58377   3.684   0.719   6.933
 4554POPC   C4B58378   3.649   0.929   7.301
 4555POPC   NC358379  18.856  15.667   5.690
 4555POPC   PO458380  18.838  16.265   5.324
 4555POPC   GL158381  19.001  16.159   5.731
 4555POPC   GL258382  19.336  16.035   5.702
 4555POPC   C1A58383  19.007  16.050   6.192
 4555POPC   D2A58384  19.198  15.856   6.532
 4555POPC   C3A58385  18.991  15.715   6.869
 4555POPC   C4A58386  19.074  15.894   7.219
 4555POPC   C1B58387  19.464  16.232   6.132
 4555POPC   C2B58388  19.614  16.127   6.570
 4555POPC   C3B58389  19.467  16.172   7.002
 4555POPC   C4B58390  19.525  15.929   7.417
 4556POPC   NC358391  13.277  41.888   5.362
 4556POPC   PO458392  13.645  42.537   5.421
 4556POPC   GL158393  13.530  42.231   5.726
 4556POPC   GL258394  13.350  42.385   5.997
 4556POPC   C1A58395  13.817  42.179   6.074
 4556POPC   D2A58396  14.050  42.312   6.419
 4556POPC   C3A58397  13.743  42.281   6.740
 4556POPC   C4A58398  13.724  42.238   7.181
 4556POPC   C1B58399  13.386  41.940   6.142
 4556POPC   C2B58400  13.379  41.919   6.579
 4556POPC   C3B58401  13.250  42.189   6.909
 4556POPC   C4B58402  13.231  42.291   7.351
 4557POPC   NC358403   8.768  12.533   5.424
 4557POPC   PO458404   9.244  12.918   5.123
 4557POPC   GL158405   9.196  12.799   5.626
 4557POPC   GL258406   8.857  12.883   5.787
 4557POPC   C1A58407   9.261  12.821   6.113
 4557POPC   D2A58408   8.985  12.975   6.488
 4557POPC   C3A58409   9.057  13.053   6.962
 4557POPC   C4A58410   9.038  13.057   7.447
 4557POPC   C1B58411   8.874  12.522   6.069
 4557POPC   C2B58412   8.991  12.471   6.477
 4557POPC   C3B58413   9.053  12.496   6.914
 4557POPC   C4B58414   8.881  12.580   7.313
 4558POPC   NC358415  36.059   3.268   5.592
 4558POPC   PO458416  36.099   2.759   5.114
 4558POPC   GL158417  36.111   2.748   5.591
 4558POPC   GL258418  36.478   2.693   5.699
 4558POPC   C1A58419  35.941   2.736   6.049
 4558POPC   D2A58420  35.848   2.540   6.475
 4558POPC   C3A58421  35.994   2.729   6.868
 4558POPC   C4A58422  35.809   2.991   7.197
 4558POPC   C1B58423  36.403   2.994   6.053
 4558POPC   C2B58424  36.264   2.929   6.459
 4558POPC   C3B58425  36.534   2.855   6.801
 4558POPC   C4B58426  36.385   2.967   7.180
 4559POPC   NC358427  16.580  29.411   5.374
 4559POPC   PO458428  16.652  30.029   5.516
 4559POPC   GL158429  16.594  29.684   5.871
 4559POPC   GL258430  16.246  29.598   5.900
 4559POPC   C1A58431  16.764  29.600   6.339
 4559POPC   D2A58432  16.731  29.851   6.756
 4559POPC   C3A58433  16.894  29.785   7.205
 4559POPC   C4A58434  16.964  29.908   7.661
 4559POPC   C1B58435  16.253  29.624   6.390
 4559POPC   C2B58436  16.312  29.592   6.836
 4559POPC   C3B58437  16.389  29.805   7.271
 4559POPC   C4B58438  16.453  29.979   7.709
 4560POPC   NC358439   3.391  35.789   5.112
 4560POPC   PO458440   3.540  35.318   5.516
 4560POPC   GL158441   3.467  35.282   5.900
 4560POPC   GL258442   3.532  35.602   5.990
 4560POPC   C1A58443   3.236  35.265   6.247
 4560POPC   D2A58444   3.444  35.102   6.589
 4560POPC   C3A58445   3.303  35.205   6.985
 4560POPC   C4A58446   3.504  35.050   7.364
 4560POPC   C1B58447   3.695  35.514   6.370
 4560POPC   C2B58448   3.700  35.513   6.795
 4560POPC   C3B58449   3.682  35.490   7.207
 4560POPC   C4B58450   3.897  35.388   7.583
 4561POPC   NC358451  34.619  31.210   5.148
 4561POPC   PO458452  34.692  30.491   5.321
 4561POPC   GL158453  34.627  30.508   5.765
 4561POPC   GL258454  34.620  30.834   5.889
 4561POPC   C1A58455  34.393  30.480   6.170
 4561POPC   D2A58456  34.612  30.586   6.550
 4561POPC   C3A58457  34.493  30.594   6.982
 4561POPC   C4A58458  34.746  30.488   7.336
 4561POPC   C1B58459  34.396  31.013   6.238
 4561POPC   C2B58460  34.350  31.015   6.673
 4561POPC   C3B58461  34.730  31.042   6.897
 4561POPC   C4B58462  34.537  31.028   7.271
 4562POPC   NC358463  34.475  14.864   5.558
 4562POPC   PO458464  34.825  15.443   5.382
 4562POPC   GL158465  34.691  15.346   5.827
 4562POPC   GL258466  34.333  15.243   5.881
 4562POPC   C1A58467  34.708  15.296   6.301
 4562POPC   D2A58468  34.683  15.027   6.682
 4562POPC   C3A58469  34.656  15.173   7.111
 4562POPC   C4A58470  34.684  15.198   7.549
 4562POPC   C1B58471  34.347  15.625   6.152
 4562POPC   C2B58472  34.503  15.724   6.584
 4562POPC   C3B58473  34.462  15.645   7.032
 4562POPC   C4B58474  34.409  15.638   7.500
 4563POPC   NC358475  43.603  12.296   5.130
 4563POPC   PO458476  43.726  12.971   5.287
 4563POPC   GL158477  43.889  12.916   5.695
 4563POPC   GL258478  43.677  12.632   5.804
 4563POPC   C1A58479  43.890  12.970   6.160
 4563POPC   D2A58480  43.617  13.128   6.505
 4563POPC   C3A58481  43.796  12.990   6.923
 4563POPC   C4A58482  44.006  12.589   7.003
 4563POPC   C1B58483  43.444  12.722   6.186
 4563POPC   C2B58484  43.601  12.615   6.577
 4563POPC   C3B58485  43.471  12.582   6.971
 4563POPC   C4B58486  43.654  12.686   7.361
 4564POPC   NC358487  20.053  23.919   5.517
 4564POPC   PO458488  20.095  23.277   5.497
 4564POPC   GL158489  19.888  23.528   5.871
 4564POPC   GL258490  19.836  23.890   5.966
 4564POPC   C1A58491  20.115  23.635   6.290
 4564POPC   D2A58492  20.170  23.846   6.677
 4564POPC   C3A58493  19.971  23.792   7.091
 4564POPC   C4A58494  20.129  23.643   7.513
 4564POPC   C1B58495  19.730  23.964   6.414
 4564POPC   C2B58496  19.814  24.204   6.777
 4564POPC   C3B58497  19.571  24.110   7.139
 4564POPC   C4B58498  19.697  23.924   7.527
 4565POPC   NC358499  22.702   1.288   5.399
 4565POPC   PO458500  21.969   1.144   5.327
 4565POPC   GL158501  22.126   1.248   5.818
 4565POPC   GL258502  22.448   1.159   5.865
 4565POPC   C1A58503  21.940   1.272   6.272
 4565POPC   D2A58504  21.977   1.489   6.698
 4565POPC   C3A58505  22.099   1.314   7.127
 4565POPC   C4A58506  21.834   1.307   7.511
 4565POPC   C1B58507  22.353   0.947   6.257
 4565POPC   C2B58508  22.333   1.078   6.694
 4565POPC   C3B58509  22.406   0.892   7.136
 4565POPC   C4B58510  22.321   0.683   7.580
 4566POPC   NC358511  28.693  28.184   5.541
 4566POPC   PO458512  29.374  28.315   5.370
 4566POPC   GL158513  29.196  28.165   5.766
 4566POPC   GL258514  28.999  28.450   5.866
 4566POPC   C1A58515  29.048  28.055   6.185
 4566POPC   D2A58516  29.011  28.272   6.577
 4566POPC   C3A58517  28.821  28.149   6.933
 4566POPC   C4A58518  29.053  28.179   7.330
 4566POPC   C1B58519  28.897  28.664   6.269
 4566POPC   C2B58520  29.043  28.781   6.663
 4566POPC   C3B58521  29.011  28.627   7.043
 4566POPC   C4B58522  28.667  28.492   7.275
 4567POPC   NC358523  26.957  20.888   5.494
 4567POPC   PO458524  26.767  21.535   5.316
 4567POPC   GL158525  26.635  21.561   5.736
 4567POPC   GL258526  26.492  21.249   5.703
 4567POPC   C1A58527  26.768  21.522   6.170
 4567POPC   D2A58528  26.999  21.504   6.540
 4567POPC   C3A58529  26.854  21.668   6.912
 4567POPC   C4A58530  27.041  21.498   7.258
 4567POPC   C1B58531  26.370  21.188   6.131
 4567POPC   C2B58532  26.511  20.924   6.478
 4567POPC   C3B58533  26.627  21.212   6.793
 4567POPC   C4B58534  26.531  21.340   7.202
 4568POPC   NC358535  22.804  26.891   5.372
 4568POPC   PO458536  22.140  26.720   5.305
 4568POPC   GL158537  22.202  26.689   5.783
 4568POPC   GL258538  22.504  26.869   5.813
 4568POPC   C1A58539  22.183  26.759   6.272
 4568POPC   D2A58540  22.038  26.654   6.719
 4568POPC   C3A58541  21.978  26.931   7.087
 4568POPC   C4A58542  21.954  26.801   7.553
 4568POPC   C1B58543  22.694  26.780   6.203
 4568POPC   C2B58544  22.658  26.955   6.562
 4568POPC   C3B58545  22.464  26.846   6.931
 4568POPC   C4B58546  22.313  26.607   7.248
 4569POPC   NC358547  17.980  18.968   5.231
 4569POPC   PO458548  18.106  19.504   5.644
 4569POPC   GL158549  18.126  19.100   5.828
 4569POPC   GL258550  18.451  18.974   5.933
 4569POPC   C1A58551  18.111  19.135   6.288
 4569POPC   D2A58552  17.970  19.382   6.631
 4569POPC   C3A58553  18.180  19.205   6.980
 4569POPC   C4A58554  18.245  18.985   7.327
 4569POPC   C1B58555  18.553  18.796   6.343
 4569POPC   C2B58556  18.607  18.809   6.803
 4569POPC   C3B58557  18.726  19.026   7.170
 4569POPC   C4B58558  18.609  19.224   7.570
 4570POPC   NC358559  16.652   7.965   5.425
 4570POPC   PO458560  16.989   8.462   5.376
 4570POPC   GL158561  16.770   8.323   5.761
 4570POPC   GL258562  17.045   8.074   5.771
 4570POPC   C1A58563  16.469   8.255   6.140
 4570POPC   D2A58564  16.419   8.096   6.578
 4570POPC   C3A58565  16.759   8.289   6.848
 4570POPC   C4A58566  16.752   8.518   7.253
 4570POPC   C1B58567  17.025   8.242   6.189
 4570POPC   C2B58568  17.230   8.195   6.542
 4570POPC   C3B58569  17.171   7.989   6.896
 4570POPC   C4B58570  17.220   8.116   7.284
 4571POPC   NC358571  20.056   2.170   5.397
 4571POPC   PO458572  19.803   1.541   5.286
 4571POPC   GL158573  19.773   1.812   5.649
 4571POPC   GL258574  20.073   1.771   5.728
 4571POPC   C1A58575  19.770   2.028   6.078
 4571POPC   D2A58576  19.988   2.175   6.462
 4571POPC   C3A58577  19.834   2.175   6.899
 4571POPC   C4A58578  19.947   2.438   7.246
 4571POPC   C1B58579  20.186   1.544   6.054
 4571POPC   C2B58580  20.027   1.659   6.428
 4571POPC   C3B58581  20.211   1.804   6.794
 4571POPC   C4B58582  20.056   1.803   7.187
 4572POPC   NC358583   6.591  41.856   5.412
 4572POPC   PO458584   6.429  41.302   5.095
 4572POPC   GL158585   6.627  41.373   5.602
 4572POPC   GL258586   6.471  41.622   5.841
 4572POPC   C1A58587   6.671  41.227   6.078
 4572POPC   D2A58588   6.921  41.183   6.435
 4572POPC   C3A58589   6.787  41.472   6.731
 4572POPC   C4A58590   6.585  41.410   7.139
 4572POPC   C1B58591   6.400  41.717   6.320
 4572POPC   C2B58592   6.360  41.765   6.817
 4572POPC   C3B58593   6.338  41.831   7.297
 4572POPC   C4B58594   6.454  41.836   7.798
 4573POPC   NC358595  33.792  25.289   4.879
 4573POPC   PO458596  33.921  25.750   5.337
 4573POPC   GL158597  33.728  25.604   5.735
 4573POPC   GL258598  34.049  25.506   5.808
 4573POPC   C1A58599  33.638  25.413   6.176
 4573POPC   D2A58600  33.508  25.087   6.496
 4573POPC   C3A58601  33.665  25.220   6.890
 4573POPC   C4A58602  33.637  25.112   7.315
 4573POPC   C1B58603  34.079  25.687   6.197
 4573POPC   C2B58604  33.961  25.613   6.654
 4573POPC   C3B58605  34.024  25.548   7.110
 4573POPC   C4B58606  34.113  25.512   7.586
 4574POPC   NC358607   4.866  38.740   5.146
 4574POPC   PO458608   5.313  38.304   5.454
 4574POPC   GL158609   5.346  38.474   5.862
 4574POPC   GL258610   5.351  38.840   5.811
 4574POPC   C1A58611   5.117  38.397   6.259
 4574POPC   D2A58612   4.757  38.301   6.517
 4574POPC   C3A58613   4.781  38.445   6.937
 4574POPC   C4A58614   5.186  38.443   7.123
 4574POPC   C1B58615   5.182  38.918   6.240
 4574POPC   C2B58616   5.163  38.762   6.663
 4574POPC   C3B58617   5.311  38.917   7.075
 4574POPC   C4B58618   5.264  38.775   7.501
 4575POPC   NC358619  40.293  20.026   5.286
 4575POPC   PO458620  40.271  19.339   5.376
 4575POPC   GL158621  40.183  19.648   5.743
 4575POPC   GL258622  40.234  20.019   5.789
 4575POPC   C1A58623  40.139  19.631   6.203
 4575POPC   D2A58624  40.329  19.640   6.624
 4575POPC   C3A58625  40.170  19.929   6.942
 4575POPC   C4A58626  39.908  19.764   7.283
 4575POPC   C1B58627  39.867  20.053   6.060
 4575POPC   C2B58628  39.854  19.974   6.507
 4575POPC   C3B58629  39.668  20.038   6.901
 4575POPC   C4B58630  39.528  20.133   7.308
 4576POPC   NC358631  44.560  33.497   5.450
 4576POPC   PO458632  44.629  34.187   5.547
 4576POPC   GL158633  44.716  33.838   5.810
 4576POPC   GL258634  44.918  34.025   6.004
 4576POPC   C1A58635  44.492  33.585   6.139
 4576POPC   D2A58636  44.518  33.485   6.594
 4576POPC   C3A58637  44.477  33.846   6.870
 4576POPC   C4A58638  44.425  33.766   7.287
 4576POPC   C1B58639   0.006  33.611   6.203
 4576POPC   C2B58640   0.021  33.685   6.630
 4576POPC   C3B58641  44.909  33.668   7.049
 4576POPC   C4B58642  44.879  33.850   7.479
 4577POPC   NC358643  10.035  11.074   5.119
 4577POPC   PO458644  10.479  11.438   5.428
 4577POPC   GL158645  10.508  11.460   5.848
 4577POPC   GL258646  10.687  11.154   5.856
 4577POPC   C1A58647  10.306  11.310   6.244
 4577POPC   D2A58648  10.465  11.093   6.610
 4577POPC   C3A58649  10.499  11.387   6.931
 4577POPC   C4A58650  10.509  11.307   7.350
 4577POPC   C1B58651  10.803  11.317   6.269
 4577POPC   C2B58652  10.942  11.273   6.676
 4577POPC   C3B58653  10.879  11.080   7.051
 4577POPC   C4B58654  10.991  10.863   7.406
 4578POPC   NC358655  39.578  40.027   5.513
 4578POPC   PO458656  38.970  39.847   5.421
 4578POPC   GL158657  39.132  39.836   5.812
 4578POPC   GL258658  38.833  39.691   5.966
 4578POPC   C1A58659  39.159  40.160   6.160
 4578POPC   D2A58660  38.973  40.356   6.542
 4578POPC   C3A58661  39.069  40.201   6.961
 4578POPC   C4A58662  39.248  40.084   7.382
 4578POPC   C1B58663  39.138  39.668   6.288
 4578POPC   C2B58664  39.213  39.798   6.676
 4578POPC   C3B58665  38.981  39.687   7.021
 4578POPC   C4B58666  38.992  39.504   7.406
 4579POPC   NC358667  11.831  32.104   5.430
 4579POPC   PO458668  12.390  32.323   5.512
 4579POPC   GL158669  12.127  32.350   5.872
 4579POPC   GL258670  11.823  32.500   5.758
 4579POPC   C1A58671  12.106  32.008   6.172
 4579POPC   D2A58672  12.040  31.811   6.568
 4579POPC   C3A58673  12.140  32.110   6.892
 4579POPC   C4A58674  12.026  32.251   7.321
 4579POPC   C1B58675  11.688  32.632   6.151
 4579POPC   C2B58676  11.627  32.420   6.536
 4579POPC   C3B58677  11.792  32.477   6.926
 4579POPC   C4B58678  11.676  32.666   7.299
 4580POPC   NC358679  32.989  14.887   5.014
 4580POPC   PO458680  32.506  14.676   5.444
 4580POPC   GL158681  32.431  14.840   5.844
 4580POPC   GL258682  32.090  14.881   5.906
 4580POPC   C1A58683  32.419  15.035   6.267
 4580POPC   D2A58684  32.392  14.811   6.613
 4580POPC   C3A58685  32.449  14.973   7.008
 4580POPC   C4A58686  32.393  15.237   7.387
 4580POPC   C1B58687  31.945  14.782   6.345
 4580POPC   C2B58688  31.949  14.900   6.813
 4580POPC   C3B58689  31.931  15.161   7.147
 4580POPC   C4B58690  31.626  15.364   7.426
 4581POPC   NC358691  39.915  27.046   5.622
 4581POPC   PO458692  40.210  27.619   5.389
 4581POPC   GL158693  40.024  27.541   5.781
 4581POPC   GL258694  39.704  27.681   5.763
 4581POPC   C1A58695  40.131  27.414   6.203
 4581POPC   D2A58696  40.000  27.339   6.613
 4581POPC   C3A58697  40.290  27.503   6.914
 4581POPC   C4A58698  40.325  27.678   7.322
 4581POPC   C1B58699  39.633  27.534   6.193
 4581POPC   C2B58700  39.656  27.751   6.624
 4581POPC   C3B58701  39.822  27.642   7.052
 4581POPC   C4B58702  39.780  27.358   7.414
 4582POPC   NC358703   3.736  10.942   5.425
 4582POPC   PO458704   3.189  11.293   5.457
 4582POPC   GL158705   3.351  11.431   5.838
 4582POPC   GL258706   3.667  11.286   5.794
 4582POPC   C1A58707   3.215  11.342   6.256
 4582POPC   D2A58708   3.123  11.149   6.651
 4582POPC   C3A58709   3.231  11.409   6.988
 4582POPC   C4A58710   3.427  11.428   7.423
 4582POPC   C1B58711   3.762  11.249   6.215
 4582POPC   C2B58712   3.615  11.342   6.616
 4582POPC   C3B58713   3.688  11.179   7.010
 4582POPC   C4B58714   3.798  11.010   7.376
 4583POPC   NC358715  41.579  23.146   5.573
 4583POPC   PO458716  41.840  22.566   5.266
 4583POPC   GL158717  41.773  22.688   5.729
 4583POPC   GL258718  41.423  22.742   5.879
 4583POPC   C1A58719  41.825  22.758   6.198
 4583POPC   D2A58720  41.685  23.017   6.568
 4583POPC   C3A58721  41.825  22.845   6.965
 4583POPC   C4A58722  42.007  22.990   7.335
 4583POPC   C1B58723  41.335  23.102   6.169
 4583POPC   C2B58724  41.202  23.222   6.584
 4583POPC   C3B58725  41.327  23.015   6.962
 4583POPC   C4B58726  41.219  22.774   7.328
 4584POPC   NC358727  23.669   1.444   5.605
 4584POPC   PO458728  23.770   2.101   5.567
 4584POPC   GL158729  23.627   1.877   5.894
 4584POPC   GL258730  23.298   1.932   5.759
 4584POPC   C1A58731  23.690   1.970   6.315
 4584POPC   D2A58732  23.705   2.259   6.653
 4584POPC   C3A58733  23.823   2.174   7.059
 4584POPC   C4A58734  24.193   2.337   7.267
 4584POPC   C1B58735  23.225   2.088   6.154
 4584POPC   C2B58736  23.260   1.997   6.593
 4584POPC   C3B58737  23.407   1.848   6.973
 4584POPC   C4B58738  23.286   1.627   7.329
 4585POPC   NC358739  17.880  24.576   5.436
 4585POPC   PO458740  18.487  24.736   5.368
 4585POPC   GL158741  18.432  24.569   5.760
 4585POPC   GL258742  18.155  24.339   5.863
 4585POPC   C1A58743  18.521  24.609   6.177
 4585POPC   D2A58744  18.337  24.512   6.555
 4585POPC   C3A58745  18.622  24.432   6.896
 4585POPC   C4A58746  18.489  24.388   7.300
 4585POPC   C1B58747  18.005  24.649   6.156
 4585POPC   C2B58748  17.832  24.673   6.593
 4585POPC   C3B58749  17.933  24.668   7.035
 4585POPC   C4B58750  18.005  24.461   7.432
 4586POPC   NC358751   9.051  11.837   5.384
 4586POPC   PO458752   8.490  12.159   5.472
 4586POPC   GL158753   8.764  12.112   5.799
 4586POPC   GL258754   8.589  11.963   6.001
 4586POPC   C1A58755   9.046  12.048   6.194
 4586POPC   D2A58756   9.239  12.045   6.615
 4586POPC   C3A58757   9.244  11.860   7.022
 4586POPC   C4A58758   9.206  12.193   7.314
 4586POPC   C1B58759   8.536  12.216   6.296
 4586POPC   C2B58760   8.661  12.142   6.672
 4586POPC   C3B58761   8.772  12.071   7.039
 4586POPC   C4B58762   8.658  12.099   7.416
 4587POPC   NC358763  13.714  44.926   5.453
 4587POPC   PO458764  13.604  44.209   5.476
 4587POPC   GL158765  13.506  44.361   5.898
 4587POPC   GL258766  13.341  44.684   5.854
 4587POPC   C1A58767  13.482  44.335   6.340
 4587POPC   D2A58768  13.638  44.555   6.696
 4587POPC   C3A58769  13.612  44.428   7.097
 4587POPC   C4A58770  13.840  44.503   7.457
 4587POPC   C1B58771  13.511  44.833   6.255
 4587POPC   C2B58772  13.397   0.044   6.657
 4587POPC   C3B58773  13.290  44.854   7.011
 4587POPC   C4B58774  13.425  44.781   7.406
 4588POPC   NC358775  33.828  14.496   5.471
 4588POPC   PO458776  33.814  13.880   5.524
 4588POPC   GL158777  33.863  14.167   5.866
 4588POPC   GL258778  33.575  14.419   5.909
 4588POPC   C1A58779  34.094  14.182   6.274
 4588POPC   D2A58780  34.270  14.263   6.692
 4588POPC   C3A58781  33.945  14.472   6.903
 4588POPC   C4A58782  33.730  14.303   7.218
 4588POPC   C1B58783  33.575  14.172   6.286
 4588POPC   C2B58784  33.562  14.194   6.707
 4588POPC   C3B58785  33.443  14.576   6.916
 4588POPC   C4B58786  33.430  14.698   7.306
 4589POPC   NC358787  10.400  35.132   5.445
 4589POPC   PO458788   9.994  35.659   5.532
 4589POPC   GL158789  10.222  35.395   5.856
 4589POPC   GL258790  10.594  35.260   5.888
 4589POPC   C1A58791  10.261  35.315   6.294
 4589POPC   D2A58792  10.468  35.308   6.670
 4589POPC   C3A58793  10.210  35.377   7.019
 4589POPC   C4A58794  10.475  35.315   7.344
 4589POPC   C1B58795  10.681  35.003   6.272
 4589POPC   C2B58796  10.722  34.820   6.685
 4589POPC   C3B58797  10.757  35.053   7.033
 4589POPC   C4B58798  10.912  35.032   7.449
 4590POPC   NC358799  34.487  32.729   5.555
 4590POPC   PO458800  34.362  33.406   5.358
 4590POPC   GL158801  34.577  33.292   5.801
 4590POPC   GL258802  34.351  33.187   6.139
 4590POPC   C1A58803  34.850  33.131   6.166
 4590POPC   D2A58804  34.656  32.938   6.561
 4590POPC   C3A58805  34.898  32.966   6.953
 4590POPC   C4A58806  34.888  33.150   7.345
 4590POPC   C1B58807  34.095  32.883   6.374
 4590POPC   C2B58808  34.180  32.605   6.704
 4590POPC   C3B58809  34.393  32.864   7.017
 4590POPC   C4B58810  34.447  32.979   7.460
 4591POPC   NC358811  13.486   8.333   5.474
 4591POPC   PO458812  13.693   7.656   5.477
 4591POPC   GL158813  13.781   7.893   5.907
 4591POPC   GL258814  13.607   8.219   5.948
 4591POPC   C1A58815  13.716   8.016   6.386
 4591POPC   D2A58816  13.480   8.046   6.782
 4591POPC   C3A58817  13.761   7.959   7.136
 4591POPC   C4A58818  13.843   8.170   7.505
 4591POPC   C1B58819  13.295   8.453   6.215
 4591POPC   C2B58820  13.081   8.468   6.605
 4591POPC   C3B58821  13.320   8.508   6.969
 4591POPC   C4B58822  13.375   8.239   7.276
 4592POPC   NC358823  19.483   9.472   5.592
 4592POPC   PO458824  19.028   9.110   5.237
 4592POPC   GL158825  19.069   8.978   5.685
 4592POPC   GL258826  19.194   9.217   5.922
 4592POPC   C1A58827  18.938   8.762   6.067
 4592POPC   D2A58828  18.978   8.863   6.494
 4592POPC   C3A58829  18.795   8.854   6.913
 4592POPC   C4A58830  18.834   8.735   7.345
 4592POPC   C1B58831  19.229   9.343   6.366
 4592POPC   C2B58832  19.007   9.334   6.748
 4592POPC   C3B58833  19.224   9.347   7.121
 4592POPC   C4B58834  19.243   9.254   7.557
 4593POPC   NC358835  30.607  26.602   5.424
 4593POPC   PO458836  30.144  27.087   5.487
 4593POPC   GL158837  30.413  26.933   5.865
 4593POPC   GL258838  30.790  26.829   5.892
 4593POPC   C1A58839  30.536  26.984   6.312
 4593POPC   D2A58840  30.456  26.828   6.718
 4593POPC   C3A58841  30.551  27.052   7.080
 4593POPC   C4A58842  30.954  27.042   7.286
 4593POPC   C1B58843  31.088  26.799   6.270
 4593POPC   C2B58844  31.122  26.496   6.620
 4593POPC   C3B58845  30.935  26.465   7.032
 4593POPC   C4B58846  30.864  26.496   7.480
 4594POPC   NC358847  43.646  16.249   5.179
 4594POPC   PO458848  43.709  16.866   5.563
 4594POPC   GL158849  43.627  16.817   5.966
 4594POPC   GL258850  43.474  17.089   6.073
 4594POPC   C1A58851  43.750  16.537   6.299
 4594POPC   D2A58852  43.910  16.611   6.668
 4594POPC   C3A58853  43.807  16.444   7.058
 4594POPC   C4A58854  43.926  16.567   7.501
 4594POPC   C1B58855  43.888  17.062   6.327
 4594POPC   C2B58856  44.073  17.074   6.744
 4594POPC   C3B58857  43.943  17.051   7.207
 4594POPC   C4B58858  44.012  17.027   7.690
 4595POPC   NC358859   4.534  43.504   5.530
 4595POPC   PO458860   4.110  42.879   5.400
 4595POPC   GL158861   4.381  42.942   5.732
 4595POPC   GL258862   4.207  43.199   5.832
 4595POPC   C1A58863   4.566  42.904   6.151
 4595POPC   D2A58864   4.719  43.003   6.533
 4595POPC   C3A58865   4.538  42.781   6.878
 4595POPC   C4A58866   4.556  42.916   7.286
 4595POPC   C1B58867   4.308  43.352   6.232
 4595POPC   C2B58868   4.247  43.164   6.633
 4595POPC   C3B58869   4.333  43.300   7.045
 4595POPC   C4B58870   4.043  43.058   7.299
 4596POPC   NC358871  29.880  25.069   5.461
 4596POPC   PO458872  29.919  25.744   5.207
 4596POPC   GL158873  29.994  25.605   5.655
 4596POPC   GL258874  29.667  25.659   5.790
 4596POPC   C1A58875  30.087  25.566   6.133
 4596POPC   D2A58876  30.273  25.596   6.579
 4596POPC   C3A58877  30.027  25.314   6.878
 4596POPC   C4A58878  30.148  25.027   7.233
 4596POPC   C1B58879  29.632  25.807   6.190
 4596POPC   C2B58880  29.754  25.654   6.562
 4596POPC   C3B58881  29.541  25.572   6.939
 4596POPC   C4B58882  29.687  25.366   7.280
 4597POPC   NC358883  32.691  10.190   5.552
 4597POPC   PO458884  32.993   9.608   5.621
 4597POPC   GL158885  33.099   9.810   5.946
 4597POPC   GL258886  33.082  10.159   5.899
 4597POPC   C1A58887  33.247   9.673   6.324
 4597POPC   D2A58888  33.400   9.771   6.691
 4597POPC   C3A58889  33.074   9.680   6.954
 4597POPC   C4A58890  32.928   9.452   7.271
 4597POPC   C1B58891  33.189  10.188   6.342
 4597POPC   C2B58892  33.230  10.237   6.780
 4597POPC   C3B58893  33.257  10.103   7.174
 4597POPC   C4B58894  32.959   9.947   7.426
 4598POPC   NC358895   5.724   7.716   5.218
 4598POPC   PO458896   6.060   7.196   5.352
 4598POPC   GL158897   5.952   7.350   5.761
 4598POPC   GL258898   5.631   7.529   5.686
 4598POPC   C1A58899   5.968   7.276   6.235
 4598POPC   D2A58900   6.170   7.406   6.601
 4598POPC   C3A58901   6.147   7.188   6.955
 4598POPC   C4A58902   6.335   7.260   7.290
 4598POPC   C1B58903   5.659   7.644   6.095
 4598POPC   C2B58904   5.741   7.677   6.527
 4598POPC   C3B58905   5.667   7.361   6.837
 4598POPC   C4B58906   5.750   7.378   7.216
 4599POPC   NC358907   7.401   1.790   5.468
 4599POPC   PO458908   7.371   1.122   5.466
 4599POPC   GL158909   7.227   1.294   5.853
 4599POPC   GL258910   7.392   1.602   5.951
 4599POPC   C1A58911   7.363   1.148   6.265
 4599POPC   D2A58912   7.510   0.934   6.627
 4599POPC   C3A58913   7.336   1.075   7.023
 4599POPC   C4A58914   7.493   1.134   7.439
 4599POPC   C1B58915   7.088   1.592   6.275
 4599POPC   C2B58916   7.129   1.394   6.671
 4599POPC   C3B58917   7.418   1.562   6.980
 4599POPC   C4B58918   7.377   1.629   7.408
 4600POPC   NC358919  40.853  10.258   5.227
 4600POPC   PO458920  40.507  10.749   5.507
 4600POPC   GL158921  40.753  10.451   5.747
 4600POPC   GL258922  40.902  10.675   5.982
 4600POPC   C1A58923  40.795  10.178   6.147
 4600POPC   D2A58924  40.658  10.202   6.606
 4600POPC   C3A58925  40.877  10.328   7.002
 4600POPC   C4A58926  40.728  10.437   7.444
 4600POPC   C1B58927  40.841  10.638   6.410
 4600POPC   C2B58928  40.675  10.791   6.787
 4600POPC   C3B58929  40.887  10.839   7.180
 4600POPC   C4B58930  41.070  10.844   7.604
 4601POPC   NC358931  30.639  12.602   5.521
 4601POPC   PO458932  31.300  12.618   5.719
 4601POPC   GL158933  30.901  12.698   5.951
 4601POPC   GL258934  30.622  12.933   5.914
 4601POPC   C1A58935  30.702  12.761   6.367
 4601POPC   D2A58936  30.934  12.859   6.729
 4601POPC   C3A58937  30.716  12.765   7.075
 4601POPC   C4A58938  30.499  12.590   7.403
 4601POPC   C1B58939  30.992  13.123   6.216
 4601POPC   C2B58940  31.050  13.340   6.613
 4601POPC   C3B58941  30.879  13.305   7.043
 4601POPC   C4B58942  30.728  13.110   7.440
 4602POPC   NC358943  13.072  42.703   5.353
 4602POPC   PO458944  12.805  42.058   5.373
 4602POPC   GL158945  13.010  42.072   5.806
 4602POPC   GL258946  12.785  42.319   5.922
 4602POPC   C1A58947  12.948  42.093   6.325
 4602POPC   D2A58948  12.648  42.149   6.641
 4602POPC   C3A58949  12.776  42.157   7.081
 4602POPC   C4A58950  12.782  42.139   7.562
 4602POPC   C1B58951  12.681  42.554   6.313
 4602POPC   C2B58952  12.644  42.669   6.764
 4602POPC   C3B58953  12.865  42.632   7.169
 4602POPC   C4B58954  12.764  42.646   7.596
 4603POPC   NC358955  14.399   3.984   5.533
 4603POPC   PO458956  14.199   4.584   5.295
 4603POPC   GL158957  14.396   4.565   5.711
 4603POPC   GL258958  14.743   4.423   5.726
 4603POPC   C1A58959  14.395   4.365   6.142
 4603POPC   D2A58960  14.607   4.275   6.525
 4603POPC   C3A58961  14.488   3.980   6.835
 4603POPC   C4A58962  14.306   4.223   7.151
 4603POPC   C1B58963  14.839   4.608   6.146
 4603POPC   C2B58964  14.758   4.811   6.567
 4603POPC   C3B58965  14.680   4.551   6.957
 4603POPC   C4B58966  14.645   4.562   7.415
 4604POPC   NC358967  11.731  15.078   5.424
 4604POPC   PO458968  12.282  14.729   5.526
 4604POPC   GL158969  12.295  15.103   5.838
 4604POPC   GL258970  12.003  15.323   5.806
 4604POPC   C1A58971  12.224  15.293   6.264
 4604POPC   D2A58972  12.408  15.298   6.671
 4604POPC   C3A58973  12.280  15.046   7.010
 4604POPC   C4A58974  12.431  15.242   7.376
 4604POPC   C1B58975  11.728  15.353   6.175
 4604POPC   C2B58976  11.872  15.442   6.616
 4604POPC   C3B58977  12.097  15.514   7.034
 4604POPC   C4B58978  11.950  15.339   7.440
 4605POPC   NC358979  19.899  28.511   5.435
 4605POPC   PO458980  20.409  28.075   5.459
 4605POPC   GL158981  20.134  28.217   5.809
 4605POPC   GL258982  20.245  28.565   5.813
 4605POPC   C1A58983  19.735  28.221   6.086
 4605POPC   D2A58984  19.595  28.318   6.532
 4605POPC   C3A58985  19.600  28.164   6.962
 4605POPC   C4A58986  19.778  28.320   7.351
 4605POPC   C1B58987  20.117  28.505   6.252
 4605POPC   C2B58988  20.069  28.114   6.508
 4605POPC   C3B58989  20.113  28.090   6.948
 4605POPC   C4B58990  20.404  28.179   7.234
 4606POPC   NC358991   2.837  10.506   5.435
 4606POPC   PO458992   2.308  10.023   5.325
 4606POPC   GL158993   2.541  10.092   5.734
 4606POPC   GL258994   2.921  10.138   5.782
 4606POPC   C1A58995   2.503  10.279   6.159
 4606POPC   D2A58996   2.519  10.496   6.571
 4606POPC   C3A58997   2.475  10.269   6.960
 4606POPC   C4A58998   2.506  10.489   7.303
 4606POPC   C1B58999   3.003  10.501   6.086
 4606POPC   C2B59000   3.027  10.620   6.518
 4606POPC   C3B59001   2.973  10.382   6.863
 4606POPC   C4B59002   3.047  10.432   7.254
 4607POPC   NC359003   5.766  27.655   5.133
 4607POPC   PO459004   5.871  27.138   5.498
 4607POPC   GL159005   5.849  27.358   5.899
 4607POPC   GL259006   5.649  27.159   6.100
 4607POPC   C1A59007   5.697  27.749   6.140
 4607POPC   D2A59008   5.385  27.841   6.517
 4607POPC   C3A59009   5.511  27.818   6.991
 4607POPC   C4A59010   5.457  27.919   7.479
 4607POPC   C1B59011   5.711  27.404   6.489
 4607POPC   C2B59012   5.898  27.809   6.628
 4607POPC   C3B59013   6.010  27.697   7.033
 4607POPC   C4B59014   5.975  27.223   7.142
 4608POPC   NC359015  10.357  34.314   5.442
 4608POPC   PO459016  10.778  34.835   5.543
 4608POPC   GL159017  10.519  34.714   5.875
 4608POPC   GL259018  10.317  34.420   5.916
 4608POPC   C1A59019  10.598  34.488   6.304
 4608POPC   D2A59020  10.386  34.379   6.646
 4608POPC   C3A59021  10.645  34.363   6.957
 4608POPC   C4A59022  10.787  34.581   7.223
 4608POPC   C1B59023  10.164  34.764   6.218
 4608POPC   C2B59024  10.197  34.870   6.637
 4608POPC   C3B59025  10.301  34.842   7.054
 4608POPC   C4B59026  10.428  34.833   7.483
 4609POPC   NC359027  35.042  42.988   5.454
 4609POPC   PO459028  35.725  43.120   5.434
 4609POPC   GL159029  35.443  43.226   5.819
 4609POPC   GL259030  35.075  43.230   5.896
 4609POPC   C1A59031  35.410  43.291   6.269
 4609POPC   D2A59032  35.296  43.060   6.640
 4609POPC   C3A59033  35.251  43.263   7.010
 4609POPC   C4A59034  35.517  43.010   7.285
 4609POPC   C1B59035  35.170  42.850   6.125
 4609POPC   C2B59036  34.933  42.701   6.458
 4609POPC   C3B59037  34.803  42.824   6.824
 4609POPC   C4B59038  35.079  42.795   7.150
 4610POPC   NC359039   2.681  33.614   5.334
 4610POPC   PO459040   2.683  34.257   5.342
 4610POPC   GL159041   2.810  34.019   5.686
 4610POPC   GL259042   2.499  33.895   5.717
 4610POPC   C1A59043   2.782  33.948   6.144
 4610POPC   D2A59044   2.917  33.694   6.474
 4610POPC   C3A59045   2.774  33.817   6.886
 4610POPC   C4A59046   2.945  33.913   7.280
 4610POPC   C1B59047   2.470  33.549   6.037
 4610POPC   C2B59048   2.429  33.511   6.478
 4610POPC   C3B59049   2.371  33.464   6.905
 4610POPC   C4B59050   2.589  33.523   7.288
 4611POPC   NC359051  14.149  17.911   5.454
 4611POPC   PO459052  14.810  17.722   5.267
 4611POPC   GL159053  14.654  17.622   5.711
 4611POPC   GL259054  14.310  17.605   5.842
 4611POPC   C1A59055  14.745  17.575   6.182
 4611POPC   D2A59056  14.741  17.248   6.528
 4611POPC   C3A59057  14.707  17.370   6.974
 4611POPC   C4A59058  14.728  17.574   7.386
 4611POPC   C1B59059  14.083  17.586   6.254
 4611POPC   C2B59060  14.215  17.725   6.669
 4611POPC   C3B59061  14.306  17.702   7.113
 4611POPC   C4B59062  14.274  17.346   7.403
 4612POPC   NC359063  20.082   8.684   5.449
 4612POPC   PO459064  20.242   9.362   5.518
 4612POPC   GL159065  19.939   9.284   5.826
 4612POPC   GL259066  19.686   9.012   5.811
 4612POPC   C1A59067  19.866   9.237   6.259
 4612POPC   D2A59068  19.885   8.988   6.589
 4612POPC   C3A59069  19.997   9.150   6.986
 4612POPC   C4A59070  19.937   8.955   7.360
 4612POPC   C1B59071  19.467   8.914   6.230
 4612POPC   C2B59072  19.414   8.965   6.695
 4612POPC   C3B59073  19.668   8.728   6.982
 4612POPC   C4B59074  19.428   8.892   7.270
 4613POPC   NC359075   1.050  24.933   5.459
 4613POPC   PO459076   1.671  25.240   5.421
 4613POPC   GL159077   1.364  25.204   5.757
 4613POPC   GL259078   1.121  25.438   5.607
 4613POPC   C1A59079   1.273  25.073   6.194
 4613POPC   D2A59080   1.284  25.235   6.614
 4613POPC   C3A59081   1.151  25.027   6.991
 4613POPC   C4A59082   1.464  25.064   7.315
 4613POPC   C1B59083   0.981  25.492   6.032
 4613POPC   C2B59084   0.924  25.561   6.473
 4613POPC   C3B59085   0.999  25.662   6.887
 4613POPC   C4B59086   1.107  25.478   7.256
 4614POPC   NC359087  14.299   8.737   5.448
 4614POPC   PO459088  14.405   9.432   5.475
 4614POPC   GL159089  14.445   9.103   5.766
 4614POPC   GL259090  14.695   8.806   5.801
 4614POPC   C1A59091  14.201   8.965   6.107
 4614POPC   D2A59092  14.334   8.964   6.514
 4614POPC   C3A59093  14.119   9.128   6.843
 4614POPC   C4A59094  14.150   8.832   7.154
 4614POPC   C1B59095  14.730   9.070   6.196
 4614POPC   C2B59096  14.803   9.177   6.653
 4614POPC   C3B59097  14.640   9.031   7.076
 4614POPC   C4B59098  14.541   8.912   7.522
 4615POPC   NC359099  29.999  40.931   5.231
 4615POPC   PO459100  30.100  40.502   5.691
 4615POPC   GL159101  29.921  40.679   6.010
 4615POPC   GL259102  29.575  40.586   5.930
 4615POPC   C1A59103  29.718  40.919   6.317
 4615POPC   D2A59104  29.694  41.152   6.677
 4615POPC   C3A59105  29.913  40.976   7.006
 4615POPC   C4A59106  29.968  41.065   7.409
 4615POPC   C1B59107  29.662  40.371   6.312
 4615POPC   C2B59108  29.873  40.547   6.684
 4615POPC   C3B59109  29.670  40.533   7.098
 4615POPC   C4B59110  29.634  40.672   7.551
 4616POPC   NC359111  26.623  25.552   5.552
 4616POPC   PO459112  27.158  25.206   5.376
 4616POPC   GL159113  27.033  25.097   5.805
 4616POPC   GL259114  27.015  25.455   5.903
 4616POPC   C1A59115  26.648  25.087   6.095
 4616POPC   D2A59116  26.535  25.279   6.535
 4616POPC   C3A59117  26.746  25.166   6.926
 4616POPC   C4A59118  26.769  25.342   7.368
 4616POPC   C1B59119  27.031  25.300   6.345
 4616POPC   C2B59120  27.118  25.453   6.759
 4616POPC   C3B59121  27.231  25.315   7.183
 4616POPC   C4B59122  27.171  25.562   7.603
 4617POPC   NC359123   0.895   3.560   5.650
 4617POPC   PO459124   0.418   3.554   5.130
 4617POPC   GL159125   0.383   3.811   5.693
 4617POPC   GL259126   0.193   3.617   5.944
 4617POPC   C1A59127   0.408   3.956   6.237
 4617POPC   D2A59128   0.353   3.769   6.691
 4617POPC   C3A59129   0.527   3.828   7.138
 4617POPC   C4A59130   0.316   3.547   7.497
 4617POPC   C1B59131   0.512   3.451   6.262
 4617POPC   C2B59132   0.485   3.269   6.661
 4617POPC   C3B59133   0.548   3.331   7.085
 4617POPC   C4B59134   0.797   3.384   7.467
 4618POPC   NC359135   6.322  14.382   5.608
 4618POPC   PO459136   6.908  14.574   5.363
 4618POPC   GL159137   6.790  14.165   5.647
 4618POPC   GL259138   6.793  14.397   5.895
 4618POPC   C1A59139   6.538  13.997   6.083
 4618POPC   D2A59140   6.391  14.160   6.496
 4618POPC   C3A59141   6.560  14.182   6.882
 4618POPC   C4A59142   6.523  14.358   7.251
 4618POPC   C1B59143   6.559  14.577   6.228
 4618POPC   C2B59144   6.695  14.750   6.618
 4618POPC   C3B59145   6.654  14.811   7.049
 4618POPC   C4B59146   6.953  14.757   7.369
 4619POPC   NC359147  26.443  26.859   5.196
 4619POPC   PO459148  27.058  26.659   5.387
 4619POPC   GL159149  26.862  26.826   5.750
 4619POPC   GL259150  26.533  26.897   5.704
 4619POPC   C1A59151  26.727  26.662   6.141
 4619POPC   D2A59152  26.793  26.772   6.534
 4619POPC   C3A59153  26.635  26.528   6.821
 4619POPC   C4A59154  26.654  26.666   7.214
 4619POPC   C1B59155  26.389  27.072   6.099
 4619POPC   C2B59156  26.496  27.191   6.491
 4619POPC   C3B59157  26.414  26.987   6.849
 4619POPC   C4B59158  26.358  27.075   7.245
 4620POPC   NC359159  20.476   6.748   5.403
 4620POPC   PO459160  20.976   6.265   5.405
 4620POPC   GL159161  20.696   6.386   5.760
 4620POPC   GL259162  20.302   6.342   5.764
 4620POPC   C1A59163  20.746   6.732   6.078
 4620POPC   D2A59164  20.558   6.781   6.494
 4620POPC   C3A59165  20.800   6.901   6.871
 4620POPC   C4A59166  20.639   6.943   7.305
 4620POPC   C1B59167  20.437   6.343   6.205
 4620POPC   C2B59168  20.628   6.279   6.612
 4620POPC   C3B59169  20.840   6.411   7.000
 4620POPC   C4B59170  20.846   6.243   7.379
 4621POPC   NC359171  19.460  12.723   5.408
 4621POPC   PO459172  18.786  12.783   5.290
 4621POPC   GL159173  19.007  12.828   5.719
 4621POPC   GL259174  19.214  13.142   5.834
 4621POPC   C1A59175  18.977  12.544   6.118
 4621POPC   D2A59176  19.117  12.463   6.569
 4621POPC   C3A59177  18.942  12.691   6.963
 4621POPC   C4A59178  18.804  13.084   7.210
 4621POPC   C1B59179  19.143  13.019   6.246
 4621POPC   C2B59180  19.289  12.958   6.655
 4621POPC   C3B59181  19.436  12.891   7.054
 4621POPC   C4B59182  19.386  12.911   7.493
 4622POPC   NC359183  24.513   3.998   5.572
 4622POPC   PO459184  24.144   3.487   5.285
 4622POPC   GL159185  24.330   3.301   5.723
 4622POPC   GL259186  24.672   3.401   5.786
 4622POPC   C1A59187  24.353   3.320   6.204
 4622POPC   D2A59188  24.319   3.553   6.603
 4622POPC   C3A59189  24.283   3.333   7.011
 4622POPC   C4A59190  24.257   3.295   7.477
 4622POPC   C1B59191  24.712   3.695   6.160
 4622POPC   C2B59192  24.744   3.847   6.583
 4622POPC   C3B59193  24.718   3.650   6.957
 4622POPC   C4B59194  24.741   3.361   7.289
 4623POPC   NC359195  37.230  13.685   5.549
 4623POPC   PO459196  36.578  13.458   5.291
 4623POPC   GL159197  36.727  13.565   5.719
 4623POPC   GL259198  37.018  13.366   5.876
 4623POPC   C1A59199  36.773  13.736   6.139
 4623POPC   D2A59200  36.698  13.545   6.528
 4623POPC   C3A59201  36.781  13.713   6.883
 4623POPC   C4A59202  36.692  13.689   7.281
 4623POPC   C1B59203  37.143  13.209   6.292
 4623POPC   C2B59204  37.241  13.347   6.716
 4623POPC   C3B59205  37.029  13.323   7.093
 4623POPC   C4B59206  37.093  13.454   7.509
 4624POPC   NC359207  37.975  12.124   5.411
 4624POPC   PO459208  37.425  11.762   5.651
 4624POPC   GL159209  37.642  11.974   5.914
 4624POPC   GL259210  37.995  12.153   5.930
 4624POPC   C1A59211  37.471  12.169   6.266
 4624POPC   D2A59212  37.619  12.365   6.620
 4624POPC   C3A59213  37.378  12.260   6.964
 4624POPC   C4A59214  37.553  12.000   7.240
 4624POPC   C1B59215  37.929  11.876   6.304
 4624POPC   C2B59216  37.845  11.927   6.715
 4624POPC   C3B59217  38.006  11.935   7.081
 4624POPC   C4B59218  38.025  12.348   7.219
 4625POPC   NC359219  25.350  23.748   5.023
 4625POPC   PO459220  25.328  23.798   5.718
 4625POPC   GL159221  25.213  23.950   6.087
 4625POPC   GL259222  25.439  24.231   6.024
 4625POPC   C1A59223  25.246  23.708   6.466
 4625POPC   D2A59224  25.585  23.450   6.617
 4625POPC   C3A59225  25.577  23.492   7.050
 4625POPC   C4A59226  25.194  23.609   7.167
 4625POPC   C1B59227  25.684  24.010   6.309
 4625POPC   C2B59228  25.664  23.935   6.705
 4625POPC   C3B59229  25.318  24.020   6.898
 4625POPC   C4B59230  25.506  24.014   7.240
 4626POPC   NC359231   1.895  24.842   5.354
 4626POPC   PO459232   2.264  25.443   5.195
 4626POPC   GL159233   2.070  25.496   5.630
 4626POPC   GL259234   2.057  25.164   5.756
 4626POPC   C1A59235   2.009  25.597   6.092
 4626POPC   D2A59236   1.874  25.549   6.526
 4626POPC   C3A59237   2.133  25.341   6.807
 4626POPC   C4A59238   2.157  25.358   7.229
 4626POPC   C1B59239   1.768  25.147   6.072
 4626POPC   C2B59240   1.769  25.051   6.473
 4626POPC   C3B59241   1.702  25.108   6.879
 4626POPC   C4B59242   1.962  24.888   7.158
 4627POPC   NC359243  16.344  38.863   5.613
 4627POPC   PO459244  16.640  39.397   5.350
 4627POPC   GL159245  16.673  39.252   5.758
 4627POPC   GL259246  16.330  39.343   5.818
 4627POPC   C1A59247  16.786  39.076   6.173
 4627POPC   D2A59248  16.643  39.084   6.607
 4627POPC   C3A59249  16.933  38.992   6.944
 4627POPC   C4A59250  16.804  38.930   7.363
 4627POPC   C1B59251  16.382  39.397   6.264
 4627POPC   C2B59252  16.395  39.724   6.567
 4627POPC   C3B59253  16.378  39.686   6.995
 4627POPC   C4B59254  16.574  39.353   7.197
 4628POPC   NC359255  37.629  12.885   5.563
 4628POPC   PO459256  37.562  12.303   5.298
 4628POPC   GL159257  37.580  12.459   5.815
 4628POPC   GL259258  37.888  12.674   5.967
 4628POPC   C1A59259  37.470  12.718   6.237
 4628POPC   D2A59260  37.731  12.851   6.614
 4628POPC   C3A59261  37.689  12.677   7.043
 4628POPC   C4A59262  37.771  12.788   7.482
 4628POPC   C1B59263  37.871  13.129   6.170
 4628POPC   C2B59264  37.816  13.342   6.590
 4628POPC   C3B59265  37.792  13.178   7.032
 4628POPC   C4B59266  37.417  13.068   7.279
 4629POPC   NC359267  14.908  32.803   5.203
 4629POPC   PO459268  15.560  33.010   5.434
 4629POPC   GL159269  15.405  33.129   5.861
 4629POPC   GL259270  15.590  33.451   5.883
 4629POPC   C1A59271  15.095  32.945   6.219
 4629POPC   D2A59272  14.726  32.987   6.562
 4629POPC   C3A59273  14.823  33.236   6.945
 4629POPC   C4A59274  15.130  33.028   7.195
 4629POPC   C1B59275  15.393  33.367   6.315
 4629POPC   C2B59276  15.470  32.997   6.604
 4629POPC   C3B59277  15.605  33.053   7.026
 4629POPC   C4B59278  15.467  33.422   7.233
 4630POPC   NC359279  25.575  33.275   5.338
 4630POPC   PO459280  25.133  32.726   5.330
 4630POPC   GL159281  25.068  33.038   5.680
 4630POPC   GL259282  25.385  33.173   5.813
 4630POPC   C1A59283  25.000  33.177   6.134
 4630POPC   D2A59284  25.178  32.855   6.433
 4630POPC   C3A59285  25.252  32.982   6.843
 4630POPC   C4A59286  25.207  33.149   7.235
 4630POPC   C1B59287  25.515  33.232   6.282
 4630POPC   C2B59288  25.619  33.362   6.734
 4630POPC   C3B59289  25.705  33.118   7.130
 4630POPC   C4B59290  25.586  32.879   7.531
 4631POPC   NC359291  36.493   9.316   5.459
 4631POPC   PO459292  35.828   9.373   5.216
 4631POPC   GL159293  36.045   9.156   5.650
 4631POPC   GL259294  36.334   9.190   5.910
 4631POPC   C1A59295  35.918   8.934   6.055
 4631POPC   D2A59296  35.878   9.067   6.499
 4631POPC   C3A59297  35.847   8.801   6.872
 4631POPC   C4A59298  35.953   8.977   7.271
 4631POPC   C1B59299  36.357   8.927   6.297
 4631POPC   C2B59300  36.309   8.723   6.668
 4631POPC   C3B59301  36.443   8.880   7.050
 4631POPC   C4B59302  36.577   8.866   7.466
 4632POPC   NC359303  20.402  25.297   5.404
 4632POPC   PO459304  21.036  25.470   5.541
 4632POPC   GL159305  20.672  25.378   5.855
 4632POPC   GL259306  20.477  25.053   5.853
 4632POPC   C1A59307  20.535  25.307   6.314
 4632POPC   D2A59308  20.552  25.096   6.744
 4632POPC   C3A59309  20.661  25.367   7.078
 4632POPC   C4A59310  20.390  25.574   7.287
 4632POPC   C1B59311  20.827  24.921   6.116
 4632POPC   C2B59312  20.995  24.939   6.538
 4632POPC   C3B59313  21.036  25.048   6.971
 4632POPC   C4B59314  20.931  24.905   7.416
 4633POPC   NC359315  24.697   5.434   5.500
 4633POPC   PO459316  24.151   5.057   5.384
 4633POPC   GL159317  24.266   4.934   5.793
 4633POPC   GL259318  24.617   5.035   5.851
 4633POPC   C1A59319  24.226   4.986   6.230
 4633POPC   D2A59320  24.224   5.220   6.612
 4633POPC   C3A59321  24.385   4.951   6.909
 4633POPC   C4A59322  24.394   4.988   7.327
 4633POPC   C1B59323  24.631   5.381   6.169
 4633POPC   C2B59324  24.644   5.569   6.596
 4633POPC   C3B59325  24.667   5.380   7.045
 4633POPC   C4B59326  24.670   5.346   7.509
 4634POPC   NC359327   3.270  21.166   5.673
 4634POPC   PO459328   3.798  21.600   5.486
 4634POPC   GL159329   3.660  21.464   5.829
 4634POPC   GL259330   3.314  21.646   5.809
 4634POPC   C1A59331   3.767  21.211   6.193
 4634POPC   D2A59332   3.573  21.204   6.607
 4634POPC   C3A59333   3.846  21.229   6.953
 4634POPC   C4A59334   3.668  21.277   7.332
 4634POPC   C1B59335   3.400  21.569   6.243
 4634POPC   C2B59336   3.368  21.701   6.622
 4634POPC   C3B59337   3.474  21.620   7.008
 4634POPC   C4B59338   3.224  21.581   7.338
 4635POPC   NC359339  18.189  37.029   5.368
 4635POPC   PO459340  18.809  37.103   5.580
 4635POPC   GL159341  18.451  36.837   5.780
 4635POPC   GL259342  18.210  36.500   5.793
 4635POPC   C1A59343  18.214  36.886   6.135
 4635POPC   D2A59344  18.212  36.711   6.525
 4635POPC   C3A59345  18.048  36.879   6.858
 4635POPC   C4A59346  18.180  36.959   7.230
 4635POPC   C1B59347  18.406  36.352   6.202
 4635POPC   C2B59348  18.409  36.241   6.663
 4635POPC   C3B59349  18.467  36.477   7.072
 4635POPC   C4B59350  18.477  36.655   7.507
 4636POPC   NC359351  26.959  14.112   5.630
 4636POPC   PO459352  26.544  13.670   5.423
 4636POPC   GL159353  26.656  13.670   5.835
 4636POPC   GL259354  26.991  13.653   5.897
 4636POPC   C1A59355  26.544  13.495   6.232
 4636POPC   D2A59356  26.591  13.375   6.672
 4636POPC   C3A59357  26.542  13.672   7.024
 4636POPC   C4A59358  26.813  13.775   7.376
 4636POPC   C1B59359  27.282  13.518   6.218
 4636POPC   C2B59360  27.318  13.556   6.672
 4636POPC   C3B59361  27.105  13.851   6.938
 4636POPC   C4B59362  27.216  14.167   7.237
 4637POPC   NC359363   6.412  30.097   5.402
 4637POPC   PO459364   5.842  29.968   5.070
 4637POPC   GL159365   5.939  29.964   5.593
 4637POPC   GL259366   6.039  30.268   5.763
 4637POPC   C1A59367   5.808  29.912   6.092
 4637POPC   D2A59368   5.863  29.706   6.543
 4637POPC   C3A59369   5.675  29.874   6.928
 4637POPC   C4A59370   5.684  30.161   7.279
 4637POPC   C1B59371   6.155  30.278   6.196
 4637POPC   C2B59372   6.238  30.098   6.630
 4637POPC   C3B59373   6.200  30.079   7.090
 4637POPC   C4B59374   6.122  30.393   7.419
 4638POPC   NC359375   1.484  24.160   4.972
 4638POPC   PO459376   1.032  24.471   5.446
 4638POPC   GL159377   1.319  24.468   5.781
 4638POPC   GL259378   1.135  24.658   5.938
 4638POPC   C1A59379   1.393  24.231   6.208
 4638POPC   D2A59380   1.243  24.207   6.606
 4638POPC   C3A59381   1.468  24.127   6.960
 4638POPC   C4A59382   1.273  24.167   7.339
 4638POPC   C1B59383   0.907  24.728   6.285
 4638POPC   C2B59384   0.931  24.645   6.674
 4638POPC   C3B59385   1.051  24.480   7.010
 4638POPC   C4B59386   1.138  24.657   7.419
 4639POPC   NC359387  34.873  14.190   5.587
 4639POPC   PO459388  34.273  14.386   5.412
 4639POPC   GL159389  34.346  14.401   5.859
 4639POPC   GL259390  34.098  14.613   5.993
 4639POPC   C1A59391  34.584  14.393   6.279
 4639POPC   D2A59392  34.830  14.526   6.661
 4639POPC   C3A59393  34.662  14.410   7.064
 4639POPC   C4A59394  34.259  14.328   7.260
 4639POPC   C1B59395  34.381  14.857   6.238
 4639POPC   C2B59396  34.232  14.799   6.636
 4639POPC   C3B59397  34.291  14.814   7.064
 4639POPC   C4B59398  34.497  14.732   7.463
 4640POPC   NC359399  34.210   1.016   5.270
 4640POPC   PO459400  33.773   1.543   5.455
 4640POPC   GL159401  33.684   1.385   5.841
 4640POPC   GL259402  33.965   1.206   5.867
 4640POPC   C1A59403  33.665   1.360   6.283
 4640POPC   D2A59404  33.689   1.100   6.659
 4640POPC   C3A59405  33.600   1.335   6.993
 4640POPC   C4A59406  33.811   1.472   7.335
 4640POPC   C1B59407  33.949   0.953   6.204
 4640POPC   C2B59408  34.216   0.834   6.532
 4640POPC   C3B59409  34.085   0.911   6.932
 4640POPC   C4B59410  33.696   0.871   7.201
 4641POPC   NC359411  41.772  23.933   5.595
 4641POPC   PO459412  41.343  23.473   5.346
 4641POPC   GL159413  41.453  23.572   5.794
 4641POPC   GL259414  41.346  23.869   5.915
 4641POPC   C1A59415  41.738  23.579   6.158
 4641POPC   D2A59416  41.710  23.804   6.571
 4641POPC   C3A59417  41.532  23.518   6.865
 4641POPC   C4A59418  41.902  23.342   7.002
 4641POPC   C1B59419  41.266  23.691   6.310
 4641POPC   C2B59420  41.232  23.939   6.694
 4641POPC   C3B59421  41.343  23.943   7.114
 4641POPC   C4B59422  41.724  23.764   7.273
 4642POPC   NC359423  20.363  37.335   5.126
 4642POPC   PO459424  20.682  36.832   5.469
 4642POPC   GL159425  20.851  36.799   5.849
 4642POPC   GL259426  21.183  36.619   5.858
 4642POPC   C1A59427  20.704  37.058   6.188
 4642POPC   D2A59428  20.481  37.203   6.548
 4642POPC   C3A59429  20.758  37.152   6.899
 4642POPC   C4A59430  20.641  36.848   7.192
 4642POPC   C1B59431  21.007  36.654   6.297
 4642POPC   C2B59432  21.088  36.786   6.706
 4642POPC   C3B59433  21.095  36.588   7.119
 4642POPC   C4B59434  20.885  36.577   7.555
 4643POPC   NC359435   9.511  41.092   5.375
 4643POPC   PO459436  10.087  40.659   5.373
 4643POPC   GL159437   9.811  40.561   5.711
 4643POPC   GL259438   9.556  40.823   5.803
 4643POPC   C1A59439   9.787  40.515   6.152
 4643POPC   D2A59440   9.989  40.437   6.510
 4643POPC   C3A59441   9.734  40.535   6.846
 4643POPC   C4A59442   9.955  40.777   7.129
 4643POPC   C1B59443   9.786  41.059   6.133
 4643POPC   C2B59444   9.780  40.961   6.570
 4643POPC   C3B59445   9.505  40.977   6.960
 4643POPC   C4B59446   9.515  40.733   7.366
 4644POPC   NC359447  24.962  44.173   5.488
 4644POPC   PO459448  25.544  43.763   5.469
 4644POPC   GL159449  25.329  43.962   5.796
 4644POPC   GL259450  25.042  43.748   5.787
 4644POPC   C1A59451  25.157  43.989   6.215
 4644POPC   D2A59452  25.309  44.117   6.603
 4644POPC   C3A59453  25.060  44.115   6.962
 4644POPC   C4A59454  25.224  43.826   7.269
 4644POPC   C1B59455  24.860  43.443   6.061
 4644POPC   C2B59456  25.008  43.549   6.432
 4644POPC   C3B59457  24.969  43.623   6.829
 4644POPC   C4B59458  24.972  43.372   7.174
 4645POPC   NC359459  39.993  26.343   5.406
 4645POPC   PO459460  40.339  25.787   5.533
 4645POPC   GL159461  40.161  26.140   5.881
 4645POPC   GL259462  39.803  26.194   5.864
 4645POPC   C1A59463  40.092  25.992   6.346
 4645POPC   D2A59464  40.301  25.689   6.638
 4645POPC   C3A59465  40.195  25.795   7.047
 4645POPC   C4A59466  40.070  26.197   7.156
 4645POPC   C1B59467  39.601  26.049   6.226
 4645POPC   C2B59468  39.568  25.925   6.630
 4645POPC   C3B59469  39.673  25.896   7.022
 4645POPC   C4B59470  39.762  25.592   7.274
 4646POPC   NC359471  11.909  38.975   5.575
 4646POPC   PO459472  12.343  38.414   5.492
 4646POPC   GL159473  12.188  38.361   5.894
 4646POPC   GL259474  11.858  38.502   5.912
 4646POPC   C1A59475  12.196  38.355   6.330
 4646POPC   D2A59476  12.297  38.487   6.724
 4646POPC   C3A59477  12.120  38.323   7.087
 4646POPC   C4A59478  12.091  38.029   7.400
 4646POPC   C1B59479  12.057  38.826   6.193
 4646POPC   C2B59480  12.113  38.957   6.604
 4646POPC   C3B59481  11.940  38.790   6.952
 4646POPC   C4B59482  12.057  38.786   7.340
 4647POPC   NC359483  40.651  19.444   5.614
 4647POPC   PO459484  40.772  20.150   5.476
 4647POPC   GL159485  40.889  19.895   5.836
 4647POPC   GL259486  40.607  19.734   6.025
 4647POPC   C1A59487  40.946  20.009   6.278
 4647POPC   D2A59488  40.708  19.997   6.651
 4647POPC   C3A59489  40.938  20.128   7.006
 4647POPC   C4A59490  40.874  20.072   7.417
 4647POPC   C1B59491  40.890  19.485   6.278
 4647POPC   C2B59492  41.038  19.590   6.693
 4647POPC   C3B59493  40.753  19.639   7.033
 4647POPC   C4B59494  40.347  19.506   7.157
 4648POPC   NC359495  34.650  20.373   5.394
 4648POPC   PO459496  34.125  20.881   5.456
 4648POPC   GL159497  34.408  20.802   5.886
 4648POPC   GL259498  34.616  20.484   5.877
 4648POPC   C1A59499  34.769  20.733   6.268
 4648POPC   D2A59500  34.820  20.534   6.679
 4648POPC   C3A59501  34.677  20.751   7.085
 4648POPC   C4A59502  34.259  20.861   7.282
 4648POPC   C1B59503  34.381  20.375   6.242
 4648POPC   C2B59504  34.408  20.209   6.680
 4648POPC   C3B59505  34.366  20.359   7.147
 4648POPC   C4B59506  34.287  20.403   7.627
 4649POPC   NC359507  35.020  39.820   5.074
 4649POPC   PO459508  35.124  40.305   5.527
 4649POPC   GL159509  35.297  40.156   5.895
 4649POPC   GL259510  35.422  39.839   5.773
 4649POPC   C1A59511  35.490  40.227   6.294
 4649POPC   D2A59512  35.367  40.028   6.663
 4649POPC   C3A59513  35.377  40.173   7.071
 4649POPC   C4A59514  35.351  39.994   7.504
 4649POPC   C1B59515  35.357  39.676   6.209
 4649POPC   C2B59516  35.541  39.560   6.641
 4649POPC   C3B59517  35.350  39.632   7.092
 4649POPC   C4B59518  35.155  39.523   7.529
 4650POPC   NC359519  10.342  21.427   5.536
 4650POPC   PO459520  10.734  21.875   5.259
 4650POPC   GL159521  10.835  21.465   5.648
 4650POPC   GL259522  10.638  21.127   5.813
 4650POPC   C1A59523  10.832  21.433   6.148
 4650POPC   D2A59524  10.755  21.281   6.576
 4650POPC   C3A59525  10.433  21.548   6.793
 4650POPC   C4A59526  10.432  21.562   7.233
 4650POPC   C1B59527  10.382  21.163   6.187
 4650POPC   C2B59528  10.321  21.000   6.598
 4650POPC   C3B59529  10.454  21.089   6.990
 4650POPC   C4B59530  10.655  20.923   7.269
 4651POPC   NC359531  11.556  41.795   5.526
 4651POPC   PO459532  11.568  41.115   5.350
 4651POPC   GL159533  11.320  41.355   5.675
 4651POPC   GL259534  11.619  41.415   5.895
 4651POPC   C1A59535  11.133  41.411   6.117
 4651POPC   D2A59536  11.287  41.424   6.573
 4651POPC   C3A59537  11.028  41.528   6.931
 4651POPC   C4A59538  10.901  41.260   7.252
 4651POPC   C1B59539  11.537  41.758   6.187
 4651POPC   C2B59540  11.514  41.916   6.601
 4651POPC   C3B59541  11.538  41.722   6.967
 4651POPC   C4B59542  11.524  41.400   7.195
 4652POPC   NC359543  18.224  18.617   5.602
 4652POPC   PO459544  18.522  18.001   5.709
 4652POPC   GL159545  18.346  18.291   5.987
 4652POPC   GL259546  17.976  18.294   5.921
 4652POPC   C1A59547  18.189  18.189   6.378
 4652POPC   D2A59548  18.116  17.926   6.692
 4652POPC   C3A59549  18.328  18.145   6.983
 4652POPC   C4A59550  18.136  18.206   7.317
 4652POPC   C1B59551  18.017  18.639   6.225
 4652POPC   C2B59552  18.104  18.742   6.671
 4652POPC   C3B59553  17.963  18.628   7.100
 4652POPC   C4B59554  18.032  18.601   7.575
 4653POPC   NC359555  31.201  21.295   5.465
 4653POPC   PO459556  31.429  21.853   5.148
 4653POPC   GL159557  31.591  21.701   5.610
 4653POPC   GL259558  31.614  21.319   5.779
 4653POPC   C1A59559  31.710  21.718   6.066
 4653POPC   D2A59560  31.829  21.415   6.383
 4653POPC   C3A59561  31.708  21.400   6.820
 4653POPC   C4A59562  31.449  21.590   7.116
 4653POPC   C1B59563  31.349  21.359   6.195
 4653POPC   C2B59564  31.264  21.155   6.625
 4653POPC   C3B59565  31.225  21.021   7.064
 4653POPC   C4B59566  31.518  21.024   7.391
 4654POPC   NC359567   5.931  33.398   5.331
 4654POPC   PO459568   5.718  32.750   5.293
 4654POPC   GL159569   5.888  32.740   5.732
 4654POPC   GL259570   5.942  33.104   5.817
 4654POPC   C1A59571   5.881  32.692   6.203
 4654POPC   D2A59572   5.926  32.968   6.559
 4654POPC   C3A59573   5.899  32.802   6.979
 4654POPC   C4A59574   5.994  32.682   7.407
 4654POPC   C1B59575   5.651  33.242   6.165
 4654POPC   C2B59576   5.643  33.410   6.590
 4654POPC   C3B59577   5.892  33.322   6.986
 4654POPC   C4B59578   5.823  33.189   7.396
 4655POPC   NC359579   1.164  12.483   5.386
 4655POPC   PO459580   1.549  12.067   5.631
 4655POPC   GL159581   1.234  11.974   5.873
 4655POPC   GL259582   1.005  12.231   5.804
 4655POPC   C1A59583   0.990  11.936   6.221
 4655POPC   D2A59584   1.104  11.780   6.547
 4655POPC   C3A59585   0.985  11.924   6.878
 4655POPC   C4A59586   1.153  12.000   7.235
 4655POPC   C1B59587   1.206  12.417   6.168
 4655POPC   C2B59588   1.064  12.357   6.588
 4655POPC   C3B59589   1.232  12.442   6.990
 4655POPC   C4B59590   1.326  12.434   7.437
 4656POPC   NC359591  22.563  27.842   5.541
 4656POPC   PO459592  23.035  27.326   5.409
 4656POPC   GL159593  22.950  27.566   5.769
 4656POPC   GL259594  22.637  27.401   5.825
 4656POPC   C1A59595  23.079  27.898   6.068
 4656POPC   D2A59596  23.132  27.712   6.463
 4656POPC   C3A59597  23.098  27.826   6.876
 4656POPC   C4A59598  23.167  27.500   7.148
 4656POPC   C1B59599  22.655  27.644   6.207
 4656POPC   C2B59600  22.676  27.480   6.609
 4656POPC   C3B59601  22.635  27.668   6.990
 4656POPC   C4B59602  22.795  27.807   7.355
 4657POPC   NC359603  30.899  15.368   4.968
 4657POPC   PO459604  30.689  14.852   5.326
 4657POPC   GL159605  30.571  14.991   5.742
 4657POPC   GL259606  30.253  15.198   5.688
 4657POPC   C1A59607  30.794  15.016   6.185
 4657POPC   D2A59608  31.051  14.985   6.606
 4657POPC   C3A59609  31.009  15.272   6.999
 4657POPC   C4A59610  31.116  15.346   7.468
 4657POPC   C1B59611  30.279  15.108   6.140
 4657POPC   C2B59612  30.456  15.148   6.553
 4657POPC   C3B59613  30.460  15.351   6.935
 4657POPC   C4B59614  30.642  15.501   7.319
 4658POPC   NC359615   4.497   1.021   5.594
 4658POPC   PO459616   4.479   1.674   5.586
 4658POPC   GL159617   4.368   1.515   5.995
 4658POPC   GL259618   4.130   1.322   5.837
 4658POPC   C1A59619   4.333   1.167   6.358
 4658POPC   D2A59620   4.542   0.923   6.731
 4658POPC   C3A59621   4.507   1.090   7.162
 4658POPC   C4A59622   4.421   1.537   7.212
 4658POPC   C1B59623   3.947   1.022   6.086
 4658POPC   C2B59624   3.847   1.022   6.528
 4658POPC   C3B59625   4.070   1.105   6.900
 4658POPC   C4B59626   4.053   1.206   7.346
 4659POPC   NC359627  18.184  43.575   5.378
 4659POPC   PO459628  18.751  43.828   5.366
 4659POPC   GL159629  18.590  43.566   5.722
 4659POPC   GL259630  18.361  43.847   5.783
 4659POPC   C1A59631  18.426  43.539   6.164
 4659POPC   D2A59632  18.575  43.714   6.566
 4659POPC   C3A59633  18.432  43.590   6.982
 4659POPC   C4A59634  18.367  43.692   7.411
 4659POPC   C1B59635  18.678  43.988   6.091
 4659POPC   C2B59636  18.638  44.228   6.475
 4659POPC   C3B59637  18.686  44.101   6.917
 4659POPC   C4B59638  18.652  44.108   7.372
 4660POPC   NC359639  22.067   6.241   5.140
 4660POPC   PO459640  22.257   5.752   5.527
 4660POPC   GL159641  22.187   5.728   5.900
 4660POPC   GL259642  22.496   5.521   5.929
 4660POPC   C1A59643  21.934   5.903   6.208
 4660POPC   D2A59644  22.098   6.021   6.613
 4660POPC   C3A59645  22.022   5.847   7.015
 4660POPC   C4A59646  22.068   6.130   7.398
 4660POPC   C1B59647  22.511   5.813   6.289
 4660POPC   C2B59648  22.556   5.793   6.733
 4660POPC   C3B59649  22.510   5.902   7.140
 4660POPC   C4B59650  22.264   5.692   7.453
 4661POPC   NC359651  39.134   5.529   5.457
 4661POPC   PO459652  38.786   4.931   5.438
 4661POPC   GL159653  39.082   5.068   5.791
 4661POPC   GL259654  39.235   5.346   5.914
 4661POPC   C1A59655  39.307   4.911   6.160
 4661POPC   D2A59656  39.497   5.064   6.519
 4661POPC   C3A59657  39.308   4.953   6.907
 4661POPC   C4A59658  39.492   5.126   7.248
 4661POPC   C1B59659  39.090   5.377   6.307
 4661POPC   C2B59660  39.033   5.399   6.725
 4661POPC   C3B59661  39.182   5.544   7.081
 4661POPC   C4B59662  39.008   5.237   7.289
 4662POPC   NC359663   5.561  12.953   5.617
 4662POPC   PO459664   6.081  12.528   5.577
 4662POPC   GL159665   6.248  12.607   5.960
 4662POPC   GL259666   6.130  12.311   6.106
 4662POPC   C1A59667   6.004  12.859   6.251
 4662POPC   D2A59668   6.018  12.849   6.684
 4662POPC   C3A59669   5.695  13.054   6.924
 4662POPC   C4A59670   6.024  13.110   7.188
 4662POPC   C1B59671   5.679  12.466   6.225
 4662POPC   C2B59672   5.574  12.589   6.674
 4662POPC   C3B59673   5.792  12.562   7.090
 4662POPC   C4B59674   5.605  12.495   7.516
 4663POPC   NC359675   2.315   1.372   5.491
 4663POPC   PO459676   2.912   1.114   5.233
 4663POPC   GL159677   2.819   1.297   5.625
 4663POPC   GL259678   2.785   0.990   5.800
 4663POPC   C1A59679   3.016   1.373   6.050
 4663POPC   D2A59680   3.004   1.323   6.526
 4663POPC   C3A59681   2.622   1.381   6.818
 4663POPC   C4A59682   2.593   1.291   7.272
 4663POPC   C1B59683   2.596   1.122   6.216
 4663POPC   C2B59684   2.361   1.496   6.358
 4663POPC   C3B59685   2.246   1.763   6.708
 4663POPC   C4B59686   2.234   1.616   7.121
 4664POPC   NC359687  28.489  43.625   5.386
 4664POPC   PO459688  27.963  44.000   5.337
 4664POPC   GL159689  28.140  43.853   5.732
 4664POPC   GL259690  27.859  43.962   5.867
 4664POPC   C1A59691  28.259  43.901   6.197
 4664POPC   D2A59692  28.567  44.170   6.444
 4664POPC   C3A59693  28.483  44.212   6.873
 4664POPC   C4A59694  28.405  44.016   7.235
 4664POPC   C1B59695  27.828  44.181   6.214
 4664POPC   C2B59696  28.066  44.319   6.556
 4664POPC   C3B59697  27.987  44.298   6.986
 4664POPC   C4B59698  28.221  44.502   7.297
 4665POPC   NC359699  14.468  31.319   5.381
 4665POPC   PO459700  13.951  31.767   5.437
 4665POPC   GL159701  14.177  31.485   5.783
 4665POPC   GL259702  14.557  31.479   5.852
 4665POPC   C1A59703  14.234  31.316   6.228
 4665POPC   D2A59704  14.359  31.485   6.647
 4665POPC   C3A59705  14.296  31.241   7.023
 4665POPC   C4A59706  14.248  31.440   7.449
 4665POPC   C1B59707  14.746  31.347   6.240
 4665POPC   C2B59708  14.870  31.434   6.652
 4665POPC   C3B59709  14.813  31.204   7.004
 4665POPC   C4B59710  14.613  31.110   7.405
 4666POPC   NC359711  16.740  11.636   5.335
 4666POPC   PO459712  17.103  11.157   5.578
 4666POPC   GL159713  16.928  11.165   5.926
 4666POPC   GL259714  16.624  11.247   5.762
 4666POPC   C1A59715  16.989  11.389   6.279
 4666POPC   D2A59716  16.795  11.539   6.641
 4666POPC   C3A59717  16.986  11.323   6.980
 4666POPC   C4A59718  16.915  11.160   7.379
 4666POPC   C1B59719  16.488  11.329   6.182
 4666POPC   C2B59720  16.325  11.319   6.598
 4666POPC   C3B59721  16.462  11.369   7.026
 4666POPC   C4B59722  16.173  11.527   7.314
 4667POPC   NC359723  15.241  31.169   5.444
 4667POPC   PO459724  14.966  30.441   5.358
 4667POPC   GL159725  14.974  30.631   5.779
 4667POPC   GL259726  14.898  31.021   5.822
 4667POPC   C1A59727  15.052  30.670   6.215
 4667POPC   D2A59728  14.985  30.957   6.511
 4667POPC   C3A59729  15.150  30.819   6.854
 4667POPC   C4A59730  14.983  30.798   7.279
 4667POPC   C1B59731  15.268  31.110   6.108
 4667POPC   C2B59732  15.508  30.877   6.451
 4667POPC   C3B59733  15.662  30.921   6.895
 4667POPC   C4B59734  15.478  30.691   7.234
 4668POPC   NC359735  22.829  15.295   5.308
 4668POPC   PO459736  23.327  15.573   5.611
 4668POPC   GL159737  23.067  15.283   5.894
 4668POPC   GL259738  22.886  14.953   5.778
 4668POPC   C1A59739  22.888  15.227   6.335
 4668POPC   D2A59740  22.747  15.491   6.703
 4668POPC   C3A59741  22.900  15.342   7.098
 4668POPC   C4A59742  22.914  15.399   7.529
 4668POPC   C1B59743  22.716  14.731   6.166
 4668POPC   C2B59744  22.781  14.717   6.627
 4668POPC   C3B59745  22.599  14.738   7.043
 4668POPC   C4B59746  22.534  15.039   7.374
 4669POPC   NC359747  27.734  22.511   5.320
 4669POPC   PO459748  27.467  21.898   5.326
 4669POPC   GL159749  27.374  22.001   5.770
 4669POPC   GL259750  27.181  21.679   5.810
 4669POPC   C1A59751  27.607  22.192   6.151
 4669POPC   D2A59752  27.827  22.098   6.543
 4669POPC   C3A59753  27.693  22.307   6.934
 4669POPC   C4A59754  27.710  22.105   7.315
 4669POPC   C1B59755  27.230  21.824   6.222
 4669POPC   C2B59756  27.438  21.764   6.580
 4669POPC   C3B59757  27.388  21.844   6.998
 4669POPC   C4B59758  27.522  21.637   7.336
 4670POPC   NC359759   2.564  33.007   5.413
 4670POPC   PO459760   3.093  33.373   5.383
 4670POPC   GL159761   2.861  33.299   5.821
 4670POPC   GL259762   2.617  33.022   5.906
 4670POPC   C1A59763   2.811  33.201   6.321
 4670POPC   D2A59764   2.819  33.295   6.767
 4670POPC   C3A59765   3.012  33.117   7.097
 4670POPC   C4A59766   2.991  33.282   7.502
 4670POPC   C1B59767   2.534  32.747   6.267
 4670POPC   C2B59768   2.540  32.889   6.667
 4670POPC   C3B59769   2.504  32.989   7.086
 4670POPC   C4B59770   2.691  32.876   7.443
 4671POPC   NC359771   2.871  26.694   5.495
 4671POPC   PO459772   2.612  27.345   5.527
 4671POPC   GL159773   2.721  26.988   5.897
 4671POPC   GL259774   2.700  26.578   5.954
 4671POPC   C1A59775   2.865  26.848   6.346
 4671POPC   D2A59776   2.877  26.673   6.784
 4671POPC   C3A59777   2.800  26.987   7.086
 4671POPC   C4A59778   3.043  27.139   7.448
 4671POPC   C1B59779   2.409  26.548   6.277
 4671POPC   C2B59780   2.382  26.700   6.685
 4671POPC   C3B59781   2.468  26.562   7.108
 4671POPC   C4B59782   2.216  26.581   7.489
 4672POPC   NC359783  33.902  44.316   5.444
 4672POPC   PO459784  33.824  44.903   5.486
 4672POPC   GL159785  33.907  44.752   5.889
 4672POPC   GL259786  33.573  44.775   5.927
 4672POPC   C1A59787  33.830  44.594   6.329
 4672POPC   D2A59788  33.810  44.368   6.730
 4672POPC   C3A59789  34.052  44.620   6.991
 4672POPC   C4A59790  34.008   0.016   7.212
 4672POPC   C1B59791  33.315  44.747   6.287
 4672POPC   C2B59792  33.345  44.593   6.688
 4672POPC   C3B59793  33.539  44.652   7.092
 4672POPC   C4B59794  33.572  44.888   7.488
 4673POPC   NC359795  19.042  22.753   5.417
 4673POPC   PO459796  19.049  23.405   5.726
 4673POPC   GL159797  19.017  22.991   5.870
 4673POPC   GL259798  19.264  22.707   5.881
 4673POPC   C1A59799  18.783  22.788   6.194
 4673POPC   D2A59800  18.855  22.619   6.596
 4673POPC   C3A59801  18.991  22.787   6.990
 4673POPC   C4A59802  19.325  22.575   7.239
 4673POPC   C1B59803  19.417  23.030   6.178
 4673POPC   C2B59804  19.460  23.228   6.578
 4673POPC   C3B59805  19.168  23.265   6.908
 4673POPC   C4B59806  19.205  23.167   7.313
 4674POPC   NC359807  11.932  39.751   5.312
 4674POPC   PO459808  12.300  39.248   5.409
 4674POPC   GL159809  12.124  39.367   5.820
 4674POPC   GL259810  12.458  39.459   5.872
 4674POPC   C1A59811  11.878  39.310   6.243
 4674POPC   D2A59812  12.020  39.451   6.664
 4674POPC   C3A59813  12.014  39.274   7.077
 4674POPC   C4A59814  11.934  39.236   7.517
 4674POPC   C1B59815  12.399  39.282   6.297
 4674POPC   C2B59816  12.535  39.354   6.719
 4674POPC   C3B59817  12.538  39.432   7.136
 4674POPC   C4B59818  12.435  39.113   7.386
 4675POPC   NC359819  31.231  10.155   5.338
 4675POPC   PO459820  31.633   9.598   5.373
 4675POPC   GL159821  31.462   9.868   5.694
 4675POPC   GL259822  31.245   9.606   5.771
 4675POPC   C1A59823  31.249  10.010   6.077
 4675POPC   D2A59824  31.237   9.765   6.472
 4675POPC   C3A59825  31.400   9.959   6.826
 4675POPC   C4A59826  31.317  10.006   7.250
 4675POPC   C1B59827  31.565   9.571   6.129
 4675POPC   C2B59828  31.715   9.581   6.594
 4675POPC   C3B59829  31.590   9.533   7.050
 4675POPC   C4B59830  31.636   9.676   7.492
 4676POPC   NC359831  16.518  23.894   5.450
 4676POPC   PO459832  17.221  23.703   5.405
 4676POPC   GL159833  16.991  23.857   5.770
 4676POPC   GL259834  16.769  23.584   5.842
 4676POPC   C1A59835  16.936  23.917   6.227
 4676POPC   D2A59836  17.028  23.696   6.605
 4676POPC   C3A59837  16.922  23.833   6.999
 4676POPC   C4A59838  17.022  23.726   7.384
 4676POPC   C1B59839  16.612  23.514   6.286
 4676POPC   C2B59840  16.515  23.691   6.717
 4676POPC   C3B59841  16.511  23.544   7.157
 4676POPC   C4B59842  16.263  23.671   7.525
 4677POPC   NC359843  15.663  36.619   5.483
 4677POPC   PO459844  15.644  37.267   5.333
 4677POPC   GL159845  15.879  37.170   5.702
 4677POPC   GL259846  16.065  36.848   5.736
 4677POPC   C1A59847  15.920  37.254   6.125
 4677POPC   D2A59848  15.877  36.988   6.493
 4677POPC   C3A59849  15.809  37.130   6.890
 4677POPC   C4A59850  15.890  36.913   7.260
 4677POPC   C1B59851  15.973  36.633   6.116
 4677POPC   C2B59852  16.183  36.590   6.515
 4677POPC   C3B59853  16.217  36.748   6.919
 4677POPC   C4B59854  16.276  36.583   7.349
 4678POPC   NC359855  16.286   5.779   5.381
 4678POPC   PO459856  15.684   5.979   5.292
 4678POPC   GL159857  15.699   5.827   5.718
 4678POPC   GL259858  16.073   5.826   5.869
 4678POPC   C1A59859  15.648   5.920   6.142
 4678POPC   D2A59860  15.967   5.849   6.461
 4678POPC   C3A59861  15.867   5.837   6.874
 4678POPC   C4A59862  15.608   5.854   7.200
 4678POPC   C1B59863  16.239   5.506   6.188
 4678POPC   C2B59864  16.339   5.527   6.632
 4678POPC   C3B59865  16.163   5.431   7.040
 4678POPC   C4B59866  16.135   5.744   7.321
 4679POPC   NC359867  11.379  26.522   5.379
 4679POPC   PO459868  11.299  27.138   5.465
 4679POPC   GL159869  11.195  27.000   5.877
 4679POPC   GL259870  11.259  26.658   5.849
 4679POPC   C1A59871  11.022  27.029   6.305
 4679POPC   D2A59872  11.194  27.197   6.686
 4679POPC   C3A59873  11.126  27.127   7.139
 4679POPC   C4A59874  11.318  27.060   7.572
 4679POPC   C1B59875  11.341  26.655   6.247
 4679POPC   C2B59876  11.146  26.612   6.627
 4679POPC   C3B59877  11.314  26.647   7.015
 4679POPC   C4B59878  11.443  26.502   7.426
 4680POPC   NC359879  16.949   8.937   5.379
 4680POPC   PO459880  16.286   9.173   5.357
 4680POPC   GL159881  16.544   9.182   5.724
 4680POPC   GL259882  16.248   9.126   5.929
 4680POPC   C1A59883  16.704   9.275   6.156
 4680POPC   D2A59884  16.649   9.087   6.539
 4680POPC   C3A59885  16.902   8.858   6.811
 4680POPC   C4A59886  16.844   9.057   7.201
 4680POPC   C1B59887  16.513   8.789   6.127
 4680POPC   C2B59888  16.490   8.601   6.552
 4680POPC   C3B59889  16.405   8.825   6.955
 4680POPC   C4B59890  16.413   8.897   7.426
 4681POPC   NC359891  21.719  27.437   5.573
 4681POPC   PO459892  21.338  27.956   5.624
 4681POPC   GL159893  21.433  27.688   5.925
 4681POPC   GL259894  21.739  27.812   5.963
 4681POPC   C1A59895  21.307  27.530   6.304
 4681POPC   D2A59896  21.170  27.723   6.672
 4681POPC   C3A59897  21.300  27.500   7.043
 4681POPC   C4A59898  21.125  27.575   7.446
 4681POPC   C1B59899  21.802  27.427   6.236
 4681POPC   C2B59900  21.699  27.480   6.669
 4681POPC   C3B59901  21.802  27.403   7.077
 4681POPC   C4B59902  21.641  27.181   7.415
 4682POPC   NC359903   3.997  23.913   5.620
 4682POPC   PO459904   3.353  24.052   5.395
 4682POPC   GL159905   3.410  23.802   5.800
 4682POPC   GL259906   3.666  23.551   5.786
 4682POPC   C1A59907   3.372  23.844   6.272
 4682POPC   D2A59908   3.485  23.752   6.726
 4682POPC   C3A59909   3.307  23.807   7.161
 4682POPC   C4A59910   3.384  23.988   7.627
 4682POPC   C1B59911   3.731  23.455   6.223
 4682POPC   C2B59912   3.831  23.382   6.673
 4682POPC   C3B59913   3.620  23.378   7.068
 4682POPC   C4B59914   3.737  23.657   7.384
 4683POPC   NC359915  21.452   3.959   5.400
 4683POPC   PO459916  20.964   4.402   5.406
 4683POPC   GL159917  21.167   4.217   5.802
 4683POPC   GL259918  21.541   4.300   5.754
 4683POPC   C1A59919  21.175   4.226   6.291
 4683POPC   D2A59920  21.248   4.151   6.749
 4683POPC   C3A59921  21.035   4.365   7.058
 4683POPC   C4A59922  21.164   4.761   7.253
 4683POPC   C1B59923  21.648   4.395   6.158
 4683POPC   C2B59924  21.695   4.187   6.518
 4683POPC   C3B59925  21.743   4.109   6.949
 4683POPC   C4B59926  21.480   4.327   7.271
 4684POPC   NC359927  20.501  16.961   5.032
 4684POPC   PO459928  20.411  16.475   5.461
 4684POPC   GL159929  20.558  16.499   5.861
 4684POPC   GL259930  20.850  16.314   5.862
 4684POPC   C1A59931  20.700  16.710   6.241
 4684POPC   D2A59932  20.546  16.950   6.598
 4684POPC   C3A59933  20.615  16.786   7.005
 4684POPC   C4A59934  20.816  16.934   7.368
 4684POPC   C1B59935  20.939  16.134   6.264
 4684POPC   C2B59936  20.824  16.147   6.699
 4684POPC   C3B59937  20.984  16.180   7.111
 4684POPC   C4B59938  20.789  16.438   7.365
 4685POPC   NC359939  37.173  29.843   5.578
 4685POPC   PO459940  36.767  30.213   5.106
 4685POPC   GL159941  36.724  30.097   5.645
 4685POPC   GL259942  36.608  29.728   5.751
 4685POPC   C1A59943  36.881  29.968   6.126
 4685POPC   D2A59944  37.109  30.093   6.506
 4685POPC   C3A59945  37.058  29.874   6.891
 4685POPC   C4A59946  37.049  29.796   7.315
 4685POPC   C1B59947  36.626  29.543   6.187
 4685POPC   C2B59948  36.644  29.772   6.577
 4685POPC   C3B59949  36.644  30.162   6.798
 4685POPC   C4B59950  36.864  30.319   7.148
 4686POPC   NC359951  37.065  38.349   5.138
 4686POPC   PO459952  36.492  38.399   5.343
 4686POPC   GL159953  36.734  38.272   5.767
 4686POPC   GL259954  37.073  38.081   5.698
 4686POPC   C1A59955  36.644  38.457   6.205
 4686POPC   D2A59956  36.815  38.784   6.471
 4686POPC   C3A59957  37.040  38.693   6.861
 4686POPC   C4A59958  36.814  38.597   7.219
 4686POPC   C1B59959  37.249  38.065   6.137
 4686POPC   C2B59960  37.254  38.256   6.548
 4686POPC   C3B59961  37.200  38.123   6.953
 4686POPC   C4B59962  37.102  38.201   7.372
 4687POPC   NC359963  27.279   6.091   5.388
 4687POPC   PO459964  26.848   6.556   5.380
 4687POPC   GL159965  26.811   6.609   5.786
 4687POPC   GL259966  26.539   6.454   5.809
 4687POPC   C1A59967  26.983   6.758   6.171
 4687POPC   D2A59968  26.762   6.928   6.523
 4687POPC   C3A59969  26.894   6.904   6.958
 4687POPC   C4A59970  26.825   6.628   7.316
 4687POPC   C1B59971  26.466   6.602   6.208
 4687POPC   C2B59972  26.324   6.700   6.621
 4687POPC   C3B59973  26.411   6.700   7.057
 4687POPC   C4B59974  26.385   6.415   7.438
 4688POPC   NC359975   4.640  27.456   5.289
 4688POPC   PO459976   5.343  27.524   5.282
 4688POPC   GL159977   5.090  27.647   5.665
 4688POPC   GL259978   5.362  27.547   5.832
 4688POPC   C1A59979   4.983  27.830   6.103
 4688POPC   D2A59980   4.858  27.638   6.511
 4688POPC   C3A59981   5.014  27.744   6.921
 4688POPC   C4A59982   5.023  28.031   7.272
 4688POPC   C1B59983   5.248  27.424   6.242
 4688POPC   C2B59984   5.201  27.275   6.637
 4688POPC   C3B59985   5.489  27.270   6.938
 4688POPC   C4B59986   5.526  27.428   7.332
 4689POPC   NC359987  10.675  29.677   5.381
 4689POPC   PO459988  10.223  29.352   5.811
 4689POPC   GL159989  10.494  29.743   5.871
 4689POPC   GL259990  10.271  29.995   5.931
 4689POPC   C1A59991  10.736  30.060   6.159
 4689POPC   D2A59992  10.705  30.214   6.618
 4689POPC   C3A59993  10.546  29.867   6.856
 4689POPC   C4A59994  10.623  29.768   7.276
 4689POPC   C1B59995  10.280  29.951   6.375
 4689POPC   C2B59996  10.049  29.832   6.721
 4689POPC   C3B59997  10.123  29.860   7.162
 4689POPC   C4B59998  10.356  30.213   7.189
 4690POPC   NC359999  34.183  30.464   5.466
 4690POPC   PO460000  34.360  31.102   5.536
 4690POPC   GL160001  34.058  30.976   5.843
 4690POPC   GL260002  33.731  30.781   5.789
 4690POPC   C1A60003  33.881  31.000   6.258
 4690POPC   D2A60004  33.724  30.735   6.603
 4690POPC   C3A60005  33.989  30.518   6.870
 4690POPC   C4A60006  34.065  30.772   7.231
 4690POPC   C1B60007  33.527  30.524   6.166
 4690POPC   C2B60008  33.378  30.358   6.615
 4690POPC   C3B60009  33.340  30.474   7.113
 4690POPC   C4B60010  33.420  30.377   7.619
 4691POPC   NC360011  30.197   3.373   5.529
 4691POPC   PO460012  29.836   4.012   5.445
 4691POPC   GL160013  30.016   3.789   5.809
 4691POPC   GL260014  29.853   3.450   5.887
 4691POPC   C1A60015  30.135   3.694   6.260
 4691POPC   D2A60016  30.310   3.761   6.694
 4691POPC   C3A60017  30.032   3.606   7.022
 4691POPC   C4A60018  29.776   3.885   7.243
 4691POPC   C1B60019  29.790   3.281   6.287
 4691POPC   C2B60020  29.691   3.490   6.669
 4691POPC   C3B60021  29.588   3.356   7.085
 4691POPC   C4B60022  29.841   3.125   7.392
 4692POPC   NC360023   7.649   4.735   5.351
 4692POPC   PO460024   7.481   5.344   5.478
 4692POPC   GL160025   7.226   5.118   5.733
 4692POPC   GL260026   7.380   4.850   5.779
 4692POPC   C1A60027   7.181   5.092   6.200
 4692POPC   D2A60028   7.488   5.160   6.573
 4692POPC   C3A60029   7.379   5.281   7.029
 4692POPC   C4A60030   7.575   5.585   7.337
 4692POPC   C1B60031   7.601   4.799   6.144
 4692POPC   C2B60032   7.421   4.653   6.513
 4692POPC   C3B60033   7.526   4.783   6.924
 4692POPC   C4B60034   7.389   4.677   7.292
 4693POPC   NC360035  38.091  28.427   5.616
 4693POPC   PO460036  38.699  28.139   5.464
 4693POPC   GL160037  38.510  28.219   5.854
 4693POPC   GL260038  38.569  28.570   5.814
 4693POPC   C1A60039  38.313  28.400   6.242
 4693POPC   D2A60040  38.061  28.426   6.615
 4693POPC   C3A60041  38.290  28.338   6.968
 4693POPC   C4A60042  38.383  28.191   7.397
 4693POPC   C1B60043  38.822  28.444   6.194
 4693POPC   C2B60044  38.749  28.418   6.629
 4693POPC   C3B60045  38.771  28.198   7.005
 4693POPC   C4B60046  39.036  28.305   7.307
 4694POPC   NC360047  25.668  19.114   5.517
 4694POPC   PO460048  26.344  18.969   5.529
 4694POPC   GL160049  26.126  19.014   5.869
 4694POPC   GL260050  26.086  19.354   5.829
 4694POPC   C1A60051  26.268  19.032   6.282
 4694POPC   D2A60052  26.361  19.189   6.683
 4694POPC   C3A60053  26.183  18.920   6.970
 4694POPC   C4A60054  25.765  18.888   7.127
 4694POPC   C1B60055  26.052  19.503   6.260
 4694POPC   C2B60056  25.899  19.423   6.690
 4694POPC   C3B60057  26.103  19.448   7.086
 4694POPC   C4B60058  26.285  19.580   7.490
 4695POPC   NC360059   7.899  26.306   5.490
 4695POPC   PO460060   7.171  26.078   5.475
 4695POPC   GL160061   7.361  25.898   5.865
 4695POPC   GL260062   7.735  25.863   5.778
 4695POPC   C1A60063   7.288  25.988   6.333
 4695POPC   D2A60064   7.374  26.308   6.654
 4695POPC   C3A60065   7.226  26.201   7.081
 4695POPC   C4A60066   7.246  26.496   7.459
 4695POPC   C1B60067   7.748  26.119   6.150
 4695POPC   C2B60068   7.812  25.996   6.551
 4695POPC   C3B60069   7.647  25.924   6.931
 4695POPC   C4B60070   7.705  26.292   7.206
 4696POPC   NC360071  40.254  37.134   5.352
 4696POPC   PO460072  39.827  36.631   5.192
 4696POPC   GL160073  39.845  36.660   5.711
 4696POPC   GL260074  40.227  36.699   5.822
 4696POPC   C1A60075  39.800  36.655   6.186
 4696POPC   D2A60076  40.036  36.734   6.584
 4696POPC   C3A60077  39.822  36.737   6.994
 4696POPC   C4A60078  39.832  37.165   7.158
 4696POPC   C1B60079  40.321  36.986   6.211
 4696POPC   C2B60080  40.308  37.156   6.661
 4696POPC   C3B60081  40.296  36.921   7.055
 4696POPC   C4B60082  40.504  37.027   7.417
 4697POPC   NC360083  17.246  18.575   5.394
 4697POPC   PO460084  17.547  19.102   5.126
 4697POPC   GL160085  17.583  19.039   5.591
 4697POPC   GL260086  17.250  18.993   5.716
 4697POPC   C1A60087  17.665  18.995   6.061
 4697POPC   D2A60088  17.618  18.810   6.503
 4697POPC   C3A60089  17.691  19.018   6.906
 4697POPC   C4A60090  17.462  19.320   7.138
 4697POPC   C1B60091  17.211  18.753   6.112
 4697POPC   C2B60092  17.161  18.586   6.547
 4697POPC   C3B60093  17.214  18.813   6.920
 4697POPC   C4B60094  17.375  18.776   7.307
 4698POPC   NC360095   3.677  16.324   5.652
 4698POPC   PO460096   3.631  16.888   5.248
 4698POPC   GL160097   3.636  16.881   5.699
 4698POPC   GL260098   3.334  16.732   5.724
 4698POPC   C1A60099   3.606  16.789   6.166
 4698POPC   D2A60100   3.358  16.894   6.559
 4698POPC   C3A60101   3.594  16.712   6.893
 4698POPC   C4A60102   3.827  16.686   7.251
 4698POPC   C1B60103   3.188  16.514   6.127
 4698POPC   C2B60104   3.199  16.412   6.588
 4698POPC   C3B60105   3.098  16.646   6.976
 4698POPC   C4B60106   3.327  16.658   7.373
 4699POPC   NC360107  39.283  30.172   5.064
 4699POPC   PO460108  38.990  29.711   5.443
 4699POPC   GL160109  39.217  29.985   5.715
 4699POPC   GL260110  39.253  29.677   5.913
 4699POPC   C1A60111  39.429  30.080   6.136
 4699POPC   D2A60112  39.504  29.782   6.460
 4699POPC   C3A60113  39.567  29.903   6.910
 4699POPC   C4A60114  39.282  30.006   7.224
 4699POPC   C1B60115  39.015  29.770   6.297
 4699POPC   C2B60116  39.092  29.668   6.745
 4699POPC   C3B60117  39.073  29.542   7.173
 4699POPC   C4B60118  38.865  29.782   7.522
 4700POPC   NC360119   9.159  30.100   5.477
 4700POPC   PO460120   8.546  29.888   5.450
 4700POPC   GL160121   8.847  29.867   5.800
 4700POPC   GL260122   9.048  29.566   5.856
 4700POPC   C1A60123   9.022  30.098   6.145
 4700POPC   D2A60124   9.007  29.995   6.569
 4700POPC   C3A60125   9.090  29.824   6.965
 4700POPC   C4A60126   8.724  29.708   7.236
 4700POPC   C1B60127   9.225  29.649   6.232
 4700POPC   C2B60128   9.262  29.457   6.609
 4700POPC   C3B60129   9.397  29.422   7.025
 4700POPC   C4B60130   9.172  29.493   7.399
 4701POPC   NC360131   3.543  16.451   5.109
 4701POPC   PO460132   3.364  15.965   5.535
 4701POPC   GL160133   3.596  15.865   5.904
 4701POPC   GL260134   3.450  15.571   6.014
 4701POPC   C1A60135   3.741  16.093   6.298
 4701POPC   D2A60136   3.924  15.937   6.700
 4701POPC   C3A60137   3.776  16.163   7.090
 4701POPC   C4A60138   3.331  16.177   7.196
 4701POPC   C1B60139   3.584  15.620   6.413
 4701POPC   C2B60140   3.553  15.605   6.851
 4701POPC   C3B60141   3.852  15.658   7.152
 4701POPC   C4B60142   3.832  15.605   7.580
 4702POPC   NC360143  42.529   6.081   5.401
 4702POPC   PO460144  41.888   5.798   5.578
 4702POPC   GL160145  42.265   5.835   5.801
 4702POPC   GL260146  42.241   6.182   5.847
 4702POPC   C1A60147  42.438   5.717   6.210
 4702POPC   D2A60148  42.281   5.844   6.650
 4702POPC   C3A60149  42.365   5.598   7.018
 4702POPC   C4A60150  42.209   5.279   7.246
 4702POPC   C1B60151  42.296   6.207   6.287
 4702POPC   C2B60152  42.426   6.359   6.704
 4702POPC   C3B60153  42.398   6.096   7.098
 4702POPC   C4B60154  42.083   5.949   7.386
 4703POPC   NC360155  41.159  11.765   5.517
 4703POPC   PO460156  40.758  12.309   5.204
 4703POPC   GL160157  40.885  12.211   5.632
 4703POPC   GL260158  40.637  11.979   5.721
 4703POPC   C1A60159  40.906  12.158   6.119
 4703POPC   D2A60160  40.901  12.275   6.566
 4703POPC   C3A60161  40.835  12.013   6.932
 4703POPC   C4A60162  40.605  12.173   7.242
 4703POPC   C1B60163  40.452  11.888   6.130
 4703POPC   C2B60164  40.455  11.927   6.581
 4703POPC   C3B60165  40.389  11.733   6.984
 4703POPC   C4B60166  40.259  11.825   7.405
 4704POPC   NC360167  15.399   6.047   4.934
 4704POPC   PO460168  14.969   5.888   5.399
 4704POPC   GL160169  14.958   5.913   5.847
 4704POPC   GL260170  14.899   5.557   5.908
 4704POPC   C1A60171  15.171   6.084   6.225
 4704POPC   D2A60172  15.002   6.030   6.627
 4704POPC   C3A60173  15.231   6.155   7.010
 4704POPC   C4A60174  15.152   5.898   7.417
 4704POPC   C1B60175  15.267   5.575   6.173
 4704POPC   C2B60176  15.422   5.710   6.586
 4704POPC   C3B60177  15.158   5.665   6.946
 4704POPC   C4B60178  15.096   5.409   7.261
 4705POPC   NC360179  30.432  11.652   5.491
 4705POPC   PO460180  30.800  12.176   5.400
 4705POPC   GL160181  30.788  11.927   5.773
 4705POPC   GL260182  30.948  12.181   5.947
 4705POPC   C1A60183  30.619  11.900   6.223
 4705POPC   D2A60184  30.687  12.101   6.640
 4705POPC   C3A60185  30.554  11.941   7.052
 4705POPC   C4A60186  30.696  11.768   7.449
 4705POPC   C1B60187  31.023  12.374   6.360
 4705POPC   C2B60188  31.089  12.377   6.822
 4705POPC   C3B60189  30.902  12.293   7.247
 4705POPC   C4B60190  30.737  12.227   7.653
 4706POPC   NC360191  15.822   9.250   5.408
 4706POPC   PO460192  15.567   8.622   5.355
 4706POPC   GL160193  15.786   8.796   5.730
 4706POPC   GL260194  15.642   9.113   5.857
 4706POPC   C1A60195  16.008   8.704   6.142
 4706POPC   D2A60196  16.153   8.966   6.489
 4706POPC   C3A60197  15.915   9.037   6.879
 4706POPC   C4A60198  15.961   8.802   7.246
 4706POPC   C1B60199  15.741   9.136   6.273
 4706POPC   C2B60200  15.785   9.457   6.587
 4706POPC   C3B60201  15.609   9.499   6.996
 4706POPC   C4B60202  15.532   9.119   7.253
 4707POPC   NC360203   1.340  10.794   5.724
 4707POPC   PO460204   1.622  11.270   5.398
 4707POPC   GL160205   1.417  11.477   5.777
 4707POPC   GL260206   1.168  11.236   5.934
 4707POPC   C1A60207   1.441  11.547   6.224
 4707POPC   D2A60208   1.206  11.299   6.545
 4707POPC   C3A60209   1.343  11.497   6.935
 4707POPC   C4A60210   1.394  11.585   7.368
 4707POPC   C1B60211   0.942  10.966   6.227
 4707POPC   C2B60212   0.748  10.998   6.606
 4707POPC   C3B60213   0.992  11.066   6.967
 4707POPC   C4B60214   1.264  11.102   7.316
 4708POPC   NC360215  33.135  42.698   5.454
 4708POPC   PO460216  32.768  43.111   5.004
 4708POPC   GL160217  32.954  43.184   5.537
 4708POPC   GL260218  32.760  42.967   5.765
 4708POPC   C1A60219  33.208  43.103   6.026
 4708POPC   D2A60220  33.265  43.176   6.488
 4708POPC   C3A60221  33.161  42.884   6.806
 4708POPC   C4A60222  33.182  43.062   7.214
 4708POPC   C1B60223  32.753  43.206   6.146
 4708POPC   C2B60224  32.764  43.204   6.580
 4708POPC   C3B60225  32.722  43.104   7.006
 4708POPC   C4B60226  32.713  43.397   7.357
 4709POPC   NC360227  27.084  28.373   5.670
 4709POPC   PO460228  26.628  28.802   5.507
 4709POPC   GL160229  26.655  28.568   5.887
 4709POPC   GL260230  26.639  28.218   5.882
 4709POPC   C1A60231  26.793  28.500   6.296
 4709POPC   D2A60232  26.983  28.406   6.659
 4709POPC   C3A60233  26.762  28.492   7.014
 4709POPC   C4A60234  26.965  28.289   7.303
 4709POPC   C1B60235  26.538  28.046   6.271
 4709POPC   C2B60236  26.191  28.054   6.555
 4709POPC   C3B60237  26.304  28.193   6.952
 4709POPC   C4B60238  26.492  28.061   7.319
 4710POPC   NC360239  37.298  21.658   5.403
 4710POPC   PO460240  36.766  21.284   5.449
 4710POPC   GL160241  36.840  21.127   5.862
 4710POPC   GL260242  37.202  21.153   5.988
 4710POPC   C1A60243  36.596  21.270   6.194
 4710POPC   D2A60244  36.580  21.569   6.501
 4710POPC   C3A60245  36.595  21.352   6.847
 4710POPC   C4A60246  36.736  21.435   7.227
 4710POPC   C1B60247  37.069  21.374   6.401
 4710POPC   C2B60248  37.096  21.487   6.854
 4710POPC   C3B60249  37.148  21.738   7.260
 4710POPC   C4B60250  37.400  21.651   7.655
 4711POPC   NC360251  18.642  23.430   5.534
 4711POPC   PO460252  18.464  22.761   5.382
 4711POPC   GL160253  18.529  22.949   5.759
 4711POPC   GL260254  18.365  22.662   5.920
 4711POPC   C1A60255  18.407  23.156   6.147
 4711POPC   D2A60256  18.333  23.024   6.585
 4711POPC   C3A60257  18.623  23.170   6.936
 4711POPC   C4A60258  18.679  22.996   7.367
 4711POPC   C1B60259  18.368  22.370   6.245
 4711POPC   C2B60260  18.386  22.459   6.661
 4711POPC   C3B60261  18.407  22.706   6.985
 4711POPC   C4B60262  18.347  22.569   7.334
 4712POPC   NC360263  27.141  42.168   5.434
 4712POPC   PO460264  27.757  42.405   5.298
 4712POPC   GL160265  27.632  42.257   5.753
 4712POPC   GL260266  27.310  42.350   5.896
 4712POPC   C1A60267  27.844  42.146   6.157
 4712POPC   D2A60268  27.945  42.294   6.570
 4712POPC   C3A60269  27.848  42.139   6.999
 4712POPC   C4A60270  28.029  42.307   7.386
 4712POPC   C1B60271  27.369  42.158   6.322
 4712POPC   C2B60272  27.393  42.086   6.756
 4712POPC   C3B60273  27.381  42.298   7.130
 4712POPC   C4B60274  27.549  42.146   7.484
 4713POPC   NC360275   0.265   6.234   5.567
 4713POPC   PO460276  44.664   6.055   5.209
 4713POPC   GL160277  44.681   5.795   5.630
 4713POPC   GL260278  44.986   5.873   5.839
 4713POPC   C1A60279  44.560   5.875   6.103
 4713POPC   D2A60280  44.819   5.933   6.513
 4713POPC   C3A60281  44.509   5.929   6.854
 4713POPC   C4A60282  44.279   5.809   7.256
 4713POPC   C1B60283  44.898   5.495   6.121
 4713POPC   C2B60284  44.962   5.394   6.573
 4713POPC   C3B60285  44.892   5.578   7.005
 4713POPC   C4B60286   0.123   5.704   7.393
 4714POPC   NC360287   2.331  42.253   5.462
 4714POPC   PO460288   1.680  42.505   5.507
 4714POPC   GL160289   1.980  42.497   5.782
 4714POPC   GL260290   1.943  42.156   5.811
 4714POPC   C1A60291   2.011  42.525   6.209
 4714POPC   D2A60292   1.760  42.538   6.581
 4714POPC   C3A60293   1.955  42.416   6.925
 4714POPC   C4A60294   2.112  42.606   7.286
 4714POPC   C1B60295   2.125  41.986   6.144
 4714POPC   C2B60296   2.211  42.150   6.528
 4714POPC   C3B60297   2.191  41.939   6.902
 4714POPC   C4B60298   2.079  42.102   7.306
 4715POPC   NC360299  37.084   1.496   5.444
 4715POPC   PO460300  36.469   1.352   5.617
 4715POPC   GL160301  36.760   1.212   5.948
 4715POPC   GL260302  37.129   1.121   5.844
 4715POPC   C1A60303  36.688   1.144   6.408
 4715POPC   D2A60304  36.862   1.008   6.820
 4715POPC   C3A60305  36.853   1.341   7.137
 4715POPC   C4A60306  36.610   1.438   7.516
 4715POPC   C1B60307  37.200   1.256   6.270
 4715POPC   C2B60308  37.294   1.325   6.731
 4715POPC   C3B60309  37.352   1.283   7.169
 4715POPC   C4B60310  37.151   0.951   7.379
 4716POPC   NC360311   8.512  11.694   5.588
 4716POPC   PO460312   8.015  11.941   5.271
 4716POPC   GL160313   8.064  12.029   5.725
 4716POPC   GL260314   8.128  11.799   5.949
 4716POPC   C1A60315   8.054  12.265   6.111
 4716POPC   D2A60316   7.896  12.287   6.530
 4716POPC   C3A60317   8.167  12.151   6.845
 4716POPC   C4A60318   8.154  12.224   7.284
 4716POPC   C1B60319   8.220  11.813   6.358
 4716POPC   C2B60320   8.398  11.699   6.711
 4716POPC   C3B60321   8.348  11.762   7.137
 4716POPC   C4B60322   8.003  11.598   7.308
 4717POPC   NC360323  16.651  15.723   5.102
 4717POPC   PO460324  16.594  16.355   5.351
 4717POPC   GL160325  16.754  16.069   5.694
 4717POPC   GL260326  16.561  15.750   5.799
 4717POPC   C1A60327  17.003  16.059   6.090
 4717POPC   D2A60328  17.048  15.956   6.561
 4717POPC   C3A60329  16.863  15.973   7.010
 4717POPC   C4A60330  16.838  15.583   7.297
 4717POPC   C1B60331  16.515  16.008   6.158
 4717POPC   C2B60332  16.517  15.949   6.598
 4717POPC   C3B60333  16.404  16.195   6.960
 4717POPC   C4B60334  16.541  16.245   7.394
 4718POPC   NC360335  44.827  44.414   5.178
 4718POPC   PO460336  44.658  44.997   5.486
 4718POPC   GL160337  44.693  44.570   5.718
 4718POPC   GL260338  44.941  44.533   5.864
 4718POPC   C1A60339  44.561  44.454   6.167
 4718POPC   D2A60340  44.784  44.483   6.566
 4718POPC   C3A60341  44.565  44.390   6.947
 4718POPC   C4A60342  44.558  44.625   7.310
 4718POPC   C1B60343  44.887  44.885   6.119
 4718POPC   C2B60344   0.005  44.955   6.521
 4718POPC   C3B60345  44.841  44.875   6.913
 4718POPC   C4B60346   0.026  44.862   7.297
 4719POPC   NC360347  18.925  44.247   5.368
 4719POPC   PO460348  19.072  44.824   5.587
 4719POPC   GL160349  19.240  44.553   5.885
 4719POPC   GL260350  18.936  44.373   5.907
 4719POPC   C1A60351  19.268  44.504   6.335
 4719POPC   D2A60352  19.025  44.468   6.699
 4719POPC   C3A60353  19.291  44.443   7.032
 4719POPC   C4A60354  19.187  44.556   7.429
 4719POPC   C1B60355  18.798  44.657   6.220
 4719POPC   C2B60356  18.569  44.775   6.574
 4719POPC   C3B60357  18.673  44.900   6.997
 4719POPC   C4B60358  18.694  44.634   7.346
 4720POPC   NC360359  28.680  14.502   5.385
 4720POPC   PO460360  28.039  14.489   5.496
 4720POPC   GL160361  28.231  14.275   5.865
 4720POPC   GL260362  28.605  14.231   5.822
 4720POPC   C1A60363  28.072  14.162   6.273
 4720POPC   D2A60364  28.228  14.038   6.714
 4720POPC   C3A60365  28.062  14.226   7.105
 4720POPC   C4A60366  28.106  14.542   7.476
 4720POPC   C1B60367  28.558  14.103   6.249
 4720POPC   C2B60368  28.424  14.465   6.534
 4720POPC   C3B60369  28.458  14.502   6.955
 4720POPC   C4B60370  28.567  14.077   7.116
 4721POPC   NC360371  37.660  15.707   5.425
 4721POPC   PO460372  37.599  14.997   5.401
 4721POPC   GL160373  37.660  15.147   5.817
 4721POPC   GL260374  37.649  15.497   5.883
 4721POPC   C1A60375  37.742  15.077   6.258
 4721POPC   D2A60376  37.819  14.844   6.633
 4721POPC   C3A60377  37.527  14.915   6.943
 4721POPC   C4A60378  37.657  15.112   7.326
 4721POPC   C1B60379  37.375  15.450   6.235
 4721POPC   C2B60380  37.501  15.342   6.657
 4721POPC   C3B60381  37.463  15.524   7.089
 4721POPC   C4B60382  37.628  15.590   7.516
 4722POPC   NC360383  16.293  40.901   5.516
 4722POPC   PO460384  16.984  40.923   5.502
 4722POPC   GL160385  16.854  40.794   5.885
 4722POPC   GL260386  16.547  40.674   5.896
 4722POPC   C1A60387  16.925  40.864   6.286
 4722POPC   D2A60388  17.000  40.577   6.591
 4722POPC   C3A60389  16.846  40.777   6.968
 4722POPC   C4A60390  16.878  40.948   7.379
 4722POPC   C1B60391  16.447  40.388   6.204
 4722POPC   C2B60392  16.407  40.437   6.618
 4722POPC   C3B60393  16.522  40.364   7.024
 4722POPC   C4B60394  16.737  40.467   7.383
 4723POPC   NC360395   8.262  11.433   5.157
 4723POPC   PO460396   8.651  11.265   5.674
 4723POPC   GL160397   8.270  11.288   5.852
 4723POPC   GL260398   7.992  11.447   5.647
 4723POPC   C1A60399   8.397  11.325   6.288
 4723POPC   D2A60400   8.657  11.217   6.645
 4723POPC   C3A60401   8.403  11.268   6.967
 4723POPC   C4A60402   8.394  11.262   7.358
 4723POPC   C1B60403   7.880  11.403   6.148
 4723POPC   C2B60404   8.020  11.311   6.604
 4723POPC   C3B60405   7.844  11.231   7.005
 4723POPC   C4B60406   7.932  11.085   7.451
 4724POPC   NC360407   4.796  44.260   5.303
 4724POPC   PO460408   4.295  43.829   5.298
 4724POPC   GL160409   4.275  43.923   5.773
 4724POPC   GL260410   4.059  43.680   5.860
 4724POPC   C1A60411   4.527  43.832   6.217
 4724POPC   D2A60412   4.481  43.636   6.645
 4724POPC   C3A60413   4.516  43.912   7.016
 4724POPC   C4A60414   4.754  44.060   7.352
 4724POPC   C1B60415   4.038  43.943   6.229
 4724POPC   C2B60416   4.129  44.056   6.649
 4724POPC   C3B60417   4.016  43.895   7.050
 4724POPC   C4B60418   3.805  44.023   7.403
 4725POPC   NC360419   5.491   0.009   5.377
 4725POPC   PO460420   5.207  44.396   5.484
 4725POPC   GL160421   5.356  44.576   5.851
 4725POPC   GL260422   5.320  44.939   5.884
 4725POPC   C1A60423   5.141  44.556   6.255
 4725POPC   D2A60424   4.749  44.454   6.502
 4725POPC   C3A60425   4.842  44.393   6.945
 4725POPC   C4A60426   5.024  44.500   7.332
 4725POPC   C1B60427   5.070   0.063   6.282
 4725POPC   C2B60428   5.179   0.154   6.720
 4725POPC   C3B60429   5.235   0.083   7.174
 4725POPC   C4B60430   4.975  44.951   7.552
 4726POPC   NC360431  22.416  26.303   5.511
 4726POPC   PO460432  21.819  25.978   5.409
 4726POPC   GL160433  21.992  26.149   5.788
 4726POPC   GL260434  22.255  25.927   5.861
 4726POPC   C1A60435  21.904  26.022   6.247
 4726POPC   D2A60436  22.089  26.138   6.638
 4726POPC   C3A60437  22.012  26.026   7.083
 4726POPC   C4A60438  21.982  26.288   7.451
 4726POPC   C1B60439  22.375  26.283   6.167
 4726POPC   C2B60440  22.508  26.449   6.580
 4726POPC   C3B60441  22.468  26.228   6.974
 4726POPC   C4B60442  22.630  26.238   7.378
 4727POPC   NC360443   3.631  20.345   5.398
 4727POPC   PO460444   3.683  20.996   5.538
 4727POPC   GL160445   3.548  20.746   5.875
 4727POPC   GL260446   3.351  20.442   5.821
 4727POPC   C1A60447   3.453  20.788   6.307
 4727POPC   D2A60448   3.395  20.601   6.724
 4727POPC   C3A60449   3.396  20.908   7.049
 4727POPC   C4A60450   3.802  20.781   7.189
 4727POPC   C1B60451   3.272  20.320   6.239
 4727POPC   C2B60452   3.271  20.098   6.627
 4727POPC   C3B60453   3.431  20.149   7.002
 4727POPC   C4B60454   3.359  20.457   7.291
 4728POPC   NC360455  21.864  29.960   5.384
 4728POPC   PO460456  22.526  30.018   5.468
 4728POPC   GL160457  22.405  29.878   5.865
 4728POPC   GL260458  22.041  29.848   5.863
 4728POPC   C1A60459  22.331  29.658   6.267
 4728POPC   D2A60460  22.187  29.425   6.631
 4728POPC   C3A60461  22.143  29.648   7.008
 4728POPC   C4A60462  22.344  29.930   7.304
 4728POPC   C1B60463  22.161  30.134   6.215
 4728POPC   C2B60464  22.126  30.013   6.651
 4728POPC   C3B60465  22.051  30.242   7.054
 4728POPC   C4B60466  21.901  30.184   7.504
 4729POPC   NC360467  17.545  17.954   5.266
 4729POPC   PO460468  17.794  18.576   5.440
 4729POPC   GL160469  17.552  18.548   5.803
 4729POPC   GL260470  17.446  18.212   5.746
 4729POPC   C1A60471  17.545  18.372   6.224
 4729POPC   D2A60472  17.742  18.302   6.619
 4729POPC   C3A60473  17.505  18.383   6.985
 4729POPC   C4A60474  17.642  18.340   7.413
 4729POPC   C1B60475  17.283  17.918   6.057
 4729POPC   C2B60476  17.290  18.016   6.500
 4729POPC   C3B60477  17.494  17.874   6.861
 4729POPC   C4B60478  17.280  17.993   7.267
 4730POPC   NC360479   5.877  44.416   4.917
 4730POPC   PO460480   6.025  44.945   5.312
 4730POPC   GL160481   5.826  44.796   5.718
 4730POPC   GL260482   5.876  44.431   5.824
 4730POPC   C1A60483   5.726  44.780   6.160
 4730POPC   D2A60484   5.666  44.633   6.573
 4730POPC   C3A60485   5.728  44.892   6.949
 4730POPC   C4A60486   5.949  44.661   7.261
 4730POPC   C1B60487   5.575  44.284   6.195
 4730POPC   C2B60488   5.333  44.257   6.618
 4730POPC   C3B60489   5.427  44.451   6.997
 4730POPC   C4B60490   5.667  44.234   7.295
 4731POPC   NC360491  11.632  13.421   5.518
 4731POPC   PO460492  11.176  13.699   5.245
 4731POPC   GL160493  11.286  13.643   5.801
 4731POPC   GL260494  11.623  13.551   5.993
 4731POPC   C1A60495  11.214  13.555   6.288
 4731POPC   D2A60496  11.119  13.377   6.713
 4731POPC   C3A60497  11.103  13.725   7.016
 4731POPC   C4A60498  11.427  13.724   7.266
 4731POPC   C1B60499  11.704  13.839   6.314
 4731POPC   C2B60500  11.542  13.751   6.722
 4731POPC   C3B60501  11.690  13.408   6.951
 4731POPC   C4B60502  11.730  13.347   7.411
 4732POPC   NC360503  40.409   8.092   5.544
 4732POPC   PO460504  39.745   8.057   5.421
 4732POPC   GL160505  39.942   8.211   5.798
 4732POPC   GL260506  40.121   7.944   5.940
 4732POPC   C1A60507  40.121   8.398   6.187
 4732POPC   D2A60508  40.012   8.609   6.520
 4732POPC   C3A60509  40.181   8.510   6.894
 4732POPC   C4A60510  39.864   8.401   7.183
 4732POPC   C1B60511  39.817   8.018   6.275
 4732POPC   C2B60512  39.870   8.149   6.695
 4732POPC   C3B60513  39.905   7.904   7.054
 4732POPC   C4B60514  40.081   7.801   7.447
 4733POPC   NC360515  32.501  25.546   5.359
 4733POPC   PO460516  32.169  24.906   5.450
 4733POPC   GL160517  32.188  25.313   5.732
 4733POPC   GL260518  32.521  25.458   5.854
 4733POPC   C1A60519  32.128  25.535   6.177
 4733POPC   D2A60520  32.237  25.427   6.630
 4733POPC   C3A60521  32.095  25.709   6.977
 4733POPC   C4A60522  32.008  25.671   7.437
 4733POPC   C1B60523  32.424  25.131   6.163
 4733POPC   C2B60524  32.374  24.901   6.535
 4733POPC   C3B60525  32.430  25.040   6.927
 4733POPC   C4B60526  32.181  25.269   7.175
 4734POPC   NC360527  34.242   4.913   5.221
 4734POPC   PO460528  34.861   5.291   5.347
 4734POPC   GL160529  34.562   5.061   5.642
 4734POPC   GL260530  34.265   5.273   5.727
 4734POPC   C1A60531  34.556   4.791   6.056
 4734POPC   D2A60532  34.716   4.775   6.514
 4734POPC   C3A60533  34.403   4.899   6.847
 4734POPC   C4A60534  34.300   5.001   7.288
 4734POPC   C1B60535  34.469   5.286   6.131
 4734POPC   C2B60536  34.582   5.312   6.557
 4734POPC   C3B60537  34.746   5.281   6.959
 4734POPC   C4B60538  34.666   5.337   7.397
 4735POPC   NC360539  25.849  27.012   5.512
 4735POPC   PO460540  26.218  26.545   5.452
 4735POPC   GL160541  26.116  26.658   5.875
 4735POPC   GL260542  25.897  26.936   6.015
 4735POPC   C1A60543  26.229  26.639   6.302
 4735POPC   D2A60544  25.990  26.855   6.588
 4735POPC   C3A60545  25.953  26.742   6.987
 4735POPC   C4A60546  26.161  26.535   7.277
 4735POPC   C1B60547  25.690  26.584   6.255
 4735POPC   C2B60548  25.507  26.716   6.675
 4735POPC   C3B60549  25.605  27.140   6.854
 4735POPC   C4B60550  25.864  27.188   7.245
 4736POPC   NC360551  20.830  32.322   5.336
 4736POPC   PO460552  20.801  31.738   5.630
 4736POPC   GL160553  20.625  32.137   5.778
 4736POPC   GL260554  20.302  32.075   5.855
 4736POPC   C1A60555  20.651  32.322   6.215
 4736POPC   D2A60556  20.948  32.296   6.590
 4736POPC   C3A60557  20.819  32.274   7.019
 4736POPC   C4A60558  20.457  32.421   7.256
 4736POPC   C1B60559  20.426  31.865   6.245
 4736POPC   C2B60560  20.601  31.923   6.671
 4736POPC   C3B60561  20.935  31.778   6.948
 4736POPC   C4B60562  21.102  31.920   7.327
 4737POPC   NC360563  12.161  26.270   5.422
 4737POPC   PO460564  11.524  26.200   5.095
 4737POPC   GL160565  11.680  26.290   5.687
 4737POPC   GL260566  11.994  26.098   5.862
 4737POPC   C1A60567  11.796  26.451   6.146
 4737POPC   D2A60568  12.132  26.456   6.516
 4737POPC   C3A60569  12.101  26.243   6.951
 4737POPC   C4A60570  11.892  26.185   7.381
 4737POPC   C1B60571  11.654  25.920   6.117
 4737POPC   C2B60572  11.646  25.783   6.545
 4737POPC   C3B60573  11.661  25.670   6.988
 4737POPC   C4B60574  12.065  25.757   7.174
 4738POPC   NC360575  21.467   1.319   5.405
 4738POPC   PO460576  21.828   0.862   5.753
 4738POPC   GL160577  21.450   1.106   5.887
 4738POPC   GL260578  21.246   1.450   5.853
 4738POPC   C1A60579  21.393   1.261   6.317
 4738POPC   D2A60580  21.446   1.522   6.673
 4738POPC   C3A60581  21.604   1.249   6.989
 4738POPC   C4A60582  21.446   0.889   7.184
 4738POPC   C1B60583  20.967   1.118   6.075
 4738POPC   C2B60584  20.918   1.162   6.510
 4738POPC   C3B60585  21.093   1.196   6.902
 4738POPC   C4B60586  21.025   1.408   7.266
 4739POPC   NC360587  29.063  13.186   5.370
 4739POPC   PO460588  29.465  12.715   5.572
 4739POPC   GL160589  29.344  13.040   5.827
 4739POPC   GL260590  29.004  13.018   5.875
 4739POPC   C1A60591  29.356  12.914   6.251
 4739POPC   D2A60592  29.377  12.620   6.565
 4739POPC   C3A60593  29.401  12.819   6.971
 4739POPC   C4A60594  29.320  12.597   7.373
 4739POPC   C1B60595  28.902  13.136   6.304
 4739POPC   C2B60596  28.943  13.301   6.731
 4739POPC   C3B60597  28.932  13.041   7.108
 4739POPC   C4B60598  28.789  12.601   7.222
 4740POPC   NC360599  30.569   0.481   5.160
 4740POPC   PO460600  29.856   0.409   5.274
 4740POPC   GL160601  29.814   0.325   5.748
 4740POPC   GL260602  30.079   0.455   5.937
 4740POPC   C1A60603  29.686   0.364   6.228
 4740POPC   D2A60604  29.600   0.530   6.616
 4740POPC   C3A60605  29.717   0.338   6.976
 4740POPC   C4A60606  29.820   0.380   7.420
 4740POPC   C1B60607  30.145   0.113   6.191
 4740POPC   C2B60608  30.038   0.156   6.615
 4740POPC   C3B60609  30.202   0.242   7.050
 4740POPC   C4B60610  30.311   0.260   7.507
 4741POPC   NC360611  19.344   6.664   5.227
 4741POPC   PO460612  20.022   6.586   5.402
 4741POPC   GL160613  19.736   6.587   5.747
 4741POPC   GL260614  19.990   6.779   5.904
 4741POPC   C1A60615  19.507   6.778   6.138
 4741POPC   D2A60616  19.340   6.834   6.577
 4741POPC   C3A60617  19.648   6.850   6.930
 4741POPC   C4A60618  19.899   6.488   7.126
 4741POPC   C1B60619  19.934   6.498   6.242
 4741POPC   C2B60620  20.062   6.653   6.652
 4741POPC   C3B60621  20.370   6.630   6.966
 4741POPC   C4B60622  20.377   6.426   7.349
 4742POPC   NC360623  16.154   4.140   5.081
 4742POPC   PO460624  16.340   4.562   5.645
 4742POPC   GL160625  15.948   4.372   5.852
 4742POPC   GL260626  15.693   4.585   5.815
 4742POPC   C1A60627  15.861   4.049   6.178
 4742POPC   D2A60628  15.921   3.841   6.583
 4742POPC   C3A60629  15.886   4.069   6.988
 4742POPC   C4A60630  16.242   4.368   7.150
 4742POPC   C1B60631  15.831   4.585   6.277
 4742POPC   C2B60632  15.843   4.488   6.715
 4742POPC   C3B60633  15.783   4.552   7.200
 4742POPC   C4B60634  15.532   4.517   7.569
 4743POPC   NC360635  39.725  33.993   5.422
 4743POPC   PO460636  39.068  33.728   5.481
 4743POPC   GL160637  39.182  33.909   5.846
 4743POPC   GL260638  39.519  33.787   5.838
 4743POPC   C1A60639  39.204  33.765   6.269
 4743POPC   D2A60640  39.107  33.959   6.655
 4743POPC   C3A60641  39.068  33.678   7.002
 4743POPC   C4A60642  39.055  33.764   7.420
 4743POPC   C1B60643  39.634  34.036   6.183
 4743POPC   C2B60644  39.622  33.879   6.619
 4743POPC   C3B60645  39.510  33.930   7.059
 4743POPC   C4B60646  39.737  34.084   7.455
 4744POPC   NC360647  12.849  38.778   5.295
 4744POPC   PO460648  13.194  38.170   5.154
 4744POPC   GL160649  12.977  38.275   5.583
 4744POPC   GL260650  12.822  38.560   5.751
 4744POPC   C1A60651  12.878  38.123   6.035
 4744POPC   D2A60652  12.691  38.298   6.431
 4744POPC   C3A60653  12.894  38.488   6.785
 4744POPC   C4A60654  12.983  38.524   7.227
 4744POPC   C1B60655  12.548  38.665   6.103
 4744POPC   C2B60656  12.603  38.852   6.510
 4744POPC   C3B60657  12.547  38.856   6.971
 4744POPC   C4B60658  12.503  38.562   7.338
 4745POPC   NC360659   1.557  22.460   5.557
 4745POPC   PO460660   2.019  22.895   5.247
 4745POPC   GL160661   2.040  22.743   5.695
 4745POPC   GL260662   1.818  22.897   5.915
 4745POPC   C1A60663   2.231  22.691   6.141
 4745POPC   D2A60664   2.310  22.960   6.501
 4745POPC   C3A60665   2.080  22.867   6.862
 4745POPC   C4A60666   2.270  22.795   7.244
 4745POPC   C1B60667   1.797  22.943   6.365
 4745POPC   C2B60668   1.922  23.303   6.578
 4745POPC   C3B60669   2.038  23.374   6.987
 4745POPC   C4B60670   1.895  23.115   7.315
 4746POPC   NC360671  40.769  41.164   5.493
 4746POPC   PO460672  40.775  41.808   5.596
 4746POPC   GL160673  40.881  41.471   5.894
 4746POPC   GL260674  40.548  41.322   5.955
 4746POPC   C1A60675  40.869  41.442   6.341
 4746POPC   D2A60676  40.658  41.536   6.710
 4746POPC   C3A60677  40.723  41.848   7.058
 4746POPC   C4A60678  41.093  42.018   7.301
 4746POPC   C1B60679  40.291  41.190   6.328
 4746POPC   C2B60680  40.394  41.111   6.771
 4746POPC   C3B60681  40.424  41.397   7.134
 4746POPC   C4B60682  40.260  41.645   7.495
 4747POPC   NC360683  36.105   8.275   5.402
 4747POPC   PO460684  36.413   8.841   5.496
 4747POPC   GL160685  36.235   8.561   5.828
 4747POPC   GL260686  36.267   8.163   5.873
 4747POPC   C1A60687  36.104   8.470   6.254
 4747POPC   D2A60688  35.875   8.323   6.597
 4747POPC   C3A60689  36.088   8.255   6.955
 4747POPC   C4A60690  36.190   8.525   7.299
 4747POPC   C1B60691  36.288   7.870   6.239
 4747POPC   C2B60692  36.365   7.697   6.665
 4747POPC   C3B60693  36.450   7.910   7.059
 4747POPC   C4B60694  36.181   8.033   7.432
 4748POPC   NC360695  30.955   0.640   5.547
 4748POPC   PO460696  30.320   0.326   5.513
 4748POPC   GL160697  30.565   0.475   5.822
 4748POPC   GL260698  30.793   0.250   5.870
 4748POPC   C1A60699  30.492   0.650   6.228
 4748POPC   D2A60700  30.485   0.433   6.613
 4748POPC   C3A60701  30.531   0.640   7.014
 4748POPC   C4A60702  30.696   0.246   7.174
 4748POPC   C1B60703  30.983   0.460   6.213
 4748POPC   C2B60704  30.927   0.687   6.614
 4748POPC   C3B60705  31.046   0.583   7.078
 4748POPC   C4B60706  31.224   0.348   7.456
 4749POPC   NC360707  42.287  15.986   5.304
 4749POPC   PO460708  42.749  15.661   5.596
 4749POPC   GL160709  42.487  15.910   5.865
 4749POPC   GL260710  42.150  16.048   5.798
 4749POPC   C1A60711  42.504  15.935   6.296
 4749POPC   D2A60712  42.250  16.095   6.587
 4749POPC   C3A60713  42.395  15.864   6.896
 4749POPC   C4A60714  42.519  16.133   7.197
 4749POPC   C1B60715  41.990  15.808   6.142
 4749POPC   C2B60716  42.029  15.634   6.547
 4749POPC   C3B60717  41.908  15.721   6.931
 4749POPC   C4B60718  42.141  15.673   7.291
 4750POPC   NC360719  33.668  15.471   5.460
 4750POPC   PO460720  34.012  14.906   5.606
 4750POPC   GL160721  33.717  15.150   5.875
 4750POPC   GL260722  33.877  15.484   5.933
 4750POPC   C1A60723  33.519  15.322   6.263
 4750POPC   D2A60724  33.643  15.352   6.706
 4750POPC   C3A60725  33.788  14.984   6.927
 4750POPC   C4A60726  33.671  15.136   7.322
 4750POPC   C1B60727  34.022  15.214   6.295
 4750POPC   C2B60728  34.191  15.313   6.696
 4750POPC   C3B60729  34.052  15.381   7.106
 4750POPC   C4B60730  34.198  15.146   7.434
 4751POPC   NC360731  11.751  17.525   5.483
 4751POPC   PO460732  12.363  17.148   5.451
 4751POPC   GL160733  12.244  17.460   5.782
 4751POPC   GL260734  11.925  17.388   5.950
 4751POPC   C1A60735  12.282  17.619   6.214
 4751POPC   D2A60736  11.974  17.542   6.522
 4751POPC   C3A60737  12.111  17.398   6.875
 4751POPC   C4A60738  12.255  17.461   7.246
 4751POPC   C1B60739  11.865  17.084   6.286
 4751POPC   C2B60740  11.670  17.085   6.691
 4751POPC   C3B60741  11.860  17.030   7.094
 4751POPC   C4B60742  11.900  17.240   7.532
 4752POPC   NC360743   7.880   9.670   5.574
 4752POPC   PO460744   7.279   9.813   5.285
 4752POPC   GL160745   7.425   9.819   5.761
 4752POPC   GL260746   7.524   9.479   5.850
 4752POPC   C1A60747   7.658   9.846   6.216
 4752POPC   D2A60748   7.731   9.930   6.691
 4752POPC   C3A60749   7.369   9.812   6.974
 4752POPC   C4A60750   7.578   9.867   7.352
 4752POPC   C1B60751   7.547   9.332   6.216
 4752POPC   C2B60752   7.474   9.515   6.578
 4752POPC   C3B60753   7.635   9.393   6.991
 4752POPC   C4B60754   7.591   9.272   7.384
 4753POPC   NC360755  13.734  19.447   5.448
 4753POPC   PO460756  13.329  18.889   5.526
 4753POPC   GL160757  13.657  19.051   5.767
 4753POPC   GL260758  13.428  19.309   5.861
 4753POPC   C1A60759  13.834  19.096   6.172
 4753POPC   D2A60760  13.609  19.204   6.569
 4753POPC   C3A60761  13.668  18.941   6.944
 4753POPC   C4A60762  13.845  19.039   7.338
 4753POPC   C1B60763  13.212  19.402   6.252
 4753POPC   C2B60764  13.111  19.297   6.689
 4753POPC   C3B60765  13.308  19.331   7.100
 4753POPC   C4B60766  13.209  19.372   7.572
 4754POPC   NC360767  16.803  35.045   5.359
 4754POPC   PO460768  16.541  35.712   5.390
 4754POPC   GL160769  16.644  35.536   5.803
 4754POPC   GL260770  16.604  35.205   5.799
 4754POPC   C1A60771  16.876  35.387   6.195
 4754POPC   D2A60772  17.105  35.463   6.565
 4754POPC   C3A60773  16.909  35.454   6.959
 4754POPC   C4A60774  16.801  35.458   7.400
 4754POPC   C1B60775  16.562  34.981   6.178
 4754POPC   C2B60776  16.558  35.174   6.599
 4754POPC   C3B60777  16.465  35.221   7.033
 4754POPC   C4B60778  16.612  34.954   7.362
 4755POPC   NC360779  29.548   9.527   5.140
 4755POPC   PO460780  29.966   9.067   5.377
 4755POPC   GL160781  29.824   9.068   5.795
 4755POPC   GL260782  30.036   9.361   5.858
 4755POPC   C1A60783  29.662   9.102   6.251
 4755POPC   D2A60784  29.880   9.086   6.658
 4755POPC   C3A60785  29.763   8.863   7.013
 4755POPC   C4A60786  29.524   8.487   6.981
 4755POPC   C1B60787  30.164   9.017   6.194
 4755POPC   C2B60788  30.307   8.790   6.572
 4755POPC   C3B60789  30.300   8.986   6.972
 4755POPC   C4B60790  30.015   9.325   7.104
 4756POPC   NC360791   5.692  32.293   5.466
 4756POPC   PO460792   6.331  32.257   5.576
 4756POPC   GL160793   5.982  32.230   5.894
 4756POPC   GL260794   5.643  32.050   5.910
 4756POPC   C1A60795   5.943  32.079   6.329
 4756POPC   D2A60796   5.852  31.979   6.772
 4756POPC   C3A60797   6.143  32.114   7.093
 4756POPC   C4A60798   6.015  32.184   7.531
 4756POPC   C1B60799   5.490  32.359   6.238
 4756POPC   C2B60800   5.594  32.465   6.692
 4756POPC   C3B60801   5.678  32.351   7.130
 4756POPC   C4B60802   5.573  32.419   7.573
 4757POPC   NC360803  16.995  20.051   5.512
 4757POPC   PO460804  16.491  19.650   5.459
 4757POPC   GL160805  16.769  19.694   5.804
 4757POPC   GL260806  16.507  19.616   5.995
 4757POPC   C1A60807  16.871  19.962   6.176
 4757POPC   D2A60808  17.080  20.011   6.574
 4757POPC   C3A60809  16.731  19.995   6.863
 4757POPC   C4A60810  16.547  20.262   7.169
 4757POPC   C1B60811  16.686  19.523   6.396
 4757POPC   C2B60812  16.357  19.607   6.669
 4757POPC   C3B60813  16.329  19.749   7.082
 4757POPC   C4B60814  16.618  19.777   7.392
 4758POPC   NC360815  26.834  39.508   5.310
 4758POPC   PO460816  27.249  39.017   5.362
 4758POPC   GL160817  26.987  39.247   5.722
 4758POPC   GL260818  26.630  39.294   5.727
 4758POPC   C1A60819  26.894  39.242   6.182
 4758POPC   D2A60820  26.994  39.386   6.602
 4758POPC   C3A60821  27.014  39.085   6.939
 4758POPC   C4A60822  27.128  39.092   7.372
 4758POPC   C1B60823  26.477  39.551   6.077
 4758POPC   C2B60824  26.496  39.506   6.515
 4758POPC   C3B60825  26.605  39.415   6.935
 4758POPC   C4B60826  26.471  39.046   7.180
 4759POPC   NC360827  42.851  16.120   5.561
 4759POPC   PO460828  43.545  15.884   5.478
 4759POPC   GL160829  43.297  16.023   5.830
 4759POPC   GL260830  43.005  15.882   5.984
 4759POPC   C1A60831  43.391  16.150   6.255
 4759POPC   D2A60832  43.327  16.374   6.655
 4759POPC   C3A60833  43.393  16.114   6.988
 4759POPC   C4A60834  43.171  16.007   7.344
 4759POPC   C1B60835  42.891  16.263   6.232
 4759POPC   C2B60836  42.807  16.221   6.677
 4759POPC   C3B60837  42.909  15.861   6.940
 4759POPC   C4B60838  42.727  15.674   7.308
 4760POPC   NC360839   4.074  21.240   5.436
 4760POPC   PO460840   4.628  20.908   5.453
 4760POPC   GL160841   4.455  21.188   5.786
 4760POPC   GL260842   4.286  21.543   5.778
 4760POPC   C1A60843   4.293  21.252   6.196
 4760POPC   D2A60844   4.462  21.499   6.522
 4760POPC   C3A60845   4.398  21.285   6.923
 4760POPC   C4A60846   4.616  21.378   7.301
 4760POPC   C1B60847   4.016  21.679   6.142
 4760POPC   C2B60848   3.939  21.587   6.592
 4760POPC   C3B60849   3.990  21.720   7.038
 4760POPC   C4B60850   3.940  21.680   7.486
 4761POPC   NC360851  19.338  11.170   5.498
 4761POPC   PO460852  18.672  11.204   5.451
 4761POPC   GL160853  18.918  11.349   5.851
 4761POPC   GL260854  19.251  11.275   5.990
 4761POPC   C1A60855  18.878  11.126   6.303
 4761POPC   D2A60856  19.144  10.969   6.670
 4761POPC   C3A60857  19.022  11.036   7.113
 4761POPC   C4A60858  19.283  11.218   7.434
 4761POPC   C1B60859  19.068  11.607   6.268
 4761POPC   C2B60860  18.973  11.504   6.686
 4761POPC   C3B60861  19.138  11.543   7.086
 4761POPC   C4B60862  19.050  11.624   7.580
 4762POPC   NC360863  41.894  23.844   5.057
 4762POPC   PO460864  42.244  23.822   5.603
 4762POPC   GL160865  42.229  23.696   5.974
 4762POPC   GL260866  42.474  23.424   6.053
 4762POPC   C1A60867  42.199  23.739   6.366
 4762POPC   D2A60868  42.275  23.486   6.671
 4762POPC   C3A60869  42.107  23.806   6.921
 4762POPC   C4A60870  42.192  23.931   7.318
 4762POPC   C1B60871  42.679  23.819   6.183
 4762POPC   C2B60872  42.865  23.852   6.555
 4762POPC   C3B60873  42.618  23.859   6.886
 4762POPC   C4B60874  42.706  23.862   7.273
 4763POPC   NC360875   2.847  30.114   5.493
 4763POPC   PO460876   2.651  30.737   5.414
 4763POPC   GL160877   2.836  30.550   5.765
 4763POPC   GL260878   2.541  30.327   5.834
 4763POPC   C1A60879   3.013  30.773   6.127
 4763POPC   D2A60880   2.837  31.040   6.453
 4763POPC   C3A60881   2.896  30.887   6.868
 4763POPC   C4A60882   2.667  30.791   7.220
 4763POPC   C1B60883   2.702  30.332   6.227
 4763POPC   C2B60884   2.557  30.438   6.601
 4763POPC   C3B60885   2.743  30.368   6.956
 4763POPC   C4B60886   2.540  30.315   7.312
 4764POPC   NC360887  15.962   3.339   5.489
 4764POPC   PO460888  15.780   4.042   5.391
 4764POPC   GL160889  15.807   3.757   5.757
 4764POPC   GL260890  16.151   3.674   5.825
 4764POPC   C1A60891  15.858   3.512   6.193
 4764POPC   D2A60892  15.943   3.332   6.612
 4764POPC   C3A60893  15.808   3.546   6.983
 4764POPC   C4A60894  15.892   3.324   7.323
 4764POPC   C1B60895  16.339   3.814   6.202
 4764POPC   C2B60896  16.422   3.632   6.586
 4764POPC   C3B60897  16.321   3.518   6.998
 4764POPC   C4B60898  16.192   3.809   7.294
 4765POPC   NC360899  42.210   9.557   5.325
 4765POPC   PO460900  42.707   9.207   5.550
 4765POPC   GL160901  42.428   9.581   5.787
 4765POPC   GL260902  42.481   9.945   5.712
 4765POPC   C1A60903  42.127   9.800   6.140
 4765POPC   D2A60904  41.811   9.931   6.494
 4765POPC   C3A60905  42.018   9.981   6.914
 4765POPC   C4A60906  42.256   9.698   7.149
 4765POPC   C1B60907  42.653   9.840   6.155
 4765POPC   C2B60908  42.499   9.920   6.588
 4765POPC   C3B60909  42.718   9.901   6.988
 4765POPC   C4B60910  42.594   9.979   7.408
 4766POPC   NC360911   8.604  32.707   5.594
 4766POPC   PO460912   8.113  33.105   5.273
 4766POPC   GL160913   8.156  32.994   5.774
 4766POPC   GL260914   8.503  33.065   5.943
 4766POPC   C1A60915   8.138  32.903   6.266
 4766POPC   D2A60916   8.175  33.173   6.669
 4766POPC   C3A60917   7.935  33.040   7.028
 4766POPC   C4A60918   8.152  32.703   7.218
 4766POPC   C1B60919   8.646  33.111   6.386
 4766POPC   C2B60920   8.663  33.129   6.848
 4766POPC   C3B60921   8.420  33.125   7.265
 4766POPC   C4B60922   8.592  33.177   7.701
 4767POPC   NC360923   7.185   5.656   5.333
 4767POPC   PO460924   7.857   5.932   5.398
 4767POPC   GL160925   7.530   5.816   5.770
 4767POPC   GL260926   7.219   5.606   5.847
 4767POPC   C1A60927   7.247   6.038   6.112
 4767POPC   D2A60928   7.082   5.998   6.556
 4767POPC   C3A60929   7.402   5.883   6.898
 4767POPC   C4A60930   7.503   6.115   7.290
 4767POPC   C1B60931   7.300   5.571   6.297
 4767POPC   C2B60932   7.066   5.485   6.662
 4767POPC   C3B60933   6.936   5.757   7.009
 4767POPC   C4B60934   7.122   5.798   7.426
 4768POPC   NC360935   2.222  24.069   5.546
 4768POPC   PO460936   1.643  24.453   5.306
 4768POPC   GL160937   1.907  24.446   5.686
 4768POPC   GL260938   1.743  24.196   5.856
 4768POPC   C1A60939   2.113  24.366   6.137
 4768POPC   D2A60940   1.833  24.233   6.495
 4768POPC   C3A60941   1.952  24.450   6.859
 4768POPC   C4A60942   2.155  24.389   7.238
 4768POPC   C1B60943   1.666  24.633   6.115
 4768POPC   C2B60944   1.426  24.685   6.523
 4768POPC   C3B60945   1.506  24.654   6.972
 4768POPC   C4B60946   1.640  24.551   7.373
 4769POPC   NC360947   8.849  40.696   4.943
 4769POPC   PO460948   8.614  41.188   5.338
 4769POPC   GL160949   8.963  41.024   5.680
 4769POPC   GL260950   8.866  41.288   5.857
 4769POPC   C1A60951   9.095  40.694   6.054
 4769POPC   D2A60952   8.958  40.528   6.507
 4769POPC   C3A60953   9.223  40.530   6.903
 4769POPC   C4A60954   9.047  40.589   7.299
 4769POPC   C1B60955   8.872  41.094   6.257
 4769POPC   C2B60956   8.638  40.935   6.595
 4769POPC   C3B60957   8.897  40.932   6.959
 4769POPC   C4B60958   9.149  41.110   7.312
 4770POPC   NC360959  31.899  40.995   5.104
 4770POPC   PO460960  31.361  40.612   5.192
 4770POPC   GL160961  31.387  40.718   5.693
 4770POPC   GL260962  31.265  41.062   5.829
 4770POPC   C1A60963  31.604  40.735   6.120
 4770POPC   D2A60964  31.695  40.886   6.562
 4770POPC   C3A60965  31.760  40.621   6.957
 4770POPC   C4A60966  31.616  40.642   7.397
 4770POPC   C1B60967  31.141  40.885   6.262
 4770POPC   C2B60968  31.209  41.001   6.666
 4770POPC   C3B60969  31.275  40.851   7.065
 4770POPC   C4B60970  31.151  41.134   7.371
 4771POPC   NC360971  21.836  44.743   5.396
 4771POPC   PO460972  21.963  44.164   5.663
 4771POPC   GL160973  22.002  44.514   5.892
 4771POPC   GL260974  22.237  44.754   5.767
 4771POPC   C1A60975  21.962  44.624   6.314
 4771POPC   D2A60976  21.761  44.877   6.613
 4771POPC   C3A60977  21.831  44.701   7.019
 4771POPC   C4A60978  21.953  44.879   7.417
 4771POPC   C1B60979  22.435  44.804   6.189
 4771POPC   C2B60980  22.374  44.549   6.619
 4771POPC   C3B60981  22.349  44.627   7.042
 4771POPC   C4B60982  22.498   0.014   7.169
 4772POPC   NC360983   0.458  34.904   5.472
 4772POPC   PO460984   0.495  35.511   5.082
 4772POPC   GL160985   0.486  35.405   5.597
 4772POPC   GL260986   0.149  35.320   5.779
 4772POPC   C1A60987   0.593  35.237   6.077
 4772POPC   D2A60988   0.887  35.141   6.456
 4772POPC   C3A60989   0.729  35.133   6.897
 4772POPC   C4A60990   0.688  35.362   7.314
 4772POPC   C1B60991   0.189  35.495   6.219
 4772POPC   C2B60992   0.440  35.475   6.608
 4772POPC   C3B60993   0.274  35.488   7.044
 4772POPC   C4B60994   0.038  35.715   7.370
 4773POPC   NC360995  44.376  41.904   5.274
 4773POPC   PO460996  44.595  41.213   5.437
 4773POPC   GL160997  44.663  41.300   5.872
 4773POPC   GL260998   0.011  41.390   5.976
 4773POPC   C1A60999  44.671  41.194   6.287
 4773POPC   D2A61000  44.954  41.346   6.590
 4773POPC   C3A61001  44.765  41.146   6.926
 4773POPC   C4A61002  44.695  41.306   7.306
 4773POPC   C1B61003  44.798  41.702   6.249
 4773POPC   C2B61004  44.569  41.839   6.582
 4773POPC   C3B61005  44.719  41.678   6.946
 4773POPC   C4B61006  44.538  41.782   7.318
 4774POPC   NC361007  14.003  36.055   5.433
 4774POPC   PO461008  13.314  36.188   5.403
 4774POPC   GL161009  13.418  36.323   5.821
 4774POPC   GL261010  13.726  36.130   5.860
 4774POPC   C1A61011  13.411  36.181   6.266
 4774POPC   D2A61012  13.191  36.262   6.647
 4774POPC   C3A61013  13.339  36.028   7.006
 4774POPC   C4A61014  13.560  36.011   7.413
 4774POPC   C1B61015  13.847  36.429   6.180
 4774POPC   C2B61016  13.693  36.453   6.612
 4774POPC   C3B61017  13.790  36.309   7.026
 4774POPC   C4B61018  13.673  36.484   7.456
 4775POPC   NC361019   5.939  13.801   5.217
 4775POPC   PO461020   5.527  13.411   5.630
 4775POPC   GL161021   5.693  13.644   5.986
 4775POPC   GL261022   5.946  13.947   5.850
 4775POPC   C1A61023   5.869  13.409   6.369
 4775POPC   D2A61024   6.002  13.460   6.797
 4775POPC   C3A61025   5.713  13.627   7.117
 4775POPC   C4A61026   5.600  13.851   7.503
 4775POPC   C1B61027   6.027  13.886   6.279
 4775POPC   C2B61028   5.860  13.980   6.678
 4775POPC   C3B61029   6.142  13.909   6.993
 4775POPC   C4B61030   6.185  13.952   7.401
 4776POPC   NC361031  40.643  14.906   5.610
 4776POPC   PO461032  40.954  14.245   5.481
 4776POPC   GL161033  40.790  14.481   5.846
 4776POPC   GL261034  41.025  14.828   5.917
 4776POPC   C1A61035  40.919  14.402   6.267
 4776POPC   D2A61036  40.690  14.349   6.639
 4776POPC   C3A61037  40.890  14.378   7.025
 4776POPC   C4A61038  40.540  14.193   7.286
 4776POPC   C1B61039  40.784  14.898   6.293
 4776POPC   C2B61040  40.792  14.824   6.749
 4776POPC   C3B61041  40.485  14.661   7.074
 4776POPC   C4B61042  40.542  14.619   7.550
 4777POPC   NC361043  41.959   2.095   5.368
 4777POPC   PO461044  42.481   1.709   5.531
 4777POPC   GL161045  42.280   2.038   5.770
 4777POPC   GL261046  42.074   1.765   5.848
 4777POPC   C1A61047  42.044   2.143   6.182
 4777POPC   D2A61048  41.952   1.841   6.535
 4777POPC   C3A61049  41.897   1.982   6.971
 4777POPC   C4A61050  42.178   2.300   7.101
 4777POPC   C1B61051  42.387   1.737   6.216
 4777POPC   C2B61052  42.506   1.766   6.669
 4777POPC   C3B61053  42.519   1.849   7.127
 4777POPC   C4B61054  42.634   2.230   7.362
 4778POPC   NC361055  33.630  19.261   5.683
 4778POPC   PO461056  33.953  18.818   5.335
 4778POPC   GL161057  34.003  18.921   5.787
 4778POPC   GL261058  33.790  18.630   5.815
 4778POPC   C1A61059  34.025  19.195   6.229
 4778POPC   D2A61060  33.939  19.155   6.714
 4778POPC   C3A61061  33.632  18.991   7.020
 4778POPC   C4A61062  33.585  18.930   7.490
 4778POPC   C1B61063  33.831  18.726   6.250
 4778POPC   C2B61064  34.178  18.742   6.547
 4778POPC   C3B61065  34.141  18.669   6.973
 4778POPC   C4B61066  33.782  18.545   7.229
 4779POPC   NC361067  10.765  44.664   5.357
 4779POPC   PO461068  10.168  44.409   5.351
 4779POPC   GL161069  10.415  44.671   5.759
 4779POPC   GL261070  10.760  44.878   5.818
 4779POPC   C1A61071  10.560  44.652   6.232
 4779POPC   D2A61072  10.783  44.489   6.614
 4779POPC   C3A61073  10.498  44.351   6.986
 4779POPC   C4A61074  10.430  44.466   7.437
 4779POPC   C1B61075  11.012  44.943   6.206
 4779POPC   C2B61076  10.895  44.996   6.648
 4779POPC   C3B61077  10.745  44.806   7.020
 4779POPC   C4B61078  10.744  44.868   7.442
 4780POPC   NC361079   5.286  28.003   5.360
 4780POPC   PO461080   4.946  28.505   5.503
 4780POPC   GL161081   5.077  28.246   5.811
 4780POPC   GL261082   5.409  28.082   5.857
 4780POPC   C1A61083   5.104  28.336   6.226
 4780POPC   D2A61084   4.962  28.137   6.572
 4780POPC   C3A61085   4.950  28.429   6.838
 4780POPC   C4A61086   4.959  28.539   7.206
 4780POPC   C1B61087   5.619  28.244   6.242
 4780POPC   C2B61088   5.435  28.369   6.625
 4780POPC   C3B61089   5.398  28.314   7.044
 4780POPC   C4B61090   5.467  28.427   7.444
 4781POPC   NC361091  37.031  33.489   5.481
 4781POPC   PO461092  36.641  33.007   5.432
 4781POPC   GL161093  36.716  33.110   5.825
 4781POPC   GL261094  37.082  33.107   5.817
 4781POPC   C1A61095  36.811  33.075   6.239
 4781POPC   D2A61096  37.000  32.815   6.504
 4781POPC   C3A61097  36.759  32.956   6.832
 4781POPC   C4A61098  36.862  33.087   7.207
 4781POPC   C1B61099  37.171  33.439   6.147
 4781POPC   C2B61100  37.118  33.314   6.571
 4781POPC   C3B61101  37.167  33.443   6.958
 4781POPC   C4B61102  37.364  33.258   7.278
 4782POPC   NC361103  37.788  42.722   5.446
 4782POPC   PO461104  37.824  42.129   5.462
 4782POPC   GL161105  37.604  42.279   5.861
 4782POPC   GL261106  37.542  42.629   5.905
 4782POPC   C1A61107  37.690  42.214   6.321
 4782POPC   D2A61108  37.574  42.410   6.713
 4782POPC   C3A61109  37.888  42.296   6.972
 4782POPC   C4A61110  37.857  41.960   7.235
 4782POPC   C1B61111  37.689  42.734   6.333
 4782POPC   C2B61112  37.937  42.797   6.724
 4782POPC   C3B61113  37.937  42.774   7.173
 4782POPC   C4B61114  37.667  42.492   7.385
 4783POPC   NC361115  34.489  17.810   5.417
 4783POPC   PO461116  34.777  17.178   5.352
 4783POPC   GL161117  34.664  17.352   5.715
 4783POPC   GL261118  34.283  17.362   5.635
 4783POPC   C1A61119  34.852  17.447   6.144
 4783POPC   D2A61120  34.980  17.247   6.572
 4783POPC   C3A61121  34.764  17.401   6.957
 4783POPC   C4A61122  34.854  17.847   7.130
 4783POPC   C1B61123  34.349  17.559   6.046
 4783POPC   C2B61124  34.468  17.510   6.473
 4783POPC   C3B61125  34.509  17.800   6.764
 4783POPC   C4B61126  34.342  17.685   7.167
 4784POPC   NC361127  32.436   2.677   5.363
 4784POPC   PO461128  31.822   2.490   5.665
 4784POPC   GL161129  31.978   2.774   5.903
 4784POPC   GL261130  32.288   2.592   5.913
 4784POPC   C1A61131  32.041   2.892   6.320
 4784POPC   D2A61132  32.399   3.049   6.533
 4784POPC   C3A61133  32.436   2.890   6.914
 4784POPC   C4A61134  32.180   2.995   7.272
 4784POPC   C1B61135  32.092   2.321   6.246
 4784POPC   C2B61136  31.832   2.445   6.600
 4784POPC   C3B61137  31.958   2.553   7.017
 4784POPC   C4B61138  32.327   2.502   7.224
 4785POPC   NC361139  19.057  40.334   5.569
 4785POPC   PO461140  19.179  41.064   5.484
 4785POPC   GL161141  19.214  40.771   5.804
 4785POPC   GL261142  18.868  40.721   5.846
 4785POPC   C1A61143  19.225  40.586   6.226
 4785POPC   D2A61144  19.015  40.453   6.615
 4785POPC   C3A61145  19.232  40.643   6.956
 4785POPC   C4A61146  19.328  40.511   7.365
 4785POPC   C1B61147  18.712  40.687   6.239
 4785POPC   C2B61148  18.504  40.733   6.605
 4785POPC   C3B61149  18.738  40.766   6.951
 4785POPC   C4B61150  18.926  40.823   7.350
 4786POPC   NC361151  25.466  34.874   5.615
 4786POPC   PO461152  25.054  34.381   5.478
 4786POPC   GL161153  25.134  34.563   5.870
 4786POPC   GL261154  25.465  34.432   5.879
 4786POPC   C1A61155  25.211  34.788   6.268
 4786POPC   D2A61156  25.357  34.631   6.678
 4786POPC   C3A61157  25.089  34.681   7.034
 4786POPC   C4A61158  25.115  34.856   7.463
 4786POPC   C1B61159  25.425  34.310   6.291
 4786POPC   C2B61160  25.762  34.318   6.598
 4786POPC   C3B61161  25.717  34.461   7.008
 4786POPC   C4B61162  25.446  34.503   7.332
 4787POPC   NC361163  30.240  26.150   5.219
 4787POPC   PO461164  30.893  25.971   5.192
 4787POPC   GL161165  30.846  26.046   5.710
 4787POPC   GL261166  30.605  26.350   5.857
 4787POPC   C1A61167  30.664  25.989   6.182
 4787POPC   D2A61168  30.830  26.056   6.577
 4787POPC   C3A61169  30.604  25.908   6.893
 4787POPC   C4A61170  30.730  26.011   7.268
 4787POPC   C1B61171  30.682  26.475   6.321
 4787POPC   C2B61172  30.400  26.336   6.705
 4787POPC   C3B61173  30.434  26.431   7.181
 4787POPC   C4B61174  30.383  26.391   7.666
 4788POPC   NC361175  26.205  25.839   5.092
 4788POPC   PO461176  26.159  25.186   5.392
 4788POPC   GL161177  26.233  25.252   5.804
 4788POPC   GL261178  25.985  25.497   5.873
 4788POPC   C1A61179  26.138  25.163   6.225
 4788POPC   D2A61180  25.999  25.288   6.638
 4788POPC   C3A61181  26.230  25.154   6.995
 4788POPC   C4A61182  26.275  25.284   7.394
 4788POPC   C1B61183  25.736  25.580   6.255
 4788POPC   C2B61184  25.800  25.752   6.672
 4788POPC   C3B61185  25.959  25.594   7.080
 4788POPC   C4B61186  25.796  25.186   7.291
 4789POPC   NC361187  32.181   8.691   5.451
 4789POPC   PO461188  32.393   9.319   5.362
 4789POPC   GL161189  32.487   9.018   5.785
 4789POPC   GL261190  32.384   8.650   5.909
 4789POPC   C1A61191  32.464   8.978   6.281
 4789POPC   D2A61192  32.137   8.928   6.615
 4789POPC   C3A61193  32.148   9.075   7.034
 4789POPC   C4A61194  32.420   9.024   7.421
 4789POPC   C1B61195  32.131   8.564   6.258
 4789POPC   C2B61196  32.454   8.506   6.572
 4789POPC   C3B61197  32.521   8.736   6.922
 4789POPC   C4B61198  32.177   8.574   7.147
 4790POPC   NC361199   9.766  11.974   5.462
 4790POPC   PO461200   9.154  12.267   5.528
 4790POPC   GL161201   9.499  12.388   5.871
 4790POPC   GL261202   9.857  12.219   5.907
 4790POPC   C1A61203   9.601  12.272   6.332
 4790POPC   D2A61204   9.753  11.934   6.654
 4790POPC   C3A61205   9.902  12.144   7.030
 4790POPC   C4A61206   9.643  12.450   7.232
 4790POPC   C1B61207  10.036  11.904   6.217
 4790POPC   C2B61208  10.203  11.678   6.591
 4790POPC   C3B61209  10.081  11.658   7.020
 4790POPC   C4B61210  10.143  11.880   7.399
 4791POPC   NC361211  18.850  38.624   5.457
 4791POPC   PO461212  19.293  38.032   5.487
 4791POPC   GL161213  19.085  38.295   5.796
 4791POPC   GL261214  18.753  38.187   5.911
 4791POPC   C1A61215  19.157  38.416   6.229
 4791POPC   D2A61216  19.102  38.311   6.650
 4791POPC   C3A61217  19.195  38.465   7.050
 4791POPC   C4A61218  18.862  38.184   7.164
 4791POPC   C1B61219  18.711  38.638   6.104
 4791POPC   C2B61220  18.879  38.759   6.504
 4791POPC   C3B61221  18.748  38.631   6.893
 4791POPC   C4B61222  18.571  38.575   7.312
 4792POPC   NC361223   2.212  13.675   5.470
 4792POPC   PO461224   1.514  13.856   5.433
 4792POPC   GL161225   1.754  13.716   5.806
 4792POPC   GL261226   1.921  13.971   5.769
 4792POPC   C1A61227   2.025  13.655   6.198
 4792POPC   D2A61228   2.214  13.411   6.571
 4792POPC   C3A61229   2.159  13.442   7.010
 4792POPC   C4A61230   1.702  13.436   7.111
 4792POPC   C1B61231   1.659  14.027   6.184
 4792POPC   C2B61232   1.757  13.823   6.605
 4792POPC   C3B61233   1.980  13.924   6.963
 4792POPC   C4B61234   1.869  14.309   7.151
 4793POPC   NC361235  25.394  38.194   5.465
 4793POPC   PO461236  25.294  37.525   5.488
 4793POPC   GL161237  25.333  37.832   5.831
 4793POPC   GL261238  25.002  38.003   5.819
 4793POPC   C1A61239  25.499  37.777   6.274
 4793POPC   D2A61240  25.291  37.881   6.662
 4793POPC   C3A61241  25.320  37.655   7.020
 4793POPC   C4A61242  25.419  37.762   7.414
 4793POPC   C1B61243  24.980  37.751   6.210
 4793POPC   C2B61244  24.878  37.596   6.610
 4793POPC   C3B61245  24.834  37.788   6.998
 4793POPC   C4B61246  24.947  37.506   7.336
 4794POPC   NC361247  18.438  11.602   5.448
 4794POPC   PO461248  17.996  11.058   5.371
 4794POPC   GL161249  18.081  11.308   5.759
 4794POPC   GL261250  18.409  11.292   5.887
 4794POPC   C1A61251  18.004  11.430   6.223
 4794POPC   D2A61252  18.112  11.283   6.636
 4794POPC   C3A61253  18.077  11.446   7.063
 4794POPC   C4A61254  18.177  11.437   7.518
 4794POPC   C1B61255  18.565  11.553   6.209
 4794POPC   C2B61256  18.476  11.638   6.632
 4794POPC   C3B61257  18.552  11.301   6.929
 4794POPC   C4B61258  18.682  11.424   7.301
 4795POPC   NC361259  21.997  16.830   5.485
 4795POPC   PO461260  22.440  16.391   5.653
 4795POPC   GL161261  22.219  16.704   5.930
 4795POPC   GL261262  22.014  17.036   5.934
 4795POPC   C1A61263  22.293  16.866   6.331
 4795POPC   D2A61264  22.070  16.774   6.696
 4795POPC   C3A61265  22.291  16.691   7.072
 4795POPC   C4A61266  21.983  16.556   7.377
 4795POPC   C1B61267  21.880  17.173   6.341
 4795POPC   C2B61268  22.127  17.284   6.690
 4795POPC   C3B61269  22.068  17.153   7.092
 4795POPC   C4B61270  22.230  16.988   7.485
 4796POPC   NC361271  43.630  10.864   5.127
 4796POPC   PO461272  43.915  10.385   5.512
 4796POPC   GL161273  44.072  10.466   5.867
 4796POPC   GL261274  44.008  10.782   5.848
 4796POPC   C1A61275  43.855  10.492   6.246
 4796POPC   D2A61276  43.964  10.318   6.598
 4796POPC   C3A61277  43.789  10.493   6.969
 4796POPC   C4A61278  43.583  10.192   7.254
 4796POPC   C1B61279  44.178  10.884   6.242
 4796POPC   C2B61280  44.126  10.795   6.676
 4796POPC   C3B61281  44.218  10.966   7.088
 4796POPC   C4B61282  44.131  10.842   7.512
 4797POPC   NC361283  14.641  44.569   5.568
 4797POPC   PO461284  14.164   0.034   5.544
 4797POPC   GL161285  14.049  44.700   5.865
 4797POPC   GL261286  14.313  44.406   5.928
 4797POPC   C1A61287  13.988  44.576   6.305
 4797POPC   D2A61288  14.285  44.380   6.598
 4797POPC   C3A61289  14.130  44.508   7.013
 4797POPC   C4A61290  14.257  44.828   7.278
 4797POPC   C1B61291  14.467  44.740   6.222
 4797POPC   C2B61292  14.393  44.870   6.652
 4797POPC   C3B61293  14.616  44.614   6.932
 4797POPC   C4B61294  14.652  44.523   7.331
 4798POPC   NC361295  32.592  11.325   5.598
 4798POPC   PO461296  33.146  11.404   5.308
 4798POPC   GL161297  33.085  11.506   5.745
 4798POPC   GL261298  33.022  11.165   5.857
 4798POPC   C1A61299  33.238  11.478   6.197
 4798POPC   D2A61300  33.076  11.332   6.600
 4798POPC   C3A61301  33.236  11.454   7.016
 4798POPC   C4A61302  33.208  11.334   7.464
 4798POPC   C1B61303  32.731  11.198   6.217
 4798POPC   C2B61304  32.680  10.996   6.600
 4798POPC   C3B61305  32.767  11.195   7.005
 4798POPC   C4B61306  32.855  10.960   7.365
 4799POPC   NC361307   9.192  22.616   5.156
 4799POPC   PO461308   9.114  22.071   5.555
 4799POPC   GL161309   8.882  22.142   5.893
 4799POPC   GL261310   8.704  22.375   5.753
 4799POPC   C1A61311   8.924  21.991   6.295
 4799POPC   D2A61312   9.234  21.982   6.596
 4799POPC   C3A61313   8.964  22.066   6.905
 4799POPC   C4A61314   8.967  22.323   7.261
 4799POPC   C1B61315   8.515  22.367   6.167
 4799POPC   C2B61316   8.626  22.308   6.604
 4799POPC   C3B61317   8.522  22.443   7.044
 4799POPC   C4B61318   8.517  22.428   7.517
 4800POPC   NC361319   6.591  43.995   5.476
 4800POPC   PO461320   6.422  43.454   5.708
 4800POPC   GL161321   6.652  43.771   5.964
 4800POPC   GL261322   6.907  44.037   5.898
 4800POPC   C1A61323   6.763  43.732   6.383
 4800POPC   D2A61324   6.750  43.603   6.800
 4800POPC   C3A61325   6.565  43.871   7.100
 4800POPC   C4A61326   6.849  43.808   7.424
 4800POPC   C1B61327   6.700  44.227   6.266
 4800POPC   C2B61328   6.683  44.168   6.677
 4800POPC   C3B61329   6.920  44.222   7.041
 4800POPC   C4B61330   6.697  44.290   7.400
 4801POPC   NC361331  28.246  11.934   5.412
 4801POPC   PO461332  28.553  12.606   5.416
 4801POPC   GL161333  28.477  12.327   5.793
 4801POPC   GL261334  28.108  12.201   5.834
 4801POPC   C1A61335  28.370  12.335   6.247
 4801POPC   D2A61336  28.380  12.502   6.662
 4801POPC   C3A61337  28.639  12.231   6.880
 4801POPC   C4A61338  28.610  12.010   7.274
 4801POPC   C1B61339  28.026  11.945   6.228
 4801POPC   C2B61340  28.164  12.012   6.616
 4801POPC   C3B61341  28.266  11.839   6.961
 4801POPC   C4B61342  28.138  11.877   7.384
 4802POPC   NC361343  30.822   7.093   5.041
 4802POPC   PO461344  30.723   6.650   5.558
 4802POPC   GL161345  30.660   6.597   5.927
 4802POPC   GL261346  30.865   6.834   6.128
 4802POPC   C1A61347  30.427   6.584   6.251
 4802POPC   D2A61348  30.637   6.718   6.585
 4802POPC   C3A61349  30.424   6.628   6.917
 4802POPC   C4A61350  30.661   6.597   7.249
 4802POPC   C1B61351  31.119   6.490   6.197
 4802POPC   C2B61352  31.020   6.333   6.576
 4802POPC   C3B61353  31.096   6.457   6.977
 4802POPC   C4B61354  30.989   6.239   7.372
 4803POPC   NC361355  44.211  35.227   5.471
 4803POPC   PO461356  43.617  35.561   5.427
 4803POPC   GL161357  43.655  35.288   5.783
 4803POPC   GL261358  43.411  35.496   5.925
 4803POPC   C1A61359  43.804  35.076   6.138
 4803POPC   D2A61360  43.960  35.283   6.483
 4803POPC   C3A61361  43.781  35.262   6.888
 4803POPC   C4A61362  43.870  35.555   7.217
 4803POPC   C1B61363  43.715  35.626   6.172
 4803POPC   C2B61364  43.604  35.651   6.590
 4803POPC   C3B61365  43.563  35.870   6.948
 4803POPC   C4B61366  43.380  35.746   7.313
 4804POPC   NC361367  36.561  31.619   5.376
 4804POPC   PO461368  36.999  31.040   5.403
 4804POPC   GL161369  37.150  31.241   5.823
 4804POPC   GL261370  36.950  31.587   5.842
 4804POPC   C1A61371  37.104  31.332   6.290
 4804POPC   D2A61372  37.297  31.584   6.623
 4804POPC   C3A61373  37.170  31.548   7.032
 4804POPC   C4A61374  36.885  31.219   7.109
 4804POPC   C1B61375  36.654  31.552   6.217
 4804POPC   C2B61376  36.759  31.517   6.681
 4804POPC   C3B61377  36.672  31.700   7.096
 4804POPC   C4B61378  36.771  31.686   7.499
 4805POPC   NC361379  43.911  26.407   5.389
 4805POPC   PO461380  43.913  25.734   5.389
 4805POPC   GL161381  44.162  25.985   5.715
 4805POPC   GL261382  43.891  26.147   5.902
 4805POPC   C1A61383  44.299  25.931   6.169
 4805POPC   D2A61384  44.140  26.083   6.569
 4805POPC   C3A61385  44.106  25.862   6.963
 4805POPC   C4A61386  44.139  25.916   7.415
 4805POPC   C1B61387  43.664  26.104   6.329
 4805POPC   C2B61388  43.495  25.997   6.761
 4805POPC   C3B61389  43.651  25.976   7.216
 4805POPC   C4B61390  43.671  25.724   7.599
 4806POPC   NC361391  43.350  41.300   5.568
 4806POPC   PO461392  42.892  41.760   5.327
 4806POPC   GL161393  43.003  41.580   5.786
 4806POPC   GL261394  43.372  41.612   5.967
 4806POPC   C1A61395  42.966  41.549   6.242
 4806POPC   D2A61396  42.774  41.616   6.624
 4806POPC   C3A61397  43.019  41.774   6.965
 4806POPC   C4A61398  43.047  41.561   7.373
 4806POPC   C1B61399  43.550  41.822   6.363
 4806POPC   C2B61400  43.502  41.892   6.831
 4806POPC   C3B61401  43.415  41.889   7.319
 4806POPC   C4B61402  43.450  41.901   7.824
 4807POPC   NC361403   1.343  39.896   5.479
 4807POPC   PO461404   1.327  40.544   5.603
 4807POPC   GL161405   1.211  40.176   5.908
 4807POPC   GL261406   1.152  39.786   5.940
 4807POPC   C1A61407   1.066  40.085   6.335
 4807POPC   D2A61408   1.300  39.967   6.698
 4807POPC   C3A61409   1.110  39.924   7.074
 4807POPC   C4A61410   0.944  40.223   7.354
 4807POPC   C1B61411   0.721  39.700   6.149
 4807POPC   C2B61412   0.547  39.625   6.582
 4807POPC   C3B61413   0.681  39.526   7.016
 4807POPC   C4B61414   0.808  39.697   7.411
 4808POPC   NC361415   4.774  24.088   5.588
 4808POPC   PO461416   4.328  23.542   5.582
 4808POPC   GL161417   4.530  23.599   5.952
 4808POPC   GL261418   4.425  23.949   5.926
 4808POPC   C1A61419   4.238  23.473   6.308
 4808POPC   D2A61420   3.957  23.842   6.480
 4808POPC   C3A61421   3.966  23.881   6.923
 4808POPC   C4A61422   4.136  23.507   7.096
 4808POPC   C1B61423   4.433  23.930   6.340
 4808POPC   C2B61424   4.486  23.662   6.721
 4808POPC   C3B61425   4.620  23.620   7.150
 4808POPC   C4B61426   4.399  23.910   7.411
 4809POPC   NC361427   1.571  19.026   5.368
 4809POPC   PO461428   2.200  18.776   5.403
 4809POPC   GL161429   1.991  18.982   5.720
 4809POPC   GL261430   1.722  18.766   5.782
 4809POPC   C1A61431   2.111  19.121   6.124
 4809POPC   D2A61432   1.993  19.142   6.565
 4809POPC   C3A61433   2.269  19.234   6.911
 4809POPC   C4A61434   2.077  19.077   7.266
 4809POPC   C1B61435   1.689  18.607   6.175
 4809POPC   C2B61436   1.605  18.807   6.569
 4809POPC   C3B61437   1.797  18.740   6.967
 4809POPC   C4B61438   1.609  18.836   7.361
 4810POPC   NC361439  28.889   6.111   5.227
 4810POPC   PO461440  28.312   5.727   5.329
 4810POPC   GL161441  28.244   5.930   5.759
 4810POPC   GL261442  28.316   5.581   5.894
 4810POPC   C1A61443  28.523   6.107   6.127
 4810POPC   D2A61444  28.573   5.884   6.525
 4810POPC   C3A61445  28.460   5.750   6.936
 4810POPC   C4A61446  28.771   5.452   7.100
 4810POPC   C1B61447  28.130   5.798   6.254
 4810POPC   C2B61448  28.005   5.682   6.662
 4810POPC   C3B61449  27.951   5.935   7.023
 4810POPC   C4B61450  28.076   5.950   7.446
 4811POPC   NC361451  29.006  40.263   5.353
 4811POPC   PO461452  29.599  39.824   5.424
 4811POPC   GL161453  29.415  39.855   5.810
 4811POPC   GL261454  29.278  40.185   5.808
 4811POPC   C1A61455  29.390  39.897   6.257
 4811POPC   D2A61456  29.382  39.661   6.643
 4811POPC   C3A61457  29.326  39.844   7.050
 4811POPC   C4A61458  29.262  40.244   7.229
 4811POPC   C1B61459  29.149  40.340   6.217
 4811POPC   C2B61460  29.130  40.141   6.634
 4811POPC   C3B61461  28.854  40.002   6.940
 4811POPC   C4B61462  28.888  39.820   7.325
 4812POPC   NC361463  34.579   9.142   5.318
 4812POPC   PO461464  34.279   8.518   5.384
 4812POPC   GL161465  34.533   8.720   5.744
 4812POPC   GL261466  34.697   9.049   5.811
 4812POPC   C1A61467  34.376   8.875   6.168
 4812POPC   D2A61468  34.185   8.792   6.582
 4812POPC   C3A61469  34.366   8.895   6.991
 4812POPC   C4A61470  34.583   8.639   7.276
 4812POPC   C1B61471  34.887   8.905   6.209
 4812POPC   C2B61472  34.741   8.907   6.627
 4812POPC   C3B61473  34.954   9.049   6.985
 4812POPC   C4B61474  34.743   9.122   7.333
 4813POPC   NC361475   2.400   8.066   5.454
 4813POPC   PO461476   1.861   8.409   5.284
 4813POPC   GL161477   1.995   8.307   5.745
 4813POPC   GL261478   2.340   8.395   5.834
 4813POPC   C1A61479   1.860   8.034   6.141
 4813POPC   D2A61480   1.682   7.885   6.569
 4813POPC   C3A61481   1.847   8.155   6.889
 4813POPC   C4A61482   1.895   8.597   6.846
 4813POPC   C1B61483   2.380   8.165   6.194
 4813POPC   C2B61484   2.230   8.345   6.556
 4813POPC   C3B61485   2.336   8.351   6.977
 4813POPC   C4B61486   2.284   7.984   7.199
 4814POPC   NC361487  42.750  17.708   5.542
 4814POPC   PO461488  42.217  17.363   5.298
 4814POPC   GL161489  42.331  17.362   5.767
 4814POPC   GL261490  42.487  17.016   5.794
 4814POPC   C1A61491  42.222  17.514   6.245
 4814POPC   D2A61492  42.421  17.656   6.686
 4814POPC   C3A61493  42.219  17.584   7.122
 4814POPC   C4A61494  41.961  17.777   7.459
 4814POPC   C1B61495  42.644  17.245   6.158
 4814POPC   C2B61496  42.467  17.156   6.550
 4814POPC   C3B61497  42.528  17.212   6.957
 4814POPC   C4B61498  42.418  17.144   7.371
 4815POPC   NC361499   0.674  25.694   5.421
 4815POPC   PO461500   0.191  26.172   5.515
 4815POPC   GL161501   0.214  26.074   5.927
 4815POPC   GL261502   0.298  25.707   5.883
 4815POPC   C1A61503   0.319  26.286   6.327
 4815POPC   D2A61504   0.562  26.457   6.675
 4815POPC   C3A61505   0.399  26.325   7.069
 4815POPC   C4A61506   0.004  26.126   7.088
 4815POPC   C1B61507   0.622  25.878   6.194
 4815POPC   C2B61508   0.601  25.934   6.659
 4815POPC   C3B61509   0.427  25.819   7.056
 4815POPC   C4B61510   0.580  25.699   7.448
 4816POPC   NC361511  38.312   4.483   5.572
 4816POPC   PO461512  38.653   3.944   5.530
 4816POPC   GL161513  38.615   4.150   5.870
 4816POPC   GL261514  38.305   3.999   5.921
 4816POPC   C1A61515  38.811   4.426   6.172
 4816POPC   D2A61516  38.716   4.494   6.597
 4816POPC   C3A61517  38.557   4.404   7.000
 4816POPC   C4A61518  38.720   4.004   7.154
 4816POPC   C1B61519  38.388   4.151   6.330
 4816POPC   C2B61520  38.396   3.995   6.737
 4816POPC   C3B61521  38.203   3.955   7.140
 4816POPC   C4B61522  37.967   4.236   7.404
 4817POPC   NC361523  32.284  41.389   5.504
 4817POPC   PO461524  32.735  41.885   5.512
 4817POPC   GL161525  32.480  41.725   5.886
 4817POPC   GL261526  32.096  41.711   5.877
 4817POPC   C1A61527  32.400  41.550   6.300
 4817POPC   D2A61528  32.579  41.270   6.609
 4817POPC   C3A61529  32.436  41.294   7.023
 4817POPC   C4A61530  32.326  41.594   7.357
 4817POPC   C1B61531  32.121  41.997   6.247
 4817POPC   C2B61532  32.159  41.870   6.670
 4817POPC   C3B61533  31.968  41.606   6.988
 4817POPC   C4B61534  31.810  41.625   7.421
 4818POPC   NC361535  23.672  16.529   5.225
 4818POPC   PO461536  23.869  15.909   5.410
 4818POPC   GL161537  23.877  15.987   5.826
 4818POPC   GL261538  23.703  15.692   5.925
 4818POPC   C1A61539  23.688  16.128   6.217
 4818POPC   D2A61540  23.425  16.008   6.565
 4818POPC   C3A61541  23.608  16.002   6.990
 4818POPC   C4A61542  23.939  16.201   7.207
 4818POPC   C1B61543  23.983  15.710   6.256
 4818POPC   C2B61544  23.991  15.985   6.605
 4818POPC   C3B61545  24.073  15.786   6.952
 4818POPC   C4B61546  23.879  15.527   7.256
 4819POPC   NC361547   7.722  43.224   5.344
 4819POPC   PO461548   7.175  42.832   5.490
 4819POPC   GL161549   7.327  42.989   5.869
 4819POPC   GL261550   7.477  43.298   5.801
 4819POPC   C1A61551   7.257  43.232   6.256
 4819POPC   D2A61552   7.297  43.461   6.634
 4819POPC   C3A61553   7.129  43.252   7.006
 4819POPC   C4A61554   7.114  43.374   7.425
 4819POPC   C1B61555   7.769  43.207   6.117
 4819POPC   C2B61556   7.828  43.308   6.551
 4819POPC   C3B61557   7.662  43.233   6.936
 4819POPC   C4B61558   7.574  43.150   7.344
 4820POPC   NC361559   7.592  12.042   5.410
 4820POPC   PO461560   7.208  11.528   5.455
 4820POPC   GL161561   7.251  11.830   5.768
 4820POPC   GL261562   7.610  11.799   5.853
 4820POPC   C1A61563   7.191  12.034   6.189
 4820POPC   D2A61564   7.354  11.955   6.605
 4820POPC   C3A61565   7.215  12.164   6.957
 4820POPC   C4A61566   7.355  12.222   7.354
 4820POPC   C1B61567   7.716  11.873   6.265
 4820POPC   C2B61568   7.825  11.771   6.700
 4820POPC   C3B61569   7.719  11.981   7.071
 4820POPC   C4B61570   7.769  11.990   7.525
 4821POPC   NC361571  41.184  24.680   5.530
 4821POPC   PO461572  40.607  24.301   5.444
 4821POPC   GL161573  40.705  24.688   5.722
 4821POPC   GL261574  40.420  24.730   5.907
 4821POPC   C1A61575  40.893  24.763   6.170
 4821POPC   D2A61576  41.024  24.402   6.478
 4821POPC   C3A61577  40.972  24.449   6.948
 4821POPC   C4A61578  40.967  24.637   7.396
 4821POPC   C1B61579  40.646  24.334   6.105
 4821POPC   C2B61580  40.553  24.241   6.536
 4821POPC   C3B61581  40.377  24.325   6.936
 4821POPC   C4B61582  40.610  24.293   7.289
 4822POPC   NC361583  20.075   2.930   5.288
 4822POPC   PO461584  19.685   2.433   5.503
 4822POPC   GL161585  19.822   2.741   5.824
 4822POPC   GL261586  19.504   2.978   5.811
 4822POPC   C1A61587  20.049   2.670   6.282
 4822POPC   D2A61588  20.140   2.568   6.747
 4822POPC   C3A61589  19.979   2.873   6.965
 4822POPC   C4A61590  19.985   2.965   7.348
 4822POPC   C1B61591  19.556   2.787   6.238
 4822POPC   C2B61592  19.648   2.595   6.611
 4822POPC   C3B61593  19.542   2.613   6.999
 4822POPC   C4B61594  19.525   2.746   7.391
 4823POPC   NC361595   9.672  39.617   5.482
 4823POPC   PO461596   9.799  38.988   5.489
 4823POPC   GL161597   9.677  39.248   5.853
 4823POPC   GL261598   9.859  39.551   5.950
 4823POPC   C1A61599   9.838  39.192   6.285
 4823POPC   D2A61600   9.943  39.050   6.677
 4823POPC   C3A61601   9.850  39.300   6.925
 4823POPC   C4A61602   9.714  39.244   7.271
 4823POPC   C1B61603   9.502  39.592   6.261
 4823POPC   C2B61604   9.486  39.582   6.732
 4823POPC   C3B61605   9.301  39.488   7.152
 4823POPC   C4B61606   9.347  39.364   7.602
 4824POPC   NC361607  27.509  37.090   5.545
 4824POPC   PO461608  27.951  36.600   5.376
 4824POPC   GL161609  27.757  36.649   5.779
 4824POPC   GL261610  27.390  36.620   5.782
 4824POPC   C1A61611  27.682  36.714   6.230
 4824POPC   D2A61612  27.607  36.893   6.639
 4824POPC   C3A61613  27.523  36.654   6.994
 4824POPC   C4A61614  27.798  36.791   7.328
 4824POPC   C1B61615  27.176  36.836   6.138
 4824POPC   C2B61616  27.111  36.723   6.553
 4824POPC   C3B61617  27.140  36.957   6.896
 4824POPC   C4B61618  27.436  37.119   7.200
 4825POPC   NC361619  21.508  33.998   5.496
 4825POPC   PO461620  21.264  33.345   5.463
 4825POPC   GL161621  21.251  33.571   5.879
 4825POPC   GL261622  21.384  33.911   5.973
 4825POPC   C1A61623  21.068  33.664   6.296
 4825POPC   D2A61624  20.863  33.499   6.688
 4825POPC   C3A61625  21.145  33.619   7.001
 4825POPC   C4A61626  21.278  33.994   7.169
 4825POPC   C1B61627  21.565  33.874   6.383
 4825POPC   C2B61628  21.610  33.831   6.818
 4825POPC   C3B61629  21.781  33.978   7.208
 4825POPC   C4B61630  21.789  34.170   7.658
 4826POPC   NC361631  25.949  43.422   5.570
 4826POPC   PO461632  26.182  44.002   5.195
 4826POPC   GL161633  26.166  43.893   5.657
 4826POPC   GL261634  25.856  43.933   5.823
 4826POPC   C1A61635  26.253  43.838   6.127
 4826POPC   D2A61636  26.429  44.009   6.533
 4826POPC   C3A61637  26.337  43.738   6.897
 4826POPC   C4A61638  26.129  43.770   7.290
 4826POPC   C1B61639  25.691  43.979   6.217
 4826POPC   C2B61640  25.916  43.923   6.594
 4826POPC   C3B61641  25.739  43.869   6.977
 4826POPC   C4B61642  25.699  44.129   7.310
 4827POPC   NC361643  35.550  41.125   5.302
 4827POPC   PO461644  35.105  41.710   5.365
 4827POPC   GL161645  35.238  41.497   5.767
 4827POPC   GL261646  35.588  41.416   5.748
 4827POPC   C1A61647  35.173  41.439   6.205
 4827POPC   D2A61648  35.432  41.577   6.570
 4827POPC   C3A61649  35.244  41.578   6.951
 4827POPC   C4A61650  34.983  41.373   7.225
 4827POPC   C1B61651  35.663  41.282   6.186
 4827POPC   C2B61652  35.856  41.287   6.620
 4827POPC   C3B61653  35.727  41.254   7.079
 4827POPC   C4B61654  35.874  41.113   7.517
 4828POPC   NC361655  19.707  11.830   5.531
 4828POPC   PO461656  19.827  11.142   5.467
 4828POPC   GL161657  19.731  11.367   5.807
 4828POPC   GL261658  19.955  11.645   5.931
 4828POPC   C1A61659  19.780  11.178   6.216
 4828POPC   D2A61660  20.034  11.264   6.590
 4828POPC   C3A61661  20.010  11.045   6.994
 4828POPC   C4A61662  19.755  11.138   7.358
 4828POPC   C1B61663  19.565  11.637   6.196
 4828POPC   C2B61664  19.462  11.385   6.560
 4828POPC   C3B61665  19.646  11.428   6.949
 4828POPC   C4B61666  19.580  11.636   7.334
 4829POPC   NC361667  11.115  37.616   5.336
 4829POPC   PO461668  11.706  37.760   5.491
 4829POPC   GL161669  11.539  37.708   5.889
 4829POPC   GL261670  11.258  37.525   5.815
 4829POPC   C1A61671  11.526  37.713   6.345
 4829POPC   D2A61672  11.372  37.910   6.695
 4829POPC   C3A61673  11.483  37.583   6.948
 4829POPC   C4A61674  11.403  37.524   7.337
 4829POPC   C1B61675  11.065  37.681   6.175
 4829POPC   C2B61676  10.875  37.626   6.593
 4829POPC   C3B61677  10.982  37.620   7.023
 4829POPC   C4B61678  11.085  37.958   7.243
 4830POPC   NC361679  15.077  14.891   5.415
 4830POPC   PO461680  15.330  14.338   5.361
 4830POPC   GL161681  15.104  14.422   5.749
 4830POPC   GL261682  14.790  14.642   5.823
 4830POPC   C1A61683  15.166  14.556   6.168
 4830POPC   D2A61684  15.144  14.688   6.598
 4830POPC   C3A61685  14.946  14.443   6.921
 4830POPC   C4A61686  15.026  14.525   7.334
 4830POPC   C1B61687  14.674  14.703   6.293
 4830POPC   C2B61688  14.665  14.842   6.739
 4830POPC   C3B61689  14.620  14.809   7.213
 4830POPC   C4B61690  14.580  14.696   7.652
 4831POPC   NC361691  12.175   5.178   5.248
 4831POPC   PO461692  11.630   4.819   5.480
 4831POPC   GL161693  12.000   4.959   5.774
 4831POPC   GL261694  12.298   5.152   5.762
 4831POPC   C1A61695  11.967   5.176   6.195
 4831POPC   D2A61696  12.029   5.361   6.600
 4831POPC   C3A61697  12.053   5.149   6.963
 4831POPC   C4A61698  11.899   5.146   7.364
 4831POPC   C1B61699  12.463   5.290   6.179
 4831POPC   C2B61700  12.525   5.535   6.571
 4831POPC   C3B61701  12.498   5.445   7.002
 4831POPC   C4B61702  12.403   5.265   7.384
 4832POPC   NC361703  43.181  15.520   5.512
 4832POPC   PO461704  42.723  15.078   5.241
 4832POPC   GL161705  42.815  15.032   5.740
 4832POPC   GL261706  42.790  15.330   5.976
 4832POPC   C1A61707  43.117  14.981   6.136
 4832POPC   D2A61708  43.297  15.169   6.542
 4832POPC   C3A61709  42.993  15.264   6.881
 4832POPC   C4A61710  42.954  15.073   7.284
 4832POPC   C1B61711  42.890  15.570   6.370
 4832POPC   C2B61712  43.258  15.760   6.573
 4832POPC   C3B61713  43.410  15.588   6.933
 4832POPC   C4B61714  43.220  15.509   7.310
 4833POPC   NC361715  23.495  36.691   5.427
 4833POPC   PO461716  23.978  37.155   5.400
 4833POPC   GL161717  23.841  36.863   5.819
 4833POPC   GL261718  23.499  36.697   5.950
 4833POPC   C1A61719  23.781  36.932   6.310
 4833POPC   D2A61720  23.911  37.229   6.655
 4833POPC   C3A61721  24.129  37.045   7.020
 4833POPC   C4A61722  24.079  36.651   7.247
 4833POPC   C1B61723  23.292  36.708   6.378
 4833POPC   C2B61724  23.458  36.552   6.739
 4833POPC   C3B61725  23.713  36.816   6.908
 4833POPC   C4B61726  23.618  37.255   7.093
 4834POPC   NC361727   1.655  28.291   5.438
 4834POPC   PO461728   2.248  28.265   5.383
 4834POPC   GL161729   2.143  28.534   5.766
 4834POPC   GL261730   1.773  28.570   5.854
 4834POPC   C1A61731   2.120  28.589   6.229
 4834POPC   D2A61732   2.023  28.325   6.575
 4834POPC   C3A61733   2.166  28.445   6.945
 4834POPC   C4A61734   2.296  28.173   7.254
 4834POPC   C1B61735   1.632  28.416   6.266
 4834POPC   C2B61736   1.517  28.471   6.676
 4834POPC   C3B61737   1.677  28.528   7.081
 4834POPC   C4B61738   1.804  28.273   7.407
 4835POPC   NC361739  26.742  20.240   5.342
 4835POPC   PO461740  26.546  20.753   5.650
 4835POPC   GL161741  26.658  20.357   5.844
 4835POPC   GL261742  26.986  20.420   5.771
 4835POPC   C1A61743  26.852  20.318   6.255
 4835POPC   D2A61744  26.929  20.523   6.615
 4835POPC   C3A61745  27.090  20.371   6.978
 4835POPC   C4A61746  26.908  20.530   7.373
 4835POPC   C1B61747  27.068  20.762   6.134
 4835POPC   C2B61748  27.056  20.998   6.550
 4835POPC   C3B61749  26.965  20.907   7.010
 4835POPC   C4B61750  27.088  21.015   7.425
 4836POPC   NC361751  11.551  15.964   5.385
 4836POPC   PO461752  10.891  15.852   5.468
 4836POPC   GL161753  11.164  15.911   5.811
 4836POPC   GL261754  11.437  15.641   5.772
 4836POPC   C1A61755  11.102  16.133   6.230
 4836POPC   D2A61756  10.955  15.976   6.652
 4836POPC   C3A61757  11.054  16.228   7.042
 4836POPC   C4A61758  10.986  16.087   7.469
 4836POPC   C1B61759  11.495  15.803   6.189
 4836POPC   C2B61760  11.638  15.888   6.617
 4836POPC   C3B61761  11.604  15.678   7.015
 4836POPC   C4B61762  11.451  15.964   7.300
 4837POPC   NC361763  11.417   5.830   5.249
 4837POPC   PO461764  11.495   6.400   5.376
 4837POPC   GL161765  11.386   6.080   5.727
 4837POPC   GL261766  11.403   5.694   5.783
 4837POPC   C1A61767  11.303   6.004   6.184
 4837POPC   D2A61768  11.210   5.713   6.555
 4837POPC   C3A61769  11.273   5.905   6.987
 4837POPC   C4A61770  11.258   5.856   7.444
 4837POPC   C1B61771  11.623   5.600   6.243
 4837POPC   C2B61772  11.699   5.713   6.733
 4837POPC   C3B61773  11.554   5.514   7.171
 4837POPC   C4B61774  11.538   5.446   7.662
 4838POPC   NC361775  20.971  20.508   5.429
 4838POPC   PO461776  20.286  20.526   5.406
 4838POPC   GL161777  20.556  20.526   5.766
 4838POPC   GL261778  20.669  20.862   5.745
 4838POPC   C1A61779  20.735  20.459   6.194
 4838POPC   D2A61780  20.598  20.548   6.625
 4838POPC   C3A61781  20.741  20.503   7.088
 4838POPC   C4A61782  20.759  20.249   7.502
 4838POPC   C1B61783  20.399  21.007   6.118
 4838POPC   C2B61784  20.315  21.036   6.566
 4838POPC   C3B61785  20.308  20.795   6.953
 4838POPC   C4B61786  20.365  20.701   7.411
 4839POPC   NC361787  40.764  15.627   5.476
 4839POPC   PO461788  40.562  16.319   5.485
 4839POPC   GL161789  40.637  16.009   5.799
 4839POPC   GL261790  40.429  15.726   5.866
 4839POPC   C1A61791  40.957  15.970   6.112
 4839POPC   D2A61792  41.029  15.867   6.524
 4839POPC   C3A61793  41.106  16.204   6.782
 4839POPC   C4A61794  41.159  16.106   7.187
 4839POPC   C1B61795  40.531  15.784   6.305
 4839POPC   C2B61796  40.443  15.642   6.717
 4839POPC   C3B61797  40.718  15.728   7.072
 4839POPC   C4B61798  40.700  15.483   7.470
 4840POPC   NC361799  44.604  43.672   5.524
 4840POPC   PO461800  44.560  43.015   5.426
 4840POPC   GL161801  44.761  43.108   5.812
 4840POPC   GL261802  44.980  42.802   5.752
 4840POPC   C1A61803  44.788  43.344   6.215
 4840POPC   D2A61804  44.611  43.473   6.622
 4840POPC   C3A61805  44.727  43.209   6.947
 4840POPC   C4A61806  44.745  42.972   7.355
 4840POPC   C1B61807   0.116  42.934   6.177
 4840POPC   C2B61808   0.117  43.098   6.602
 4840POPC   C3B61809   0.094  42.879   6.989
 4840POPC   C4B61810   0.028  42.574   7.334
 4841POPC   NC361811  28.236  27.530   5.441
 4841POPC   PO461812  28.905  27.771   5.561
 4841POPC   GL161813  28.633  27.554   5.794
 4841POPC   GL261814  28.356  27.802   5.868
 4841POPC   C1A61815  28.451  27.355   6.135
 4841POPC   D2A61816  28.238  27.495   6.490
 4841POPC   C3A61817  28.337  27.363   6.924
 4841POPC   C4A61818  28.199  27.193   7.300
 4841POPC   C1B61819  28.608  27.810   6.264
 4841POPC   C2B61820  28.705  27.686   6.700
 4841POPC   C3B61821  28.461  27.819   7.088
 4841POPC   C4B61822  28.595  28.007   7.464
 4842POPC   NC361823  33.577  40.898   5.435
 4842POPC   PO461824  33.122  40.420   5.342
 4842POPC   GL161825  33.081  40.756   5.666
 4842POPC   GL261826  33.285  40.642   5.880
 4842POPC   C1A61827  32.900  40.965   6.087
 4842POPC   D2A61828  32.735  40.800   6.531
 4842POPC   C3A61829  32.867  40.989   6.958
 4842POPC   C4A61830  32.799  40.753   7.350
 4842POPC   C1B61831  33.121  40.565   6.287
 4842POPC   C2B61832  33.229  40.712   6.672
 4842POPC   C3B61833  32.976  40.476   6.910
 4842POPC   C4B61834  33.044  40.285   7.270
 4843POPC   NC361835  13.693  43.155   5.449
 4843POPC   PO461836  13.053  43.147   5.183
 4843POPC   GL161837  13.212  43.069   5.672
 4843POPC   GL261838  13.485  42.839   5.804
 4843POPC   C1A61839  13.413  43.266   6.084
 4843POPC   D2A61840  13.743  43.195   6.407
 4843POPC   C3A61841  13.632  43.142   6.852
 4843POPC   C4A61842  13.527  43.182   7.291
 4843POPC   C1B61843  13.783  42.712   6.170
 4843POPC   C2B61844  13.945  42.761   6.623
 4843POPC   C3B61845  14.053  42.603   7.013
 4843POPC   C4B61846  13.752  42.741   7.296
 4844POPC   NC361847  28.363   8.514   5.376
 4844POPC   PO461848  28.115   7.864   5.488
 4844POPC   GL161849  28.358   8.160   5.773
 4844POPC   GL261850  28.191   8.494   5.835
 4844POPC   C1A61851  28.602   8.150   6.157
 4844POPC   D2A61852  28.404   8.073   6.556
 4844POPC   C3A61853  28.614   8.187   6.932
 4844POPC   C4A61854  28.482   8.236   7.344
 4844POPC   C1B61855  28.142   8.370   6.212
 4844POPC   C2B61856  27.968   8.392   6.569
 4844POPC   C3B61857  28.131   8.346   6.939
 4844POPC   C4B61858  28.047   8.513   7.286
 4845POPC   NC361859  23.943  13.736   5.129
 4845POPC   PO461860  23.412  13.773   5.595
 4845POPC   GL161861  23.556  13.506   5.938
 4845POPC   GL261862  23.293  13.603   6.098
 4845POPC   C1A61863  23.799  13.541   6.304
 4845POPC   D2A61864  23.784  13.658   6.723
 4845POPC   C3A61865  23.565  13.517   7.055
 4845POPC   C4A61866  23.839  13.558   7.370
 4845POPC   C1B61867  23.410  13.913   6.383
 4845POPC   C2B61868  23.432  14.060   6.800
 4845POPC   C3B61869  23.188  13.954   7.174
 4845POPC   C4B61870  23.337  13.692   7.514
 4846POPC   NC361871  41.420  26.146   5.074
 4846POPC   PO461872  41.143  26.376   5.615
 4846POPC   GL161873  41.578  26.141   5.667
 4846POPC   GL261874  41.678  25.772   5.718
 4846POPC   C1A61875  41.745  26.131   6.096
 4846POPC   D2A61876  41.469  26.267   6.421
 4846POPC   C3A61877  41.479  26.167   6.864
 4846POPC   C4A61878  41.355  26.069   7.298
 4846POPC   C1B61879  41.465  25.710   6.117
 4846POPC   C2B61880  41.428  25.751   6.542
 4846POPC   C3B61881  41.426  25.682   6.968
 4846POPC   C4B61882  41.713  25.717   7.314
 4847POPC   NC361883  20.249   3.576   5.644
 4847POPC   PO461884  19.623   3.584   5.440
 4847POPC   GL161885  19.767   3.612   5.845
 4847POPC   GL261886  19.914   3.282   5.895
 4847POPC   C1A61887  19.891   3.686   6.275
 4847POPC   D2A61888  19.778   3.613   6.691
 4847POPC   C3A61889  19.990   3.407   7.007
 4847POPC   C4A61890  19.795   3.705   7.272
 4847POPC   C1B61891  19.590   3.289   6.217
 4847POPC   C2B61892  19.714   3.115   6.600
 4847POPC   C3B61893  19.529   3.131   6.979
 4847POPC   C4B61894  19.575   3.268   7.336
 4848POPC   NC361895  29.511  36.862   5.630
 4848POPC   PO461896  30.165  36.896   5.454
 4848POPC   GL161897  29.943  37.041   5.817
 4848POPC   GL261898  30.135  37.292   5.914
 4848POPC   C1A61899  29.939  36.855   6.204
 4848POPC   D2A61900  29.801  36.864   6.608
 4848POPC   C3A61901  30.050  36.696   6.928
 4848POPC   C4A61902  29.842  36.740   7.308
 4848POPC   C1B61903  30.306  37.207   6.288
 4848POPC   C2B61904  30.267  37.128   6.709
 4848POPC   C3B61905  30.259  37.419   7.057
 4848POPC   C4B61906  30.294  37.024   7.250
 4849POPC   NC361907   6.758  27.788   5.301
 4849POPC   PO461908   7.251  27.944   5.608
 4849POPC   GL161909   6.884  27.838   5.885
 4849POPC   GL261910   6.732  27.519   5.839
 4849POPC   C1A61911   6.641  27.962   6.289
 4849POPC   D2A61912   6.421  27.863   6.700
 4849POPC   C3A61913   6.666  27.802   7.114
 4849POPC   C4A61914   6.820  27.376   7.253
 4849POPC   C1B61915   6.355  27.552   6.118
 4849POPC   C2B61916   6.237  27.389   6.520
 4849POPC   C3B61917   6.410  27.401   6.927
 4849POPC   C4B61918   6.337  27.516   7.376
 4850POPC   NC361919  38.097  14.938   5.382
 4850POPC   PO461920  38.557  15.375   5.336
 4850POPC   GL161921  38.490  15.275   5.771
 4850POPC   GL261922  38.186  15.072   5.875
 4850POPC   C1A61923  38.581  15.149   6.200
 4850POPC   D2A61924  38.293  15.098   6.568
 4850POPC   C3A61925  38.432  15.373   6.910
 4850POPC   C4A61926  38.718  15.303   7.236
 4850POPC   C1B61927  38.125  15.432   6.157
 4850POPC   C2B61928  37.994  15.546   6.569
 4850POPC   C3B61929  37.926  15.300   6.924
 4850POPC   C4B61930  38.053  15.448   7.292
 4851POPC   NC361931  29.372   3.216   5.581
 4851POPC   PO461932  28.958   2.628   5.467
 4851POPC   GL161933  29.132   2.833   5.850
 4851POPC   GL261934  28.968   3.157   5.903
 4851POPC   C1A61935  29.246   2.703   6.279
 4851POPC   D2A61936  29.148   2.373   6.591
 4851POPC   C3A61937  28.988   2.365   7.016
 4851POPC   C4A61938  28.717   2.341   7.375
 4851POPC   C1B61939  29.262   3.236   6.228
 4851POPC   C2B61940  29.431   3.055   6.598
 4851POPC   C3B61941  29.322   2.770   6.922
 4851POPC   C4B61942  29.056   2.825   7.277
 4852POPC   NC361943  42.340  21.393   5.291
 4852POPC   PO461944  41.809  21.145   5.594
 4852POPC   GL161945  42.198  21.178   5.821
 4852POPC   GL261946  42.454  21.460   5.795
 4852POPC   C1A61947  42.188  21.328   6.241
 4852POPC   D2A61948  42.058  21.569   6.581
 4852POPC   C3A61949  42.147  21.416   6.930
 4852POPC   C4A61950  42.253  21.679   7.231
 4852POPC   C1B61951  42.682  21.317   6.188
 4852POPC   C2B61952  42.560  21.301   6.623
 4852POPC   C3B61953  42.668  21.492   7.020
 4852POPC   C4B61954  42.668  21.362   7.477
 4853POPC   NC361955  44.751  34.671   5.559
 4853POPC   PO461956  44.220  34.410   5.247
 4853POPC   GL161957  44.299  34.714   5.736
 4853POPC   GL261958  44.533  34.483   5.980
 4853POPC   C1A61959  44.330  34.912   6.193
 4853POPC   D2A61960  44.494  34.823   6.634
 4853POPC   C3A61961  44.509  34.773   7.116
 4853POPC   C4A61962  44.587  34.300   7.236
 4853POPC   C1B61963  44.877  34.556   6.321
 4853POPC   C2B61964  44.976  34.743   6.758
 4853POPC   C3B61965  44.978  34.648   7.221
 4853POPC   C4B61966   0.147  34.761   7.641
 4854POPC   NC361967  38.162  30.966   5.459
 4854POPC   PO461968  38.282  30.348   5.553
 4854POPC   GL161969  38.224  30.653   5.891
 4854POPC   GL261970  38.452  30.958   5.883
 4854POPC   C1A61971  38.362  30.730   6.328
 4854POPC   D2A61972  38.651  30.910   6.630
 4854POPC   C3A61973  38.383  30.930   6.975
 4854POPC   C4A61974  38.218  30.623   7.203
 4854POPC   C1B61975  38.554  31.255   6.215
 4854POPC   C2B61976  38.688  31.416   6.622
 4854POPC   C3B61977  38.753  31.270   7.050
 4854POPC   C4B61978  38.438  31.176   7.420
 4855POPC   NC361979  21.251  38.040   5.424
 4855POPC   PO461980  21.392  37.401   5.574
 4855POPC   GL161981  21.340  37.744   5.849
 4855POPC   GL261982  21.663  37.885   5.711
 4855POPC   C1A61983  21.235  37.689   6.329
 4855POPC   D2A61984  21.031  37.663   6.763
 4855POPC   C3A61985  21.347  37.604   7.093
 4855POPC   C4A61986  21.366  37.656   7.535
 4855POPC   C1B61987  21.706  37.859   6.170
 4855POPC   C2B61988  21.728  37.631   6.557
 4855POPC   C3B61989  21.815  37.817   6.955
 4855POPC   C4B61990  21.656  37.997   7.309
 4856POPC   NC361991   0.923   2.068   5.369
 4856POPC   PO461992   1.470   1.952   5.206
 4856POPC   GL161993   1.416   2.030   5.654
 4856POPC   GL261994   1.184   1.784   5.753
 4856POPC   C1A61995   1.355   2.244   6.080
 4856POPC   D2A61996   1.486   2.436   6.469
 4856POPC   C3A61997   1.413   2.226   6.854
 4856POPC   C4A61998   1.149   2.319   7.195
 4856POPC   C1B61999   0.925   1.969   6.089
 4856POPC   C2B62000   1.024   2.126   6.497
 4856POPC   C3B62001   0.971   1.946   6.899
 4856POPC   C4B62002   1.316   1.827   7.171
 4857POPC   NC362003  41.778  16.158   5.449
 4857POPC   PO462004  41.169  15.884   5.507
 4857POPC   GL162005  41.477  15.935   5.797
 4857POPC   GL262006  41.477  16.296   5.844
 4857POPC   C1A62007  41.461  15.843   6.205
 4857POPC   D2A62008  41.516  15.569   6.541
 4857POPC   C3A62009  41.407  15.787   6.892
 4857POPC   C4A62010  41.593  15.861   7.299
 4857POPC   C1B62011  41.805  16.284   6.159
 4857POPC   C2B62012  41.735  16.073   6.559
 4857POPC   C3B62013  41.669  16.223   6.950
 4857POPC   C4B62014  41.987  16.181   7.265
 4858POPC   NC362015  18.964  21.028   5.349
 4858POPC   PO462016  19.045  21.627   5.400
 4858POPC   GL162017  19.018  21.333   5.774
 4858POPC   GL262018  18.718  21.428   5.965
 4858POPC   C1A62019  19.198  21.121   6.158
 4858POPC   D2A62020  19.294  21.286   6.577
 4858POPC   C3A62021  19.268  21.117   7.009
 4858POPC   C4A62022  19.230  21.347   7.436
 4858POPC   C1B62023  18.785  21.321   6.415
 4858POPC   C2B62024  18.788  21.274   6.873
 4858POPC   C3B62025  18.703  21.535   7.241
 4858POPC   C4B62026  18.820  21.597   7.663
 4859POPC   NC362027  40.313  22.215   5.315
 4859POPC   PO462028  41.012  22.008   5.221
 4859POPC   GL162029  40.919  22.056   5.692
 4859POPC   GL262030  40.973  22.408   5.861
 4859POPC   C1A62031  40.807  22.006   6.141
 4859POPC   D2A62032  40.851  22.155   6.593
 4859POPC   C3A62033  40.931  21.899   6.986
 4859POPC   C4A62034  40.650  22.079   7.290
 4859POPC   C1B62035  41.194  22.410   6.266
 4859POPC   C2B62036  41.186  22.567   6.699
 4859POPC   C3B62037  40.986  22.404   7.087
 4859POPC   C4B62038  40.789  22.518   7.545
 4860POPC   NC362039  16.580  28.765   5.462
 4860POPC   PO462040  16.979  29.207   5.266
 4860POPC   GL162041  16.811  29.191   5.759
 4860POPC   GL262042  16.799  28.888   5.901
 4860POPC   C1A62043  16.478  29.209   6.145
 4860POPC   D2A62044  16.514  29.135   6.628
 4860POPC   C3A62045  16.690  29.327   7.055
 4860POPC   C4A62046  16.668  29.426   7.525
 4860POPC   C1B62047  16.953  29.104   6.282
 4860POPC   C2B62048  17.040  29.272   6.685
 4860POPC   C3B62049  17.271  29.472   7.039
 4860POPC   C4B62050  17.185  29.457   7.493
 4861POPC   NC362051  18.387   2.928   5.384
 4861POPC   PO462052  17.958   2.538   5.552
 4861POPC   GL162053  18.172   2.919   5.843
 4861POPC   GL262054  18.555   3.044   5.856
 4861POPC   C1A62055  18.211   3.109   6.278
 4861POPC   D2A62056  18.297   2.908   6.689
 4861POPC   C3A62057  18.040   2.841   7.076
 4861POPC   C4A62058  17.877   2.967   7.476
 4861POPC   C1B62059  18.568   2.740   6.211
 4861POPC   C2B62060  18.752   2.724   6.654
 4861POPC   C3B62061  18.585   2.676   7.059
 4861POPC   C4B62062  18.579   2.305   7.320
 4862POPC   NC362063  28.572  20.063   5.377
 4862POPC   PO462064  28.388  19.366   5.376
 4862POPC   GL162065  28.275  19.686   5.729
 4862POPC   GL262066  28.148  20.040   5.692
 4862POPC   C1A62067  28.522  19.881   6.109
 4862POPC   D2A62068  28.664  20.100   6.522
 4862POPC   C3A62069  28.515  19.886   6.908
 4862POPC   C4A62070  28.533  20.069   7.294
 4862POPC   C1B62071  28.003  19.897   6.124
 4862POPC   C2B62072  28.169  19.934   6.527
 4862POPC   C3B62073  27.991  19.908   6.939
 4862POPC   C4B62074  28.073  19.771   7.335
 4863POPC   NC362075   2.464   3.078   5.295
 4863POPC   PO462076   2.979   2.610   5.371
 4863POPC   GL162077   2.857   2.694   5.808
 4863POPC   GL262078   2.714   3.005   5.838
 4863POPC   C1A62079   2.667   2.660   6.238
 4863POPC   D2A62080   2.407   2.855   6.574
 4863POPC   C3A62081   2.511   2.765   7.015
 4863POPC   C4A62082   2.455   2.559   7.427
 4863POPC   C1B62083   2.804   3.145   6.298
 4863POPC   C2B62084   2.929   2.894   6.686
 4863POPC   C3B62085   2.993   2.887   7.152
 4863POPC   C4B62086   3.004   3.020   7.595
 4864POPC   NC362087   1.171  10.682   5.161
 4864POPC   PO462088   1.431  10.333   5.690
 4864POPC   GL162089   1.209  10.328   6.025
 4864POPC   GL262090   0.950  10.543   5.944
 4864POPC   C1A62091   1.302  10.600   6.367
 4864POPC   D2A62092   1.378  10.851   6.700
 4864POPC   C3A62093   1.406  10.661   7.093
 4864POPC   C4A62094   1.313  10.421   7.450
 4864POPC   C1B62095   0.805  10.474   6.346
 4864POPC   C2B62096   0.952  10.547   6.755
 4864POPC   C3B62097   1.094  10.242   7.017
 4864POPC   C4B62098   0.833  10.082   7.309
 4865POPC   NC362099  40.943  32.590   5.426
 4865POPC   PO462100  40.855  33.261   5.462
 4865POPC   GL162101  40.708  33.034   5.790
 4865POPC   GL262102  40.511  32.766   5.661
 4865POPC   C1A62103  40.838  33.129   6.212
 4865POPC   D2A62104  40.856  33.436   6.553
 4865POPC   C3A62105  40.718  33.270   6.967
 4865POPC   C4A62106  40.606  33.070   7.363
 4865POPC   C1B62107  40.481  32.748   6.130
 4865POPC   C2B62108  40.513  32.924   6.550
 4865POPC   C3B62109  40.502  32.774   6.951
 4865POPC   C4B62110  40.853  32.665   7.194
 4866POPC   NC362111  29.672   4.507   5.419
 4866POPC   PO462112  29.124   4.249   5.067
 4866POPC   GL162113  29.108   4.106   5.555
 4866POPC   GL262114  28.879   4.296   5.791
 4866POPC   C1A62115  29.337   4.150   5.974
 4866POPC   D2A62116  29.563   4.249   6.372
 4866POPC   C3A62117  29.500   3.989   6.745
 4866POPC   C4A62118  29.300   4.247   7.041
 4866POPC   C1B62119  29.017   4.443   6.219
 4866POPC   C2B62120  29.046   4.199   6.595
 4866POPC   C3B62121  28.803   4.199   6.963
 4866POPC   C4B62122  28.535   4.029   7.217
 4867POPC   NC362123  28.217  29.257   5.363
 4867POPC   PO462124  28.438  28.652   5.473
 4867POPC   GL162125  28.285  28.991   5.840
 4867POPC   GL262126  28.191  29.341   5.921
 4867POPC   C1A62127  28.475  28.984   6.305
 4867POPC   D2A62128  28.525  28.710   6.695
 4867POPC   C3A62129  28.550  28.951   7.102
 4867POPC   C4A62130  28.507  29.207   7.533
 4867POPC   C1B62131  28.019  29.189   6.335
 4867POPC   C2B62132  28.162  29.101   6.772
 4867POPC   C3B62133  28.296  29.399   7.115
 4867POPC   C4B62134  28.156  29.572   7.551
 4868POPC   NC362135   9.255  29.223   5.328
 4868POPC   PO462136   9.794  28.776   5.380
 4868POPC   GL162137   9.598  28.876   5.778
 4868POPC   GL262138   9.468  29.233   5.789
 4868POPC   C1A62139   9.749  28.875   6.221
 4868POPC   D2A62140   9.503  29.008   6.526
 4868POPC   C3A62141   9.656  29.000   6.938
 4868POPC   C4A62142   9.709  28.720   7.256
 4868POPC   C1B62143   9.639  29.374   6.173
 4868POPC   C2B62144   9.778  29.428   6.600
 4868POPC   C3B62145   9.975  29.394   6.998
 4868POPC   C4B62146   9.775  29.521   7.370
 4869POPC   NC362147  44.976  39.103   5.688
 4869POPC   PO462148  44.436  39.440   5.607
 4869POPC   GL162149  44.555  39.281   5.948
 4869POPC   GL262150  44.459  38.972   5.848
 4869POPC   C1A62151  44.674  39.280   6.363
 4869POPC   D2A62152  44.531  39.203   6.779
 4869POPC   C3A62153  44.852  39.221   7.070
 4869POPC   C4A62154  44.836  39.505   7.392
 4869POPC   C1B62155  44.259  38.992   6.259
 4869POPC   C2B62156  44.232  38.795   6.657
 4869POPC   C3B62157  44.169  38.990   7.061
 4869POPC   C4B62158  44.380  39.334   7.273
 4870POPC   NC362159   7.922   5.486   5.496
 4870POPC   PO462160   8.149   4.842   5.377
 4870POPC   GL162161   7.933   4.927   5.754
 4870POPC   GL262162   7.946   4.575   5.791
 4870POPC   C1A62163   8.076   5.115   6.161
 4870POPC   D2A62164   8.313   5.025   6.554
 4870POPC   C3A62165   8.059   5.129   6.922
 4870POPC   C4A62166   8.032   5.314   7.354
 4870POPC   C1B62167   8.090   4.608   6.191
 4870POPC   C2B62168   7.922   4.695   6.577
 4870POPC   C3B62169   8.039   4.612   6.968
 4870POPC   C4B62170   7.926   4.811   7.297
 4871POPC   NC362171   3.905   3.662   5.634
 4871POPC   PO462172   3.305   3.509   5.480
 4871POPC   GL162173   3.399   3.740   5.817
 4871POPC   GL262174   3.559   3.431   5.941
 4871POPC   C1A62175   3.558   3.829   6.231
 4871POPC   D2A62176   3.698   3.593   6.564
 4871POPC   C3A62177   3.535   3.647   6.994
 4871POPC   C4A62178   3.297   3.313   7.235
 4871POPC   C1B62179   3.822   3.155   6.172
 4871POPC   C2B62180   4.016   3.152   6.575
 4871POPC   C3B62181   3.980   3.392   6.935
 4871POPC   C4B62182   3.809   3.316   7.289
 4872POPC   NC362183  13.774  29.776   5.327
 4872POPC   PO462184  13.236  30.051   5.318
 4872POPC   GL162185  13.543  30.139   5.668
 4872POPC   GL262186  13.744  29.842   5.820
 4872POPC   C1A62187  13.479  30.160   6.128
 4872POPC   D2A62188  13.350  29.907   6.496
 4872POPC   C3A62189  13.556  30.038   6.854
 4872POPC   C4A62190  13.618  30.120   7.267
 4872POPC   C1B62191  13.680  29.602   6.179
 4872POPC   C2B62192  13.784  29.614   6.604
 4872POPC   C3B62193  13.890  29.675   7.011
 4872POPC   C4B62194  14.016  29.796   7.403
 4873POPC   NC362195  31.147  11.134   5.522
 4873POPC   PO462196  31.779  11.079   5.491
 4873POPC   GL162197  31.580  11.299   5.804
 4873POPC   GL262198  31.406  11.028   5.932
 4873POPC   C1A62199  31.502  11.427   6.244
 4873POPC   D2A62200  31.261  11.439   6.665
 4873POPC   C3A62201  31.478  11.539   7.069
 4873POPC   C4A62202  31.813  11.375   7.344
 4873POPC   C1B62203  31.520  10.853   6.293
 4873POPC   C2B62204  31.631  11.105   6.626
 4873POPC   C3B62205  31.516  11.007   7.045
 4873POPC   C4B62206  31.376  11.098   7.459
 4874POPC   NC362207   1.625   0.764   5.098
 4874POPC   PO462208   1.872   0.390   5.481
 4874POPC   GL162209   2.057   0.287   5.833
 4874POPC   GL262210   1.860   0.020   5.878
 4874POPC   C1A62211   2.015   0.352   6.258
 4874POPC   D2A62212   2.119   0.102   6.572
 4874POPC   C3A62213   1.994   0.293   6.905
 4874POPC   C4A62214   2.129   0.516   7.210
 4874POPC   C1B62215   1.555  44.979   6.186
 4874POPC   C2B62216   1.583   0.026   6.620
 4874POPC   C3B62217   1.505   0.204   7.006
 4874POPC   C4B62218   1.682   0.302   7.400
 4875POPC   NC362219   4.344  30.261   5.645
 4875POPC   PO462220   4.641  30.728   5.135
 4875POPC   GL162221   4.600  30.774   5.658
 4875POPC   GL262222   4.269  30.934   5.817
 4875POPC   C1A62223   4.597  30.731   6.148
 4875POPC   D2A62224   4.410  30.958   6.533
 4875POPC   C3A62225   4.492  30.761   6.941
 4875POPC   C4A62226   4.663  31.036   7.239
 4875POPC   C1B62227   4.087  30.718   6.227
 4875POPC   C2B62228   4.082  30.560   6.707
 4875POPC   C3B62229   3.890  30.414   7.145
 4875POPC   C4B62230   4.012  30.454   7.627
 4876POPC   NC362231   6.208   0.628   5.697
 4876POPC   PO462232   6.814   0.293   5.514
 4876POPC   GL162233   6.716   0.448   5.912
 4876POPC   GL262234   6.686   0.777   5.877
 4876POPC   C1A62235   6.732   0.444   6.362
 4876POPC   D2A62236   6.468   0.231   6.663
 4876POPC   C3A62237   6.629   0.204   7.064
 4876POPC   C4A62238   6.854   0.542   7.161
 4876POPC   C1B62239   6.431   0.869   6.277
 4876POPC   C2B62240   6.494   0.763   6.712
 4876POPC   C3B62241   6.357   0.658   7.129
 4876POPC   C4B62242   6.488   0.736   7.544
 4877POPC   NC362243  28.709   0.800   5.443
 4877POPC   PO462244  28.225   0.464   5.428
 4877POPC   GL162245  28.434   0.507   5.793
 4877POPC   GL262246  28.382   0.881   5.825
 4877POPC   C1A62247  28.538   0.227   6.164
 4877POPC   D2A62248  28.607   0.142   6.609
 4877POPC   C3A62249  28.292   0.211   6.928
 4877POPC   C4A62250  28.361   0.018   7.277
 4877POPC   C1B62251  28.572   0.740   6.215
 4877POPC   C2B62252  28.660   0.647   6.647
 4877POPC   C3B62253  28.506   0.668   7.047
 4877POPC   C4B62254  28.568   0.498   7.448
 4878POPC   NC362255  39.826   4.212   5.358
 4878POPC   PO462256  39.778   4.832   5.516
 4878POPC   GL162257  39.996   4.515   5.800
 4878POPC   GL262258  39.844   4.206   5.869
 4878POPC   C1A62259  40.194   4.413   6.226
 4878POPC   D2A62260  40.289   4.149   6.613
 4878POPC   C3A62261  40.064   4.287   7.007
 4878POPC   C4A62262  39.921   4.671   7.275
 4878POPC   C1B62263  39.806   4.027   6.255
 4878POPC   C2B62264  39.698   4.121   6.643
 4878POPC   C3B62265  39.634   3.953   7.043
 4878POPC   C4B62266  39.699   4.182   7.374
 4879POPC   NC362267   0.766  22.536   5.400
 4879POPC   PO462268   0.503  23.147   5.450
 4879POPC   GL162269   0.392  23.081   5.856
 4879POPC   GL262270   0.501  22.729   5.836
 4879POPC   C1A62271   0.552  23.171   6.248
 4879POPC   D2A62272   0.868  23.132   6.553
 4879POPC   C3A62273   0.618  23.042   6.902
 4879POPC   C4A62274   0.410  23.138   7.275
 4879POPC   C1B62275   0.537  22.492   6.212
 4879POPC   C2B62276   0.757  22.505   6.590
 4879POPC   C3B62277   0.670  22.393   6.986
 4879POPC   C4B62278   0.587  22.654   7.304
 4880POPC   NC362279  27.136  41.181   5.277
 4880POPC   PO462280  26.896  40.524   5.383
 4880POPC   GL162281  26.912  40.714   5.811
 4880POPC   GL262282  26.776  41.054   5.730
 4880POPC   C1A62283  26.796  40.613   6.257
 4880POPC   D2A62284  26.865  40.428   6.686
 4880POPC   C3A62285  26.917  40.699   7.049
 4880POPC   C4A62286  26.610  40.711   7.362
 4880POPC   C1B62287  26.838  41.159   6.182
 4880POPC   C2B62288  26.804  40.977   6.621
 4880POPC   C3B62289  26.645  41.136   7.028
 4880POPC   C4B62290  26.817  41.163   7.458
 4881POPC   NC362291  18.592  35.660   5.529
 4881POPC   PO462292  18.904  35.067   5.548
 4881POPC   GL162293  19.004  35.161   5.922
 4881POPC   GL262294  18.875  35.491   5.926
 4881POPC   C1A62295  18.955  35.202   6.352
 4881POPC   D2A62296  19.070  35.218   6.738
 4881POPC   C3A62297  18.742  35.393   6.996
 4881POPC   C4A62298  18.686  35.179   7.407
 4881POPC   C1B62299  19.179  35.656   6.219
 4881POPC   C2B62300  19.393  35.578   6.580
 4881POPC   C3B62301  19.188  35.693   6.958
 4881POPC   C4B62302  19.272  35.717   7.375
 4882POPC   NC362303  15.471  27.841   5.431
 4882POPC   PO462304  14.980  27.442   5.288
 4882POPC   GL162305  15.169  27.514   5.700
 4882POPC   GL262306  14.829  27.491   5.781
 4882POPC   C1A62307  15.451  27.618   6.098
 4882POPC   D2A62308  15.559  27.325   6.471
 4882POPC   C3A62309  15.396  27.274   6.924
 4882POPC   C4A62310  15.334  27.539   7.307
 4882POPC   C1B62311  14.965  27.786   6.117
 4882POPC   C2B62312  15.165  27.681   6.532
 4882POPC   C3B62313  14.983  27.592   6.935
 4882POPC   C4B62314  14.843  27.800   7.303
 4883POPC   NC362315  44.102  39.217   5.393
 4883POPC   PO462316  43.508  39.067   5.615
 4883POPC   GL162317  43.849  38.972   5.864
 4883POPC   GL262318  44.027  39.257   5.882
 4883POPC   C1A62319  43.744  39.114   6.272
 4883POPC   D2A62320  43.925  39.191   6.630
 4883POPC   C3A62321  43.691  39.095   6.988
 4883POPC   C4A62322  43.853  39.287   7.336
 4883POPC   C1B62323  44.129  39.531   6.183
 4883POPC   C2B62324  44.275  39.568   6.553
 4883POPC   C3B62325  44.084  39.556   6.935
 4883POPC   C4B62326  43.974  39.774   7.290
 4884POPC   NC362327  21.035  30.022   5.419
 4884POPC   PO462328  21.569  30.305   5.521
 4884POPC   GL162329  21.542  30.000   5.831
 4884POPC   GL262330  21.208  29.919   5.896
 4884POPC   C1A62331  21.689  29.966   6.261
 4884POPC   D2A62332  21.621  30.121   6.673
 4884POPC   C3A62333  21.677  29.926   7.066
 4884POPC   C4A62334  21.433  30.213   7.250
 4884POPC   C1B62335  21.295  29.662   6.249
 4884POPC   C2B62336  21.144  29.651   6.624
 4884POPC   C3B62337  21.242  29.691   7.021
 4884POPC   C4B62338  21.058  29.834   7.365
 4885POPC   NC362339  16.391  21.019   5.593
 4885POPC   PO462340  16.863  20.675   5.301
 4885POPC   GL162341  17.004  20.635   5.756
 4885POPC   GL262342  16.731  20.427   5.850
 4885POPC   C1A62343  17.070  20.450   6.217
 4885POPC   D2A62344  16.761  20.441   6.581
 4885POPC   C3A62345  16.956  20.532   6.988
 4885POPC   C4A62346  17.034  20.939   7.198
 4885POPC   C1B62347  16.694  20.799   6.155
 4885POPC   C2B62348  16.593  20.972   6.548
 4885POPC   C3B62349  16.523  20.814   6.936
 4885POPC   C4B62350  16.340  20.708   7.301
 4886POPC   NC362351  25.853   2.823   5.503
 4886POPC   PO462352  26.374   3.230   5.565
 4886POPC   GL162353  26.176   3.064   5.899
 4886POPC   GL262354  26.155   2.706   5.918
 4886POPC   C1A62355  26.038   2.988   6.303
 4886POPC   D2A62356  26.125   2.652   6.542
 4886POPC   C3A62357  26.299   2.684   6.930
 4886POPC   C4A62358  26.079   2.640   7.301
 4886POPC   C1B62359  25.858   2.458   6.148
 4886POPC   C2B62360  25.736   2.303   6.516
 4886POPC   C3B62361  25.784   2.431   6.913
 4886POPC   C4B62362  25.663   2.336   7.308
 4887POPC   NC362363  44.323  27.907   5.522
 4887POPC   PO462364  43.636  27.869   5.445
 4887POPC   GL162365  43.780  27.636   5.877
 4887POPC   GL262366  44.135  27.673   5.925
 4887POPC   C1A62367  43.823  27.477   6.332
 4887POPC   D2A62368  43.653  27.706   6.692
 4887POPC   C3A62369  43.888  27.643   7.027
 4887POPC   C4A62370  43.859  27.290   7.232
 4887POPC   C1B62371  44.316  27.443   6.231
 4887POPC   C2B62372  44.225  27.472   6.668
 4887POPC   C3B62373  44.441  27.581   7.035
 4887POPC   C4B62374  44.251  27.906   7.261
 4888POPC   NC362375  19.720  10.672   5.535
 4888POPC   PO462376  20.235  10.310   5.391
 4888POPC   GL162377  19.886  10.259   5.810
 4888POPC   GL262378  19.501  10.365   5.892
 4888POPC   C1A62379  19.780  10.209   6.305
 4888POPC   D2A62380  19.856  10.144   6.791
 4888POPC   C3A62381  19.976  10.523   7.063
 4888POPC   C4A62382  20.082  10.784   7.455
 4888POPC   C1B62383  19.535  10.708   6.214
 4888POPC   C2B62384  19.653  10.873   6.640
 4888POPC   C3B62385  19.505  10.812   7.068
 4888POPC   C4B62386  19.630  10.554   7.423
 4889POPC   NC362387  31.751   4.300   5.468
 4889POPC   PO462388  31.179   4.082   5.239
 4889POPC   GL162389  31.322   4.164   5.760
 4889POPC   GL262390  31.389   4.466   5.947
 4889POPC   C1A62391  31.639   4.093   6.180
 4889POPC   D2A62392  31.924   4.298   6.554
 4889POPC   C3A62393  31.739   4.227   6.965
 4889POPC   C4A62394  31.318   4.203   7.180
 4889POPC   C1B62395  31.776   4.583   6.129
 4889POPC   C2B62396  31.540   4.620   6.507
 4889POPC   C3B62397  31.429   4.631   6.935
 4889POPC   C4B62398  31.621   4.580   7.332
 4890POPC   NC362399  19.256  42.329   5.406
 4890POPC   PO462400  18.565  42.446   5.347
 4890POPC   GL162401  18.857  42.303   5.740
 4890POPC   GL262402  19.192  42.376   5.891
 4890POPC   C1A62403  18.902  42.120   6.201
 4890POPC   D2A62404  19.091  42.000   6.632
 4890POPC   C3A62405  18.953  42.198   7.020
 4890POPC   C4A62406  18.625  42.335   7.273
 4890POPC   C1B62407  19.394  42.275   6.284
 4890POPC   C2B62408  19.291  42.489   6.686
 4890POPC   C3B62409  19.410  42.475   7.125
 4890POPC   C4B62410  19.257  42.318   7.507
 4891POPC   NC362411  12.242  30.414   5.493
 4891POPC   PO462412  11.747  30.904   5.498
 4891POPC   GL162413  12.089  30.829   5.762
 4891POPC   GL262414  12.101  30.528   5.967
 4891POPC   C1A62415  12.255  30.982   6.115
 4891POPC   D2A62416  12.120  30.739   6.463
 4891POPC   C3A62417  12.069  30.899   6.872
 4891POPC   C4A62418  12.232  30.773   7.281
 4891POPC   C1B62419  11.829  30.350   6.264
 4891POPC   C2B62420  11.710  30.489   6.664
 4891POPC   C3B62421  11.846  30.454   7.084
 4891POPC   C4B62422  11.835  30.154   7.391
 4892POPC   NC362423  44.568  13.957   5.304
 4892POPC   PO462424  44.917  14.455   5.543
 4892POPC   GL162425  44.767  14.483   5.935
 4892POPC   GL262426  44.463  14.622   5.828
 4892POPC   C1A62427  44.681  14.594   6.366
 4892POPC   D2A62428  44.871  14.451   6.756
 4892POPC   C3A62429  44.671  14.279   7.117
 4892POPC   C4A62430  44.828  14.161   7.534
 4892POPC   C1B62431  44.245  14.862   6.107
 4892POPC   C2B62432  44.183  14.759   6.505
 4892POPC   C3B62433  44.348  14.682   6.899
 4892POPC   C4B62434  44.350  14.627   7.350
 4893POPC   NC362435  31.980  11.499   5.428
 4893POPC   PO462436  32.425  11.044   5.285
 4893POPC   GL162437  32.174  11.158   5.777
 4893POPC   GL262438  32.040  11.500   5.915
 4893POPC   C1A62439  31.952  11.091   6.176
 4893POPC   D2A62440  32.154  11.018   6.546
 4893POPC   C3A62441  32.023  11.061   6.950
 4893POPC   C4A62442  32.291  11.249   7.178
 4893POPC   C1B62443  32.283  11.513   6.290
 4893POPC   C2B62444  32.398  11.698   6.687
 4893POPC   C3B62445  32.504  11.713   7.128
 4893POPC   C4B62446  32.198  11.692   7.454
 4894POPC   NC362447   0.534  33.478   5.528
 4894POPC   PO462448   0.659  32.853   5.540
 4894POPC   GL162449   0.584  33.044   5.951
 4894POPC   GL262450   0.300  33.266   5.927
 4894POPC   C1A62451   0.739  33.054   6.401
 4894POPC   D2A62452   0.861  33.057   6.854
 4894POPC   C3A62453   0.644  32.762   7.116
 4894POPC   C4A62454   0.211  32.690   7.143
 4894POPC   C1B62455   0.234  33.078   6.326
 4894POPC   C2B62456   0.349  33.005   6.762
 4894POPC   C3B62457   0.447  33.263   7.131
 4894POPC   C4B62458   0.793  33.551   7.268
 4895POPC   NC362459  19.699   7.887   5.448
 4895POPC   PO462460  19.635   8.567   5.521
 4895POPC   GL162461  19.858   8.265   5.811
 4895POPC   GL262462  19.826   7.898   5.936
 4895POPC   C1A62463  20.067   8.285   6.221
 4895POPC   D2A62464  20.074   8.089   6.616
 4895POPC   C3A62465  19.962   8.278   6.991
 4895POPC   C4A62466  20.293   8.183   7.265
 4895POPC   C1B62467  19.648   8.011   6.324
 4895POPC   C2B62468  19.577   7.950   6.760
 4895POPC   C3B62469  19.540   8.059   7.190
 4895POPC   C4B62470  19.364   8.086   7.631
 4896POPC   NC362471  12.224   7.643   5.355
 4896POPC   PO462472  12.101   7.044   5.475
 4896POPC   GL162473  12.106   7.393   5.808
 4896POPC   GL262474  12.412   7.518   5.874
 4896POPC   C1A62475  12.109   7.502   6.292
 4896POPC   D2A62476  12.111   7.229   6.703
 4896POPC   C3A62477  11.920   7.428   7.086
 4896POPC   C4A62478  11.766   7.616   7.502
 4896POPC   C1B62479  12.606   7.372   6.244
 4896POPC   C2B62480  12.542   7.483   6.645
 4896POPC   C3B62481  12.460   7.384   7.086
 4896POPC   C4B62482  12.280   7.638   7.410
 4897POPC   NC362483  39.133  27.093   5.346
 4897POPC   PO462484  39.723  26.744   5.317
 4897POPC   GL162485  39.435  26.839   5.693
 4897POPC   GL262486  39.075  26.854   5.786
 4897POPC   C1A62487  39.434  26.977   6.134
 4897POPC   D2A62488  39.185  26.851   6.485
 4897POPC   C3A62489  39.330  26.808   6.877
 4897POPC   C4A62490  39.188  26.654   7.226
 4897POPC   C1B62491  38.807  26.881   6.140
 4897POPC   C2B62492  38.797  27.173   6.468
 4897POPC   C3B62493  38.952  27.187   6.868
 4897POPC   C4B62494  38.844  27.326   7.281
 4898POPC   NC362495  28.375  16.126   5.562
 4898POPC   PO462496  28.211  15.471   5.571
 4898POPC   GL162497  28.475  15.727   5.858
 4898POPC   GL262498  28.176  15.912   5.989
 4898POPC   C1A62499  28.602  15.944   6.238
 4898POPC   D2A62500  28.279  15.935   6.580
 4898POPC   C3A62501  28.383  15.961   7.034
 4898POPC   C4A62502  28.087  16.095   7.366
 4898POPC   C1B62503  28.226  15.510   6.236
 4898POPC   C2B62504  28.029  15.344   6.568
 4898POPC   C3B62505  27.971  15.611   6.886
 4898POPC   C4B62506  28.126  15.571   7.267
 4899POPC   NC362507  20.655   2.309   5.078
 4899POPC   PO462508  20.473   1.821   5.442
 4899POPC   GL162509  20.541   1.920   5.888
 4899POPC   GL262510  20.764   2.211   5.929
 4899POPC   C1A62511  20.450   1.949   6.338
 4899POPC   D2A62512  20.605   2.143   6.714
 4899POPC   C3A62513  20.390   2.178   7.094
 4899POPC   C4A62514  20.582   1.818   7.248
 4899POPC   C1B62515  20.966   1.927   6.249
 4899POPC   C2B62516  20.944   1.694   6.643
 4899POPC   C3B62517  21.050   1.873   7.058
 4899POPC   C4B62518  20.873   2.239   7.318
 4900POPC   NC362519   8.745  26.124   5.485
 4900POPC   PO462520   8.115  25.858   5.382
 4900POPC   GL162521   8.272  25.863   5.802
 4900POPC   GL262522   8.179  26.154   5.903
 4900POPC   C1A62523   8.156  25.749   6.238
 4900POPC   D2A62524   8.087  25.580   6.642
 4900POPC   C3A62525   8.181  25.812   7.020
 4900POPC   C4A62526   8.521  25.776   7.310
 4900POPC   C1B62527   8.458  26.180   6.229
 4900POPC   C2B62528   8.326  26.158   6.644
 4900POPC   C3B62529   8.541  26.230   7.027
 4900POPC   C4B62530   8.367  26.234   7.450
 4901POPC   NC362531  10.924  17.124   5.625
 4901POPC   PO462532  10.438  17.577   5.354
 4901POPC   GL162533  10.315  17.602   5.774
 4901POPC   GL262534  10.614  17.536   5.870
 4901POPC   C1A62535  10.185  17.388   6.169
 4901POPC   D2A62536  10.380  17.361   6.570
 4901POPC   C3A62537  10.208  17.520   6.917
 4901POPC   C4A62538  10.380  17.513   7.297
 4901POPC   C1B62539  10.761  17.830   6.152
 4901POPC   C2B62540  10.820  17.662   6.545
 4901POPC   C3B62541  10.683  17.728   6.926
 4901POPC   C4B62542  10.806  17.797   7.332
 4902POPC   NC362543  23.759  34.981   5.525
 4902POPC   PO462544  23.984  35.616   5.294
 4902POPC   GL162545  23.690  35.479   5.644
 4902POPC   GL262546  23.999  35.435   5.816
 4902POPC   C1A62547  23.607  35.388   6.123
 4902POPC   D2A62548  23.839  35.622   6.464
 4902POPC   C3A62549  23.737  35.641   6.905
 4902POPC   C4A62550  23.539  35.354   7.217
 4902POPC   C1B62551  24.091  35.163   6.172
 4902POPC   C2B62552  24.180  35.019   6.560
 4902POPC   C3B62553  23.961  35.153   6.919
 4902POPC   C4B62554  23.879  34.947   7.299
 4903POPC   NC362555  38.066  34.506   5.403
 4903POPC   PO462556  38.746  34.686   5.475
 4903POPC   GL162557  38.647  34.543   5.852
 4903POPC   GL262558  38.282  34.563   5.864
 4903POPC   C1A62559  38.639  34.500   6.276
 4903POPC   D2A62560  38.431  34.612   6.619
 4903POPC   C3A62561  38.672  34.586   6.972
 4903POPC   C4A62562  38.541  34.437   7.373
 4903POPC   C1B62563  37.990  34.707   6.203
 4903POPC   C2B62564  37.943  34.507   6.612
 4903POPC   C3B62565  38.124  34.518   7.021
 4903POPC   C4B62566  38.045  34.306   7.388
 4904POPC   NC362567  41.791  12.539   5.559
 4904POPC   PO462568  42.286  12.075   5.497
 4904POPC   GL162569  42.195  11.930   5.897
 4904POPC   GL262570  42.198  12.293   5.947
 4904POPC   C1A62571  42.234  11.975   6.350
 4904POPC   D2A62572  42.257  12.211   6.733
 4904POPC   C3A62573  42.209  11.999   7.131
 4904POPC   C4A62574  41.939  11.853   7.476
 4904POPC   C1B62575  42.556  12.400   6.202
 4904POPC   C2B62576  42.603  12.575   6.624
 4904POPC   C3B62577  42.615  12.401   7.072
 4904POPC   C4B62578  42.660  12.477   7.553
 4905POPC   NC362579   7.015  43.260   5.531
 4905POPC   PO462580   6.341  43.193   5.259
 4905POPC   GL162581   6.628  42.986   5.698
 4905POPC   GL262582   6.834  42.678   5.807
 4905POPC   C1A62583   6.737  43.170   6.160
 4905POPC   D2A62584   6.463  43.318   6.492
 4905POPC   C3A62585   6.493  43.120   6.896
 4905POPC   C4A62586   6.608  43.383   7.251
 4905POPC   C1B62587   7.012  42.762   6.200
 4905POPC   C2B62588   6.937  42.967   6.605
 4905POPC   C3B62589   6.851  42.772   6.994
 4905POPC   C4B62590   6.497  42.722   7.261
 4906POPC   NC362591  16.181  13.435   5.496
 4906POPC   PO462592  15.643  13.849   5.561
 4906POPC   GL162593  15.895  13.591   5.883
 4906POPC   GL262594  15.889  13.208   5.903
 4906POPC   C1A62595  16.056  13.658   6.286
 4906POPC   D2A62596  15.909  14.015   6.569
 4906POPC   C3A62597  15.868  13.934   7.010
 4906POPC   C4A62598  16.265  13.931   7.185
 4906POPC   C1B62599  15.648  13.357   6.288
 4906POPC   C2B62600  15.802  13.483   6.713
 4906POPC   C3B62601  15.740  13.409   7.170
 4906POPC   C4B62602  15.515  13.388   7.607
 4907POPC   NC362603  33.616  12.468   5.414
 4907POPC   PO462604  33.855  11.850   5.297
 4907POPC   GL162605  33.879  12.065   5.706
 4907POPC   GL262606  33.931  11.728   5.804
 4907POPC   C1A62607  33.912  12.278   6.148
 4907POPC   D2A62608  33.864  12.517   6.559
 4907POPC   C3A62609  33.970  12.277   6.947
 4907POPC   C4A62610  33.742  12.225   7.327
 4907POPC   C1B62611  33.634  11.848   6.132
 4907POPC   C2B62612  33.722  12.009   6.560
 4907POPC   C3B62613  33.551  11.909   6.961
 4907POPC   C4B62614  33.535  11.726   7.350
 4908POPC   NC362615  23.517  44.568   5.608
 4908POPC   PO462616  23.929   0.155   5.513
 4908POPC   GL162617  23.884  44.824   5.862
 4908POPC   GL262618  23.510  44.795   6.060
 4908POPC   C1A62619  23.931  44.612   6.279
 4908POPC   D2A62620  23.672  44.710   6.630
 4908POPC   C3A62621  23.929  44.845   6.925
 4908POPC   C4A62622  23.940  44.786   7.333
 4908POPC   C1B62623  23.456  44.385   6.278
 4908POPC   C2B62624  23.661  44.191   6.641
 4908POPC   C3B62625  23.841  44.358   7.048
 4908POPC   C4B62626  23.682  44.373   7.480
 4909POPC   NC362627   0.558   0.940   5.379
 4909POPC   PO462628   0.837   1.609   5.399
 4909POPC   GL162629   0.625   1.334   5.717
 4909POPC   GL262630   0.259   1.241   5.754
 4909POPC   C1A62631   0.634   1.260   6.138
 4909POPC   D2A62632   0.418   1.314   6.490
 4909POPC   C3A62633   0.595   1.135   6.850
 4909POPC   C4A62634   0.511   1.172   7.275
 4909POPC   C1B62635   0.225   0.952   6.123
 4909POPC   C2B62636   0.135   0.791   6.534
 4909POPC   C3B62637   0.130   0.927   6.944
 4909POPC   C4B62638   0.298   0.707   7.283
 4910POPC   NC362639  11.826   2.365   5.411
 4910POPC   PO462640  11.986   3.018   5.302
 4910POPC   GL162641  12.090   2.769   5.679
 4910POPC   GL262642  12.316   2.999   5.870
 4910POPC   C1A62643  12.098   2.584   6.098
 4910POPC   D2A62644  12.189   2.634   6.543
 4910POPC   C3A62645  11.909   2.493   6.908
 4910POPC   C4A62646  12.052   2.471   7.349
 4910POPC   C1B62647  12.499   2.959   6.269
 4910POPC   C2B62648  12.428   3.155   6.673
 4910POPC   C3B62649  12.235   2.912   6.964
 4910POPC   C4B62650  12.418   2.820   7.321
 4911POPC   NC362651  30.378  19.551   5.509
 4911POPC   PO462652  30.886  20.002   5.452
 4911POPC   GL162653  30.950  19.920   5.893
 4911POPC   GL262654  30.930  19.569   5.823
 4911POPC   C1A62655  30.787  20.046   6.322
 4911POPC   D2A62656  30.399  20.099   6.575
 4911POPC   C3A62657  30.517  19.989   6.981
 4911POPC   C4A62658  30.868  20.000   7.202
 4911POPC   C1B62659  30.612  19.579   6.175
 4911POPC   C2B62660  30.520  19.590   6.623
 4911POPC   C3B62661  30.451  19.488   7.069
 4911POPC   C4B62662  30.734  19.371   7.433
 4912POPC   NC362663  23.753  15.457   5.464
 4912POPC   PO462664  24.144  15.018   5.764
 4912POPC   GL162665  23.703  15.147   5.893
 4912POPC   GL262666  23.426  14.923   5.747
 4912POPC   C1A62667  23.636  15.234   6.341
 4912POPC   D2A62668  23.898  15.358   6.722
 4912POPC   C3A62669  23.993  15.041   7.071
 4912POPC   C4A62670  23.872  15.065   7.529
 4912POPC   C1B62671  23.246  14.869   6.185
 4912POPC   C2B62672  23.282  14.976   6.640
 4912POPC   C3B62673  23.441  15.257   6.994
 4912POPC   C4B62674  23.362  15.173   7.418
 4913POPC   NC362675  43.703   6.835   5.306
 4913POPC   PO462676  43.092   6.697   5.315
 4913POPC   GL162677  42.975   6.665   5.746
 4913POPC   GL262678  42.686   6.441   5.742
 4913POPC   C1A62679  43.186   6.507   6.128
 4913POPC   D2A62680  43.401   6.746   6.445
 4913POPC   C3A62681  43.287   6.734   6.893
 4913POPC   C4A62682  43.146   6.459   7.214
 4913POPC   C1B62683  42.683   6.512   6.186
 4913POPC   C2B62684  42.906   6.562   6.564
 4913POPC   C3B62685  42.758   6.708   6.948
 4913POPC   C4B62686  42.678   6.553   7.350
 4914POPC   NC362687  33.429  21.680   5.541
 4914POPC   PO462688  33.013  21.174   5.401
 4914POPC   GL162689  32.774  21.378   5.715
 4914POPC   GL262690  33.071  21.475   5.821
 4914POPC   C1A62691  32.665  21.525   6.144
 4914POPC   D2A62692  32.809  21.368   6.527
 4914POPC   C3A62693  32.723  21.514   6.934
 4914POPC   C4A62694  32.885  21.385   7.308
 4914POPC   C1B62695  33.060  21.175   6.111
 4914POPC   C2B62696  33.250  21.130   6.503
 4914POPC   C3B62697  33.036  21.094   6.904
 4914POPC   C4B62698  33.078  20.908   7.287
 4915POPC   NC362699  12.114  31.205   5.417
 4915POPC   PO462700  11.581  31.730   5.302
 4915POPC   GL162701  11.904  31.628   5.694
 4915POPC   GL262702  11.799  31.296   5.836
 4915POPC   C1A62703  12.225  31.509   6.084
 4915POPC   D2A62704  12.210  31.301   6.503
 4915POPC   C3A62705  12.286  31.486   6.886
 4915POPC   C4A62706  12.185  31.262   7.229
 4915POPC   C1B62707  11.735  31.566   6.194
 4915POPC   C2B62708  11.678  31.430   6.614
 4915POPC   C3B62709  11.772  31.473   7.023
 4915POPC   C4B62710  12.041  31.750   7.245
 4916POPC   NC362711  43.149  19.510   5.477
 4916POPC   PO462712  42.802  18.930   5.451
 4916POPC   GL162713  43.096  18.908   5.813
 4916POPC   GL262714  43.385  19.139   5.770
 4916POPC   C1A62715  43.134  18.873   6.280
 4916POPC   D2A62716  43.309  18.748   6.670
 4916POPC   C3A62717  43.123  18.872   7.034
 4916POPC   C4A62718  43.030  19.062   7.417
 4916POPC   C1B62719  43.102  19.341   6.088
 4916POPC   C2B62720  42.990  19.376   6.506
 4916POPC   C3B62721  43.023  19.369   6.959
 4916POPC   C4B62722  43.245  19.501   7.332
 4917POPC   NC362723  42.288  15.081   5.408
 4917POPC   PO462724  41.901  15.707   5.410
 4917POPC   GL162725  42.179  15.479   5.772
 4917POPC   GL262726  42.313  15.112   5.893
 4917POPC   C1A62727  42.368  15.471   6.206
 4917POPC   D2A62728  42.486  15.336   6.601
 4917POPC   C3A62729  42.199  15.285   6.922
 4917POPC   C4A62730  42.449  15.247   7.283
 4917POPC   C1B62731  42.498  14.908   6.216
 4917POPC   C2B62732  42.776  14.904   6.557
 4917POPC   C3B62733  42.554  14.900   6.935
 4917POPC   C4B62734  42.232  14.767   7.212
 4918POPC   NC362735  25.493  22.891   5.517
 4918POPC   PO462736  25.577  23.459   5.293
 4918POPC   GL162737  25.408  23.311   5.768
 4918POPC   GL262738  25.131  23.000   5.844
 4918POPC   C1A62739  25.326  23.247   6.227
 4918POPC   D2A62740  25.194  22.956   6.556
 4918POPC   C3A62741  25.389  23.036   6.926
 4918POPC   C4A62742  25.098  23.108   7.221
 4918POPC   C1B62743  25.297  22.655   6.159
 4918POPC   C2B62744  25.446  22.507   6.596
 4918POPC   C3B62745  25.181  22.581   6.977
 4918POPC   C4B62746  25.322  22.653   7.376
 4919POPC   NC362747  17.393  43.329   5.380
 4919POPC   PO462748  17.596  42.679   5.418
 4919POPC   GL162749  17.638  43.013   5.691
 4919POPC   GL262750  17.300  42.892   5.834
 4919POPC   C1A62751  17.514  43.267   6.066
 4919POPC   D2A62752  17.310  43.050   6.430
 4919POPC   C3A62753  17.428  43.089   6.841
 4919POPC   C4A62754  17.479  43.193   7.288
 4919POPC   C1B62755  17.689  42.798   6.137
 4919POPC   C2B62756  17.824  42.914   6.564
 4919POPC   C3B62757  17.781  42.782   7.018
 4919POPC   C4B62758  17.673  42.719   7.464
 4920POPC   NC362759  14.210  13.869   5.430
 4920POPC   PO462760  14.113  13.149   5.465
 4920POPC   GL162761  14.335  13.381   5.832
 4920POPC   GL262762  14.385  13.743   5.893
 4920POPC   C1A62763  14.294  13.437   6.320
 4920POPC   D2A62764  14.186  13.757   6.647
 4920POPC   C3A62765  14.177  13.634   7.077
 4920POPC   C4A62766  14.268  13.891   7.400
 4920POPC   C1B62767  14.713  13.680   6.189
 4920POPC   C2B62768  14.720  13.728   6.587
 4920POPC   C3B62769  14.801  13.540   6.940
 4920POPC   C4B62770  14.687  13.613   7.327
 4921POPC   NC362771   6.207   5.766   5.482
 4921POPC   PO462772   6.780   5.451   5.229
 4921POPC   GL162773   6.755   5.727   5.636
 4921POPC   GL262774   6.566   6.058   5.680
 4921POPC   C1A62775   6.796   5.734   6.123
 4921POPC   D2A62776   6.629   5.760   6.563
 4921POPC   C3A62777   6.439   5.733   6.978
 4921POPC   C4A62778   6.611   5.751   7.413
 4921POPC   C1B62779   6.431   6.123   6.120
 4921POPC   C2B62780   6.579   6.289   6.509
 4921POPC   C3B62781   6.557   6.216   6.916
 4921POPC   C4B62782   6.443   6.237   7.327
 4922POPC   NC362783   8.570  43.518   5.466
 4922POPC   PO462784   8.102  42.924   5.379
 4922POPC   GL162785   8.351  42.986   5.749
 4922POPC   GL262786   8.236  43.306   5.793
 4922POPC   C1A62787   8.414  42.957   6.219
 4922POPC   D2A62788   8.642  43.141   6.597
 4922POPC   C3A62789   8.465  42.939   6.987
 4922POPC   C4A62790   8.018  42.877   7.139
 4922POPC   C1B62791   8.223  43.437   6.210
 4922POPC   C2B62792   8.214  43.665   6.595
 4922POPC   C3B62793   8.129  43.478   6.991
 4922POPC   C4B62794   8.369  43.295   7.338
 4923POPC   NC362795   8.895  30.750   5.168
 4923POPC   PO462796   9.369  30.411   5.230
 4923POPC   GL162797   9.072  30.572   5.620
 4923POPC   GL262798   8.739  30.382   5.613
 4923POPC   C1A62799   9.161  30.663   6.075
 4923POPC   D2A62800   9.239  30.919   6.457
 4923POPC   C3A62801   9.181  30.749   6.869
 4923POPC   C4A62802   9.202  30.904   7.300
 4923POPC   C1B62803   8.689  30.470   6.050
 4923POPC   C2B62804   8.883  30.494   6.471
 4923POPC   C3B62805   8.851  30.338   6.907
 4923POPC   C4B62806   8.786  30.595   7.222
 4924POPC   NC362807   0.269  23.554   5.613
 4924POPC   PO462808   0.858  23.857   5.477
 4924POPC   GL162809   0.582  23.936   5.874
 4924POPC   GL262810   0.229  23.849   6.040
 4924POPC   C1A62811   0.644  23.782   6.303
 4924POPC   D2A62812   0.601  23.534   6.668
 4924POPC   C3A62813   0.534  23.635   7.093
 4924POPC   C4A62814   0.481  23.592   7.523
 4924POPC   C1B62815   0.172  23.514   6.369
 4924POPC   C2B62816   0.158  23.348   6.836
 4924POPC   C3B62817   0.043  23.473   7.273
 4924POPC   C4B62818   0.100  23.257   7.684
 4925POPC   NC362819   6.371   2.309   5.452
 4925POPC   PO462820   6.955   1.970   5.495
 4925POPC   GL162821   6.821   1.885   5.921
 4925POPC   GL262822   6.494   1.976   5.882
 4925POPC   C1A62823   6.788   1.985   6.365
 4925POPC   D2A62824   6.766   1.736   6.749
 4925POPC   C3A62825   7.013   1.890   7.078
 4925POPC   C4A62826   6.745   2.169   7.211
 4925POPC   C1B62827   6.385   2.290   6.221
 4925POPC   C2B62828   6.265   2.504   6.612
 4925POPC   C3B62829   6.293   2.314   7.025
 4925POPC   C4B62830   6.299   2.251   7.495
 4926POPC   NC362831  39.702  31.571   5.526
 4926POPC   PO462832  40.400  31.469   5.531
 4926POPC   GL162833  40.153  31.638   5.818
 4926POPC   GL262834  40.294  31.937   5.775
 4926POPC   C1A62835  39.932  31.512   6.178
 4926POPC   D2A62836  39.725  31.289   6.507
 4926POPC   C3A62837  39.954  31.376   6.878
 4926POPC   C4A62838  39.934  31.188   7.264
 4926POPC   C1B62839  40.093  31.988   6.190
 4926POPC   C2B62840  40.107  31.798   6.574
 4926POPC   C3B62841  40.177  31.917   6.969
 4926POPC   C4B62842  40.148  31.662   7.292
 4927POPC   NC362843  18.540  20.529   5.498
 4927POPC   PO462844  17.813  20.541   5.495
 4927POPC   GL162845  17.998  20.646   5.888
 4927POPC   GL262846  18.215  20.362   5.870
 4927POPC   C1A62847  18.265  20.723   6.265
 4927POPC   D2A62848  18.474  20.923   6.627
 4927POPC   C3A62849  18.630  20.722   7.007
 4927POPC   C4A62850  18.444  20.401   7.293
 4927POPC   C1B62851  18.037  20.261   6.277
 4927POPC   C2B62852  18.258  20.304   6.677
 4927POPC   C3B62853  18.127  20.623   6.961
 4927POPC   C4B62854  17.782  20.533   7.220
 4928POPC   NC362855   6.299  26.904   5.388
 4928POPC   PO462856   6.845  27.336   5.385
 4928POPC   GL162857   6.875  26.949   5.722
 4928POPC   GL262858   6.543  26.759   5.807
 4928POPC   C1A62859   6.898  26.636   6.129
 4928POPC   D2A62860   6.714  26.590   6.557
 4928POPC   C3A62861   6.968  26.598   6.937
 4928POPC   C4A62862   6.740  26.629   7.330
 4928POPC   C1B62863   6.617  27.090   6.140
 4928POPC   C2B62864   6.709  27.136   6.562
 4928POPC   C3B62865   6.637  26.963   6.949
 4928POPC   C4B62866   6.437  27.031   7.307
 4929POPC   NC362867  18.453  22.310   5.547
 4929POPC   PO462868  19.100  22.281   5.462
 4929POPC   GL162869  19.166  22.171   5.859
 4929POPC   GL262870  18.999  21.867   5.841
 4929POPC   C1A62871  18.879  22.268   6.168
 4929POPC   D2A62872  18.735  22.120   6.541
 4929POPC   C3A62873  18.985  22.223   6.915
 4929POPC   C4A62874  18.834  22.425   7.300
 4929POPC   C1B62875  19.154  21.653   6.186
 4929POPC   C2B62876  19.054  21.728   6.602
 4929POPC   C3B62877  19.148  21.641   7.002
 4929POPC   C4B62878  19.051  21.915   7.332
 4930POPC   NC362879  21.669  26.471   5.324
 4930POPC   PO462880  21.601  27.116   5.272
 4930POPC   GL162881  21.395  26.934   5.664
 4930POPC   GL262882  21.062  26.761   5.616
 4930POPC   C1A62883  21.357  27.008   6.148
 4930POPC   D2A62884  21.215  27.119   6.604
 4930POPC   C3A62885  21.488  27.019   6.934
 4930POPC   C4A62886  21.576  26.671   7.215
 4930POPC   C1B62887  21.101  26.548   6.027
 4930POPC   C2B62888  21.160  26.598   6.483
 4930POPC   C3B62889  21.132  26.639   6.942
 4930POPC   C4B62890  21.130  26.486   7.368
 4931POPC   NC362891  15.239   9.794   5.338
 4931POPC   PO462892  15.958   9.724   5.429
 4931POPC   GL162893  15.961   9.837   5.856
 4931POPC   GL262894  15.934   9.524   5.999
 4931POPC   C1A62895  15.875   9.924   6.313
 4931POPC   D2A62896  16.151   9.828   6.672
 4931POPC   C3A62897  16.027  10.011   7.037
 4931POPC   C4A62898  15.790   9.894   7.384
 4931POPC   C1B62899  16.241   9.453   6.334
 4931POPC   C2B62900  16.299   9.360   6.767
 4931POPC   C3B62901  16.347   9.299   7.143
 4931POPC   C4B62902  15.975   9.396   7.338
 4932POPC   NC362903  30.331   6.328   5.571
 4932POPC   PO462904  29.753   6.752   5.418
 4932POPC   GL162905  29.906   6.594   5.780
 4932POPC   GL262906  30.188   6.818   5.846
 4932POPC   C1A62907  29.910   6.607   6.217
 4932POPC   D2A62908  30.110   6.832   6.563
 4932POPC   C3A62909  29.876   6.846   6.924
 4932POPC   C4A62910  29.765   6.477   7.136
 4932POPC   C1B62911  29.938   7.115   6.160
 4932POPC   C2B62912  30.102   7.335   6.564
 4932POPC   C3B62913  30.306   7.169   6.943
 4932POPC   C4B62914  30.214   6.898   7.302
 4933POPC   NC362915  32.842  42.230   5.229
 4933POPC   PO462916  33.470  42.094   5.332
 4933POPC   GL162917  33.195  42.190   5.704
 4933POPC   GL262918  32.910  42.412   5.805
 4933POPC   C1A62919  33.188  42.218   6.175
 4933POPC   D2A62920  33.050  42.397   6.565
 4933POPC   C3A62921  33.053  42.107   6.915
 4933POPC   C4A62922  33.265  42.094   7.312
 4933POPC   C1B62923  32.883  42.704   6.182
 4933POPC   C2B62924  32.633  42.715   6.575
 4933POPC   C3B62925  32.760  42.564   6.979
 4933POPC   C4B62926  32.609  42.689   7.358
 4934POPC   NC362927  34.469   5.551   5.331
 4934POPC   PO462928  34.467   6.079   5.538
 4934POPC   GL162929  34.399   5.758   5.831
 4934POPC   GL262930  34.725   5.574   5.793
 4934POPC   C1A62931  34.464   5.778   6.285
 4934POPC   D2A62932  34.342   5.753   6.697
 4934POPC   C3A62933  34.530   5.732   7.082
 4934POPC   C4A62934  34.752   6.004   7.319
 4934POPC   C1B62935  34.923   5.563   6.224
 4934POPC   C2B62936  34.894   5.728   6.665
 4934POPC   C3B62937  35.053   5.674   7.091
 4934POPC   C4B62938  35.008   5.664   7.582
 4935POPC   NC362939   2.799  32.036   5.465
 4935POPC   PO462940   2.489  32.613   5.626
 4935POPC   GL162941   2.861  32.418   5.851
 4935POPC   GL262942   2.945  32.049   5.948
 4935POPC   C1A62943   2.980  32.447   6.279
 4935POPC   D2A62944   2.729  32.400   6.632
 4935POPC   C3A62945   2.866  32.593   6.992
 4935POPC   C4A62946   3.005  32.246   7.236
 4935POPC   C1B62947   2.978  31.939   6.388
 4935POPC   C2B62948   2.901  31.930   6.838
 4935POPC   C3B62949   2.902  31.737   7.254
 4935POPC   C4B62950   3.009  31.946   7.689
 4936POPC   NC362951   1.097  20.359   5.451
 4936POPC   PO462952   1.424  21.012   5.656
 4936POPC   GL162953   1.273  20.635   5.872
 4936POPC   GL262954   0.905  20.548   5.881
 4936POPC   C1A62955   1.453  20.476   6.255
 4936POPC   D2A62956   1.358  20.682   6.642
 4936POPC   C3A62957   1.431  20.550   7.061
 4936POPC   C4A62958   1.618  20.940   7.193
 4936POPC   C1B62959   0.946  20.487   6.300
 4936POPC   C2B62960   1.088  20.269   6.661
 4936POPC   C3B62961   0.900  20.466   6.972
 4936POPC   C4B62962   0.760  20.666   7.355
 4937POPC   NC362963   2.396   9.618   5.572
 4937POPC   PO462964   3.070   9.429   5.453
 4937POPC   GL162965   2.874   9.617   5.767
 4937POPC   GL262966   2.991   9.371   5.976
 4937POPC   C1A62967   2.734   9.817   6.148
 4937POPC   D2A62968   2.736  10.017   6.563
 4937POPC   C3A62969   2.747   9.803   6.967
 4937POPC   C4A62970   2.781  10.008   7.313
 4937POPC   C1B62971   3.046   9.500   6.386
 4937POPC   C2B62972   3.042   9.421   6.804
 4937POPC   C3B62973   3.320   9.502   7.158
 4937POPC   C4B62974   3.017   9.547   7.502
 4938POPC   NC362975  23.512  30.474   5.492
 4938POPC   PO462976  24.051  30.904   5.525
 4938POPC   GL162977  23.827  30.692   5.854
 4938POPC   GL262978  24.099  30.733   6.013
 4938POPC   C1A62979  23.698  30.599   6.302
 4938POPC   D2A62980  23.535  30.411   6.702
 4938POPC   C3A62981  23.735  30.681   6.997
 4938POPC   C4A62982  23.646  31.040   7.256
 4938POPC   C1B62983  24.175  30.387   6.271
 4938POPC   C2B62984  24.053  30.438   6.662
 4938POPC   C3B62985  24.225  30.550   7.023
 4938POPC   C4B62986  24.092  30.804   7.358
 4939POPC   NC362987   6.559  39.051   5.723
 4939POPC   PO462988   6.709  39.659   5.404
 4939POPC   GL162989   6.805  39.608   5.851
 4939POPC   GL262990   7.071  39.334   5.836
 4939POPC   C1A62991   6.647  39.624   6.316
 4939POPC   D2A62992   6.464  39.346   6.661
 4939POPC   C3A62993   6.670  39.336   7.070
 4939POPC   C4A62994   6.573  39.572   7.473
 4939POPC   C1B62995   6.916  39.182   6.269
 4939POPC   C2B62996   6.814  38.963   6.679
 4939POPC   C3B62997   7.032  38.803   7.015
 4939POPC   C4B62998   7.025  39.041   7.360
 4940POPC   NC362999  13.028  16.657   5.558
 4940POPC   PO463000  12.627  16.433   5.136
 4940POPC   GL163001  12.557  16.718   5.686
 4940POPC   GL263002  12.739  17.015   5.796
 4940POPC   C1A63003  12.587  16.621   6.148
 4940POPC   D2A63004  12.640  16.767   6.540
 4940POPC   C3A63005  12.795  16.597   6.911
 4940POPC   C4A63006  12.564  16.547   7.275
 4940POPC   C1B63007  12.977  16.951   6.192
 4940POPC   C2B63008  12.992  17.118   6.624
 4940POPC   C3B63009  13.134  17.010   7.030
 4940POPC   C4B63010  13.008  16.741   7.376
 4941POPC   NC363011  27.071  14.872   5.620
 4941POPC   PO463012  27.611  15.106   5.255
 4941POPC   GL163013  27.688  15.291   5.713
 4941POPC   GL263014  27.381  15.375   5.803
 4941POPC   C1A63015  27.795  15.147   6.141
 4941POPC   D2A63016  27.626  14.956   6.517
 4941POPC   C3A63017  27.702  15.137   6.926
 4941POPC   C4A63018  27.457  15.057   7.304
 4941POPC   C1B63019  27.183  15.295   6.176
 4941POPC   C2B63020  27.019  15.437   6.543
 4941POPC   C3B63021  27.191  15.264   6.887
 4941POPC   C4B63022  27.125  15.462   7.276
 4942POPC   NC363023  31.166  43.997   5.179
 4942POPC   PO463024  31.756  43.983   5.491
 4942POPC   GL163025  31.495  44.053   5.839
 4942POPC   GL263026  31.150  44.137   5.760
 4942POPC   C1A63027  31.409  43.851   6.235
 4942POPC   D2A63028  31.453  43.618   6.597
 4942POPC   C3A63029  31.536  43.814   6.980
 4942POPC   C4A63030  31.405  43.506   7.276
 4942POPC   C1B63031  31.007  44.167   6.231
 4942POPC   C2B63032  31.044  43.957   6.669
 4942POPC   C3B63033  31.041  43.843   7.144
 4942POPC   C4B63034  30.924  44.076   7.549
 4943POPC   NC363035  22.672   5.493   5.413
 4943POPC   PO463036  22.714   6.208   5.346
 4943POPC   GL163037  22.823   5.926   5.738
 4943POPC   GL263038  23.072   5.637   5.718
 4943POPC   C1A63039  23.140   5.988   6.100
 4943POPC   D2A63040  23.012   5.911   6.533
 4943POPC   C3A63041  23.109   6.067   6.951
 4943POPC   C4A63042  23.020   6.056   7.372
 4943POPC   C1B63043  22.933   5.525   6.160
 4943POPC   C2B63044  22.915   5.417   6.620
 4943POPC   C3B63045  22.941   5.590   7.060
 4943POPC   C4B63046  22.762   5.639   7.493
 4944POPC   NC363047  19.385  19.958   5.609
 4944POPC   PO463048  20.023  19.688   5.630
 4944POPC   GL163049  19.824  20.042   5.875
 4944POPC   GL263050  19.486  20.166   6.055
 4944POPC   C1A63051  19.957  20.082   6.275
 4944POPC   D2A63052  19.984  19.781   6.585
 4944POPC   C3A63053  19.833  19.995   6.955
 4944POPC   C4A63054  19.713  19.929   7.386
 4944POPC   C1B63055  19.502  19.784   6.326
 4944POPC   C2B63056  19.515  19.626   6.758
 4944POPC   C3B63057  19.738  19.496   7.133
 4944POPC   C4B63058  19.601  19.484   7.598
 4945POPC   NC363059  31.772  22.122   5.274
 4945POPC   PO463060  32.448  22.147   5.328
 4945POPC   GL163061  32.369  22.169   5.802
 4945POPC   GL263062  32.604  22.403   5.963
 4945POPC   C1A63063  32.199  22.258   6.246
 4945POPC   D2A63064  32.328  22.294   6.658
 4945POPC   C3A63065  32.013  22.264   6.963
 4945POPC   C4A63066  31.948  22.575   7.269
 4945POPC   C1B63067  32.693  22.112   6.287
 4945POPC   C2B63068  32.540  21.843   6.597
 4945POPC   C3B63069  32.570  22.021   7.018
 4945POPC   C4B63070  32.470  22.483   7.123
 4946POPC   NC363071  44.720  11.326   5.494
 4946POPC   PO463072  44.085  11.001   5.272
 4946POPC   GL163073  44.444  10.953   5.690
 4946POPC   GL263074  44.486  11.254   5.914
 4946POPC   C1A63075  44.672  10.866   6.147
 4946POPC   D2A63076  44.548  11.045   6.582
 4946POPC   C3A63077  44.840  11.174   6.910
 4946POPC   C4A63078  44.716  11.026   7.317
 4946POPC   C1B63079  44.728  11.378   6.255
 4946POPC   C2B63080  44.606  11.556   6.666
 4946POPC   C3B63081  44.460  11.448   7.074
 4946POPC   C4B63082  44.734  11.512   7.418
 4947POPC   NC363083  42.680  26.231   5.334
 4947POPC   PO463084  42.028  25.968   5.389
 4947POPC   GL163085  42.158  26.039   5.820
 4947POPC   GL263086  42.460  26.248   5.811
 4947POPC   C1A63087  42.233  26.157   6.278
 4947POPC   D2A63088  42.455  26.294   6.656
 4947POPC   C3A63089  42.271  26.038   6.968
 4947POPC   C4A63090  41.899  26.182   7.160
 4947POPC   C1B63091  42.599  25.873   6.073
 4947POPC   C2B63092  42.615  25.794   6.530
 4947POPC   C3B63093  42.791  25.967   6.913
 4947POPC   C4B63094  42.669  25.842   7.315
 4948POPC   NC363095   3.230   1.421   5.103
 4948POPC   PO463096   3.853   1.283   5.412
 4948POPC   GL163097   3.577   1.235   5.765
 4948POPC   GL263098   3.276   1.040   5.674
 4948POPC   C1A63099   3.497   1.239   6.196
 4948POPC   D2A63100   3.500   1.470   6.554
 4948POPC   C3A63101   3.602   1.295   6.924
 4948POPC   C4A63102   3.515   1.441   7.326
 4948POPC   C1B63103   3.153   0.877   6.125
 4948POPC   C2B63104   3.327   0.902   6.561
 4948POPC   C3B63105   3.220   0.970   6.982
 4948POPC   C4B63106   3.077   1.388   7.066
 4949POPC   NC363107  21.494  13.718   5.464
 4949POPC   PO463108  21.071  13.265   5.478
 4949POPC   GL163109  21.108  13.614   5.804
 4949POPC   GL263110  20.858  13.862   5.897
 4949POPC   C1A63111  21.340  13.839   6.163
 4949POPC   D2A63112  21.643  13.729   6.506
 4949POPC   C3A63113  21.600  13.961   6.872
 4949POPC   C4A63114  21.720  13.778   7.227
 4949POPC   C1B63115  20.868  13.652   6.270
 4949POPC   C2B63116  21.149  13.575   6.616
 4949POPC   C3B63117  21.190  13.674   7.046
 4949POPC   C4B63118  21.234  14.039   7.254
 4950POPC   NC363119  27.030   9.322   5.170
 4950POPC   PO463120  26.679   8.843   5.557
 4950POPC   GL163121  26.665   9.042   5.937
 4950POPC   GL263122  27.022   9.173   5.924
 4950POPC   C1A63123  26.746   9.046   6.390
 4950POPC   D2A63124  27.141   9.067   6.640
 4950POPC   C3A63125  26.994   9.151   7.070
 4950POPC   C4A63126  26.541   9.028   7.117
 4950POPC   C1B63127  27.127   8.756   6.136
 4950POPC   C2B63128  27.033   8.543   6.531
 4950POPC   C3B63129  26.956   8.678   6.924
 4950POPC   C4B63130  27.000   8.688   7.336
 4951POPC   NC363131  34.201   7.230   5.465
 4951POPC   PO463132  33.511   7.246   5.577
 4951POPC   GL163133  33.603   7.362   5.965
 4951POPC   GL263134  33.927   7.276   5.888
 4951POPC   C1A63135  33.787   7.337   6.367
 4951POPC   D2A63136  33.924   7.549   6.657
 4951POPC   C3A63137  33.702   7.431   7.011
 4951POPC   C4A63138  33.885   7.618   7.353
 4951POPC   C1B63139  34.089   6.972   6.192
 4951POPC   C2B63140  34.287   7.172   6.554
 4951POPC   C3B63141  34.183   7.249   6.972
 4951POPC   C4B63142  34.099   7.163   7.400
 4952POPC   NC363143  19.991  26.304   5.431
 4952POPC   PO463144  19.502  25.836   5.497
 4952POPC   GL163145  19.857  26.021   5.826
 4952POPC   GL263146  19.845  26.394   5.907
 4952POPC   C1A63147  20.019  26.068   6.267
 4952POPC   D2A63148  19.914  26.171   6.687
 4952POPC   C3A63149  19.729  25.834   6.960
 4952POPC   C4A63150  19.943  25.789   7.353
 4952POPC   C1B63151  19.511  26.228   6.147
 4952POPC   C2B63152  19.397  26.111   6.571
 4952POPC   C3B63153  19.491  26.291   6.964
 4952POPC   C4B63154  19.904  26.275   7.190
 4953POPC   NC363155  15.113   8.599   5.340
 4953POPC   PO463156  15.299   9.315   5.435
 4953POPC   GL163157  15.129   9.132   5.823
 4953POPC   GL263158  15.251   8.785   5.795
 4953POPC   C1A63159  15.230   9.058   6.278
 4953POPC   D2A63160  15.428   9.066   6.689
 4953POPC   C3A63161  15.125   8.908   6.957
 4953POPC   C4A63162  15.053   8.928   7.378
 4953POPC   C1B63163  15.507   8.645   6.153
 4953POPC   C2B63164  15.448   8.555   6.593
 4953POPC   C3B63165  15.550   8.651   7.010
 4953POPC   C4B63166  15.532   8.611   7.467
 4954POPC   NC363167  12.909  18.683   5.537
 4954POPC   PO463168  12.830  17.969   5.501
 4954POPC   GL163169  12.885  18.270   5.855
 4954POPC   GL263170  12.612  18.468   5.898
 4954POPC   C1A63171  12.944  18.528   6.271
 4954POPC   D2A63172  12.903  18.442   6.728
 4954POPC   C3A63173  12.977  18.005   6.855
 4954POPC   C4A63174  13.199  17.990   7.233
 4954POPC   C1B63175  12.429  18.409   6.259
 4954POPC   C2B63176  12.422  18.579   6.664
 4954POPC   C3B63177  12.418  18.372   7.033
 4954POPC   C4B63178  12.736  18.207   7.276
 4955POPC   NC363179   2.295  39.589   5.467
 4955POPC   PO463180   2.049  38.964   5.248
 4955POPC   GL163181   2.021  39.149   5.707
 4955POPC   GL263182   1.966  39.478   5.841
 4955POPC   C1A63183   1.973  39.077   6.193
 4955POPC   D2A63184   2.186  38.900   6.595
 4955POPC   C3A63185   2.042  39.081   7.012
 4955POPC   C4A63186   1.728  39.243   7.295
 4955POPC   C1B63187   2.076  39.588   6.263
 4955POPC   C2B63188   2.257  39.413   6.642
 4955POPC   C3B63189   2.365  39.620   7.001
 4955POPC   C4B63190   2.111  39.820   7.300
 4956POPC   NC363191  37.594  37.798   5.427
 4956POPC   PO463192  36.985  37.525   5.459
 4956POPC   GL163193  37.282  37.626   5.831
 4956POPC   GL263194  37.624  37.847   5.908
 4956POPC   C1A63195  37.416  37.541   6.249
 4956POPC   D2A63196  37.582  37.862   6.544
 4956POPC   C3A63197  37.725  37.750   6.961
 4956POPC   C4A63198  37.515  37.919   7.295
 4956POPC   C1B63199  37.941  37.703   6.180
 4956POPC   C2B63200  38.093  37.764   6.584
 4956POPC   C3B63201  38.142  38.056   6.927
 4956POPC   C4B63202  37.996  37.999   7.331
 4957POPC   NC363203  10.848  17.452   5.161
 4957POPC   PO463204  11.364  17.179   5.484
 4957POPC   GL163205  11.408  17.384   5.860
 4957POPC   GL263206  11.120  17.554   5.871
 4957POPC   C1A63207  11.527  17.466   6.283
 4957POPC   D2A63208  11.311  17.540   6.666
 4957POPC   C3A63209  11.582  17.524   7.018
 4957POPC   C4A63210  11.449  17.219   7.298
 4957POPC   C1B63211  11.043  17.302   6.259
 4957POPC   C2B63212  10.881  17.170   6.690
 4957POPC   C3B63213  10.997  17.360   7.097
 4957POPC   C4B63214  11.011  17.312   7.558
 4958POPC   NC363215   5.098  19.747   5.189
 4958POPC   PO463216   4.677  19.335   5.601
 4958POPC   GL163217   4.893  19.769   5.759
 4958POPC   GL263218   5.002  20.127   5.657
 4958POPC   C1A63219   5.201  19.897   6.091
 4958POPC   D2A63220   5.109  20.004   6.524
 4958POPC   C3A63221   5.324  19.941   6.921
 4958POPC   C4A63222   5.263  19.572   7.191
 4958POPC   C1B63223   4.775  20.195   6.055
 4958POPC   C2B63224   4.613  20.066   6.456
 4958POPC   C3B63225   4.761  20.125   6.883
 4958POPC   C4B63226   4.902  19.919   7.235
 4959POPC   NC363227   8.998  20.111   5.428
 4959POPC   PO463228   9.153  19.515   5.510
 4959POPC   GL163229   8.822  19.683   5.758
 4959POPC   GL263230   8.845  20.026   5.908
 4959POPC   C1A63231   8.664  19.583   6.154
 4959POPC   D2A63232   8.745  19.764   6.557
 4959POPC   C3A63233   9.024  19.538   6.824
 4959POPC   C4A63234   9.021  19.495   7.248
 4959POPC   C1B63235   9.159  19.821   6.206
 4959POPC   C2B63236   9.283  20.007   6.620
 4959POPC   C3B63237   9.199  19.957   7.068
 4959POPC   C4B63238   9.332  20.147   7.427
 4960POPC   NC363239  15.628  44.843   5.358
 4960POPC   PO463240  15.031  44.581   5.336
 4960POPC   GL163241  15.255  44.670   5.745
 4960POPC   GL263242  14.952  44.662   5.960
 4960POPC   C1A63243  15.365  44.640   6.233
 4960POPC   D2A63244  15.000  44.620   6.562
 4960POPC   C3A63245  14.854   0.033   6.790
 4960POPC   C4A63246  14.789   0.015   7.235
 4960POPC   C1B63247  14.780  44.310   6.199
 4960POPC   C2B63248  14.769  44.113   6.614
 4960POPC   C3B63249  14.885  44.196   7.038
 4960POPC   C4B63250  15.128  44.551   7.156
 4961POPC   NC363251  13.803  30.742   5.070
 4961POPC   PO463252  13.263  30.854   5.420
 4961POPC   GL163253  13.432  30.662   5.799
 4961POPC   GL263254  13.748  30.804   5.704
 4961POPC   C1A63255  13.535  30.673   6.279
 4961POPC   D2A63256  13.655  30.527   6.712
 4961POPC   C3A63257  13.470  30.614   7.146
 4961POPC   C4A63258  13.617  30.613   7.582
 4961POPC   C1B63259  13.833  31.045   6.093
 4961POPC   C2B63260  13.907  31.073   6.561
 4961POPC   C3B63261  13.845  30.943   6.985
 4961POPC   C4B63262  13.979  30.990   7.391
 4962POPC   NC363263  13.784  31.286   5.478
 4962POPC   PO463264  13.169  31.629   5.455
 4962POPC   GL163265  13.474  31.571   5.759
 4962POPC   GL263266  13.403  31.203   5.801
 4962POPC   C1A63267  13.779  31.585   6.082
 4962POPC   D2A63268  13.619  31.512   6.449
 4962POPC   C3A63269  13.780  31.678   6.804
 4962POPC   C4A63270  13.852  31.437   7.147
 4962POPC   C1B63271  13.204  31.385   6.143
 4962POPC   C2B63272  13.206  31.186   6.519
 4962POPC   C3B63273  13.459  31.264   6.870
 4962POPC   C4B63274  13.465  31.137   7.298
 4963POPC   NC363275  10.531  43.310   5.414
 4963POPC   PO463276  10.728  42.633   5.396
 4963POPC   GL163277  10.573  42.843   5.770
 4963POPC   GL263278  10.744  43.176   5.856
 4963POPC   C1A63279  10.577  42.865   6.226
 4963POPC   D2A63280  10.343  43.033   6.591
 4963POPC   C3A63281  10.477  43.003   7.024
 4963POPC   C4A63282  10.209  43.280   7.289
 4963POPC   C1B63283  10.459  43.349   6.190
 4963POPC   C2B63284  10.550  43.514   6.596
 4963POPC   C3B63285  10.582  43.493   7.033
 4963POPC   C4B63286  10.893  43.447   7.300
 4964POPC   NC363287  38.863  34.212   5.517
 4964POPC   PO463288  39.576  34.431   5.527
 4964POPC   GL163289  39.200  34.535   5.767
 4964POPC   GL263290  39.158  34.917   5.708
 4964POPC   C1A63291  39.140  34.342   6.184
 4964POPC   D2A63292  39.408  34.371   6.561
 4964POPC   C3A63293  39.152  34.383   6.927
 4964POPC   C4A63294  39.221  34.243   7.331
 4964POPC   C1B63295  38.963  34.866   6.109
 4964POPC   C2B63296  39.030  34.758   6.542
 4964POPC   C3B63297  39.377  34.849   6.817
 4964POPC   C4B63298  39.336  34.752   7.226
 4965POPC   NC363299  32.342  26.173   5.323
 4965POPC   PO463300  31.730  26.409   5.471
 4965POPC   GL163301  31.847  26.279   5.871
 4965POPC   GL263302  32.122  26.066   5.787
 4965POPC   C1A63303  31.971  26.150   6.295
 4965POPC   D2A63304  32.269  25.940   6.543
 4965POPC   C3A63305  32.317  26.182   6.900
 4965POPC   C4A63306  32.123  26.140   7.277
 4965POPC   C1B63307  32.440  25.933   6.056
 4965POPC   C2B63308  32.644  25.632   6.347
 4965POPC   C3B63309  32.733  25.643   6.807
 4965POPC   C4B63310  32.547  25.826   7.202
 4966POPC   NC363311  19.800  38.948   5.408
 4966POPC   PO463312  19.798  39.586   5.398
 4966POPC   GL163313  19.760  39.329   5.790
 4966POPC   GL263314  20.093  39.204   5.884
 4966POPC   C1A63315  19.691  39.234   6.247
 4966POPC   D2A63316  19.881  39.100   6.621
 4966POPC   C3A63317  19.900  39.289   6.979
 4966POPC   C4A63318  19.550  39.264   7.192
 4966POPC   C1B63319  20.251  38.973   6.255
 4966POPC   C2B63320  20.285  38.805   6.706
 4966POPC   C3B63321  20.183  38.896   7.176
 4966POPC   C4B63322  20.174  39.092   7.609
 4967POPC   NC363323  40.348  21.249   5.572
 4967POPC   PO463324  39.679  21.156   5.534
 4967POPC   GL163325  39.878  21.416   5.866
 4967POPC   GL263326  40.129  21.682   5.921
 4967POPC   C1A63327  40.070  21.325   6.271
 4967POPC   D2A63328  40.120  21.516   6.667
 4967POPC   C3A63329  39.976  21.339   7.028
 4967POPC   C4A63330  39.814  21.496   7.432
 4967POPC   C1B63331  40.366  21.795   6.322
 4967POPC   C2B63332  40.452  21.856   6.809
 4967POPC   C3B63333  40.196  21.788   7.194
 4967POPC   C4B63334  40.216  21.719   7.664
 4968POPC   NC363335  31.248  44.748   5.204
 4968POPC   PO463336  31.812  44.920   5.502
 4968POPC   GL163337  31.566  44.857   5.863
 4968POPC   GL263338  31.401  44.561   5.904
 4968POPC   C1A63339  31.645  44.843   6.306
 4968POPC   D2A63340  31.347  44.899   6.660
 4968POPC   C3A63341  31.500  44.753   7.049
 4968POPC   C4A63342  31.653  44.720   7.468
 4968POPC   C1B63343  31.497  44.358   6.260
 4968POPC   C2B63344  31.355  44.369   6.667
 4968POPC   C3B63345  31.328  44.269   7.082
 4968POPC   C4B63346  31.227  44.454   7.452
 4969POPC   NC363347  44.307  40.840   5.407
 4969POPC   PO463348  43.634  40.940   5.477
 4969POPC   GL163349  43.986  40.920   5.791
 4969POPC   GL263350  44.133  40.587   5.856
 4969POPC   C1A63351  44.161  41.034   6.185
 4969POPC   D2A63352  43.916  40.982   6.560
 4969POPC   C3A63353  44.065  41.093   6.943
 4969POPC   C4A63354  43.839  41.042   7.298
 4969POPC   C1B63355  43.940  40.560   6.238
 4969POPC   C2B63356  44.003  40.479   6.668
 4969POPC   C3B63357  43.684  40.355   6.951
 4969POPC   C4B63358  43.488  40.639   7.229
 4970POPC   NC363359   6.407  31.811   5.525
 4970POPC   PO463360   6.413  31.189   5.376
 4970POPC   GL163361   6.486  31.363   5.792
 4970POPC   GL263362   6.799  31.542   5.753
 4970POPC   C1A63363   6.628  31.241   6.212
 4970POPC   D2A63364   6.649  31.405   6.604
 4970POPC   C3A63365   6.799  31.214   6.968
 4970POPC   C4A63366   6.590  30.981   7.250
 4970POPC   C1B63367   6.696  31.764   6.138
 4970POPC   C2B63368   6.872  31.846   6.523
 4970POPC   C3B63369   6.738  31.788   6.918
 4970POPC   C4B63370   6.820  31.606   7.299
 4971POPC   NC363371  13.299  15.246   5.476
 4971POPC   PO463372  13.991  15.146   5.463
 4971POPC   GL163373  13.697  15.148   5.818
 4971POPC   GL263374  13.593  15.491   5.809
 4971POPC   C1A63375  13.764  15.297   6.240
 4971POPC   D2A63376  13.884  15.186   6.624
 4971POPC   C3A63377  13.731  15.163   7.032
 4971POPC   C4A63378  13.717  14.805   7.347
 4971POPC   C1B63379  13.312  15.553   6.154
 4971POPC   C2B63380  13.398  15.443   6.565
 4971POPC   C3B63381  13.217  15.449   6.941
 4971POPC   C4B63382  13.364  15.572   7.317
 4972POPC   NC363383   7.944  21.958   5.391
 4972POPC   PO463384   8.361  22.473   5.246
 4972POPC   GL163385   8.188  22.354   5.667
 4972POPC   GL263386   8.318  22.017   5.750
 4972POPC   C1A63387   8.006  22.222   6.078
 4972POPC   D2A63388   8.141  22.094   6.492
 4972POPC   C3A63389   8.060  22.314   6.861
 4972POPC   C4A63390   8.094  22.237   7.298
 4972POPC   C1B63391   8.448  21.838   6.137
 4972POPC   C2B63392   8.491  21.733   6.561
 4972POPC   C3B63393   8.457  21.940   6.917
 4972POPC   C4B63394   8.612  21.940   7.295
 4973POPC   NC363395  12.119  20.076   5.356
 4973POPC   PO463396  11.798  20.690   5.313
 4973POPC   GL163397  11.864  20.581   5.790
 4973POPC   GL263398  12.174  20.335   5.841
 4973POPC   C1A63399  11.979  20.628   6.271
 4973POPC   D2A63400  12.301  20.831   6.558
 4973POPC   C3A63401  12.304  20.789   7.021
 4973POPC   C4A63402  12.288  20.956   7.466
 4973POPC   C1B63403  12.350  20.271   6.285
 4973POPC   C2B63404  12.156  20.346   6.707
 4973POPC   C3B63405  12.061  20.351   7.134
 4973POPC   C4B63406  12.024  20.317   7.580
 4974POPC   NC363407   8.277  27.784   5.434
 4974POPC   PO463408   8.427  27.303   5.056
 4974POPC   GL163409   8.399  27.345   5.603
 4974POPC   GL263410   8.096  27.390   5.814
 4974POPC   C1A63411   8.504  27.383   6.097
 4974POPC   D2A63412   8.355  27.405   6.536
 4974POPC   C3A63413   8.247  27.732   6.838
 4974POPC   C4A63414   8.378  27.571   7.203
 4974POPC   C1B63415   8.040  27.631   6.220
 4974POPC   C2B63416   7.835  27.546   6.608
 4974POPC   C3B63417   7.788  27.680   7.042
 4974POPC   C4B63418   7.886  27.514   7.431
 4975POPC   NC363419   5.851  14.952   5.235
 4975POPC   PO463420   6.386  15.341   5.121
 4975POPC   GL163421   5.908  15.353   5.519
 4975POPC   GL263422   5.775  14.997   5.722
 4975POPC   C1A63423   5.824  15.379   6.029
 4975POPC   D2A63424   6.003  15.535   6.420
 4975POPC   C3A63425   5.780  15.452   6.797
 4975POPC   C4A63426   5.729  15.268   7.195
 4975POPC   C1B63427   5.902  14.896   6.158
 4975POPC   C2B63428   5.706  14.966   6.562
 4975POPC   C3B63429   5.847  14.855   6.952
 4975POPC   C4B63430   6.175  14.843   7.259
 4976POPC   NC363431  43.733   2.257   5.296
 4976POPC   PO463432  44.168   1.801   5.452
 4976POPC   GL163433  44.039   2.172   5.717
 4976POPC   GL263434  43.649   2.204   5.797
 4976POPC   C1A63435  44.002   2.230   6.160
 4976POPC   D2A63436  43.911   2.039   6.542
 4976POPC   C3A63437  43.805   2.234   6.924
 4976POPC   C4A63438  43.948   2.088   7.321
 4976POPC   C1B63439  43.512   1.943   6.182
 4976POPC   C2B63440  43.403   2.010   6.627
 4976POPC   C3B63441  43.443   1.888   7.073
 4976POPC   C4B63442  43.502   2.007   7.509
 4977POPC   NC363443  30.064  42.609   5.491
 4977POPC   PO463444  29.614  42.145   5.301
 4977POPC   GL163445  29.724  42.253   5.744
 4977POPC   GL263446  29.974  42.411   5.938
 4977POPC   C1A63447  29.749  42.045   6.191
 4977POPC   D2A63448  29.965  42.017   6.596
 4977POPC   C3A63449  29.762  42.118   6.986
 4977POPC   C4A63450  29.829  42.487   7.191
 4977POPC   C1B63451  30.274  42.342   6.260
 4977POPC   C2B63452  30.452  42.149   6.607
 4977POPC   C3B63453  30.281  42.147   7.025
 4977POPC   C4B63454  30.186  42.243   7.461
 4978POPC   NC363455  29.946   8.603   5.386
 4978POPC   PO463456  29.319   8.304   5.387
 4978POPC   GL163457  29.660   8.155   5.714
 4978POPC   GL263458  29.455   7.905   5.877
 4978POPC   C1A63459  29.994   8.292   6.081
 4978POPC   D2A63460  29.871   8.575   6.469
 4978POPC   C3A63461  30.056   8.456   6.900
 4978POPC   C4A63462  30.202   8.117   7.187
 4978POPC   C1B63463  29.538   8.161   6.248
 4978POPC   C2B63464  29.815   8.083   6.573
 4978POPC   C3B63465  29.742   8.045   6.987
 4978POPC   C4B63466  29.725   7.821   7.326
 4979POPC   NC363467  31.439  23.294   5.495
 4979POPC   PO463468  31.527  22.536   5.350
 4979POPC   GL163469  31.589  22.846   5.741
 4979POPC   GL263470  31.840  22.684   5.963
 4979POPC   C1A63471  31.456  22.864   6.225
 4979POPC   D2A63472  31.500  22.543   6.574
 4979POPC   C3A63473  31.535  22.726   6.989
 4979POPC   C4A63474  31.196  22.945   7.242
 4979POPC   C1B63475  31.952  22.849   6.368
 4979POPC   C2B63476  31.699  23.184   6.574
 4979POPC   C3B63477  31.548  23.234   6.994
 4979POPC   C4B63478  31.712  23.045   7.351
 4980POPC   NC363479   8.718  19.372   5.356
 4980POPC   PO463480   8.112  19.071   5.509
 4980POPC   GL163481   8.200  19.069   5.871
 4980POPC   GL263482   8.008  18.748   5.891
 4980POPC   C1A63483   8.291  19.234   6.262
 4980POPC   D2A63484   8.153  18.993   6.616
 4980POPC   C3A63485   8.004  19.155   6.990
 4980POPC   C4A63486   8.311  19.129   7.282
 4980POPC   C1B63487   8.333  18.714   6.201
 4980POPC   C2B63488   8.543  18.652   6.595
 4980POPC   C3B63489   8.353  18.667   7.014
 4980POPC   C4B63490   7.966  18.742   7.286
 4981POPC   NC363491  35.472   0.472   5.581
 4981POPC   PO463492  34.820   0.534   5.503
 4981POPC   GL163493  35.022   0.580   5.904
 4981POPC   GL263494  35.247   0.858   5.871
 4981POPC   C1A63495  35.093   0.281   6.267
 4981POPC   D2A63496  35.415   0.176   6.599
 4981POPC   C3A63497  35.235   0.289   7.000
 4981POPC   C4A63498  35.322   0.153   7.438
 4981POPC   C1B63499  35.421   0.703   6.236
 4981POPC   C2B63500  35.218   0.657   6.615
 4981POPC   C3B63501  35.300   0.825   6.986
 4981POPC   C4B63502  35.212   0.658   7.361
 4982POPC   NC363503  11.814  40.739   5.214
 4982POPC   PO463504  12.390  40.995   5.450
 4982POPC   GL163505  12.300  40.702   5.789
 4982POPC   GL263506  11.931  40.643   5.756
 4982POPC   C1A63507  12.221  40.668   6.242
 4982POPC   D2A63508  11.987  41.017   6.435
 4982POPC   C3A63509  11.797  41.077   6.855
 4982POPC   C4A63510  11.968  41.171   7.259
 4982POPC   C1B63511  11.719  40.599   6.171
 4982POPC   C2B63512  11.835  40.568   6.617
 4982POPC   C3B63513  12.042  40.660   6.987
 4982POPC   C4B63514  11.716  40.739   7.243
 4983POPC   NC363515  24.436  17.007   5.327
 4983POPC   PO463516  25.042  16.806   5.464
 4983POPC   GL163517  24.742  16.616   5.736
 4983POPC   GL263518  24.443  16.818   5.790
 4983POPC   C1A63519  24.655  16.512   6.166
 4983POPC   D2A63520  24.583  16.806   6.504
 4983POPC   C3A63521  24.546  16.701   6.924
 4983POPC   C4A63522  24.706  16.844   7.297
 4983POPC   C1B63523  24.377  17.140   6.107
 4983POPC   C2B63524  24.188  17.139   6.512
 4983POPC   C3B63525  24.363  17.188   6.923
 4983POPC   C4B63526  24.262  17.132   7.342
 4984POPC   NC363527  38.491   8.479   5.189
 4984POPC   PO463528  38.539   9.047   5.522
 4984POPC   GL163529  38.285   9.155   5.841
 4984POPC   GL263530  38.549   8.974   6.058
 4984POPC   C1A63531  38.087   9.105   6.240
 4984POPC   D2A63532  38.266   8.841   6.551
 4984POPC   C3A63533  38.178   9.020   6.927
 4984POPC   C4A63534  38.174   8.866   7.270
 4984POPC   C1B63535  38.917   9.187   6.268
 4984POPC   C2B63536  38.957   9.247   6.720
 4984POPC   C3B63537  38.688   8.950   6.916
 4984POPC   C4B63538  38.654   8.766   7.283
 4985POPC   NC363539  24.051  23.469   5.511
 4985POPC   PO463540  23.571  23.908   5.273
 4985POPC   GL163541  23.626  23.695   5.741
 4985POPC   GL263542  23.769  23.985   5.854
 4985POPC   C1A63543  23.657  23.694   6.271
 4985POPC   D2A63544  23.827  23.463   6.676
 4985POPC   C3A63545  23.802  23.598   7.110
 4985POPC   C4A63546  23.804  23.410   7.539
 4985POPC   C1B63547  23.381  24.091   6.132
 4985POPC   C2B63548  23.347  23.988   6.595
 4985POPC   C3B63549  23.468  24.003   7.037
 4985POPC   C4B63550  23.597  23.878   7.484
 4986POPC   NC363551  23.293  32.941   5.246
 4986POPC   PO463552  22.788  32.785   5.667
 4986POPC   GL163553  23.059  32.830   5.992
 4986POPC   GL263554  23.197  33.159   5.891
 4986POPC   C1A63555  22.967  32.737   6.387
 4986POPC   D2A63556  22.835  33.023   6.664
 4986POPC   C3A63557  23.025  32.897   7.018
 4986POPC   C4A63558  22.890  33.139   7.312
 4986POPC   C1B63559  23.386  33.160   6.311
 4986POPC   C2B63560  23.326  33.240   6.755
 4986POPC   C3B63561  23.361  33.283   7.209
 4986POPC   C4B63562  23.282  33.197   7.686
 4987POPC   NC363563   8.434  18.724   5.534
 4987POPC   PO463564   8.371  18.137   5.263
 4987POPC   GL163565   8.172  18.279   5.669
 4987POPC   GL263566   8.462  18.215   5.817
 4987POPC   C1A63567   7.969  18.318   6.121
 4987POPC   D2A63568   8.011  18.484   6.537
 4987POPC   C3A63569   8.026  18.220   6.886
 4987POPC   C4A63570   8.174  18.277   7.297
 4987POPC   C1B63571   8.453  18.228   6.268
 4987POPC   C2B63572   8.475  18.089   6.688
 4987POPC   C3B63573   8.490  17.937   7.096
 4987POPC   C4B63574   8.380  17.954   7.610
 4988POPC   NC363575  12.645  28.025   5.472
 4988POPC   PO463576  12.933  28.597   5.367
 4988POPC   GL163577  12.981  28.361   5.771
 4988POPC   GL263578  13.052  27.990   5.765
 4988POPC   C1A63579  12.859  28.432   6.226
 4988POPC   D2A63580  12.534  28.386   6.572
 4988POPC   C3A63581  12.657  28.513   7.001
 4988POPC   C4A63582  12.972  28.455   7.305
 4988POPC   C1B63583  12.718  27.955   6.100
 4988POPC   C2B63584  12.804  27.911   6.515
 4988POPC   C3B63585  12.981  28.160   6.825
 4988POPC   C4B63586  12.802  27.993   7.186
 4989POPC   NC363587  13.082  26.358   5.415
 4989POPC   PO463588  12.550  25.978   5.321
 4989POPC   GL163589  12.647  26.202   5.703
 4989POPC   GL263590  12.987  26.177   5.880
 4989POPC   C1A63591  12.537  26.312   6.140
 4989POPC   D2A63592  12.568  26.152   6.568
 4989POPC   C3A63593  12.714  26.306   6.971
 4989POPC   C4A63594  12.543  25.947   7.165
 4989POPC   C1B63595  13.012  26.013   6.318
 4989POPC   C2B63596  13.002  25.938   6.776
 4989POPC   C3B63597  13.244  25.886   7.171
 4989POPC   C4B63598  13.376  26.098   7.580
 4990POPC   NC363599  24.246  36.761   5.495
 4990POPC   PO463600  24.585  37.318   5.577
 4990POPC   GL163601  24.475  37.000   5.903
 4990POPC   GL263602  24.361  36.620   5.977
 4990POPC   C1A63603  24.301  37.041   6.310
 4990POPC   D2A63604  24.321  36.768   6.646
 4990POPC   C3A63605  24.571  36.813   7.028
 4990POPC   C4A63606  24.536  36.691   7.465
 4990POPC   C1B63607  24.712  36.683   6.302
 4990POPC   C2B63608  24.962  36.687   6.731
 4990POPC   C3B63609  24.960  36.509   7.183
 4990POPC   C4B63610  24.987  36.574   7.665
 4991POPC   NC363611  31.168   6.746   5.526
 4991POPC   PO463612  31.696   6.403   5.470
 4991POPC   GL163613  31.572   6.590   5.838
 4991POPC   GL263614  31.647   6.931   5.788
 4991POPC   C1A63615  31.663   6.541   6.264
 4991POPC   D2A63616  31.677   6.778   6.606
 4991POPC   C3A63617  31.615   6.479   6.918
 4991POPC   C4A63618  31.631   6.660   7.280
 4991POPC   C1B63619  31.370   6.950   6.159
 4991POPC   C2B63620  31.156   6.924   6.555
 4991POPC   C3B63621  31.319   6.937   6.958
 4991POPC   C4B63622  31.134   6.808   7.323
 4992POPC   NC363623   3.140  29.186   5.514
 4992POPC   PO463624   2.668  29.174   5.038
 4992POPC   GL163625   2.652  29.238   5.616
 4992POPC   GL263626   2.842  28.975   5.865
 4992POPC   C1A63627   2.745  29.374   6.139
 4992POPC   D2A63628   2.894  29.444   6.603
 4992POPC   C3A63629   2.690  29.410   7.016
 4992POPC   C4A63630   2.798  29.110   7.331
 4992POPC   C1B63631   2.954  28.935   6.335
 4992POPC   C2B63632   2.897  28.948   6.786
 4992POPC   C3B63633   3.102  28.764   7.121
 4992POPC   C4B63634   3.047  28.669   7.537
 4993POPC   NC363635   0.735  36.485   5.595
 4993POPC   PO463636   1.111  35.895   5.497
 4993POPC   GL163637   1.331  36.181   5.804
 4993POPC   GL263638   1.718  36.266   5.870
 4993POPC   C1A63639   1.328  36.134   6.225
 4993POPC   D2A63640   1.153  35.969   6.555
 4993POPC   C3A63641   1.043  36.175   6.905
 4993POPC   C4A63642   1.126  36.118   7.319
 4993POPC   C1B63643   1.666  36.513   6.263
 4993POPC   C2B63644   1.447  36.398   6.662
 4993POPC   C3B63645   1.630  36.417   7.076
 4993POPC   C4B63646   1.544  36.311   7.514
 4994POPC   NC363647  15.519  20.578   5.384
 4994POPC   PO463648  16.067  20.966   5.266
 4994POPC   GL163649  15.853  20.856   5.681
 4994POPC   GL263650  15.563  21.066   5.707
 4994POPC   C1A63651  15.867  20.586   6.099
 4994POPC   D2A63652  16.209  20.616   6.449
 4994POPC   C3A63653  16.145  20.436   6.860
 4994POPC   C4A63654  15.873  20.480   7.196
 4994POPC   C1B63655  15.543  20.985   6.149
 4994POPC   C2B63656  15.635  20.787   6.547
 4994POPC   C3B63657  15.461  20.688   6.955
 4994POPC   C4B63658  15.595  20.891   7.327
 4995POPC   NC363659  43.027  40.354   5.557
 4995POPC   PO463660  43.538  39.970   5.481
 4995POPC   GL163661  43.261  39.760   5.800
 4995POPC   GL263662  42.919  39.913   5.826
 4995POPC   C1A63663  43.190  39.804   6.250
 4995POPC   D2A63664  43.131  39.658   6.650
 4995POPC   C3A63665  43.119  39.968   6.949
 4995POPC   C4A63666  43.016  39.938   7.347
 4995POPC   C1B63667  42.757  40.114   6.237
 4995POPC   C2B63668  42.809  40.290   6.676
 4995POPC   C3B63669  42.631  40.191   7.085
 4995POPC   C4B63670  42.663  40.317   7.564
 4996POPC   NC363671  23.470  42.896   5.495
 4996POPC   PO463672  24.019  43.251   5.503
 4996POPC   GL163673  23.770  43.186   5.890
 4996POPC   GL263674  23.438  43.222   5.883
 4996POPC   C1A63675  23.624  43.127   6.346
 4996POPC   D2A63676  23.774  42.957   6.723
 4996POPC   C3A63677  23.533  43.086   7.087
 4996POPC   C4A63678  23.419  43.168   7.525
 4996POPC   C1B63679  23.311  42.808   6.105
 4996POPC   C2B63680  23.290  42.708   6.529
 4996POPC   C3B63681  23.167  42.707   6.956
 4996POPC   C4B63682  23.360  42.675   7.352
 4997POPC   NC363683  13.118   1.623   5.311
 4997POPC   PO463684  12.550   1.418   5.607
 4997POPC   GL163685  12.951   1.379   5.747
 4997POPC   GL263686  12.943   1.041   5.812
 4997POPC   C1A63687  13.099   1.542   6.142
 4997POPC   D2A63688  12.894   1.499   6.537
 4997POPC   C3A63689  13.019   1.609   6.935
 4997POPC   C4A63690  13.047   1.370   7.329
 4997POPC   C1B63691  12.693   1.174   6.185
 4997POPC   C2B63692  12.498   1.176   6.590
 4997POPC   C3B63693  12.676   1.240   6.974
 4997POPC   C4B63694  12.542   1.225   7.381
 4998POPC   NC363695  11.728   6.781   5.458
 4998POPC   PO463696  12.398   6.548   5.573
 4998POPC   GL163697  12.082   6.618   5.848
 4998POPC   GL263698  11.794   6.404   5.818
 4998POPC   C1A63699  12.068   6.528   6.303
 4998POPC   D2A63700  12.174   6.685   6.712
 4998POPC   C3A63701  12.162   6.394   7.048
 4998POPC   C4A63702  12.235   6.547   7.434
 4998POPC   C1B63703  11.562   6.518   6.225
 4998POPC   C2B63704  11.661   6.672   6.688
 4998POPC   C3B63705  11.815   6.750   7.157
 4998POPC   C4B63706  11.817   6.790   7.663
 4999POPC   NC363707   2.729  11.418   5.402
 4999POPC   PO463708   2.448  10.777   5.514
 4999POPC   GL163709   2.506  11.185   5.809
 4999POPC   GL263710   2.879  11.225   5.851
 4999POPC   C1A63711   2.615  11.515   6.163
 4999POPC   D2A63712   2.857  11.596   6.567
 4999POPC   C3A63713   2.711  11.393   6.962
 4999POPC   C4A63714   2.924  11.242   7.342
 4999POPC   C1B63715   2.829  11.000   6.218
 4999POPC   C2B63716   2.649  10.982   6.621
 4999POPC   C3B63717   2.735  10.853   7.020
 4999POPC   C4B63718   2.445  11.001   7.324
 5000POPC   NC363719   3.728   8.201   5.484
 5000POPC   PO463720   3.203   7.936   5.331
 5000POPC   GL163721   3.314   8.070   5.783
 5000POPC   GL263722   3.637   7.884   5.876
 5000POPC   C1A63723   3.367   8.379   6.172
 5000POPC   D2A63724   3.222   8.542   6.606
 5000POPC   C3A63725   3.305   8.261   6.958
 5000POPC   C4A63726   3.696   8.371   7.162
 5000POPC   C1B63727   3.533   7.909   6.320
 5000POPC   C2B63728   3.713   8.100   6.687
 5000POPC   C3B63729   3.650   7.877   7.077
 5000POPC   C4B63730   3.323   7.939   7.380
 5001POPC   NC363731  32.032  14.637   5.435
 5001POPC   PO463732  32.142  13.971   5.399
 5001POPC   GL163733  32.276  14.273   5.719
 5001POPC   GL263734  32.174  14.022   5.927
 5001POPC   C1A63735  32.333  14.474   6.181
 5001POPC   D2A63736  32.545  14.341   6.623
 5001POPC   C3A63737  32.305  14.463   7.000
 5001POPC   C4A63738  32.135  14.714   7.315
 5001POPC   C1B63739  32.374  13.991   6.298
 5001POPC   C2B63740  32.154  13.992   6.686
 5001POPC   C3B63741  31.976  14.050   7.065
 5001POPC   C4B63742  32.375  13.983   7.204
 5002POPC   NC363743  24.961   2.300   5.654
 5002POPC   PO463744  25.537   2.046   5.372
 5002POPC   GL163745  25.434   1.983   5.754
 5002POPC   GL263746  25.153   1.789   5.712
 5002POPC   C1A63747  25.376   2.172   6.154
 5002POPC   D2A63748  25.131   2.082   6.503
 5002POPC   C3A63749  25.314   2.216   6.874
 5002POPC   C4A63750  25.344   1.940   7.190
 5002POPC   C1B63751  25.208   1.659   6.136
 5002POPC   C2B63752  25.172   1.455   6.518
 5002POPC   C3B63753  25.065   1.605   6.901
 5002POPC   C4B63754  24.714   1.762   7.118
 5003POPC   NC363755  10.403  22.131   5.455
 5003POPC   PO463756  10.978  21.931   5.760
 5003POPC   GL163757  10.747  22.278   5.920
 5003POPC   GL263758  10.396  22.307   5.935
 5003POPC   C1A63759  10.686  22.262   6.379
 5003POPC   D2A63760  10.503  22.352   6.783
 5003POPC   C3A63761  10.620  22.056   7.135
 5003POPC   C4A63762  10.762  22.207   7.533
 5003POPC   C1B63763  10.231  22.012   6.268
 5003POPC   C2B63764  10.145  21.981   6.730
 5003POPC   C3B63765  10.123  21.954   7.194
 5003POPC   C4B63766  10.277  22.088   7.584
 5004POPC   NC363767   8.769  24.302   5.374
 5004POPC   PO463768   9.286  24.701   5.372
 5004POPC   GL163769   9.141  24.637   5.792
 5004POPC   GL263770   8.780  24.571   5.799
 5004POPC   C1A63771   9.080  24.449   6.219
 5004POPC   D2A63772   9.309  24.181   6.512
 5004POPC   C3A63773   9.228  24.253   6.929
 5004POPC   C4A63774   9.109  24.584   7.198
 5004POPC   C1B63775   8.569  24.536   6.174
 5004POPC   C2B63776   8.621  24.331   6.548
 5004POPC   C3B63777   8.680  24.513   6.941
 5004POPC   C4B63778   8.634  24.755   7.316
 5005POPC   NC363779   3.116  35.220   5.369
 5005POPC   PO463780   2.552  35.220   5.636
 5005POPC   GL163781   2.903  35.303   5.857
 5005POPC   GL263782   3.088  35.585   5.740
 5005POPC   C1A63783   2.728  35.412   6.252
 5005POPC   D2A63784   2.479  35.385   6.625
 5005POPC   C3A63785   2.733  35.382   6.977
 5005POPC   C4A63786   2.811  35.239   7.360
 5005POPC   C1B63787   3.075  35.757   6.148
 5005POPC   C2B63788   3.204  35.658   6.553
 5005POPC   C3B63789   3.097  35.748   6.933
 5005POPC   C4B63790   3.200  35.585   7.316
 5006POPC   NC363791  27.864  20.484   5.616
 5006POPC   PO463792  27.232  20.536   5.308
 5006POPC   GL163793  27.412  20.722   5.707
 5006POPC   GL263794  27.459  20.430   5.937
 5006POPC   C1A63795  27.576  20.860   6.140
 5006POPC   D2A63796  27.427  20.609   6.494
 5006POPC   C3A63797  27.434  20.795   6.872
 5006POPC   C4A63798  27.397  20.633   7.282
 5006POPC   C1B63799  27.794  20.366   6.233
 5006POPC   C2B63800  27.749  20.200   6.592
 5006POPC   C3B63801  27.668  20.346   6.957
 5006POPC   C4B63802  27.864  20.260   7.316
 5007POPC   NC363803  22.242  13.827   5.282
 5007POPC   PO463804  21.810  13.301   5.469
 5007POPC   GL163805  21.977  13.660   5.702
 5007POPC   GL263806  22.331  13.582   5.761
 5007POPC   C1A63807  22.017  13.742   6.149
 5007POPC   D2A63808  22.320  13.723   6.504
 5007POPC   C3A63809  22.097  13.661   6.890
 5007POPC   C4A63810  22.024  13.367   7.233
 5007POPC   C1B63811  22.339  13.327   6.167
 5007POPC   C2B63812  22.625  13.324   6.559
 5007POPC   C3B63813  22.473  13.298   7.002
 5007POPC   C4B63814  22.538  13.263   7.446
 5008POPC   NC363815  24.660  22.661   5.427
 5008POPC   PO463816  24.103  22.387   5.492
 5008POPC   GL163817  24.409  22.421   5.822
 5008POPC   GL263818  24.505  22.065   5.905
 5008POPC   C1A63819  24.416  22.442   6.275
 5008POPC   D2A63820  24.535  22.150   6.595
 5008POPC   C3A63821  24.568  22.434   6.932
 5008POPC   C4A63822  24.350  22.418   7.297
 5008POPC   C1B63823  24.734  21.792   6.208
 5008POPC   C2B63824  24.827  21.705   6.623
 5008POPC   C3B63825  24.646  21.696   7.007
 5008POPC   C4B63826  24.291  21.980   7.062
 5009POPC   NC363827   8.530  28.663   5.595
 5009POPC   PO463828   8.820  28.217   5.156
 5009POPC   GL163829   8.961  28.393   5.671
 5009POPC   GL263830   8.703  28.271   5.884
 5009POPC   C1A63831   8.845  28.670   6.146
 5009POPC   D2A63832   8.629  28.645   6.579
 5009POPC   C3A63833   8.843  28.615   6.958
 5009POPC   C4A63834   8.960  28.356   7.283
 5009POPC   C1B63835   8.981  28.184   6.254
 5009POPC   C2B63836   9.013  28.179   6.712
 5009POPC   C3B63837   9.191  27.976   7.044
 5009POPC   C4B63838   9.063  27.879   7.429
 5010POPC   NC363839  39.848  17.773   5.581
 5010POPC   PO463840  40.277  17.277   5.463
 5010POPC   GL163841  40.163  17.449   5.853
 5010POPC   GL263842  39.794  17.334   5.827
 5010POPC   C1A63843  40.306  17.622   6.275
 5010POPC   D2A63844  40.296  17.447   6.706
 5010POPC   C3A63845  40.020  17.637   6.997
 5010POPC   C4A63846  39.877  17.835   7.359
 5010POPC   C1B63847  39.859  17.302   6.264
 5010POPC   C2B63848  39.704  17.238   6.656
 5010POPC   C3B63849  39.895  17.134   6.993
 5010POPC   C4B63850  39.831  17.307   7.348
 5011POPC   NC363851  14.932  42.505   5.538
 5011POPC   PO463852  15.535  42.283   5.587
 5011POPC   GL163853  15.190  42.216   5.878
 5011POPC   GL263854  14.908  41.985   5.708
 5011POPC   C1A63855  15.011  42.512   6.185
 5011POPC   D2A63856  15.131  42.754   6.551
 5011POPC   C3A63857  15.212  42.503   6.916
 5011POPC   C4A63858  15.082  42.289   7.307
 5011POPC   C1B63859  14.803  42.035   6.149
 5011POPC   C2B63860  15.136  42.101   6.453
 5011POPC   C3B63861  15.113  42.006   6.875
 5011POPC   C4B63862  14.773  41.924   7.189
 5012POPC   NC363863  31.908  27.827   5.595
 5012POPC   PO463864  32.232  28.326   5.275
 5012POPC   GL163865  32.359  28.490   5.693
 5012POPC   GL263866  32.095  28.402   5.839
 5012POPC   C1A63867  32.508  28.396   6.140
 5012POPC   D2A63868  32.321  28.406   6.561
 5012POPC   C3A63869  32.604  28.479   6.897
 5012POPC   C4A63870  32.585  28.368   7.334
 5012POPC   C1B63871  32.128  28.736   6.175
 5012POPC   C2B63872  31.947  28.745   6.594
 5012POPC   C3B63873  32.159  28.726   6.979
 5012POPC   C4B63874  31.996  28.696   7.385
 5013POPC   NC363875  36.609  12.932   5.342
 5013POPC   PO463876  37.189  12.733   5.611
 5013POPC   GL163877  36.949  12.855   5.941
 5013POPC   GL263878  36.652  13.007   5.834
 5013POPC   C1A63879  36.816  12.665   6.305
 5013POPC   D2A63880  37.141  12.507   6.566
 5013POPC   C3A63881  37.217  12.802   6.873
 5013POPC   C4A63882  36.879  12.822   7.157
 5013POPC   C1B63883  36.621  13.148   6.227
 5013POPC   C2B63884  36.758  13.051   6.654
 5013POPC   C3B63885  36.538  13.181   7.000
 5013POPC   C4B63886  36.639  13.207   7.427
 5014POPC   NC363887  12.642  39.618   5.355
 5014POPC   PO463888  13.040  39.156   5.093
 5014POPC   GL163889  12.828  39.203   5.555
 5014POPC   GL263890  12.971  39.476   5.731
 5014POPC   C1A63891  12.795  39.098   6.016
 5014POPC   D2A63892  12.941  39.264   6.406
 5014POPC   C3A63893  13.014  39.005   6.784
 5014POPC   C4A63894  12.968  39.151   7.184
 5014POPC   C1B63895  13.233  39.576   6.065
 5014POPC   C2B63896  13.290  39.663   6.483
 5014POPC   C3B63897  13.062  39.525   6.841
 5014POPC   C4B63898  12.975  39.686   7.250
 5015POPC   NC363899   5.753  38.508   5.489
 5015POPC   PO463900   6.284  38.064   5.470
 5015POPC   GL163901   6.144  38.388   5.822
 5015POPC   GL263902   5.857  38.685   5.929
 5015POPC   C1A63903   6.154  38.475   6.252
 5015POPC   D2A63904   6.178  38.698   6.615
 5015POPC   C3A63905   6.009  38.415   6.898
 5015POPC   C4A63906   6.243  38.399   7.248
 5015POPC   C1B63907   5.614  38.611   6.281
 5015POPC   C2B63908   5.665  38.763   6.676
 5015POPC   C3B63909   5.845  38.884   7.015
 5015POPC   C4B63910   5.696  38.564   7.270
 5016POPC   NC363911  27.560  15.593   5.334
 5016POPC   PO463912  27.850  16.240   5.428
 5016POPC   GL163913  27.728  16.127   5.855
 5016POPC   GL263914  27.506  15.881   5.760
 5016POPC   C1A63915  27.820  16.120   6.308
 5016POPC   D2A63916  27.718  16.078   6.743
 5016POPC   C3A63917  27.367  16.182   7.005
 5016POPC   C4A63918  27.581  16.024   7.313
 5016POPC   C1B63919  27.730  15.648   6.098
 5016POPC   C2B63920  27.548  15.516   6.512
 5016POPC   C3B63921  27.469  15.672   6.927
 5016POPC   C4B63922  27.631  15.522   7.282
 5017POPC   NC363923   9.506  38.610   5.501
 5017POPC   PO463924  10.080  38.374   5.317
 5017POPC   GL163925   9.912  38.443   5.801
 5017POPC   GL263926   9.789  38.742   5.935
 5017POPC   C1A63927   9.740  38.226   6.239
 5017POPC   D2A63928   9.939  38.175   6.664
 5017POPC   C3A63929   9.737  38.224   7.109
 5017POPC   C4A63930   9.699  38.407   7.536
 5017POPC   C1B63931   9.743  38.705   6.363
 5017POPC   C2B63932   9.658  38.617   6.777
 5017POPC   C3B63933   9.793  38.757   7.165
 5017POPC   C4B63934   9.526  38.870   7.517
 5018POPC   NC363935  22.612  39.517   5.265
 5018POPC   PO463936  22.915  40.148   5.444
 5018POPC   GL163937  22.870  40.016   5.846
 5018POPC   GL263938  22.601  39.790   5.722
 5018POPC   C1A63939  23.139  39.914   6.237
 5018POPC   D2A63940  23.282  40.026   6.674
 5018POPC   C3A63941  22.972  40.260   6.973
 5018POPC   C4A63942  22.587  40.105   7.177
 5018POPC   C1B63943  22.686  39.685   6.159
 5018POPC   C2B63944  22.711  39.915   6.502
 5018POPC   C3B63945  22.844  39.789   6.857
 5018POPC   C4B63946  22.651  39.550   7.128
 5019POPC   NC363947  40.322   8.576   5.093
 5019POPC   PO463948  40.296   9.170   5.481
 5019POPC   GL163949  40.023   8.839   5.668
 5019POPC   GL263950  40.271   8.607   5.764
 5019POPC   C1A63951  39.794   8.809   6.075
 5019POPC   D2A63952  39.919   9.088   6.433
 5019POPC   C3A63953  39.876   8.972   6.886
 5019POPC   C4A63954  40.000   9.240   7.244
 5019POPC   C1B63955  40.316   8.881   6.130
 5019POPC   C2B63956  40.431   8.888   6.579
 5019POPC   C3B63957  40.364   8.955   7.037
 5019POPC   C4B63958  40.151   8.739   7.414
 5020POPC   NC363959  37.076  30.701   5.711
 5020POPC   PO463960  37.708  30.775   5.424
 5020POPC   GL163961  37.716  30.570   5.829
 5020POPC   GL263962  37.502  30.752   5.943
 5020POPC   C1A63963  37.854  30.589   6.256
 5020POPC   D2A63964  37.809  30.811   6.593
 5020POPC   C3A63965  37.734  30.651   6.987
 5020POPC   C4A63966  37.879  30.234   7.116
 5020POPC   C1B63967  37.503  31.021   6.241
 5020POPC   C2B63968  37.347  31.051   6.660
 5020POPC   C3B63969  37.418  31.094   7.080
 5020POPC   C4B63970  37.516  31.027   7.526
 5021POPC   NC363971  28.267  11.148   5.268
 5021POPC   PO463972  28.612  11.641   5.328
 5021POPC   GL163973  28.379  11.481   5.717
 5021POPC   GL263974  28.098  11.679   5.815
 5021POPC   C1A63975  28.319  11.433   6.207
 5021POPC   D2A63976  28.124  11.480   6.620
 5021POPC   C3A63977  28.246  11.140   6.882
 5021POPC   C4A63978  28.535  10.882   7.097
 5021POPC   C1B63979  28.497  11.873   6.043
 5021POPC   C2B63980  28.630  11.810   6.491
 5021POPC   C3B63981  28.631  11.484   6.828
 5021POPC   C4B63982  28.454  11.456   7.248
 5022POPC   NC363983  22.186   4.626   5.527
 5022POPC   PO463984  21.896   4.051   5.315
 5022POPC   GL163985  22.057   4.075   5.803
 5022POPC   GL263986  22.320   4.292   5.897
 5022POPC   C1A63987  22.150   4.067   6.299
 5022POPC   D2A63988  22.136   4.359   6.673
 5022POPC   C3A63989  22.274   4.108   6.973
 5022POPC   C4A63990  22.596   4.215   7.228
 5022POPC   C1B63991  22.131   4.557   6.192
 5022POPC   C2B63992  21.864   4.760   6.481
 5022POPC   C3B63993  21.727   4.625   6.891
 5022POPC   C4B63994  21.981   4.447   7.213
 5023POPC   NC363995  34.147  35.456   5.422
 5023POPC   PO463996  34.735  35.624   5.179
 5023POPC   GL163997  34.800  35.350   5.600
 5023POPC   GL263998  34.471  35.306   5.786
 5023POPC   C1A63999  34.898  35.398   6.076
 5023POPC   D2A64000  34.676  35.450   6.500
 5023POPC   C3A64001  34.882  35.326   6.907
 5023POPC   C4A64002  34.844  35.306   7.368
 5023POPC   C1B64003  34.288  35.557   6.139
 5023POPC   C2B64004  34.144  35.583   6.576
 5023POPC   C3B64005  34.404  35.522   6.937
 5023POPC   C4B64006  34.348  35.250   7.233
 5024POPC   NC364007  23.433  12.451   5.587
 5024POPC   PO464008  23.498  13.145   5.423
 5024POPC   GL164009  23.626  13.016   5.825
 5024POPC   GL264010  23.777  12.704   5.900
 5024POPC   C1A64011  23.643  13.053   6.269
 5024POPC   D2A64012  23.907  12.831   6.597
 5024POPC   C3A64013  23.850  13.063   7.011
 5024POPC   C4A64014  23.681  13.071   7.442
 5024POPC   C1B64015  23.684  12.472   6.249
 5024POPC   C2B64016  23.642  12.357   6.637
 5024POPC   C3B64017  23.690  12.583   6.995
 5024POPC   C4B64018  23.873  12.604   7.372
 5025POPC   NC364019   6.154   0.380   5.227
 5025POPC   PO464020   5.587   0.347   5.664
 5025POPC   GL164021   5.716   0.634   5.928
 5025POPC   GL264022   5.934   0.383   6.039
 5025POPC   C1A64023   5.878   0.760   6.362
 5025POPC   D2A64024   6.045   0.533   6.723
 5025POPC   C3A64025   5.857   0.549   7.133
 5025POPC   C4A64026   6.033   0.516   7.557
 5025POPC   C1B64027   5.799   0.213   6.403
 5025POPC   C2B64028   6.093  44.899   6.537
 5025POPC   C3B64029   6.254  44.856   6.921
 5025POPC   C4B64030   6.150   0.145   7.219
 5026POPC   NC364031  43.651  31.012   5.233
 5026POPC   PO464032  43.890  30.400   5.436
 5026POPC   GL164033  43.993  30.709   5.744
 5026POPC   GL264034  44.145  31.028   5.627
 5026POPC   C1A64035  43.946  30.645   6.198
 5026POPC   D2A64036  44.002  30.573   6.643
 5026POPC   C3A64037  43.593  30.637   6.866
 5026POPC   C4A64038  43.537  30.917   7.200
 5026POPC   C1B64039  44.066  31.135   6.076
 5026POPC   C2B64040  43.810  31.070   6.478
 5026POPC   C3B64041  43.954  31.008   6.903
 5026POPC   C4B64042  44.003  31.089   7.346
 5027POPC   NC364043  37.186   0.604   5.430
 5027POPC   PO464044  36.596   0.369   5.484
 5027POPC   GL164045  36.849   0.504   5.816
 5027POPC   GL264046  37.076   0.228   5.790
 5027POPC   C1A64047  36.921   0.757   6.178
 5027POPC   D2A64048  36.905   0.497   6.562
 5027POPC   C3A64049  36.736   0.460   6.941
 5027POPC   C4A64050  36.860   0.558   7.309
 5027POPC   C1B64051  37.210   0.345   6.193
 5027POPC   C2B64052  37.408   0.364   6.599
 5027POPC   C3B64053  37.223   0.309   6.962
 5027POPC   C4B64054  37.369   0.427   7.341
 5028POPC   NC364055  18.068  42.628   5.467
 5028POPC   PO464056  18.451  43.192   5.364
 5028POPC   GL164057  18.196  43.122   5.706
 5028POPC   GL264058  18.449  42.923   5.831
 5028POPC   C1A64059  18.080  43.133   6.147
 5028POPC   D2A64060  18.146  43.348   6.533
 5028POPC   C3A64061  18.126  43.168   6.921
 5028POPC   C4A64062  18.033  43.118   7.336
 5028POPC   C1B64063  18.656  43.102   6.217
 5028POPC   C2B64064  18.617  43.189   6.680
 5028POPC   C3B64065  18.628  43.135   7.132
 5028POPC   C4B64066  18.484  42.824   7.389
 5029POPC   NC364067  32.662  10.687   5.119
 5029POPC   PO464068  33.179  10.405   5.438
 5029POPC   GL164069  33.146  10.664   5.786
 5029POPC   GL264070  32.795  10.620   5.817
 5029POPC   C1A64071  33.043  10.785   6.215
 5029POPC   D2A64072  33.233  10.683   6.534
 5029POPC   C3A64073  33.075  10.791   6.918
 5029POPC   C4A64074  33.179  10.591   7.278
 5029POPC   C1B64075  32.724  10.373   6.215
 5029POPC   C2B64076  32.792  10.469   6.643
 5029POPC   C3B64077  32.793  10.314   7.058
 5029POPC   C4B64078  32.742  10.438   7.471
 5030POPC   NC364079  37.539  36.233   5.478
 5030POPC   PO464080  38.003  36.716   5.426
 5030POPC   GL164081  37.852  36.423   5.794
 5030POPC   GL264082  37.956  36.047   5.708
 5030POPC   C1A64083  37.697  36.248   6.171
 5030POPC   D2A64084  37.788  36.353   6.614
 5030POPC   C3A64085  37.736  35.983   6.886
 5030POPC   C4A64086  37.594  35.923   7.301
 5030POPC   C1B64087  38.181  35.905   6.067
 5030POPC   C2B64088  38.131  35.968   6.507
 5030POPC   C3B64089  38.239  36.022   6.942
 5030POPC   C4B64090  38.068  36.159   7.333
 5031POPC   NC364091  33.214  41.701   5.482
 5031POPC   PO464092  33.540  41.209   5.792
 5031POPC   GL164093  33.178  41.427   5.938
 5031POPC   GL264094  33.031  41.764   5.943
 5031POPC   C1A64095  33.047  41.394   6.355
 5031POPC   D2A64096  33.270  41.253   6.736
 5031POPC   C3A64097  33.212  41.563   7.043
 5031POPC   C4A64098  32.840  41.512   7.254
 5031POPC   C1B64099  32.800  41.889   6.276
 5031POPC   C2B64100  32.815  41.716   6.669
 5031POPC   C3B64101  32.564  41.790   6.961
 5031POPC   C4B64102  32.710  42.025   7.290
 5032POPC   NC364103  43.650  20.124   5.617
 5032POPC   PO464104  43.149  19.907   5.247
 5032POPC   GL164105  43.103  19.936   5.762
 5032POPC   GL264106  43.373  19.861   5.950
 5032POPC   C1A64107  42.962  19.814   6.232
 5032POPC   D2A64108  43.126  19.830   6.705
 5032POPC   C3A64109  42.880  19.847   7.107
 5032POPC   C4A64110  42.858  20.144   7.445
 5032POPC   C1B64111  43.447  19.654   6.312
 5032POPC   C2B64112  43.640  19.710   6.678
 5032POPC   C3B64113  43.599  19.783   7.098
 5032POPC   C4B64114  43.348  19.989   7.395
 5033POPC   NC364115  31.652  25.022   5.294
 5033POPC   PO464116  31.193  25.566   5.464
 5033POPC   GL164117  31.461  25.332   5.727
 5033POPC   GL264118  31.283  25.513   5.962
 5033POPC   C1A64119  31.696  25.232   6.129
 5033POPC   D2A64120  31.844  25.108   6.540
 5033POPC   C3A64121  31.748  25.316   6.897
 5033POPC   C4A64122  31.616  25.147   7.280
 5033POPC   C1B64123  31.181  25.128   6.147
 5033POPC   C2B64124  31.320  25.147   6.542
 5033POPC   C3B64125  31.232  25.170   6.944
 5033POPC   C4B64126  31.346  25.553   7.108
 5034POPC   NC364127  25.722  24.045   5.632
 5034POPC   PO464128  26.125  23.835   5.115
 5034POPC   GL164129  26.017  23.660   5.702
 5034POPC   GL264130  26.075  23.902   6.006
 5034POPC   C1A64131  25.797  23.528   6.137
 5034POPC   D2A64132  26.070  23.721   6.491
 5034POPC   C3A64133  26.051  23.578   6.893
 5034POPC   C4A64134  25.951  23.772   7.266
 5034POPC   C1B64135  26.325  24.167   6.261
 5034POPC   C2B64136  26.440  24.306   6.633
 5034POPC   C3B64137  26.209  24.098   6.956
 5034POPC   C4B64138  26.228  24.199   7.398
 5035POPC   NC364139   8.812   2.272   5.434
 5035POPC   PO464140   9.253   1.768   5.444
 5035POPC   GL164141   9.229   2.113   5.794
 5035POPC   GL264142   8.934   2.353   5.908
 5035POPC   C1A64143   9.171   2.113   6.274
 5035POPC   D2A64144   9.243   2.309   6.702
 5035POPC   C3A64145   9.087   2.006   7.013
 5035POPC   C4A64146   9.224   1.691   7.280
 5035POPC   C1B64147   8.676   2.275   6.281
 5035POPC   C2B64148   8.729   2.227   6.711
 5035POPC   C3B64149   8.663   2.284   7.138
 5035POPC   C4B64150   9.053   2.429   7.351
 5036POPC   NC364151  23.039  13.999   5.467
 5036POPC   PO464152  23.008  14.658   5.364
 5036POPC   GL164153  23.121  14.469   5.715
 5036POPC   GL264154  22.775  14.359   5.751
 5036POPC   C1A64155  23.264  14.346   6.110
 5036POPC   D2A64156  23.078  14.301   6.519
 5036POPC   C3A64157  23.198  14.517   6.891
 5036POPC   C4A64158  23.071  14.878   7.110
 5036POPC   C1B64159  22.753  14.190   6.139
 5036POPC   C2B64160  22.596  14.154   6.572
 5036POPC   C3B64161  22.765  14.258   6.947
 5036POPC   C4B64162  22.669  14.132   7.322
 5037POPC   NC364163  11.518   3.126   5.219
 5037POPC   PO464164  11.370   2.475   5.331
 5037POPC   GL164165  11.124   2.496   5.731
 5037POPC   GL264166  11.074   2.842   5.671
 5037POPC   C1A64167  11.050   2.452   6.188
 5037POPC   D2A64168  10.886   2.477   6.605
 5037POPC   C3A64169  11.118   2.600   6.944
 5037POPC   C4A64170  11.399   2.398   7.164
 5037POPC   C1B64171  11.017   3.003   6.088
 5037POPC   C2B64172  11.020   2.960   6.544
 5037POPC   C3B64173  11.024   3.102   6.971
 5037POPC   C4B64174  11.334   3.058   7.347
 5038POPC   NC364175  15.416  28.576   5.142
 5038POPC   PO464176  15.073  28.155   5.537
 5038POPC   GL164177  15.177  28.286   5.933
 5038POPC   GL264178  15.371  28.582   5.781
 5038POPC   C1A64179  14.950  28.251   6.354
 5038POPC   D2A64180  14.936  28.074   6.780
 5038POPC   C3A64181  15.272  28.010   7.056
 5038POPC   C4A64182  14.996  28.297   7.313
 5038POPC   C1B64183  15.488  28.554   6.238
 5038POPC   C2B64184  15.390  28.320   6.631
 5038POPC   C3B64185  15.371  28.507   7.021
 5038POPC   C4B64186  15.149  28.826   7.173
 5039POPC   NC364187  37.278  19.934   5.646
 5039POPC   PO464188  37.959  20.080   5.482
 5039POPC   GL164189  37.762  20.015   5.864
 5039POPC   GL264190  37.892  19.707   5.935
 5039POPC   C1A64191  37.537  19.930   6.269
 5039POPC   D2A64192  37.684  19.789   6.666
 5039POPC   C3A64193  37.567  19.954   7.035
 5039POPC   C4A64194  37.741  20.221   7.291
 5039POPC   C1B64195  37.773  19.459   6.285
 5039POPC   C2B64196  37.492  19.315   6.627
 5039POPC   C3B64197  37.609  19.443   7.041
 5039POPC   C4B64198  37.619  19.377   7.486
 5040POPC   NC364199  36.308  29.258   5.618
 5040POPC   PO464200  35.696  29.034   5.360
 5040POPC   GL164201  35.876  28.990   5.754
 5040POPC   GL264202  35.855  29.328   5.901
 5040POPC   C1A64203  35.926  28.897   6.190
 5040POPC   D2A64204  35.840  29.101   6.573
 5040POPC   C3A64205  36.020  28.908   6.898
 5040POPC   C4A64206  35.974  28.971   7.332
 5040POPC   C1B64207  36.150  29.371   6.254
 5040POPC   C2B64208  36.390  29.315   6.623
 5040POPC   C3B64209  36.344  29.249   7.042
 5040POPC   C4B64210  36.123  29.460   7.330
 5041POPC   NC364211   6.066  10.176   5.516
 5041POPC   PO464212   5.815  10.872   5.491
 5041POPC   GL164213   5.836  10.586   5.841
 5041POPC   GL264214   5.592  10.308   5.826
 5041POPC   C1A64215   6.016  10.636   6.255
 5041POPC   D2A64216   6.091  11.010   6.529
 5041POPC   C3A64217   5.915  10.861   6.903
 5041POPC   C4A64218   5.930  10.782   7.342
 5041POPC   C1B64219   5.515  10.448   6.244
 5041POPC   C2B64220   5.709  10.456   6.649
 5041POPC   C3B64221   5.914  10.353   7.023
 5041POPC   C4B64222   6.321  10.424   7.173
 5042POPC   NC364223  19.313  27.937   5.500
 5042POPC   PO464224  19.005  27.308   5.562
 5042POPC   GL164225  18.904  27.660   5.818
 5042POPC   GL264226  19.220  27.768   5.978
 5042POPC   C1A64227  18.733  27.632   6.224
 5042POPC   D2A64228  18.995  27.486   6.557
 5042POPC   C3A64229  18.831  27.509   6.960
 5042POPC   C4A64230  19.083  27.446   7.290
 5042POPC   C1B64231  19.260  27.931   6.390
 5042POPC   C2B64232  19.261  27.818   6.827
 5042POPC   C3B64233  19.109  27.939   7.202
 5042POPC   C4B64234  19.170  27.840   7.652
 5043POPC   NC364235  34.095  37.861   5.377
 5043POPC   PO464236  33.472  37.657   5.517
 5043POPC   GL164237  33.869  37.688   5.806
 5043POPC   GL264238  34.034  38.051   5.863
 5043POPC   C1A64239  33.949  37.527   6.227
 5043POPC   D2A64240  33.757  37.549   6.624
 5043POPC   C3A64241  33.940  37.685   6.987
 5043POPC   C4A64242  33.616  37.693   7.266
 5043POPC   C1B64243  34.149  37.999   6.305
 5043POPC   C2B64244  34.135  38.132   6.734
 5043POPC   C3B64245  34.181  38.089   7.194
 5043POPC   C4B64246  34.052  37.824   7.515
 5044POPC   NC364247   1.564  15.001   5.439
 5044POPC   PO464248   1.165  15.490   5.233
 5044POPC   GL164249   1.183  15.432   5.732
 5044POPC   GL264250   1.186  15.057   5.790
 5044POPC   C1A64251   1.407  15.464   6.193
 5044POPC   D2A64252   1.609  15.428   6.613
 5044POPC   C3A64253   1.367  15.489   7.021
 5044POPC   C4A64254   1.403  15.433   7.495
 5044POPC   C1B64255   1.000  15.172   6.175
 5044POPC   C2B64256   1.197  15.115   6.523
 5044POPC   C3B64257   1.148  15.000   6.907
 5044POPC   C4B64258   1.181  14.833   7.304
 5045POPC   NC364259  10.933  13.113   5.406
 5045POPC   PO464260  11.609  12.954   5.426
 5045POPC   GL164261  11.365  13.093   5.812
 5045POPC   GL264262  11.378  12.758   5.890
 5045POPC   C1A64263  11.488  13.110   6.281
 5045POPC   D2A64264  11.417  12.887   6.693
 5045POPC   C3A64265  11.404  13.027   7.122
 5045POPC   C4A64266  11.085  13.269   7.276
 5045POPC   C1B64267  11.377  12.552   6.297
 5045POPC   C2B64268  11.526  12.382   6.712
 5045POPC   C3B64269  11.568  12.505   7.128
 5045POPC   C4B64270  11.279  12.587   7.420
 5046POPC   NC364271  31.129   3.748   5.546
 5046POPC   PO464272  30.534   3.603   5.330
 5046POPC   GL164273  30.607   3.448   5.806
 5046POPC   GL264274  30.933   3.391   5.870
 5046POPC   C1A64275  30.644   3.564   6.277
 5046POPC   D2A64276  30.904   3.625   6.654
 5046POPC   C3A64277  30.626   3.450   6.949
 5046POPC   C4A64278  30.452   3.696   7.253
 5046POPC   C1B64279  31.084   3.315   6.255
 5046POPC   C2B64280  31.065   3.143   6.649
 5046POPC   C3B64281  31.086   3.274   7.067
 5046POPC   C4B64282  31.056   3.333   7.520
 5047POPC   NC364283  17.814  10.344   5.367
 5047POPC   PO464284  17.258  10.417   5.581
 5047POPC   GL164285  17.599  10.631   5.769
 5047POPC   GL264286  17.347  10.841   5.884
 5047POPC   C1A64287  17.627  10.570   6.214
 5047POPC   D2A64288  17.330  10.347   6.490
 5047POPC   C3A64289  17.382  10.397   6.928
 5047POPC   C4A64290  17.663  10.700   7.166
 5047POPC   C1B64291  17.160  10.818   6.291
 5047POPC   C2B64292  17.249  10.913   6.725
 5047POPC   C3B64293  17.141  10.786   7.136
 5047POPC   C4B64294  17.325  10.826   7.551
 5048POPC   NC364295   7.405  13.118   5.442
 5048POPC   PO464296   7.623  12.486   5.484
 5048POPC   GL164297   7.569  12.803   5.860
 5048POPC   GL264298   7.234  12.928   5.880
 5048POPC   C1A64299   7.494  12.980   6.325
 5048POPC   D2A64300   7.399  13.124   6.756
 5048POPC   C3A64301   7.698  13.083   7.087
 5048POPC   C4A64302   7.716  13.110   7.521
 5048POPC   C1B64303   7.171  12.598   6.228
 5048POPC   C2B64304   7.409  12.502   6.611
 5048POPC   C3B64305   7.392  12.654   7.037
 5048POPC   C4B64306   7.099  12.962   7.168
 5049POPC   NC364307  12.499  15.812   5.481
 5049POPC   PO464308  11.852  15.586   5.394
 5049POPC   GL164309  11.904  15.835   5.807
 5049POPC   GL264310  12.116  16.116   5.853
 5049POPC   C1A64311  12.001  15.792   6.256
 5049POPC   D2A64312  12.245  15.827   6.644
 5049POPC   C3A64313  12.022  16.027   7.003
 5049POPC   C4A64314  11.933  15.832   7.399
 5049POPC   C1B64315  12.338  16.167   6.256
 5049POPC   C2B64316  12.390  16.336   6.658
 5049POPC   C3B64317  12.539  16.122   6.992
 5049POPC   C4B64318  12.402  16.055   7.412
 5050POPC   NC364319  25.838  12.446   5.566
 5050POPC   PO464320  26.343  11.977   5.430
 5050POPC   GL164321  26.100  11.999   5.750
 5050POPC   GL264322  26.236  12.292   5.845
 5050POPC   C1A64323  25.963  11.871   6.135
 5050POPC   D2A64324  25.983  12.070   6.532
 5050POPC   C3A64325  26.237  11.964   6.883
 5050POPC   C4A64326  26.071  11.745   7.222
 5050POPC   C1B64327  26.382  12.427   6.198
 5050POPC   C2B64328  26.420  12.360   6.607
 5050POPC   C3B64329  26.484  12.434   7.016
 5050POPC   C4B64330  26.261  12.239   7.342
 5051POPC   NC364331   6.469  23.259   5.463
 5051POPC   PO464332   6.800  22.618   5.504
 5051POPC   GL164333   6.649  22.916   5.791
 5051POPC   GL264334   6.880  23.182   5.742
 5051POPC   C1A64335   6.543  23.166   6.168
 5051POPC   D2A64336   6.703  22.904   6.515
 5051POPC   C3A64337   6.528  22.958   6.916
 5051POPC   C4A64338   6.586  22.667   7.245
 5051POPC   C1B64339   7.043  23.276   6.158
 5051POPC   C2B64340   6.918  23.357   6.589
 5051POPC   C3B64341   7.000  23.200   6.993
 5051POPC   C4B64342   6.789  23.187   7.384
 5052POPC   NC364343  43.438  17.520   5.466
 5052POPC   PO464344  42.816  17.246   5.484
 5052POPC   GL164345  43.042  17.404   5.858
 5052POPC   GL264346  42.887  17.730   6.037
 5052POPC   C1A64347  43.126  17.369   6.298
 5052POPC   D2A64348  42.917  17.446   6.670
 5052POPC   C3A64349  43.174  17.294   6.975
 5052POPC   C4A64350  43.226  17.374   7.426
 5052POPC   C1B64351  43.230  17.871   6.336
 5052POPC   C2B64352  43.371  17.760   6.763
 5052POPC   C3B64353  43.125  17.787   7.132
 5052POPC   C4B64354  42.760  17.558   7.224
 5053POPC   NC364355  13.668   6.596   5.276
 5053POPC   PO464356  14.398   6.659   5.449
 5053POPC   GL164357  14.486   6.558   5.818
 5053POPC   GL264358  14.817   6.414   5.781
 5053POPC   C1A64359  14.445   6.767   6.193
 5053POPC   D2A64360  14.700   6.795   6.528
 5053POPC   C3A64361  14.457   6.699   6.872
 5053POPC   C4A64362  14.494   6.838   7.272
 5053POPC   C1B64363  14.741   6.346   6.217
 5053POPC   C2B64364  14.550   6.266   6.586
 5053POPC   C3B64365  14.720   6.250   7.012
 5053POPC   C4B64366  14.971   6.374   7.397
 5054POPC   NC364367  13.637  37.264   5.511
 5054POPC   PO464368  13.337  37.896   5.594
 5054POPC   GL164369  13.680  37.711   5.842
 5054POPC   GL264370  13.679  37.369   6.002
 5054POPC   C1A64371  13.808  37.802   6.277
 5054POPC   D2A64372  13.866  37.592   6.674
 5054POPC   C3A64373  13.820  37.780   7.065
 5054POPC   C4A64374  13.970  37.582   7.421
 5054POPC   C1B64375  13.312  37.182   6.209
 5054POPC   C2B64376  13.129  37.314   6.585
 5054POPC   C3B64377  13.374  37.419   6.922
 5054POPC   C4B64378  13.334  37.699   7.248
 5055POPC   NC364379  28.942  23.456   5.618
 5055POPC   PO464380  29.257  22.974   5.306
 5055POPC   GL164381  29.248  22.890   5.773
 5055POPC   GL264382  29.152  23.173   5.973
 5055POPC   C1A64383  29.475  22.734   6.173
 5055POPC   D2A64384  29.495  22.800   6.645
 5055POPC   C3A64385  29.105  22.804   6.907
 5055POPC   C4A64386  28.913  22.625   7.248
 5055POPC   C1B64387  29.106  23.034   6.387
 5055POPC   C2B64388  29.224  23.261   6.754
 5055POPC   C3B64389  29.138  23.213   7.218
 5055POPC   C4B64390  28.783  23.308   7.503
 5056POPC   NC364391  34.144   9.785   5.083
 5056POPC   PO464392  34.762   9.774   5.301
 5056POPC   GL164393  34.494   9.582   5.598
 5056POPC   GL264394  34.632   9.796   5.844
 5056POPC   C1A64395  34.350   9.378   6.000
 5056POPC   D2A64396  34.386   9.284   6.469
 5056POPC   C3A64397  34.568   9.368   6.877
 5056POPC   C4A64398  34.428   9.601   7.226
 5056POPC   C1B64399  34.483   9.784   6.284
 5056POPC   C2B64400  34.753   9.775   6.651
 5056POPC   C3B64401  34.853   9.923   7.088
 5056POPC   C4B64402  34.974   9.982   7.547
 5057POPC   NC364403  25.223  16.417   5.638
 5057POPC   PO464404  25.603  16.701   5.169
 5057POPC   GL164405  25.589  16.970   5.659
 5057POPC   GL264406  25.318  16.843   5.905
 5057POPC   C1A64407  25.712  17.034   6.137
 5057POPC   D2A64408  25.626  17.239   6.548
 5057POPC   C3A64409  25.468  17.013   6.928
 5057POPC   C4A64410  25.343  16.683   7.204
 5057POPC   C1B64411  25.167  16.576   6.296
 5057POPC   C2B64412  25.035  16.569   6.767
 5057POPC   C3B64413  24.919  16.386   7.190
 5057POPC   C4B64414  24.746  16.427   7.632
 5058POPC   NC364415  21.102  24.977   5.476
 5058POPC   PO464416  21.762  25.268   5.441
 5058POPC   GL164417  21.704  25.032   5.838
 5058POPC   GL264418  21.340  25.088   5.920
 5058POPC   C1A64419  21.673  25.044   6.307
 5058POPC   D2A64420  21.412  25.222   6.621
 5058POPC   C3A64421  21.536  25.249   7.033
 5058POPC   C4A64422  21.419  24.961   7.304
 5058POPC   C1B64423  21.096  25.354   6.213
 5058POPC   C2B64424  20.937  25.466   6.619
 5058POPC   C3B64425  21.127  25.574   6.991
 5058POPC   C4B64426  21.109  25.378   7.372
 5059POPC   NC364427  10.223  14.520   5.346
 5059POPC   PO464428  10.834  14.205   5.220
 5059POPC   GL164429  10.632  14.225   5.679
 5059POPC   GL264430  10.478  14.546   5.772
 5059POPC   C1A64431  10.423  14.134   6.132
 5059POPC   D2A64432  10.615  14.222   6.562
 5059POPC   C3A64433  10.465  14.185   6.997
 5059POPC   C4A64434  10.740  14.112   7.358
 5059POPC   C1B64435  10.618  14.619   6.172
 5059POPC   C2B64436  10.649  14.753   6.595
 5059POPC   C3B64437  10.793  14.589   6.985
 5059POPC   C4B64438  10.612  14.626   7.397
 5060POPC   NC364439   5.548  27.065   5.134
 5060POPC   PO464440   5.019  26.789   5.434
 5060POPC   GL164441   5.067  26.811   5.872
 5060POPC   GL264442   4.991  27.172   5.890
 5060POPC   C1A64443   5.229  26.898   6.274
 5060POPC   D2A64444   4.973  26.751   6.585
 5060POPC   C3A64445   5.140  26.873   6.958
 5060POPC   C4A64446   5.076  26.846   7.371
 5060POPC   C1B64447   4.785  27.165   6.310
 5060POPC   C2B64448   4.702  27.142   6.766
 5060POPC   C3B64449   4.890  27.291   7.152
 5060POPC   C4B64450   5.054  27.547   7.480
 5061POPC   NC364451  43.714  11.629   5.521
 5061POPC   PO464452  44.060  12.060   5.096
 5061POPC   GL164453  44.019  12.032   5.590
 5061POPC   GL264454  43.692  12.124   5.721
 5061POPC   C1A64455  43.991  11.894   6.066
 5061POPC   D2A64456  44.263  11.849   6.443
 5061POPC   C3A64457  44.156  11.848   6.893
 5061POPC   C4A64458  44.225  12.135   7.229
 5061POPC   C1B64459  43.602  12.226   6.191
 5061POPC   C2B64460  43.586  12.106   6.666
 5061POPC   C3B64461  43.716  12.168   7.119
 5061POPC   C4B64462  43.462  12.245   7.496
 5062POPC   NC364463  16.749  33.245   5.533
 5062POPC   PO464464  16.854  33.937   5.587
 5062POPC   GL164465  16.552  33.749   5.887
 5062POPC   GL264466  16.752  33.581   6.144
 5062POPC   C1A64467  16.402  33.934   6.273
 5062POPC   D2A64468  16.624  33.818   6.629
 5062POPC   C3A64469  16.462  33.648   6.996
 5062POPC   C4A64470  16.658  33.827   7.361
 5062POPC   C1B64471  16.934  34.024   6.264
 5062POPC   C2B64472  16.945  34.260   6.672
 5062POPC   C3B64473  16.999  34.139   7.103
 5062POPC   C4B64474  16.962  34.190   7.557
 5063POPC   NC364475  42.784   2.507   5.426
 5063POPC   PO464476  43.030   3.106   5.279
 5063POPC   GL164477  43.077   2.832   5.699
 5063POPC   GL264478  43.402   2.667   5.795
 5063POPC   C1A64479  43.012   2.696   6.134
 5063POPC   D2A64480  42.952   2.857   6.544
 5063POPC   C3A64481  42.874   2.578   6.896
 5063POPC   C4A64482  42.954   2.696   7.302
 5063POPC   C1B64483  43.420   3.004   6.106
 5063POPC   C2B64484  43.459   2.948   6.538
 5063POPC   C3B64485  43.251   2.951   6.951
 5063POPC   C4B64486  43.458   2.844   7.308
 5064POPC   NC364487  40.997  36.627   5.214
 5064POPC   PO464488  40.701  37.185   5.250
 5064POPC   GL164489  40.688  37.056   5.729
 5064POPC   GL264490  40.763  36.700   5.820
 5064POPC   C1A64491  40.858  37.003   6.194
 5064POPC   D2A64492  41.017  36.901   6.583
 5064POPC   C3A64493  40.777  36.995   6.916
 5064POPC   C4A64494  40.971  37.132   7.229
 5064POPC   C1B64495  40.592  36.545   6.175
 5064POPC   C2B64496  40.557  36.671   6.573
 5064POPC   C3B64497  40.825  36.478   6.851
 5064POPC   C4B64498  40.702  36.563   7.232
 5065POPC   NC364499  20.688  10.432   5.466
 5065POPC   PO464500  20.942   9.866   5.627
 5065POPC   GL164501  20.961  10.331   5.906
 5065POPC   GL264502  20.771  10.687   5.904
 5065POPC   C1A64503  20.917  10.572   6.356
 5065POPC   D2A64504  20.724  10.940   6.590
 5065POPC   C3A64505  20.601  10.819   7.024
 5065POPC   C4A64506  20.856  10.829   7.435
 5065POPC   C1B64507  20.407  10.716   6.201
 5065POPC   C2B64508  20.205  10.525   6.579
 5065POPC   C3B64509  20.435  10.339   6.929
 5065POPC   C4B64510  20.448  10.466   7.371
 5066POPC   NC364511  33.979  23.859   5.419
 5066POPC   PO464512  33.396  23.426   5.471
 5066POPC   GL164513  33.508  23.619   5.866
 5066POPC   GL264514  33.884  23.590   5.860
 5066POPC   C1A64515  33.618  23.794   6.277
 5066POPC   D2A64516  33.726  23.965   6.679
 5066POPC   C3A64517  33.466  23.729   6.968
 5066POPC   C4A64518  33.584  23.641   7.340
 5066POPC   C1B64519  33.790  23.306   6.227
 5066POPC   C2B64520  33.767  23.439   6.671
 5066POPC   C3B64521  33.982  23.657   7.017
 5066POPC   C4B64522  34.184  23.771   7.422
 5067POPC   NC364523  44.618  30.420   5.503
 5067POPC   PO464524  44.651  31.052   5.450
 5067POPC   GL164525  44.793  30.852   5.810
 5067POPC   GL264526  44.482  30.745   5.928
 5067POPC   C1A64527  44.925  30.802   6.246
 5067POPC   D2A64528  44.938  30.536   6.645
 5067POPC   C3A64529  44.874  30.734   7.065
 5067POPC   C4A64530  44.864  30.586   7.500
 5067POPC   C1B64531  44.389  30.855   6.364
 5067POPC   C2B64532  44.445  30.930   6.798
 5067POPC   C3B64533  44.321  30.732   7.158
 5067POPC   C4B64534  44.395  30.401   7.409
 5068POPC   NC364535  18.669  10.453   5.605
 5068POPC   PO464536  19.264  10.641   5.481
 5068POPC   GL164537  19.061  10.674   5.877
 5068POPC   GL264538  18.757  10.877   5.852
 5068POPC   C1A64539  19.091  10.441   6.261
 5068POPC   D2A64540  19.341  10.430   6.630
 5068POPC   C3A64541  19.089  10.511   6.982
 5068POPC   C4A64542  19.174  10.300   7.336
 5068POPC   C1B64543  18.599  10.662   6.212
 5068POPC   C2B64544  18.743  10.662   6.609
 5068POPC   C3B64545  18.607  10.727   7.008
 5068POPC   C4B64546  18.779  10.662   7.396
 5069POPC   NC364547  14.599  11.273   5.428
 5069POPC   PO464548  14.076  11.491   5.413
 5069POPC   GL164549  14.310  11.464   5.811
 5069POPC   GL264550  14.550  11.229   5.915
 5069POPC   C1A64551  14.330  11.523   6.262
 5069POPC   D2A64552  14.420  11.397   6.651
 5069POPC   C3A64553  14.241  11.544   7.038
 5069POPC   C4A64554  14.241  11.278   7.391
 5069POPC   C1B64555  14.813  11.538   6.113
 5069POPC   C2B64556  14.845  11.692   6.533
 5069POPC   C3B64557  14.780  11.539   6.972
 5069POPC   C4B64558  14.642  11.599   7.420
 5070POPC   NC364559  12.487   0.947   5.505
 5070POPC   PO464560  11.925   1.272   5.268
 5070POPC   GL164561  12.014   1.299   5.718
 5070POPC   GL264562  12.255   1.158   5.914
 5070POPC   C1A64563  11.844   1.374   6.159
 5070POPC   D2A64564  11.984   1.316   6.607
 5070POPC   C3A64565  11.864   1.549   6.975
 5070POPC   C4A64566  11.988   1.375   7.360
 5070POPC   C1B64567  12.152   0.955   6.270
 5070POPC   C2B64568  12.172   0.803   6.678
 5070POPC   C3B64569  12.193   1.042   7.033
 5070POPC   C4B64570  12.146   0.918   7.466
 5071POPC   NC364571  25.672  13.076   5.330
 5071POPC   PO464572  26.216  12.730   5.516
 5071POPC   GL164573  26.018  13.038   5.750
 5071POPC   GL264574  25.757  12.879   5.852
 5071POPC   C1A64575  26.087  13.172   6.197
 5071POPC   D2A64576  25.845  13.042   6.581
 5071POPC   C3A64577  25.992  12.859   6.995
 5071POPC   C4A64578  26.288  12.809   7.328
 5071POPC   C1B64579  25.937  12.680   6.203
 5071POPC   C2B64580  25.865  12.544   6.617
 5071POPC   C3B64581  25.881  12.333   7.022
 5071POPC   C4B64582  25.837  12.463   7.482
 5072POPC   NC364583  38.767  21.554   5.187
 5072POPC   PO464584  38.721  20.889   5.433
 5072POPC   GL164585  38.538  21.150   5.798
 5072POPC   GL264586  38.464  21.503   5.836
 5072POPC   C1A64587  38.585  21.231   6.263
 5072POPC   D2A64588  38.435  21.499   6.614
 5072POPC   C3A64589  38.521  21.365   7.012
 5072POPC   C4A64590  38.499  21.125   7.372
 5072POPC   C1B64591  38.564  21.776   6.198
 5072POPC   C2B64592  38.743  21.921   6.619
 5072POPC   C3B64593  38.668  21.841   7.080
 5072POPC   C4B64594  38.416  21.688   7.456
 5073POPC   NC364595  26.220  38.104   5.359
 5073POPC   PO464596  25.725  38.617   5.428
 5073POPC   GL164597  26.023  38.580   5.827
 5073POPC   GL264598  26.301  38.314   5.821
 5073POPC   C1A64599  26.202  38.614   6.287
 5073POPC   D2A64600  26.201  38.942   6.684
 5073POPC   C3A64601  26.014  38.777   7.083
 5073POPC   C4A64602  25.816  38.338   7.047
 5073POPC   C1B64603  26.545  38.068   6.120
 5073POPC   C2B64604  26.346  38.067   6.517
 5073POPC   C3B64605  26.268  38.083   6.939
 5073POPC   C4B64606  26.298  38.387   7.225
 5074POPC   NC364607  12.002  35.463   5.269
 5074POPC   PO464608  12.563  35.665   5.622
 5074POPC   GL164609  12.221  35.389   5.773
 5074POPC   GL264610  11.844  35.453   5.749
 5074POPC   C1A64611  12.108  35.369   6.196
 5074POPC   D2A64612  12.076  35.169   6.568
 5074POPC   C3A64613  12.033  35.441   6.875
 5074POPC   C4A64614  12.073  35.292   7.246
 5074POPC   C1B64615  11.625  35.521   6.126
 5074POPC   C2B64616  11.773  35.694   6.484
 5074POPC   C3B64617  11.650  35.797   6.877
 5074POPC   C4B64618  11.885  35.783   7.255
 5075POPC   NC364619   5.458   3.636   5.581
 5075POPC   PO464620   6.132   3.561   5.374
 5075POPC   GL164621   5.931   3.636   5.751
 5075POPC   GL264622   6.159   3.500   5.949
 5075POPC   C1A64623   5.774   3.805   6.156
 5075POPC   D2A64624   5.862   3.635   6.563
 5075POPC   C3A64625   5.538   3.688   6.867
 5075POPC   C4A64626   5.709   3.702   7.282
 5075POPC   C1B64627   5.814   3.284   6.166
 5075POPC   C2B64628   5.636   3.161   6.563
 5075POPC   C3B64629   5.818   3.278   6.968
 5075POPC   C4B64630   6.030   3.246   7.344
 5076POPC   NC364631  30.951  34.903   5.187
 5076POPC   PO464632  30.356  34.573   5.259
 5076POPC   GL164633  30.525  34.520   5.706
 5076POPC   GL264634  30.792  34.775   5.794
 5076POPC   C1A64635  30.719  34.206   6.030
 5076POPC   D2A64636  30.668  34.135   6.504
 5076POPC   C3A64637  30.837  34.421   6.842
 5076POPC   C4A64638  30.893  34.506   7.289
 5076POPC   C1B64639  30.632  34.667   6.223
 5076POPC   C2B64640  30.616  34.813   6.616
 5076POPC   C3B64641  30.594  34.832   7.037
 5076POPC   C4B64642  30.377  34.621   7.372
 5077POPC   NC364643   1.450  38.460   5.547
 5077POPC   PO464644   0.921  38.103   5.711
 5077POPC   GL164645   1.104  38.426   5.958
 5077POPC   GL264646   1.055  38.731   5.784
 5077POPC   C1A64647   1.257  38.460   6.366
 5077POPC   D2A64648   1.523  38.292   6.702
 5077POPC   C3A64649   1.268  38.465   7.010
 5077POPC   C4A64650   1.042  38.663   7.314
 5077POPC   C1B64651   1.360  38.908   6.087
 5077POPC   C2B64652   1.362  39.000   6.536
 5077POPC   C3B64653   1.339  38.989   7.032
 5077POPC   C4B64654   1.386  38.963   7.539
 5078POPC   NC364655  22.786   4.779   5.439
 5078POPC   PO464656  23.106   5.302   5.250
 5078POPC   GL164657  22.866   5.156   5.753
 5078POPC   GL264658  23.068   4.798   5.847
 5078POPC   C1A64659  22.878   5.024   6.246
 5078POPC   D2A64660  23.255   5.024   6.528
 5078POPC   C3A64661  23.150   5.089   6.956
 5078POPC   C4A64662  22.697   5.136   7.031
 5078POPC   C1B64663  23.203   4.608   6.219
 5078POPC   C2B64664  22.987   4.597   6.614
 5078POPC   C3B64665  22.881   4.649   7.035
 5078POPC   C4B64666  23.172   4.749   7.370
 5079POPC   NC364667  40.236  23.924   5.395
 5079POPC   PO464668  39.918  23.261   5.453
 5079POPC   GL164669  39.815  23.503   5.804
 5079POPC   GL264670  40.061  23.761   5.853
 5079POPC   C1A64671  39.881  23.431   6.219
 5079POPC   D2A64672  39.908  23.717   6.505
 5079POPC   C3A64673  39.866  23.541   6.916
 5079POPC   C4A64674  40.002  23.415   7.294
 5079POPC   C1B64675  40.281  23.930   6.207
 5079POPC   C2B64676  40.364  23.792   6.646
 5079POPC   C3B64677  40.344  23.732   7.044
 5079POPC   C4B64678  40.213  23.989   7.336
 5080POPC   NC364679  12.610   8.052   5.481
 5080POPC   PO464680  13.058   8.534   5.512
 5080POPC   GL164681  13.121   8.135   5.792
 5080POPC   GL264682  12.838   7.905   5.901
 5080POPC   C1A64683  13.201   7.950   6.238
 5080POPC   D2A64684  12.857   7.935   6.552
 5080POPC   C3A64685  12.980   8.079   6.951
 5080POPC   C4A64686  12.872   8.409   7.173
 5080POPC   C1B64687  12.811   8.292   6.157
 5080POPC   C2B64688  12.502   8.419   6.404
 5080POPC   C3B64689  12.541   8.378   6.809
 5080POPC   C4B64690  12.381   8.572   7.191
 5081POPC   NC364691  39.796  19.372   5.404
 5081POPC   PO464692  40.295  18.809   5.417
 5081POPC   GL164693  40.148  18.843   5.820
 5081POPC   GL264694  40.097  19.170   5.859
 5081POPC   C1A64695  40.039  18.758   6.217
 5081POPC   D2A64696  39.888  18.979   6.563
 5081POPC   C3A64697  40.155  19.126   6.868
 5081POPC   C4A64698  40.129  19.073   7.311
 5081POPC   C1B64699  39.766  19.291   6.171
 5081POPC   C2B64700  39.817  19.481   6.622
 5081POPC   C3B64701  39.720  19.299   7.055
 5081POPC   C4B64702  39.733  19.330   7.533
 5082POPC   NC364703   2.937  17.869   5.411
 5082POPC   PO464704   2.673  17.213   5.412
 5082POPC   GL164705   2.837  17.468   5.727
 5082POPC   GL264706   2.652  17.779   5.852
 5082POPC   C1A64707   2.991  17.505   6.118
 5082POPC   D2A64708   3.001  17.287   6.514
 5082POPC   C3A64709   3.009  17.559   6.852
 5082POPC   C4A64710   2.952  17.456   7.272
 5082POPC   C1B64711   2.333  17.729   6.169
 5082POPC   C2B64712   2.346  17.670   6.617
 5082POPC   C3B64713   2.525  17.617   7.038
 5082POPC   C4B64714   2.599  17.750   7.489
 5083POPC   NC364715  41.555  17.829   5.436
 5083POPC   PO464716  41.792  17.266   5.762
 5083POPC   GL164717  41.704  17.662   5.921
 5083POPC   GL264718  41.368  17.648   5.891
 5083POPC   C1A64719  41.730  17.737   6.353
 5083POPC   D2A64720  41.914  17.491   6.693
 5083POPC   C3A64721  41.694  17.596   7.052
 5083POPC   C4A64722  41.603  17.419   7.452
 5083POPC   C1B64723  41.250  17.898   6.239
 5083POPC   C2B64724  41.261  17.811   6.672
 5083POPC   C3B64725  41.197  17.732   7.074
 5083POPC   C4B64726  41.453  17.891   7.431
 5084POPC   NC364727  19.234  33.282   5.411
 5084POPC   PO464728  18.669  32.971   5.578
 5084POPC   GL164729  19.072  33.020   5.874
 5084POPC   GL264730  19.349  33.259   5.898
 5084POPC   C1A64731  19.350  32.914   6.265
 5084POPC   D2A64732  19.428  32.973   6.712
 5084POPC   C3A64733  19.077  32.743   6.927
 5084POPC   C4A64734  18.952  32.592   7.349
 5084POPC   C1B64735  19.145  33.369   6.288
 5084POPC   C2B64736  19.014  33.258   6.722
 5084POPC   C3B64737  19.100  33.205   7.157
 5084POPC   C4B64738  19.178  33.037   7.570
 5085POPC   NC364739  34.354   3.376   5.394
 5085POPC   PO464740  34.988   3.518   5.578
 5085POPC   GL164741  34.678   3.522   5.880
 5085POPC   GL264742  34.406   3.255   5.867
 5085POPC   C1A64743  34.690   3.837   6.229
 5085POPC   D2A64744  34.503   3.858   6.621
 5085POPC   C3A64745  34.710   3.841   7.004
 5085POPC   C4A64746  34.549   3.627   7.380
 5085POPC   C1B64747  34.288   3.516   6.205
 5085POPC   C2B64748  34.186   3.440   6.608
 5085POPC   C3B64749  34.391   3.393   6.972
 5085POPC   C4B64750  34.258   3.208   7.368
 5086POPC   NC364751   5.150  33.637   5.435
 5086POPC   PO464752   4.675  34.103   5.390
 5086POPC   GL164753   4.924  33.892   5.822
 5086POPC   GL264754   5.240  33.650   5.927
 5086POPC   C1A64755   4.812  33.657   6.230
 5086POPC   D2A64756   4.779  33.809   6.637
 5086POPC   C3A64757   5.040  33.785   6.980
 5086POPC   C4A64758   5.022  34.056   7.295
 5086POPC   C1B64759   5.246  33.921   6.287
 5086POPC   C2B64760   5.430  33.880   6.685
 5086POPC   C3B64761   5.516  33.879   7.120
 5086POPC   C4B64762   5.434  33.459   7.161
 5087POPC   NC364763  20.874  18.620   5.441
 5087POPC   PO464764  20.763  17.992   5.568
 5087POPC   GL164765  20.839  18.294   5.867
 5087POPC   GL264766  21.074  18.089   6.063
 5087POPC   C1A64767  20.668  18.351   6.298
 5087POPC   D2A64768  20.866  18.214   6.689
 5087POPC   C3A64769  20.567  18.056   7.003
 5087POPC   C4A64770  20.271  18.103   7.343
 5087POPC   C1B64771  21.135  18.515   6.214
 5087POPC   C2B64772  20.959  18.726   6.585
 5087POPC   C3B64773  21.026  18.611   7.022
 5087POPC   C4B64774  21.091  18.173   7.152
 5088POPC   NC364775  37.608   7.876   5.400
 5088POPC   PO464776  37.960   8.413   5.604
 5088POPC   GL164777  37.795   8.136   5.877
 5088POPC   GL264778  37.423   8.053   5.891
 5088POPC   C1A64779  37.667   8.309   6.261
 5088POPC   D2A64780  37.480   8.474   6.611
 5088POPC   C3A64781  37.599   8.188   6.908
 5088POPC   C4A64782  37.713   8.178   7.302
 5088POPC   C1B64783  37.478   7.829   6.321
 5088POPC   C2B64784  37.571   7.717   6.756
 5088POPC   C3B64785  37.411   7.782   7.199
 5088POPC   C4B64786  37.525   7.864   7.658
 5089POPC   NC364787  16.610  39.862   5.352
 5089POPC   PO464788  16.257  40.418   5.548
 5089POPC   GL164789  16.664  40.169   5.779
 5089POPC   GL264790  16.742  39.767   5.848
 5089POPC   C1A64791  16.887  40.125   6.208
 5089POPC   D2A64792  16.774  40.068   6.661
 5089POPC   C3A64793  17.029  40.273   6.991
 5089POPC   C4A64794  17.164  40.188   7.398
 5089POPC   C1B64795  16.825  39.628   6.310
 5089POPC   C2B64796  16.827  39.541   6.777
 5089POPC   C3B64797  16.839  39.825   7.135
 5089POPC   C4B64798  16.633  39.787   7.497
 5090POPC   NC364799  27.392  40.308   5.692
 5090POPC   PO464800  27.664  40.890   5.342
 5090POPC   GL164801  27.556  40.829   5.785
 5090POPC   GL264802  27.287  41.059   5.809
 5090POPC   C1A64803  27.776  40.918   6.206
 5090POPC   D2A64804  27.844  40.538   6.483
 5090POPC   C3A64805  27.904  40.500   6.926
 5090POPC   C4A64806  27.656  40.344   7.255
 5090POPC   C1B64807  27.256  40.869   6.222
 5090POPC   C2B64808  27.454  40.882   6.617
 5090POPC   C3B64809  27.434  40.744   7.007
 5090POPC   C4B64810  27.272  40.904   7.382
 5091POPC   NC364811  21.949   8.003   5.434
 5091POPC   PO464812  22.077   8.560   5.608
 5091POPC   GL164813  21.922   8.221   5.908
 5091POPC   GL264814  22.111   7.912   5.962
 5091POPC   C1A64815  21.830   8.144   6.346
 5091POPC   D2A64816  22.012   8.422   6.643
 5091POPC   C3A64817  22.198   8.320   7.018
 5091POPC   C4A64818  22.033   8.380   7.446
 5091POPC   C1B64819  22.287   7.885   6.411
 5091POPC   C2B64820  22.233   7.785   6.852
 5091POPC   C3B64821  22.131   7.896   7.280
 5091POPC   C4B64822  22.432   8.018   7.607
 5092POPC   NC364823  42.712  37.368   5.445
 5092POPC   PO464824  42.103  37.585   5.541
 5092POPC   GL164825  42.311  37.739   5.846
 5092POPC   GL264826  42.112  38.003   5.933
 5092POPC   C1A64827  42.424  37.543   6.187
 5092POPC   D2A64828  42.528  37.479   6.582
 5092POPC   C3A64829  42.315  37.631   6.912
 5092POPC   C4A64830  42.461  37.582   7.287
 5092POPC   C1B64831  42.161  37.951   6.332
 5092POPC   C2B64832  41.900  37.942   6.628
 5092POPC   C3B64833  41.967  38.030   6.993
 5092POPC   C4B64834  42.239  38.111   7.244
 5093POPC   NC364835  20.970  35.446   5.117
 5093POPC   PO464836  21.556  35.540   5.336
 5093POPC   GL164837  21.489  35.400   5.759
 5093POPC   GL264838  21.122  35.392   5.762
 5093POPC   C1A64839  21.428  35.472   6.210
 5093POPC   D2A64840  21.193  35.739   6.508
 5093POPC   C3A64841  21.280  35.586   6.913
 5093POPC   C4A64842  21.518  35.308   7.164
 5093POPC   C1B64843  21.005  35.189   6.162
 5093POPC   C2B64844  21.173  35.157   6.587
 5093POPC   C3B64845  20.935  35.148   6.971
 5093POPC   C4B64846  20.943  35.462   7.270
 5094POPC   NC364847  30.226  39.376   5.490
 5094POPC   PO464848  29.706  38.969   5.404
 5094POPC   GL164849  29.870  39.142   5.813
 5094POPC   GL264850  29.811  39.469   5.791
 5094POPC   C1A64851  30.175  39.320   6.169
 5094POPC   D2A64852  30.380  39.167   6.565
 5094POPC   C3A64853  30.043  38.915   6.744
 5094POPC   C4A64854  29.837  39.068   7.095
 5094POPC   C1B64855  29.661  39.454   6.202
 5094POPC   C2B64856  29.863  39.393   6.604
 5094POPC   C3B64857  29.741  39.546   7.003
 5094POPC   C4B64858  29.448  39.425   7.338
 5095POPC   NC364859  35.048  44.439   5.463
 5095POPC   PO464860  35.578  44.945   5.551
 5095POPC   GL164861  35.337  44.660   5.849
 5095POPC   GL264862  35.538  44.410   5.998
 5095POPC   C1A64863  35.163  44.637   6.290
 5095POPC   D2A64864  35.027  44.845   6.673
 5095POPC   C3A64865  35.357  44.796   7.003
 5095POPC   C4A64866  35.267  44.617   7.412
 5095POPC   C1B64867  35.647  44.466   6.407
 5095POPC   C2B64868  35.438  44.342   6.774
 5095POPC   C3B64869  35.624  44.355   7.191
 5095POPC   C4B64870  35.759  44.458   7.635
 5096POPC   NC364871  20.853  21.505   5.069
 5096POPC   PO464872  20.429  21.242   5.466
 5096POPC   GL164873  20.591  21.405   5.858
 5096POPC   GL264874  20.886  21.224   6.024
 5096POPC   C1A64875  20.687  21.660   6.197
 5096POPC   D2A64876  20.856  21.464   6.530
 5096POPC   C3A64877  20.561  21.445   6.844
 5096POPC   C4A64878  20.639  21.534   7.260
 5096POPC   C1B64879  20.826  20.963   6.378
 5096POPC   C2B64880  20.784  20.986   6.808
 5096POPC   C3B64881  20.754  21.017   7.222
 5096POPC   C4B64882  21.066  21.101   7.521
 5097POPC   NC364883  41.877   8.089   5.550
 5097POPC   PO464884  42.467   8.247   5.695
 5097POPC   GL164885  42.423   7.869   5.878
 5097POPC   GL264886  42.783   7.785   5.876
 5097POPC   C1A64887  42.251   7.846   6.305
 5097POPC   D2A64888  42.365   8.164   6.598
 5097POPC   C3A64889  42.377   8.020   6.994
 5097POPC   C4A64890  42.144   8.162   7.324
 5097POPC   C1B64891  42.760   7.969   6.256
 5097POPC   C2B64892  42.877   8.090   6.625
 5097POPC   C3B64893  42.755   8.374   6.916
 5097POPC   C4B64894  42.675   8.274   7.328
 5098POPC   NC364895  17.934   4.541   5.429
 5098POPC   PO464896  18.536   4.367   5.604
 5098POPC   GL164897  18.240   4.270   5.880
 5098POPC   GL264898  17.957   4.437   5.937
 5098POPC   C1A64899  18.392   4.151   6.241
 5098POPC   D2A64900  18.514   4.395   6.594
 5098POPC   C3A64901  18.545   4.136   6.944
 5098POPC   C4A64902  18.502   4.347   7.296
 5098POPC   C1B64903  17.888   4.124   6.270
 5098POPC   C2B64904  18.119   4.072   6.661
 5098POPC   C3B64905  18.083   4.383   6.964
 5098POPC   C4B64906  17.914   4.293   7.339
 5099POPC   NC364907   7.995  20.962   5.460
 5099POPC   PO464908   8.314  21.581   5.462
 5099POPC   GL164909   8.193  21.471   5.838
 5099POPC   GL264910   7.850  21.561   5.761
 5099POPC   C1A64911   8.301  21.339   6.268
 5099POPC   D2A64912   8.550  21.225   6.658
 5099POPC   C3A64913   8.310  21.405   6.987
 5099POPC   C4A64914   7.880  21.303   7.043
 5099POPC   C1B64915   7.926  21.721   6.188
 5099POPC   C2B64916   7.984  21.598   6.615
 5099POPC   C3B64917   7.986  21.815   7.008
 5099POPC   C4B64918   7.901  21.707   7.439
 5100POPC   NC364919  39.781  22.705   5.420
 5100POPC   PO464920  40.474  22.648   5.505
 5100POPC   GL164921  40.454  22.923   5.894
 5100POPC   GL264922  40.138  23.102   5.883
 5100POPC   C1A64923  40.345  22.915   6.314
 5100POPC   D2A64924  40.109  22.720   6.633
 5100POPC   C3A64925  40.318  22.709   7.019
 5100POPC   C4A64926  40.213  22.924   7.407
 5100POPC   C1B64927  39.845  22.918   6.182
 5100POPC   C2B64928  39.720  23.081   6.587
 5100POPC   C3B64929  39.881  23.025   6.977
 5100POPC   C4B64930  39.693  23.017   7.339
 5101POPC   NC364931  40.581  18.451   5.516
 5101POPC   PO464932  41.098  17.963   5.579
 5101POPC   GL164933  40.928  18.202   5.885
 5101POPC   GL264934  40.923  18.555   5.882
 5101POPC   C1A64935  40.684  18.105   6.235
 5101POPC   D2A64936  40.498  18.289   6.616
 5101POPC   C3A64937  40.720  18.332   6.944
 5101POPC   C4A64938  40.546  18.248   7.321
 5101POPC   C1B64939  40.544  18.613   6.172
 5101POPC   C2B64940  40.396  18.776   6.585
 5101POPC   C3B64941  40.342  18.654   7.030
 5101POPC   C4B64942  40.454  18.706   7.479
 5102POPC   NC364943  43.475   6.045   5.358
 5102POPC   PO464944  42.869   5.726   5.404
 5102POPC   GL164945  43.187   5.755   5.750
 5102POPC   GL264946  43.197   6.120   5.790
 5102POPC   C1A64947  43.339   5.833   6.197
 5102POPC   D2A64948  43.247   6.141   6.545
 5102POPC   C3A64949  43.301   5.956   6.971
 5102POPC   C4A64950  43.382   5.908   7.403
 5102POPC   C1B64951  42.858   6.031   6.079
 5102POPC   C2B64952  42.750   6.012   6.505
 5102POPC   C3B64953  42.854   6.169   6.911
 5102POPC   C4B64954  42.881   6.059   7.356
 5103POPC   NC364955   5.094   6.168   5.613
 5103POPC   PO464956   4.874   5.538   5.526
 5103POPC   GL164957   5.011   5.726   5.900
 5103POPC   GL264958   5.361   5.658   5.833
 5103POPC   C1A64959   4.917   6.079   6.213
 5103POPC   D2A64960   4.727   6.044   6.622
 5103POPC   C3A64961   4.808   5.698   6.912
 5103POPC   C4A64962   4.806   5.950   7.284
 5103POPC   C1B64963   5.421   5.898   6.186
 5103POPC   C2B64964   5.187   5.836   6.549
 5103POPC   C3B64965   5.198   6.021   6.925
 5103POPC   C4B64966   5.293   5.777   7.242
 5104POPC   NC364967  37.273  29.197   5.285
 5104POPC   PO464968  36.684  29.028   5.513
 5104POPC   GL164969  36.734  29.142   5.894
 5104POPC   GL264970  37.022  29.360   5.739
 5104POPC   C1A64971  36.752  29.032   6.357
 5104POPC   D2A64972  37.161  28.962   6.585
 5104POPC   C3A64973  37.159  29.012   7.015
 5104POPC   C4A64974  36.754  28.981   7.236
 5104POPC   C1B64975  37.128  29.283   6.152
 5104POPC   C2B64976  37.049  29.479   6.520
 5104POPC   C3B64977  36.832  29.415   6.927
 5104POPC   C4B64978  36.663  29.478   7.346
 5105POPC   NC364979  29.150   1.362   5.342
 5105POPC   PO464980  29.133   0.828   5.634
 5105POPC   GL164981  28.863   1.099   5.881
 5105POPC   GL264982  28.925   1.467   5.798
 5105POPC   C1A64983  28.935   1.091   6.338
 5105POPC   D2A64984  29.150   1.249   6.722
 5105POPC   C3A64985  28.889   1.202   7.082
 5105POPC   C4A64986  28.809   0.937   7.456
 5105POPC   C1B64987  29.284   1.374   6.074
 5105POPC   C2B64988  29.478   1.546   6.449
 5105POPC   C3B64989  29.597   1.495   6.868
 5105POPC   C4B64990  29.373   1.356   7.242
 5106POPC   NC364991  32.901  14.846   5.606
 5106POPC   PO464992  33.187  15.407   5.395
 5106POPC   GL164993  33.147  15.312   5.901
 5106POPC   GL264994  32.841  15.137   5.996
 5106POPC   C1A64995  33.032  15.244   6.425
 5106POPC   D2A64996  32.785  15.354   6.786
 5106POPC   C3A64997  33.121  15.558   7.069
 5106POPC   C4A64998  33.568  15.628   7.208
 5106POPC   C1B64999  33.247  14.874   6.146
 5106POPC   C2B65000  33.412  14.909   6.555
 5106POPC   C3B65001  33.270  15.073   6.971
 5106POPC   C4B65002  32.881  15.123   7.209
 5107POPC   NC365003  38.853  13.843   5.639
 5107POPC   PO465004  38.320  13.522   5.348
 5107POPC   GL165005  38.466  13.458   5.808
 5107POPC   GL265006  38.522  13.747   6.018
 5107POPC   C1A65007  38.395  13.340   6.279
 5107POPC   D2A65008  38.364  13.661   6.593
 5107POPC   C3A65009  38.521  13.635   6.978
 5107POPC   C4A65010  38.389  13.415   7.337
 5107POPC   C1B65011  38.795  13.976   6.303
 5107POPC   C2B65012  38.971  14.043   6.744
 5107POPC   C3B65013  38.752  14.060   7.147
 5107POPC   C4B65014  38.390  13.963   7.357
 5108POPC   NC365015  17.113  35.697   5.602
 5108POPC   PO465016  17.293  35.053   5.415
 5108POPC   GL165017  17.174  35.217   5.799
 5108POPC   GL265018  17.031  34.915   5.881
 5108POPC   C1A65019  17.417  35.453   6.154
 5108POPC   D2A65020  17.606  35.594   6.554
 5108POPC   C3A65021  17.414  35.565   6.953
 5108POPC   C4A65022  17.570  35.518   7.363
 5108POPC   C1B65023  17.417  34.942   6.157
 5108POPC   C2B65024  17.595  35.096   6.540
 5108POPC   C3B65025  17.427  35.044   6.928
 5108POPC   C4B65026  17.201  35.155   7.285
 5109POPC   NC365027   8.869  23.323   5.550
 5109POPC   PO465028   9.188  23.910   5.376
 5109POPC   GL165029   8.994  24.038   5.766
 5109POPC   GL265030   8.682  23.875   5.663
 5109POPC   C1A65031   8.985  23.912   6.218
 5109POPC   D2A65032   9.072  23.743   6.657
 5109POPC   C3A65033   8.789  23.987   6.893
 5109POPC   C4A65034   8.850  24.170   7.294
 5109POPC   C1B65035   8.585  23.641   6.037
 5109POPC   C2B65036   8.627  23.591   6.459
 5109POPC   C3B65037   8.609  23.506   6.882
 5109POPC   C4B65038   8.728  23.683   7.290
 5110POPC   NC365039  32.875   5.970   5.362
 5110POPC   PO465040  33.360   5.525   5.474
 5110POPC   GL165041  33.128   5.796   5.787
 5110POPC   GL265042  32.749   5.824   5.835
 5110POPC   C1A65043  33.083   5.824   6.250
 5110POPC   D2A65044  33.398   5.971   6.573
 5110POPC   C3A65045  33.337   5.890   7.026
 5110POPC   C4A65046  33.028   5.693   7.324
 5110POPC   C1B65047  32.733   6.186   6.140
 5110POPC   C2B65048  32.918   6.208   6.565
 5110POPC   C3B65049  32.868   6.075   6.986
 5110POPC   C4B65050  32.591   6.245   7.266
 5111POPC   NC365051  17.356  20.544   5.393
 5111POPC   PO465052  17.373  20.010   5.763
 5111POPC   GL165053  17.489  20.474   5.909
 5111POPC   GL265054  17.495  20.844   5.790
 5111POPC   C1A65055  17.583  20.635   6.332
 5111POPC   D2A65056  17.739  20.408   6.699
 5111POPC   C3A65057  17.415  20.257   6.987
 5111POPC   C4A65058  17.298  20.485   7.382
 5111POPC   C1B65059  17.198  20.944   6.136
 5111POPC   C2B65060  17.110  20.829   6.575
 5111POPC   C3B65061  17.431  20.783   6.903
 5111POPC   C4B65062  17.532  20.971   7.293
 5112POPC   NC365063  11.200  14.495   5.135
 5112POPC   PO465064  11.307  14.948   5.563
 5112POPC   GL165065  11.247  15.184   5.931
 5112POPC   GL265066  10.985  15.422   5.851
 5112POPC   C1A65067  11.331  15.090   6.362
 5112POPC   D2A65068  11.690  14.935   6.597
 5112POPC   C3A65069  11.757  15.130   6.990
 5112POPC   C4A65070  11.503  15.136   7.321
 5112POPC   C1B65071  11.016  15.603   6.239
 5112POPC   C2B65072  11.279  15.542   6.579
 5112POPC   C3B65073  11.282  15.285   6.901
 5112POPC   C4B65074  11.158  15.515   7.283
 5113POPC   NC365075  44.310  37.752   5.548
 5113POPC   PO465076  43.816  37.894   5.212
 5113POPC   GL165077  43.806  37.728   5.692
 5113POPC   GL265078  44.016  37.400   5.772
 5113POPC   C1A65079  43.509  37.621   6.077
 5113POPC   D2A65080  43.510  37.301   6.443
 5113POPC   C3A65081  43.734  37.407   6.844
 5113POPC   C4A65082  43.817  37.700   7.186
 5113POPC   C1B65083  43.985  37.571   6.215
 5113POPC   C2B65084  43.986  37.790   6.607
 5113POPC   C3B65085  44.246  37.632   6.923
 5113POPC   C4B65086  44.341  37.670   7.339
 5114POPC   NC365087  39.642  32.424   5.417
 5114POPC   PO465088  39.363  31.843   5.686
 5114POPC   GL165089  39.274  32.258   5.841
 5114POPC   GL265090  39.026  32.535   5.844
 5114POPC   C1A65091  39.116  32.193   6.265
 5114POPC   D2A65092  39.254  32.067   6.666
 5114POPC   C3A65093  39.022  32.158   7.017
 5114POPC   C4A65094  39.330  32.090   7.304
 5114POPC   C1B65095  39.213  32.687   6.225
 5114POPC   C2B65096  39.339  32.567   6.655
 5114POPC   C3B65097  39.222  32.616   7.107
 5114POPC   C4B65098  39.019  32.450   7.485
 5115POPC   NC365099   6.270  15.724   5.383
 5115POPC   PO465100   5.870  16.259   5.404
 5115POPC   GL165101   5.805  16.034   5.801
 5115POPC   GL265102   6.021  15.778   5.818
 5115POPC   C1A65103   5.709  15.996   6.262
 5115POPC   D2A65104   5.873  16.009   6.695
 5115POPC   C3A65105   5.708  15.868   7.102
 5115POPC   C4A65106   5.666  15.648   7.517
 5115POPC   C1B65107   6.201  15.944   6.185
 5115POPC   C2B65108   6.365  15.890   6.593
 5115POPC   C3B65109   6.237  15.800   7.023
 5115POPC   C4B65110   6.123  16.226   7.134
 5116POPC   NC365111  33.174  35.076   5.305
 5116POPC   PO465112  33.277  35.577   5.656
 5116POPC   GL165113  33.357  35.198   5.854
 5116POPC   GL265114  33.004  35.169   5.815
 5116POPC   C1A65115  33.366  35.086   6.317
 5116POPC   D2A65116  33.133  35.194   6.715
 5116POPC   C3A65117  33.334  35.381   7.081
 5116POPC   C4A65118  33.474  35.467   7.502
 5116POPC   C1B65119  32.899  35.304   6.250
 5116POPC   C2B65120  32.816  35.601   6.599
 5116POPC   C3B65121  32.806  35.458   7.018
 5116POPC   C4B65122  32.668  35.018   7.169
 5117POPC   NC365123  10.958  22.252   5.433
 5117POPC   PO465124  11.597  22.082   5.344
 5117POPC   GL165125  11.543  22.008   5.823
 5117POPC   GL265126  11.286  22.286   5.962
 5117POPC   C1A65127  11.397  21.867   6.253
 5117POPC   D2A65128  11.184  22.140   6.570
 5117POPC   C3A65129  11.312  22.021   6.989
 5117POPC   C4A65130  11.104  21.816   7.320
 5117POPC   C1B65131  11.003  22.623   6.189
 5117POPC   C2B65132  10.886  22.682   6.635
 5117POPC   C3B65133  10.968  22.418   7.037
 5117POPC   C4B65134  11.232  22.335   7.430
 5118POPC   NC365135  15.209  17.884   5.110
 5118POPC   PO465136  15.415  18.358   5.614
 5118POPC   GL165137  15.251  18.189   5.965
 5118POPC   GL265138  14.981  17.964   5.895
 5118POPC   C1A65139  15.354  18.207   6.405
 5118POPC   D2A65140  15.624  18.350   6.696
 5118POPC   C3A65141  15.432  18.428   7.031
 5118POPC   C4A65142  15.289  18.128   7.301
 5118POPC   C1B65143  14.872  18.132   6.312
 5118POPC   C2B65144  14.954  18.317   6.734
 5118POPC   C3B65145  14.820  18.216   7.154
 5118POPC   C4B65146  14.778  18.043   7.582
 5119POPC   NC365147   6.035  26.325   5.315
 5119POPC   PO465148   5.620  26.056   5.752
 5119POPC   GL165149   5.922  26.226   5.961
 5119POPC   GL265150   6.210  26.279   5.794
 5119POPC   C1A65151   5.866  26.175   6.389
 5119POPC   D2A65152   5.771  25.887   6.717
 5119POPC   C3A65153   5.693  26.201   7.027
 5119POPC   C4A65154   5.725  26.382   7.420
 5119POPC   C1B65155   6.321  26.468   6.198
 5119POPC   C2B65156   6.304  26.299   6.620
 5119POPC   C3B65157   6.181  26.076   6.992
 5119POPC   C4B65158   6.263  26.311   7.395
 5120POPC   NC365159  22.039   7.009   5.498
 5120POPC   PO465160  22.181   7.632   5.309
 5120POPC   GL165161  22.139   7.450   5.738
 5120POPC   GL265162  21.804   7.422   5.848
 5120POPC   C1A65163  22.217   7.419   6.196
 5120POPC   D2A65164  22.477   7.266   6.544
 5120POPC   C3A65165  22.393   7.299   6.963
 5120POPC   C4A65166  22.519   7.577   7.310
 5120POPC   C1B65167  21.742   7.249   6.262
 5120POPC   C2B65168  21.939   7.379   6.667
 5120POPC   C3B65169  21.931   7.453   7.118
 5120POPC   C4B65170  21.772   7.295   7.496
 5121POPC   NC365171  21.078  19.355   5.581
 5121POPC   PO465172  20.561  18.964   5.445
 5121POPC   GL165173  20.679  18.863   5.845
 5121POPC   GL265174  20.841  19.146   5.989
 5121POPC   C1A65175  20.474  18.851   6.206
 5121POPC   D2A65176  20.578  19.069   6.550
 5121POPC   C3A65177  20.576  18.878   6.911
 5121POPC   C4A65178  20.678  18.938   7.299
 5121POPC   C1B65179  20.491  19.380   6.145
 5121POPC   C2B65180  20.502  19.560   6.555
 5121POPC   C3B65181  20.633  19.400   6.965
 5121POPC   C4B65182  20.407  19.419   7.357
 5122POPC   NC365183  21.038   3.105   5.493
 5122POPC   PO465184  21.001   2.338   5.401
 5122POPC   GL165185  21.013   2.654   5.780
 5122POPC   GL265186  20.683   2.847   5.782
 5122POPC   C1A65187  20.890   2.799   6.233
 5122POPC   D2A65188  20.561   2.618   6.482
 5122POPC   C3A65189  20.628   2.616   6.947
 5122POPC   C4A65190  20.834   2.770   7.321
 5122POPC   C1B65191  20.401   3.012   6.136
 5122POPC   C2B65192  20.311   3.068   6.614
 5122POPC   C3B65193  20.435   3.087   7.083
 5122POPC   C4B65194  20.437   3.023   7.558
 5123POPC   NC365195  34.044  19.226   5.174
 5123POPC   PO465196  34.661  18.955   5.386
 5123POPC   GL165197  34.779  19.166   5.753
 5123POPC   GL265198  34.450  19.171   5.858
 5123POPC   C1A65199  34.982  19.150   6.142
 5123POPC   D2A65200  34.946  19.054   6.586
 5123POPC   C3A65201  34.650  18.777   6.775
 5123POPC   C4A65202  34.590  18.745   7.204
 5123POPC   C1B65203  34.504  19.006   6.259
 5123POPC   C2B65204  34.445  19.218   6.654
 5123POPC   C3B65205  34.314  19.166   7.072
 5123POPC   C4B65206  33.945  19.320   7.247
 5124POPC   NC365207  32.115   9.690   5.396
 5124POPC   PO465208  32.244  10.231   5.745
 5124POPC   GL165209  32.542   9.884   5.919
 5124POPC   GL265210  32.531   9.530   5.833
 5124POPC   C1A65211  32.733   9.744   6.282
 5124POPC   D2A65212  32.807   9.967   6.619
 5124POPC   C3A65213  32.419  10.061   6.810
 5124POPC   C4A65214  32.517   9.861   7.176
 5124POPC   C1B65215  32.296   9.471   6.250
 5124POPC   C2B65216  32.295   9.509   6.734
 5124POPC   C3B65217  32.095   9.555   7.171
 5124POPC   C4B65218  32.028   9.373   7.619
 5125POPC   NC365219   8.644  29.448   5.578
 5125POPC   PO465220   8.959  28.862   5.393
 5125POPC   GL165221   8.956  29.060   5.766
 5125POPC   GL265222   8.628  29.096   5.944
 5125POPC   C1A65223   9.134  29.126   6.166
 5125POPC   D2A65224   8.912  29.063   6.527
 5125POPC   C3A65225   9.139  29.011   6.864
 5125POPC   C4A65226   9.239  28.987   7.247
 5125POPC   C1B65227   8.713  29.463   6.253
 5125POPC   C2B65228   8.758  29.512   6.728
 5125POPC   C3B65229   8.771  29.228   7.120
 5125POPC   C4B65230   8.724  29.318   7.579
 5126POPC   NC365231  35.120  38.009   5.300
 5126POPC   PO465232  35.525  38.463   5.589
 5126POPC   GL165233  35.221  38.464   5.857
 5126POPC   GL265234  35.016  38.180   5.805
 5126POPC   C1A65235  35.308  38.596   6.259
 5126POPC   D2A65236  35.604  38.612   6.581
 5126POPC   C3A65237  35.520  38.795   7.001
 5126POPC   C4A65238  35.563  38.714   7.457
 5126POPC   C1B65239  35.135  38.068   6.245
 5126POPC   C2B65240  35.169  38.263   6.615
 5126POPC   C3B65241  35.406  38.291   6.954
 5126POPC   C4B65242  35.225  38.390   7.299
 5127POPC   NC365243  25.871  39.700   5.372
 5127POPC   PO465244  26.278  40.174   5.439
 5127POPC   GL165245  26.109  39.940   5.807
 5127POPC   GL265246  25.753  39.818   5.842
 5127POPC   C1A65247  26.083  40.002   6.250
 5127POPC   D2A65248  25.980  40.212   6.638
 5127POPC   C3A65249  25.859  39.997   7.001
 5127POPC   C4A65250  26.060  39.978   7.400
 5127POPC   C1B65251  25.595  40.080   6.145
 5127POPC   C2B65252  25.579  39.850   6.525
 5127POPC   C3B65253  25.558  39.613   6.892
 5127POPC   C4B65254  25.754  39.589   7.300
 5128POPC   NC365255  14.420  42.735   5.375
 5128POPC   PO465256  14.128  43.357   5.453
 5128POPC   GL165257  14.351  43.193   5.832
 5128POPC   GL265258  14.402  42.838   5.877
 5128POPC   C1A65259  14.498  43.430   6.203
 5128POPC   D2A65260  14.642  43.471   6.618
 5128POPC   C3A65261  14.570  43.245   7.054
 5128POPC   C4A65262  14.423  42.822   7.276
 5128POPC   C1B65263  14.239  42.992   6.286
 5128POPC   C2B65264  14.183  43.213   6.701
 5128POPC   C3B65265  14.044  43.149   7.159
 5128POPC   C4B65266  14.100  43.009   7.612
 5129POPC   NC365267  32.268  30.996   5.396
 5129POPC   PO465268  32.189  30.370   5.138
 5129POPC   GL165269  32.233  30.387   5.624
 5129POPC   GL265270  31.941  30.552   5.743
 5129POPC   C1A65271  32.243  30.419   6.126
 5129POPC   D2A65272  32.046  30.444   6.572
 5129POPC   C3A65273  32.255  30.580   6.994
 5129POPC   C4A65274  32.487  30.550   7.424
 5129POPC   C1B65275  31.849  30.796   6.140
 5129POPC   C2B65276  31.992  30.957   6.554
 5129POPC   C3B65277  31.785  30.948   6.975
 5129POPC   C4B65278  31.890  30.899   7.409
 5130POPC   NC365279  30.739   8.516   5.482
 5130POPC   PO465280  30.879   9.166   5.418
 5130POPC   GL165281  30.568   9.089   5.766
 5130POPC   GL265282  30.295   8.821   5.736
 5130POPC   C1A65283  30.701   9.015   6.202
 5130POPC   D2A65284  30.675   9.113   6.620
 5130POPC   C3A65285  30.884   9.167   6.977
 5130POPC   C4A65286  30.740   9.231   7.376
 5130POPC   C1B65287  30.440   8.591   6.102
 5130POPC   C2B65288  30.747   8.539   6.458
 5130POPC   C3B65289  30.716   8.668   6.896
 5130POPC   C4B65290  30.975   8.751   7.236
 5131POPC   NC365291  15.449  19.250   5.479
 5131POPC   PO465292  15.158  18.658   5.281
 5131POPC   GL165293  15.220  18.863   5.712
 5131POPC   GL265294  14.934  18.904   5.895
 5131POPC   C1A65295  15.334  19.154   6.125
 5131POPC   D2A65296  15.215  19.243   6.581
 5131POPC   C3A65297  15.391  19.082   6.984
 5131POPC   C4A65298  15.293  19.271   7.379
 5131POPC   C1B65299  15.265  18.662   6.165
 5131POPC   C2B65300  15.316  18.736   6.576
 5131POPC   C3B65301  14.985  18.816   6.846
 5131POPC   C4B65302  15.041  18.666   7.230
 5132POPC   NC365303  24.566   4.815   5.384
 5132POPC   PO465304  24.124   4.369   5.424
 5132POPC   GL165305  24.484   4.472   5.765
 5132POPC   GL265306  24.556   4.185   6.026
 5132POPC   C1A65307  24.649   4.644   6.184
 5132POPC   D2A65308  24.620   4.377   6.557
 5132POPC   C3A65309  24.729   4.541   6.982
 5132POPC   C4A65310  24.586   4.520   7.403
 5132POPC   C1B65311  24.296   4.016   6.348
 5132POPC   C2B65312  24.291   4.047   6.781
 5132POPC   C3B65313  24.518   4.090   7.129
 5132POPC   C4B65314  24.348   3.758   7.301
 5133POPC   NC365315   6.758  30.915   5.253
 5133POPC   PO465316   6.254  30.625   5.433
 5133POPC   GL165317   6.516  30.846   5.752
 5133POPC   GL265318   6.839  30.992   5.819
 5133POPC   C1A65319   6.536  30.730   6.191
 5133POPC   D2A65320   6.588  30.876   6.621
 5133POPC   C3A65321   6.481  30.550   6.912
 5133POPC   C4A65322   6.614  30.476   7.321
 5133POPC   C1B65323   7.032  30.874   6.237
 5133POPC   C2B65324   6.967  30.547   6.583
 5133POPC   C3B65325   6.979  30.726   6.999
 5133POPC   C4B65326   7.002  30.784   7.465
 5134POPC   NC365327  23.483  35.917   5.304
 5134POPC   PO465328  24.015  36.352   5.441
 5134POPC   GL165329  23.823  36.297   5.820
 5134POPC   GL265330  23.705  35.969   5.775
 5134POPC   C1A65331  23.942  36.189   6.247
 5134POPC   D2A65332  23.945  36.424   6.643
 5134POPC   C3A65333  23.873  36.210   7.050
 5134POPC   C4A65334  23.774  36.318   7.510
 5134POPC   C1B65335  23.521  35.891   6.175
 5134POPC   C2B65336  23.576  36.061   6.602
 5134POPC   C3B65337  23.376  36.049   7.008
 5134POPC   C4B65338  23.227  35.769   7.329
 5135POPC   NC365339  27.207   9.926   5.481
 5135POPC   PO465340  26.671   9.624   5.260
 5135POPC   GL165341  26.793   9.604   5.706
 5135POPC   GL265342  27.063   9.742   5.920
 5135POPC   C1A65343  26.661   9.522   6.129
 5135POPC   D2A65344  26.561   9.713   6.518
 5135POPC   C3A65345  26.654   9.468   6.850
 5135POPC   C4A65346  26.704   9.512   7.268
 5135POPC   C1B65347  26.892   9.991   6.234
 5135POPC   C2B65348  26.981  10.087   6.666
 5135POPC   C3B65349  26.928   9.926   7.084
 5135POPC   C4B65350  26.829   9.954   7.529
 5136POPC   NC365351  27.607  24.076   5.435
 5136POPC   PO465352  28.059  23.499   5.358
 5136POPC   GL165353  27.726  23.614   5.726
 5136POPC   GL265354  27.456  23.357   5.772
 5136POPC   C1A65355  27.551  23.792   6.170
 5136POPC   D2A65356  27.589  23.987   6.637
 5136POPC   C3A65357  27.410  23.856   7.086
 5136POPC   C4A65358  27.227  24.009   7.508
 5136POPC   C1B65359  27.293  23.314   6.203
 5136POPC   C2B65360  27.200  23.551   6.591
 5136POPC   C3B65361  27.189  23.385   7.014
 5136POPC   C4B65362  27.588  23.335   7.242
 5137POPC   NC365363   6.122  28.552   5.337
 5137POPC   PO465364   5.716  28.091   5.238
 5137POPC   GL165365   5.887  28.188   5.669
 5137POPC   GL265366   5.782  28.517   5.797
 5137POPC   C1A65367   6.098  28.101   6.089
 5137POPC   D2A65368   6.181  28.271   6.503
 5137POPC   C3A65369   5.909  28.302   6.842
 5137POPC   C4A65370   5.842  28.141   7.238
 5137POPC   C1B65371   6.009  28.614   6.179
 5137POPC   C2B65372   6.236  28.876   6.458
 5137POPC   C3B65373   6.225  28.762   6.879
 5137POPC   C4B65374   6.174  28.548   7.279
 5138POPC   NC365375  30.963  28.203   5.529
 5138POPC   PO465376  30.722  28.766   5.294
 5138POPC   GL165377  30.672  28.541   5.743
 5138POPC   GL265378  30.916  28.519   5.936
 5138POPC   C1A65379  30.512  28.489   6.227
 5138POPC   D2A65380  30.567  28.701   6.621
 5138POPC   C3A65381  30.729  28.535   6.991
 5138POPC   C4A65382  30.513  28.395   7.342
 5138POPC   C1B65383  30.912  28.151   6.201
 5138POPC   C2B65384  30.714  28.163   6.610
 5138POPC   C3B65385  30.856  28.040   7.023
 5138POPC   C4B65386  31.050  28.251   7.343
 5139POPC   NC365387   8.353   0.228   5.399
 5139POPC   PO465388   8.297   0.828   5.702
 5139POPC   GL165389   8.043   0.540   5.956
 5139POPC   GL265390   7.984   0.199   5.800
 5139POPC   C1A65391   8.058   0.393   6.411
 5139POPC   D2A65392   8.120   0.270   6.871
 5139POPC   C3A65393   8.105   0.612   7.134
 5139POPC   C4A65394   7.748   0.809   7.080
 5139POPC   C1B65395   8.383   0.167   6.062
 5139POPC   C2B65396   8.455   0.066   6.503
 5139POPC   C3B65397   8.626   0.221   6.890
 5139POPC   C4B65398   8.457   0.275   7.290
 5140POPC   NC365399  10.249   4.542   5.545
 5140POPC   PO465400   9.644   4.125   5.499
 5140POPC   GL165401   9.858   4.286   5.852
 5140POPC   GL265402   9.763   4.639   5.786
 5140POPC   C1A65403   9.666   4.171   6.261
 5140POPC   D2A65404   9.474   4.349   6.633
 5140POPC   C3A65405   9.675   4.349   7.021
 5140POPC   C4A65406   9.639   4.302   7.475
 5140POPC   C1B65407   9.622   4.673   6.229
 5140POPC   C2B65408   9.952   4.564   6.534
 5140POPC   C3B65409  10.135   4.609   6.935
 5140POPC   C4B65410   9.916   4.716   7.343
 5141POPC   NC365411   0.167  29.979   5.548
 5141POPC   PO465412  44.523  29.966   5.359
 5141POPC   GL165413  44.689  29.896   5.792
 5141POPC   GL265414  44.354  29.771   5.876
 5141POPC   C1A65415  44.797  30.016   6.259
 5141POPC   D2A65416  44.749  29.950   6.747
 5141POPC   C3A65417  44.924  30.176   7.153
 5141POPC   C4A65418   0.083  29.876   7.502
 5141POPC   C1B65419  44.488  29.572   6.250
 5141POPC   C2B65420  44.358  29.594   6.646
 5141POPC   C3B65421  44.278  29.801   7.017
 5141POPC   C4B65422  44.646  29.774   7.239
 5142POPC   NC365423  42.571  28.995   5.270
 5142POPC   PO465424  43.331  28.837   5.271
 5142POPC   GL165425  43.279  28.984   5.699
 5142POPC   GL265426  42.934  29.074   5.667
 5142POPC   C1A65427  43.331  28.818   6.151
 5142POPC   D2A65428  43.355  28.937   6.594
 5142POPC   C3A65429  43.152  28.825   6.995
 5142POPC   C4A65430  42.915  29.095   7.277
 5142POPC   C1B65431  42.844  28.977   6.093
 5142POPC   C2B65432  42.836  28.881   6.531
 5142POPC   C3B65433  42.620  28.835   6.904
 5142POPC   C4B65434  42.476  28.755   7.292
 5143POPC   NC365435  34.021  29.478   5.429
 5143POPC   PO465436  33.762  30.185   5.421
 5143POPC   GL165437  33.947  29.966   5.811
 5143POPC   GL265438  34.164  29.654   5.875
 5143POPC   C1A65439  33.764  30.051   6.223
 5143POPC   D2A65440  33.885  29.993   6.636
 5143POPC   C3A65441  33.615  30.061   6.955
 5143POPC   C4A65442  33.777  30.305   7.276
 5143POPC   C1B65443  33.943  29.565   6.245
 5143POPC   C2B65444  33.971  29.485   6.668
 5143POPC   C3B65445  33.810  29.606   7.027
 5143POPC   C4B65446  33.836  29.606   7.460
 5144POPC   NC365447  10.980  28.518   5.370
 5144POPC   PO465448  11.556  28.155   5.527
 5144POPC   GL165449  11.401  28.255   5.904
 5144POPC   GL265450  11.078  28.275   5.831
 5144POPC   C1A65451  11.342  28.251   6.338
 5144POPC   D2A65452  11.495  28.343   6.707
 5144POPC   C3A65453  11.403  28.057   7.001
 5144POPC   C4A65454  11.549  28.352   7.293
 5144POPC   C1B65455  10.924  28.503   6.181
 5144POPC   C2B65456  11.030  28.614   6.570
 5144POPC   C3B65457  11.036  28.424   6.944
 5144POPC   C4B65458  11.052  28.560   7.342
 5145POPC   NC365459  27.218   3.697   5.457
 5145POPC   PO465460  26.596   3.878   5.198
 5145POPC   GL165461  26.768   3.595   5.632
 5145POPC   GL265462  26.886   3.256   5.670
 5145POPC   C1A65463  26.639   3.502   6.103
 5145POPC   D2A65464  26.453   3.638   6.522
 5145POPC   C3A65465  26.669   3.523   6.901
 5145POPC   C4A65466  26.841   3.747   7.227
 5145POPC   C1B65467  27.123   3.323   6.064
 5145POPC   C2B65468  26.980   3.271   6.494
 5145POPC   C3B65469  27.157   3.326   6.901
 5145POPC   C4B65470  26.995   3.269   7.301
 5146POPC   NC365471  38.641  14.095   5.186
 5146POPC   PO465472  38.097  14.487   5.307
 5146POPC   GL165473  38.351  14.594   5.694
 5146POPC   GL265474  38.619  14.328   5.713
 5146POPC   C1A65475  38.462  14.632   6.160
 5146POPC   D2A65476  38.697  14.425   6.520
 5146POPC   C3A65477  38.580  14.522   6.937
 5146POPC   C4A65478  38.390  14.905   7.133
 5146POPC   C1B65479  38.269  14.178   5.987
 5146POPC   C2B65480  38.274  14.124   6.422
 5146POPC   C3B65481  38.252  14.122   6.875
 5146POPC   C4B65482  38.056  14.506   7.058
 5147POPC   NC365483  13.978  43.921   5.442
 5147POPC   PO465484  13.371  43.498   5.462
 5147POPC   GL165485  13.337  43.742   5.846
 5147POPC   GL265486  13.675  43.827   5.833
 5147POPC   C1A65487  13.497  43.825   6.301
 5147POPC   D2A65488  13.445  44.017   6.739
 5147POPC   C3A65489  13.484  43.953   7.165
 5147POPC   C4A65490  13.745  43.619   7.234
 5147POPC   C1B65491  13.910  44.106   6.084
 5147POPC   C2B65492  13.893  44.097   6.500
 5147POPC   C3B65493  13.920  44.059   6.917
 5147POPC   C4B65494  13.998  44.041   7.341
 5148POPC   NC365495  29.722  34.056   5.482
 5148POPC   PO465496  30.137  33.609   5.206
 5148POPC   GL165497  30.088  33.604   5.655
 5148POPC   GL265498  29.759  33.646   5.750
 5148POPC   C1A65499  30.101  33.640   6.125
 5148POPC   D2A65500  30.028  33.929   6.480
 5148POPC   C3A65501  30.285  33.903   6.835
 5148POPC   C4A65502  30.195  33.764   7.224
 5148POPC   C1B65503  29.585  33.560   6.143
 5148POPC   C2B65504  29.538  33.692   6.575
 5148POPC   C3B65505  29.762  33.798   6.951
 5148POPC   C4B65506  29.730  33.951   7.370
 5149POPC   NC365507  44.910   7.188   5.577
 5149POPC   PO465508  44.228   7.444   5.492
 5149POPC   GL165509  44.481   7.318   5.849
 5149POPC   GL265510  44.558   7.645   5.915
 5149POPC   C1A65511  44.634   7.237   6.283
 5149POPC   D2A65512  44.672   7.481   6.669
 5149POPC   C3A65513  44.898   7.293   7.025
 5149POPC   C4A65514  44.840   7.333   7.441
 5149POPC   C1B65515  44.916   7.680   6.216
 5149POPC   C2B65516   0.004   7.912   6.615
 5149POPC   C3B65517   0.029   7.818   7.076
 5149POPC   C4B65518   0.041   7.804   7.560
 5150POPC   NC365519   9.621  21.234   5.379
 5150POPC   PO465520  10.011  21.762   5.570
 5150POPC   GL165521   9.878  21.411   5.801
 5150POPC   GL265522   9.545  21.414   5.844
 5150POPC   C1A65523   9.861  21.205   6.188
 5150POPC   D2A65524   9.987  21.371   6.558
 5150POPC   C3A65525   9.949  21.115   6.934
 5150POPC   C4A65526  10.087  21.214   7.356
 5150POPC   C1B65527   9.720  21.726   6.187
 5150POPC   C2B65528   9.691  21.790   6.628
 5150POPC   C3B65529   9.847  21.599   6.991
 5150POPC   C4B65530   9.685  21.536   7.381
 5151POPC   NC365531  40.329  32.326   5.335
 5151POPC   PO465532  39.788  32.003   5.300
 5151POPC   GL165533  39.807  32.098   5.771
 5151POPC   GL265534  40.046  32.383   5.866
 5151POPC   C1A65535  39.637  32.261   6.177
 5151POPC   D2A65536  39.753  32.179   6.574
 5151POPC   C3A65537  39.673  32.322   6.985
 5151POPC   C4A65538  39.844  32.092   7.340
 5151POPC   C1B65539  40.088  32.490   6.303
 5151POPC   C2B65540  40.200  32.370   6.715
 5151POPC   C3B65541  40.159  32.451   7.154
 5151POPC   C4B65542  40.449  32.594   7.492
 5152POPC   NC365543   3.994   7.523   5.340
 5152POPC   PO465544   4.677   7.347   5.506
 5152POPC   GL165545   4.395   7.335   5.802
 5152POPC   GL265546   4.265   7.646   5.785
 5152POPC   C1A65547   4.325   7.252   6.211
 5152POPC   D2A65548   4.161   7.179   6.602
 5152POPC   C3A65549   4.386   7.319   6.945
 5152POPC   C4A65550   4.246   7.181   7.355
 5152POPC   C1B65551   4.426   7.769   6.201
 5152POPC   C2B65552   4.615   7.706   6.610
 5152POPC   C3B65553   4.768   7.727   7.021
 5152POPC   C4B65554   4.432   7.689   7.302
 5153POPC   NC365555   5.675  42.173   5.659
 5153POPC   PO465556   5.842  42.832   5.401
 5153POPC   GL165557   5.799  42.635   5.826
 5153POPC   GL265558   5.427  42.542   5.928
 5153POPC   C1A65559   6.003  42.455   6.204
 5153POPC   D2A65560   6.227  42.192   6.522
 5153POPC   C3A65561   5.985  42.117   6.892
 5153POPC   C4A65562   6.089  42.329   7.274
 5153POPC   C1B65563   5.447  42.245   6.307
 5153POPC   C2B65564   5.455  42.186   6.778
 5153POPC   C3B65565   5.633  42.451   7.111
 5153POPC   C4B65566   5.671  42.462   7.591
 5154POPC   NC365567  22.555  20.127   5.612
 5154POPC   PO465568  22.872  19.688   5.221
 5154POPC   GL165569  22.925  19.766   5.688
 5154POPC   GL265570  22.706  19.574   5.908
 5154POPC   C1A65571  22.979  19.958   6.133
 5154POPC   D2A65572  23.052  19.670   6.509
 5154POPC   C3A65573  22.839  19.679   6.899
 5154POPC   C4A65574  22.953  19.715   7.336
 5154POPC   C1B65575  22.549  19.749   6.304
 5154POPC   C2B65576  22.427  19.900   6.699
 5154POPC   C3B65577  22.467  19.909   7.167
 5154POPC   C4B65578  22.647  20.125   7.492
 5155POPC   NC365579  16.237   4.107   5.571
 5155POPC   PO465580  16.642   4.481   5.137
 5155POPC   GL165581  16.774   4.302   5.626
 5155POPC   GL265582  16.545   4.214   5.937
 5155POPC   C1A65583  16.968   4.413   6.070
 5155POPC   D2A65584  16.773   4.208   6.471
 5155POPC   C3A65585  16.646   4.487   6.827
 5155POPC   C4A65586  16.962   4.571   7.119
 5155POPC   C1B65587  16.288   4.336   6.266
 5155POPC   C2B65588  16.272   4.185   6.655
 5155POPC   C3B65589  16.537   3.996   6.950
 5155POPC   C4B65590  16.655   4.101   7.351
 5156POPC   NC365591  28.287  36.472   5.656
 5156POPC   PO465592  28.053  35.803   5.448
 5156POPC   GL165593  28.310  35.768   5.811
 5156POPC   GL265594  28.558  36.050   5.801
 5156POPC   C1A65595  28.349  35.876   6.241
 5156POPC   D2A65596  28.247  36.139   6.560
 5156POPC   C3A65597  28.090  35.941   6.927
 5156POPC   C4A65598  27.793  35.911   7.291
 5156POPC   C1B65599  28.686  36.333   6.169
 5156POPC   C2B65600  28.642  36.495   6.585
 5156POPC   C3B65601  28.489  36.313   6.971
 5156POPC   C4B65602  28.562  35.861   7.115
 5157POPC   NC365603  43.373  12.970   5.574
 5157POPC   PO465604  42.838  12.672   5.387
 5157POPC   GL165605  42.984  12.747   5.804
 5157POPC   GL265606  42.941  13.112   5.821
 5157POPC   C1A65607  42.942  12.759   6.247
 5157POPC   D2A65608  43.163  12.899   6.614
 5157POPC   C3A65609  42.980  12.715   6.930
 5157POPC   C4A65610  43.083  12.507   7.302
 5157POPC   C1B65611  43.121  13.249   6.222
 5157POPC   C2B65612  43.081  13.448   6.625
 5157POPC   C3B65613  42.972  13.250   7.007
 5157POPC   C4B65614  43.273  12.991   7.223
 5158POPC   NC365615  10.270   9.629   5.482
 5158POPC   PO465616  10.837   9.900   5.455
 5158POPC   GL165617  10.578   9.850   5.836
 5158POPC   GL265618  10.409   9.508   5.944
 5158POPC   C1A65619  10.654   9.891   6.265
 5158POPC   D2A65620  10.524   9.772   6.662
 5158POPC   C3A65621  10.659   9.889   7.063
 5158POPC   C4A65622  10.364   9.812   7.437
 5158POPC   C1B65623  10.816   9.424   6.116
 5158POPC   C2B65624  10.946   9.505   6.515
 5158POPC   C3B65625  10.792   9.395   6.946
 5158POPC   C4B65626  10.749   9.502   7.387
 5159POPC   NC365627  40.532   4.984   5.245
 5159POPC   PO465628  41.087   5.259   5.317
 5159POPC   GL165629  40.814   5.228   5.670
 5159POPC   GL265630  40.676   4.937   5.781
 5159POPC   C1A65631  40.731   5.311   6.115
 5159POPC   D2A65632  40.904   5.373   6.516
 5159POPC   C3A65633  40.695   5.128   6.852
 5159POPC   C4A65634  40.777   5.228   7.276
 5159POPC   C1B65635  40.939   4.862   6.173
 5159POPC   C2B65636  41.112   4.900   6.606
 5159POPC   C3B65637  41.058   4.816   7.052
 5159POPC   C4B65638  41.047   4.832   7.536
 5160POPC   NC365639  20.746   0.887   5.383
 5160POPC   PO465640  20.538   0.238   5.334
 5160POPC   GL165641  20.639   0.454   5.695
 5160POPC   GL265642  20.372   0.635   5.746
 5160POPC   C1A65643  20.687   0.655   6.139
 5160POPC   D2A65644  20.899   0.626   6.535
 5160POPC   C3A65645  20.639   0.486   6.894
 5160POPC   C4A65646  20.755   0.514   7.326
 5160POPC   C1B65647  20.383   0.243   6.084
 5160POPC   C2B65648  20.198  44.980   6.427
 5160POPC   C3B65649  20.203   0.120   6.880
 5160POPC   C4B65650  20.462   0.114   7.231
 5161POPC   NC365651   5.476  24.663   5.695
 5161POPC   PO465652   5.956  24.443   5.329
 5161POPC   GL165653   6.026  24.590   5.724
 5161POPC   GL265654   5.940  24.922   5.681
 5161POPC   C1A65655   5.918  24.514   6.149
 5161POPC   D2A65656   6.053  24.427   6.552
 5161POPC   C3A65657   5.758  24.482   6.886
 5161POPC   C4A65658   5.854  24.300   7.291
 5161POPC   C1B65659   5.877  25.049   6.092
 5161POPC   C2B65660   5.908  24.927   6.504
 5161POPC   C3B65661   5.934  24.986   6.927
 5161POPC   C4B65662   5.890  24.800   7.285
 5162POPC   NC365663  33.750  20.044   5.465
 5162POPC   PO465664  34.075  19.411   5.592
 5162POPC   GL165665  33.856  19.691   5.860
 5162POPC   GL265666  33.993  20.046   5.897
 5162POPC   C1A65667  33.679  19.647   6.299
 5162POPC   D2A65668  33.909  19.656   6.707
 5162POPC   C3A65669  33.655  19.695   7.082
 5162POPC   C4A65670  33.421  19.385   7.328
 5162POPC   C1B65671  34.050  19.986   6.316
 5162POPC   C2B65672  33.755  20.137   6.618
 5162POPC   C3B65673  33.993  20.094   6.947
 5162POPC   C4B65674  34.029  19.985   7.330
 5163POPC   NC365675  41.106  10.854   5.554
 5163POPC   PO465676  40.716  11.492   5.547
 5163POPC   GL165677  40.784  11.174   5.854
 5163POPC   GL265678  41.106  11.258   5.877
 5163POPC   C1A65679  40.831  11.169   6.324
 5163POPC   D2A65680  40.544  11.390   6.621
 5163POPC   C3A65681  40.570  11.237   7.046
 5163POPC   C4A65682  40.686  11.174   7.503
 5163POPC   C1B65683  40.938  11.635   6.124
 5163POPC   C2B65684  40.954  11.718   6.532
 5163POPC   C3B65685  40.966  11.502   6.907
 5163POPC   C4B65686  40.758  11.631   7.306
 5164POPC   NC365687  41.022   0.643   5.099
 5164POPC   PO465688  40.451   0.469   5.368
 5164POPC   GL165689  40.743   0.557   5.731
 5164POPC   GL265690  41.108   0.430   5.752
 5164POPC   C1A65691  40.716   0.468   6.196
 5164POPC   D2A65692  40.847   0.385   6.630
 5164POPC   C3A65693  40.638   0.385   7.013
 5164POPC   C4A65694  40.648   0.246   7.455
 5164POPC   C1B65695  41.100   0.770   6.056
 5164POPC   C2B65696  40.984   0.843   6.485
 5164POPC   C3B65697  41.023   0.753   6.950
 5164POPC   C4B65698  41.104   0.457   7.309
 5165POPC   NC365699  38.505  16.832   5.504
 5165POPC   PO465700  38.108  16.266   5.276
 5165POPC   GL165701  38.320  16.386   5.704
 5165POPC   GL265702  38.655  16.407   5.806
 5165POPC   C1A65703  38.261  16.405   6.171
 5165POPC   D2A65704  38.176  16.713   6.501
 5165POPC   C3A65705  38.291  16.555   6.902
 5165POPC   C4A65706  38.448  16.674   7.293
 5165POPC   C1B65707  38.717  16.667   6.209
 5165POPC   C2B65708  38.674  16.822   6.644
 5165POPC   C3B65709  38.448  17.066   6.960
 5165POPC   C4B65710  38.475  17.196   7.399
 5166POPC   NC365711  30.161  43.343   5.587
 5166POPC   PO465712  29.653  42.933   5.466
 5166POPC   GL165713  29.803  42.919   5.860
 5166POPC   GL265714  29.737  43.261   5.875
 5166POPC   C1A65715  30.021  42.807   6.261
 5166POPC   D2A65716  30.022  42.609   6.696
 5166POPC   C3A65717  29.858  42.956   6.984
 5166POPC   C4A65718  30.037  43.340   7.209
 5166POPC   C1B65719  29.606  43.466   6.206
 5166POPC   C2B65720  29.651  43.312   6.611
 5166POPC   C3B65721  29.559  43.414   7.009
 5166POPC   C4B65722  29.578  43.161   7.366
 5167POPC   NC365723  42.081  37.130   5.381
 5167POPC   PO465724  42.738  36.885   5.379
 5167POPC   GL165725  42.568  36.984   5.786
 5167POPC   GL265726  42.291  37.196   5.840
 5167POPC   C1A65727  42.672  37.096   6.228
 5167POPC   D2A65728  42.835  37.081   6.669
 5167POPC   C3A65729  42.487  37.113   6.992
 5167POPC   C4A65730  42.405  37.051   7.437
 5167POPC   C1B65731  41.931  37.325   6.097
 5167POPC   C2B65732  41.833  37.436   6.501
 5167POPC   C3B65733  41.827  37.505   6.915
 5167POPC   C4B65734  42.019  37.338   7.277
 5168POPC   NC365735   6.310  24.130   5.326
 5168POPC   PO465736   6.851  23.609   5.385
 5168POPC   GL165737   6.698  23.655   5.823
 5168POPC   GL265738   6.424  23.871   5.769
 5168POPC   C1A65739   6.647  23.686   6.296
 5168POPC   D2A65740   6.822  23.846   6.717
 5168POPC   C3A65741   6.874  23.710   7.188
 5168POPC   C4A65742   7.045  23.583   7.638
 5168POPC   C1B65743   6.313  24.114   6.145
 5168POPC   C2B65744   6.314  23.980   6.586
 5168POPC   C3B65745   6.338  23.810   7.003
 5168POPC   C4B65746   6.341  24.031   7.403
 5169POPC   NC365747   5.211   2.697   5.344
 5169POPC   PO465748   4.592   2.928   5.365
 5169POPC   GL165749   4.956   2.940   5.736
 5169POPC   GL265750   5.293   2.766   5.829
 5169POPC   C1A65751   4.920   2.792   6.187
 5169POPC   D2A65752   5.188   2.874   6.550
 5169POPC   C3A65753   5.022   2.757   6.957
 5169POPC   C4A65754   4.707   2.828   7.254
 5169POPC   C1B65755   5.381   2.543   6.200
 5169POPC   C2B65756   5.331   2.389   6.664
 5169POPC   C3B65757   5.389   2.436   7.117
 5169POPC   C4B65758   5.359   2.475   7.564
 5170POPC   NC365759  13.583  38.258   5.412
 5170POPC   PO465760  13.221  38.888   5.563
 5170POPC   GL165761  13.366  38.525   5.815
 5170POPC   GL265762  13.730  38.505   5.863
 5170POPC   C1A65763  13.407  38.237   6.192
 5170POPC   D2A65764  13.589  38.336   6.605
 5170POPC   C3A65765  13.420  38.568   6.958
 5170POPC   C4A65766  13.467  38.377   7.369
 5170POPC   C1B65767  13.967  38.288   6.218
 5170POPC   C2B65768  14.033  38.095   6.659
 5170POPC   C3B65769  13.891  38.301   7.080
 5170POPC   C4B65770  13.932  38.356   7.571
 5171POPC   NC365771  25.420  14.629   5.351
 5171POPC   PO465772  24.784  14.492   5.410
 5171POPC   GL165773  25.144  14.373   5.742
 5171POPC   GL265774  25.488  14.539   5.848
 5171POPC   C1A65775  25.317  14.120   6.111
 5171POPC   D2A65776  25.580  13.997   6.467
 5171POPC   C3A65777  25.446  14.212   6.855
 5171POPC   C4A65778  25.078  14.073   7.137
 5171POPC   C1B65779  25.560  14.842   6.191
 5171POPC   C2B65780  25.429  14.781   6.626
 5171POPC   C3B65781  25.494  14.689   7.063
 5171POPC   C4B65782  25.343  14.756   7.501
 5172POPC   NC365783  23.857  13.825   5.707
 5172POPC   PO465784  24.356  13.623   5.303
 5172POPC   GL165785  24.330  13.616   5.753
 5172POPC   GL265786  24.054  13.337   5.778
 5172POPC   C1A65787  24.528  13.851   6.122
 5172POPC   D2A65788  24.695  13.999   6.556
 5172POPC   C3A65789  24.626  13.799   6.994
 5172POPC   C4A65790  24.292  13.813   7.330
 5172POPC   C1B65791  24.131  13.113   6.170
 5172POPC   C2B65792  24.151  13.278   6.593
 5172POPC   C3B65793  24.204  13.422   7.013
 5172POPC   C4B65794  24.187  13.194   7.426
 5173POPC   NC365795  19.758  43.311   5.429
 5173POPC   PO465796  19.344  42.773   5.528
 5173POPC   GL165797  19.585  43.041   5.819
 5173POPC   GL265798  19.508  43.401   5.878
 5173POPC   C1A65799  19.977  42.999   6.063
 5173POPC   D2A65800  20.063  42.987   6.490
 5173POPC   C3A65801  20.086  43.072   6.928
 5173POPC   C4A65802  19.920  43.376   7.200
 5173POPC   C1B65803  19.680  43.334   6.268
 5173POPC   C2B65804  19.747  43.386   6.673
 5173POPC   C3B65805  19.458  43.441   6.940
 5173POPC   C4B65806  19.472  43.616   7.321
 5174POPC   NC365807  14.768   1.284   5.281
 5174POPC   PO465808  14.328   1.816   5.391
 5174POPC   GL165809  14.476   1.574   5.744
 5174POPC   GL265810  14.389   1.224   5.781
 5174POPC   C1A65811  14.564   1.490   6.181
 5174POPC   D2A65812  14.386   1.342   6.549
 5174POPC   C3A65813  14.609   1.329   6.907
 5174POPC   C4A65814  14.462   1.426   7.258
 5174POPC   C1B65815  14.427   0.977   6.146
 5174POPC   C2B65816  14.361   0.837   6.567
 5174POPC   C3B65817  14.228   0.972   6.966
 5174POPC   C4B65818  14.222   0.794   7.357
 5175POPC   NC365819  43.182  35.733   5.529
 5175POPC   PO465820  43.271  36.383   5.495
 5175POPC   GL165821  43.070  36.151   5.838
 5175POPC   GL265822  42.762  35.915   5.829
 5175POPC   C1A65823  43.265  35.928   6.184
 5175POPC   D2A65824  43.146  35.896   6.596
 5175POPC   C3A65825  43.222  36.256   6.854
 5175POPC   C4A65826  43.052  36.332   7.254
 5175POPC   C1B65827  42.771  36.100   6.272
 5175POPC   C2B65828  42.711  36.168   6.732
 5175POPC   C3B65829  42.895  35.909   7.054
 5175POPC   C4B65830  42.855  35.802   7.465
 5176POPC   NC365831  21.239  34.910   5.587
 5176POPC   PO465832  21.104  34.232   5.523
 5176POPC   GL165833  21.348  34.433   5.855
 5176POPC   GL265834  21.174  34.699   6.051
 5176POPC   C1A65835  21.550  34.411   6.270
 5176POPC   D2A65836  21.753  34.311   6.672
 5176POPC   C3A65837  21.550  34.407   7.061
 5176POPC   C4A65838  21.094  34.475   7.232
 5176POPC   C1B65839  21.538  34.939   6.261
 5176POPC   C2B65840  21.695  34.841   6.683
 5176POPC   C3B65841  21.349  34.860   6.988
 5176POPC   C4B65842  21.175  34.985   7.391
 5177POPC   NC365843  37.129   7.000   5.453
 5177POPC   PO465844  36.877   6.403   5.273
 5177POPC   GL165845  36.976   6.576   5.688
 5177POPC   GL265846  36.696   6.522   5.852
 5177POPC   C1A65847  37.033   6.852   6.104
 5177POPC   D2A65848  37.190   6.998   6.548
 5177POPC   C3A65849  36.949   6.953   6.976
 5177POPC   C4A65850  36.989   6.871   7.452
 5177POPC   C1B65851  37.068   6.335   6.115
 5177POPC   C2B65852  37.091   6.508   6.508
 5177POPC   C3B65853  36.816   6.477   6.833
 5177POPC   C4B65854  36.762   6.463   7.246
 5178POPC   NC365855  36.988  28.708   5.651
 5178POPC   PO465856  36.951  28.065   5.488
 5178POPC   GL165857  36.880  28.238   5.880
 5178POPC   GL265858  37.013  27.935   6.017
 5178POPC   C1A65859  36.997  28.483   6.267
 5178POPC   D2A65860  37.181  28.446   6.672
 5178POPC   C3A65861  36.903  28.588   6.937
 5178POPC   C4A65862  36.847  28.446   7.320
 5178POPC   C1B65863  36.657  28.088   6.313
 5178POPC   C2B65864  36.712  28.161   6.744
 5178POPC   C3B65865  37.035  28.043   7.062
 5178POPC   C4B65866  37.087  28.034   7.530
 5179POPC   NC365867  15.958  21.421   5.299
 5179POPC   PO465868  15.653  21.898   5.540
 5179POPC   GL165869  15.738  21.538   5.809
 5179POPC   GL265870  16.035  21.329   5.790
 5179POPC   C1A65871  15.970  21.516   6.249
 5179POPC   D2A65872  16.006  21.659   6.677
 5179POPC   C3A65873  15.863  21.444   7.041
 5179POPC   C4A65874  15.580  21.383   7.384
 5179POPC   C1B65875  16.087  21.043   6.159
 5179POPC   C2B65876  16.066  21.094   6.594
 5179POPC   C3B65877  15.995  20.947   7.001
 5179POPC   C4B65878  16.078  21.155   7.416
 5180POPC   NC365879  28.860  20.569   5.624
 5180POPC   PO465880  29.350  20.313   5.220
 5180POPC   GL165881  29.349  20.424   5.766
 5180POPC   GL265882  29.025  20.336   6.044
 5180POPC   C1A65883  29.374  20.622   6.216
 5180POPC   D2A65884  29.166  20.452   6.611
 5180POPC   C3A65885  29.198  20.664   7.022
 5180POPC   C4A65886  29.405  20.574   7.423
 5180POPC   C1B65887  28.870  20.736   6.271
 5180POPC   C2B65888  28.804  20.829   6.699
 5180POPC   C3B65889  28.707  20.511   6.978
 5180POPC   C4B65890  28.867  20.474   7.376
 5181POPC   NC365891  14.935   3.189   5.476
 5181POPC   PO465892  14.342   3.441   5.392
 5181POPC   GL165893  14.067   3.458   5.719
 5181POPC   GL265894  14.236   3.223   5.868
 5181POPC   C1A65895  14.108   3.615   6.173
 5181POPC   D2A65896  14.152   3.554   6.627
 5181POPC   C3A65897  14.044   3.771   7.019
 5181POPC   C4A65898  14.385   3.749   7.330
 5181POPC   C1B65899  14.581   3.307   6.140
 5181POPC   C2B65900  14.614   3.286   6.612
 5181POPC   C3B65901  14.415   3.339   7.026
 5181POPC   C4B65902  14.642   3.192   7.394
 5182POPC   NC365903  20.799  38.968   5.462
 5182POPC   PO465904  20.559  39.659   5.489
 5182POPC   GL165905  20.565  39.461   5.883
 5182POPC   GL265906  20.618  39.111   5.918
 5182POPC   C1A65907  20.360  39.495   6.252
 5182POPC   D2A65908  20.368  39.307   6.635
 5182POPC   C3A65909  20.640  39.504   6.859
 5182POPC   C4A65910  20.386  39.366   7.215
 5182POPC   C1B65911  20.766  39.203   6.321
 5182POPC   C2B65912  20.896  38.985   6.660
 5182POPC   C3B65913  20.694  38.987   7.006
 5182POPC   C4B65914  20.875  39.317   7.260
 5183POPC   NC365915   2.477  25.136   5.470
 5183POPC   PO465916   3.126  25.310   5.627
 5183POPC   GL165917   2.906  25.549   5.939
 5183POPC   GL265918   2.546  25.605   5.820
 5183POPC   C1A65919   2.981  25.398   6.335
 5183POPC   D2A65920   3.040  25.050   6.636
 5183POPC   C3A65921   2.883  25.080   7.046
 5183POPC   C4A65922   3.026  25.346   7.377
 5183POPC   C1B65923   2.476  25.434   6.241
 5183POPC   C2B65924   2.612  25.349   6.677
 5183POPC   C3B65925   2.612  25.510   7.095
 5183POPC   C4B65926   2.543  25.413   7.582
 5184POPC   NC365927  33.942  26.322   5.333
 5184POPC   PO465928  33.355  26.278   5.731
 5184POPC   GL165929  33.706  26.076   5.928
 5184POPC   GL265930  34.045  26.027   5.763
 5184POPC   C1A65931  33.730  25.996   6.355
 5184POPC   D2A65932  33.690  26.208   6.717
 5184POPC   C3A65933  33.664  25.954   7.047
 5184POPC   C4A65934  33.590  26.181   7.408
 5184POPC   C1B65935  34.170  26.201   6.158
 5184POPC   C2B65936  34.231  26.073   6.553
 5184POPC   C3B65937  34.384  26.192   6.938
 5184POPC   C4B65938  34.117  26.040   7.299
 5185POPC   NC365939  30.539  33.359   5.246
 5185POPC   PO465940  30.960  32.779   5.326
 5185POPC   GL165941  30.914  33.050   5.709
 5185POPC   GL265942  30.639  32.900   5.895
 5185POPC   C1A65943  30.961  33.173   6.186
 5185POPC   D2A65944  30.802  33.153   6.637
 5185POPC   C3A65945  30.987  33.092   7.038
 5185POPC   C4A65946  30.885  32.707   7.182
 5185POPC   C1B65947  30.555  32.829   6.337
 5185POPC   C2B65948  30.342  32.965   6.735
 5185POPC   C3B65949  30.483  33.055   7.137
 5185POPC   C4B65950  30.300  33.284   7.477
 5186POPC   NC365951   3.540   5.315   5.535
 5186POPC   PO465952   2.894   5.134   5.427
 5186POPC   GL165953   2.563   4.979   5.697
 5186POPC   GL265954   2.622   5.281   5.867
 5186POPC   C1A65955   2.603   4.875   6.152
 5186POPC   D2A65956   2.867   4.930   6.524
 5186POPC   C3A65957   2.647   5.085   6.876
 5186POPC   C4A65958   2.776   5.120   7.243
 5186POPC   C1B65959   2.928   5.407   6.155
 5186POPC   C2B65960   2.818   5.456   6.571
 5186POPC   C3B65961   3.107   5.311   6.884
 5186POPC   C4B65962   3.154   5.562   7.214
 5187POPC   NC365963  29.815  44.334   5.589
 5187POPC   PO465964  29.837  43.673   5.573
 5187POPC   GL165965  30.061  43.699   5.959
 5187POPC   GL265966  30.139  44.054   5.851
 5187POPC   C1A65967  30.040  43.632   6.431
 5187POPC   D2A65968  29.671  43.846   6.688
 5187POPC   C3A65969  29.644  43.891   7.162
 5187POPC   C4A65970  29.702  43.624   7.512
 5187POPC   C1B65971  29.953  44.110   6.266
 5187POPC   C2B65972  30.154  44.072   6.656
 5187POPC   C3B65973  30.112  43.788   6.978
 5187POPC   C4B65974  30.113  43.903   7.406
 5188POPC   NC365975   2.840  36.262   5.228
 5188POPC   PO465976   2.954  35.661   5.259
 5188POPC   GL165977   2.780  35.982   5.655
 5188POPC   GL265978   2.695  36.369   5.708
 5188POPC   C1A65979   2.638  36.021   6.110
 5188POPC   D2A65980   2.713  35.842   6.527
 5188POPC   C3A65981   2.618  36.001   6.917
 5188POPC   C4A65982   2.736  35.788   7.302
 5188POPC   C1B65983   2.952  36.430   6.080
 5188POPC   C2B65984   3.091  36.211   6.455
 5188POPC   C3B65985   3.125  36.273   6.889
 5188POPC   C4B65986   2.869  36.283   7.249
 5189POPC   NC365987  36.103  31.992   5.566
 5189POPC   PO465988  36.058  31.376   5.449
 5189POPC   GL165989  36.023  31.429   5.894
 5189POPC   GL265990  35.960  31.758   5.964
 5189POPC   C1A65991  35.891  31.419   6.331
 5189POPC   D2A65992  36.265  31.435   6.558
 5189POPC   C3A65993  36.277  31.416   6.990
 5189POPC   C4A65994  36.479  31.274   7.383
 5189POPC   C1B65995  35.994  31.949   6.329
 5189POPC   C2B65996  35.937  31.796   6.709
 5189POPC   C3B65997  36.096  31.874   7.063
 5189POPC   C4B65998  36.264  31.738   7.418
 5190POPC   NC365999  17.804  40.144   5.561
 5190POPC   PO466000  17.094  39.933   5.507
 5190POPC   GL166001  17.374  40.027   5.830
 5190POPC   GL266002  17.601  39.715   5.824
 5190POPC   C1A66003  17.416  39.977   6.262
 5190POPC   D2A66004  17.218  39.804   6.610
 5190POPC   C3A66005  17.335  39.857   7.030
 5190POPC   C4A66006  17.649  40.086   7.138
 5190POPC   C1B66007  17.907  39.780   6.156
 5190POPC   C2B66008  17.832  39.932   6.590
 5190POPC   C3B66009  17.782  39.618   6.920
 5190POPC   C4B66010  17.842  39.658   7.341
 5191POPC   NC366011  30.596  30.936   5.446
 5191POPC   PO466012  30.569  30.323   5.426
 5191POPC   GL166013  30.764  30.520   5.802
 5191POPC   GL266014  30.948  30.840   5.846
 5191POPC   C1A66015  30.806  30.525   6.269
 5191POPC   D2A66016  31.010  30.802   6.573
 5191POPC   C3A66017  30.866  30.830   6.991
 5191POPC   C4A66018  30.548  30.521   7.138
 5191POPC   C1B66019  30.734  31.032   6.210
 5191POPC   C2B66020  30.649  31.179   6.636
 5191POPC   C3B66021  30.416  31.109   7.009
 5191POPC   C4B66022  30.441  30.972   7.431
 5192POPC   NC366023   9.659  20.447   5.491
 5192POPC   PO466024  10.042  21.071   5.468
 5192POPC   GL166025   9.752  20.875   5.798
 5192POPC   GL266026   9.381  20.903   5.734
 5192POPC   C1A66027   9.669  20.521   6.135
 5192POPC   D2A66028   9.731  20.304   6.539
 5192POPC   C3A66029   9.585  20.288   6.975
 5192POPC   C4A66030   9.715  20.487   7.372
 5192POPC   C1B66031   9.413  20.949   6.186
 5192POPC   C2B66032   9.718  20.852   6.541
 5192POPC   C3B66033   9.556  20.798   6.957
 5192POPC   C4B66034   9.618  21.013   7.335
 5193POPC   NC366035  41.698   8.922   5.381
 5193POPC   PO466036  41.184   9.346   5.547
 5193POPC   GL166037  41.210   9.083   5.886
 5193POPC   GL266038  41.350   8.821   5.735
 5193POPC   C1A66039  41.299   9.136   6.328
 5193POPC   D2A66040  41.564   8.902   6.614
 5193POPC   C3A66041  41.590   9.072   7.031
 5193POPC   C4A66042  41.783   8.975   7.412
 5193POPC   C1B66043  41.378   8.658   6.150
 5193POPC   C2B66044  41.150   8.609   6.512
 5193POPC   C3B66045  41.301   8.579   6.926
 5193POPC   C4B66046  41.160   8.613   7.309
 5194POPC   NC366047  30.905  35.901   5.226
 5194POPC   PO466048  30.533  36.377   5.457
 5194POPC   GL166049  30.631  36.031   5.754
 5194POPC   GL266050  31.022  36.047   5.723
 5194POPC   C1A66051  30.495  35.976   6.215
 5194POPC   D2A66052  30.443  36.120   6.671
 5194POPC   C3A66053  30.527  35.890   7.085
 5194POPC   C4A66054  30.596  36.056   7.509
 5194POPC   C1B66055  30.918  36.253   6.112
 5194POPC   C2B66056  31.005  36.112   6.517
 5194POPC   C3B66057  30.908  36.189   6.931
 5194POPC   C4B66058  31.095  36.032   7.293
 5195POPC   NC366059  33.351  34.133   5.594
 5195POPC   PO466060  32.768  33.917   5.243
 5195POPC   GL166061  32.906  33.880   5.662
 5195POPC   GL266062  32.612  33.996   5.777
 5195POPC   C1A66063  33.112  33.664   6.033
 5195POPC   D2A66064  33.122  33.451   6.444
 5195POPC   C3A66065  33.045  33.699   6.821
 5195POPC   C4A66066  33.072  33.928   7.228
 5195POPC   C1B66067  32.663  33.893   6.209
 5195POPC   C2B66068  32.552  33.887   6.637
 5195POPC   C3B66069  32.550  33.626   6.978
 5195POPC   C4B66070  32.529  33.860   7.322
 5196POPC   NC366071  29.872  38.638   5.688
 5196POPC   PO466072  30.421  38.390   5.274
 5196POPC   GL166073  30.186  38.258   5.717
 5196POPC   GL266074  29.799  38.152   5.830
 5196POPC   C1A66075  30.107  38.315   6.196
 5196POPC   D2A66076  30.263  38.449   6.634
 5196POPC   C3A66077  30.081  38.359   7.059
 5196POPC   C4A66078  29.941  38.656   7.372
 5196POPC   C1B66079  29.565  38.329   6.184
 5196POPC   C2B66080  29.748  38.519   6.533
 5196POPC   C3B66081  29.656  38.613   6.935
 5196POPC   C4B66082  29.562  38.334   7.236
 5197POPC   NC366083  15.653  38.491   5.104
 5197POPC   PO466084  14.972  38.437   5.424
 5197POPC   GL166085  14.996  38.683   5.822
 5197POPC   GL266086  15.235  38.965   5.752
 5197POPC   C1A66087  15.120  38.536   6.276
 5197POPC   D2A66088  14.991  38.418   6.731
 5197POPC   C3A66089  15.249  38.411   7.118
 5197POPC   C4A66090  15.041  38.304   7.528
 5197POPC   C1B66091  15.123  39.043   6.187
 5197POPC   C2B66092  15.310  38.946   6.593
 5197POPC   C3B66093  15.098  38.883   6.966
 5197POPC   C4B66094  15.115  38.810   7.411
 5198POPC   NC366095  19.192   5.578   5.383
 5198POPC   PO466096  19.366   6.230   5.388
 5198POPC   GL166097  19.200   5.958   5.760
 5198POPC   GL266098  18.870   5.837   5.792
 5198POPC   C1A66099  19.179   5.775   6.201
 5198POPC   D2A66100  19.330   5.769   6.634
 5198POPC   C3A66101  19.148   5.999   6.984
 5198POPC   C4A66102  19.126   5.712   7.273
 5198POPC   C1B66103  18.845   6.148   6.144
 5198POPC   C2B66104  18.835   5.936   6.567
 5198POPC   C3B66105  18.686   5.759   6.971
 5198POPC   C4B66106  18.436   6.022   7.243
 5199POPC   NC366107  35.863   1.083   5.130
 5199POPC   PO466108  35.311   0.886   5.358
 5199POPC   GL166109  35.442   1.265   5.638
 5199POPC   GL266110  35.294   1.573   5.801
 5199POPC   C1A66111  35.485   1.246   6.125
 5199POPC   D2A66112  35.374   1.142   6.550
 5199POPC   C3A66113  35.458   1.310   6.974
 5199POPC   C4A66114  35.672   1.184   7.336
 5199POPC   C1B66115  35.097   1.562   6.227
 5199POPC   C2B66116  35.183   1.630   6.649
 5199POPC   C3B66117  35.030   1.554   7.061
 5199POPC   C4B66118  35.298   1.553   7.443
 5200POPC   NC366119  28.982  12.583   5.603
 5200POPC   PO466120  29.325  11.985   5.551
 5200POPC   GL166121  29.252  12.291   5.922
 5200POPC   GL266122  28.976  12.076   6.018
 5200POPC   C1A66123  28.956  12.543   6.254
 5200POPC   D2A66124  28.880  12.689   6.693
 5200POPC   C3A66125  29.141  12.391   6.949
 5200POPC   C4A66126  29.070  12.175   7.302
 5200POPC   C1B66127  29.390  11.876   6.185
 5200POPC   C2B66128  29.497  12.103   6.524
 5200POPC   C3B66129  29.067  12.079   6.582
 5200POPC   C4B66130  28.959  11.848   6.943
 5201POPC   NC366131  44.110  30.109   5.166
 5201POPC   PO466132  43.590  29.759   5.370
 5201POPC   GL166133  43.887  29.911   5.690
 5201POPC   GL266134  43.644  29.792   5.893
 5201POPC   C1A66135  43.915  30.119   6.153
 5201POPC   D2A66136  43.628  30.219   6.544
 5201POPC   C3A66137  43.842  30.192   6.987
 5201POPC   C4A66138  43.928  30.238   7.455
 5201POPC   C1B66139  43.925  29.598   6.217
 5201POPC   C2B66140  43.893  29.793   6.636
 5201POPC   C3B66141  43.762  29.679   7.058
 5201POPC   C4B66142  44.030  29.438   7.316
 5202POPC   NC366143  28.127  28.484   5.160
 5202POPC   PO466144  27.511  28.332   5.500
 5202POPC   GL166145  27.642  28.356   5.892
 5202POPC   GL266146  27.895  28.132   5.807
 5202POPC   C1A66147  27.490  28.396   6.298
 5202POPC   D2A66148  27.464  28.620   6.657
 5202POPC   C3A66149  27.382  28.365   7.001
 5202POPC   C4A66150  27.550  28.438   7.377
 5202POPC   C1B66151  27.954  28.150   6.275
 5202POPC   C2B66152  27.776  28.160   6.718
 5202POPC   C3B66153  27.833  28.061   7.169
 5202POPC   C4B66154  27.806  28.084   7.629
 5203POPC   NC366155  26.116   7.549   5.462
 5203POPC   PO466156  25.912   6.902   5.308
 5203POPC   GL166157  25.855   7.153   5.726
 5203POPC   GL266158  26.179   7.253   5.897
 5203POPC   C1A66159  25.771   7.279   6.182
 5203POPC   D2A66160  26.030   7.178   6.551
 5203POPC   C3A66161  25.903   7.323   6.938
 5203POPC   C4A66162  25.922   7.570   7.285
 5203POPC   C1B66163  26.195   7.603   6.234
 5203POPC   C2B66164  26.299   7.692   6.689
 5203POPC   C3B66165  26.401   7.485   7.083
 5203POPC   C4B66166  26.212   7.114   7.270
 5204POPC   NC366167  41.177  40.081   5.311
 5204POPC   PO466168  41.709  39.797   5.486
 5204POPC   GL166169  41.416  39.932   5.792
 5204POPC   GL266170  41.141  39.700   5.737
 5204POPC   C1A66171  41.550  40.056   6.221
 5204POPC   D2A66172  41.822  39.998   6.609
 5204POPC   C3A66173  41.809  40.248   7.006
 5204POPC   C4A66174  41.756  39.882   7.274
 5204POPC   C1B66175  41.308  39.592   6.159
 5204POPC   C2B66176  41.317  39.760   6.578
 5204POPC   C3B66177  41.376  40.002   6.930
 5204POPC   C4B66178  41.273  40.131   7.341
 5205POPC   NC366179   2.372  26.206   5.461
 5205POPC   PO466180   1.685  26.171   5.363
 5205POPC   GL166181   1.721  26.189   5.786
 5205POPC   GL266182   2.013  26.004   5.783
 5205POPC   C1A66183   1.686  26.002   6.202
 5205POPC   D2A66184   1.888  26.082   6.592
 5205POPC   C3A66185   1.650  26.088   6.955
 5205POPC   C4A66186   1.869  26.152   7.315
 5205POPC   C1B66187   2.209  26.065   6.188
 5205POPC   C2B66188   2.314  25.793   6.571
 5205POPC   C3B66189   2.135  25.824   6.987
 5205POPC   C4B66190   2.316  25.833   7.391
 5206POPC   NC366191  20.678  13.031   5.477
 5206POPC   PO466192  20.560  12.456   5.184
 5206POPC   GL166193  20.404  12.662   5.684
 5206POPC   GL266194  20.240  13.000   5.726
 5206POPC   C1A66195  20.611  12.761   6.152
 5206POPC   D2A66196  20.946  12.797   6.510
 5206POPC   C3A66197  20.775  12.956   6.932
 5206POPC   C4A66198  20.403  12.850   7.187
 5206POPC   C1B66199  20.124  12.882   6.149
 5206POPC   C2B66200  20.312  12.900   6.570
 5206POPC   C3B66201  20.279  13.247   6.836
 5206POPC   C4B66202  20.307  13.384   7.244
 5207POPC   NC366203   9.796  15.308   5.019
 5207POPC   PO466204   9.724  14.735   5.409
 5207POPC   GL166205   9.604  15.100   5.683
 5207POPC   GL266206   9.925  15.301   5.766
 5207POPC   C1A66207   9.439  15.240   6.097
 5207POPC   D2A66208   9.413  15.040   6.531
 5207POPC   C3A66209   9.408  15.260   6.926
 5207POPC   C4A66210   9.387  15.251   7.368
 5207POPC   C1B66211   9.977  15.509   6.187
 5207POPC   C2B66212   9.865  15.408   6.635
 5207POPC   C3B66213   9.979  15.172   7.031
 5207POPC   C4B66214  10.242  15.379   7.364
 5208POPC   NC366215  21.694  20.496   5.263
 5208POPC   PO466216  21.210  20.908   5.429
 5208POPC   GL166217  21.218  20.690   5.839
 5208POPC   GL266218  21.444  20.399   5.804
 5208POPC   C1A66219  21.218  20.643   6.291
 5208POPC   D2A66220  21.276  20.929   6.634
 5208POPC   C3A66221  21.221  20.812   7.060
 5208POPC   C4A66222  21.598  20.724   7.245
 5208POPC   C1B66223  21.648  20.386   6.212
 5208POPC   C2B66224  21.653  20.531   6.668
 5208POPC   C3B66225  21.653  20.278   7.054
 5208POPC   C4B66226  21.651  20.306   7.508
 5209POPC   NC366227  34.955  13.322   5.701
 5209POPC   PO466228  34.779  13.827   5.300
 5209POPC   GL166229  34.514  13.614   5.732
 5209POPC   GL266230  34.273  13.846   5.887
 5209POPC   C1A66231  34.555  13.397   6.186
 5209POPC   D2A66232  34.817  13.239   6.492
 5209POPC   C3A66233  34.661  13.464   6.834
 5209POPC   C4A66234  34.690  13.481   7.273
 5209POPC   C1B66235  34.508  13.888   6.275
 5209POPC   C2B66236  34.705  13.972   6.661
 5209POPC   C3B66237  34.507  13.921   7.032
 5209POPC   C4B66238  34.677  14.003   7.400
 5210POPC   NC366239  44.018  15.619   5.378
 5210POPC   PO466240  43.529  15.054   5.443
 5210POPC   GL166241  43.684  14.996   5.888
 5210POPC   GL266242  43.476  14.686   5.910
 5210POPC   C1A66243  43.907  15.224   6.273
 5210POPC   D2A66244  43.849  15.508   6.664
 5210POPC   C3A66245  43.839  15.343   7.116
 5210POPC   C4A66246  43.723  15.392   7.594
 5210POPC   C1B66247  43.672  14.731   6.327
 5210POPC   C2B66248  43.773  14.970   6.708
 5210POPC   C3B66249  43.902  14.819   7.090
 5210POPC   C4B66250  43.960  14.957   7.490
 5211POPC   NC366251  10.995   4.477   5.487
 5211POPC   PO466252  10.415   4.100   5.497
 5211POPC   GL166253  10.516   4.268   5.868
 5211POPC   GL266254  10.687   4.567   5.887
 5211POPC   C1A66255  10.307   4.333   6.249
 5211POPC   D2A66256  10.489   4.278   6.650
 5211POPC   C3A66257  10.378   4.043   7.016
 5211POPC   C4A66258  10.104   4.252   7.284
 5211POPC   C1B66259  10.820   4.411   6.273
 5211POPC   C2B66260  11.045   4.337   6.625
 5211POPC   C3B66261  10.849   4.256   6.999
 5211POPC   C4B66262  10.559   4.481   7.205
 5212POPC   NC366263  25.772  42.057   5.187
 5212POPC   PO466264  25.851  42.660   5.373
 5212POPC   GL166265  25.949  42.347   5.700
 5212POPC   GL266266  26.184  42.079   5.722
 5212POPC   C1A66267  25.935  42.334   6.149
 5212POPC   D2A66268  26.091  42.412   6.558
 5212POPC   C3A66269  25.847  42.258   6.890
 5212POPC   C4A66270  25.966  42.346   7.315
 5212POPC   C1B66271  26.111  41.846   6.109
 5212POPC   C2B66272  25.938  41.922   6.485
 5212POPC   C3B66273  26.007  41.776   6.878
 5212POPC   C4B66274  25.855  41.860   7.240
 5213POPC   NC366275   1.770  11.692   5.477
 5213POPC   PO466276   1.979  12.261   5.184
 5213POPC   GL166277   2.019  12.205   5.736
 5213POPC   GL266278   1.747  12.316   6.013
 5213POPC   C1A66279   1.985  11.851   6.093
 5213POPC   D2A66280   1.898  11.738   6.531
 5213POPC   C3A66281   2.033  12.044   6.833
 5213POPC   C4A66282   2.171  11.973   7.233
 5213POPC   C1B66283   1.523  12.048   6.331
 5213POPC   C2B66284   1.490  12.004   6.786
 5213POPC   C3B66285   1.652  11.983   7.182
 5213POPC   C4B66286   1.776  12.206   7.507
 5214POPC   NC366287  33.017   4.163   5.464
 5214POPC   PO466288  32.938   4.871   5.413
 5214POPC   GL166289  32.946   4.608   5.765
 5214POPC   GL266290  33.305   4.552   5.722
 5214POPC   C1A66291  32.887   4.325   6.150
 5214POPC   D2A66292  33.051   4.046   6.491
 5214POPC   C3A66293  33.092   4.133   6.920
 5214POPC   C4A66294  32.807   4.356   7.120
 5214POPC   C1B66295  33.269   4.705   6.155
 5214POPC   C2B66296  33.194   4.534   6.553
 5214POPC   C3B66297  33.283   4.645   6.957
 5214POPC   C4B66298  33.297   5.016   7.202
 5215POPC   NC366299  24.619  25.532   5.573
 5215POPC   PO466300  24.093  25.127   5.576
 5215POPC   GL166301  24.296  24.998   5.959
 5215POPC   GL266302  24.646  25.050   5.851
 5215POPC   C1A66303  24.271  25.085   6.423
 5215POPC   D2A66304  24.350  25.475   6.655
 5215POPC   C3A66305  24.384  25.380   7.087
 5215POPC   C4A66306  24.316  25.045   7.366
 5215POPC   C1B66307  24.672  25.338   6.216
 5215POPC   C2B66308  24.864  25.329   6.615
 5215POPC   C3B66309  25.010  25.479   6.986
 5215POPC   C4B66310  24.782  25.614   7.303
 5216POPC   NC366311  34.862  41.339   5.476
 5216POPC   PO466312  34.365  41.726   5.562
 5216POPC   GL166313  34.612  41.589   5.885
 5216POPC   GL266314  34.821  41.851   5.911
 5216POPC   C1A66315  34.654  41.470   6.323
 5216POPC   D2A66316  34.731  41.633   6.745
 5216POPC   C3A66317  34.480  41.520   7.115
 5216POPC   C4A66318  34.614  41.516   7.540
 5216POPC   C1B66319  34.977  41.900   6.347
 5216POPC   C2B66320  35.025  42.056   6.784
 5216POPC   C3B66321  34.856  41.881   7.182
 5216POPC   C4B66322  34.994  41.860   7.638
 5217POPC   NC366323  40.143  29.803   5.547
 5217POPC   PO466324  39.662  30.023   5.262
 5217POPC   GL166325  39.724  30.061   5.713
 5217POPC   GL266326  39.764  29.716   5.893
 5217POPC   C1A66327  39.939  30.139   6.109
 5217POPC   D2A66328  39.853  30.141   6.557
 5217POPC   C3A66329  40.097  29.899   6.866
 5217POPC   C4A66330  40.396  30.128   7.126
 5217POPC   C1B66331  39.984  29.669   6.320
 5217POPC   C2B66332  39.817  29.474   6.710
 5217POPC   C3B66333  39.671  29.479   7.171
 5217POPC   C4B66334  39.849  29.416   7.611
 5218POPC   NC366335  35.616   6.499   5.407
 5218POPC   PO466336  34.988   6.803   5.352
 5218POPC   GL166337  35.190   6.804   5.769
 5218POPC   GL266338  34.943   7.009   5.953
 5218POPC   C1A66339  35.513   6.642   6.128
 5218POPC   D2A66340  35.531   6.375   6.555
 5218POPC   C3A66341  35.533   6.538   7.032
 5218POPC   C4A66342  35.578   6.417   7.525
 5218POPC   C1B66343  35.026   6.655   6.237
 5218POPC   C2B66344  35.205   6.786   6.618
 5218POPC   C3B66345  35.016   6.771   6.997
 5218POPC   C4B66346  35.134   6.567   7.351
 5219POPC   NC366347  21.852  39.424   5.690
 5219POPC   PO466348  22.315  39.148   5.252
 5219POPC   GL166349  22.370  39.330   5.745
 5219POPC   GL266350  22.266  39.124   5.964
 5219POPC   C1A66351  22.222  39.543   6.211
 5219POPC   D2A66352  22.417  39.515   6.655
 5219POPC   C3A66353  22.238  39.237   6.973
 5219POPC   C4A66354  21.877  39.381   7.197
 5219POPC   C1B66355  22.278  39.068   6.428
 5219POPC   C2B66356  21.925  38.891   6.691
 5219POPC   C3B66357  21.723  38.902   7.095
 5219POPC   C4B66358  22.028  38.947   7.417
 5220POPC   NC366359  41.487  13.149   5.404
 5220POPC   PO466360  41.330  12.505   5.409
 5220POPC   GL166361  41.388  12.658   5.846
 5220POPC   GL266362  41.545  13.000   5.887
 5220POPC   C1A66363  41.577  12.646   6.258
 5220POPC   D2A66364  41.651  12.873   6.628
 5220POPC   C3A66365  41.620  12.692   7.027
 5220POPC   C4A66366  41.827  12.894   7.351
 5220POPC   C1B66367  41.333  13.129   6.252
 5220POPC   C2B66368  41.324  13.272   6.652
 5220POPC   C3B66369  41.538  13.211   7.032
 5220POPC   C4B66370  41.362  13.189   7.410
 5221POPC   NC366371  33.592  11.479   5.266
 5221POPC   PO466372  33.998  10.882   5.348
 5221POPC   GL166373  33.921  11.195   5.722
 5221POPC   GL266374  33.550  11.279   5.798
 5221POPC   C1A66375  33.877  11.379   6.171
 5221POPC   D2A66376  33.627  11.514   6.549
 5221POPC   C3A66377  33.765  11.427   6.991
 5221POPC   C4A66378  33.798  11.316   7.461
 5221POPC   C1B66379  33.495  11.044   6.237
 5221POPC   C2B66380  33.495  11.068   6.723
 5221POPC   C3B66381  33.490  11.022   7.165
 5221POPC   C4B66382  33.437  10.901   7.575
 5222POPC   NC366383  15.119  20.047   5.500
 5222POPC   PO466384  14.994  19.313   5.503
 5222POPC   GL166385  15.074  19.638   5.849
 5222POPC   GL266386  15.027  20.010   5.995
 5222POPC   C1A66387  15.227  19.640   6.267
 5222POPC   D2A66388  15.497  19.747   6.578
 5222POPC   C3A66389  15.380  19.588   6.943
 5222POPC   C4A66390  15.338  19.769   7.320
 5222POPC   C1B66391  14.733  19.776   6.242
 5222POPC   C2B66392  14.874  19.670   6.625
 5222POPC   C3B66393  14.949  19.863   6.990
 5222POPC   C4B66394  14.848  19.677   7.362
 5223POPC   NC366395  43.315  22.840   5.403
 5223POPC   PO466396  42.682  23.001   5.533
 5223POPC   GL166397  43.019  22.923   5.828
 5223POPC   GL266398  43.306  23.163   5.813
 5223POPC   C1A66399  42.976  22.854   6.258
 5223POPC   D2A66400  42.704  23.039   6.559
 5223POPC   C3A66401  42.902  22.939   6.912
 5223POPC   C4A66402  42.856  22.843   7.322
 5223POPC   C1B66403  43.408  23.157   6.260
 5223POPC   C2B66404  43.343  22.851   6.618
 5223POPC   C3B66405  43.356  22.781   7.070
 5223POPC   C4B66406  43.268  23.175   7.284
 5224POPC   NC366407  35.733  32.395   4.940
 5224POPC   PO466408  36.269  32.395   5.438
 5224POPC   GL166409  36.383  32.297   5.846
 5224POPC   GL266410  36.531  31.939   5.834
 5224POPC   C1A66411  36.173  32.434   6.225
 5224POPC   D2A66412  36.255  32.584   6.626
 5224POPC   C3A66413  35.998  32.372   6.924
 5224POPC   C4A66414  36.152  32.492   7.321
 5224POPC   C1B66415  36.509  32.043   6.262
 5224POPC   C2B66416  36.448  31.944   6.682
 5224POPC   C3B66417  36.497  32.187   7.057
 5224POPC   C4B66418  36.529  32.178   7.526
 5225POPC   NC366419   1.353  28.999   5.482
 5225POPC   PO466420   1.461  29.531   5.873
 5225POPC   GL166421   1.140  29.229   5.916
 5225POPC   GL266422   1.012  28.885   5.862
 5225POPC   C1A66423   1.031  29.194   6.327
 5225POPC   D2A66424   1.288  29.487   6.582
 5225POPC   C3A66425   1.083  29.488   6.957
 5225POPC   C4A66426   1.276  29.298   7.296
 5225POPC   C1B66427   1.389  28.860   6.155
 5225POPC   C2B66428   1.434  28.971   6.589
 5225POPC   C3B66429   1.322  28.896   7.003
 5225POPC   C4B66430   1.518  28.876   7.434
 5226POPC   NC366431   2.586  20.914   5.463
 5226POPC   PO466432   2.839  21.526   5.614
 5226POPC   GL166433   2.769  21.163   5.875
 5226POPC   GL266434   2.955  21.363   6.099
 5226POPC   C1A66435   2.809  20.918   6.272
 5226POPC   D2A66436   2.643  21.145   6.618
 5226POPC   C3A66437   2.832  21.177   7.003
 5226POPC   C4A66438   2.556  21.225   7.328
 5226POPC   C1B66439   2.704  21.739   6.207
 5226POPC   C2B66440   2.719  21.925   6.566
 5226POPC   C3B66441   2.871  21.698   6.891
 5226POPC   C4B66442   2.751  21.780   7.278
 5227POPC   NC366443   1.708  44.973   5.388
 5227POPC   PO466444   1.972  44.394   5.352
 5227POPC   GL166445   1.974  44.530   5.796
 5227POPC   GL266446   2.080  44.289   6.000
 5227POPC   C1A66447   1.980  44.720   6.257
 5227POPC   D2A66448   2.002  44.602   6.682
 5227POPC   C3A66449   1.858  44.830   7.029
 5227POPC   C4A66450   2.101   0.018   7.344
 5227POPC   C1B66451   2.346  44.384   6.319
 5227POPC   C2B66452   2.357  44.239   6.708
 5227POPC   C3B66453   2.256  44.450   7.095
 5227POPC   C4B66454   1.911  44.431   7.326
 5228POPC   NC366455  12.561  12.005   5.488
 5228POPC   PO466456  11.887  12.314   5.451
 5228POPC   GL166457  11.726  12.312   5.876
 5228POPC   GL266458  11.988  12.047   5.906
 5228POPC   C1A66459  11.813  12.255   6.323
 5228POPC   D2A66460  11.727  11.867   6.573
 5228POPC   C3A66461  12.032  11.860   6.871
 5228POPC   C4A66462  11.887  12.041   7.205
 5228POPC   C1B66463  12.161  11.872   6.277
 5228POPC   C2B66464  12.182  11.508   6.515
 5228POPC   C3B66465  12.413  11.494   6.895
 5228POPC   C4B66466  12.521  11.708   7.229
 5229POPC   NC366467  14.973  40.295   5.446
 5229POPC   PO466468  15.469  39.810   5.456
 5229POPC   GL166469  15.226  39.983   5.807
 5229POPC   GL266470  15.458  39.853   6.055
 5229POPC   C1A66471  15.084  40.159   6.214
 5229POPC   D2A66472  15.045  39.902   6.588
 5229POPC   C3A66473  15.036  40.079   7.006
 5229POPC   C4A66474  14.822  40.239   7.334
 5229POPC   C1B66475  15.578  39.963   6.430
 5229POPC   C2B66476  15.490  39.859   6.827
 5229POPC   C3B66477  15.401  39.794   7.215
 5229POPC   C4B66478  15.378  39.782   7.662
 5230POPC   NC366479  36.656  17.637   5.089
 5230POPC   PO466480  37.187  17.400   5.480
 5230POPC   GL166481  36.921  17.373   5.828
 5230POPC   GL266482  36.767  17.675   5.832
 5230POPC   C1A66483  36.897  17.425   6.258
 5230POPC   D2A66484  36.735  17.177   6.554
 5230POPC   C3A66485  36.881  17.323   6.943
 5230POPC   C4A66486  36.662  17.288   7.317
 5230POPC   C1B66487  36.643  17.864   6.228
 5230POPC   C2B66488  36.644  17.671   6.630
 5230POPC   C3B66489  36.561  17.739   7.039
 5230POPC   C4B66490  36.792  17.802   7.405
 5231POPC   NC366491  42.992  44.020   5.091
 5231POPC   PO466492  42.840  43.437   5.373
 5231POPC   GL166493  43.192  43.662   5.664
 5231POPC   GL266494  43.227  44.047   5.641
 5231POPC   C1A66495  43.301  43.797   6.106
 5231POPC   D2A66496  43.201  43.700   6.541
 5231POPC   C3A66497  43.315  43.784   6.954
 5231POPC   C4A66498  42.976  43.931   7.182
 5231POPC   C1B66499  43.262  44.285   6.046
 5231POPC   C2B66500  43.263  44.261   6.520
 5231POPC   C3B66501  43.479  44.269   6.949
 5231POPC   C4B66502  43.231  44.322   7.318
 5232POPC   NC366503   2.872  12.974   5.418
 5232POPC   PO466504   2.403  12.571   5.501
 5232POPC   GL166505   2.576  12.800   5.843
 5232POPC   GL266506   2.590  13.159   5.901
 5232POPC   C1A66507   2.704  12.556   6.196
 5232POPC   D2A66508   2.679  12.339   6.577
 5232POPC   C3A66509   2.876  12.653   6.811
 5232POPC   C4A66510   2.927  12.749   7.220
 5232POPC   C1B66511   2.659  13.130   6.387
 5232POPC   C2B66512   2.452  12.988   6.810
 5232POPC   C3B66513   2.459  12.951   7.284
 5232POPC   C4B66514   2.466  13.282   7.636
 5233POPC   NC366515  25.012  37.180   5.551
 5233POPC   PO466516  25.555  36.862   5.474
 5233POPC   GL166517  25.372  37.001   5.866
 5233POPC   GL266518  25.248  37.340   5.973
 5233POPC   C1A66519  25.218  36.835   6.255
 5233POPC   D2A66520  25.480  36.869   6.603
 5233POPC   C3A66521  25.411  36.707   6.994
 5233POPC   C4A66522  25.450  37.016   7.295
 5233POPC   C1B66523  24.858  37.217   6.197
 5233POPC   C2B66524  24.732  37.115   6.602
 5233POPC   C3B66525  25.023  37.153   6.951
 5233POPC   C4B66526  24.924  37.003   7.363
 5234POPC   NC366527  17.959   5.851   5.622
 5234POPC   PO466528  18.635   5.767   5.332
 5234POPC   GL166529  18.413   6.080   5.696
 5234POPC   GL266530  18.071   6.329   5.631
 5234POPC   C1A66531  18.357   6.001   6.171
 5234POPC   D2A66532  18.393   5.655   6.507
 5234POPC   C3A66533  18.160   5.768   6.875
 5234POPC   C4A66534  17.936   5.923   7.226
 5234POPC   C1B66535  17.982   6.358   6.104
 5234POPC   C2B66536  18.080   6.260   6.546
 5234POPC   C3B66537  17.969   6.372   6.978
 5234POPC   C4B66538  18.120   6.372   7.429
 5235POPC   NC366539  14.383  25.635   5.419
 5235POPC   PO466540  14.422  24.961   5.474
 5235POPC   GL166541  14.362  25.280   5.815
 5235POPC   GL266542  14.685  25.413   5.883
 5235POPC   C1A66543  14.356  25.334   6.311
 5235POPC   D2A66544  14.496  25.160   6.758
 5235POPC   C3A66545  14.161  25.061   7.130
 5235POPC   C4A66546  13.896  25.311   7.476
 5235POPC   C1B66547  14.867  25.334   6.324
 5235POPC   C2B66548  14.939  25.477   6.761
 5235POPC   C3B66549  14.676  25.458   7.145
 5235POPC   C4B66550  14.204  25.569   7.150
 5236POPC   NC366551   3.214  36.739   5.367
 5236POPC   PO466552   3.680  36.308   5.537
 5236POPC   GL166553   3.591  36.733   5.718
 5236POPC   GL266554   3.272  36.856   5.899
 5236POPC   C1A66555   3.775  36.946   6.070
 5236POPC   D2A66556   3.910  36.926   6.517
 5236POPC   C3A66557   3.765  36.962   6.932
 5236POPC   C4A66558   3.762  36.797   7.353
 5236POPC   C1B66559   3.362  36.925   6.375
 5236POPC   C2B66560   3.286  36.826   6.827
 5236POPC   C3B66561   3.334  37.133   7.153
 5236POPC   C4B66562   3.600  37.285   7.464
 5237POPC   NC366563  19.257  16.499   5.308
 5237POPC   PO466564  18.942  16.987   5.644
 5237POPC   GL166565  18.916  16.644   5.885
 5237POPC   GL266566  19.291  16.583   5.808
 5237POPC   C1A66567  18.826  16.590   6.327
 5237POPC   D2A66568  19.152  16.394   6.563
 5237POPC   C3A66569  19.299  16.671   6.860
 5237POPC   C4A66570  19.158  16.540   7.228
 5237POPC   C1B66571  19.275  16.776   6.207
 5237POPC   C2B66572  19.100  17.050   6.528
 5237POPC   C3B66573  18.946  17.052   6.950
 5237POPC   C4B66574  19.049  17.004   7.373
 5238POPC   NC366575  39.656  25.403   5.351
 5238POPC   PO466576  39.154  25.007   5.402
 5238POPC   GL166577  39.189  25.212   5.827
 5238POPC   GL266578  39.444  25.511   5.854
 5238POPC   C1A66579  39.098  25.154   6.288
 5238POPC   D2A66580  38.912  25.138   6.710
 5238POPC   C3A66581  39.158  25.011   7.049
 5238POPC   C4A66582  39.245  25.203   7.419
 5238POPC   C1B66583  39.383  25.578   6.319
 5238POPC   C2B66584  39.330  25.469   6.779
 5238POPC   C3B66585  39.246  25.657   7.180
 5238POPC   C4B66586  39.378  25.626   7.632
 5239POPC   NC366587  15.380  16.445   5.673
 5239POPC   PO466588  14.828  16.798   5.404
 5239POPC   GL166589  14.957  16.780   5.839
 5239POPC   GL266590  15.291  16.961   5.770
 5239POPC   C1A66591  14.840  16.760   6.316
 5239POPC   D2A66592  15.100  16.890   6.674
 5239POPC   C3A66593  15.037  16.852   7.058
 5239POPC   C4A66594  14.744  16.522   7.083
 5239POPC   C1B66595  15.336  16.878   6.215
 5239POPC   C2B66596  15.600  16.904   6.604
 5239POPC   C3B66597  15.591  16.940   7.054
 5239POPC   C4B66598  15.342  17.040   7.452
 5240POPC   NC366599   6.513  12.669   5.505
 5240POPC   PO466600   6.940  13.171   5.519
 5240POPC   GL166601   6.643  13.050   5.857
 5240POPC   GL266602   6.763  12.738   5.955
 5240POPC   C1A66603   6.490  12.952   6.314
 5240POPC   D2A66604   6.420  13.197   6.679
 5240POPC   C3A66605   6.567  13.037   7.069
 5240POPC   C4A66606   6.425  12.653   7.206
 5240POPC   C1B66607   6.962  13.108   6.247
 5240POPC   C2B66608   6.912  13.009   6.667
 5240POPC   C3B66609   6.890  12.599   6.869
 5240POPC   C4B66610   6.874  12.411   7.284
 5241POPC   NC366611  17.881  41.670   5.600
 5241POPC   PO466612  17.465  41.390   5.142
 5241POPC   GL166613  17.453  41.163   5.688
 5241POPC   GL266614  17.168  41.194   5.901
 5241POPC   C1A66615  17.726  41.238   6.093
 5241POPC   D2A66616  17.646  41.345   6.549
 5241POPC   C3A66617  17.786  41.658   6.858
 5241POPC   C4A66618  17.648  41.759   7.300
 5241POPC   C1B66619  17.228  41.402   6.259
 5241POPC   C2B66620  17.243  41.663   6.598
 5241POPC   C3B66621  17.311  41.516   6.995
 5241POPC   C4B66622  17.037  41.426   7.309
 5242POPC   NC366623  11.367  20.727   5.459
 5242POPC   PO466624  10.880  20.239   5.479
 5242POPC   GL166625  11.033  20.524   5.809
 5242POPC   GL266626  11.351  20.328   5.806
 5242POPC   C1A66627  11.239  20.690   6.217
 5242POPC   D2A66628  11.215  20.986   6.608
 5242POPC   C3A66629  11.186  20.841   7.062
 5242POPC   C4A66630  10.977  20.563   7.358
 5242POPC   C1B66631  11.650  20.223   6.123
 5242POPC   C2B66632  11.678  20.247   6.544
 5242POPC   C3B66633  11.600  20.496   6.898
 5242POPC   C4B66634  11.581  20.312   7.292
 5243POPC   NC366635  24.312  44.199   5.128
 5243POPC   PO466636  24.733  43.691   5.400
 5243POPC   GL166637  24.514  43.752   5.790
 5243POPC   GL266638  24.139  43.646   5.803
 5243POPC   C1A66639  24.634  43.864   6.212
 5243POPC   D2A66640  24.741  44.088   6.556
 5243POPC   C3A66641  24.525  43.902   6.873
 5243POPC   C4A66642  24.708  43.827   7.240
 5243POPC   C1B66643  24.326  43.442   6.154
 5243POPC   C2B66644  24.517  43.491   6.550
 5243POPC   C3B66645  24.482  43.405   6.964
 5243POPC   C4B66646  24.289  43.543   7.344
 5244POPC   NC366647  33.174  38.355   5.499
 5244POPC   PO466648  33.849  38.579   5.428
 5244POPC   GL166649  33.910  38.601   5.857
 5244POPC   GL266650  33.561  38.487   5.869
 5244POPC   C1A66651  33.840  38.403   6.285
 5244POPC   D2A66652  33.624  38.509   6.640
 5244POPC   C3A66653  33.894  38.513   6.983
 5244POPC   C4A66654  34.060  38.544   7.392
 5244POPC   C1B66655  33.330  38.331   6.224
 5244POPC   C2B66656  33.479  38.012   6.507
 5244POPC   C3B66657  33.603  38.071   6.917
 5244POPC   C4B66658  33.677  38.205   7.326
 5245POPC   NC366659   7.934  31.030   5.547
 5245POPC   PO466660   8.610  30.884   5.507
 5245POPC   GL166661   8.356  30.861   5.893
 5245POPC   GL266662   8.073  30.656   5.888
 5245POPC   C1A66663   8.343  30.699   6.335
 5245POPC   D2A66664   8.500  30.672   6.741
 5245POPC   C3A66665   8.307  30.539   7.045
 5245POPC   C4A66666   8.357  30.901   7.236
 5245POPC   C1B66667   7.836  30.725   6.249
 5245POPC   C2B66668   7.934  30.641   6.674
 5245POPC   C3B66669   7.902  30.860   7.051
 5245POPC   C4B66670   7.930  30.719   7.495
 5246POPC   NC366671  31.307  13.057   5.587
 5246POPC   PO466672  31.708  12.568   5.251
 5246POPC   GL166673  31.813  12.725   5.711
 5246POPC   GL266674  31.745  13.070   5.814
 5246POPC   C1A66675  31.734  12.698   6.183
 5246POPC   D2A66676  31.373  12.733   6.470
 5246POPC   C3A66677  31.523  12.649   6.891
 5246POPC   C4A66678  31.213  12.709   7.214
 5246POPC   C1B66679  31.499  13.159   6.196
 5246POPC   C2B66680  31.590  13.156   6.633
 5246POPC   C3B66681  31.444  13.136   7.025
 5246POPC   C4B66682  31.648  12.921   7.346
 5247POPC   NC366683   0.252  18.197   5.497
 5247POPC   PO466684   0.444  18.904   5.449
 5247POPC   GL166685   0.336  19.140   5.800
 5247POPC   GL266686   0.035  18.936   5.870
 5247POPC   C1A66687   0.495  19.100   6.199
 5247POPC   D2A66688   0.542  18.895   6.607
 5247POPC   C3A66689   0.509  19.204   6.937
 5247POPC   C4A66690   0.649  19.203   7.348
 5247POPC   C1B66691   0.089  18.821   6.325
 5247POPC   C2B66692   0.041  18.903   6.779
 5247POPC   C3B66693   0.150  18.943   7.221
 5247POPC   C4B66694   0.044  18.862   7.690
 5248POPC   NC366695  21.072  31.483   5.357
 5248POPC   PO466696  21.786  31.631   5.484
 5248POPC   GL166697  21.585  31.423   5.849
 5248POPC   GL266698  21.260  31.262   5.779
 5248POPC   C1A66699  21.541  31.519   6.303
 5248POPC   D2A66700  21.344  31.762   6.643
 5248POPC   C3A66701  21.402  31.550   7.047
 5248POPC   C4A66702  21.837  31.430   7.198
 5248POPC   C1B66703  21.275  31.093   6.202
 5248POPC   C2B66704  21.217  31.231   6.649
 5248POPC   C3B66705  21.059  31.176   7.068
 5248POPC   C4B66706  21.230  31.211   7.486
 5249POPC   NC366707   2.204   8.716   5.246
 5249POPC   PO466708   2.092   9.388   5.272
 5249POPC   GL166709   2.028   9.175   5.689
 5249POPC   GL266710   2.126   8.848   5.781
 5249POPC   C1A66711   1.989   9.140   6.197
 5249POPC   D2A66712   2.083   9.380   6.601
 5249POPC   C3A66713   2.041   9.146   7.005
 5249POPC   C4A66714   1.660   8.918   7.131
 5249POPC   C1B66715   2.364   8.774   6.213
 5249POPC   C2B66716   2.337   8.859   6.679
 5249POPC   C3B66717   2.467   8.834   7.109
 5249POPC   C4B66718   2.110   8.702   7.307
 5250POPC   NC366719  23.683  21.694   5.462
 5250POPC   PO466720  23.372  21.141   5.121
 5250POPC   GL166721  23.416  21.177   5.626
 5250POPC   GL266722  23.485  21.455   5.876
 5250POPC   C1A66723  23.340  20.997   6.077
 5250POPC   D2A66724  23.421  20.843   6.532
 5250POPC   C3A66725  23.674  21.033   6.886
 5250POPC   C4A66726  23.528  21.349   7.229
 5250POPC   C1B66727  23.599  21.394   6.330
 5250POPC   C2B66728  23.655  21.524   6.768
 5250POPC   C3B66729  23.869  21.709   7.149
 5250POPC   C4B66730  23.995  21.410   7.486
 5251POPC   NC366731  33.393   1.123   5.490
 5251POPC   PO466732  32.730   0.963   5.619
 5251POPC   GL166733  33.086   1.034   5.917
 5251POPC   GL266734  33.467   0.902   5.930
 5251POPC   C1A66735  33.163   1.403   6.184
 5251POPC   D2A66736  33.295   1.608   6.580
 5251POPC   C3A66737  33.094   1.458   6.934
 5251POPC   C4A66738  32.834   1.357   7.275
 5251POPC   C1B66739  33.354   0.910   6.343
 5251POPC   C2B66740  33.017   1.082   6.574
 5251POPC   C3B66741  32.916   0.958   6.971
 5251POPC   C4B66742  33.237   1.051   7.229
 5252POPC   NC366743  31.718  38.397   5.292
 5252POPC   PO466744  31.208  38.694   5.221
 5252POPC   GL166745  31.336  38.415   5.611
 5252POPC   GL266746  31.576  38.601   5.767
 5252POPC   C1A66747  31.442  38.178   6.026
 5252POPC   D2A66748  31.359  38.184   6.494
 5252POPC   C3A66749  31.405  38.353   6.917
 5252POPC   C4A66750  31.299  38.769   7.081
 5252POPC   C1B66751  31.735  38.580   6.205
 5252POPC   C2B66752  31.861  38.519   6.630
 5252POPC   C3B66753  31.811  38.651   7.049
 5252POPC   C4B66754  31.665  38.392   7.410
 5253POPC   NC366755  33.372  43.599   5.534
 5253POPC   PO466756  34.052  43.872   5.443
 5253POPC   GL166757  34.033  43.885   5.854
 5253POPC   GL266758  33.996  44.238   5.948
 5253POPC   C1A66759  33.936  43.602   6.188
 5253POPC   D2A66760  33.555  43.628   6.468
 5253POPC   C3A66761  33.615  43.739   6.906
 5253POPC   C4A66762  33.903  43.628   7.248
 5253POPC   C1B66763  33.810  44.074   6.308
 5253POPC   C2B66764  34.006  43.872   6.640
 5253POPC   C3B66765  34.076  44.054   7.048
 5253POPC   C4B66766  33.763  44.242   7.300
 5254POPC   NC366767  15.807  18.056   5.518
 5254POPC   PO466768  16.100  18.730   5.492
 5254POPC   GL166769  15.910  18.461   5.786
 5254POPC   GL266770  16.090  18.150   5.917
 5254POPC   C1A66771  15.748  18.415   6.191
 5254POPC   D2A66772  16.042  18.194   6.454
 5254POPC   C3A66773  16.007  18.101   6.896
 5254POPC   C4A66774  15.911  18.404   7.226
 5254POPC   C1B66775  15.749  17.904   6.135
 5254POPC   C2B66776  15.656  17.806   6.548
 5254POPC   C3B66777  15.549  17.824   6.962
 5254POPC   C4B66778  15.770  17.931   7.320
 5255POPC   NC366779  20.925  24.215   5.437
 5255POPC   PO466780  20.595  24.865   5.383
 5255POPC   GL166781  20.634  24.559   5.731
 5255POPC   GL266782  20.988  24.545   5.821
 5255POPC   C1A66783  20.637  24.420   6.189
 5255POPC   D2A66784  20.921  24.427   6.576
 5255POPC   C3A66785  20.735  24.542   6.986
 5255POPC   C4A66786  20.331  24.703   7.109
 5255POPC   C1B66787  21.084  24.178   6.113
 5255POPC   C2B66788  21.133  23.971   6.537
 5255POPC   C3B66789  21.078  24.115   7.004
 5255POPC   C4B66790  20.739  24.113   7.292
 5256POPC   NC366791  32.324  37.983   5.127
 5256POPC   PO466792  32.194  37.451   5.598
 5256POPC   GL166793  32.279  37.601   6.019
 5256POPC   GL266794  32.508  37.888   6.042
 5256POPC   C1A66795  32.297  37.607   6.432
 5256POPC   D2A66796  32.057  37.574   6.733
 5256POPC   C3A66797  32.256  37.766   7.034
 5256POPC   C4A66798  32.126  37.592   7.379
 5256POPC   C1B66799  32.706  37.918   6.407
 5256POPC   C2B66800  32.606  38.069   6.769
 5256POPC   C3B66801  32.719  37.985   7.142
 5256POPC   C4B66802  32.520  37.937   7.472
 5257POPC   NC366803   1.293  19.650   5.424
 5257POPC   PO466804   1.568  20.206   5.490
 5257POPC   GL166805   1.257  20.108   5.851
 5257POPC   GL266806   1.081  19.783   5.859
 5257POPC   C1A66807   1.265  19.999   6.280
 5257POPC   D2A66808   1.265  19.769   6.655
 5257POPC   C3A66809   1.285  19.957   7.055
 5257POPC   C4A66810   1.369  19.736   7.434
 5257POPC   C1B66811   0.922  19.423   6.097
 5257POPC   C2B66812   0.856  19.301   6.528
 5257POPC   C3B66813   0.991  19.412   6.926
 5257POPC   C4B66814   0.903  19.626   7.311
 5258POPC   NC366815  24.734  33.767   5.672
 5258POPC   PO466816  25.279  33.712   5.259
 5258POPC   GL166817  25.232  33.658   5.681
 5258POPC   GL266818  25.179  34.002   5.805
 5258POPC   C1A66819  25.235  33.622   6.136
 5258POPC   D2A66820  25.119  33.464   6.553
 5258POPC   C3A66821  25.252  33.670   6.937
 5258POPC   C4A66822  25.531  33.567   7.269
 5258POPC   C1B66823  24.966  34.045   6.224
 5258POPC   C2B66824  24.979  34.272   6.600
 5258POPC   C3B66825  25.272  34.193   6.926
 5258POPC   C4B66826  25.152  34.067   7.315
 5259POPC   NC366827  18.640  41.026   5.509
 5259POPC   PO466828  18.586  40.392   5.546
 5259POPC   GL166829  18.341  40.610   5.892
 5259POPC   GL266830  18.380  40.974   5.941
 5259POPC   C1A66831  17.993  40.779   6.200
 5259POPC   D2A66832  17.846  40.871   6.622
 5259POPC   C3A66833  18.158  40.974   6.928
 5259POPC   C4A66834  18.341  40.679   7.224
 5259POPC   C1B66835  18.550  41.179   6.316
 5259POPC   C2B66836  18.618  41.233   6.759
 5259POPC   C3B66837  18.531  41.178   7.220
 5259POPC   C4B66838  18.197  41.024   7.574
 5260POPC   NC366839   9.638  34.334   5.442
 5260POPC   PO466840  10.147  34.728   5.475
 5260POPC   GL166841   9.850  34.621   5.823
 5260POPC   GL266842   9.829  34.270   5.900
 5260POPC   C1A66843   9.663  34.635   6.259
 5260POPC   D2A66844   9.688  34.936   6.622
 5260POPC   C3A66845   9.763  34.779   7.041
 5260POPC   C4A66846   9.535  34.430   7.181
 5260POPC   C1B66847  10.008  34.272   6.294
 5260POPC   C2B66848   9.889  34.432   6.703
 5260POPC   C3B66849  10.111  34.373   7.104
 5260POPC   C4B66850   9.978  34.539   7.489
 5261POPC   NC366851  32.154  44.097   5.294
 5261POPC   PO466852  32.656  43.618   5.379
 5261POPC   GL166853  32.507  43.963   5.650
 5261POPC   GL266854  32.181  43.842   5.756
 5261POPC   C1A66855  32.416  44.161   6.075
 5261POPC   D2A66856  32.293  43.961   6.491
 5261POPC   C3A66857  32.328  44.097   6.936
 5261POPC   C4A66858  32.415  44.080   7.410
 5261POPC   C1B66859  31.922  43.900   6.144
 5261POPC   C2B66860  31.781  44.052   6.559
 5261POPC   C3B66861  31.845  44.344   6.897
 5261POPC   C4B66862  31.887  44.164   7.295
 5262POPC   NC366863  10.948  11.334   5.436
 5262POPC   PO466864  11.561  11.070   5.551
 5262POPC   GL166865  11.242  11.195   5.895
 5262POPC   GL266866  11.062  11.531   5.898
 5262POPC   C1A66867  11.224  11.025   6.330
 5262POPC   D2A66868  11.317  10.908   6.767
 5262POPC   C3A66869  11.371  11.174   7.118
 5262POPC   C4A66870  11.412  11.094   7.574
 5262POPC   C1B66871  11.262  11.549   6.321
 5262POPC   C2B66872  11.341  11.564   6.765
 5262POPC   C3B66873  11.025  11.598   7.073
 5262POPC   C4B66874  11.012  11.384   7.466
 5263POPC   NC366875  18.379  24.077   5.467
 5263POPC   PO466876  18.158  23.374   5.516
 5263POPC   GL166877  18.135  23.755   5.779
 5263POPC   GL266878  18.496  23.816   5.884
 5263POPC   C1A66879  18.026  23.871   6.199
 5263POPC   D2A66880  18.003  23.589   6.543
 5263POPC   C3A66881  17.985  23.673   6.983
 5263POPC   C4A66882  18.303  23.461   7.247
 5263POPC   C1B66883  18.470  24.108   6.232
 5263POPC   C2B66884  18.300  24.015   6.652
 5263POPC   C3B66885  18.461  23.927   7.051
 5263POPC   C4B66886  18.510  23.903   7.476
 5264POPC   NC366887  41.026  16.329   5.546
 5264POPC   PO466888  40.885  16.940   5.561
 5264POPC   GL166889  40.753  16.805   5.930
 5264POPC   GL266890  40.742  16.487   5.931
 5264POPC   C1A66891  40.894  16.705   6.344
 5264POPC   D2A66892  40.635  16.625   6.683
 5264POPC   C3A66893  40.802  16.836   7.031
 5264POPC   C4A66894  41.039  16.932   7.398
 5264POPC   C1B66895  40.519  16.298   6.265
 5264POPC   C2B66896  40.583  16.123   6.694
 5264POPC   C3B66897  40.684  16.269   7.110
 5264POPC   C4B66898  40.517  16.578   7.379
 5265POPC   NC366899   8.803  16.394   5.534
 5265POPC   PO466900   9.073  17.011   5.424
 5265POPC   GL166901   8.783  16.950   5.759
 5265POPC   GL266902   9.022  16.786   5.996
 5265POPC   C1A66903   8.716  17.196   6.150
 5265POPC   D2A66904   8.960  17.150   6.539
 5265POPC   C3A66905   8.829  16.901   6.901
 5265POPC   C4A66906   8.965  16.967   7.327
 5265POPC   C1B66907   8.889  16.604   6.413
 5265POPC   C2B66908   8.875  16.366   6.820
 5265POPC   C3B66909   8.892  16.437   7.271
 5265POPC   C4B66910   9.219  16.552   7.609
 5266POPC   NC366911  38.440   5.237   5.343
 5266POPC   PO466912  37.964   5.716   5.514
 5266POPC   GL166913  38.153   5.321   5.747
 5266POPC   GL266914  38.593   5.316   5.817
 5266POPC   C1A66915  38.259   5.154   6.147
 5266POPC   D2A66916  38.359   4.826   6.459
 5266POPC   C3A66917  38.267   4.932   6.885
 5266POPC   C4A66918  38.343   5.025   7.321
 5266POPC   C1B66919  38.749   5.010   6.152
 5266POPC   C2B66920  38.937   4.936   6.539
 5266POPC   C3B66921  38.777   4.928   6.957
 5266POPC   C4B66922  38.869   4.728   7.370
 5267POPC   NC366923  19.182  43.612   5.318
 5267POPC   PO466924  19.349  44.274   5.213
 5267POPC   GL166925  19.270  44.076   5.681
 5267POPC   GL266926  19.078  43.767   5.776
 5267POPC   C1A66927  19.264  44.037   6.142
 5267POPC   D2A66928  19.065  43.961   6.530
 5267POPC   C3A66929  19.314  43.944   6.901
 5267POPC   C4A66930  19.171  44.030   7.331
 5267POPC   C1B66931  18.950  43.564   6.154
 5267POPC   C2B66932  19.041  43.454   6.571
 5267POPC   C3B66933  18.951  43.576   6.989
 5267POPC   C4B66934  18.838  43.522   7.407
 5268POPC   NC366935  39.955  25.699   5.760
 5268POPC   PO466936  40.083  25.144   5.411
 5268POPC   GL166937  39.995  25.160   5.850
 5268POPC   GL266938  39.670  25.052   5.734
 5268POPC   C1A66939  40.037  25.390   6.290
 5268POPC   D2A66940  39.838  25.461   6.685
 5268POPC   C3A66941  40.128  25.282   6.975
 5268POPC   C4A66942  40.200  25.357   7.396
 5268POPC   C1B66943  39.602  25.146   6.183
 5268POPC   C2B66944  39.541  25.027   6.619
 5268POPC   C3B66945  39.654  25.118   7.049
 5268POPC   C4B66946  39.743  25.132   7.474
 5269POPC   NC366947   7.671  29.226   5.512
 5269POPC   PO466948   7.000  29.190   5.640
 5269POPC   GL166949   7.302  29.020   5.937
 5269POPC   GL266950   7.664  29.090   5.992
 5269POPC   C1A66951   7.308  29.106   6.346
 5269POPC   D2A66952   7.582  28.990   6.652
 5269POPC   C3A66953   7.326  29.038   7.005
 5269POPC   C4A66954   7.439  29.117   7.396
 5269POPC   C1B66955   7.697  29.449   6.267
 5269POPC   C2B66956   7.848  29.494   6.676
 5269POPC   C3B66957   7.815  29.272   7.075
 5269POPC   C4B66958   7.841  29.376   7.537
 5270POPC   NC366959  19.362  35.023   5.503
 5270POPC   PO466960  19.930  35.450   5.416
 5270POPC   GL166961  19.736  35.368   5.812
 5270POPC   GL266962  19.412  35.455   5.832
 5270POPC   C1A66963  19.936  35.295   6.206
 5270POPC   D2A66964  19.908  35.484   6.592
 5270POPC   C3A66965  20.061  35.236   6.882
 5270POPC   C4A66966  19.996  35.122   7.276
 5270POPC   C1B66967  19.442  35.188   6.203
 5270POPC   C2B66968  19.585  35.059   6.615
 5270POPC   C3B66969  19.546  35.290   6.984
 5270POPC   C4B66970  19.168  35.246   7.233
 5271POPC   NC366971   3.493   2.545   5.385
 5271POPC   PO466972   3.274   1.889   5.167
 5271POPC   GL166973   3.380   2.022   5.627
 5271POPC   GL266974   3.196   2.300   5.754
 5271POPC   C1A66975   3.444   1.919   6.113
 5271POPC   D2A66976   3.722   1.937   6.509
 5271POPC   C3A66977   3.506   1.836   6.922
 5271POPC   C4A66978   3.607   1.949   7.357
 5271POPC   C1B66979   3.097   2.347   6.213
 5271POPC   C2B66980   3.301   2.257   6.643
 5271POPC   C3B66981   3.284   2.272   7.114
 5271POPC   C4B66982   3.115   2.008   7.475
 5272POPC   NC366983   0.415  29.033   5.342
 5272POPC   PO466984   1.005  29.309   5.422
 5272POPC   GL166985   0.666  29.319   5.756
 5272POPC   GL266986   0.451  29.022   5.842
 5272POPC   C1A66987   0.519  29.348   6.210
 5272POPC   D2A66988   0.310  29.137   6.542
 5272POPC   C3A66989   0.497  29.238   6.928
 5272POPC   C4A66990   0.804  29.125   7.246
 5272POPC   C1B66991   0.176  28.802   6.144
 5272POPC   C2B66992  44.946  28.796   6.557
 5272POPC   C3B66993   0.167  28.766   6.955
 5272POPC   C4B66994   0.296  28.982   7.328
 5273POPC   NC366995   6.883   4.093   5.324
 5273POPC   PO466996   6.406   4.519   5.290
 5273POPC   GL166997   6.651   4.382   5.705
 5273POPC   GL266998   6.845   4.076   5.829
 5273POPC   C1A66999   6.573   4.316   6.173
 5273POPC   D2A67000   6.392   4.448   6.580
 5273POPC   C3A67001   6.568   4.388   6.999
 5273POPC   C4A67002   6.402   4.416   7.435
 5273POPC   C1B67003   7.054   3.890   6.206
 5273POPC   C2B67004   6.911   3.707   6.591
 5273POPC   C3B67005   6.867   3.979   6.949
 5273POPC   C4B67006   6.752   4.010   7.409
 5274POPC   NC367007  15.370  37.838   5.169
 5274POPC   PO467008  14.868  37.458   5.248
 5274POPC   GL167009  15.226  37.544   5.566
 5274POPC   GL267010  15.187  37.908   5.665
 5274POPC   C1A67011  15.334  37.469   6.012
 5274POPC   D2A67012  15.102  37.326   6.402
 5274POPC   C3A67013  15.223  37.391   6.852
 5274POPC   C4A67014  14.970  37.423   7.227
 5274POPC   C1B67015  15.308  38.003   6.117
 5274POPC   C2B67016  15.319  37.861   6.578
 5274POPC   C3B67017  15.248  37.901   7.043
 5274POPC   C4B67018  15.464  38.064   7.428
 5275POPC   NC367019  39.803   5.716   5.397
 5275POPC   PO467020  40.428   5.429   5.404
 5275POPC   GL167021  40.215   5.843   5.676
 5275POPC   GL267022  39.914   5.759   5.903
 5275POPC   C1A67023  40.235   6.093   6.109
 5275POPC   D2A67024  40.025   5.874   6.478
 5275POPC   C3A67025  40.204   5.841   6.906
 5275POPC   C4A67026  40.314   5.627   7.293
 5275POPC   C1B67027  39.710   6.135   6.129
 5275POPC   C2B67028  39.628   6.196   6.584
 5275POPC   C3B67029  39.709   5.936   6.989
 5275POPC   C4B67030  39.870   5.897   7.441
 5276POPC   NC367031   3.266  38.382   5.310
 5276POPC   PO467032   3.872  38.149   5.460
 5276POPC   GL167033   3.485  38.203   5.746
 5276POPC   GL267034   3.299  38.549   5.786
 5276POPC   C1A67035   3.501  38.310   6.187
 5276POPC   D2A67036   3.784  38.413   6.518
 5276POPC   C3A67037   3.612  38.599   6.869
 5276POPC   C4A67038   3.772  38.533   7.296
 5276POPC   C1B67039   3.354  38.832   6.147
 5276POPC   C2B67040   3.121  38.796   6.513
 5276POPC   C3B67041   3.132  38.865   6.908
 5276POPC   C4B67042   3.248  38.574   7.223
 5277POPC   NC367043  35.612  27.594   5.292
 5277POPC   PO467044  35.086  27.772   5.292
 5277POPC   GL167045  35.293  27.664   5.718
 5277POPC   GL267046  35.386  27.314   5.746
 5277POPC   C1A67047  35.433  27.612   6.174
 5277POPC   D2A67048  35.418  27.425   6.599
 5277POPC   C3A67049  35.470  27.645   7.006
 5277POPC   C4A67050  35.736  27.454   7.298
 5277POPC   C1B67051  35.142  27.167   6.129
 5277POPC   C2B67052  34.919  27.204   6.559
 5277POPC   C3B67053  35.042  27.381   6.942
 5277POPC   C4B67054  35.192  27.375   7.359
 5278POPC   NC367055  13.026  19.242   5.479
 5278POPC   PO467056  12.436  19.223   5.407
 5278POPC   GL167057  12.638  19.056   5.810
 5278POPC   GL267058  13.002  18.991   5.927
 5278POPC   C1A67059  12.701  19.249   6.228
 5278POPC   D2A67060  12.771  18.944   6.545
 5278POPC   C3A67061  12.626  19.096   6.919
 5278POPC   C4A67062  12.818  19.263   7.246
 5278POPC   C1B67063  13.344  18.896   6.202
 5278POPC   C2B67064  13.292  18.796   6.612
 5278POPC   C3B67065  13.115  18.862   6.986
 5278POPC   C4B67066  12.789  18.704   7.192
 5279POPC   NC367067   3.595   6.984   5.501
 5279POPC   PO467068   3.895   6.350   5.353
 5279POPC   GL167069   3.769   6.597   5.746
 5279POPC   GL267070   3.416   6.601   5.816
 5279POPC   C1A67071   3.723   6.815   6.185
 5279POPC   D2A67072   3.452   6.597   6.526
 5279POPC   C3A67073   3.507   6.451   6.978
 5279POPC   C4A67074   3.428   6.464   7.445
 5279POPC   C1B67075   3.223   6.910   6.150
 5279POPC   C2B67076   3.195   7.036   6.588
 5279POPC   C3B67077   3.461   6.974   6.972
 5279POPC   C4B67078   3.447   6.954   7.424
 5280POPC   NC367079  39.754  35.652   5.590
 5280POPC   PO467080  39.106  35.446   5.551
 5280POPC   GL167081  39.217  35.441   5.924
 5280POPC   GL267082  39.380  35.747   5.923
 5280POPC   C1A67083  39.034  35.342   6.301
 5280POPC   D2A67084  38.805  35.449   6.623
 5280POPC   C3A67085  38.956  35.167   6.879
 5280POPC   C4A67086  39.173  35.238   7.197
 5280POPC   C1B67087  39.504  35.548   6.331
 5280POPC   C2B67088  39.473  35.369   6.757
 5280POPC   C3B67089  39.493  35.631   7.156
 5280POPC   C4B67090  39.517  35.602   7.613
 5281POPC   NC367091  26.715  24.041   5.746
 5281POPC   PO467092  26.781  24.420   5.234
 5281POPC   GL167093  26.856  24.547   5.692
 5281POPC   GL267094  27.210  24.560   5.832
 5281POPC   C1A67095  26.795  24.567   6.145
 5281POPC   D2A67096  26.767  24.805   6.503
 5281POPC   C3A67097  26.732  24.644   6.902
 5281POPC   C4A67098  26.640  24.827   7.281
 5281POPC   C1B67099  27.190  24.266   6.224
 5281POPC   C2B67100  26.972  24.273   6.620
 5281POPC   C3B67101  27.070  24.285   7.080
 5281POPC   C4B67102  26.961  24.474   7.475
 5282POPC   NC367103  24.690  13.950   5.422
 5282POPC   PO467104  23.893  14.133   5.371
 5282POPC   GL167105  24.172  14.238   5.791
 5282POPC   GL267106  24.489  14.449   5.821
 5282POPC   C1A67107  24.320  14.306   6.271
 5282POPC   D2A67108  24.569  14.492   6.627
 5282POPC   C3A67109  24.232  14.572   6.892
 5282POPC   C4A67110  24.189  14.283   7.181
 5282POPC   C1B67111  24.816  14.308   6.141
 5282POPC   C2B67112  25.088  14.378   6.516
 5282POPC   C3B67113  25.016  14.539   6.942
 5282POPC   C4B67114  24.678  14.396   7.184
 5283POPC   NC367115   4.446  11.016   5.619
 5283POPC   PO467116   3.918  11.362   5.345
 5283POPC   GL167117   4.165  11.513   5.695
 5283POPC   GL267118   4.531  11.496   5.794
 5283POPC   C1A67119   4.152  11.600   6.119
 5283POPC   D2A67120   4.282  11.363   6.473
 5283POPC   C3A67121   4.083  11.529   6.821
 5283POPC   C4A67122   4.108  11.407   7.240
 5283POPC   C1B67123   4.718  11.699   6.165
 5283POPC   C2B67124   4.778  11.594   6.610
 5283POPC   C3B67125   4.568  11.371   6.945
 5283POPC   C4B67126   4.624  11.378   7.384
 5284POPC   NC367127  32.698  28.382   5.335
 5284POPC   PO467128  33.354  28.282   5.276
 5284POPC   GL167129  33.146  28.365   5.742
 5284POPC   GL267130  32.866  28.605   5.830
 5284POPC   C1A67131  32.956  28.149   6.152
 5284POPC   D2A67132  32.692  28.028   6.537
 5284POPC   C3A67133  32.882  28.039   6.981
 5284POPC   C4A67134  33.050  28.186   7.393
 5284POPC   C1B67135  33.087  28.624   6.266
 5284POPC   C2B67136  33.117  28.494   6.725
 5284POPC   C3B67137  33.019  28.642   7.166
 5284POPC   C4B67138  32.903  28.657   7.629
 5285POPC   NC367139   7.880  39.094   5.251
 5285POPC   PO467140   8.455  39.440   5.381
 5285POPC   GL167141   8.223  39.340   5.778
 5285POPC   GL267142   8.547  39.378   5.919
 5285POPC   C1A67143   7.979  39.419   6.185
 5285POPC   D2A67144   8.031  39.423   6.682
 5285POPC   C3A67145   8.094  39.251   7.140
 5285POPC   C4A67146   7.902  39.331   7.579
 5285POPC   C1B67147   8.400  39.162   6.308
 5285POPC   C2B67148   8.419  39.049   6.751
 5285POPC   C3B67149   8.698  38.788   7.007
 5285POPC   C4B67150   8.657  38.674   7.414
 5286POPC   NC367151  44.041  17.205   5.562
 5286POPC   PO467152  43.743  17.836   5.322
 5286POPC   GL167153  43.784  17.722   5.802
 5286POPC   GL267154  43.516  17.597   5.986
 5286POPC   C1A67155  44.055  17.551   6.157
 5286POPC   D2A67156  44.155  17.683   6.570
 5286POPC   C3A67157  44.103  17.521   6.979
 5286POPC   C4A67158  44.006  17.805   7.305
 5286POPC   C1B67159  43.615  17.498   6.394
 5286POPC   C2B67160  43.646  17.327   6.775
 5286POPC   C3B67161  43.618  17.512   7.155
 5286POPC   C4B67162  43.734  17.424   7.562
 5287POPC   NC367163   6.465  38.481   5.412
 5287POPC   PO467164   6.943  38.794   5.651
 5287POPC   GL167165   6.635  38.571   5.886
 5287POPC   GL267166   6.673  38.210   5.793
 5287POPC   C1A67167   6.628  38.667   6.311
 5287POPC   D2A67168   6.856  38.430   6.618
 5287POPC   C3A67169   6.644  38.481   6.958
 5287POPC   C4A67170   6.427  38.858   7.050
 5287POPC   C1B67171   6.574  38.175   6.236
 5287POPC   C2B67172   6.376  38.199   6.628
 5287POPC   C3B67173   6.473  37.984   7.010
 5287POPC   C4B67174   6.563  38.055   7.464
 5288POPC   NC367175  23.946  28.762   5.420
 5288POPC   PO467176  23.405  28.322   5.364
 5288POPC   GL167177  23.697  28.425   5.739
 5288POPC   GL267178  23.623  28.773   5.832
 5288POPC   C1A67179  23.955  28.301   6.121
 5288POPC   D2A67180  24.087  28.418   6.576
 5288POPC   C3A67181  23.888  28.229   6.930
 5288POPC   C4A67182  23.679  28.216   7.313
 5288POPC   C1B67183  23.774  28.748   6.254
 5288POPC   C2B67184  23.619  28.604   6.660
 5288POPC   C3B67185  23.765  28.705   7.090
 5288POPC   C4B67186  23.644  28.658   7.545
 5289POPC   NC367187  21.234  23.007   5.217
 5289POPC   PO467188  20.494  22.823   5.300
 5289POPC   GL167189  20.500  22.814   5.727
 5289POPC   GL267190  20.815  22.854   5.817
 5289POPC   C1A67191  20.473  22.747   6.185
 5289POPC   D2A67192  20.252  22.940   6.509
 5289POPC   C3A67193  20.383  22.766   6.860
 5289POPC   C4A67194  20.316  22.818   7.273
 5289POPC   C1B67195  20.962  23.022   6.228
 5289POPC   C2B67196  20.788  22.991   6.609
 5289POPC   C3B67197  20.862  22.782   6.982
 5289POPC   C4B67198  20.829  22.932   7.351
 5290POPC   NC367199  44.078   9.940   5.529
 5290POPC   PO467200  43.605   9.469   5.457
 5290POPC   GL167201  43.621   9.757   5.787
 5290POPC   GL267202  43.812   9.519   5.950
 5290POPC   C1A67203  43.715   9.987   6.181
 5290POPC   D2A67204  43.810   9.821   6.592
 5290POPC   C3A67205  43.966   9.971   6.973
 5290POPC   C4A67206  43.790   9.713   7.255
 5290POPC   C1B67207  44.134   9.657   6.249
 5290POPC   C2B67208  44.187   9.454   6.673
 5290POPC   C3B67209  44.282   9.546   7.105
 5290POPC   C4B67210  44.228   9.882   7.408
 5291POPC   NC367211  18.584  16.706   5.499
 5291POPC   PO467212  17.922  16.426   5.622
 5291POPC   GL167213  18.201  16.556   5.946
 5291POPC   GL267214  18.424  16.830   5.953
 5291POPC   C1A67215  18.309  16.555   6.394
 5291POPC   D2A67216  18.320  16.579   6.849
 5291POPC   C3A67217  18.628  16.692   7.152
 5291POPC   C4A67218  18.359  16.505   7.427
 5291POPC   C1B67219  18.180  17.046   6.258
 5291POPC   C2B67220  18.009  16.973   6.654
 5291POPC   C3B67221  17.967  16.894   7.079
 5291POPC   C4B67222  17.823  17.165   7.374
 5292POPC   NC367223  19.406  21.918   5.461
 5292POPC   PO467224  20.094  22.182   5.523
 5292POPC   GL167225  19.950  21.905   5.894
 5292POPC   GL267226  19.584  21.814   5.932
 5292POPC   C1A67227  20.046  22.056   6.304
 5292POPC   D2A67228  20.177  22.420   6.542
 5292POPC   C3A67229  20.093  22.365   6.995
 5292POPC   C4A67230  19.925  22.506   7.402
 5292POPC   C1B67231  19.534  22.151   6.245
 5292POPC   C2B67232  19.678  22.283   6.677
 5292POPC   C3B67233  19.620  22.168   7.119
 5292POPC   C4B67234  19.559  21.763   7.295
 5293POPC   NC367235   5.674  34.451   5.172
 5293POPC   PO467236   6.275  34.444   5.211
 5293POPC   GL167237   6.108  34.433   5.658
 5293POPC   GL267238   6.336  34.224   5.841
 5293POPC   C1A67239   5.787  34.570   6.020
 5293POPC   D2A67240   5.681  34.685   6.488
 5293POPC   C3A67241   5.651  34.835   6.935
 5293POPC   C4A67242   5.595  34.702   7.370
 5293POPC   C1B67243   6.176  34.311   6.265
 5293POPC   C2B67244   6.111  34.429   6.725
 5293POPC   C3B67245   6.140  34.711   7.126
 5293POPC   C4B67246   6.063  34.798   7.580
 5294POPC   NC367247  42.725  32.079   5.416
 5294POPC   PO467248  42.109  32.398   5.649
 5294POPC   GL167249  42.207  32.202   5.991
 5294POPC   GL267250  42.554  32.130   5.885
 5294POPC   C1A67251  42.018  32.101   6.411
 5294POPC   D2A67252  41.961  31.894   6.814
 5294POPC   C3A67253  42.275  32.096   7.091
 5294POPC   C4A67254  42.321  32.564   7.274
 5294POPC   C1B67255  42.603  32.426   6.193
 5294POPC   C2B67256  42.494  32.285   6.568
 5294POPC   C3B67257  42.634  32.398   6.917
 5294POPC   C4B67258  42.778  32.302   7.295
 5295POPC   NC367259  14.812  29.242   5.580
 5295POPC   PO467260  15.438  28.973   5.418
 5295POPC   GL167261  15.262  29.152   5.822
 5295POPC   GL267262  15.460  29.391   5.971
 5295POPC   C1A67263  15.049  29.346   6.231
 5295POPC   D2A67264  15.279  29.455   6.636
 5295POPC   C3A67265  14.995  29.412   6.951
 5295POPC   C4A67266  14.819  29.183   7.270
 5295POPC   C1B67267  15.497  29.084   6.343
 5295POPC   C2B67268  15.527  28.984   6.795
 5295POPC   C3B67269  15.443  29.246   7.155
 5295POPC   C4B67270  15.724  29.305   7.531
 5296POPC   NC367271   0.370   1.714   5.485
 5296POPC   PO467272   0.590   2.359   5.451
 5296POPC   GL167273   0.509   2.081   5.802
 5296POPC   GL267274   0.139   2.034   5.828
 5296POPC   C1A67275   0.440   1.764   6.150
 5296POPC   D2A67276   0.601   1.844   6.542
 5296POPC   C3A67277   0.530   1.625   6.907
 5296POPC   C4A67278   0.634   1.668   7.343
 5296POPC   C1B67279   0.078   2.145   6.288
 5296POPC   C2B67280   0.117   1.918   6.687
 5296POPC   C3B67281   0.254   1.983   7.113
 5296POPC   C4B67282   0.632   2.224   7.193
 5297POPC   NC367283   3.119   3.106   5.369
 5297POPC   PO467284   3.802   2.923   5.303
 5297POPC   GL167285   3.512   2.981   5.681
 5297POPC   GL267286   3.551   2.668   5.867
 5297POPC   C1A67287   3.298   3.010   6.126
 5297POPC   D2A67288   3.404   3.121   6.562
 5297POPC   C3A67289   3.444   2.790   6.876
 5297POPC   C4A67290   3.843   2.859   7.025
 5297POPC   C1B67291   3.622   2.393   6.208
 5297POPC   C2B67292   3.811   2.447   6.597
 5297POPC   C3B67293   3.848   2.229   6.946
 5297POPC   C4B67294   3.734   2.429   7.275
 5298POPC   NC367295  16.446  25.548   5.573
 5298POPC   PO467296  16.876  26.147   5.574
 5298POPC   GL167297  16.643  26.002   5.878
 5298POPC   GL267298  16.912  25.775   5.951
 5298POPC   C1A67299  16.694  26.157   6.289
 5298POPC   D2A67300  16.626  26.025   6.700
 5298POPC   C3A67301  16.624  26.289   7.060
 5298POPC   C4A67302  16.300  26.146   7.308
 5298POPC   C1B67303  16.914  25.635   6.381
 5298POPC   C2B67304  16.928  25.610   6.817
 5298POPC   C3B67305  16.942  25.819   7.195
 5298POPC   C4B67306  17.255  25.943   7.485
 5299POPC   NC367307  17.820  35.030   5.435
 5299POPC   PO467308  18.097  35.656   5.502
 5299POPC   GL167309  18.285  35.433   5.858
 5299POPC   GL267310  18.220  35.067   5.859
 5299POPC   C1A67311  18.480  35.350   6.244
 5299POPC   D2A67312  18.504  35.035   6.569
 5299POPC   C3A67313  18.304  35.121   6.952
 5299POPC   C4A67314  18.288  35.449   7.285
 5299POPC   C1B67315  17.945  35.255   6.186
 5299POPC   C2B67316  18.070  35.374   6.576
 5299POPC   C3B67317  17.895  35.426   6.958
 5299POPC   C4B67318  17.868  35.125   7.278
 5300POPC   NC367319  35.513  38.907   5.495
 5300POPC   PO467320  35.219  39.476   5.324
 5300POPC   GL167321  35.219  39.356   5.774
 5300POPC   GL267322  35.572  39.336   5.819
 5300POPC   C1A67323  35.256  39.112   6.173
 5300POPC   D2A67324  34.995  38.928   6.509
 5300POPC   C3A67325  35.097  39.143   6.898
 5300POPC   C4A67326  35.231  39.082   7.308
 5300POPC   C1B67327  35.741  39.314   6.237
 5300POPC   C2B67328  35.811  39.105   6.656
 5300POPC   C3B67329  35.770  39.350   7.039
 5300POPC   C4B67330  35.643  39.323   7.432
 5301POPC   NC367331  38.202  22.353   5.389
 5301POPC   PO467332  38.409  21.740   5.398
 5301POPC   GL167333  38.350  22.033   5.783
 5301POPC   GL267334  38.037  22.207   5.853
 5301POPC   C1A67335  38.424  22.267   6.203
 5301POPC   D2A67336  38.600  22.425   6.610
 5301POPC   C3A67337  38.422  22.277   6.997
 5301POPC   C4A67338  38.547  22.217   7.422
 5301POPC   C1B67339  38.034  21.936   6.207
 5301POPC   C2B67340  38.228  21.972   6.606
 5301POPC   C3B67341  38.149  21.826   7.022
 5301POPC   C4B67342  38.079  22.080   7.377
 5302POPC   NC367343  13.906  18.668   5.470
 5302POPC   PO467344  13.759  18.033   5.240
 5302POPC   GL167345  13.767  18.178   5.689
 5302POPC   GL267346  13.963  17.990   5.934
 5302POPC   C1A67347  13.715  18.478   6.067
 5302POPC   D2A67348  13.787  18.672   6.480
 5302POPC   C3A67349  13.595  18.410   6.785
 5302POPC   C4A67350  13.502  18.453   7.190
 5302POPC   C1B67351  13.940  18.101   6.397
 5302POPC   C2B67352  13.749  17.916   6.777
 5302POPC   C3B67353  13.729  17.986   7.205
 5302POPC   C4B67354  13.935  18.125   7.585
 5303POPC   NC367355  25.481   8.143   5.264
 5303POPC   PO467356  24.969   7.740   5.147
 5303POPC   GL167357  25.160   7.905   5.618
 5303POPC   GL267358  25.487   8.122   5.795
 5303POPC   C1A67359  25.178   7.930   6.125
 5303POPC   D2A67360  25.161   8.222   6.508
 5303POPC   C3A67361  25.231   8.109   6.948
 5303POPC   C4A67362  25.225   8.381   7.348
 5303POPC   C1B67363  25.622   8.328   6.223
 5303POPC   C2B67364  25.624   8.360   6.700
 5303POPC   C3B67365  25.680   8.449   7.143
 5303POPC   C4B67366  25.683   8.337   7.616
 5304POPC   NC367367  21.387  38.780   5.546
 5304POPC   PO467368  21.647  38.239   5.287
 5304POPC   GL167369  21.682  38.391   5.723
 5304POPC   GL267370  21.341  38.353   5.825
 5304POPC   C1A67371  21.720  38.378   6.198
 5304POPC   D2A67372  21.586  38.143   6.598
 5304POPC   C3A67373  21.625  38.397   6.982
 5304POPC   C4A67374  21.489  38.554   7.401
 5304POPC   C1B67375  21.244  38.179   6.201
 5304POPC   C2B67376  21.078  38.162   6.627
 5304POPC   C3B67377  21.214  38.108   7.059
 5304POPC   C4B67378  21.192  38.153   7.512
 5305POPC   NC367379  34.943  12.648   5.473
 5305POPC   PO467380  34.517  13.103   5.621
 5305POPC   GL167381  34.577  12.774   5.863
 5305POPC   GL267382  34.904  12.864   5.932
 5305POPC   C1A67383  34.558  12.584   6.273
 5305POPC   D2A67384  34.390  12.374   6.635
 5305POPC   C3A67385  34.444  12.605   7.024
 5305POPC   C4A67386  34.478  13.039   7.154
 5305POPC   C1B67387  35.041  12.738   6.313
 5305POPC   C2B67388  34.840  12.774   6.714
 5305POPC   C3B67389  34.975  13.106   6.987
 5305POPC   C4B67390  35.248  13.362   7.247
 5306POPC   NC367391   6.738  24.950   5.496
 5306POPC   PO467392   6.740  24.347   5.363
 5306POPC   GL167393   6.713  24.331   5.827
 5306POPC   GL267394   6.828  24.657   5.942
 5306POPC   C1A67395   6.826  24.217   6.280
 5306POPC   D2A67396   6.968  24.350   6.708
 5306POPC   C3A67397   6.647  24.237   6.988
 5306POPC   C4A67398   6.257  24.403   7.022
 5306POPC   C1B67399   7.110  24.704   6.300
 5306POPC   C2B67400   6.890  24.862   6.654
 5306POPC   C3B67401   6.868  24.726   7.082
 5306POPC   C4B67402   7.062  24.359   7.252
 5307POPC   NC367403  41.117   7.197   5.571
 5307POPC   PO467404  41.709   7.649   5.433
 5307POPC   GL167405  41.783   7.552   5.857
 5307POPC   GL267406  41.466   7.393   5.924
 5307POPC   C1A67407  41.781   7.554   6.330
 5307POPC   D2A67408  41.696   7.287   6.706
 5307POPC   C3A67409  41.683   7.505   7.110
 5307POPC   C4A67410  41.755   7.445   7.555
 5307POPC   C1B67411  41.154   7.276   6.248
 5307POPC   C2B67412  41.009   7.308   6.682
 5307POPC   C3B67413  41.207   7.345   7.090
 5307POPC   C4B67414  41.262   7.343   7.537
 5308POPC   NC367415  20.131  39.883   5.536
 5308POPC   PO467416  19.531  40.364   5.547
 5308POPC   GL167417  19.670  40.049   5.805
 5308POPC   GL267418  19.995  40.120   5.960
 5308POPC   C1A67419  19.563  40.047   6.234
 5308POPC   D2A67420  19.499  40.259   6.596
 5308POPC   C3A67421  19.703  40.008   6.919
 5308POPC   C4A67422  19.681  40.179   7.313
 5308POPC   C1B67423  19.912  39.698   6.127
 5308POPC   C2B67424  19.951  39.606   6.556
 5308POPC   C3B67425  20.157  39.728   6.937
 5308POPC   C4B67426  20.158  40.027   7.264
 5309POPC   NC367427  19.791  15.451   5.416
 5309POPC   PO467428  19.888  14.787   5.443
 5309POPC   GL167429  19.975  15.117   5.781
 5309POPC   GL267430  19.644  15.280   5.880
 5309POPC   C1A67431  20.068  15.443   6.123
 5309POPC   D2A67432  20.236  15.378   6.531
 5309POPC   C3A67433  20.002  15.419   6.907
 5309POPC   C4A67434  19.977  15.053   7.204
 5309POPC   C1B67435  19.713  15.090   6.309
 5309POPC   C2B67436  19.697  14.995   6.775
 5309POPC   C3B67437  19.479  14.957   7.203
 5309POPC   C4B67438  19.353  15.041   7.647
 5310POPC   NC367439  10.769  41.971   5.417
 5310POPC   PO467440  10.197  42.171   5.182
 5310POPC   GL167441  10.427  42.265   5.676
 5310POPC   GL267442  10.498  41.948   5.854
 5310POPC   C1A67443  10.399  42.396   6.175
 5310POPC   D2A67444  10.595  42.567   6.631
 5310POPC   C3A67445  10.358  42.507   7.033
 5310POPC   C4A67446  10.232  42.767   7.410
 5310POPC   C1B67447  10.717  42.002   6.253
 5310POPC   C2B67448  10.539  42.072   6.672
 5310POPC   C3B67449  10.647  42.097   7.113
 5310POPC   C4B67450  10.663  42.068   7.568
 5311POPC   NC367451  44.052  22.496   5.409
 5311POPC   PO467452  43.715  23.073   5.490
 5311POPC   GL167453  43.661  22.657   5.738
 5311POPC   GL267454  43.919  22.399   5.895
 5311POPC   C1A67455  43.561  22.664   6.162
 5311POPC   D2A67456  43.827  22.906   6.428
 5311POPC   C3A67457  43.814  22.823   6.830
 5311POPC   C4A67458  43.820  23.060   7.200
 5311POPC   C1B67459  44.178  22.724   6.106
 5311POPC   C2B67460  44.340  22.844   6.568
 5311POPC   C3B67461  44.263  22.833   7.044
 5311POPC   C4B67462  44.183  22.825   7.538
 5312POPC   NC367463   9.283  13.367   5.227
 5312POPC   PO467464   8.739  13.704   5.347
 5312POPC   GL167465   8.974  13.632   5.763
 5312POPC   GL267466   9.166  13.312   5.724
 5312POPC   C1A67467   8.958  13.793   6.232
 5312POPC   D2A67468   8.782  13.738   6.675
 5312POPC   C3A67469   8.819  13.964   7.116
 5312POPC   C4A67470   8.721  13.884   7.589
 5312POPC   C1B67471   9.182  13.331   6.157
 5312POPC   C2B67472   9.217  13.431   6.593
 5312POPC   C3B67473   9.209  13.628   6.985
 5312POPC   C4B67474   9.326  13.455   7.355
 5313POPC   NC367475   0.114  31.125   5.507
 5313POPC   PO467476   0.097  30.439   5.542
 5313POPC   GL167477   0.295  30.673   5.876
 5313POPC   GL267478   0.447  30.311   5.922
 5313POPC   C1A67479   0.487  30.958   6.209
 5313POPC   D2A67480   0.253  30.953   6.619
 5313POPC   C3A67481   0.403  30.786   7.004
 5313POPC   C4A67482   0.328  30.764   7.442
 5313POPC   C1B67483   0.380  30.492   6.339
 5313POPC   C2B67484   0.705  30.659   6.603
 5313POPC   C3B67485   0.891  30.467   6.959
 5313POPC   C4B67486   0.729  30.454   7.386
 5314POPC   NC367487  16.146  35.471   5.485
 5314POPC   PO467488  16.415  34.836   5.518
 5314POPC   GL167489  16.007  35.000   5.727
 5314POPC   GL267490  16.109  35.265   5.945
 5314POPC   C1A67491  15.748  34.974   6.151
 5314POPC   D2A67492  16.039  35.044   6.520
 5314POPC   C3A67493  15.927  35.177   6.950
 5314POPC   C4A67494  16.097  35.050   7.339
 5314POPC   C1B67495  15.867  35.473   6.245
 5314POPC   C2B67496  16.029  35.589   6.641
 5314POPC   C3B67497  16.133  35.622   7.077
 5314POPC   C4B67498  15.974  35.521   7.487
 5315POPC   NC367499  27.405  16.360   5.529
 5315POPC   PO467500  27.594  16.886   5.199
 5315POPC   GL167501  27.656  16.808   5.669
 5315POPC   GL267502  27.321  16.784   5.807
 5315POPC   C1A67503  27.644  16.569   6.112
 5315POPC   D2A67504  27.414  16.417   6.464
 5315POPC   C3A67505  27.512  16.621   6.836
 5315POPC   C4A67506  27.379  16.656   7.282
 5315POPC   C1B67507  27.421  17.049   6.167
 5315POPC   C2B67508  27.255  16.985   6.588
 5315POPC   C3B67509  27.423  17.107   6.984
 5315POPC   C4B67510  27.473  17.150   7.409
 5316POPC   NC367511  22.296  21.785   5.428
 5316POPC   PO467512  22.458  21.222   5.379
 5316POPC   GL167513  22.435  21.376   5.817
 5316POPC   GL267514  22.086  21.481   5.803
 5316POPC   C1A67515  22.322  21.531   6.267
 5316POPC   D2A67516  22.209  21.305   6.652
 5316POPC   C3A67517  22.469  21.390   6.968
 5316POPC   C4A67518  22.562  21.554   7.321
 5316POPC   C1B67519  21.787  21.518   6.127
 5316POPC   C2B67520  21.827  21.609   6.540
 5316POPC   C3B67521  21.726  21.564   6.957
 5316POPC   C4B67522  22.058  21.473   7.237
 5317POPC   NC367523  12.544  44.550   5.459
 5317POPC   PO467524  12.009  44.783   5.187
 5317POPC   GL167525  12.061   0.010   5.677
 5317POPC   GL267526  12.367   0.012   5.892
 5317POPC   C1A67527  11.955  44.968   6.158
 5317POPC   D2A67528  11.783   0.065   6.583
 5317POPC   C3A67529  11.865  44.845   6.966
 5317POPC   C4A67530  12.282  44.776   7.146
 5317POPC   C1B67531  12.408  44.679   6.231
 5317POPC   C2B67532  12.622  44.389   6.533
 5317POPC   C3B67533  12.578  44.355   6.981
 5317POPC   C4B67534  12.369  44.339   7.397
 5318POPC   NC367535  19.455  44.672   5.406
 5318POPC   PO467536  20.047  44.629   5.483
 5318POPC   GL167537  19.762  44.692   5.839
 5318POPC   GL267538  19.695  44.345   5.751
 5318POPC   C1A67539  19.720  44.760   6.335
 5318POPC   D2A67540  19.873  44.761   6.763
 5318POPC   C3A67541  19.691  44.762   7.163
 5318POPC   C4A67542  20.018  44.910   7.434
 5318POPC   C1B67543  19.716  44.290   6.191
 5318POPC   C2B67544  19.652  44.311   6.646
 5318POPC   C3B67545  19.899  44.323   7.044
 5318POPC   C4B67546  19.621  44.293   7.417
 5319POPC   NC367547  27.850  18.083   5.643
 5319POPC   PO467548  27.509  18.417   5.101
 5319POPC   GL167549  27.416  18.366   5.692
 5319POPC   GL267550  27.651  18.481   5.971
 5319POPC   C1A67551  27.300  18.147   6.115
 5319POPC   D2A67552  27.332  18.007   6.574
 5319POPC   C3A67553  27.478  18.205   6.983
 5319POPC   C4A67554  27.251  18.174   7.383
 5319POPC   C1B67555  27.549  18.549   6.392
 5319POPC   C2B67556  27.784  18.587   6.726
 5319POPC   C3B67557  27.973  18.401   7.052
 5319POPC   C4B67558  27.706  18.598   7.308
 5320POPC   NC367559  34.842   1.969   5.074
 5320POPC   PO467560  34.827   1.528   5.614
 5320POPC   GL167561  34.509   1.733   5.840
 5320POPC   GL267562  34.435   2.108   5.844
 5320POPC   C1A67563  34.638   1.789   6.257
 5320POPC   D2A67564  34.670   1.557   6.662
 5320POPC   C3A67565  34.586   1.829   7.033
 5320POPC   C4A67566  34.554   1.886   7.513
 5320POPC   C1B67567  34.553   2.304   6.248
 5320POPC   C2B67568  34.459   2.351   6.706
 5320POPC   C3B67569  34.465   2.302   7.180
 5320POPC   C4B67570  34.413   2.375   7.648
 5321POPC   NC367571   9.048  26.787   5.376
 5321POPC   PO467572   8.884  27.385   5.567
 5321POPC   GL167573   8.900  26.973   5.839
 5321POPC   GL267574   8.771  26.614   5.780
 5321POPC   C1A67575   9.200  26.819   6.179
 5321POPC   D2A67576   9.292  26.662   6.609
 5321POPC   C3A67577   9.237  27.031   6.872
 5321POPC   C4A67578   8.998  27.082   7.238
 5321POPC   C1B67579   8.559  26.690   6.196
 5321POPC   C2B67580   8.601  26.591   6.615
 5321POPC   C3B67581   8.839  26.677   6.957
 5321POPC   C4B67582   8.814  26.557   7.373
 5322POPC   NC367583  15.667  25.249   5.509
 5322POPC   PO467584  16.329  25.111   5.415
 5322POPC   GL167585  16.135  25.207   5.837
 5322POPC   GL267586  15.838  24.993   5.907
 5322POPC   C1A67587  16.203  25.249   6.306
 5322POPC   D2A67588  16.337  25.047   6.705
 5322POPC   C3A67589  16.186  25.224   7.070
 5322POPC   C4A67590  16.256  25.211   7.526
 5322POPC   C1B67591  15.706  25.247   6.235
 5322POPC   C2B67592  15.797  25.266   6.652
 5322POPC   C3B67593  15.679  25.021   6.956
 5322POPC   C4B67594  15.760  25.216   7.340
 5323POPC   NC367595  40.171   5.036   5.630
 5323POPC   PO467596  39.551   5.340   5.502
 5323POPC   GL167597  39.751   5.263   5.903
 5323POPC   GL267598  39.847   4.950   6.022
 5323POPC   C1A67599  39.921   5.364   6.325
 5323POPC   D2A67600  39.775   5.484   6.736
 5323POPC   C3A67601  39.954   5.232   7.068
 5323POPC   C4A67602  40.280   5.111   7.312
 5323POPC   C1B67603  40.259   4.965   6.258
 5323POPC   C2B67604  40.218   5.005   6.674
 5323POPC   C3B67605  40.324   4.729   6.968
 5323POPC   C4B67606  40.608   4.724   7.280
 5324POPC   NC367607  33.116   8.400   5.590
 5324POPC   PO467608  32.833   7.749   5.539
 5324POPC   GL167609  32.978   7.975   5.880
 5324POPC   GL267610  32.723   8.205   5.835
 5324POPC   C1A67611  33.126   8.051   6.302
 5324POPC   D2A67612  32.904   8.037   6.688
 5324POPC   C3A67613  33.106   7.982   7.069
 5324POPC   C4A67614  33.366   8.318   7.243
 5324POPC   C1B67615  32.825   8.484   6.201
 5324POPC   C2B67616  32.978   8.574   6.630
 5324POPC   C3B67617  32.919   8.459   7.057
 5324POPC   C4B67618  32.624   8.550   7.389
 5325POPC   NC367619   4.657  20.412   5.388
 5325POPC   PO467620   4.028  20.114   5.461
 5325POPC   GL167621   3.962  20.445   5.773
 5325POPC   GL267622   4.116  20.778   5.729
 5325POPC   C1A67623   3.943  20.568   6.206
 5325POPC   D2A67624   4.277  20.472   6.513
 5325POPC   C3A67625   4.102  20.492   6.898
 5325POPC   C4A67626   4.277  20.558   7.288
 5325POPC   C1B67627   4.414  20.745   6.081
 5325POPC   C2B67628   4.586  20.933   6.478
 5325POPC   C3B67629   4.538  20.768   6.889
 5325POPC   C4B67630   4.671  20.875   7.291
 5326POPC   NC367631  23.386  40.075   5.565
 5326POPC   PO467632  23.789  39.582   5.494
 5326POPC   GL167633  23.809  39.833   5.869
 5326POPC   GL267634  23.913  40.189   5.837
 5326POPC   C1A67635  23.647  39.837   6.292
 5326POPC   D2A67636  23.846  39.704   6.653
 5326POPC   C3A67637  23.603  39.808   7.006
 5326POPC   C4A67638  23.607  39.572   7.347
 5326POPC   C1B67639  23.760  40.337   6.272
 5326POPC   C2B67640  23.798  40.227   6.733
 5326POPC   C3B67641  23.966  40.143   7.168
 5326POPC   C4B67642  23.960  40.318   7.631
 5327POPC   NC367643   6.330   8.547   5.504
 5327POPC   PO467644   5.821   8.162   5.250
 5327POPC   GL167645   5.841   8.017   5.701
 5327POPC   GL267646   6.108   8.230   5.841
 5327POPC   C1A67647   5.701   8.130   6.164
 5327POPC   D2A67648   5.654   8.179   6.617
 5327POPC   C3A67649   5.943   8.057   6.964
 5327POPC   C4A67650   5.967   7.815   7.355
 5327POPC   C1B67651   6.054   8.478   6.233
 5327POPC   C2B67652   6.138   8.431   6.657
 5327POPC   C3B67653   6.134   8.543   7.092
 5327POPC   C4B67654   5.928   8.333   7.458
 5328POPC   NC367655  10.614  30.810   5.442
 5328POPC   PO467656  10.211  30.152   5.415
 5328POPC   GL167657  10.393  30.470   5.793
 5328POPC   GL267658  10.243  30.812   5.960
 5328POPC   C1A67659  10.399  30.459   6.285
 5328POPC   D2A67660  10.294  30.578   6.730
 5328POPC   C3A67661  10.633  30.603   7.033
 5328POPC   C4A67662  10.881  30.326   7.301
 5328POPC   C1B67663  10.592  30.949   6.227
 5328POPC   C2B67664  10.773  30.933   6.647
 5328POPC   C3B67665  10.626  31.124   7.049
 5328POPC   C4B67666  10.487  31.014   7.471
 5329POPC   NC367667   2.342  38.139   5.594
 5329POPC   PO467668   2.816  38.600   5.357
 5329POPC   GL167669   2.763  38.551   5.761
 5329POPC   GL267670   2.901  38.218   5.771
 5329POPC   C1A67671   2.747  38.737   6.171
 5329POPC   D2A67672   2.598  38.560   6.564
 5329POPC   C3A67673   2.893  38.408   6.855
 5329POPC   C4A67674   2.733  38.540   7.236
 5329POPC   C1B67675   2.630  38.220   6.158
 5329POPC   C2B67676   2.643  38.034   6.546
 5329POPC   C3B67677   2.475  38.108   6.918
 5329POPC   C4B67678   2.422  38.008   7.322
 5330POPC   NC367679  30.271  22.062   5.607
 5330POPC   PO467680  29.851  22.609   5.466
 5330POPC   GL167681  29.763  22.441   5.868
 5330POPC   GL267682  29.834  22.085   5.880
 5330POPC   C1A67683  29.955  22.450   6.292
 5330POPC   D2A67684  30.172  22.223   6.665
 5330POPC   C3A67685  29.911  22.173   7.051
 5330POPC   C4A67686  29.766  22.423   7.413
 5330POPC   C1B67687  29.926  21.941   6.293
 5330POPC   C2B67688  29.828  21.802   6.692
 5330POPC   C3B67689  30.146  21.572   6.835
 5330POPC   C4B67690  30.350  21.889   7.068
 5331POPC   NC367691  41.326  35.328   5.348
 5331POPC   PO467692  41.818  35.705   5.562
 5331POPC   GL167693  41.538  35.463   5.828
 5331POPC   GL267694  41.456  35.085   5.844
 5331POPC   C1A67695  41.760  35.387   6.190
 5331POPC   D2A67696  41.919  35.625   6.495
 5331POPC   C3A67697  42.035  35.537   6.935
 5331POPC   C4A67698  41.840  35.353   7.306
 5331POPC   C1B67699  41.305  35.185   6.285
 5331POPC   C2B67700  41.417  35.428   6.679
 5331POPC   C3B67701  41.332  35.317   7.128
 5331POPC   C4B67702  41.139  35.097   7.500
 5332POPC   NC367703  11.164   9.213   5.316
 5332POPC   PO467704  11.304   8.605   5.448
 5332POPC   GL167705  11.404   8.928   5.737
 5332POPC   GL267706  11.121   9.104   5.837
 5332POPC   C1A67707  11.444   8.823   6.183
 5332POPC   D2A67708  11.572   8.851   6.643
 5332POPC   C3A67709  11.466   8.841   7.108
 5332POPC   C4A67710  11.346   8.734   7.519
 5332POPC   C1B67711  11.352   9.357   6.133
 5332POPC   C2B67712  11.465   9.432   6.551
 5332POPC   C3B67713  11.304   9.266   6.890
 5332POPC   C4B67714  11.223   9.345   7.310
 5333POPC   NC367715  40.447  35.394   5.175
 5333POPC   PO467716  40.004  35.226   5.659
 5333POPC   GL167717  39.702  35.262   5.945
 5333POPC   GL267718  39.913  35.526   6.058
 5333POPC   C1A67719  39.732  35.096   6.361
 5333POPC   D2A67720  40.049  35.297   6.602
 5333POPC   C3A67721  39.938  35.431   7.010
 5333POPC   C4A67722  39.665  35.134   7.170
 5333POPC   C1B67723  40.039  35.804   6.328
 5333POPC   C2B67724  40.215  35.773   6.678
 5333POPC   C3B67725  40.419  35.510   6.896
 5333POPC   C4B67726  40.452  35.663   7.235
 5334POPC   NC367727  17.350  36.663   5.675
 5334POPC   PO467728  17.444  36.015   5.643
 5334POPC   GL167729  17.428  36.222   5.960
 5334POPC   GL267730  17.678  36.460   5.985
 5334POPC   C1A67731  17.525  36.027   6.322
 5334POPC   D2A67732  17.516  36.085   6.752
 5334POPC   C3A67733  17.768  35.930   7.097
 5334POPC   C4A67734  17.642  35.996   7.525
 5334POPC   C1B67735  17.381  36.530   6.358
 5334POPC   C2B67736  17.484  36.619   6.790
 5334POPC   C3B67737  17.519  36.386   7.183
 5334POPC   C4B67738  17.605  36.501   7.641
 5335POPC   NC367739  16.883  32.954   4.940
 5335POPC   PO467740  17.108  32.969   5.586
 5335POPC   GL167741  16.946  33.122   5.978
 5335POPC   GL267742  16.663  32.947   5.942
 5335POPC   C1A67743  16.947  33.146   6.428
 5335POPC   D2A67744  17.105  33.193   6.851
 5335POPC   C3A67745  16.795  33.273   7.162
 5335POPC   C4A67746  16.459  33.016   7.247
 5335POPC   C1B67747  16.506  32.684   6.279
 5335POPC   C2B67748  16.745  32.624   6.613
 5335POPC   C3B67749  16.826  32.782   6.980
 5335POPC   C4B67750  16.702  32.586   7.368
 5336POPC   NC367751  22.726  36.080   5.442
 5336POPC   PO467752  23.303  36.341   5.186
 5336POPC   GL167753  23.304  36.279   5.671
 5336POPC   GL267754  23.161  35.979   5.785
 5336POPC   C1A67755  23.226  36.286   6.154
 5336POPC   D2A67756  23.066  36.152   6.559
 5336POPC   C3A67757  23.010  36.422   6.915
 5336POPC   C4A67758  22.864  36.129   7.176
 5336POPC   C1B67759  22.812  35.946   6.124
 5336POPC   C2B67760  22.617  35.852   6.541
 5336POPC   C3B67761  22.444  35.936   6.963
 5336POPC   C4B67762  22.472  35.968   7.434
 5337POPC   NC367763  26.779  10.880   5.330
 5337POPC   PO467764  27.293  10.386   5.440
 5337POPC   GL167765  27.111  10.293   5.847
 5337POPC   GL267766  26.781  10.171   5.746
 5337POPC   C1A67767  27.120  10.463   6.295
 5337POPC   D2A67768  26.938  10.679   6.661
 5337POPC   C3A67769  26.939  10.451   7.038
 5337POPC   C4A67770  27.033  10.455   7.476
 5337POPC   C1B67771  26.642  10.422   6.110
 5337POPC   C2B67772  26.547  10.269   6.514
 5337POPC   C3B67773  26.494  10.135   6.914
 5337POPC   C4B67774  26.540  10.305   7.318
 5338POPC   NC367775  17.100  41.400   5.427
 5338POPC   PO467776  16.467  41.497   5.352
 5338POPC   GL167777  16.627  41.501   5.796
 5338POPC   GL267778  16.942  41.653   5.832
 5338POPC   C1A67779  16.722  41.344   6.235
 5338POPC   D2A67780  16.904  41.282   6.681
 5338POPC   C3A67781  16.614  41.284   7.050
 5338POPC   C4A67782  16.557  41.311   7.517
 5338POPC   C1B67783  16.907  41.822   6.212
 5338POPC   C2B67784  16.698  41.766   6.601
 5338POPC   C3B67785  16.917  41.812   6.961
 5338POPC   C4B67786  17.159  41.933   7.306
 5339POPC   NC367787  13.693   5.506   5.656
 5339POPC   PO467788  13.297   4.887   5.602
 5339POPC   GL167789  13.598   5.032   5.864
 5339POPC   GL267790  13.428   5.303   6.042
 5339POPC   C1A67791  13.844   5.049   6.246
 5339POPC   D2A67792  13.861   5.003   6.692
 5339POPC   C3A67793  14.044   5.335   6.909
 5339POPC   C4A67794  13.973   5.419   7.316
 5339POPC   C1B67795  13.334   5.016   6.393
 5339POPC   C2B67796  13.360   5.008   6.843
 5339POPC   C3B67797  13.601   4.995   7.207
 5339POPC   C4B67798  13.299   4.898   7.596
 5340POPC   NC367799  36.066  35.822   5.506
 5340POPC   PO467800  35.891  36.546   5.617
 5340POPC   GL167801  36.193  36.358   5.904
 5340POPC   GL267802  36.355  36.018   5.878
 5340POPC   C1A67803  36.007  36.381   6.317
 5340POPC   D2A67804  35.963  36.125   6.702
 5340POPC   C3A67805  35.961  36.315   7.105
 5340POPC   C4A67806  35.796  36.251   7.539
 5340POPC   C1B67807  36.223  35.936   6.271
 5340POPC   C2B67808  36.356  35.805   6.681
 5340POPC   C3B67809  36.354  35.977   7.092
 5340POPC   C4B67810  36.345  35.744   7.514
 5341POPC   NC367811  42.691   6.850   5.151
 5341POPC   PO467812  42.213   6.420   5.341
 5341POPC   GL167813  42.189   6.676   5.722
 5341POPC   GL267814  42.461   6.893   5.630
 5341POPC   C1A67815  42.072   6.653   6.190
 5341POPC   D2A67816  41.958   6.851   6.609
 5341POPC   C3A67817  42.212   6.761   6.946
 5341POPC   C4A67818  42.199   6.512   7.257
 5341POPC   C1B67819  42.463   6.959   6.078
 5341POPC   C2B67820  42.490   6.880   6.516
 5341POPC   C3B67821  42.494   7.176   6.878
 5341POPC   C4B67822  42.531   7.038   7.292
 5342POPC   NC367823  26.454  13.235   5.564
 5342POPC   PO467824  27.003  12.787   5.526
 5342POPC   GL167825  26.969  12.823   5.956
 5342POPC   GL267826  26.920  13.162   5.913
 5342POPC   C1A67827  26.552  12.906   6.179
 5342POPC   D2A67828  26.325  12.869   6.570
 5342POPC   C3A67829  26.579  12.936   6.932
 5342POPC   C4A67830  26.882  12.913   7.253
 5342POPC   C1B67831  26.954  13.154   6.360
 5342POPC   C2B67832  27.036  13.132   6.768
 5342POPC   C3B67833  26.961  13.385   7.102
 5342POPC   C4B67834  27.007  13.304   7.582
 5343POPC   NC367835  42.205  28.110   5.580
 5343POPC   PO467836  42.477  28.559   5.216
 5343POPC   GL167837  42.537  28.640   5.729
 5343POPC   GL267838  42.440  28.341   5.938
 5343POPC   C1A67839  42.448  28.701   6.249
 5343POPC   D2A67840  42.570  28.412   6.598
 5343POPC   C3A67841  42.353  28.360   6.962
 5343POPC   C4A67842  42.063  28.432   7.273
 5343POPC   C1B67843  42.110  28.168   6.273
 5343POPC   C2B67844  42.170  27.940   6.704
 5343POPC   C3B67845  42.150  27.934   7.197
 5343POPC   C4B67846  42.121  27.782   7.656
 5344POPC   NC367847   0.998   6.176   5.364
 5344POPC   PO467848   1.254   5.545   5.458
 5344POPC   GL167849   1.062   5.791   5.817
 5344POPC   GL267850   0.890   6.127   5.847
 5344POPC   C1A67851   1.248   5.852   6.232
 5344POPC   D2A67852   1.420   5.690   6.628
 5344POPC   C3A67853   1.304   5.973   6.954
 5344POPC   C4A67854   1.588   6.155   7.271
 5344POPC   C1B67855   0.767   6.043   6.255
 5344POPC   C2B67856   0.620   6.145   6.652
 5344POPC   C3B67857   0.756   6.209   7.076
 5344POPC   C4B67858   1.047   6.072   7.396
 5345POPC   NC367859  12.231  36.375   5.478
 5345POPC   PO467860  12.269  35.797   5.101
 5345POPC   GL167861  12.127  35.881   5.622
 5345POPC   GL267862  11.857  35.981   5.756
 5345POPC   C1A67863  12.126  35.897   6.162
 5345POPC   D2A67864  12.188  35.912   6.665
 5345POPC   C3A67865  12.332  36.207   7.009
 5345POPC   C4A67866  12.224  36.112   7.444
 5345POPC   C1B67867  11.621  36.035   6.144
 5345POPC   C2B67868  11.605  36.235   6.518
 5345POPC   C3B67869  11.824  36.264   6.905
 5345POPC   C4B67870  11.749  36.281   7.334
 5346POPC   NC367871  36.860  42.352   5.453
 5346POPC   PO467872  37.342  42.822   5.439
 5346POPC   GL167873  37.042  42.654   5.808
 5346POPC   GL267874  37.077  42.275   5.896
 5346POPC   C1A67875  36.753  42.608   6.177
 5346POPC   D2A67876  36.551  42.627   6.606
 5346POPC   C3A67877  36.671  42.337   6.947
 5346POPC   C4A67878  36.735  42.423   7.372
 5346POPC   C1B67879  37.231  42.417   6.267
 5346POPC   C2B67880  37.072  42.531   6.658
 5346POPC   C3B67881  37.170  42.431   7.088
 5346POPC   C4B67882  37.248  42.254   7.487
 5347POPC   NC367883  12.205   1.653   5.360
 5347POPC   PO467884  12.330   2.372   5.400
 5347POPC   GL167885  12.269   2.111   5.781
 5347POPC   GL267886  12.241   1.740   5.861
 5347POPC   C1A67887  12.111   2.076   6.209
 5347POPC   D2A67888  11.967   1.844   6.546
 5347POPC   C3A67889  12.102   2.012   6.933
 5347POPC   C4A67890  12.066   1.965   7.343
 5347POPC   C1B67891  12.315   1.544   6.271
 5347POPC   C2B67892  12.438   1.677   6.694
 5347POPC   C3B67893  12.368   1.621   7.128
 5347POPC   C4B67894  12.335   1.645   7.615
 5348POPC   NC367895  28.126  41.052   5.237
 5348POPC   PO467896  28.624  40.618   5.400
 5348POPC   GL167897  28.437  40.917   5.660
 5348POPC   GL267898  28.494  40.668   5.914
 5348POPC   C1A67899  28.298  41.100   6.079
 5348POPC   D2A67900  28.271  40.843   6.471
 5348POPC   C3A67901  27.958  41.012   6.737
 5348POPC   C4A67902  27.872  41.228   7.109
 5348POPC   C1B67903  28.638  40.454   6.276
 5348POPC   C2B67904  28.812  40.540   6.667
 5348POPC   C3B67905  28.574  40.809   6.909
 5348POPC   C4B67906  28.225  40.835   7.153
 5349POPC   NC367907  31.731  13.961   5.646
 5349POPC   PO467908  31.338  13.481   5.215
 5349POPC   GL167909  31.290  13.637   5.649
 5349POPC   GL267910  31.214  13.988   5.761
 5349POPC   C1A67911  31.195  13.577   6.101
 5349POPC   D2A67912  31.464  13.601   6.447
 5349POPC   C3A67913  31.393  13.635   6.867
 5349POPC   C4A67914  31.274  13.533   7.268
 5349POPC   C1B67915  31.361  14.044   6.202
 5349POPC   C2B67916  31.530  14.070   6.618
 5349POPC   C3B67917  31.433  14.127   7.033
 5349POPC   C4B67918  31.602  13.896   7.378
 5350POPC   NC367919  21.759  18.766   5.146
 5350POPC   PO467920  21.475  19.354   5.333
 5350POPC   GL167921  21.562  19.127   5.769
 5350POPC   GL267922  21.295  18.907   5.879
 5350POPC   C1A67923  21.682  18.946   6.234
 5350POPC   D2A67924  21.620  19.150   6.626
 5350POPC   C3A67925  21.384  18.977   6.943
 5350POPC   C4A67926  21.497  19.006   7.351
 5350POPC   C1B67927  21.303  19.268   6.191
 5350POPC   C2B67928  21.094  19.234   6.569
 5350POPC   C3B67929  21.129  19.437   6.925
 5350POPC   C4B67930  21.067  19.230   7.257
 5351POPC   NC367931  40.190  40.356   5.383
 5351POPC   PO467932  39.968  39.795   5.462
 5351POPC   GL167933  40.186  40.018   5.781
 5351POPC   GL267934  39.937  40.266   5.828
 5351POPC   C1A67935  40.332  40.114   6.215
 5351POPC   D2A67936  40.075  40.237   6.576
 5351POPC   C3A67937  40.209  40.110   6.989
 5351POPC   C4A67938  39.946  39.792   7.198
 5351POPC   C1B67939  39.715  40.371   6.197
 5351POPC   C2B67940  39.492  40.205   6.552
 5351POPC   C3B67941  39.573  40.068   6.964
 5351POPC   C4B67942  39.800  40.305   7.250
 5352POPC   NC367943  18.024  28.198   5.241
 5352POPC   PO467944  18.671  28.233   5.382
 5352POPC   GL167945  18.326  28.167   5.723
 5352POPC   GL267946  18.028  28.411   5.811
 5352POPC   C1A67947  18.270  28.173   6.192
 5352POPC   D2A67948  18.361  28.354   6.615
 5352POPC   C3A67949  18.116  28.194   6.980
 5352POPC   C4A67950  18.294  28.027   7.358
 5352POPC   C1B67951  18.084  28.660   6.261
 5352POPC   C2B67952  18.112  28.791   6.736
 5352POPC   C3B67953  18.083  28.696   7.207
 5352POPC   C4B67954  17.907  28.858   7.615
 5353POPC   NC367955  39.552  13.620   5.435
 5353POPC   PO467956  38.894  13.508   5.326
 5353POPC   GL167957  39.172  13.415   5.718
 5353POPC   GL267958  39.277  13.748   5.884
 5353POPC   C1A67959  39.500  13.376   6.105
 5353POPC   D2A67960  39.398  13.732   6.411
 5353POPC   C3A67961  39.523  13.652   6.827
 5353POPC   C4A67962  39.457  13.511   7.244
 5353POPC   C1B67963  38.983  13.490   6.178
 5353POPC   C2B67964  38.854  13.553   6.577
 5353POPC   C3B67965  39.033  13.559   6.945
 5353POPC   C4B67966  38.903  13.564   7.319
 5354POPC   NC367967  25.053   2.450   5.136
 5354POPC   PO467968  25.411   3.003   5.420
 5354POPC   GL167969  25.198   2.764   5.727
 5354POPC   GL267970  25.475   2.516   5.760
 5354POPC   C1A67971  25.135   2.632   6.184
 5354POPC   D2A67972  25.050   2.588   6.611
 5354POPC   C3A67973  25.287   2.754   6.938
 5354POPC   C4A67974  25.105   2.976   7.289
 5354POPC   C1B67975  25.567   2.859   6.083
 5354POPC   C2B67976  25.609   2.812   6.521
 5354POPC   C3B67977  25.816   2.920   6.903
 5354POPC   C4B67978  25.617   2.838   7.319
 5355POPC   NC367979   1.991  10.958   5.417
 5355POPC   PO467980   2.257  11.583   5.479
 5355POPC   GL167981   2.001  11.366   5.803
 5355POPC   GL267982   1.750  11.101   5.857
 5355POPC   C1A67983   2.052  11.323   6.235
 5355POPC   D2A67984   2.338  11.383   6.574
 5355POPC   C3A67985   2.183  11.282   6.953
 5355POPC   C4A67986   1.885  11.523   7.194
 5355POPC   C1B67987   1.591  11.061   6.265
 5355POPC   C2B67988   1.712  11.268   6.637
 5355POPC   C3B67989   1.686  11.091   7.019
 5355POPC   C4B67990   1.943  11.019   7.317
 5356POPC   NC367991   1.739   5.301   5.167
 5356POPC   PO467992   1.331   4.896   5.555
 5356POPC   GL167993   1.121   4.927   5.882
 5356POPC   GL267994   1.081   5.280   5.889
 5356POPC   C1A67995   1.245   4.809   6.267
 5356POPC   D2A67996   1.352   4.587   6.588
 5356POPC   C3A67997   1.139   4.793   6.933
 5356POPC   C4A67998   1.263   4.928   7.331
 5356POPC   C1B67999   1.304   5.327   6.260
 5356POPC   C2B68000   1.370   5.165   6.652
 5356POPC   C3B68001   1.195   5.331   7.005
 5356POPC   C4B68002   1.241   5.619   7.314
 5357POPC   NC368003  27.737  30.134   5.405
 5357POPC   PO468004  27.858  29.462   5.555
 5357POPC   GL168005  27.606  29.676   5.834
 5357POPC   GL268006  27.732  29.981   5.893
 5357POPC   C1A68007  27.433  29.723   6.256
 5357POPC   D2A68008  27.547  29.908   6.659
 5357POPC   C3A68009  27.446  29.692   7.048
 5357POPC   C4A68010  27.397  29.851   7.482
 5357POPC   C1B68011  27.750  30.201   6.295
 5357POPC   C2B68012  27.895  30.263   6.730
 5357POPC   C3B68013  27.740  30.109   7.134
 5357POPC   C4B68014  27.865  29.994   7.569
 5358POPC   NC368015  26.405  34.552   5.659
 5358POPC   PO468016  26.741  34.960   5.257
 5358POPC   GL168017  26.825  34.817   5.754
 5358POPC   GL268018  26.878  34.477   5.930
 5358POPC   C1A68019  26.646  34.819   6.201
 5358POPC   D2A68020  26.779  34.884   6.601
 5358POPC   C3A68021  26.712  34.555   6.885
 5358POPC   C4A68022  26.503  34.433   7.264
 5358POPC   C1B68023  27.151  34.661   6.255
 5358POPC   C2B68024  27.239  34.657   6.696
 5358POPC   C3B68025  27.171  34.593   7.096
 5358POPC   C4B68026  26.998  34.276   7.252
 5359POPC   NC368027  21.681  40.355   5.368
 5359POPC   PO468028  21.553  39.659   5.413
 5359POPC   GL168029  21.420  39.757   5.812
 5359POPC   GL268030  21.331  40.112   5.767
 5359POPC   C1A68031  21.403  39.777   6.258
 5359POPC   D2A68032  21.529  40.146   6.500
 5359POPC   C3A68033  21.502  40.116   6.937
 5359POPC   C4A68034  21.603  39.811   7.251
 5359POPC   C1B68035  21.117  40.202   6.193
 5359POPC   C2B68036  21.089  40.386   6.638
 5359POPC   C3B68037  21.017  40.226   7.078
 5359POPC   C4B68038  21.277  40.149   7.484
 5360POPC   NC368039  42.841  21.961   5.368
 5360POPC   PO468040  43.398  22.326   5.351
 5360POPC   GL168041  43.197  22.415   5.761
 5360POPC   GL268042  43.109  22.066   5.821
 5360POPC   C1A68043  42.827  22.395   6.065
 5360POPC   D2A68044  42.895  22.168   6.454
 5360POPC   C3A68045  43.051  22.447   6.745
 5360POPC   C4A68046  43.038  22.334   7.145
 5360POPC   C1B68047  42.901  21.771   6.138
 5360POPC   C2B68048  42.999  21.647   6.585
 5360POPC   C3B68049  43.272  21.965   6.793
 5360POPC   C4B68050  43.455  22.074   7.213
 5361POPC   NC368051  30.867   2.995   4.944
 5361POPC   PO468052  30.640   2.567   5.461
 5361POPC   GL168053  30.587   2.931   5.722
 5361POPC   GL268054  30.921   2.878   5.801
 5361POPC   C1A68055  30.632   3.054   6.189
 5361POPC   D2A68056  30.692   2.778   6.563
 5361POPC   C3A68057  30.641   2.938   6.966
 5361POPC   C4A68058  30.257   3.120   7.111
 5361POPC   C1B68059  31.090   2.809   6.208
 5361POPC   C2B68060  31.181   2.646   6.598
 5361POPC   C3B68061  31.183   2.793   7.003
 5361POPC   C4B68062  30.947   2.860   7.366
 5362POPC   NC368063  35.070  21.937   5.449
 5362POPC   PO468064  34.511  22.341   5.240
 5362POPC   GL168065  34.354  22.296   5.734
 5362POPC   GL268066  34.437  22.613   5.871
 5362POPC   C1A68067  34.288  22.130   6.224
 5362POPC   D2A68068  34.479  21.902   6.654
 5362POPC   C3A68069  34.584  21.996   7.103
 5362POPC   C4A68070  34.732  22.214   7.496
 5362POPC   C1B68071  34.648  22.490   6.278
 5362POPC   C2B68072  34.531  22.407   6.722
 5362POPC   C3B68073  34.448  22.471   7.161
 5362POPC   C4B68074  34.309  22.459   7.590
 5363POPC   NC368075   8.348   3.109   5.247
 5363POPC   PO468076   8.325   2.459   5.338
 5363POPC   GL168077   8.466   2.561   5.739
 5363POPC   GL268078   8.311   2.867   5.737
 5363POPC   C1A68079   8.249   2.543   6.174
 5363POPC   D2A68080   8.264   2.371   6.598
 5363POPC   C3A68081   8.256   2.647   6.974
 5363POPC   C4A68082   7.958   2.834   7.266
 5363POPC   C1B68083   8.291   3.042   6.163
 5363POPC   C2B68084   8.119   2.933   6.543
 5363POPC   C3B68085   8.141   3.154   6.906
 5363POPC   C4B68086   8.325   3.162   7.318
 5364POPC   NC368087  13.805  26.303   5.240
 5364POPC   PO468088  13.243  25.936   5.320
 5364POPC   GL168089  13.512  26.100   5.667
 5364POPC   GL268090  13.904  26.129   5.728
 5364POPC   C1A68091  13.561  25.990   6.113
 5364POPC   D2A68092  13.477  25.980   6.569
 5364POPC   C3A68093  13.738  25.761   6.901
 5364POPC   C4A68094  13.715  25.770   7.357
 5364POPC   C1B68095  13.977  26.288   6.169
 5364POPC   C2B68096  13.773  26.418   6.557
 5364POPC   C3B68097  13.665  26.251   6.951
 5364POPC   C4B68098  13.720  26.360   7.336
 5365POPC   NC368099  10.184  32.672   5.501
 5365POPC   PO468100  10.568  33.182   5.320
 5365POPC   GL168101  10.630  32.975   5.710
 5365POPC   GL268102  10.351  33.021   5.878
 5365POPC   C1A68103  10.792  32.896   6.147
 5365POPC   D2A68104  10.581  33.037   6.511
 5365POPC   C3A68105  10.760  32.947   6.897
 5365POPC   C4A68106  10.718  33.095   7.293
 5365POPC   C1B68107  10.316  32.689   6.225
 5365POPC   C2B68108  10.092  32.715   6.611
 5365POPC   C3B68109  10.213  33.025   6.880
 5365POPC   C4B68110  10.206  33.120   7.291
 5366POPC   NC368111  11.920  14.379   5.543
 5366POPC   PO468112  12.503  14.110   5.386
 5366POPC   GL168113  12.342  14.312   5.821
 5366POPC   GL268114  12.089  14.635   5.960
 5366POPC   C1A68115  12.092  14.225   6.214
 5366POPC   D2A68116  11.908  14.244   6.612
 5366POPC   C3A68117  12.150  14.206   7.006
 5366POPC   C4A68118  12.054  14.348   7.413
 5366POPC   C1B68119  12.419  14.631   6.279
 5366POPC   C2B68120  12.284  14.615   6.714
 5366POPC   C3B68121  11.907  14.644   6.988
 5366POPC   C4B68122  11.925  14.841   7.375
 5367POPC   NC368123  17.616  11.996   5.015
 5367POPC   PO468124  17.707  11.976   5.643
 5367POPC   GL168125  17.546  12.152   5.976
 5367POPC   GL268126  17.818  12.341   6.010
 5367POPC   C1A68127  17.359  12.234   6.374
 5367POPC   D2A68128  17.502  12.205   6.792
 5367POPC   C3A68129  17.167  12.272   7.119
 5367POPC   C4A68130  17.241  12.312   7.599
 5367POPC   C1B68131  17.847  12.111   6.388
 5367POPC   C2B68132  17.955  11.783   6.636
 5367POPC   C3B68133  17.889  11.914   7.032
 5367POPC   C4B68134  17.602  12.097   7.283
 5368POPC   NC368135  18.100  25.827   5.249
 5368POPC   PO468136  18.604  26.215   5.301
 5368POPC   GL168137  18.267  26.004   5.711
 5368POPC   GL268138  18.082  25.723   5.884
 5368POPC   C1A68139  18.312  26.011   6.233
 5368POPC   D2A68140  18.412  25.867   6.677
 5368POPC   C3A68141  18.480  26.158   6.992
 5368POPC   C4A68142  18.124  26.299   7.233
 5368POPC   C1B68143  18.045  25.598   6.341
 5368POPC   C2B68144  17.909  25.779   6.737
 5368POPC   C3B68145  18.128  25.815   7.124
 5368POPC   C4B68146  18.301  25.751   7.549
 5369POPC   NC368147  29.788  11.145   5.391
 5369POPC   PO468148  30.302  11.353   5.811
 5369POPC   GL168149  30.016  11.008   5.926
 5369POPC   GL268150  29.668  11.091   5.877
 5369POPC   C1A68151  30.092  11.000   6.357
 5369POPC   D2A68152  30.342  11.207   6.686
 5369POPC   C3A68153  30.067  11.159   7.037
 5369POPC   C4A68154  29.774  11.468   7.130
 5369POPC   C1B68155  29.582  10.892   6.241
 5369POPC   C2B68156  29.622  11.028   6.672
 5369POPC   C3B68157  29.434  10.856   7.039
 5369POPC   C4B68158  29.393  11.136   7.344
 5370POPC   NC368159  24.807  40.931   5.374
 5370POPC   PO468160  24.189  40.772   5.470
 5370POPC   GL168161  24.478  40.836   5.800
 5370POPC   GL268162  24.607  41.179   5.769
 5370POPC   C1A68163  24.570  40.716   6.226
 5370POPC   D2A68164  24.398  40.892   6.604
 5370POPC   C3A68165  24.556  40.789   7.000
 5370POPC   C4A68166  24.282  40.924   7.309
 5370POPC   C1B68167  24.561  41.214   6.211
 5370POPC   C2B68168  24.858  41.104   6.537
 5370POPC   C3B68169  24.964  41.110   6.939
 5370POPC   C4B68170  24.745  41.149   7.313
 5371POPC   NC368171  38.494  10.498   5.537
 5371POPC   PO468172  38.097  10.032   5.754
 5371POPC   GL168173  38.307  10.321   6.005
 5371POPC   GL268174  38.355  10.698   6.006
 5371POPC   C1A68175  38.513  10.398   6.378
 5371POPC   D2A68176  38.587  10.257   6.730
 5371POPC   C3A68177  38.346  10.318   7.044
 5371POPC   C4A68178  38.541  10.229   7.411
 5371POPC   C1B68179  38.434  10.901   6.431
 5371POPC   C2B68180  38.473  10.782   6.873
 5371POPC   C3B68181  38.495  10.736   7.325
 5371POPC   C4B68182  38.616  10.930   7.752
 5372POPC   NC368183  25.477   1.595   5.269
 5372POPC   PO468184  25.016   1.167   5.363
 5372POPC   GL168185  25.221   1.262   5.769
 5372POPC   GL268186  25.531   1.463   5.790
 5372POPC   C1A68187  25.378   1.109   6.183
 5372POPC   D2A68188  25.191   0.919   6.548
 5372POPC   C3A68189  25.225   1.099   6.961
 5372POPC   C4A68190  25.460   1.057   7.356
 5372POPC   C1B68191  25.726   1.469   6.197
 5372POPC   C2B68192  25.657   1.324   6.621
 5372POPC   C3B68193  25.558   1.483   7.038
 5372POPC   C4B68194  25.485   1.550   7.495
 5373POPC   NC368195  41.990  42.647   5.484
 5373POPC   PO468196  41.417  42.402   5.542
 5373POPC   GL168197  41.426  42.322   5.980
 5373POPC   GL268198  41.302  42.635   6.058
 5373POPC   C1A68199  41.639  42.257   6.413
 5373POPC   D2A68200  41.936  42.248   6.787
 5373POPC   C3A68201  41.803  42.417   7.199
 5373POPC   C4A68202  41.627  42.212   7.564
 5373POPC   C1B68203  41.737  42.734   6.263
 5373POPC   C2B68204  41.763  42.718   6.728
 5373POPC   C3B68205  41.384  42.587   6.989
 5373POPC   C4B68206  41.279  42.553   7.442
 5374POPC   NC368207   7.107  24.986   5.106
 5374POPC   PO468208   6.457  25.305   5.405
 5374POPC   GL168209   6.624  25.284   5.835
 5374POPC   GL268210   6.405  24.971   5.881
 5374POPC   C1A68211   6.753  25.111   6.227
 5374POPC   D2A68212   6.676  25.351   6.584
 5374POPC   C3A68213   6.697  25.214   6.976
 5374POPC   C4A68214   6.608  25.365   7.367
 5374POPC   C1B68215   6.365  24.765   6.279
 5374POPC   C2B68216   6.383  24.872   6.721
 5374POPC   C3B68217   6.383  24.872   7.179
 5374POPC   C4B68218   6.498  24.921   7.603
 5375POPC   NC368219  19.771  18.434   5.368
 5375POPC   PO468220  19.892  17.767   5.353
 5375POPC   GL168221  19.717  18.032   5.755
 5375POPC   GL268222  19.725  18.413   5.880
 5375POPC   C1A68223  19.810  18.040   6.227
 5375POPC   D2A68224  20.125  17.940   6.561
 5375POPC   C3A68225  19.946  18.045   6.946
 5375POPC   C4A68226  19.839  17.830   7.291
 5375POPC   C1B68227  19.996  18.612   6.213
 5375POPC   C2B68228  20.293  18.575   6.590
 5375POPC   C3B68229  20.258  18.492   7.024
 5375POPC   C4B68230  19.851  18.485   7.221
 5376POPC   NC368231  36.258  33.522   5.339
 5376POPC   PO468232  35.946  34.141   5.535
 5376POPC   GL168233  36.039  33.780   5.759
 5376POPC   GL268234  35.755  33.567   5.655
 5376POPC   C1A68235  36.279  33.755   6.164
 5376POPC   D2A68236  36.423  33.946   6.591
 5376POPC   C3A68237  36.310  33.787   7.025
 5376POPC   C4A68238  36.319  33.762   7.499
 5376POPC   C1B68239  35.856  33.446   6.097
 5376POPC   C2B68240  35.883  33.653   6.487
 5376POPC   C3B68241  35.966  33.457   6.837
 5376POPC   C4B68242  35.951  33.477   7.243
 5377POPC   NC368243  25.610   6.691   5.584
 5377POPC   PO468244  26.168   6.343   5.468
 5377POPC   GL168245  26.082   6.666   5.763
 5377POPC   GL268246  26.028   6.386   5.958
 5377POPC   C1A68247  25.986   6.823   6.177
 5377POPC   D2A68248  25.838   6.614   6.535
 5377POPC   C3A68249  25.913   6.795   6.932
 5377POPC   C4A68250  25.925   6.691   7.376
 5377POPC   C1B68251  25.914   6.166   6.294
 5377POPC   C2B68252  26.132   6.213   6.641
 5377POPC   C3B68253  26.099   6.313   7.010
 5377POPC   C4B68254  25.975   6.129   7.341
 5378POPC   NC368255  30.734   7.828   5.267
 5378POPC   PO468256  30.318   8.341   5.427
 5378POPC   GL168257  30.483   8.067   5.710
 5378POPC   GL268258  30.820   7.953   5.754
 5378POPC   C1A68259  30.518   8.103   6.144
 5378POPC   D2A68260  30.331   8.240   6.528
 5378POPC   C3A68261  30.610   8.170   6.893
 5378POPC   C4A68262  30.697   8.310   7.319
 5378POPC   C1B68263  31.029   7.978   6.143
 5378POPC   C2B68264  31.144   8.157   6.529
 5378POPC   C3B68265  31.088   7.956   6.895
 5378POPC   C4B68266  30.988   7.845   7.267
 5379POPC   NC368267  19.409  25.376   5.487
 5379POPC   PO468268  20.026  25.088   5.575
 5379POPC   GL168269  20.121  25.450   5.823
 5379POPC   GL268270  19.783  25.527   5.807
 5379POPC   C1A68271  20.011  25.535   6.266
 5379POPC   D2A68272  19.839  25.370   6.627
 5379POPC   C3A68273  19.985  25.370   7.037
 5379POPC   C4A68274  19.933  24.996   7.233
 5379POPC   C1B68275  19.499  25.495   6.162
 5379POPC   C2B68276  19.401  25.158   6.472
 5379POPC   C3B68277  19.438  25.211   6.922
 5379POPC   C4B68278  19.326  24.988   7.274
 5380POPC   NC368279  32.729  20.876   5.591
 5380POPC   PO468280  33.303  20.815   5.144
 5380POPC   GL168281  33.210  20.733   5.672
 5380POPC   GL268282  32.920  20.447   5.753
 5380POPC   C1A68283  33.087  20.683   6.173
 5380POPC   D2A68284  32.909  20.705   6.614
 5380POPC   C3A68285  33.196  20.559   6.965
 5380POPC   C4A68286  33.216  20.409   7.401
 5380POPC   C1B68287  32.829  20.259   6.154
 5380POPC   C2B68288  32.534  20.357   6.486
 5380POPC   C3B68289  32.537  20.314   6.915
 5380POPC   C4B68290  32.744  20.477   7.256
 5381POPC   NC368291  12.802   2.231   5.429
 5381POPC   PO468292  12.658   1.717   5.173
 5381POPC   GL168293  12.743   1.853   5.727
 5381POPC   GL268294  12.966   2.149   5.887
 5381POPC   C1A68295  12.691   1.872   6.213
 5381POPC   D2A68296  12.914   2.021   6.598
 5381POPC   C3A68297  12.708   2.004   7.016
 5381POPC   C4A68298  12.773   1.774   7.391
 5381POPC   C1B68299  13.289   2.214   6.197
 5381POPC   C2B68300  13.300   2.353   6.623
 5381POPC   C3B68301  13.172   2.226   7.049
 5381POPC   C4B68302  13.013   2.185   7.548
 5382POPC   NC368303  43.592   4.461   5.385
 5382POPC   PO468304  44.071   4.102   5.763
 5382POPC   GL168305  43.925   4.423   6.017
 5382POPC   GL268306  43.560   4.490   5.895
 5382POPC   C1A68307  44.103   4.537   6.406
 5382POPC   D2A68308  43.887   4.208   6.610
 5382POPC   C3A68309  43.962   4.070   7.045
 5382POPC   C4A68310  44.102   4.067   7.531
 5382POPC   C1B68311  43.553   4.804   6.208
 5382POPC   C2B68312  43.741   4.843   6.618
 5382POPC   C3B68313  43.827   4.574   6.954
 5382POPC   C4B68314  43.784   4.434   7.373
 5383POPC   NC368315  36.442  39.064   5.448
 5383POPC   PO468316  37.109  39.180   5.444
 5383POPC   GL168317  36.908  39.291   5.832
 5383POPC   GL268318  36.721  38.987   5.956
 5383POPC   C1A68319  37.110  39.359   6.210
 5383POPC   D2A68320  37.071  39.193   6.626
 5383POPC   C3A68321  37.063  39.426   6.986
 5383POPC   C4A68322  37.129  39.134   7.284
 5383POPC   C1B68323  36.628  39.252   6.324
 5383POPC   C2B68324  36.596  39.386   6.731
 5383POPC   C3B68325  36.698  39.085   7.039
 5383POPC   C4B68326  36.639  39.323   7.404
 5384POPC   NC368327  28.731   4.783   5.616
 5384POPC   PO468328  28.376   4.173   5.726
 5384POPC   GL168329  28.221   4.473   6.004
 5384POPC   GL268330  28.532   4.586   6.064
 5384POPC   C1A68331  28.172   4.461   6.474
 5384POPC   D2A68332  28.301   4.138   6.753
 5384POPC   C3A68333  28.059   4.112   7.095
 5384POPC   C4A68334  28.141   4.335   7.454
 5384POPC   C1B68335  28.590   4.230   6.340
 5384POPC   C2B68336  28.645   4.555   6.662
 5384POPC   C3B68337  28.423   4.552   7.065
 5384POPC   C4B68338  28.626   4.564   7.460
 5385POPC   NC368339   4.468  42.750   5.132
 5385POPC   PO468340   4.472  42.102   5.400
 5385POPC   GL168341   4.258  42.162   5.775
 5385POPC   GL268342   4.121  42.482   5.736
 5385POPC   C1A68343   4.351  42.271   6.212
 5385POPC   D2A68344   4.105  42.080   6.551
 5385POPC   C3A68345   4.202  42.123   6.964
 5385POPC   C4A68346   4.214  41.835   7.305
 5385POPC   C1B68347   4.083  42.729   6.112
 5385POPC   C2B68348   4.140  42.639   6.542
 5385POPC   C3B68349   3.930  42.663   6.932
 5385POPC   C4B68350   4.193  42.565   7.249
 5386POPC   NC368351  13.711  10.784   5.479
 5386POPC   PO468352  13.322  10.175   5.246
 5386POPC   GL168353  13.397  10.274   5.711
 5386POPC   GL268354  13.666  10.497   5.893
 5386POPC   C1A68355  13.268  10.259   6.159
 5386POPC   D2A68356  13.330  10.538   6.518
 5386POPC   C3A68357  13.321  10.354   6.928
 5386POPC   C4A68358  13.445  10.526   7.320
 5386POPC   C1B68359  14.030  10.451   6.213
 5386POPC   C2B68360  14.033  10.445   6.680
 5386POPC   C3B68361  13.755  10.713   6.955
 5386POPC   C4B68362  13.884  10.909   7.367
 5387POPC   NC368363  10.271   2.123   5.410
 5387POPC   PO468364  10.754   1.751   5.321
 5387POPC   GL168365  10.633   1.955   5.739
 5387POPC   GL268366  10.331   1.784   5.802
 5387POPC   C1A68367  10.571   2.247   6.146
 5387POPC   D2A68368  10.622   2.061   6.598
 5387POPC   C3A68369  10.575   2.276   6.986
 5387POPC   C4A68370  10.859   2.340   7.314
 5387POPC   C1B68371  10.462   1.769   6.225
 5387POPC   C2B68372  10.725   1.557   6.503
 5387POPC   C3B68373  10.811   1.590   6.934
 5387POPC   C4B68374  10.568   1.822   7.211
 5388POPC   NC368375   5.668   2.272   5.535
 5388POPC   PO468376   6.175   1.822   5.436
 5388POPC   GL168377   5.886   1.890   5.782
 5388POPC   GL268378   6.038   2.201   5.875
 5388POPC   C1A68379   5.662   2.102   6.184
 5388POPC   D2A68380   5.875   2.138   6.580
 5388POPC   C3A68381   5.637   2.031   6.916
 5388POPC   C4A68382   5.719   2.038   7.329
 5388POPC   C1B68383   6.117   1.850   6.217
 5388POPC   C2B68384   6.177   1.663   6.618
 5388POPC   C3B68385   6.098   1.818   7.027
 5388POPC   C4B68386   6.072   1.516   7.374
 5389POPC   NC368387  17.112  23.248   5.353
 5389POPC   PO468388  16.471  23.354   5.461
 5389POPC   GL168389  16.513  23.120   5.883
 5389POPC   GL268390  16.415  22.743   5.934
 5389POPC   C1A68391  16.782  23.025   6.245
 5389POPC   D2A68392  16.709  22.782   6.625
 5389POPC   C3A68393  16.969  22.785   6.980
 5389POPC   C4A68394  16.889  23.036   7.345
 5389POPC   C1B68395  16.287  22.912   6.337
 5389POPC   C2B68396  16.392  23.200   6.657
 5389POPC   C3B68397  16.483  23.037   7.045
 5389POPC   C4B68398  16.501  22.651   7.284
 5390POPC   NC368399  37.899   1.476   5.262
 5390POPC   PO468400  37.388   1.023   5.400
 5390POPC   GL168401  37.644   1.291   5.686
 5390POPC   GL268402  37.686   1.013   5.903
 5390POPC   C1A68403  37.706   1.441   6.146
 5390POPC   D2A68404  37.696   1.173   6.447
 5390POPC   C3A68405  37.783   1.218   6.893
 5390POPC   C4A68406  37.855   1.295   7.307
 5390POPC   C1B68407  37.446   0.792   6.162
 5390POPC   C2B68408  37.276   0.845   6.542
 5390POPC   C3B68409  37.331   0.802   6.936
 5390POPC   C4B68410  37.627   0.843   7.235
 5391POPC   NC368411  14.820  26.216   5.113
 5391POPC   PO468412  14.177  26.017   5.278
 5391POPC   GL168413  14.449  26.108   5.663
 5391POPC   GL268414  14.344  25.837   5.890
 5391POPC   C1A68415  14.507  26.272   6.114
 5391POPC   D2A68416  14.358  26.365   6.543
 5391POPC   C3A68417  14.132  26.085   6.788
 5391POPC   C4A68418  14.103  26.063   7.219
 5391POPC   C1B68419  14.263  25.847   6.338
 5391POPC   C2B68420  14.471  25.701   6.720
 5391POPC   C3B68421  14.591  25.962   7.087
 5391POPC   C4B68422  14.566  26.406   7.181
 5392POPC   NC368423  37.943  38.337   5.372
 5392POPC   PO468424  38.599  38.462   5.272
 5392POPC   GL168425  38.458  38.430   5.684
 5392POPC   GL268426  38.771  38.299   5.759
 5392POPC   C1A68427  38.310  38.344   6.125
 5392POPC   D2A68428  38.355  38.539   6.519
 5392POPC   C3A68429  38.120  38.568   6.901
 5392POPC   C4A68430  38.256  38.418   7.304
 5392POPC   C1B68431  38.798  38.529   6.147
 5392POPC   C2B68432  38.859  38.413   6.574
 5392POPC   C3B68433  38.629  38.346   6.937
 5392POPC   C4B68434  38.747  38.512   7.315
 5393POPC   NC368435  39.478  29.606   5.452
 5393POPC   PO468436  39.180  28.957   5.345
 5393POPC   GL168437  39.190  29.202   5.719
 5393POPC   GL268438  39.538  29.220   5.798
 5393POPC   C1A68439  39.108  29.265   6.171
 5393POPC   D2A68440  38.752  29.341   6.430
 5393POPC   C3A68441  38.828  29.230   6.817
 5393POPC   C4A68442  38.771  29.129   7.199
 5393POPC   C1B68443  39.603  29.331   6.216
 5393POPC   C2B68444  39.404  29.189   6.603
 5393POPC   C3B68445  39.324  29.108   7.040
 5393POPC   C4B68446  39.444  29.122   7.471
 5394POPC   NC368447   9.569   1.415   5.490
 5394POPC   PO468448   9.744   0.823   5.365
 5394POPC   GL168449   9.811   1.055   5.745
 5394POPC   GL268450  10.110   1.215   5.711
 5394POPC   C1A68451   9.653   1.172   6.168
 5394POPC   D2A68452   9.526   1.042   6.588
 5394POPC   C3A68453   9.445   1.412   6.846
 5394POPC   C4A68454   9.706   1.539   7.192
 5394POPC   C1B68455  10.141   1.001   6.127
 5394POPC   C2B68456  10.053   1.010   6.580
 5394POPC   C3B68457   9.917   1.094   7.013
 5394POPC   C4B68458  10.057   0.974   7.438
 5395POPC   NC368459  31.370  40.184   5.354
 5395POPC   PO468460  31.716  39.656   5.435
 5395POPC   GL168461  31.384  39.861   5.757
 5395POPC   GL268462  31.432  40.220   5.874
 5395POPC   C1A68463  31.326  39.842   6.213
 5395POPC   D2A68464  31.472  39.992   6.608
 5395POPC   C3A68465  31.298  39.794   6.954
 5395POPC   C4A68466  31.405  39.868   7.324
 5395POPC   C1B68467  31.246  40.364   6.266
 5395POPC   C2B68468  31.344  40.503   6.673
 5395POPC   C3B68469  31.331  40.327   7.092
 5395POPC   C4B68470  31.225  40.324   7.526
 5396POPC   NC368471   1.454   8.618   5.371
 5396POPC   PO468472   0.996   8.144   5.484
 5396POPC   GL168473   1.221   8.237   5.839
 5396POPC   GL268474   0.938   8.389   5.983
 5396POPC   C1A68475   1.357   8.178   6.284
 5396POPC   D2A68476   1.423   8.396   6.670
 5396POPC   C3A68477   1.357   8.245   7.059
 5396POPC   C4A68478   1.418   7.828   7.023
 5396POPC   C1B68479   0.923   7.944   6.184
 5396POPC   C2B68480   1.062   7.810   6.607
 5396POPC   C3B68481   0.914   7.942   7.008
 5396POPC   C4B68482   0.979   8.136   7.381
 5397POPC   NC368483  17.101  13.501   5.411
 5397POPC   PO468484  16.485  13.833   5.497
 5397POPC   GL168485  16.445  13.630   5.891
 5397POPC   GL268486  16.763  13.487   5.840
 5397POPC   C1A68487  16.563  13.580   6.335
 5397POPC   D2A68488  16.342  13.750   6.699
 5397POPC   C3A68489  16.228  13.477   7.014
 5397POPC   C4A68490  16.607  13.480   7.273
 5397POPC   C1B68491  16.831  13.915   6.054
 5397POPC   C2B68492  16.822  13.972   6.507
 5397POPC   C3B68493  16.846  13.648   6.810
 5397POPC   C4B68494  17.051  13.727   7.179
 5398POPC   NC368495  39.089  38.403   5.345
 5398POPC   PO468496  38.833  38.953   5.588
 5398POPC   GL168497  39.175  38.662   5.798
 5398POPC   GL268498  39.273  38.273   5.817
 5398POPC   C1A68499  39.291  38.670   6.235
 5398POPC   D2A68500  39.102  38.866   6.594
 5398POPC   C3A68501  39.113  38.675   6.990
 5398POPC   C4A68502  39.317  38.661   7.406
 5398POPC   C1B68503  39.163  38.165   6.238
 5398POPC   C2B68504  39.369  38.269   6.622
 5398POPC   C3B68505  39.487  38.334   7.046
 5398POPC   C4B68506  39.083  38.165   7.162
 5399POPC   NC368507  40.848  34.520   5.450
 5399POPC   PO468508  40.978  35.149   5.616
 5399POPC   GL168509  40.897  34.820   5.903
 5399POPC   GL268510  40.599  34.582   5.885
 5399POPC   C1A68511  40.870  34.866   6.344
 5399POPC   D2A68512  41.021  35.075   6.741
 5399POPC   C3A68513  40.992  34.792   7.090
 5399POPC   C4A68514  40.592  34.682   7.306
 5399POPC   C1B68515  40.913  34.370   6.183
 5399POPC   C2B68516  41.033  34.477   6.629
 5399POPC   C3B68517  40.846  34.316   6.952
 5399POPC   C4B68518  40.698  34.159   7.293
 5400POPC   NC368519  31.455   2.486   5.398
 5400POPC   PO468520  31.369   3.114   5.079
 5400POPC   GL168521  31.377   3.101   5.647
 5400POPC   GL268522  31.424   2.758   5.825
 5400POPC   C1A68523  31.536   3.091   6.171
 5400POPC   D2A68524  31.609   2.920   6.647
 5400POPC   C3A68525  31.667   2.935   7.159
 5400POPC   C4A68526  31.868   2.718   7.552
 5400POPC   C1B68527  31.483   2.476   6.212
 5400POPC   C2B68528  31.374   2.184   6.563
 5400POPC   C3B68529  31.269   2.305   6.980
 5400POPC   C4B68530  31.419   2.521   7.364
 5401POPC   NC368531   9.348  27.456   5.660
 5401POPC   PO468532   9.958  27.588   5.455
 5401POPC   GL168533   9.904  27.531   5.886
 5401POPC   GL268534   9.822  27.885   5.937
 5401POPC   C1A68535   9.825  27.523   6.356
 5401POPC   D2A68536   9.654  27.452   6.808
 5401POPC   C3A68537   9.929  27.432   7.207
 5401POPC   C4A68538   9.843  27.277   7.618
 5401POPC   C1B68539   9.497  27.955   6.282
 5401POPC   C2B68540   9.557  28.087   6.716
 5401POPC   C3B68541   9.698  27.868   7.109
 5401POPC   C4B68542   9.610  27.768   7.567
 5402POPC   NC368543   4.354  35.261   5.570
 5402POPC   PO468544   3.953  35.702   5.244
 5402POPC   GL168545   3.959  35.482   5.750
 5402POPC   GL268546   4.216  35.555   6.022
 5402POPC   C1A68547   3.960  35.154   6.128
 5402POPC   D2A68548   4.165  35.311   6.503
 5402POPC   C3A68549   4.165  35.135   6.899
 5402POPC   C4A68550   4.178  35.460   7.163
 5402POPC   C1B68551   4.559  35.250   6.168
 5402POPC   C2B68552   4.744  35.199   6.549
 5402POPC   C3B68553   4.623  35.424   6.909
 5402POPC   C4B68554   4.808  35.321   7.287
 5403POPC   NC368555  10.691  15.436   5.446
 5403POPC   PO468556  10.273  14.972   5.453
 5403POPC   GL168557  10.453  15.109   5.826
 5403POPC   GL268558  10.788  14.960   5.763
 5403POPC   C1A68559  10.325  15.054   6.272
 5403POPC   D2A68560  10.372  15.230   6.673
 5403POPC   C3A68561  10.440  14.967   7.037
 5403POPC   C4A68562  10.170  14.642   7.141
 5403POPC   C1B68563  10.827  15.084   6.196
 5403POPC   C2B68564  10.879  15.213   6.586
 5403POPC   C3B68565  10.785  15.331   6.983
 5403POPC   C4B68566  10.726  15.197   7.404
 5404POPC   NC368567  10.764   3.703   5.532
 5404POPC   PO468568  10.288   3.322   5.429
 5404POPC   GL168569  10.364   3.382   5.849
 5404POPC   GL268570  10.347   3.728   5.846
 5404POPC   C1A68571  10.410   3.471   6.308
 5404POPC   D2A68572  10.308   3.617   6.716
 5404POPC   C3A68573  10.504   3.294   6.937
 5404POPC   C4A68574  10.458   3.125   7.312
 5404POPC   C1B68575  10.622   3.917   6.194
 5404POPC   C2B68576  10.829   3.886   6.577
 5404POPC   C3B68577  10.796   3.731   6.964
 5404POPC   C4B68578  10.525   3.641   7.326
 5405POPC   NC368579  22.499  44.830   5.311
 5405POPC   PO468580  23.207  44.736   5.305
 5405POPC   GL168581  23.019  44.661   5.714
 5405POPC   GL268582  23.049  44.309   5.727
 5405POPC   C1A68583  22.977  44.824   6.138
 5405POPC   D2A68584  22.792   0.076   6.468
 5405POPC   C3A68585  22.798  44.807   6.810
 5405POPC   C4A68586  22.933  44.747   7.216
 5405POPC   C1B68587  22.958  44.286   6.187
 5405POPC   C2B68588  23.089  44.198   6.641
 5405POPC   C3B68589  23.311  44.425   6.977
 5405POPC   C4B68590  23.461  44.812   7.131
 5406POPC   NC368591  14.779  18.904   5.402
 5406POPC   PO468592  14.133  19.154   5.428
 5406POPC   GL168593  14.431  19.091   5.783
 5406POPC   GL268594  14.630  19.373   5.873
 5406POPC   C1A68595  14.376  18.954   6.226
 5406POPC   D2A68596  14.118  19.102   6.603
 5406POPC   C3A68597  14.230  19.018   7.005
 5406POPC   C4A68598  14.335  18.969   7.441
 5406POPC   C1B68599  14.822  19.265   6.232
 5406POPC   C2B68600  14.697  19.184   6.619
 5406POPC   C3B68601  14.893  19.318   6.987
 5406POPC   C4B68602  14.790  19.085   7.282
 5407POPC   NC368603  10.031   3.812   5.435
 5407POPC   PO468604   9.515   3.357   5.403
 5407POPC   GL168605   9.836   3.432   5.723
 5407POPC   GL268606   9.788   3.770   5.876
 5407POPC   C1A68607   9.939   3.381   6.161
 5407POPC   D2A68608   9.817   3.603   6.528
 5407POPC   C3A68609   9.815   3.373   6.870
 5407POPC   C4A68610  10.048   3.395   7.205
 5407POPC   C1B68611  10.083   3.891   6.221
 5407POPC   C2B68612  10.014   4.066   6.645
 5407POPC   C3B68613   9.902   3.860   7.027
 5407POPC   C4B68614  10.016   3.816   7.492
 5408POPC   NC368615   8.432   4.509   5.584
 5408POPC   PO468616   7.994   4.075   5.196
 5408POPC   GL168617   8.032   4.061   5.718
 5408POPC   GL268618   8.346   4.204   5.955
 5408POPC   C1A68619   8.038   3.908   6.177
 5408POPC   D2A68620   8.061   4.206   6.512
 5408POPC   C3A68621   8.150   4.115   6.916
 5408POPC   C4A68622   8.127   4.038   7.326
 5408POPC   C1B68623   8.583   4.476   6.260
 5408POPC   C2B68624   8.463   4.524   6.685
 5408POPC   C3B68625   8.508   4.460   7.124
 5408POPC   C4B68626   8.436   4.833   7.322
 5409POPC   NC368627  41.283   7.868   5.348
 5409POPC   PO468628  41.568   8.464   5.432
 5409POPC   GL168629  41.412   8.273   5.807
 5409POPC   GL268630  41.437   7.930   5.834
 5409POPC   C1A68631  41.594   8.198   6.223
 5409POPC   D2A68632  41.440   8.171   6.626
 5409POPC   C3A68633  41.742   8.028   6.949
 5409POPC   C4A68634  41.605   8.283   7.288
 5409POPC   C1B68635  41.318   7.763   6.261
 5409POPC   C2B68636  41.364   7.675   6.690
 5409POPC   C3B68637  41.259   7.884   7.059
 5409POPC   C4B68638  41.426   7.817   7.437
 5410POPC   NC368639  15.891  42.510   5.385
 5410POPC   PO468640  16.518  42.467   5.589
 5410POPC   GL168641  16.118  42.333   5.801
 5410POPC   GL268642  15.788  42.582   5.898
 5410POPC   C1A68643  15.975  42.240   6.195
 5410POPC   D2A68644  15.981  42.475   6.544
 5410POPC   C3A68645  16.024  42.276   6.929
 5410POPC   C4A68646  16.051  41.935   7.205
 5410POPC   C1B68647  15.517  42.444   6.286
 5410POPC   C2B68648  15.574  42.209   6.696
 5410POPC   C3B68649  15.579  42.254   7.169
 5410POPC   C4B68650  15.429  42.646   7.390
 5411POPC   NC368651  36.184   5.611   5.428
 5411POPC   PO468652  35.953   6.186   5.316
 5411POPC   GL168653  36.236   6.032   5.772
 5411POPC   GL268654  36.445   5.668   5.853
 5411POPC   C1A68655  36.212   5.873   6.259
 5411POPC   D2A68656  36.010   5.727   6.678
 5411POPC   C3A68657  36.008   6.008   7.074
 5411POPC   C4A68658  35.884   6.002   7.518
 5411POPC   C1B68659  36.588   5.488   6.232
 5411POPC   C2B68660  36.562   5.664   6.639
 5411POPC   C3B68661  36.376   5.656   7.031
 5411POPC   C4B68662  36.325   5.752   7.470
 5412POPC   NC368663  40.096  26.966   5.110
 5412POPC   PO468664  40.244  26.622   5.666
 5412POPC   GL168665  40.188  26.842   5.976
 5412POPC   GL268666  39.842  26.685   5.965
 5412POPC   C1A68667  40.183  26.883   6.351
 5412POPC   D2A68668  40.135  26.492   6.492
 5412POPC   C3A68669  40.096  26.598   6.854
 5412POPC   C4A68670  40.144  26.702   7.234
 5412POPC   C1B68671  39.686  26.573   6.307
 5412POPC   C2B68672  39.730  26.894   6.588
 5412POPC   C3B68673  39.812  27.050   6.990
 5412POPC   C4B68674  39.672  26.823   7.318
 5413POPC   NC368675  39.193  26.376   5.446
 5413POPC   PO468676  39.611  25.865   5.504
 5413POPC   GL168677  39.300  26.040   5.820
 5413POPC   GL268678  39.308  26.403   5.985
 5413POPC   C1A68679  39.074  25.979   6.205
 5413POPC   D2A68680  39.046  25.874   6.645
 5413POPC   C3A68681  39.202  26.149   6.978
 5413POPC   C4A68682  39.170  26.107   7.448
 5413POPC   C1B68683  39.278  26.351   6.487
 5413POPC   C2B68684  39.626  26.398   6.804
 5413POPC   C3B68685  39.592  26.347   7.245
 5413POPC   C4B68686  39.409  26.518   7.660
 5414POPC   NC368687  23.536  39.198   5.373
 5414POPC   PO468688  24.134  38.875   5.545
 5414POPC   GL168689  23.863  39.156   5.798
 5414POPC   GL268690  23.486  39.107   5.863
 5414POPC   C1A68691  23.781  39.346   6.206
 5414POPC   D2A68692  23.700  39.108   6.553
 5414POPC   C3A68693  23.705  39.280   6.937
 5414POPC   C4A68694  23.817  39.061   7.288
 5414POPC   C1B68695  23.342  38.913   6.230
 5414POPC   C2B68696  23.230  38.944   6.679
 5414POPC   C3B68697  23.313  39.005   7.132
 5414POPC   C4B68698  23.374  39.191   7.557
 5415POPC   NC368699  10.606  11.906   5.358
 5415POPC   PO468700  10.910  12.526   5.438
 5415POPC   GL168701  10.637  12.268   5.759
 5415POPC   GL268702  10.747  11.943   5.849
 5415POPC   C1A68703  10.360  12.323   6.132
 5415POPC   D2A68704  10.317  12.178   6.572
 5415POPC   C3A68705  10.340  12.445   6.941
 5415POPC   C4A68706  10.497  12.302   7.313
 5415POPC   C1B68707  10.575  11.804   6.224
 5415POPC   C2B68708  10.724  11.749   6.621
 5415POPC   C3B68709  10.565  11.909   6.989
 5415POPC   C4B68710  10.652  11.789   7.401
 5416POPC   NC368711  39.692  14.597   5.592
 5416POPC   PO468712  40.365  14.580   5.418
 5416POPC   GL168713  40.293  14.655   5.858
 5416POPC   GL268714  39.979  14.666   6.004
 5416POPC   C1A68715  40.410  14.524   6.249
 5416POPC   D2A68716  40.229  14.654   6.627
 5416POPC   C3A68717  40.046  14.361   6.935
 5416POPC   C4A68718  40.081  14.435   7.383
 5416POPC   C1B68719  39.744  14.338   6.203
 5416POPC   C2B68720  39.690  14.131   6.581
 5416POPC   C3B68721  39.463  14.157   6.925
 5416POPC   C4B68722  39.564  14.306   7.324
 5417POPC   NC368723  30.509  21.285   5.567
 5417POPC   PO468724  31.058  21.711   5.638
 5417POPC   GL168725  30.653  21.640   5.917
 5417POPC   GL268726  30.686  21.269   6.040
 5417POPC   C1A68727  30.429  21.573   6.338
 5417POPC   D2A68728  30.498  21.252   6.658
 5417POPC   C3A68729  30.598  21.444   7.056
 5417POPC   C4A68730  30.967  21.472   7.288
 5417POPC   C1B68731  30.838  20.965   6.345
 5417POPC   C2B68732  30.805  20.852   6.784
 5417POPC   C3B68733  30.694  20.974   7.207
 5417POPC   C4B68734  30.583  21.206   7.577
 5418POPC   NC368735  18.985  12.118   5.373
 5418POPC   PO468736  19.300  11.619   5.597
 5418POPC   GL168737  19.136  11.896   5.832
 5418POPC   GL268738  18.778  11.830   5.753
 5418POPC   C1A68739  19.290  12.096   6.210
 5418POPC   D2A68740  19.372  11.889   6.603
 5418POPC   C3A68741  19.273  12.117   6.926
 5418POPC   C4A68742  19.200  11.990   7.303
 5418POPC   C1B68743  18.751  12.046   6.135
 5418POPC   C2B68744  18.863  11.999   6.554
 5418POPC   C3B68745  18.805  11.912   6.970
 5418POPC   C4B68746  18.766  12.275   7.224
 5419POPC   NC368747  13.143   9.812   5.507
 5419POPC   PO468748  12.489   9.625   5.184
 5419POPC   GL168749  12.682   9.625   5.640
 5419POPC   GL268750  12.498   9.850   5.845
 5419POPC   C1A68751  12.922   9.641   6.090
 5419POPC   D2A68752  13.229   9.589   6.470
 5419POPC   C3A68753  13.167   9.871   6.827
 5419POPC   C4A68754  12.798   9.925   7.071
 5419POPC   C1B68755  12.475   9.821   6.285
 5419POPC   C2B68756  12.711   9.723   6.605
 5419POPC   C3B68757  12.883   9.418   6.844
 5419POPC   C4B68758  12.844   9.430   7.245
 5420POPC   NC368759   7.714  33.156   5.505
 5420POPC   PO468760   7.485  32.566   5.489
 5420POPC   GL168761   7.429  32.895   5.832
 5420POPC   GL268762   7.253  33.236   5.761
 5420POPC   C1A68763   7.701  33.135   6.134
 5420POPC   D2A68764   7.683  33.221   6.560
 5420POPC   C3A68765   7.428  33.003   6.836
 5420POPC   C4A68766   7.331  32.877   7.250
 5420POPC   C1B68767   7.245  33.347   6.227
 5420POPC   C2B68768   7.220  33.481   6.673
 5420POPC   C3B68769   7.186  33.353   7.132
 5420POPC   C4B68770   7.164  33.235   7.558
 5421POPC   NC368771   9.012  31.086   5.615
 5421POPC   PO468772   9.120  31.743   5.563
 5421POPC   GL168773   8.849  31.601   5.892
 5421POPC   GL268774   8.621  31.313   5.851
 5421POPC   C1A68775   8.798  31.518   6.331
 5421POPC   D2A68776   9.146  31.408   6.615
 5421POPC   C3A68777   9.108  31.522   7.046
 5421POPC   C4A68778   8.728  31.517   7.257
 5421POPC   C1B68779   8.744  31.008   6.201
 5421POPC   C2B68780   8.747  31.085   6.618
 5421POPC   C3B68781   8.814  31.069   7.039
 5421POPC   C4B68782   8.757  31.043   7.504
 5422POPC   NC368783  16.174  27.966   5.187
 5422POPC   PO468784  15.790  27.503   5.505
 5422POPC   GL168785  15.906  27.417   5.917
 5422POPC   GL268786  16.087  27.088   5.937
 5422POPC   C1A68787  15.945  27.735   6.242
 5422POPC   D2A68788  15.649  27.866   6.541
 5422POPC   C3A68789  15.695  27.681   6.924
 5422POPC   C4A68790  15.742  27.807   7.336
 5422POPC   C1B68791  16.299  27.351   6.246
 5422POPC   C2B68792  16.192  27.561   6.667
 5422POPC   C3B68793  16.150  27.555   7.138
 5422POPC   C4B68794  16.091  27.595   7.630
 5423POPC   NC368795   7.064  19.613   5.484
 5423POPC   PO468796   7.689  19.971   5.469
 5423POPC   GL168797   7.390  19.879   5.809
 5423POPC   GL268798   7.400  19.553   5.859
 5423POPC   C1A68799   7.187  19.796   6.234
 5423POPC   D2A68800   7.395  19.747   6.615
 5423POPC   C3A68801   7.180  19.748   6.976
 5423POPC   C4A68802   7.021  19.746   7.383
 5423POPC   C1B68803   7.693  19.569   6.203
 5423POPC   C2B68804   7.808  19.449   6.617
 5423POPC   C3B68805   7.693  19.565   7.058
 5423POPC   C4B68806   7.565  19.697   7.474
 5424POPC   NC368807   9.169  42.382   4.998
 5424POPC   PO468808   9.156  42.194   5.642
 5424POPC   GL168809   9.057  42.404   5.992
 5424POPC   GL268810   8.943  42.139   6.136
 5424POPC   C1A68811   9.133  42.470   6.454
 5424POPC   D2A68812   8.786  42.607   6.685
 5424POPC   C3A68813   8.882  42.423   7.064
 5424POPC   C4A68814   8.821  42.491   7.487
 5424POPC   C1B68815   9.359  42.021   6.254
 5424POPC   C2B68816   9.326  41.782   6.591
 5424POPC   C3B68817   9.037  41.941   6.864
 5424POPC   C4B68818   9.324  42.145   7.157
 5425POPC   NC368819   1.996  16.412   5.158
 5425POPC   PO468820   2.067  17.063   5.458
 5425POPC   GL168821   1.971  16.810   5.789
 5425POPC   GL268822   2.261  16.864   5.947
 5425POPC   C1A68823   1.796  16.886   6.221
 5425POPC   D2A68824   1.603  16.970   6.659
 5425POPC   C3A68825   1.756  16.715   7.038
 5425POPC   C4A68826   1.874  16.282   7.195
 5425POPC   C1B68827   2.311  16.756   6.346
 5425POPC   C2B68828   2.107  16.865   6.677
 5425POPC   C3B68829   2.202  16.993   7.054
 5425POPC   C4B68830   2.209  16.671   7.330
 5426POPC   NC368831  39.325   4.838   5.426
 5426POPC   PO468832  39.397   4.181   5.186
 5426POPC   GL168833  39.345   4.243   5.684
 5426POPC   GL268834  39.466   4.557   5.833
 5426POPC   C1A68835  39.293   4.202   6.179
 5426POPC   D2A68836  39.265   4.530   6.542
 5426POPC   C3A68837  39.066   4.480   6.958
 5426POPC   C4A68838  39.188   4.187   7.259
 5426POPC   C1B68839  39.686   4.534   6.239
 5426POPC   C2B68840  39.816   4.632   6.654
 5426POPC   C3B68841  39.562   4.486   6.986
 5426POPC   C4B68842  39.395   4.631   7.394
 5427POPC   NC368843  32.561   1.675   5.540
 5427POPC   PO468844  32.268   2.241   5.344
 5427POPC   GL168845  32.523   2.182   5.703
 5427POPC   GL268846  32.324   1.928   5.909
 5427POPC   C1A68847  32.619   2.254   6.136
 5427POPC   D2A68848  32.479   1.979   6.457
 5427POPC   C3A68849  32.246   2.161   6.782
 5427POPC   C4A68850  32.215   1.990   7.177
 5427POPC   C1B68851  32.147   1.637   6.208
 5427POPC   C2B68852  32.157   1.522   6.636
 5427POPC   C3B68853  31.843   1.592   6.955
 5427POPC   C4B68854  31.827   1.728   7.365
 5428POPC   NC368855  27.185   6.838   5.518
 5428POPC   PO468856  27.629   6.398   5.362
 5428POPC   GL168857  27.553   6.554   5.782
 5428POPC   GL268858  27.271   6.379   5.853
 5428POPC   C1A68859  27.506   6.859   6.148
 5428POPC   D2A68860  27.690   7.018   6.554
 5428POPC   C3A68861  27.715   6.826   6.966
 5428POPC   C4A68862  27.750   6.668   7.386
 5428POPC   C1B68863  27.339   6.402   6.327
 5428POPC   C2B68864  27.283   6.683   6.693
 5428POPC   C3B68865  27.299   6.623   7.165
 5428POPC   C4B68866  27.196   6.378   7.562
 5429POPC   NC368867   5.129  18.551   5.357
 5429POPC   PO468868   5.278  17.780   5.383
 5429POPC   GL168869   5.284  18.158   5.720
 5429POPC   GL268870   5.015  18.368   5.809
 5429POPC   C1A68871   5.348  18.285   6.181
 5429POPC   D2A68872   4.956  18.133   6.404
 5429POPC   C3A68873   4.985  18.108   6.825
 5429POPC   C4A68874   5.275  18.309   7.018
 5429POPC   C1B68875   4.936  18.589   6.184
 5429POPC   C2B68876   5.081  18.602   6.616
 5429POPC   C3B68877   4.858  18.692   6.990
 5429POPC   C4B68878   4.899  18.471   7.334
 5430POPC   NC368879  33.004  15.816   5.385
 5430POPC   PO468880  33.112  16.437   5.314
 5430POPC   GL168881  33.156  16.197   5.739
 5430POPC   GL268882  33.172  15.834   5.854
 5430POPC   C1A68883  33.184  16.205   6.226
 5430POPC   D2A68884  32.960  16.333   6.655
 5430POPC   C3A68885  33.083  16.131   7.077
 5430POPC   C4A68886  33.192  15.904   7.445
 5430POPC   C1B68887  33.063  15.711   6.270
 5430POPC   C2B68888  32.895  15.834   6.694
 5430POPC   C3B68889  32.665  15.794   7.139
 5430POPC   C4B68890  32.409  15.721   7.543
 5431POPC   NC368891  35.286  15.448   5.517
 5431POPC   PO468892  34.972  14.772   5.565
 5431POPC   GL168893  35.154  15.089   5.840
 5431POPC   GL268894  35.538  15.144   5.842
 5431POPC   C1A68895  35.232  15.366   6.196
 5431POPC   D2A68896  35.439  15.276   6.571
 5431POPC   C3A68897  35.172  15.112   6.878
 5431POPC   C4A68898  35.138  15.243   7.298
 5431POPC   C1B68899  35.651  14.961   6.232
 5431POPC   C2B68900  35.758  14.886   6.675
 5431POPC   C3B68901  35.663  15.130   7.044
 5431POPC   C4B68902  35.508  14.927   7.408
 5432POPC   NC368903  26.638  40.189   5.165
 5432POPC   PO468904  27.255  39.977   5.360
 5432POPC   GL168905  26.969  39.877   5.683
 5432POPC   GL268906  26.608  39.840   5.670
 5432POPC   C1A68907  26.955  39.745   6.106
 5432POPC   D2A68908  27.012  39.982   6.476
 5432POPC   C3A68909  26.878  39.889   6.901
 5432POPC   C4A68910  26.693  40.247   7.164
 5432POPC   C1B68911  26.567  40.067   6.101
 5432POPC   C2B68912  26.485  40.027   6.574
 5432POPC   C3B68913  26.370  39.887   7.000
 5432POPC   C4B68914  26.543  39.887   7.475
 5433POPC   NC368915  19.714  34.294   5.332
 5433POPC   PO468916  19.807  34.928   5.594
 5433POPC   GL168917  19.747  34.509   5.828
 5433POPC   GL268918  19.453  34.247   5.759
 5433POPC   C1A68919  20.052  34.544   6.187
 5433POPC   D2A68920  20.058  34.873   6.498
 5433POPC   C3A68921  19.963  34.723   6.912
 5433POPC   C4A68922  20.053  34.638   7.348
 5433POPC   C1B68923  19.365  34.261   6.168
 5433POPC   C2B68924  19.568  34.524   6.453
 5433POPC   C3B68925  19.468  34.504   6.858
 5433POPC   C4B68926  19.696  34.333   7.178
 5434POPC   NC368927  44.565  16.210   5.484
 5434POPC   PO468928  44.701  16.887   5.436
 5434POPC   GL168929  44.657  16.647   5.849
 5434POPC   GL268930  44.326  16.472   5.864
 5434POPC   C1A68931  44.786  16.544   6.296
 5434POPC   D2A68932  44.921  16.804   6.660
 5434POPC   C3A68933  44.774  16.740   7.091
 5434POPC   C4A68934  44.941  16.883   7.450
 5434POPC   C1B68935  44.289  16.725   6.243
 5434POPC   C2B68936  44.427  16.714   6.655
 5434POPC   C3B68937  44.271  16.669   7.044
 5434POPC   C4B68938  44.311  16.307   7.281
 5435POPC   NC368939  35.666   1.754   5.499
 5435POPC   PO468940  35.267   2.204   5.142
 5435POPC   GL168941  35.155   2.045   5.597
 5435POPC   GL268942  35.446   2.078   5.798
 5435POPC   C1A68943  35.031   2.082   6.081
 5435POPC   D2A68944  34.938   2.173   6.536
 5435POPC   C3A68945  35.098   2.063   6.922
 5435POPC   C4A68946  35.012   1.968   7.336
 5435POPC   C1B68947  35.511   1.878   6.200
 5435POPC   C2B68948  35.521   2.039   6.616
 5435POPC   C3B68949  35.553   1.880   7.047
 5435POPC   C4B68950  35.763   2.145   7.339
 5436POPC   NC368951  24.606  17.877   5.096
 5436POPC   PO468952  24.411  18.364   5.554
 5436POPC   GL168953  24.552  18.183   5.924
 5436POPC   GL268954  24.219  18.106   6.003
 5436POPC   C1A68955  24.703  18.380   6.322
 5436POPC   D2A68956  24.587  18.671   6.672
 5436POPC   C3A68957  24.609  18.526   7.088
 5436POPC   C4A68958  24.695  18.567   7.545
 5436POPC   C1B68959  24.277  18.119   6.424
 5436POPC   C2B68960  24.436  18.133   6.811
 5436POPC   C3B68961  24.333  18.131   7.239
 5436POPC   C4B68962  24.204  18.362   7.604
 5437POPC   NC368963  37.267  44.035   5.407
 5437POPC   PO468964  36.702  43.755   5.780
 5437POPC   GL168965  37.004  43.795   6.017
 5437POPC   GL268966  37.086  44.145   5.870
 5437POPC   C1A68967  36.898  43.598   6.426
 5437POPC   D2A68968  36.698  43.641   6.816
 5437POPC   C3A68969  37.000  43.810   7.140
 5437POPC   C4A68970  37.365  43.743   7.428
 5437POPC   C1B68971  36.849  44.212   6.255
 5437POPC   C2B68972  36.939  44.084   6.688
 5437POPC   C3B68973  36.919  44.311   7.098
 5437POPC   C4B68974  36.633  44.272   7.442
 5438POPC   NC368975   9.509  43.224   5.360
 5438POPC   PO468976  10.161  43.070   5.513
 5438POPC   GL168977   9.815  43.206   5.781
 5438POPC   GL268978   9.791  42.888   5.809
 5438POPC   C1A68979   9.572  43.127   6.198
 5438POPC   D2A68980   9.816  43.147   6.581
 5438POPC   C3A68981   9.536  43.143   6.962
 5438POPC   C4A68982   9.712  43.296   7.363
 5438POPC   C1B68983  10.023  42.787   6.200
 5438POPC   C2B68984  10.071  42.611   6.618
 5438POPC   C3B68985   9.977  42.859   6.972
 5438POPC   C4B68986   9.746  42.802   7.322
 5439POPC   NC368987  24.584  21.259   5.453
 5439POPC   PO468988  24.003  21.403   5.640
 5439POPC   GL168989  24.369  21.266   5.921
 5439POPC   GL268990  24.706  21.047   5.889
 5439POPC   C1A68991  24.349  21.442   6.311
 5439POPC   D2A68992  24.269  21.699   6.628
 5439POPC   C3A68993  24.187  21.402   6.921
 5439POPC   C4A68994  24.422  21.286   7.235
 5439POPC   C1B68995  24.809  21.255   6.275
 5439POPC   C2B68996  24.642  21.239   6.694
 5439POPC   C3B68997  24.880  21.197   7.042
 5439POPC   C4B68998  24.803  20.976   7.421
 5440POPC   NC368999   5.307  14.744   5.543
 5440POPC   PO469000   5.178  14.168   5.426
 5440POPC   GL169001   5.076  14.368   5.833
 5440POPC   GL269002   5.028  14.066   5.932
 5440POPC   C1A69003   4.992  14.572   6.223
 5440POPC   D2A69004   5.134  14.732   6.622
 5440POPC   C3A69005   5.051  14.497   6.987
 5440POPC   C4A69006   4.821  14.453   7.378
 5440POPC   C1B69007   5.316  14.095   6.225
 5440POPC   C2B69008   5.170  14.156   6.599
 5440POPC   C3B69009   5.326  14.012   6.957
 5440POPC   C4B69010   5.233  14.167   7.344
 5441POPC   NC369011   7.365  44.176   5.337
 5441POPC   PO469012   7.350  43.536   5.377
 5441POPC   GL169013   7.368  43.819   5.757
 5441POPC   GL269014   7.630  44.091   5.772
 5441POPC   C1A69015   7.251  43.796   6.206
 5441POPC   D2A69016   7.149  43.984   6.619
 5441POPC   C3A69017   7.180  43.785   7.020
 5441POPC   C4A69018   7.503  43.628   7.216
 5441POPC   C1B69019   7.686  44.269   6.185
 5441POPC   C2B69020   7.548  44.298   6.630
 5441POPC   C3B69021   7.521  44.188   7.100
 5441POPC   C4B69022   7.676  44.300   7.539
 5442POPC   NC369023  43.490  42.290   5.575
 5442POPC   PO469024  44.128  42.291   5.351
 5442POPC   GL169025  43.989  42.203   5.778
 5442POPC   GL269026  43.897  42.533   5.891
 5442POPC   C1A69027  43.955  42.173   6.262
 5442POPC   D2A69028  44.039  41.967   6.676
 5442POPC   C3A69029  43.884  42.066   7.108
 5442POPC   C4A69030  43.703  42.242   7.539
 5442POPC   C1B69031  44.134  42.683   6.252
 5442POPC   C2B69032  44.111  42.834   6.684
 5442POPC   C3B69033  44.068  42.543   7.027
 5442POPC   C4B69034  43.993  42.630   7.451
 5443POPC   NC369035  29.599  29.450   5.477
 5443POPC   PO469036  29.700  28.871   5.187
 5443POPC   GL169037  29.733  28.965   5.694
 5443POPC   GL269038  29.974  29.248   5.810
 5443POPC   C1A69039  29.855  28.929   6.195
 5443POPC   D2A69040  29.799  29.147   6.603
 5443POPC   C3A69041  29.854  28.915   6.993
 5443POPC   C4A69042  29.626  28.904   7.345
 5443POPC   C1B69043  29.665  29.415   6.161
 5443POPC   C2B69044  29.549  29.659   6.554
 5443POPC   C3B69045  29.452  29.614   6.996
 5443POPC   C4B69046  29.771  29.387   7.201
 5444POPC   NC369047   9.469  16.665   5.506
 5444POPC   PO469048  10.128  16.333   5.606
 5444POPC   GL169049   9.882  16.699   5.807
 5444POPC   GL269050   9.564  16.866   5.942
 5444POPC   C1A69051   9.981  16.881   6.229
 5444POPC   D2A69052   9.920  17.052   6.626
 5444POPC   C3A69053   9.832  16.784   6.988
 5444POPC   C4A69054  10.100  16.406   7.057
 5444POPC   C1B69055   9.461  16.845   6.362
 5444POPC   C2B69056   9.317  16.636   6.705
 5444POPC   C3B69057   9.324  16.670   7.115
 5444POPC   C4B69058   9.480  17.002   7.356
 5445POPC   NC369059  43.435   2.900   5.353
 5445POPC   PO469060  44.079   2.566   5.206
 5445POPC   GL169061  43.897   2.676   5.609
 5445POPC   GL269062  44.231   2.737   5.748
 5445POPC   C1A69063  43.825   2.707   6.071
 5445POPC   D2A69064  43.914   2.596   6.511
 5445POPC   C3A69065  43.783   2.769   6.903
 5445POPC   C4A69066  43.905   2.594   7.306
 5445POPC   C1B69067  44.282   2.887   6.191
 5445POPC   C2B69068  44.410   2.844   6.618
 5445POPC   C3B69069  44.299   2.837   7.060
 5445POPC   C4B69070  43.968   3.103   7.244
 5446POPC   NC369071  16.174   7.486   5.459
 5446POPC   PO469072  15.999   6.927   5.257
 5446POPC   GL169073  15.874   7.155   5.708
 5446POPC   GL269074  15.732   7.532   5.752
 5446POPC   C1A69075  16.005   7.304   6.172
 5446POPC   D2A69076  16.050   7.116   6.626
 5446POPC   C3A69077  16.120   7.364   6.997
 5446POPC   C4A69078  15.879   7.328   7.371
 5446POPC   C1B69079  15.640   7.685   6.187
 5446POPC   C2B69080  15.813   7.746   6.640
 5446POPC   C3B69081  15.770   7.757   7.112
 5446POPC   C4B69082  15.934   7.811   7.560
 5447POPC   NC369083  44.236  36.874   5.077
 5447POPC   PO469084  44.823  36.945   5.398
 5447POPC   GL169085  44.760  36.959   5.901
 5447POPC   GL269086  44.665  36.616   5.910
 5447POPC   C1A69087  44.628  36.905   6.326
 5447POPC   D2A69088  44.396  36.753   6.652
 5447POPC   C3A69089  44.647  36.779   6.977
 5447POPC   C4A69090  44.609  36.998   7.316
 5447POPC   C1B69091  44.990  36.531   6.285
 5447POPC   C2B69092   0.105  36.652   6.754
 5447POPC   C3B69093   0.057  36.605   7.243
 5447POPC   C4B69094  44.999  36.508   7.702
 5448POPC   NC369095  37.734  10.235   5.532
 5448POPC   PO469096  37.378  10.787   5.438
 5448POPC   GL169097  37.516  10.612   5.802
 5448POPC   GL269098  37.861  10.578   5.883
 5448POPC   C1A69099  37.368  10.596   6.199
 5448POPC   D2A69100  37.464  10.689   6.622
 5448POPC   C3A69101  37.402  10.340   6.917
 5448POPC   C4A69102  37.526  10.352   7.351
 5448POPC   C1B69103  37.842  10.817   6.261
 5448POPC   C2B69104  38.008  10.709   6.654
 5448POPC   C3B69105  37.872  10.606   7.053
 5448POPC   C4B69106  37.870  10.708   7.479
 5449POPC   NC369107  44.004   5.199   5.407
 5449POPC   PO469108  44.059   4.530   5.303
 5449POPC   GL169109  43.943   4.837   5.743
 5449POPC   GL269110  43.719   5.183   5.837
 5449POPC   C1A69111  44.012   5.014   6.194
 5449POPC   D2A69112  44.075   5.234   6.569
 5449POPC   C3A69113  44.219   4.934   6.898
 5449POPC   C4A69114  44.020   4.887   7.294
 5449POPC   C1B69115  43.468   5.313   6.227
 5449POPC   C2B69116  43.545   5.319   6.697
 5449POPC   C3B69117  43.563   5.026   7.071
 5449POPC   C4B69118  43.628   5.150   7.504
 5450POPC   NC369119  14.130   1.369   5.371
 5450POPC   PO469120  13.482   1.298   5.265
 5450POPC   GL169121  13.697   1.400   5.701
 5450POPC   GL269122  13.962   1.694   5.765
 5450POPC   C1A69123  13.585   1.169   6.107
 5450POPC   D2A69124  13.363   1.253   6.504
 5450POPC   C3A69125  13.537   1.091   6.894
 5450POPC   C4A69126  13.503   1.185   7.338
 5450POPC   C1B69127  14.050   1.412   6.124
 5450POPC   C2B69128  13.892   1.253   6.528
 5450POPC   C3B69129  14.000   1.434   6.935
 5450POPC   C4B69130  13.992   1.278   7.346
 5451POPC   NC369131  16.524  18.546   5.410
 5451POPC   PO469132  17.093  18.125   5.379
 5451POPC   GL169133  16.926  18.357   5.734
 5451POPC   GL269134  16.612  18.179   5.795
 5451POPC   C1A69135  16.960  18.297   6.181
 5451POPC   D2A69136  16.759  18.236   6.592
 5451POPC   C3A69137  16.971  18.330   6.965
 5451POPC   C4A69138  16.807  18.225   7.335
 5451POPC   C1B69139  16.444  18.367   6.179
 5451POPC   C2B69140  16.376  18.578   6.582
 5451POPC   C3B69141  16.396  18.412   7.001
 5451POPC   C4B69142  16.383  18.471   7.433
 5452POPC   NC369143  10.963  19.048   5.422
 5452POPC   PO469144  11.628  18.968   5.352
 5452POPC   GL169145  11.389  19.031   5.721
 5452POPC   GL269146  11.246  19.353   5.754
 5452POPC   C1A69147  11.320  18.811   6.118
 5452POPC   D2A69148  11.449  18.909   6.539
 5452POPC   C3A69149  11.221  18.963   6.915
 5452POPC   C4A69150  11.400  18.868   7.282
 5452POPC   C1B69151  11.418  19.314   6.166
 5452POPC   C2B69152  11.276  19.385   6.567
 5452POPC   C3B69153  11.462  19.435   6.936
 5452POPC   C4B69154  11.268  19.340   7.291
 5453POPC   NC369155  34.925   1.084   5.533
 5453POPC   PO469156  34.481   1.415   5.176
 5453POPC   GL169157  34.441   1.220   5.685
 5453POPC   GL269158  34.624   0.923   5.897
 5453POPC   C1A69159  34.441   1.291   6.185
 5453POPC   D2A69160  34.131   1.333   6.544
 5453POPC   C3A69161  34.189   1.476   6.964
 5453POPC   C4A69162  34.531   1.359   7.245
 5453POPC   C1B69163  34.931   1.051   6.268
 5453POPC   C2B69164  34.918   1.106   6.768
 5453POPC   C3B69165  34.961   1.093   7.253
 5453POPC   C4B69166  34.862   1.341   7.646
 5454POPC   NC369167   4.502  18.971   5.367
 5454POPC   PO469168   3.949  19.277   5.229
 5454POPC   GL169169   4.094  19.036   5.675
 5454POPC   GL269170   4.203  19.275   5.933
 5454POPC   C1A69171   4.392  18.848   6.067
 5454POPC   D2A69172   4.251  18.937   6.491
 5454POPC   C3A69173   4.034  18.884   6.896
 5454POPC   C4A69174   4.270  18.654   7.235
 5454POPC   C1B69175   4.044  19.401   6.314
 5454POPC   C2B69176   4.210  19.387   6.723
 5454POPC   C3B69177   4.443  19.148   7.057
 5454POPC   C4B69178   4.144  19.425   7.246
 5455POPC   NC369179  32.472  13.353   5.556
 5455POPC   PO469180  31.766  13.473   5.493
 5455POPC   GL169181  32.015  13.532   5.842
 5455POPC   GL269182  31.696  13.589   5.990
 5455POPC   C1A69183  32.358  13.501   6.187
 5455POPC   D2A69184  32.524  13.614   6.606
 5455POPC   C3A69185  32.334  13.475   6.974
 5455POPC   C4A69186  32.519  13.436   7.343
 5455POPC   C1B69187  31.922  13.737   6.304
 5455POPC   C2B69188  31.930  13.534   6.672
 5455POPC   C3B69189  31.827  13.526   7.088
 5455POPC   C4B69190  32.059  13.661   7.415
 5456POPC   NC369191  33.246  30.813   5.439
 5456POPC   PO469192  32.799  30.448   5.531
 5456POPC   GL169193  33.100  30.579   5.872
 5456POPC   GL269194  33.261  30.933   5.933
 5456POPC   C1A69195  33.032  30.632   6.320
 5456POPC   D2A69196  32.868  30.397   6.673
 5456POPC   C3A69197  32.851  30.598   7.076
 5456POPC   C4A69198  33.024  30.652   7.507
 5456POPC   C1B69199  33.380  31.005   6.354
 5456POPC   C2B69200  33.222  30.858   6.756
 5456POPC   C3B69201  33.214  31.000   7.175
 5456POPC   C4B69202  33.546  30.836   7.452
 5457POPC   NC369203  19.279  18.994   5.364
 5457POPC   PO469204  18.495  18.954   5.407
 5457POPC   GL169205  18.882  19.071   5.678
 5457POPC   GL269206  18.951  18.755   5.797
 5457POPC   C1A69207  19.045  19.187   6.108
 5457POPC   D2A69208  18.991  19.049   6.543
 5457POPC   C3A69209  19.131  19.284   6.897
 5457POPC   C4A69210  19.229  19.191   7.306
 5457POPC   C1B69211  19.102  18.664   6.200
 5457POPC   C2B69212  19.173  18.570   6.614
 5457POPC   C3B69213  19.120  18.758   7.003
 5457POPC   C4B69214  19.386  18.705   7.339
 5458POPC   NC369215  13.738   4.724   5.414
 5458POPC   PO469216  13.239   4.338   5.157
 5458POPC   GL169217  13.434   4.357   5.648
 5458POPC   GL269218  13.336   4.110   5.890
 5458POPC   C1A69219  13.555   4.533   6.120
 5458POPC   D2A69220  13.530   4.582   6.615
 5458POPC   C3A69221  13.867   4.558   6.973
 5458POPC   C4A69222  13.815   4.202   7.270
 5458POPC   C1B69223  13.160   4.167   6.298
 5458POPC   C2B69224  13.241   4.129   6.712
 5458POPC   C3B69225  13.130   4.247   7.102
 5458POPC   C4B69226  13.394   4.542   7.177
 5459POPC   NC369227   4.842  25.381   5.430
 5459POPC   PO469228   5.487  25.091   5.523
 5459POPC   GL169229   5.093  25.119   5.850
 5459POPC   GL269230   4.915  25.436   5.944
 5459POPC   C1A69231   4.775  25.021   6.228
 5459POPC   D2A69232   4.670  25.235   6.634
 5459POPC   C3A69233   4.897  25.134   6.955
 5459POPC   C4A69234   5.230  25.222   7.159
 5459POPC   C1B69235   5.101  25.387   6.364
 5459POPC   C2B69236   5.151  25.544   6.775
 5459POPC   C3B69237   5.400  25.782   7.104
 5459POPC   C4B69238   5.826  25.754   7.248
 5460POPC   NC369239   5.441  43.090   5.336
 5460POPC   PO469240   4.779  42.952   5.409
 5460POPC   GL169241   4.903  43.091   5.815
 5460POPC   GL269242   5.241  43.202   5.798
 5460POPC   C1A69243   5.119  42.961   6.218
 5460POPC   D2A69244   5.323  43.076   6.619
 5460POPC   C3A69245   5.019  43.001   6.944
 5460POPC   C4A69246   5.010  43.136   7.346
 5460POPC   C1B69247   5.412  43.410   6.212
 5460POPC   C2B69248   5.481  43.582   6.639
 5460POPC   C3B69249   5.367  43.379   7.037
 5460POPC   C4B69250   5.453  42.915   7.202
 5461POPC   NC369251  35.899  39.580   5.486
 5461POPC   PO469252  35.987  38.924   5.462
 5461POPC   GL169253  36.077  39.192   5.831
 5461POPC   GL269254  36.382  39.366   5.891
 5461POPC   C1A69255  36.170  39.041   6.261
 5461POPC   D2A69256  36.366  38.954   6.658
 5461POPC   C3A69257  36.209  39.120   7.014
 5461POPC   C4A69258  35.954  38.943   7.279
 5461POPC   C1B69259  36.200  39.556   6.245
 5461POPC   C2B69260  36.103  39.524   6.676
 5461POPC   C3B69261  36.248  39.625   7.093
 5461POPC   C4B69262  36.152  39.440   7.497
 5462POPC   NC369263  28.877  38.668   5.480
 5462POPC   PO469264  29.453  38.304   5.509
 5462POPC   GL169265  29.120  38.434   5.857
 5462POPC   GL269266  28.886  38.736   5.963
 5462POPC   C1A69267  29.020  38.353   6.278
 5462POPC   D2A69268  29.275  38.150   6.569
 5462POPC   C3A69269  29.203  38.116   6.964
 5462POPC   C4A69270  29.080  38.218   7.351
 5462POPC   C1B69271  29.059  38.885   6.320
 5462POPC   C2B69272  29.263  38.665   6.627
 5462POPC   C3B69273  29.136  38.609   7.033
 5462POPC   C4B69274  28.823  38.862   7.172
 5463POPC   NC369275  23.309  26.061   5.132
 5463POPC   PO469276  23.855  26.457   5.283
 5463POPC   GL169277  23.712  26.224   5.735
 5463POPC   GL269278  23.528  25.911   5.787
 5463POPC   C1A69279  23.731  26.080   6.234
 5463POPC   D2A69280  24.006  25.916   6.615
 5463POPC   C3A69281  23.926  25.982   7.082
 5463POPC   C4A69282  23.643  26.213   7.392
 5463POPC   C1B69283  23.296  25.789   6.185
 5463POPC   C2B69284  23.257  25.996   6.570
 5463POPC   C3B69285  23.435  25.993   6.976
 5463POPC   C4B69286  23.508  25.701   7.323
 5464POPC   NC369287  24.536   7.830   5.354
 5464POPC   PO469288  24.397   8.425   5.598
 5464POPC   GL169289  24.405   8.119   5.980
 5464POPC   GL269290  24.696   7.856   5.933
 5464POPC   C1A69291  24.311   8.215   6.452
 5464POPC   D2A69292  24.431   8.531   6.762
 5464POPC   C3A69293  24.406   8.357   7.153
 5464POPC   C4A69294  24.217   7.962   7.103
 5464POPC   C1B69295  24.734   7.967   6.380
 5464POPC   C2B69296  24.703   8.077   6.817
 5464POPC   C3B69297  24.814   8.055   7.247
 5464POPC   C4B69298  24.766   8.228   7.616
 5465POPC   NC369299  18.674  25.031   5.056
 5465POPC   PO469300  18.956  25.506   5.524
 5465POPC   GL169301  19.074  25.242   5.880
 5465POPC   GL269302  18.802  24.998   6.020
 5465POPC   C1A69303  19.010  25.394   6.263
 5465POPC   D2A69304  19.185  25.615   6.597
 5465POPC   C3A69305  18.885  25.562   6.897
 5465POPC   C4A69306  19.062  25.431   7.268
 5465POPC   C1B69307  18.786  24.969   6.417
 5465POPC   C2B69308  18.968  25.083   6.757
 5465POPC   C3B69309  18.830  25.013   7.155
 5465POPC   C4B69310  18.818  24.988   7.610
 5466POPC   NC369311  15.027  26.352   5.688
 5466POPC   PO469312  15.029  25.816   5.235
 5466POPC   GL169313  15.197  25.874   5.713
 5466POPC   GL269314  14.884  25.884   5.894
 5466POPC   C1A69315  15.321  26.040   6.188
 5466POPC   D2A69316  15.313  26.373   6.524
 5466POPC   C3A69317  15.420  26.242   6.945
 5466POPC   C4A69318  15.070  26.302   7.210
 5466POPC   C1B69319  14.821  25.861   6.345
 5466POPC   C2B69320  14.999  25.988   6.753
 5466POPC   C3B69321  15.085  25.804   7.167
 5466POPC   C4B69322  15.033  25.569   7.546
 5467POPC   NC369323  43.140   9.358   5.405
 5467POPC   PO469324  42.957  10.025   5.412
 5467POPC   GL169325  43.098   9.693   5.821
 5467POPC   GL269326  43.304   9.330   5.865
 5467POPC   C1A69327  43.340   9.619   6.263
 5467POPC   D2A69328  43.312   9.781   6.689
 5467POPC   C3A69329  43.189   9.674   7.117
 5467POPC   C4A69330  43.384   9.803   7.511
 5467POPC   C1B69331  42.935   9.323   6.152
 5467POPC   C2B69332  42.867   9.541   6.537
 5467POPC   C3B69333  42.613   9.423   6.870
 5467POPC   C4B69334  42.708   9.491   7.308
 5468POPC   NC369335   7.493   3.302   5.466
 5468POPC   PO469336   7.157   3.771   5.506
 5468POPC   GL169337   7.304   3.595   5.835
 5468POPC   GL269338   7.657   3.676   5.803
 5468POPC   C1A69339   7.253   3.367   6.195
 5468POPC   D2A69340   7.464   3.381   6.572
 5468POPC   C3A69341   7.187   3.400   6.931
 5468POPC   C4A69342   7.141   3.674   7.265
 5468POPC   C1B69343   7.559   3.778   6.227
 5468POPC   C2B69344   7.737   3.815   6.620
 5468POPC   C3B69345   7.551   3.785   6.991
 5468POPC   C4B69346   7.603   3.847   7.421
 5469POPC   NC369347  44.082  43.000   5.412
 5469POPC   PO469348  43.553  42.779   5.617
 5469POPC   GL169349  43.825  43.068   5.878
 5469POPC   GL269350  44.185  43.225   5.839
 5469POPC   C1A69351  43.801  43.051   6.317
 5469POPC   D2A69352  43.473  42.936   6.589
 5469POPC   C3A69353  43.639  42.825   6.950
 5469POPC   C4A69354  43.795  43.044   7.249
 5469POPC   C1B69355  44.297  43.187   6.249
 5469POPC   C2B69356  44.102  43.373   6.583
 5469POPC   C3B69357  44.154  43.351   6.988
 5469POPC   C4B69358  44.288  42.988   7.167
 5470POPC   NC369359   2.454  22.842   5.384
 5470POPC   PO469360   3.014  23.115   5.311
 5470POPC   GL169361   2.868  22.907   5.708
 5470POPC   GL269362   2.783  23.235   5.855
 5470POPC   C1A69363   2.756  22.824   6.154
 5470POPC   D2A69364   2.819  23.078   6.532
 5470POPC   C3A69365   2.735  22.858   6.931
 5470POPC   C4A69366   3.037  22.681   7.225
 5470POPC   C1B69367   2.486  23.350   6.219
 5470POPC   C2B69368   2.466  23.436   6.687
 5470POPC   C3B69369   2.520  23.274   7.130
 5470POPC   C4B69370   2.314  23.310   7.522
 5471POPC   NC369371  43.809  14.690   5.490
 5471POPC   PO469372  43.595  14.079   5.378
 5471POPC   GL169373  43.705  14.212   5.837
 5471POPC   GL269374  43.952  14.474   5.932
 5471POPC   C1A69375  43.815  14.137   6.292
 5471POPC   D2A69376  43.876  14.397   6.672
 5471POPC   C3A69377  43.656  14.351   7.047
 5471POPC   C4A69378  43.594  14.552   7.416
 5471POPC   C1B69379  44.281  14.329   6.208
 5471POPC   C2B69380  44.389  14.248   6.642
 5471POPC   C3B69381  44.177  14.233   7.064
 5471POPC   C4B69382  44.298  14.118   7.476
 5472POPC   NC369383   6.312  39.876   5.293
 5472POPC   PO469384   6.534  40.510   5.320
 5472POPC   GL169385   6.576  40.166   5.614
 5472POPC   GL269386   6.918  40.120   5.701
 5472POPC   C1A69387   6.523  40.066   6.066
 5472POPC   D2A69388   6.370  40.053   6.517
 5472POPC   C3A69389   6.579  39.824   6.862
 5472POPC   C4A69390   6.516  40.037   7.255
 5472POPC   C1B69391   7.016  40.206   6.131
 5472POPC   C2B69392   6.897  40.054   6.522
 5472POPC   C3B69393   6.945  40.192   6.954
 5472POPC   C4B69394   7.061  40.057   7.348
 5473POPC   NC369395  29.582   6.249   5.318
 5473POPC   PO469396  30.313   5.975   5.282
 5473POPC   GL169397  30.157   5.841   5.701
 5473POPC   GL269398  29.907   6.073   5.789
 5473POPC   C1A69399  30.042   5.612   6.114
 5473POPC   D2A69400  29.995   5.801   6.546
 5473POPC   C3A69401  30.043   5.669   6.980
 5473POPC   C4A69402  29.750   5.628   7.332
 5473POPC   C1B69403  30.156   6.141   6.182
 5473POPC   C2B69404  30.046   6.321   6.603
 5473POPC   C3B69405  30.169   6.182   6.969
 5473POPC   C4B69406  29.986   6.065   7.319
 5474POPC   NC369407  24.438  28.038   4.937
 5474POPC   PO469408  24.374  28.568   5.370
 5474POPC   GL169409  24.384  28.476   5.824
 5474POPC   GL269410  24.482  28.806   5.870
 5474POPC   C1A69411  24.438  28.246   6.247
 5474POPC   D2A69412  24.640  28.136   6.637
 5474POPC   C3A69413  24.435  28.297   7.001
 5474POPC   C4A69414  24.596  28.420   7.398
 5474POPC   C1B69415  24.331  28.756   6.285
 5474POPC   C2B69416  24.527  28.681   6.680
 5474POPC   C3B69417  24.698  28.799   7.082
 5474POPC   C4B69418  24.503  28.905   7.491
 5475POPC   NC369419  17.569  44.262   5.067
 5475POPC   PO469420  17.714  43.667   5.322
 5475POPC   GL169421  17.601  43.714   5.755
 5475POPC   GL269422  17.396  44.054   5.823
 5475POPC   C1A69423  17.873  43.614   6.131
 5475POPC   D2A69424  17.651  43.456   6.515
 5475POPC   C3A69425  17.706  43.485   6.941
 5475POPC   C4A69426  17.878  43.640   7.293
 5475POPC   C1B69427  17.270  44.240   6.244
 5475POPC   C2B69428  17.279  44.018   6.671
 5475POPC   C3B69429  17.572  43.974   6.993
 5475POPC   C4B69430  17.599  44.053   7.432
 5476POPC   NC369431  22.105  34.956   5.612
 5476POPC   PO469432  22.416  35.458   5.487
 5476POPC   GL169433  22.260  35.350   5.899
 5476POPC   GL269434  22.480  35.061   5.963
 5476POPC   C1A69435  21.933  35.326   6.244
 5476POPC   D2A69436  21.688  35.351   6.648
 5476POPC   C3A69437  21.993  35.285   6.982
 5476POPC   C4A69438  22.248  35.554   7.218
 5476POPC   C1B69439  22.524  35.364   6.334
 5476POPC   C2B69440  22.492  35.398   6.793
 5476POPC   C3B69441  22.539  35.133   7.158
 5476POPC   C4B69442  22.621  35.144   7.633
 5477POPC   NC369443   4.538  12.915   5.154
 5477POPC   PO469444   3.971  13.194   5.418
 5477POPC   GL169445   4.297  12.943   5.619
 5477POPC   GL269446   4.102  12.918   5.860
 5477POPC   C1A69447   4.551  12.857   6.041
 5477POPC   D2A69448   4.594  12.794   6.504
 5477POPC   C3A69449   4.468  12.925   6.947
 5477POPC   C4A69450   4.523  12.921   7.436
 5477POPC   C1B69451   3.916  12.939   6.248
 5477POPC   C2B69452   4.038  12.952   6.661
 5477POPC   C3B69453   3.986  12.606   6.923
 5477POPC   C4B69454   3.938  12.393   7.301
 5478POPC   NC369455  26.435  28.381   5.428
 5478POPC   PO469456  25.879  28.141   5.581
 5478POPC   GL169457  26.144  28.315   5.866
 5478POPC   GL269458  26.111  28.027   6.022
 5478POPC   C1A69459  26.273  28.490   6.259
 5478POPC   D2A69460  26.018  28.547   6.650
 5478POPC   C3A69461  25.988  28.552   7.104
 5478POPC   C4A69462  26.363  28.567   7.361
 5478POPC   C1B69463  25.802  28.267   6.269
 5478POPC   C2B69464  25.680  28.160   6.680
 5478POPC   C3B69465  25.825  28.069   7.083
 5478POPC   C4B69466  26.008  28.167   7.464
 5479POPC   NC369467   1.323   7.809   5.461
 5479POPC   PO469468   0.907   7.271   5.340
 5479POPC   GL169469   1.136   7.237   5.741
 5479POPC   GL269470   1.198   7.575   5.883
 5479POPC   C1A69471   1.022   7.215   6.191
 5479POPC   D2A69472   0.729   7.431   6.450
 5479POPC   C3A69473   0.883   7.317   6.820
 5479POPC   C4A69474   1.072   7.467   7.163
 5479POPC   C1B69475   1.403   7.574   6.275
 5479POPC   C2B69476   1.408   7.428   6.715
 5479POPC   C3B69477   1.571   7.368   7.164
 5479POPC   C4B69478   1.778   7.546   7.567
 5480POPC   NC369479  39.808  38.940   5.513
 5480POPC   PO469480  39.549  38.289   5.372
 5480POPC   GL169481  39.793  38.234   5.752
 5480POPC   GL269482  39.711  38.552   5.885
 5480POPC   C1A69483  40.057  38.090   6.112
 5480POPC   D2A69484  39.927  37.995   6.562
 5480POPC   C3A69485  39.993  38.283   6.908
 5480POPC   C4A69486  40.246  38.215   7.278
 5480POPC   C1B69487  39.746  38.449   6.327
 5480POPC   C2B69488  39.587  38.717   6.682
 5480POPC   C3B69489  39.712  38.856   7.064
 5480POPC   C4B69490  40.134  38.908   7.198
 5481POPC   NC369491  22.814  30.156   5.140
 5481POPC   PO469492  23.098  30.752   5.382
 5481POPC   GL169493  22.980  30.751   5.831
 5481POPC   GL269494  22.632  30.905   5.884
 5481POPC   C1A69495  23.206  30.677   6.253
 5481POPC   D2A69496  23.382  30.902   6.648
 5481POPC   C3A69497  23.247  30.717   7.067
 5481POPC   C4A69498  23.168  30.397   7.370
 5481POPC   C1B69499  22.755  30.874   6.296
 5481POPC   C2B69500  22.882  30.695   6.687
 5481POPC   C3B69501  22.764  30.848   7.104
 5481POPC   C4B69502  22.797  30.707   7.527
 5482POPC   NC369503  29.837  26.987   5.133
 5482POPC   PO469504  29.863  27.695   5.283
 5482POPC   GL169505  29.957  27.657   5.740
 5482POPC   GL269506  29.831  27.347   5.870
 5482POPC   C1A69507  29.972  27.760   6.183
 5482POPC   D2A69508  29.851  27.691   6.628
 5482POPC   C3A69509  29.839  27.967   6.956
 5482POPC   C4A69510  29.952  27.808   7.356
 5482POPC   C1B69511  30.104  27.250   6.222
 5482POPC   C2B69512  30.237  27.301   6.647
 5482POPC   C3B69513  30.225  27.473   7.060
 5482POPC   C4B69514  30.121  27.271   7.457
 5483POPC   NC369515   9.649  19.572   5.661
 5483POPC   PO469516   9.711  18.856   5.502
 5483POPC   GL169517   9.528  18.907   5.889
 5483POPC   GL269518   9.861  19.096   5.967
 5483POPC   C1A69519   9.615  18.873   6.327
 5483POPC   D2A69520   9.837  19.174   6.555
 5483POPC   C3A69521   9.671  19.084   6.912
 5483POPC   C4A69522   9.566  18.725   7.123
 5483POPC   C1B69523  10.143  18.868   6.282
 5483POPC   C2B69524  10.314  19.020   6.684
 5483POPC   C3B69525  10.131  19.230   7.085
 5483POPC   C4B69526   9.841  19.132   7.390
 5484POPC   NC369527  28.002   6.115   5.319
 5484POPC   PO469528  27.336   5.715   5.148
 5484POPC   GL169529  27.466   5.709   5.654
 5484POPC   GL269530  27.820   5.624   5.721
 5484POPC   C1A69531  27.384   5.911   6.094
 5484POPC   D2A69532  27.656   6.018   6.483
 5484POPC   C3A69533  27.475   6.167   6.893
 5484POPC   C4A69534  27.626   6.185   7.338
 5484POPC   C1B69535  27.723   5.513   6.170
 5484POPC   C2B69536  27.476   5.544   6.567
 5484POPC   C3B69537  27.525   5.653   7.003
 5484POPC   C4B69538  27.638   5.681   7.467
 5485POPC   NC369539  21.999  24.816   5.433
 5485POPC   PO469540  21.348  24.444   5.443
 5485POPC   GL169541  21.507  24.548   5.841
 5485POPC   GL269542  21.711  24.264   5.919
 5485POPC   C1A69543  21.297  24.668   6.220
 5485POPC   D2A69544  21.462  24.697   6.623
 5485POPC   C3A69545  21.252  24.593   6.959
 5485POPC   C4A69546  21.521  24.474   7.224
 5485POPC   C1B69547  21.550  24.241   6.350
 5485POPC   C2B69548  21.554  24.166   6.789
 5485POPC   C3B69549  21.723  24.030   7.183
 5485POPC   C4B69550  21.595  24.117   7.621
 5486POPC   NC369551  36.354  19.604   5.456
 5486POPC   PO469552  35.829  19.963   5.426
 5486POPC   GL169553  36.035  19.781   5.806
 5486POPC   GL269554  35.822  19.528   5.841
 5486POPC   C1A69555  36.248  19.863   6.203
 5486POPC   D2A69556  36.103  20.088   6.558
 5486POPC   C3A69557  36.179  19.950   6.960
 5486POPC   C4A69558  36.362  19.852   7.318
 5486POPC   C1B69559  36.070  19.392   6.199
 5486POPC   C2B69560  36.076  19.548   6.647
 5486POPC   C3B69561  36.033  19.472   7.134
 5486POPC   C4B69562  35.784  19.343   7.514
 5487POPC   NC369563  20.850  33.117   5.501
 5487POPC   PO469564  20.432  32.598   5.262
 5487POPC   GL169565  20.371  32.924   5.628
 5487POPC   GL269566  20.543  32.686   5.839
 5487POPC   C1A69567  20.392  33.133   6.095
 5487POPC   D2A69568  20.621  33.074   6.493
 5487POPC   C3A69569  20.489  33.148   6.932
 5487POPC   C4A69570  20.796  33.302   7.192
 5487POPC   C1B69571  20.897  32.760   6.127
 5487POPC   C2B69572  21.076  32.791   6.528
 5487POPC   C3B69573  20.809  32.753   6.866
 5487POPC   C4B69574  20.792  32.819   7.287
 5488POPC   NC369575  24.756  23.157   4.897
 5488POPC   PO469576  24.515  23.377   5.504
 5488POPC   GL169577  24.365  23.164   5.843
 5488POPC   GL269578  24.594  22.918   5.851
 5488POPC   C1A69579  24.374  23.217   6.287
 5488POPC   D2A69580  24.322  23.295   6.723
 5488POPC   C3A69581  24.200  22.903   6.929
 5488POPC   C4A69582  24.256  22.896   7.383
 5488POPC   C1B69583  24.798  22.864   6.221
 5488POPC   C2B69584  24.614  22.844   6.599
 5488POPC   C3B69585  24.684  22.963   6.995
 5488POPC   C4B69586  24.772  22.713   7.329
 5489POPC   NC369587  44.333  21.597   5.595
 5489POPC   PO469588  43.601  21.368   5.499
 5489POPC   GL169589  43.646  21.278   5.910
 5489POPC   GL269590  44.002  21.345   5.910
 5489POPC   C1A69591  43.779  21.067   6.279
 5489POPC   D2A69592  44.088  21.183   6.581
 5489POPC   C3A69593  43.864  21.220   6.950
 5489POPC   C4A69594  43.952  21.509   7.256
 5489POPC   C1B69595  43.861  21.577   6.300
 5489POPC   C2B69596  43.804  21.849   6.669
 5489POPC   C3B69597  44.084  21.939   7.018
 5489POPC   C4B69598  43.914  22.014   7.415
 5490POPC   NC369599  35.537  28.572   5.488
 5490POPC   PO469600  34.889  28.416   5.571
 5490POPC   GL169601  35.215  28.350   5.837
 5490POPC   GL269602  35.519  28.127   5.745
 5490POPC   C1A69603  35.189  28.499   6.254
 5490POPC   D2A69604  35.050  28.339   6.630
 5490POPC   C3A69605  35.138  28.557   6.971
 5490POPC   C4A69606  35.203  28.682   7.403
 5490POPC   C1B69607  35.499  28.119   6.208
 5490POPC   C2B69608  35.578  28.341   6.589
 5490POPC   C3B69609  35.463  28.159   6.950
 5490POPC   C4B69610  35.488  28.261   7.342
 5491POPC   NC369611  35.242  11.727   5.222
 5491POPC   PO469612  35.598  11.136   5.530
 5491POPC   GL169613  35.416  11.269   5.912
 5491POPC   GL269614  35.078  11.266   5.805
 5491POPC   C1A69615  35.322  11.531   6.285
 5491POPC   D2A69616  35.059  11.639   6.614
 5491POPC   C3A69617  35.235  11.409   6.974
 5491POPC   C4A69618  35.511  11.334   7.349
 5491POPC   C1B69619  34.995  11.140   6.247
 5491POPC   C2B69620  35.086  11.043   6.660
 5491POPC   C3B69621  34.830  11.074   7.013
 5491POPC   C4B69622  34.983  11.212   7.387
 5492POPC   NC369623   3.112  22.596   5.361
 5492POPC   PO469624   3.744  22.598   5.535
 5492POPC   GL169625   3.387  22.837   5.739
 5492POPC   GL269626   3.325  23.176   5.706
 5492POPC   C1A69627   3.303  22.886   6.179
 5492POPC   D2A69628   3.703  22.963   6.409
 5492POPC   C3A69629   3.736  22.904   6.859
 5492POPC   C4A69630   3.515  22.919   7.268
 5492POPC   C1B69631   3.235  23.383   6.076
 5492POPC   C2B69632   3.328  23.303   6.501
 5492POPC   C3B69633   3.240  23.036   6.842
 5492POPC   C4B69634   3.042  23.196   7.207
 5493POPC   NC369635  34.249   6.452   5.333
 5493POPC   PO469636  34.569   6.983   5.604
 5493POPC   GL169637  34.476   6.754   5.910
 5493POPC   GL269638  34.352   6.458   5.841
 5493POPC   C1A69639  34.566   6.819   6.313
 5493POPC   D2A69640  34.606   6.575   6.654
 5493POPC   C3A69641  34.328   6.759   6.942
 5493POPC   C4A69642  34.592   6.998   7.223
 5493POPC   C1B69643  34.367   6.330   6.225
 5493POPC   C2B69644  34.169   6.235   6.582
 5493POPC   C3B69645  34.388   6.224   6.961
 5493POPC   C4B69646  34.658   6.479   7.203
 5494POPC   NC369647  13.564  35.156   5.439
 5494POPC   PO469648  13.993  35.657   5.656
 5494POPC   GL169649  13.607  35.486   5.821
 5494POPC   GL269650  13.358  35.781   5.836
 5494POPC   C1A69651  13.522  35.228   6.199
 5494POPC   D2A69652  13.393  35.361   6.632
 5494POPC   C3A69653  13.600  35.189   6.973
 5494POPC   C4A69654  13.801  35.208   7.363
 5494POPC   C1B69655  13.624  35.733   6.250
 5494POPC   C2B69656  13.720  35.922   6.648
 5494POPC   C3B69657  13.741  35.710   7.043
 5494POPC   C4B69658  13.417  35.542   7.309
 5495POPC   NC369659  19.692   4.945   5.523
 5495POPC   PO469660  20.401   5.057   5.647
 5495POPC   GL169661  20.074   5.006   5.883
 5495POPC   GL269662  19.885   5.290   5.846
 5495POPC   C1A69663  19.814   4.946   6.235
 5495POPC   D2A69664  19.887   4.742   6.608
 5495POPC   C3A69665  19.625   4.816   6.933
 5495POPC   C4A69666  19.755   4.717   7.334
 5495POPC   C1B69667  19.998   5.423   6.244
 5495POPC   C2B69668  20.072   5.249   6.651
 5495POPC   C3B69669  19.870   5.246   7.043
 5495POPC   C4B69670  19.893   5.177   7.467
 5496POPC   NC369671   0.204  39.982   5.370
 5496POPC   PO469672   0.892  39.965   5.524
 5496POPC   GL169673   0.562  40.096   5.843
 5496POPC   GL269674   0.279  39.876   5.867
 5496POPC   C1A69675   0.542  40.156   6.305
 5496POPC   D2A69676   0.730  40.070   6.747
 5496POPC   C3A69677   0.479  40.046   7.132
 5496POPC   C4A69678   0.502  40.099   7.605
 5496POPC   C1B69679   0.115  39.662   6.231
 5496POPC   C2B69680   0.069  39.456   6.631
 5496POPC   C3B69681   0.171  39.629   7.013
 5496POPC   C4B69682   0.306  39.674   7.431
 5497POPC   NC369683  15.728  27.047   5.528
 5497POPC   PO469684  16.135  26.566   5.446
 5497POPC   GL169685  15.901  26.626   5.801
 5497POPC   GL269686  16.220  26.565   5.965
 5497POPC   C1A69687  15.804  26.769   6.237
 5497POPC   D2A69688  16.001  27.070   6.538
 5497POPC   C3A69689  15.899  27.105   6.982
 5497POPC   C4A69690  15.781  27.294   7.383
 5497POPC   C1B69691  16.222  26.378   6.371
 5497POPC   C2B69692  16.019  26.588   6.697
 5497POPC   C3B69693  15.831  26.584   7.083
 5497POPC   C4B69694  15.952  26.825   7.424
 5498POPC   NC369695  22.438  12.366   5.640
 5498POPC   PO469696  23.101  12.232   5.336
 5498POPC   GL169697  23.056  12.106   5.785
 5498POPC   GL269698  22.919  12.426   5.791
 5498POPC   C1A69699  22.935  11.998   6.272
 5498POPC   D2A69700  22.808  11.991   6.762
 5498POPC   C3A69701  22.966  11.988   7.202
 5498POPC   C4A69702  22.857  11.985   7.655
 5498POPC   C1B69703  22.827  12.468   6.205
 5498POPC   C2B69704  23.104  12.383   6.581
 5498POPC   C3B69705  22.997  12.503   7.001
 5498POPC   C4B69706  22.863  12.448   7.444
 5499POPC   NC369707  31.860   7.205   5.376
 5499POPC   PO469708  31.109   7.184   5.395
 5499POPC   GL169709  31.279   7.306   5.784
 5499POPC   GL269710  31.609   7.454   5.781
 5499POPC   C1A69711  31.144   7.411   6.187
 5499POPC   D2A69712  31.165   7.628   6.521
 5499POPC   C3A69713  31.107   7.415   6.870
 5499POPC   C4A69714  31.250   7.365   7.248
 5499POPC   C1B69715  31.706   7.332   6.199
 5499POPC   C2B69716  31.558   7.288   6.616
 5499POPC   C3B69717  31.749   7.243   7.022
 5499POPC   C4B69718  31.871   7.591   7.340
 5500POPC   NC369719  37.466   4.587   5.488
 5500POPC   PO469720  37.969   4.145   5.549
 5500POPC   GL169721  37.720   4.343   5.834
 5500POPC   GL269722  37.896   4.319   6.104
 5500POPC   C1A69723  37.423   4.548   6.150
 5500POPC   D2A69724  37.543   4.379   6.535
 5500POPC   C3A69725  37.572   4.446   6.954
 5500POPC   C4A69726  37.913   4.652   7.107
 5500POPC   C1B69727  37.510   4.023   6.165
 5500POPC   C2B69728  37.495   3.844   6.555
 5500POPC   C3B69729  37.799   4.029   6.816
 5500POPC   C4B69730  37.568   3.986   7.201
 5501POPC   NC369731  35.059  18.725   5.369
 5501POPC   PO469732  35.644  19.134   5.363
 5501POPC   GL169733  35.442  19.164   5.758
 5501POPC   GL269734  35.293  18.849   5.844
 5501POPC   C1A69735  35.457  19.353   6.160
 5501POPC   D2A69736  35.678  19.257   6.508
 5501POPC   C3A69737  35.593  19.449   6.853
 5501POPC   C4A69738  35.409  19.216   7.158
 5501POPC   C1B69739  35.363  18.849   6.300
 5501POPC   C2B69740  35.396  18.857   6.734
 5501POPC   C3B69741  35.091  18.799   7.045
 5501POPC   C4B69742  35.034  18.678   7.488
 5502POPC   NC369743  16.058  44.150   5.468
 5502POPC   PO469744  15.896  43.550   5.574
 5502POPC   GL169745  15.867  43.853   5.853
 5502POPC   GL269746  15.507  43.826   5.809
 5502POPC   C1A69747  16.013  43.792   6.253
 5502POPC   D2A69748  16.000  43.527   6.625
 5502POPC   C3A69749  16.137  43.739   7.043
 5502POPC   C4A69750  16.223  43.759   7.487
 5502POPC   C1B69751  15.494  43.693   6.226
 5502POPC   C2B69752  15.640  43.889   6.590
 5502POPC   C3B69753  15.642  43.719   6.980
 5502POPC   C4B69754  15.375  43.520   7.209
 5503POPC   NC369755   0.011  15.631   5.498
 5503POPC   PO469756  44.961  16.253   5.720
 5503POPC   GL169757  44.654  16.087   5.981
 5503POPC   GL269758  44.631  15.777   5.811
 5503POPC   C1A69759  44.370  16.197   6.313
 5503POPC   D2A69760  44.256  16.243   6.730
 5503POPC   C3A69761  44.657  16.295   6.879
 5503POPC   C4A69762  44.894  16.176   7.211
 5503POPC   C1B69763  44.842  15.668   6.200
 5503POPC   C2B69764  44.825  15.888   6.588
 5503POPC   C3B69765  44.900  15.725   6.996
 5503POPC   C4B69766  44.658  15.560   7.331
 5504POPC   NC369767  37.848  35.467   5.573
 5504POPC   PO469768  37.308  35.839   5.329
 5504POPC   GL169769  37.508  35.781   5.779
 5504POPC   GL269770  37.515  35.423   5.942
 5504POPC   C1A69771  37.713  35.758   6.247
 5504POPC   D2A69772  37.803  35.525   6.642
 5504POPC   C3A69773  37.568  35.487   7.032
 5504POPC   C4A69774  37.423  35.104   7.264
 5504POPC   C1B69775  37.968  35.289   6.185
 5504POPC   C2B69776  38.023  35.054   6.613
 5504POPC   C3B69777  38.016  35.224   7.098
 5504POPC   C4B69778  38.111  35.174   7.597
 5505POPC   NC369779  16.151   4.981   5.624
 5505POPC   PO469780  15.466   5.046   5.613
 5505POPC   GL169781  15.735   5.063   5.947
 5505POPC   GL269782  15.888   5.356   5.842
 5505POPC   C1A69783  16.064   5.031   6.268
 5505POPC   D2A69784  16.242   4.750   6.564
 5505POPC   C3A69785  16.015   4.923   6.904
 5505POPC   C4A69786  15.880   5.071   7.274
 5505POPC   C1B69787  15.741   5.433   6.266
 5505POPC   C2B69788  15.834   5.367   6.664
 5505POPC   C3B69789  15.576   5.377   7.024
 5505POPC   C4B69790  15.558   5.441   7.494
 5506POPC   NC369791  27.901   7.507   5.677
 5506POPC   PO469792  28.496   7.257   5.423
 5506POPC   GL169793  28.345   7.307   5.843
 5506POPC   GL269794  28.350   7.665   5.916
 5506POPC   C1A69795  28.472   7.179   6.267
 5506POPC   D2A69796  28.718   7.264   6.644
 5506POPC   C3A69797  28.490   7.162   6.967
 5506POPC   C4A69798  28.338   7.377   7.293
 5506POPC   C1B69799  28.168   7.604   6.335
 5506POPC   C2B69800  28.337   7.611   6.751
 5506POPC   C3B69801  28.190   7.830   7.096
 5506POPC   C4B69802  27.803   7.620   7.243
 5507POPC   NC369803   4.972  36.299   5.371
 5507POPC   PO469804   5.042  35.641   5.190
 5507POPC   GL169805   4.929  35.883   5.612
 5507POPC   GL269806   5.226  36.104   5.766
 5507POPC   C1A69807   4.800  36.159   6.038
 5507POPC   D2A69808   4.953  36.277   6.478
 5507POPC   C3A69809   4.831  36.066   6.852
 5507POPC   C4A69810   4.848  36.177   7.273
 5507POPC   C1B69811   5.242  36.478   6.103
 5507POPC   C2B69812   5.173  36.756   6.521
 5507POPC   C3B69813   5.214  36.627   6.978
 5507POPC   C4B69814   5.272  36.434   7.412
 5508POPC   NC369815  42.527  40.741   5.464
 5508POPC   PO469816  42.029  41.067   5.233
 5508POPC   GL169817  42.042  40.953   5.684
 5508POPC   GL269818  42.361  41.091   5.814
 5508POPC   C1A69819  42.146  40.671   6.061
 5508POPC   D2A69820  42.024  40.591   6.520
 5508POPC   C3A69821  42.354  40.630   6.831
 5508POPC   C4A69822  42.573  40.688   7.211
 5508POPC   C1B69823  42.102  41.165   6.194
 5508POPC   C2B69824  42.057  41.093   6.653
 5508POPC   C3B69825  42.199  41.064   7.089
 5508POPC   C4B69826  42.286  41.143   7.499
 5509POPC   NC369827  30.720  25.608   5.429
 5509POPC   PO469828  30.368  24.991   5.400
 5509POPC   GL169829  30.380  25.265   5.794
 5509POPC   GL269830  30.547  25.586   5.907
 5509POPC   C1A69831  30.464  25.208   6.257
 5509POPC   D2A69832  30.763  25.166   6.604
 5509POPC   C3A69833  30.617  24.995   6.965
 5509POPC   C4A69834  30.942  24.842   7.193
 5509POPC   C1B69835  30.868  25.538   6.263
 5509POPC   C2B69836  31.036  25.592   6.693
 5509POPC   C3B69837  30.839  25.479   7.094
 5509POPC   C4B69838  30.414  25.502   7.131
 5510POPC   NC369839  36.873   5.551   5.497
 5510POPC   PO469840  37.202   4.974   5.516
 5510POPC   GL169841  36.884   5.125   5.835
 5510POPC   GL269842  37.040   5.392   5.994
 5510POPC   C1A69843  36.553   4.987   6.163
 5510POPC   D2A69844  36.605   4.875   6.625
 5510POPC   C3A69845  36.602   5.206   6.912
 5510POPC   C4A69846  36.633   5.339   7.327
 5510POPC   C1B69847  37.040   5.047   6.320
 5510POPC   C2B69848  37.077   5.058   6.769
 5510POPC   C3B69849  36.922   4.927   7.181
 5510POPC   C4B69850  37.143   4.847   7.545
 5511POPC   NC369851  44.157  32.615   5.526
 5511POPC   PO469852  43.551  32.422   5.467
 5511POPC   GL169853  43.835  32.352   5.857
 5511POPC   GL269854  43.951  31.999   5.943
 5511POPC   C1A69855  44.069  32.523   6.224
 5511POPC   D2A69856  44.138  32.420   6.650
 5511POPC   C3A69857  43.767  32.332   6.838
 5511POPC   C4A69858  43.716  32.377   7.252
 5511POPC   C1B69859  43.917  32.038   6.362
 5511POPC   C2B69860  44.094  31.923   6.733
 5511POPC   C3B69861  43.822  31.885   7.110
 5511POPC   C4B69862  43.909  31.990   7.552
 5512POPC   NC369863  24.205  30.407   5.626
 5512POPC   PO469864  24.820  30.571   5.335
 5512POPC   GL169865  24.673  30.596   5.763
 5512POPC   GL269866  24.535  30.919   5.763
 5512POPC   C1A69867  24.727  30.452   6.203
 5512POPC   D2A69868  24.559  30.600   6.604
 5512POPC   C3A69869  24.739  30.515   7.004
 5512POPC   C4A69870  24.574  30.658   7.382
 5512POPC   C1B69871  24.503  30.919   6.198
 5512POPC   C2B69872  24.336  31.104   6.551
 5512POPC   C3B69873  24.487  30.997   6.962
 5512POPC   C4B69874  24.487  31.145   7.385
 5513POPC   NC369875  24.426  30.814   5.271
 5513POPC   PO469876  24.498  31.567   5.313
 5513POPC   GL169877  24.510  31.452   5.773
 5513POPC   GL269878  24.224  31.280   5.977
 5513POPC   C1A69879  24.695  31.394   6.179
 5513POPC   D2A69880  24.583  31.558   6.599
 5513POPC   C3A69881  24.554  31.527   7.047
 5513POPC   C4A69882  24.843  31.480   7.421
 5513POPC   C1B69883  24.033  31.567   6.282
 5513POPC   C2B69884  24.074  31.629   6.722
 5513POPC   C3B69885  24.160  31.855   7.092
 5513POPC   C4B69886  24.306  31.658   7.483
 5514POPC   NC369887   7.372  14.658   5.415
 5514POPC   PO469888   7.280  13.989   5.614
 5514POPC   GL169889   7.310  14.322   5.861
 5514POPC   GL269890   7.511  14.608   5.898
 5514POPC   C1A69891   7.160  14.424   6.260
 5514POPC   D2A69892   7.209  14.635   6.637
 5514POPC   C3A69893   6.994  14.432   6.976
 5514POPC   C4A69894   7.011  14.238   7.400
 5514POPC   C1B69895   7.674  14.511   6.324
 5514POPC   C2B69896   7.731  14.634   6.779
 5514POPC   C3B69897   7.913  14.516   7.196
 5514POPC   C4B69898   7.878  14.562   7.669
 5515POPC   NC369899  27.226  13.249   5.484
 5515POPC   PO469900  27.823  12.966   5.443
 5515POPC   GL169901  27.522  12.932   5.768
 5515POPC   GL269902  27.621  12.611   5.898
 5515POPC   C1A69903  27.419  12.992   6.193
 5515POPC   D2A69904  27.429  12.730   6.539
 5515POPC   C3A69905  27.490  12.946   6.889
 5515POPC   C4A69906  27.373  13.155   7.239
 5515POPC   C1B69907  27.819  12.405   6.233
 5515POPC   C2B69908  27.732  12.281   6.634
 5515POPC   C3B69909  27.523  12.431   6.970
 5515POPC   C4B69910  27.471  12.661   7.322
 5516POPC   NC369911  35.812   9.747   5.517
 5516POPC   PO469912  36.466   9.761   5.640
 5516POPC   GL169913  36.135   9.773   5.956
 5516POPC   GL269914  35.928   9.482   6.042
 5516POPC   C1A69915  35.904   9.878   6.356
 5516POPC   D2A69916  35.919   9.608   6.733
 5516POPC   C3A69917  36.100   9.900   6.997
 5516POPC   C4A69918  35.933  10.027   7.379
 5516POPC   C1B69919  36.240   9.436   6.343
 5516POPC   C2B69920  36.359   9.266   6.710
 5516POPC   C3B69921  36.335   9.381   7.111
 5516POPC   C4B69922  35.971   9.505   7.269
 5517POPC   NC369923  34.336  18.620   5.475
 5517POPC   PO469924  34.770  18.168   5.498
 5517POPC   GL169925  34.788  18.304   5.897
 5517POPC   GL269926  34.794  18.663   5.827
 5517POPC   C1A69927  34.686  18.121   6.325
 5517POPC   D2A69928  34.456  18.316   6.674
 5517POPC   C3A69929  34.411  18.183   7.087
 5517POPC   C4A69930  34.256  18.382   7.394
 5517POPC   C1B69931  34.868  18.648   6.272
 5517POPC   C2B69932  34.991  18.428   6.613
 5517POPC   C3B69933  34.872  18.347   7.019
 5517POPC   C4B69934  34.761  18.259   7.454
 5518POPC   NC369935  44.259   8.559   5.471
 5518POPC   PO469936  43.600   8.592   5.580
 5518POPC   GL169937  43.887   8.677   5.884
 5518POPC   GL269938  44.131   8.912   5.834
 5518POPC   C1A69939  43.799   8.793   6.261
 5518POPC   D2A69940  44.055   8.859   6.588
 5518POPC   C3A69941  43.808   8.842   6.918
 5518POPC   C4A69942  43.849   8.687   7.280
 5518POPC   C1B69943  44.119   9.165   6.178
 5518POPC   C2B69944  43.754   9.311   6.421
 5518POPC   C3B69945  43.692   9.388   6.859
 5518POPC   C4B69946  43.898   9.229   7.224
 5519POPC   NC369947  20.338  38.205   5.640
 5519POPC   PO469948  20.560  37.760   5.167
 5519POPC   GL169949  20.720  37.784   5.641
 5519POPC   GL269950  20.888  38.078   5.794
 5519POPC   C1A69951  20.569  37.712   6.124
 5519POPC   D2A69952  20.243  37.660   6.503
 5519POPC   C3A69953  20.480  37.594   6.904
 5519POPC   C4A69954  20.466  37.340   7.274
 5519POPC   C1B69955  20.739  38.196   6.207
 5519POPC   C2B69956  20.576  38.025   6.582
 5519POPC   C3B69957  20.710  38.046   6.991
 5519POPC   C4B69958  20.883  37.795   7.304
 5520POPC   NC369959  38.688  32.715   5.493
 5520POPC   PO469960  38.565  32.053   5.589
 5520POPC   GL169961  38.521  32.407   5.863
 5520POPC   GL269962  38.196  32.558   5.717
 5520POPC   C1A69963  38.628  32.389   6.315
 5520POPC   D2A69964  38.321  32.188   6.605
 5520POPC   C3A69965  38.292  32.175   7.065
 5520POPC   C4A69966  38.612  32.128   7.393
 5520POPC   C1B69967  38.174  32.622   6.171
 5520POPC   C2B69968  38.320  32.721   6.567
 5520POPC   C3B69969  38.108  32.676   6.899
 5520POPC   C4B69970  38.195  32.631   7.268
 5521POPC   NC369971  32.957  43.538   5.049
 5521POPC   PO469972  33.244  44.055   5.458
 5521POPC   GL169973  32.985  43.952   5.851
 5521POPC   GL269974  32.862  43.607   5.840
 5521POPC   C1A69975  32.824  43.981   6.316
 5521POPC   D2A69976  32.830  44.184   6.733
 5521POPC   C3A69977  32.819  43.921   7.128
 5521POPC   C4A69978  32.825  43.846   7.607
 5521POPC   C1B69979  33.117  43.585   6.207
 5521POPC   C2B69980  33.052  43.643   6.660
 5521POPC   C3B69981  33.170  43.550   7.078
 5521POPC   C4B69982  33.425  43.795   7.364
 5522POPC   NC369983   7.094   2.456   5.475
 5522POPC   PO469984   7.709   2.166   5.472
 5522POPC   GL169985   7.619   2.065   5.878
 5522POPC   GL269986   7.280   2.100   5.857
 5522POPC   C1A69987   7.497   2.022   6.308
 5522POPC   D2A69988   7.261   1.946   6.644
 5522POPC   C3A69989   7.519   2.060   7.012
 5522POPC   C4A69990   7.768   1.968   7.364
 5522POPC   C1B69991   7.114   2.353   6.151
 5522POPC   C2B69992   7.276   2.480   6.529
 5522POPC   C3B69993   7.139   2.371   6.912
 5522POPC   C4B69994   7.103   2.508   7.288
 5523POPC   NC369995   4.924  13.832   5.251
 5523POPC   PO469996   5.512  13.628   5.170
 5523POPC   GL169997   5.111  13.645   5.665
 5523POPC   GL269998   4.800  13.451   5.762
 5523POPC   C1A69999   5.177  13.614   6.146
 5523POPC   D2A70000   5.431  13.673   6.539
 5523POPC   C3A70001   5.250  13.477   6.911
 5523POPC   C4A70002   5.130  13.667   7.286
 5523POPC   C1B70003   4.680  13.613   6.201
 5523POPC   C2B70004   4.847  13.724   6.611
 5523POPC   C3B70005   4.697  13.568   7.021
 5523POPC   C4B70006   4.498  13.437   7.393
 5524POPC   NC370007  15.402  38.530   5.554
 5524POPC   PO470008  16.060  38.582   5.379
 5524POPC   GL170009  15.957  38.341   5.741
 5524POPC   GL270010  16.207  38.488   5.922
 5524POPC   C1A70011  15.844  38.214   6.169
 5524POPC   D2A70012  15.962  38.001   6.577
 5524POPC   C3A70013  15.689  38.155   6.905
 5524POPC   C4A70014  15.790  38.398   7.251
 5524POPC   C1B70015  16.395  38.687   6.296
 5524POPC   C2B70016  16.252  38.746   6.730
 5524POPC   C3B70017  16.207  38.703   7.173
 5524POPC   C4B70018  16.452  38.614   7.557
 5525POPC   NC370019   3.978  44.296   5.467
 5525POPC   PO470020   3.666  43.766   5.528
 5525POPC   GL170021   3.640  43.977   5.915
 5525POPC   GL270022   3.747  44.308   5.994
 5525POPC   C1A70023   3.559  43.822   6.321
 5525POPC   D2A70024   3.426  43.580   6.644
 5525POPC   C3A70025   3.510  43.793   7.015
 5525POPC   C4A70026   3.361  43.809   7.414
 5525POPC   C1B70027   3.286  44.225   6.202
 5525POPC   C2B70028   3.154  44.009   6.601
 5525POPC   C3B70029   3.130  44.139   7.021
 5525POPC   C4B70030   3.406  44.310   7.324
 5526POPC   NC370031   0.644   7.061   5.669
 5526POPC   PO470032   0.185   7.560   5.457
 5526POPC   GL170033   0.338   7.464   5.835
 5526POPC   GL270034   0.672   7.586   5.871
 5526POPC   C1A70035   0.273   7.284   6.227
 5526POPC   D2A70036   0.212   7.422   6.637
 5526POPC   C3A70037   0.388   7.101   6.931
 5526POPC   C4A70038   0.699   7.140   7.258
 5526POPC   C1B70039   0.428   7.797   6.225
 5526POPC   C2B70040   0.530   7.894   6.647
 5526POPC   C3B70041   0.516   7.623   6.997
 5526POPC   C4B70042   0.311   7.442   7.333
 5527POPC   NC370043  43.642  23.545   5.506
 5527POPC   PO470044  44.234  23.923   5.396
 5527POPC   GL170045  44.046  23.687   5.810
 5527POPC   GL270046  44.253  23.425   5.987
 5527POPC   C1A70047  43.773  23.608   6.179
 5527POPC   D2A70048  43.680  23.802   6.584
 5527POPC   C3A70049  43.857  23.635   6.974
 5527POPC   C4A70050  43.694  23.518   7.396
 5527POPC   C1B70051  44.262  23.835   6.227
 5527POPC   C2B70052  44.180  24.015   6.584
 5527POPC   C3B70053  44.348  24.027   6.992
 5527POPC   C4B70054  44.217  23.784   7.317
 5528POPC   NC370055  13.346   0.852   5.258
 5528POPC   PO470056  13.743   0.331   5.224
 5528POPC   GL170057  13.525   0.436   5.614
 5528POPC   GL270058  13.643   0.193   5.885
 5528POPC   C1A70059  13.479   0.654   6.030
 5528POPC   D2A70060  13.398   0.705   6.491
 5528POPC   C3A70061  13.420   0.570   6.922
 5528POPC   C4A70062  13.478   0.265   7.224
 5528POPC   C1B70063  13.741   0.290   6.331
 5528POPC   C2B70064  13.896   0.007   6.677
 5528POPC   C3B70065  13.804  44.909   7.088
 5528POPC   C4B70066  13.857  44.990   7.550
 5529POPC   NC370067  11.101  40.304   5.368
 5529POPC   PO470068  11.541  39.957   5.210
 5529POPC   GL170069  11.227  39.878   5.661
 5529POPC   GL270070  11.114  40.169   5.855
 5529POPC   C1A70071  11.310  39.848   6.179
 5529POPC   D2A70072  11.116  39.820   6.603
 5529POPC   C3A70073  11.400  39.913   6.966
 5529POPC   C4A70074  11.710  39.709   7.256
 5529POPC   C1B70075  10.909  40.167   6.285
 5529POPC   C2B70076  10.949  40.287   6.746
 5529POPC   C3B70077  11.002  40.143   7.183
 5529POPC   C4B70078  10.962  40.281   7.673
 5530POPC   NC370079  44.280   6.080   5.484
 5530POPC   PO470080  43.756   5.672   5.374
 5530POPC   GL170081  43.704   5.722   5.811
 5530POPC   GL270082  43.873   6.028   5.814
 5530POPC   C1A70083  43.886   5.638   6.243
 5530POPC   D2A70084  44.045   5.821   6.651
 5530POPC   C3A70085  43.789   5.824   7.040
 5530POPC   C4A70086  43.795   5.633   7.455
 5530POPC   C1B70087  44.160   6.226   6.145
 5530POPC   C2B70088  44.253   6.328   6.585
 5530POPC   C3B70089  44.109   6.230   7.005
 5530POPC   C4B70090  43.922   6.152   7.444
 5531POPC   NC370091  15.867  11.916   5.104
 5531POPC   PO470092  15.565  12.357   5.623
 5531POPC   GL170093  15.740  12.112   5.996
 5531POPC   GL270094  16.070  11.915   5.961
 5531POPC   C1A70095  15.815  11.911   6.402
 5531POPC   D2A70096  15.679  11.907   6.817
 5531POPC   C3A70097  15.966  12.023   7.113
 5531POPC   C4A70098  15.824  12.057   7.505
 5531POPC   C1B70099  16.186  12.319   6.196
 5531POPC   C2B70100  16.293  12.517   6.573
 5531POPC   C3B70101  16.307  12.576   6.984
 5531POPC   C4B70102  16.193  12.402   7.392
 5532POPC   NC370103  43.089   7.157   5.458
 5532POPC   PO470104  43.307   7.822   5.390
 5532POPC   GL170105  43.235   7.515   5.810
 5532POPC   GL270106  43.276   7.105   5.914
 5532POPC   C1A70107  43.248   7.450   6.281
 5532POPC   D2A70108  43.085   7.609   6.668
 5532POPC   C3A70109  43.316   7.586   7.044
 5532POPC   C4A70110  43.393   7.263   7.284
 5532POPC   C1B70111  42.972   6.968   6.204
 5532POPC   C2B70112  42.949   7.098   6.602
 5532POPC   C3B70113  42.986   7.180   7.004
 5532POPC   C4B70114  43.023   6.931   7.365
 5533POPC   NC370115  42.535  23.447   5.556
 5533POPC   PO470116  43.200  23.622   5.386
 5533POPC   GL170117  43.269  23.677   5.817
 5533POPC   GL270118  42.950  23.552   5.851
 5533POPC   C1A70119  43.280  23.845   6.223
 5533POPC   D2A70120  43.256  24.176   6.529
 5533POPC   C3A70121  43.357  24.005   6.929
 5533POPC   C4A70122  43.235  23.701   7.272
 5533POPC   C1B70123  42.956  23.385   6.248
 5533POPC   C2B70124  43.101  23.369   6.672
 5533POPC   C3B70125  42.861  23.419   7.051
 5533POPC   C4B70126  42.868  23.415   7.503
 5534POPC   NC370127  25.019  20.468   5.255
 5534POPC   PO470128  25.547  20.801   5.677
 5534POPC   GL170129  25.304  20.567   5.896
 5534POPC   GL270130  25.013  20.654   5.757
 5534POPC   C1A70131  25.350  20.455   6.288
 5534POPC   D2A70132  25.521  20.655   6.631
 5534POPC   C3A70133  25.453  20.497   7.031
 5534POPC   C4A70134  25.408  20.166   7.273
 5534POPC   C1B70135  24.894  20.675   6.213
 5534POPC   C2B70136  24.994  20.452   6.631
 5534POPC   C3B70137  24.952  20.651   7.031
 5534POPC   C4B70138  25.135  20.589   7.446
 5535POPC   NC370139  32.125   3.761   5.637
 5535POPC   PO470140  32.347   3.233   5.248
 5535POPC   GL170141  32.489   3.267   5.710
 5535POPC   GL270142  32.621   3.597   5.864
 5535POPC   C1A70143  32.276   3.347   6.136
 5535POPC   D2A70144  32.291   3.545   6.539
 5535POPC   C3A70145  32.108   3.329   6.867
 5535POPC   C4A70146  31.975   3.446   7.253
 5535POPC   C1B70147  32.634   3.836   6.308
 5535POPC   C2B70148  32.619   3.880   6.814
 5535POPC   C3B70149  32.513   3.978   7.275
 5535POPC   C4B70150  32.577   3.779   7.679
 5536POPC   NC370151   2.204   7.640   5.103
 5536POPC   PO470152   1.682   7.422   5.396
 5536POPC   GL170153   1.747   7.558   5.834
 5536POPC   GL270154   1.627   7.255   5.911
 5536POPC   C1A70155   2.063   7.568   6.209
 5536POPC   D2A70156   2.190   7.825   6.598
 5536POPC   C3A70157   1.954   7.655   6.963
 5536POPC   C4A70158   2.092   7.326   7.224
 5536POPC   C1B70159   1.751   7.168   6.332
 5536POPC   C2B70160   1.818   7.125   6.761
 5536POPC   C3B70161   1.696   6.872   7.083
 5536POPC   C4B70162   1.770   7.015   7.480
 5537POPC   NC370163  25.323  30.803   5.287
 5537POPC   PO470164  25.448  30.214   5.474
 5537POPC   GL170165  25.408  30.330   5.889
 5537POPC   GL270166  25.199  30.638   5.806
 5537POPC   C1A70167  25.261  30.464   6.307
 5537POPC   D2A70168  25.097  30.674   6.684
 5537POPC   C3A70169  25.293  30.591   7.101
 5537POPC   C4A70170  25.478  30.354   7.444
 5537POPC   C1B70171  25.001  30.892   6.139
 5537POPC   C2B70172  24.848  31.084   6.538
 5537POPC   C3B70173  24.949  31.240   6.919
 5537POPC   C4B70174  24.960  30.957   7.213
 5538POPC   NC370175   7.002  10.143   5.505
 5538POPC   PO470176   7.056   9.487   5.683
 5538POPC   GL170177   6.929   9.806   5.931
 5538POPC   GL270178   6.588   9.927   5.829
 5538POPC   C1A70179   7.035   9.762   6.357
 5538POPC   D2A70180   6.792   9.862   6.701
 5538POPC   C3A70181   6.879   9.729   7.129
 5538POPC   C4A70182   6.770   9.941   7.522
 5538POPC   C1B70183   6.484   9.740   6.234
 5538POPC   C2B70184   6.270   9.813   6.637
 5538POPC   C3B70185   6.399   9.888   7.050
 5538POPC   C4B70186   6.421   9.601   7.401
 5539POPC   NC370187  19.551   7.057   5.537
 5539POPC   PO470188  20.023   7.573   5.558
 5539POPC   GL170189  19.929   7.288   5.868
 5539POPC   GL270190  19.629   7.410   5.914
 5539POPC   C1A70191  19.886   7.223   6.329
 5539POPC   D2A70192  19.957   7.600   6.591
 5539POPC   C3A70193  19.876   7.618   7.046
 5539POPC   C4A70194  19.793   7.231   7.257
 5539POPC   C1B70195  19.467   7.528   6.304
 5539POPC   C2B70196  19.500   7.418   6.737
 5539POPC   C3B70197  19.321   7.589   7.107
 5539POPC   C4B70198  19.553   7.644   7.474
 5540POPC   NC370199  19.063  15.894   5.166
 5540POPC   PO470200  19.629  16.226   5.244
 5540POPC   GL170201  19.829  16.183   5.707
 5540POPC   GL270202  19.893  15.814   5.777
 5540POPC   C1A70203  19.961  16.157   6.158
 5540POPC   D2A70204  20.031  15.848   6.477
 5540POPC   C3A70205  19.961  15.965   6.934
 5540POPC   C4A70206  20.015  15.900   7.389
 5540POPC   C1B70207  19.615  15.735   6.143
 5540POPC   C2B70208  19.606  15.545   6.551
 5540POPC   C3B70209  19.534  15.668   6.966
 5540POPC   C4B70210  19.689  15.459   7.329
 5541POPC   NC370211  16.538  15.118   5.563
 5541POPC   PO470212  16.968  15.676   5.436
 5541POPC   GL170213  17.003  15.547   5.915
 5541POPC   GL270214  16.835  15.217   5.979
 5541POPC   C1A70215  16.777  15.585   6.318
 5541POPC   D2A70216  16.785  15.533   6.774
 5541POPC   C3A70217  16.894  15.150   6.995
 5541POPC   C4A70218  17.087  14.940   7.341
 5541POPC   C1B70219  16.503  14.968   6.228
 5541POPC   C2B70220  16.413  14.810   6.664
 5541POPC   C3B70221  16.394  15.006   7.081
 5541POPC   C4B70222  16.568  14.828   7.447
 5542POPC   NC370223  30.913  29.989   5.389
 5542POPC   PO470224  30.371  29.539   5.510
 5542POPC   GL170225  30.665  29.764   5.819
 5542POPC   GL270226  30.944  30.034   5.877
 5542POPC   C1A70227  30.646  29.916   6.254
 5542POPC   D2A70228  30.602  30.107   6.642
 5542POPC   C3A70229  30.781  29.880   6.963
 5542POPC   C4A70230  30.536  29.762   7.269
 5542POPC   C1B70231  31.155  30.166   6.256
 5542POPC   C2B70232  31.069  30.303   6.689
 5542POPC   C3B70233  31.050  30.299   7.133
 5542POPC   C4B70234  31.090  29.916   7.373
 5543POPC   NC370235  31.306  33.550   5.609
 5543POPC   PO470236  31.787  34.043   5.394
 5543POPC   GL170237  31.577  33.962   5.808
 5543POPC   GL270238  31.224  34.077   5.736
 5543POPC   C1A70239  31.594  33.712   6.241
 5543POPC   D2A70240  31.443  33.672   6.699
 5543POPC   C3A70241  31.627  33.674   7.109
 5543POPC   C4A70242  31.452  33.795   7.523
 5543POPC   C1B70243  31.187  34.026   6.192
 5543POPC   C2B70244  31.197  34.115   6.635
 5543POPC   C3B70245  31.282  34.043   7.094
 5543POPC   C4B70246  31.007  34.018   7.477
 5544POPC   NC370247  29.397   7.058   5.509
 5544POPC   PO470248  29.130   6.490   5.322
 5544POPC   GL170249  29.293   6.603   5.728
 5544POPC   GL270250  29.024   6.845   5.824
 5544POPC   C1A70251  29.411   6.746   6.175
 5544POPC   D2A70252  29.562   6.588   6.608
 5544POPC   C3A70253  29.286   6.550   6.987
 5544POPC   C4A70254  28.992   6.389   7.275
 5544POPC   C1B70255  28.948   6.971   6.245
 5544POPC   C2B70256  29.118   6.915   6.643
 5544POPC   C3B70257  28.932   6.916   7.048
 5544POPC   C4B70258  28.692   7.004   7.407
 5545POPC   NC370259  26.210  19.808   5.220
 5545POPC   PO470260  25.797  19.385   5.155
 5545POPC   GL170261  25.920  19.769   5.599
 5545POPC   GL270262  26.299  19.840   5.733
 5545POPC   C1A70263  25.884  19.959   6.048
 5545POPC   D2A70264  25.994  20.115   6.493
 5545POPC   C3A70265  25.873  19.922   6.874
 5545POPC   C4A70266  25.837  19.841   7.291
 5545POPC   C1B70267  26.380  19.913   6.196
 5545POPC   C2B70268  26.327  19.739   6.663
 5545POPC   C3B70269  26.361  19.933   7.096
 5545POPC   C4B70270  26.396  20.069   7.560
 5546POPC   NC370271  44.800  38.722   5.243
 5546POPC   PO470272  44.498  38.075   5.273
 5546POPC   GL170273  44.587  38.195   5.743
 5546POPC   GL270274  44.730  38.543   5.749
 5546POPC   C1A70275  44.396  38.279   6.194
 5546POPC   D2A70276  44.178  38.289   6.630
 5546POPC   C3A70277  44.470  38.477   6.984
 5546POPC   C4A70278  44.587  38.836   7.257
 5546POPC   C1B70279  44.727  38.710   6.194
 5546POPC   C2B70280  44.808  38.813   6.636
 5546POPC   C3B70281   0.016  38.712   7.024
 5546POPC   C4B70282  44.927  38.377   7.312
 5547POPC   NC370283   1.627  35.980   5.448
 5547POPC   PO470284   2.327  36.168   5.410
 5547POPC   GL170285   2.228  36.055   5.817
 5547POPC   GL270286   2.008  35.804   5.778
 5547POPC   C1A70287   2.070  36.160   6.247
 5547POPC   D2A70288   1.976  36.325   6.673
 5547POPC   C3A70289   2.001  36.085   7.069
 5547POPC   C4A70290   2.021  36.403   7.429
 5547POPC   C1B70291   1.709  35.792   6.119
 5547POPC   C2B70292   1.686  35.931   6.547
 5547POPC   C3B70293   1.500  35.924   6.951
 5547POPC   C4B70294   1.528  35.832   7.381
 5548POPC   NC370295  11.580  36.777   5.544
 5548POPC   PO470296  11.024  37.156   5.385
 5548POPC   GL170297  11.189  37.012   5.794
 5548POPC   GL270298  11.143  36.635   5.803
 5548POPC   C1A70299  11.401  37.193   6.174
 5548POPC   D2A70300  11.522  37.200   6.612
 5548POPC   C3A70301  11.182  37.126   6.946
 5548POPC   C4A70302  11.242  37.067   7.407
 5548POPC   C1B70303  11.366  36.665   6.214
 5548POPC   C2B70304  11.286  36.661   6.660
 5548POPC   C3B70305  11.365  36.655   7.118
 5548POPC   C4B70306  11.110  36.600   7.530
 5549POPC   NC370307  42.647   0.233   5.396
 5549POPC   PO470308  43.313   0.319   5.356
 5549POPC   GL170309  43.039   0.463   5.696
 5549POPC   GL270310  42.953   0.164   5.865
 5549POPC   C1A70311  42.946   0.629   6.132
 5549POPC   D2A70312  42.969   0.343   6.513
 5549POPC   C3A70313  42.843   0.466   6.921
 5549POPC   C4A70314  42.785   0.761   7.230
 5549POPC   C1B70315  43.328   0.285   6.159
 5549POPC   C2B70316  43.502   0.162   6.564
 5549POPC   C3B70317  43.281   0.169   6.917
 5549POPC   C4B70318  43.294   0.504   7.175
 5550POPC   NC370319  14.394  19.541   5.465
 5550POPC   PO470320  14.668  20.085   5.657
 5550POPC   GL170321  14.341  19.827   5.904
 5550POPC   GL270322  14.090  19.506   5.868
 5550POPC   C1A70323  14.238  19.933   6.332
 5550POPC   D2A70324  14.565  20.085   6.643
 5550POPC   C3A70325  14.445  19.934   7.054
 5550POPC   C4A70326  14.059  19.848   7.231
 5550POPC   C1B70327  14.307  19.447   6.275
 5550POPC   C2B70328  14.375  19.554   6.730
 5550POPC   C3B70329  14.406  19.449   7.193
 5550POPC   C4B70330  14.128  19.408   7.563
 5551POPC   NC370331   4.417  30.330   5.137
 5551POPC   PO470332   4.067  29.804   5.393
 5551POPC   GL170333   4.039  29.660   5.816
 5551POPC   GL270334   4.375  29.778   5.859
 5551POPC   C1A70335   4.065  29.777   6.275
 5551POPC   D2A70336   4.285  29.766   6.666
 5551POPC   C3A70337   4.361  30.123   6.887
 5551POPC   C4A70338   4.294  30.177   7.298
 5551POPC   C1B70339   4.573  29.935   6.222
 5551POPC   C2B70340   4.799  29.855   6.577
 5551POPC   C3B70341   4.763  29.766   6.982
 5551POPC   C4B70342   4.663  29.832   7.364
 5552POPC   NC370343   4.279   6.575   5.201
 5552POPC   PO470344   4.070   7.077   5.469
 5552POPC   GL170345   4.166   6.865   5.883
 5552POPC   GL270346   4.264   6.488   5.827
 5552POPC   C1A70347   4.225   6.746   6.299
 5552POPC   D2A70348   3.957   6.714   6.650
 5552POPC   C3A70349   4.215   6.796   6.992
 5552POPC   C4A70350   3.906   6.797   7.287
 5552POPC   C1B70351   4.400   6.271   6.224
 5552POPC   C2B70352   4.344   6.374   6.648
 5552POPC   C3B70353   4.533   6.359   7.035
 5552POPC   C4B70354   4.759   6.501   7.349
 5553POPC   NC370355   3.775  41.061   5.451
 5553POPC   PO470356   3.248  40.663   5.413
 5553POPC   GL170357   3.501  40.675   5.740
 5553POPC   GL270358   3.434  40.992   5.843
 5553POPC   C1A70359   3.574  40.555   6.131
 5553POPC   D2A70360   3.558  40.772   6.524
 5553POPC   C3A70361   3.662  40.624   6.933
 5553POPC   C4A70362   3.702  40.986   7.195
 5553POPC   C1B70363   3.107  40.757   6.100
 5553POPC   C2B70364   3.016  40.761   6.534
 5553POPC   C3B70365   3.229  40.930   6.897
 5553POPC   C4B70366   3.162  41.052   7.296
 5554POPC   NC370367  20.676  13.967   5.445
 5554POPC   PO470368  20.330  13.416   5.403
 5554POPC   GL170369  20.494  13.507   5.758
 5554POPC   GL270370  20.337  13.800   5.821
 5554POPC   C1A70371  20.411  13.379   6.177
 5554POPC   D2A70372  20.690  13.245   6.503
 5554POPC   C3A70373  20.720  13.494   6.885
 5554POPC   C4A70374  20.833  13.369   7.303
 5554POPC   C1B70375  20.429  13.926   6.224
 5554POPC   C2B70376  20.319  13.709   6.590
 5554POPC   C3B70377  20.335  13.830   6.991
 5554POPC   C4B70378  20.694  13.867   7.260
 5555POPC   NC370379  19.237   2.403   5.427
 5555POPC   PO470380  18.862   2.937   5.394
 5555POPC   GL170381  19.025   2.728   5.812
 5555POPC   GL270382  19.334   2.480   5.907
 5555POPC   C1A70383  19.068   2.722   6.265
 5555POPC   D2A70384  19.228   2.928   6.628
 5555POPC   C3A70385  19.085   2.856   7.070
 5555POPC   C4A70386  18.886   2.722   7.468
 5555POPC   C1B70387  19.347   2.295   6.328
 5555POPC   C2B70388  19.154   2.411   6.749
 5555POPC   C3B70389  19.160   2.353   7.228
 5555POPC   C4B70390  18.974   2.252   7.638
 5556POPC   NC370391  23.718  26.916   5.077
 5556POPC   PO470392  24.004  26.929   5.671
 5556POPC   GL170393  23.655  27.004   5.923
 5556POPC   GL270394  23.560  26.686   5.845
 5556POPC   C1A70395  23.543  27.088   6.351
 5556POPC   D2A70396  23.833  26.937   6.670
 5556POPC   C3A70397  23.732  27.127   7.049
 5556POPC   C4A70398  23.322  26.999   7.142
 5556POPC   C1B70399  23.751  26.603   6.242
 5556POPC   C2B70400  23.550  26.430   6.599
 5556POPC   C3B70401  23.492  26.524   7.011
 5556POPC   C4B70402  23.818  26.682   7.266
 5557POPC   NC370403   3.462  25.221   5.317
 5557POPC   PO470404   4.081  25.469   5.486
 5557POPC   GL170405   3.655  25.423   5.754
 5557POPC   GL270406   3.585  25.058   5.786
 5557POPC   C1A70407   3.463  25.313   6.207
 5557POPC   D2A70408   3.381  25.467   6.649
 5557POPC   C3A70409   3.775  25.419   6.899
 5557POPC   C4A70410   3.838  25.201   7.332
 5557POPC   C1B70411   3.752  24.884   6.177
 5557POPC   C2B70412   3.563  24.989   6.605
 5557POPC   C3B70413   3.402  25.123   7.043
 5557POPC   C4B70414   3.386  24.998   7.490
 5558POPC   NC370415  26.184  22.443   5.560
 5558POPC   PO470416  25.830  21.842   5.482
 5558POPC   GL170417  25.966  22.027   5.871
 5558POPC   GL270418  26.329  21.995   5.788
 5558POPC   C1A70419  25.820  22.099   6.320
 5558POPC   D2A70420  25.965  22.019   6.740
 5558POPC   C3A70421  26.015  22.252   7.130
 5558POPC   C4A70422  25.730  22.339   7.455
 5558POPC   C1B70423  26.341  22.030   6.265
 5558POPC   C2B70424  26.386  21.741   6.662
 5558POPC   C3B70425  26.244  21.793   7.125
 5558POPC   C4B70426  26.228  22.026   7.576
 5559POPC   NC370427  17.978  20.969   5.475
 5559POPC   PO470428  17.531  21.419   5.325
 5559POPC   GL170429  17.381  21.372   5.738
 5559POPC   GL270430  17.738  21.303   5.807
 5559POPC   C1A70431  17.441  21.379   6.203
 5559POPC   D2A70432  17.478  21.175   6.563
 5559POPC   C3A70433  17.286  21.338   6.930
 5559POPC   C4A70434  17.441  21.486   7.315
 5559POPC   C1B70435  17.838  21.046   6.170
 5559POPC   C2B70436  17.933  20.962   6.613
 5559POPC   C3B70437  17.805  21.236   6.970
 5559POPC   C4B70438  17.957  21.279   7.396
 5560POPC   NC370439   7.028  17.198   5.656
 5560POPC   PO470440   7.471  17.579   5.266
 5560POPC   GL170441   7.424  17.498   5.745
 5560POPC   GL270442   7.588  17.188   5.767
 5560POPC   C1A70443   7.268  17.559   6.198
 5560POPC   D2A70444   7.371  17.327   6.593
 5560POPC   C3A70445   7.362  17.472   7.019
 5560POPC   C4A70446   7.577  17.760   7.293
 5560POPC   C1B70447   7.730  17.181   6.190
 5560POPC   C2B70448   7.918  17.238   6.595
 5560POPC   C3B70449   7.775  17.189   6.987
 5560POPC   C4B70450   7.975  17.071   7.317
 5561POPC   NC370451  19.004  13.313   5.408
 5561POPC   PO470452  19.486  13.871   5.417
 5561POPC   GL170453  19.161  13.731   5.747
 5561POPC   GL270454  18.887  13.965   5.844
 5561POPC   C1A70455  19.010  13.603   6.174
 5561POPC   D2A70456  19.140  13.454   6.587
 5561POPC   C3A70457  19.372  13.651   6.916
 5561POPC   C4A70458  19.294  13.343   7.234
 5561POPC   C1B70459  18.804  14.071   6.307
 5561POPC   C2B70460  18.715  13.758   6.644
 5561POPC   C3B70461  18.880  13.641   7.060
 5561POPC   C4B70462  18.760  13.956   7.336
 5562POPC   NC370463  30.847   1.353   5.582
 5562POPC   PO470464  30.544   0.836   5.442
 5562POPC   GL170465  30.614   0.980   5.840
 5562POPC   GL270466  30.942   0.908   5.969
 5562POPC   C1A70467  30.588   1.174   6.230
 5562POPC   D2A70468  30.487   1.028   6.614
 5562POPC   C3A70469  30.486   1.378   6.878
 5562POPC   C4A70470  30.396   1.123   7.194
 5562POPC   C1B70471  31.116   1.265   6.185
 5562POPC   C2B70472  31.009   1.212   6.589
 5562POPC   C3B70473  30.886   1.062   6.966
 5562POPC   C4B70474  30.902   1.381   7.219
 5563POPC   NC370475   8.738   1.537   5.526
 5563POPC   PO470476   9.159   1.058   5.561
 5563POPC   GL170477   9.221   1.291   5.919
 5563POPC   GL270478   9.089   1.630   5.922
 5563POPC   C1A70479   9.086   1.207   6.351
 5563POPC   D2A70480   8.864   0.988   6.711
 5563POPC   C3A70481   8.916   1.170   7.124
 5563POPC   C4A70482   9.334   1.209   7.307
 5563POPC   C1B70483   8.834   1.665   6.312
 5563POPC   C2B70484   8.887   1.552   6.749
 5563POPC   C3B70485   8.719   1.645   7.154
 5563POPC   C4B70486   8.824   1.458   7.551
 5564POPC   NC370487  22.919  21.174   5.234
 5564POPC   PO470488  23.220  21.742   5.528
 5564POPC   GL170489  22.966  21.455   5.793
 5564POPC   GL270490  22.913  21.082   5.733
 5564POPC   C1A70491  23.083  21.435   6.228
 5564POPC   D2A70492  23.232  21.743   6.529
 5564POPC   C3A70493  23.077  21.733   6.967
 5564POPC   C4A70494  23.070  21.507   7.357
 5564POPC   C1B70495  22.771  21.018   6.146
 5564POPC   C2B70496  22.707  21.248   6.521
 5564POPC   C3B70497  22.950  21.226   6.896
 5564POPC   C4B70498  22.790  21.096   7.276
 5565POPC   NC370499   0.115  44.145   5.623
 5565POPC   PO470500  44.499  44.136   5.413
 5565POPC   GL170501  44.640  44.054   5.858
 5565POPC   GL270502  44.910  43.793   5.953
 5565POPC   C1A70503  44.465  43.811   6.241
 5565POPC   D2A70504  44.220  43.863   6.635
 5565POPC   C3A70505  44.381  43.807   7.062
 5565POPC   C4A70506  44.568  43.446   7.339
 5565POPC   C1B70507  44.900  44.075   6.290
 5565POPC   C2B70508  44.724  43.973   6.683
 5565POPC   C3B70509  44.891  43.787   7.068
 5565POPC   C4B70510  44.790  44.124   7.351
 5566POPC   NC370511  36.393  27.191   5.033
 5566POPC   PO470512  36.206  26.704   5.470
 5566POPC   GL170513  36.170  26.898   5.864
 5566POPC   GL270514  36.483  26.744   5.962
 5566POPC   C1A70515  36.093  26.829   6.315
 5566POPC   D2A70516  35.951  26.512   6.625
 5566POPC   C3A70517  36.094  26.633   7.013
 5566POPC   C4A70518  36.033  27.036   7.214
 5566POPC   C1B70519  36.516  27.116   6.244
 5566POPC   C2B70520  36.488  27.205   6.694
 5566POPC   C3B70521  36.528  26.962   7.083
 5566POPC   C4B70522  36.493  26.568   7.326
 5567POPC   NC370523  16.430  36.700   5.403
 5567POPC   PO470524  17.001  36.962   5.641
 5567POPC   GL170525  16.911  36.797   5.981
 5567POPC   GL270526  16.553  36.716   5.957
 5567POPC   C1A70527  16.891  36.732   6.389
 5567POPC   D2A70528  16.618  36.907   6.644
 5567POPC   C3A70529  16.766  36.938   7.008
 5567POPC   C4A70530  17.074  36.646   7.115
 5567POPC   C1B70531  16.331  36.993   6.237
 5567POPC   C2B70532  16.276  37.277   6.622
 5567POPC   C3B70533  16.272  37.231   7.081
 5567POPC   C4B70534  16.480  37.041   7.388
 5568POPC   NC370535   3.678  37.698   5.431
 5568POPC   PO470536   3.211  37.190   5.498
 5568POPC   GL170537   3.485  37.356   5.868
 5568POPC   GL270538   3.570  37.719   5.943
 5568POPC   C1A70539   3.669  37.372   6.318
 5568POPC   D2A70540   3.490  37.343   6.707
 5568POPC   C3A70541   3.545  37.622   7.053
 5568POPC   C4A70542   3.300  37.766   7.403
 5568POPC   C1B70543   3.477  37.833   6.385
 5568POPC   C2B70544   3.329  38.163   6.663
 5568POPC   C3B70545   3.452  38.139   7.075
 5568POPC   C4B70546   3.781  38.030   7.366
 5569POPC   NC370547  40.592  31.024   5.567
 5569POPC   PO470548  41.161  30.599   5.558
 5569POPC   GL170549  40.969  30.814   5.900
 5569POPC   GL270550  40.580  30.752   6.006
 5569POPC   C1A70551  40.943  30.830   6.338
 5569POPC   D2A70552  40.586  30.708   6.538
 5569POPC   C3A70553  40.667  30.810   6.932
 5569POPC   C4A70554  41.056  30.820   7.160
 5569POPC   C1B70555  40.556  31.166   6.257
 5569POPC   C2B70556  40.460  31.394   6.646
 5569POPC   C3B70557  40.410  31.254   7.071
 5569POPC   C4B70558  40.667  31.082   7.374
 5570POPC   NC370559  27.418  11.637   5.469
 5570POPC   PO470560  27.870  11.090   5.492
 5570POPC   GL170561  27.703  11.360   5.791
 5570POPC   GL270562  27.348  11.326   5.890
 5570POPC   C1A70563  27.782  11.483   6.207
 5570POPC   D2A70564  27.596  11.270   6.530
 5570POPC   C3A70565  27.724  11.203   6.921
 5570POPC   C4A70566  27.956  11.464   7.151
 5570POPC   C1B70567  27.158  11.248   6.300
 5570POPC   C2B70568  27.170  11.141   6.771
 5570POPC   C3B70569  27.301  11.324   7.189
 5570POPC   C4B70570  27.244  11.306   7.669
 5571POPC   NC370571  17.404   8.444   5.167
 5571POPC   PO470572  17.846   8.028   5.280
 5571POPC   GL170573  17.847   8.089   5.727
 5571POPC   GL270574  18.049   7.822   5.775
 5571POPC   C1A70575  17.584   8.229   6.120
 5571POPC   D2A70576  17.721   8.445   6.514
 5571POPC   C3A70577  17.530   8.369   6.925
 5571POPC   C4A70578  17.688   8.269   7.328
 5571POPC   C1B70579  17.822   7.792   6.185
 5571POPC   C2B70580  17.672   7.929   6.589
 5571POPC   C3B70581  17.658   7.868   7.025
 5571POPC   C4B70582  17.671   7.781   7.476
 5572POPC   NC370583  44.378  36.963   5.600
 5572POPC   PO470584  43.835  36.997   5.251
 5572POPC   GL170585  43.874  36.884   5.722
 5572POPC   GL270586  44.133  36.708   5.963
 5572POPC   C1A70587  43.691  36.904   6.146
 5572POPC   D2A70588  43.906  36.749   6.516
 5572POPC   C3A70589  43.769  36.899   6.921
 5572POPC   C4A70590  43.645  36.789   7.357
 5572POPC   C1B70591  44.173  37.096   6.192
 5572POPC   C2B70592  44.159  37.243   6.584
 5572POPC   C3B70593  44.237  37.134   6.990
 5572POPC   C4B70594  43.957  37.221   7.290
 5573POPC   NC370595  38.775   1.399   5.411
 5573POPC   PO470596  39.075   0.763   5.458
 5573POPC   GL170597  39.096   0.974   5.902
 5573POPC   GL270598  39.095   1.327   5.896
 5573POPC   C1A70599  39.329   1.104   6.318
 5573POPC   D2A70600  39.697   1.209   6.617
 5573POPC   C3A70601  39.606   1.087   7.055
 5573POPC   C4A70602  39.192   0.919   7.144
 5573POPC   C1B70603  39.428   1.556   6.127
 5573POPC   C2B70604  39.364   1.595   6.578
 5573POPC   C3B70605  39.220   1.402   6.950
 5573POPC   C4B70606  39.252   1.488   7.404
 5574POPC   NC370607   5.986   6.747   5.451
 5574POPC   PO470608   5.542   6.290   5.625
 5574POPC   GL170609   5.746   6.539   5.932
 5574POPC   GL270610   5.914   6.861   5.939
 5574POPC   C1A70611   5.663   6.682   6.346
 5574POPC   D2A70612   5.848   6.923   6.639
 5574POPC   C3A70613   5.703   6.719   7.003
 5574POPC   C4A70614   5.528   6.649   7.399
 5574POPC   C1B70615   6.162   6.599   6.225
 5574POPC   C2B70616   6.103   6.465   6.638
 5574POPC   C3B70617   6.185   6.587   7.039
 5574POPC   C4B70618   5.993   6.444   7.432
 5575POPC   NC370619  17.721  14.437   5.644
 5575POPC   PO470620  17.192  14.026   5.397
 5575POPC   GL170621  17.342  14.130   5.827
 5575POPC   GL270622  17.678  14.090   6.009
 5575POPC   C1A70623  17.213  14.171   6.258
 5575POPC   D2A70624  17.363  14.179   6.672
 5575POPC   C3A70625  17.266  14.461   7.002
 5575POPC   C4A70626  17.345  14.144   7.309
 5575POPC   C1B70627  17.586  14.500   6.267
 5575POPC   C2B70628  17.675  14.589   6.664
 5575POPC   C3B70629  17.751  14.356   7.008
 5575POPC   C4B70630  17.800  14.600   7.326
 5576POPC   NC370631  22.267   0.756   5.607
 5576POPC   PO470632  22.150   0.113   5.408
 5576POPC   GL170633  22.355   0.274   5.788
 5576POPC   GL270634  22.030   0.389   5.886
 5576POPC   C1A70635  22.420   0.350   6.250
 5576POPC   D2A70636  22.304   0.055   6.618
 5576POPC   C3A70637  22.057   0.146   6.941
 5576POPC   C4A70638  22.169   0.441   7.170
 5576POPC   C1B70639  21.929   0.475   6.316
 5576POPC   C2B70640  22.158   0.589   6.666
 5576POPC   C3B70641  21.938   0.869   6.916
 5576POPC   C4B70642  21.924   0.856   7.332
 5577POPC   NC370643  17.682   5.187   5.361
 5577POPC   PO470644  17.230   4.665   5.322
 5577POPC   GL170645  17.390   4.932   5.710
 5577POPC   GL270646  17.758   4.884   5.781
 5577POPC   C1A70647  17.481   5.097   6.157
 5577POPC   D2A70648  17.318   5.205   6.581
 5577POPC   C3A70649  17.434   5.021   6.996
 5577POPC   C4A70650  17.442   5.314   7.342
 5577POPC   C1B70651  17.943   4.870   6.218
 5577POPC   C2B70652  17.767   4.819   6.639
 5577POPC   C3B70653  17.934   4.901   7.040
 5577POPC   C4B70654  17.913   5.363   7.107
 5578POPC   NC370655  35.634   8.997   5.417
 5578POPC   PO470656  34.967   8.906   5.417
 5578POPC   GL170657  35.229   9.023   5.798
 5578POPC   GL270658  35.482   8.769   5.862
 5578POPC   C1A70659  35.368   9.133   6.235
 5578POPC   D2A70660  35.370   9.025   6.667
 5578POPC   C3A70661  35.590   9.256   6.999
 5578POPC   C4A70662  35.567   9.284   7.460
 5578POPC   C1B70663  35.569   8.644   6.317
 5578POPC   C2B70664  35.424   8.519   6.745
 5578POPC   C3B70665  35.376   8.789   7.121
 5578POPC   C4B70666  35.083   8.728   7.425
 5579POPC   NC370667  11.422  12.374   5.460
 5579POPC   PO470668  11.037  11.789   5.438
 5579POPC   GL170669  11.266  12.004   5.794
 5579POPC   GL270670  11.126  12.321   5.884
 5579POPC   C1A70671  11.356  12.041   6.246
 5579POPC   D2A70672  11.159  12.027   6.664
 5579POPC   C3A70673  11.407  11.983   7.051
 5579POPC   C4A70674  11.548  11.616   7.303
 5579POPC   C1B70675  10.871  12.268   6.266
 5579POPC   C2B70676  10.798  12.378   6.715
 5579POPC   C3B70677  10.973  12.255   7.140
 5579POPC   C4B70678  10.909  12.300   7.613
 5580POPC   NC370679  40.757   9.278   5.403
 5580POPC   PO470680  40.637   8.511   5.441
 5580POPC   GL170681  40.764   8.818   5.761
 5580POPC   GL270682  40.943   8.584   5.918
 5580POPC   C1A70683  40.829   8.933   6.243
 5580POPC   D2A70684  40.863   9.213   6.597
 5580POPC   C3A70685  41.090   9.145   6.948
 5580POPC   C4A70686  40.807   9.115   7.264
 5580POPC   C1B70687  40.623   8.465   6.152
 5580POPC   C2B70688  40.666   8.438   6.570
 5580POPC   C3B70689  40.800   8.712   6.891
 5580POPC   C4B70690  40.651   8.630   7.281
 5581POPC   NC370691  40.114  16.383   5.407
 5581POPC   PO470692  39.653  15.921   5.449
 5581POPC   GL170693  39.912  15.792   5.804
 5581POPC   GL270694  40.081  16.093   5.835
 5581POPC   C1A70695  40.032  15.762   6.242
 5581POPC   D2A70696  39.960  15.926   6.674
 5581POPC   C3A70697  40.052  15.749   7.090
 5581POPC   C4A70698  40.352  15.883   7.394
 5581POPC   C1B70699  39.994  16.281   6.236
 5581POPC   C2B70700  40.125  16.429   6.622
 5581POPC   C3B70701  40.187  16.261   7.022
 5581POPC   C4B70702  40.059  16.316   7.430
 5582POPC   NC370703  37.566   8.647   5.530
 5582POPC   PO470704  37.656   9.344   5.404
 5582POPC   GL170705  37.752   9.181   5.824
 5582POPC   GL270706  37.879   8.825   5.888
 5582POPC   C1A70707  37.608   9.350   6.235
 5582POPC   D2A70708  37.231   9.244   6.502
 5582POPC   C3A70709  37.318   8.990   6.875
 5582POPC   C4A70710  37.661   9.037   7.208
 5582POPC   C1B70711  37.606   8.839   6.234
 5582POPC   C2B70712  37.762   8.937   6.635
 5582POPC   C3B70713  37.822   8.635   6.968
 5582POPC   C4B70714  37.428   8.581   7.201
 5583POPC   NC370715  39.622  28.725   5.358
 5583POPC   PO470716  39.933  29.389   5.518
 5583POPC   GL170717  40.068  29.256   5.891
 5583POPC   GL270718  39.999  28.930   5.748
 5583POPC   C1A70719  40.065  29.152   6.318
 5583POPC   D2A70720  40.310  29.255   6.660
 5583POPC   C3A70721  40.145  29.325   7.053
 5583POPC   C4A70722  39.844  28.980   7.127
 5583POPC   C1B70723  39.742  28.817   6.087
 5583POPC   C2B70724  39.746  28.772   6.541
 5583POPC   C3B70725  39.532  28.594   6.909
 5583POPC   C4B70726  39.469  28.604   7.346
 5584POPC   NC370727  31.080  20.478   5.396
 5584POPC   PO470728  30.860  21.007   5.614
 5584POPC   GL170729  30.663  20.728   5.902
 5584POPC   GL270730  30.712  20.379   5.791
 5584POPC   C1A70731  30.564  20.522   6.296
 5584POPC   D2A70732  30.313  20.614   6.644
 5584POPC   C3A70733  30.421  20.554   7.047
 5584POPC   C4A70734  30.462  20.313   7.383
 5584POPC   C1B70735  31.084  20.409   6.056
 5584POPC   C2B70736  31.045  20.480   6.467
 5584POPC   C3B70737  30.809  20.348   6.792
 5584POPC   C4B70738  30.929  20.522   7.206
 5585POPC   NC370739  22.437  32.519   5.545
 5585POPC   PO470740  22.204  33.100   5.225
 5585POPC   GL170741  22.198  33.175   5.720
 5585POPC   GL270742  22.332  32.873   5.908
 5585POPC   C1A70743  22.171  33.235   6.219
 5585POPC   D2A70744  22.247  33.012   6.624
 5585POPC   C3A70745  22.055  33.077   7.033
 5585POPC   C4A70746  22.028  32.816   7.429
 5585POPC   C1B70747  22.460  32.621   6.282
 5585POPC   C2B70748  22.543  32.599   6.722
 5585POPC   C3B70749  22.496  32.836   7.095
 5585POPC   C4B70750  22.520  32.877   7.546
 5586POPC   NC370751  31.036  14.547   5.446
 5586POPC   PO470752  30.675  13.980   5.430
 5586POPC   GL170753  30.744  14.229   5.798
 5586POPC   GL270754  30.506  14.477   5.694
 5586POPC   C1A70755  30.883  14.330   6.241
 5586POPC   D2A70756  30.661  14.177   6.656
 5586POPC   C3A70757  30.819  14.354   7.071
 5586POPC   C4A70758  31.041  14.474   7.462
 5586POPC   C1B70759  30.464  14.622   6.126
 5586POPC   C2B70760  30.648  14.668   6.551
 5586POPC   C3B70761  30.686  14.854   6.944
 5586POPC   C4B70762  30.868  14.921   7.332
 5587POPC   NC370763  32.883  34.347   5.247
 5587POPC   PO470764  33.396  34.694   5.194
 5587POPC   GL170765  32.929  34.727   5.566
 5587POPC   GL270766  32.901  34.405   5.755
 5587POPC   C1A70767  32.839  34.776   6.077
 5587POPC   D2A70768  32.738  34.875   6.524
 5587POPC   C3A70769  33.003  34.711   6.877
 5587POPC   C4A70770  33.182  34.914   7.242
 5587POPC   C1B70771  33.022  34.278   6.202
 5587POPC   C2B70772  32.981  34.209   6.663
 5587POPC   C3B70773  32.737  34.266   7.029
 5587POPC   C4B70774  32.768  34.276   7.500
 5588POPC   NC370775   9.266  36.398   5.437
 5588POPC   PO470776   9.097  35.770   5.569
 5588POPC   GL170777   8.935  36.122   5.812
 5588POPC   GL270778   9.217  36.321   5.944
 5588POPC   C1A70779   8.797  36.239   6.249
 5588POPC   D2A70780   9.118  36.347   6.592
 5588POPC   C3A70781   9.143  36.175   7.030
 5588POPC   C4A70782   9.157  36.295   7.476
 5588POPC   C1B70783   9.228  35.963   6.230
 5588POPC   C2B70784   9.412  35.909   6.644
 5588POPC   C3B70785   9.346  35.697   7.045
 5588POPC   C4B70786   9.405  35.777   7.483
 5589POPC   NC370787  29.735  26.911   5.625
 5589POPC   PO470788  30.154  26.620   5.179
 5589POPC   GL170789  30.095  26.554   5.714
 5589POPC   GL270790  29.775  26.671   6.035
 5589POPC   C1A70791  30.211  26.561   6.200
 5589POPC   D2A70792  29.961  26.784   6.557
 5589POPC   C3A70793  30.039  26.966   7.001
 5589POPC   C4A70794  30.084  26.753   7.400
 5589POPC   C1B70795  29.629  27.062   6.272
 5589POPC   C2B70796  29.682  27.218   6.698
 5589POPC   C3B70797  29.726  27.423   7.106
 5589POPC   C4B70798  29.656  27.428   7.569
 5590POPC   NC370799  16.956  37.422   5.591
 5590POPC   PO470800  16.430  37.761   5.455
 5590POPC   GL170801  16.547  37.577   5.845
 5590POPC   GL270802  16.509  37.211   5.807
 5590POPC   C1A70803  16.788  37.785   6.199
 5590POPC   D2A70804  17.017  37.963   6.561
 5590POPC   C3A70805  16.770  37.971   6.943
 5590POPC   C4A70806  16.658  38.081   7.338
 5590POPC   C1B70807  16.757  37.251   6.208
 5590POPC   C2B70808  16.850  37.426   6.582
 5590POPC   C3B70809  16.708  37.462   6.962
 5590POPC   C4B70810  16.795  37.446   7.365
 5591POPC   NC370811   2.461  35.621   5.439
 5591POPC   PO470812   1.740  35.489   5.461
 5591POPC   GL170813   1.828  35.321   5.875
 5591POPC   GL270814   2.184  35.334   5.957
 5591POPC   C1A70815   1.845  35.343   6.335
 5591POPC   D2A70816   2.008  35.223   6.722
 5591POPC   C3A70817   1.799  35.489   6.967
 5591POPC   C4A70818   1.531  35.349   7.255
 5591POPC   C1B70819   2.253  35.677   6.231
 5591POPC   C2B70820   2.185  35.820   6.655
 5591POPC   C3B70821   2.289  35.638   7.054
 5591POPC   C4B70822   2.254  35.219   7.181
 5592POPC   NC370823  36.354  40.220   5.088
 5592POPC   PO470824  36.366  39.533   5.424
 5592POPC   GL170825  36.238  39.855   5.758
 5592POPC   GL270826  35.908  40.051   5.726
 5592POPC   C1A70827  36.296  40.063   6.159
 5592POPC   D2A70828  36.448  39.897   6.549
 5592POPC   C3A70829  36.294  40.104   6.884
 5592POPC   C4A70830  36.254  40.242   7.278
 5592POPC   C1B70831  35.818  39.866   6.116
 5592POPC   C2B70832  35.889  39.966   6.538
 5592POPC   C3B70833  35.808  39.880   6.954
 5592POPC   C4B70834  35.786  39.787   7.354
 5593POPC   NC370835  15.238  35.052   5.491
 5593POPC   PO470836  15.435  35.683   5.398
 5593POPC   GL170837  15.235  35.510   5.731
 5593POPC   GL270838  15.541  35.322   5.831
 5593POPC   C1A70839  14.993  35.667   6.089
 5593POPC   D2A70840  14.862  35.508   6.490
 5593POPC   C3A70841  15.165  35.541   6.792
 5593POPC   C4A70842  15.112  35.434   7.201
 5593POPC   C1B70843  15.311  35.251   6.209
 5593POPC   C2B70844  15.525  35.213   6.598
 5593POPC   C3B70845  15.425  35.071   7.003
 5593POPC   C4B70846  15.580  35.214   7.385
 5594POPC   NC370847  27.264   5.290   5.326
 5594POPC   PO470848  27.790   4.887   5.477
 5594POPC   GL170849  27.553   4.868   5.849
 5594POPC   GL270850  27.486   5.218   5.808
 5594POPC   C1A70851  27.573   5.032   6.273
 5594POPC   D2A70852  27.843   5.195   6.580
 5594POPC   C3A70853  27.630   5.121   6.904
 5594POPC   C4A70854  27.635   5.105   7.311
 5594POPC   C1B70855  27.219   5.420   6.124
 5594POPC   C2B70856  27.014   5.324   6.498
 5594POPC   C3B70857  27.142   5.300   6.908
 5594POPC   C4B70858  27.223   5.401   7.324
 5595POPC   NC370859   8.846  39.075   5.369
 5595POPC   PO470860   9.191  39.623   5.490
 5595POPC   GL170861   9.135  39.375   5.861
 5595POPC   GL270862   9.099  38.995   5.808
 5595POPC   C1A70863   8.921  39.261   6.239
 5595POPC   D2A70864   8.922  38.991   6.574
 5595POPC   C3A70865   8.890  39.246   6.929
 5595POPC   C4A70866   8.599  39.220   7.242
 5595POPC   C1B70867   9.364  39.005   6.162
 5595POPC   C2B70868   9.432  39.080   6.594
 5595POPC   C3B70869   9.348  38.995   7.009
 5595POPC   C4B70870   9.059  38.995   7.357
 5596POPC   NC370871  34.021   4.314   5.575
 5596POPC   PO470872  33.458   4.078   5.536
 5596POPC   GL170873  33.732   4.074   5.934
 5596POPC   GL270874  33.745   4.446   5.998
 5596POPC   C1A70875  34.029   3.993   6.318
 5596POPC   D2A70876  34.054   4.020   6.776
 5596POPC   C3A70877  33.820   4.164   7.153
 5596POPC   C4A70878  34.026   4.310   7.582
 5596POPC   C1B70879  33.615   4.292   6.396
 5596POPC   C2B70880  33.791   4.474   6.743
 5596POPC   C3B70881  34.036   4.610   7.075
 5596POPC   C4B70882  33.682   4.640   7.318
 5597POPC   NC370883  21.911  37.391   5.453
 5597POPC   PO470884  22.189  37.983   5.587
 5597POPC   GL170885  22.115  37.620   5.878
 5597POPC   GL270886  21.785  37.423   5.930
 5597POPC   C1A70887  22.212  37.429   6.272
 5597POPC   D2A70888  22.451  37.401   6.660
 5597POPC   C3A70889  22.233  37.521   7.042
 5597POPC   C4A70890  22.162  37.852   7.388
 5597POPC   C1B70891  21.769  37.173   6.266
 5597POPC   C2B70892  21.950  37.166   6.645
 5597POPC   C3B70893  21.755  37.260   7.006
 5597POPC   C4B70894  21.818  37.490   7.357
 5598POPC   NC370895   3.830  12.691   5.471
 5598POPC   PO470896   3.268  13.059   5.618
 5598POPC   GL170897   3.592  12.949   5.845
 5598POPC   GL270898   3.753  13.283   5.890
 5598POPC   C1A70899   3.570  12.583   6.122
 5598POPC   D2A70900   3.674  12.472   6.524
 5598POPC   C3A70901   3.407  12.622   6.843
 5598POPC   C4A70902   3.587  12.805   7.194
 5598POPC   C1B70903   3.476  13.221   6.259
 5598POPC   C2B70904   3.183  12.983   6.511
 5598POPC   C3B70905   3.177  13.071   6.945
 5598POPC   C4B70906   3.239  13.139   7.382
 5599POPC   NC370907  32.480  24.527   5.452
 5599POPC   PO470908  31.912  24.282   5.490
 5599POPC   GL170909  32.187  24.352   5.857
 5599POPC   GL270910  32.322  24.709   5.895
 5599POPC   C1A70911  32.315  24.398   6.289
 5599POPC   D2A70912  32.314  24.242   6.676
 5599POPC   C3A70913  32.397  24.509   7.007
 5599POPC   C4A70914  32.602  24.219   7.246
 5599POPC   C1B70915  32.003  24.780   6.194
 5599POPC   C2B70916  31.938  24.607   6.611
 5599POPC   C3B70917  31.961  24.824   6.994
 5599POPC   C4B70918  31.871  24.741   7.407
 5600POPC   NC370919  21.967  36.642   5.405
 5600POPC   PO470920  22.362  37.214   5.528
 5600POPC   GL170921  22.133  36.992   5.818
 5600POPC   GL270922  22.221  36.602   5.842
 5600POPC   C1A70923  22.188  36.903   6.245
 5600POPC   D2A70924  22.379  36.856   6.633
 5600POPC   C3A70925  22.114  36.834   6.989
 5600POPC   C4A70926  22.073  37.052   7.366
 5600POPC   C1B70927  22.450  36.457   6.241
 5600POPC   C2B70928  22.549  36.369   6.683
 5600POPC   C3B70929  22.553  36.553   7.108
 5600POPC   C4B70930  22.671  36.452   7.542
 5601POPC   NC370931  28.933  41.000   5.398
 5601POPC   PO470932  29.382  40.553   5.423
 5601POPC   GL170933  29.069  40.678   5.804
 5601POPC   GL270934  28.890  41.011   5.900
 5601POPC   C1A70935  29.228  40.831   6.241
 5601POPC   D2A70936  29.351  40.614   6.629
 5601POPC   C3A70937  29.185  40.704   7.011
 5601POPC   C4A70938  29.399  41.013   7.218
 5601POPC   C1B70939  28.756  40.946   6.322
 5601POPC   C2B70940  28.971  41.060   6.714
 5601POPC   C3B70941  28.883  41.092   7.190
 5601POPC   C4B70942  29.030  41.157   7.628
 5602POPC   NC370943  24.172   7.136   5.550
 5602POPC   PO470944  24.714   7.476   5.586
 5602POPC   GL170945  24.357   7.467   5.879
 5602POPC   GL270946  24.605   7.292   6.040
 5602POPC   C1A70947  24.172   7.259   6.273
 5602POPC   D2A70948  24.441   7.335   6.647
 5602POPC   C3A70949  24.286   7.203   7.055
 5602POPC   C4A70950  24.079   7.445   7.400
 5602POPC   C1B70951  24.839   7.483   6.339
 5602POPC   C2B70952  24.933   7.604   6.750
 5602POPC   C3B70953  24.614   7.613   7.068
 5602POPC   C4B70954  24.630   7.365   7.419
 5603POPC   NC370955  13.193  36.641   5.423
 5603POPC   PO470956  13.802  36.891   5.273
 5603POPC   GL170957  13.811  36.804   5.729
 5603POPC   GL270958  13.490  36.869   5.818
 5603POPC   C1A70959  13.857  36.932   6.181
 5603POPC   D2A70960  13.615  36.970   6.570
 5603POPC   C3A70961  13.780  36.843   6.966
 5603POPC   C4A70962  13.756  37.207   7.167
 5603POPC   C1B70963  13.394  36.678   6.207
 5603POPC   C2B70964  13.111  36.784   6.521
 5603POPC   C3B70965  13.228  36.916   6.907
 5603POPC   C4B70966  13.354  36.543   7.058
 5604POPC   NC370967  28.877  21.608   5.482
 5604POPC   PO470968  29.261  21.077   5.459
 5604POPC   GL170969  29.313  21.251   5.867
 5604POPC   GL270970  29.155  21.568   5.902
 5604POPC   C1A70971  29.228  21.157   6.274
 5604POPC   D2A70972  28.923  21.321   6.530
 5604POPC   C3A70973  29.002  21.232   6.963
 5604POPC   C4A70974  28.798  20.957   7.265
 5604POPC   C1B70975  29.225  21.720   6.299
 5604POPC   C2B70976  29.298  21.910   6.674
 5604POPC   C3B70977  29.465  21.914   7.067
 5604POPC   C4B70978  29.408  21.573   7.279
 5605POPC   NC370979  43.962   7.655   5.161
 5605POPC   PO470980  43.632   7.226   5.561
 5605POPC   GL170981  43.714   7.369   5.973
 5605POPC   GL270982  44.015   7.515   5.955
 5605POPC   C1A70983  43.716   7.230   6.365
 5605POPC   D2A70984  43.465   7.188   6.732
 5605POPC   C3A70985  43.793   7.115   7.031
 5605POPC   C4A70986  43.923   7.283   7.394
 5605POPC   C1B70987  44.201   7.527   6.343
 5605POPC   C2B70988  44.169   7.241   6.689
 5605POPC   C3B70989  44.338   7.266   7.088
 5605POPC   C4B70990  44.543   7.651   7.153
 5606POPC   NC370991  26.818  36.300   4.992
 5606POPC   PO470992  26.983  36.821   5.500
 5606POPC   GL170993  26.693  36.866   5.836
 5606POPC   GL270994  26.392  36.844   5.647
 5606POPC   C1A70995  26.646  37.013   6.294
 5606POPC   D2A70996  26.433  37.135   6.695
 5606POPC   C3A70997  26.659  37.010   7.071
 5606POPC   C4A70998  26.957  37.021   7.363
 5606POPC   C1B70999  26.246  36.765   6.081
 5606POPC   C2B71000  26.344  36.606   6.495
 5606POPC   C3B71001  26.291  36.682   6.945
 5606POPC   C4B71002  26.546  36.567   7.334
 5607POPC   NC371003  19.988   9.731   5.326
 5607POPC   PO471004  19.432   9.936   5.633
 5607POPC   GL171005  19.740   9.772   5.929
 5607POPC   GL271006  20.100   9.784   5.815
 5607POPC   C1A71007  19.658   9.684   6.364
 5607POPC   D2A71008  19.589   9.439   6.737
 5607POPC   C3A71009  19.528   9.761   7.003
 5607POPC   C4A71010  19.663  10.071   7.280
 5607POPC   C1B71011  20.187   9.625   6.221
 5607POPC   C2B71012  20.081   9.537   6.656
 5607POPC   C3B71013  20.032   9.692   7.076
 5607POPC   C4B71014  20.170  10.069   7.264
 5608POPC   NC371015  42.533  33.747   5.420
 5608POPC   PO471016  42.190  34.281   5.181
 5608POPC   GL171017  42.063  33.946   5.567
 5608POPC   GL271018  42.178  33.612   5.754
 5608POPC   C1A71019  41.991  33.957   6.069
 5608POPC   D2A71020  42.123  33.747   6.495
 5608POPC   C3A71021  42.170  33.912   6.949
 5608POPC   C4A71022  42.022  33.787   7.363
 5608POPC   C1B71023  42.469  33.691   6.108
 5608POPC   C2B71024  42.654  33.741   6.518
 5608POPC   C3B71025  42.601  33.610   6.898
 5608POPC   C4B71026  42.684  33.839   7.253
 5609POPC   NC371027   8.452  25.543   5.429
 5609POPC   PO471028   7.949  25.134   5.357
 5609POPC   GL171029   8.000  25.028   5.827
 5609POPC   GL271030   8.354  24.948   5.949
 5609POPC   C1A71031   7.977  25.204   6.270
 5609POPC   D2A71032   8.073  25.059   6.680
 5609POPC   C3A71033   8.055  25.278   7.068
 5609POPC   C4A71034   8.192  24.997   7.386
 5609POPC   C1B71035   8.490  25.274   6.289
 5609POPC   C2B71036   8.515  25.318   6.752
 5609POPC   C3B71037   8.576  25.281   7.172
 5609POPC   C4B71038   8.657  25.185   7.602
 5610POPC   NC371039  18.168  26.478   5.520
 5610POPC   PO471040  18.519  27.033   5.291
 5610POPC   GL171041  18.415  26.885   5.780
 5610POPC   GL271042  18.092  26.816   5.975
 5610POPC   C1A71043  18.497  26.798   6.271
 5610POPC   D2A71044  18.254  26.875   6.625
 5610POPC   C3A71045  18.450  26.668   6.959
 5610POPC   C4A71046  18.398  26.725   7.382
 5610POPC   C1B71047  18.084  26.491   6.297
 5610POPC   C2B71048  18.036  26.412   6.737
 5610POPC   C3B71049  17.926  26.721   7.072
 5610POPC   C4B71050  17.904  26.655   7.520
 5611POPC   NC371051  27.683  38.951   5.241
 5611POPC   PO471052  27.642  38.306   5.391
 5611POPC   GL171053  27.534  38.513   5.785
 5611POPC   GL271054  27.750  38.786   5.801
 5611POPC   C1A71055  27.523  38.522   6.251
 5611POPC   D2A71056  27.655  38.288   6.635
 5611POPC   C3A71057  27.583  38.408   7.063
 5611POPC   C4A71058  27.243  38.140   7.135
 5611POPC   C1B71059  28.019  38.753   6.180
 5611POPC   C2B71060  27.811  38.765   6.600
 5611POPC   C3B71061  28.012  38.684   6.975
 5611POPC   C4B71062  27.875  38.723   7.361
 5612POPC   NC371063  28.510  22.066   5.293
 5612POPC   PO471064  28.166  22.584   5.124
 5612POPC   GL171065  28.460  22.484   5.589
 5612POPC   GL271066  28.455  22.113   5.793
 5612POPC   C1A71067  28.527  22.517   6.084
 5612POPC   D2A71068  28.297  22.388   6.472
 5612POPC   C3A71069  28.568  22.253   6.801
 5612POPC   C4A71070  28.559  22.243   7.250
 5612POPC   C1B71071  28.225  21.914   6.168
 5612POPC   C2B71072  28.273  21.867   6.616
 5612POPC   C3B71073  28.137  22.022   7.018
 5612POPC   C4B71074  28.182  21.998   7.484
 5613POPC   NC371075  32.659  14.062   5.413
 5613POPC   PO471076  33.124  14.571   5.310
 5613POPC   GL171077  33.052  14.337   5.730
 5613POPC   GL271078  32.739  14.418   5.871
 5613POPC   C1A71079  33.060  14.195   6.202
 5613POPC   D2A71080  33.066  14.359   6.640
 5613POPC   C3A71081  33.195  14.162   7.054
 5613POPC   C4A71082  33.323  14.194   7.474
 5613POPC   C1B71083  32.795  14.672   6.275
 5613POPC   C2B71084  32.892  14.842   6.696
 5613POPC   C3B71085  32.958  14.649   7.072
 5613POPC   C4B71086  32.751  14.329   7.207
 5614POPC   NC371087  23.188  31.962   5.420
 5614POPC   PO471088  22.697  32.395   5.162
 5614POPC   GL171089  22.818  32.221   5.645
 5614POPC   GL271090  23.129  32.354   5.768
 5614POPC   C1A71091  22.748  32.221   6.131
 5614POPC   D2A71092  22.926  32.246   6.578
 5614POPC   C3A71093  22.728  32.204   6.975
 5614POPC   C4A71094  22.811  32.505   7.303
 5614POPC   C1B71095  23.257  32.336   6.201
 5614POPC   C2B71096  23.382  32.509   6.615
 5614POPC   C3B71097  23.266  32.420   7.035
 5614POPC   C4B71098  23.087  32.093   7.286
 5615POPC   NC371099  33.312   7.660   5.625
 5615POPC   PO471100  32.914   7.042   5.576
 5615POPC   GL171101  33.170   7.093   5.947
 5615POPC   GL271102  33.029   7.445   5.973
 5615POPC   C1A71103  33.276   7.268   6.372
 5615POPC   D2A71104  33.022   7.519   6.633
 5615POPC   C3A71105  33.161   7.471   7.041
 5615POPC   C4A71106  33.375   7.612   7.409
 5615POPC   C1B71107  32.781   7.201   6.262
 5615POPC   C2B71108  32.848   7.001   6.620
 5615POPC   C3B71109  32.728   7.133   6.994
 5615POPC   C4B71110  32.833   7.256   7.383
 5616POPC   NC371111  44.629  24.174   5.507
 5616POPC   PO471112  44.692  24.811   5.406
 5616POPC   GL171113  44.692  24.591   5.796
 5616POPC   GL271114  44.347  24.663   5.807
 5616POPC   C1A71115  44.925  24.628   6.185
 5616POPC   D2A71116  44.897  24.438   6.582
 5616POPC   C3A71117  44.783  24.612   6.976
 5616POPC   C4A71118  44.875  24.438   7.390
 5616POPC   C1B71119  44.414  24.439   6.241
 5616POPC   C2B71120  44.349  24.473   6.699
 5616POPC   C3B71121  44.278  24.520   7.143
 5616POPC   C4B71122  44.145  24.266   7.466
 5617POPC   NC371123   2.802  14.140   5.378
 5617POPC   PO471124   2.833  13.426   5.310
 5617POPC   GL171125   2.805  13.617   5.767
 5617POPC   GL271126   2.975  13.951   5.821
 5617POPC   C1A71127   2.548  13.616   6.176
 5617POPC   D2A71128   2.592  13.736   6.602
 5617POPC   C3A71129   2.753  13.409   6.824
 5617POPC   C4A71130   2.797  13.317   7.225
 5617POPC   C1B71131   2.865  14.040   6.255
 5617POPC   C2B71132   3.042  13.950   6.657
 5617POPC   C3B71133   2.869  13.871   7.052
 5617POPC   C4B71134   3.109  13.889   7.434
 5618POPC   NC371135  31.529  43.469   5.375
 5618POPC   PO471136  31.165  42.840   5.477
 5618POPC   GL171137  31.404  43.029   5.833
 5618POPC   GL271138  31.727  42.890   5.977
 5618POPC   C1A71139  31.407  43.224   6.232
 5618POPC   D2A71140  31.627  43.120   6.601
 5618POPC   C3A71141  31.347  43.157   6.924
 5618POPC   C4A71142  31.264  42.976   7.342
 5618POPC   C1B71143  31.923  43.292   6.161
 5618POPC   C2B71144  31.950  43.547   6.566
 5618POPC   C3B71145  31.848  43.415   6.991
 5618POPC   C4B71146  31.766  43.024   7.178
 5619POPC   NC371147  28.827  18.979   5.217
 5619POPC   PO471148  29.384  19.320   5.160
 5619POPC   GL171149  29.269  19.119   5.588
 5619POPC   GL271150  28.929  19.197   5.762
 5619POPC   C1A71151  29.344  19.132   6.066
 5619POPC   D2A71152  29.264  18.938   6.470
 5619POPC   C3A71153  29.189  19.213   6.804
 5619POPC   C4A71154  29.474  19.201   7.108
 5619POPC   C1B71155  28.809  18.982   6.200
 5619POPC   C2B71156  28.698  19.096   6.638
 5619POPC   C3B71157  28.750  18.990   7.068
 5619POPC   C4B71158  28.808  18.798   7.464
 5620POPC   NC371159  25.650  33.999   5.376
 5620POPC   PO471160  26.145  33.488   5.387
 5620POPC   GL171161  26.034  33.773   5.736
 5620POPC   GL271162  25.733  33.592   5.752
 5620POPC   C1A71163  26.038  33.718   6.219
 5620POPC   D2A71164  26.100  33.634   6.671
 5620POPC   C3A71165  26.227  33.937   6.983
 5620POPC   C4A71166  26.032  33.699   7.279
 5620POPC   C1B71167  25.627  33.928   6.036
 5620POPC   C2B71168  25.549  33.841   6.492
 5620POPC   C3B71169  25.714  33.898   6.903
 5620POPC   C4B71170  25.653  34.045   7.309
 5621POPC   NC371171   0.723  15.579   5.347
 5621POPC   PO471172   0.195  15.132   5.472
 5621POPC   GL171173   0.389  15.431   5.778
 5621POPC   GL271174   0.688  15.276   5.796
 5621POPC   C1A71175   0.501  15.487   6.224
 5621POPC   D2A71176   0.465  15.274   6.635
 5621POPC   C3A71177   0.287  15.374   7.058
 5621POPC   C4A71178   0.172  15.077   7.408
 5621POPC   C1B71179   0.546  14.958   6.153
 5621POPC   C2B71180   0.651  14.817   6.599
 5621POPC   C3B71181   0.680  15.034   7.044
 5621POPC   C4B71182   0.957  15.309   7.300
 5622POPC   NC371183  11.457  30.293   5.471
 5622POPC   PO471184  11.122  29.685   5.525
 5622POPC   GL171185  11.500  29.847   5.789
 5622POPC   GL271186  11.336  30.141   5.957
 5622POPC   C1A71187  11.660  29.872   6.237
 5622POPC   D2A71188  11.443  30.055   6.590
 5622POPC   C3A71189  11.558  29.948   7.007
 5622POPC   C4A71190  11.332  30.091   7.360
 5622POPC   C1B71191  11.165  29.752   6.184
 5622POPC   C2B71192  10.958  29.769   6.550
 5622POPC   C3B71193  11.043  29.914   6.958
 5622POPC   C4B71194  11.118  29.627   7.291
 5623POPC   NC371195  12.412  42.312   5.541
 5623POPC   PO471196  11.726  42.573   5.369
 5623POPC   GL171197  11.916  42.411   5.730
 5623POPC   GL271198  12.118  42.732   5.733
 5623POPC   C1A71199  11.927  42.100   6.105
 5623POPC   D2A71200  12.057  41.901   6.505
 5623POPC   C3A71201  11.937  42.029   6.902
 5623POPC   C4A71202  11.959  42.185   7.331
 5623POPC   C1B71203  12.209  42.528   6.137
 5623POPC   C2B71204  12.187  42.389   6.556
 5623POPC   C3B71205  12.311  42.341   6.978
 5623POPC   C4B71206  12.368  42.638   7.239
 5624POPC   NC371207   6.962  40.760   5.415
 5624POPC   PO471208   6.349  40.955   5.574
 5624POPC   GL171209   6.454  40.784   5.935
 5624POPC   GL271210   6.728  40.591   5.851
 5624POPC   C1A71211   6.511  40.833   6.387
 5624POPC   D2A71212   6.660  40.498   6.645
 5624POPC   C3A71213   6.514  40.525   7.073
 5624POPC   C4A71214   6.493  40.892   7.350
 5624POPC   C1B71215   6.968  40.714   6.208
 5624POPC   C2B71216   7.219  40.522   6.550
 5624POPC   C3B71217   7.054  40.693   6.932
 5624POPC   C4B71218   6.703  40.978   6.884
 5625POPC   NC371219  39.750  21.705   5.430
 5625POPC   PO471220  39.895  22.309   5.149
 5625POPC   GL171221  39.959  22.112   5.655
 5625POPC   GL271222  39.675  21.931   5.878
 5625POPC   C1A71223  40.108  22.196   6.101
 5625POPC   D2A71224  40.333  22.266   6.526
 5625POPC   C3A71225  40.104  22.244   6.943
 5625POPC   C4A71226  39.763  22.525   7.086
 5625POPC   C1B71227  39.827  21.798   6.291
 5625POPC   C2B71228  39.744  21.982   6.669
 5625POPC   C3B71229  39.688  21.860   7.067
 5625POPC   C4B71230  39.838  22.075   7.420
 5626POPC   NC371231  21.735  30.735   5.368
 5626POPC   PO471232  21.077  30.960   5.365
 5626POPC   GL171233  21.324  30.750   5.697
 5626POPC   GL271234  21.641  30.901   5.830
 5626POPC   C1A71235  21.312  30.588   6.106
 5626POPC   D2A71236  21.206  30.693   6.524
 5626POPC   C3A71237  21.389  30.575   6.893
 5626POPC   C4A71238  21.214  30.708   7.296
 5626POPC   C1B71239  21.797  31.044   6.212
 5626POPC   C2B71240  21.641  30.954   6.609
 5626POPC   C3B71241  21.550  31.041   7.063
 5626POPC   C4B71242  21.707  31.044   7.522
 5627POPC   NC371243  32.904  31.749   5.356
 5627POPC   PO471244  33.413  31.229   5.425
 5627POPC   GL171245  33.148  31.419   5.805
 5627POPC   GL271246  33.010  31.761   5.878
 5627POPC   C1A71247  33.032  31.359   6.266
 5627POPC   D2A71248  33.219  31.377   6.698
 5627POPC   C3A71249  33.228  31.551   7.124
 5627POPC   C4A71250  33.136  31.372   7.553
 5627POPC   C1B71251  32.622  31.600   6.130
 5627POPC   C2B71252  32.601  31.401   6.558
 5627POPC   C3B71253  32.769  31.345   6.976
 5627POPC   C4B71254  32.751  31.634   7.322
 5628POPC   NC371255  22.813  25.394   5.384
 5628POPC   PO471256  23.161  24.812   5.397
 5628POPC   GL171257  22.892  24.970   5.717
 5628POPC   GL271258  23.009  25.269   5.825
 5628POPC   C1A71259  22.643  25.107   6.103
 5628POPC   D2A71260  22.695  25.084   6.547
 5628POPC   C3A71261  22.594  25.404   6.872
 5628POPC   C4A71262  22.810  25.325   7.272
 5628POPC   C1B71263  23.175  25.230   6.242
 5628POPC   C2B71264  23.211  25.100   6.687
 5628POPC   C3B71265  23.393  25.261   7.084
 5628POPC   C4B71266  23.531  25.164   7.530
 5629POPC   NC371267  43.707  33.396   5.393
 5629POPC   PO471268  44.297  33.088   5.478
 5629POPC   GL171269  44.051  33.025   5.850
 5629POPC   GL271270  43.708  33.185   5.892
 5629POPC   C1A71271  44.051  33.096   6.281
 5629POPC   D2A71272  43.893  32.872   6.627
 5629POPC   C3A71273  44.012  33.046   7.008
 5629POPC   C4A71274  44.040  33.449   7.189
 5629POPC   C1B71275  43.642  32.786   6.147
 5629POPC   C2B71276  43.450  32.651   6.563
 5629POPC   C3B71277  43.544  32.810   7.014
 5629POPC   C4B71278  43.734  32.878   7.446
 5630POPC   NC371279  13.147  44.165   5.594
 5630POPC   PO471280  12.958  44.777   5.501
 5630POPC   GL171281  12.798  44.742   5.874
 5630POPC   GL271282  12.689  44.376   5.904
 5630POPC   C1A71283  12.825  44.948   6.276
 5630POPC   D2A71284  12.590  44.887   6.668
 5630POPC   C3A71285  12.790  44.818   7.040
 5630POPC   C4A71286  12.683  44.704   7.464
 5630POPC   C1B71287  13.013  44.439   6.191
 5630POPC   C2B71288  13.106  44.625   6.562
 5630POPC   C3B71289  13.140  44.394   6.888
 5630POPC   C4B71290  13.003  44.371   7.265
 5631POPC   NC371291  41.774  20.722   5.424
 5631POPC   PO471292  42.501  20.569   5.350
 5631POPC   GL171293  42.362  20.666   5.773
 5631POPC   GL271294  42.404  20.305   5.827
 5631POPC   C1A71295  42.445  20.857   6.215
 5631POPC   D2A71296  42.613  20.774   6.663
 5631POPC   C3A71297  42.511  21.016   7.093
 5631POPC   C4A71298  42.425  20.920   7.562
 5631POPC   C1B71299  42.775  20.262   6.075
 5631POPC   C2B71300  42.798  20.199   6.518
 5631POPC   C3B71301  42.716  20.303   6.928
 5631POPC   C4B71302  42.580  20.539   7.255
 5632POPC   NC371303  19.682  40.017   5.282
 5632POPC   PO471304  18.997  39.840   5.368
 5632POPC   GL171305  19.120  39.898   5.808
 5632POPC   GL271306  18.769  39.982   5.838
 5632POPC   C1A71307  19.063  40.080   6.240
 5632POPC   D2A71308  19.084  39.901   6.638
 5632POPC   C3A71309  19.218  40.125   7.017
 5632POPC   C4A71310  19.104  40.007   7.428
 5632POPC   C1B71311  18.568  40.196   6.193
 5632POPC   C2B71312  18.593  40.141   6.625
 5632POPC   C3B71313  18.737  39.969   7.019
 5632POPC   C4B71314  18.776  40.349   7.249
 5633POPC   NC371315  29.378   5.393   5.482
 5633POPC   PO471316  28.695   5.299   5.591
 5633POPC   GL171317  29.072   5.139   5.814
 5633POPC   GL271318  29.216   4.784   5.861
 5633POPC   C1A71319  29.148   5.217   6.231
 5633POPC   D2A71320  28.957   5.034   6.581
 5633POPC   C3A71321  29.185   5.126   6.967
 5633POPC   C4A71322  29.034   5.117   7.380
 5633POPC   C1B71323  29.391   4.766   6.298
 5633POPC   C2B71324  29.257   4.645   6.715
 5633POPC   C3B71325  28.998   4.659   7.091
 5633POPC   C4B71326  29.140   4.647   7.509
 5634POPC   NC371327  11.885  34.478   5.398
 5634POPC   PO471328  12.322  34.914   5.392
 5634POPC   GL171329  12.065  34.780   5.787
 5634POPC   GL271330  12.020  34.386   5.881
 5634POPC   C1A71331  12.096  34.737   6.246
 5634POPC   D2A71332  12.052  34.543   6.636
 5634POPC   C3A71333  12.154  34.813   6.959
 5634POPC   C4A71334  12.002  34.764   7.312
 5634POPC   C1B71335  12.219  34.187   6.269
 5634POPC   C2B71336  12.348  34.121   6.713
 5634POPC   C3B71337  12.131  34.292   7.109
 5634POPC   C4B71338  12.178  34.360   7.582
 5635POPC   NC371339   9.554  21.920   5.577
 5635POPC   PO471340   9.637  22.498   5.218
 5635POPC   GL171341   9.578  22.435   5.702
 5635POPC   GL271342   9.897  22.272   5.792
 5635POPC   C1A71343   9.504  22.235   6.159
 5635POPC   D2A71344   9.641  22.321   6.598
 5635POPC   C3A71345   9.404  22.326   6.961
 5635POPC   C4A71346   9.576  21.996   7.172
 5635POPC   C1B71347   9.983  22.455   6.206
 5635POPC   C2B71348  10.057  22.602   6.621
 5635POPC   C3B71349  10.029  22.417   6.977
 5635POPC   C4B71350   9.883  22.355   7.353
 5636POPC   NC371351  44.944   4.859   5.424
 5636POPC   PO471352  44.460   5.236   5.515
 5636POPC   GL171353  44.742   5.053   5.836
 5636POPC   GL271354  44.452   4.896   5.975
 5636POPC   C1A71355  44.904   4.950   6.235
 5636POPC   D2A71356  44.586   5.032   6.536
 5636POPC   C3A71357  44.745   5.061   6.943
 5636POPC   C4A71358  44.704   4.758   7.265
 5636POPC   C1B71359  44.406   5.339   6.150
 5636POPC   C2B71360  44.481   5.552   6.508
 5636POPC   C3B71361  44.389   5.442   6.910
 5636POPC   C4B71362  43.983   5.349   7.088
 5637POPC   NC371363  13.223  12.322   5.606
 5637POPC   PO471364  13.756  12.048   5.229
 5637POPC   GL171365  13.588  11.958   5.670
 5637POPC   GL271366  13.653  12.259   5.876
 5637POPC   C1A71367  13.613  11.849   6.159
 5637POPC   D2A71368  13.660  11.985   6.595
 5637POPC   C3A71369  13.676  11.723   6.956
 5637POPC   C4A71370  13.681  11.892   7.363
 5637POPC   C1B71371  13.561  12.416   6.332
 5637POPC   C2B71372  13.511  12.449   6.818
 5637POPC   C3B71373  13.616  12.406   7.308
 5637POPC   C4B71374  13.433  12.488   7.748
 5638POPC   NC371375  17.100   9.948   5.564
 5638POPC   PO471376  17.719   9.874   5.317
 5638POPC   GL171377  17.623   9.832   5.770
 5638POPC   GL271378  17.502  10.140   5.945
 5638POPC   C1A71379  17.359   9.699   6.150
 5638POPC   D2A71380  17.226   9.829   6.560
 5638POPC   C3A71381  17.483   9.623   6.827
 5638POPC   C4A71382  17.577   9.732   7.213
 5638POPC   C1B71383  17.724  10.035   6.353
 5638POPC   C2B71384  17.882   9.967   6.794
 5638POPC   C3B71385  17.778  10.200   7.176
 5638POPC   C4B71386  17.453  10.199   7.471
 5639POPC   NC371387  14.449   4.962   5.333
 5639POPC   PO471388  13.802   5.198   5.325
 5639POPC   GL171389  14.097   5.071   5.709
 5639POPC   GL271390  14.436   5.244   5.752
 5639POPC   C1A71391  14.305   4.873   6.110
 5639POPC   D2A71392  14.256   4.682   6.550
 5639POPC   C3A71393  14.327   4.909   6.950
 5639POPC   C4A71394  14.140   4.917   7.352
 5639POPC   C1B71395  14.263   5.387   6.155
 5639POPC   C2B71396  14.395   5.198   6.526
 5639POPC   C3B71397  14.634   5.346   6.880
 5639POPC   C4B71398  14.476   5.336   7.268
 5640POPC   NC371399  10.992  38.401   5.487
 5640POPC   PO471400  11.523  38.723   5.564
 5640POPC   GL171401  11.315  38.471   5.896
 5640POPC   GL271402  11.203  38.098   5.853
 5640POPC   C1A71403  11.514  38.342   6.264
 5640POPC   D2A71404  11.766  38.539   6.539
 5640POPC   C3A71405  11.642  38.360   6.900
 5640POPC   C4A71406  11.660  38.472   7.314
 5640POPC   C1B71407  11.030  38.192   6.272
 5640POPC   C2B71408  11.170  38.396   6.666
 5640POPC   C3B71409  11.180  38.437   7.119
 5640POPC   C4B71410  10.926  38.660   7.376
 5641POPC   NC371411  38.528  15.840   5.380
 5641POPC   PO471412  37.979  15.874   5.694
 5641POPC   GL171413  38.368  15.919   5.899
 5641POPC   GL271414  38.684  15.734   5.931
 5641POPC   C1A71415  38.318  15.907   6.320
 5641POPC   D2A71416  38.089  16.083   6.629
 5641POPC   C3A71417  38.319  15.897   6.936
 5641POPC   C4A71418  38.333  16.149   7.242
 5641POPC   C1B71419  38.771  16.120   6.200
 5641POPC   C2B71420  38.617  16.287   6.607
 5641POPC   C3B71421  38.778  16.319   7.066
 5641POPC   C4B71422  38.751  16.092   7.532
 5642POPC   NC371423  22.188  22.507   5.383
 5642POPC   PO471424  22.634  22.047   5.263
 5642POPC   GL171425  22.486  22.201   5.692
 5642POPC   GL271426  22.403  21.907   5.903
 5642POPC   C1A71427  22.441  22.366   6.137
 5642POPC   D2A71428  22.456  22.228   6.580
 5642POPC   C3A71429  22.194  22.365   6.931
 5642POPC   C4A71430  22.340  22.351   7.352
 5642POPC   C1B71431  22.049  21.974   6.179
 5642POPC   C2B71432  21.958  22.093   6.564
 5642POPC   C3B71433  22.165  21.845   6.864
 5642POPC   C4B71434  21.938  21.991   7.166
 5643POPC   NC371435  24.995  30.208   5.600
 5643POPC   PO471436  25.347  29.731   5.209
 5643POPC   GL171437  25.316  29.811   5.731
 5643POPC   GL271438  25.627  29.833   5.838
 5643POPC   C1A71439  25.089  29.995   6.188
 5643POPC   D2A71440  24.917  30.188   6.611
 5643POPC   C3A71441  25.089  30.116   7.038
 5643POPC   C4A71442  25.166  29.698   7.146
 5643POPC   C1B71443  25.501  29.717   6.239
 5643POPC   C2B71444  25.396  29.815   6.681
 5643POPC   C3B71445  25.609  29.952   7.090
 5643POPC   C4B71446  25.716  29.923   7.534
 5644POPC   NC371447  33.590  16.466   5.396
 5644POPC   PO471448  33.921  15.864   5.368
 5644POPC   GL171449  33.648  15.922   5.719
 5644POPC   GL271450  33.668  16.231   5.867
 5644POPC   C1A71451  33.581  15.826   6.170
 5644POPC   D2A71452  33.920  15.689   6.442
 5644POPC   C3A71453  33.905  15.808   6.863
 5644POPC   C4A71454  34.030  15.889   7.274
 5644POPC   C1B71455  34.047  16.071   6.111
 5644POPC   C2B71456  34.179  16.123   6.561
 5644POPC   C3B71457  33.989  16.321   6.934
 5644POPC   C4B71458  33.622  16.198   7.201
 5645POPC   NC371459  43.297  24.065   5.445
 5645POPC   PO471460  42.900  24.569   5.499
 5645POPC   GL171461  43.167  24.385   5.819
 5645POPC   GL271462  42.980  24.094   5.871
 5645POPC   C1A71463  43.423  24.505   6.168
 5645POPC   D2A71464  43.235  24.719   6.521
 5645POPC   C3A71465  43.396  24.547   6.871
 5645POPC   C4A71466  43.242  24.663   7.234
 5645POPC   C1B71467  42.735  24.341   6.179
 5645POPC   C2B71468  42.606  24.317   6.614
 5645POPC   C3B71469  42.931  24.316   6.935
 5645POPC   C4B71470  43.099  24.181   7.326
 5646POPC   NC371471  23.131   3.950   5.415
 5646POPC   PO471472  22.573   4.351   5.469
 5646POPC   GL171473  22.830   4.347   5.841
 5646POPC   GL271474  23.168   4.218   5.868
 5646POPC   C1A71475  22.674   4.467   6.233
 5646POPC   D2A71476  22.619   4.225   6.610
 5646POPC   C3A71477  22.966   4.151   6.870
 5646POPC   C4A71478  23.114   4.262   7.263
 5646POPC   C1B71479  23.066   4.109   6.312
 5646POPC   C2B71480  23.282   3.833   6.650
 5646POPC   C3B71481  23.486   3.996   7.036
 5646POPC   C4B71482  23.425   3.944   7.516
 5647POPC   NC371483  15.723  40.100   5.701
 5647POPC   PO471484  16.145  39.845   5.205
 5647POPC   GL171485  16.170  39.801   5.647
 5647POPC   GL271486  15.862  39.605   5.777
 5647POPC   C1A71487  16.310  39.884   6.069
 5647POPC   D2A71488  16.076  40.075   6.382
 5647POPC   C3A71489  16.094  40.088   6.831
 5647POPC   C4A71490  15.752  40.224   7.076
 5647POPC   C1B71491  15.912  39.598   6.231
 5647POPC   C2B71492  15.917  39.635   6.668
 5647POPC   C3B71493  15.888  39.681   7.107
 5647POPC   C4B71494  15.697  39.480   7.460
 5648POPC   NC371495  29.023  44.302   5.587
 5648POPC   PO471496  28.920  43.607   5.555
 5648POPC   GL171497  29.328  43.778   5.814
 5648POPC   GL271498  29.437  44.139   5.839
 5648POPC   C1A71499  29.370  43.902   6.265
 5648POPC   D2A71500  29.063  43.882   6.552
 5648POPC   C3A71501  29.190  43.789   6.939
 5648POPC   C4A71502  28.879  43.834   7.259
 5648POPC   C1B71503  29.523  44.392   6.225
 5648POPC   C2B71504  29.285  44.353   6.590
 5648POPC   C3B71505  28.986  44.265   6.886
 5648POPC   C4B71506  29.254  44.217   7.202
 5649POPC   NC371507  31.538  36.426   5.360
 5649POPC   PO471508  31.296  37.028   5.477
 5649POPC   GL171509  31.529  36.794   5.801
 5649POPC   GL271510  31.301  36.492   5.828
 5649POPC   C1A71511  31.723  36.970   6.206
 5649POPC   D2A71512  31.611  37.272   6.551
 5649POPC   C3A71513  31.737  37.148   6.964
 5649POPC   C4A71514  31.427  37.096   7.261
 5649POPC   C1B71515  31.217  36.646   6.264
 5649POPC   C2B71516  31.297  36.515   6.693
 5649POPC   C3B71517  31.257  36.494   7.136
 5649POPC   C4B71518  30.913  36.464   7.451
 5650POPC   NC371519  18.711  25.098   5.558
 5650POPC   PO471520  18.164  25.333   5.141
 5650POPC   GL171521  18.231  25.320   5.602
 5650POPC   GL271522  18.104  24.991   5.634
 5650POPC   C1A71523  18.461  25.427   6.059
 5650POPC   D2A71524  18.556  25.408   6.513
 5650POPC   C3A71525  18.257  25.395   6.837
 5650POPC   C4A71526  18.514  25.422   7.214
 5650POPC   C1B71527  18.028  25.143   6.047
 5650POPC   C2B71528  18.260  25.015   6.416
 5650POPC   C3B71529  18.458  24.933   6.813
 5650POPC   C4B71530  18.346  24.909   7.235
 5651POPC   NC371531  15.911  17.267   5.465
 5651POPC   PO471532  16.293  17.896   5.490
 5651POPC   GL171533  16.064  17.644   5.790
 5651POPC   GL271534  16.371  17.472   5.821
 5651POPC   C1A71535  16.036  17.491   6.234
 5651POPC   D2A71536  15.881  17.365   6.673
 5651POPC   C3A71537  16.068  17.604   7.030
 5651POPC   C4A71538  16.076  17.559   7.516
 5651POPC   C1B71539  16.426  17.803   6.148
 5651POPC   C2B71540  16.327  17.804   6.592
 5651POPC   C3B71541  16.498  17.919   6.975
 5651POPC   C4B71542  16.382  17.940   7.385
 5652POPC   NC371543   4.165  13.618   5.374
 5652POPC   PO471544   4.668  13.922   5.617
 5652POPC   GL171545   4.334  13.765   5.864
 5652POPC   GL271546   4.276  13.415   5.816
 5652POPC   C1A71547   4.248  13.875   6.311
 5652POPC   D2A71548   4.058  13.778   6.708
 5652POPC   C3A71549   4.244  13.873   7.128
 5652POPC   C4A71550   4.115  14.073   7.533
 5652POPC   C1B71551   4.257  13.316   6.223
 5652POPC   C2B71552   4.392  13.396   6.624
 5652POPC   C3B71553   4.173  13.366   7.004
 5652POPC   C4B71554   4.055  13.023   7.246
 5653POPC   NC371555  26.912  44.964   5.290
 5653POPC   PO471556  26.962  44.293   5.261
 5653POPC   GL171557  26.906  44.378   5.736
 5653POPC   GL271558  26.748  44.721   5.786
 5653POPC   C1A71559  26.952  44.377   6.226
 5653POPC   D2A71560  27.139  44.297   6.674
 5653POPC   C3A71561  26.959  44.507   7.070
 5653POPC   C4A71562  26.603  44.501   7.386
 5653POPC   C1B71563  26.695  44.854   6.238
 5653POPC   C2B71564  26.608  44.948   6.687
 5653POPC   C3B71565  26.708  44.977   7.120
 5653POPC   C4B71566  26.932  44.872   7.472
 5654POPC   NC371567  35.725   3.976   5.601
 5654POPC   PO471568  35.316   4.416   5.502
 5654POPC   GL171569  35.478   4.348   5.900
 5654POPC   GL271570  35.820   4.446   5.800
 5654POPC   C1A71571  35.385   4.167   6.311
 5654POPC   D2A71572  35.507   3.897   6.653
 5654POPC   C3A71573  35.226   3.916   6.994
 5654POPC   C4A71574  35.235   4.131   7.425
 5654POPC   C1B71575  35.885   4.301   6.212
 5654POPC   C2B71576  35.724   4.426   6.612
 5654POPC   C3B71577  35.488   4.363   6.982
 5654POPC   C4B71578  35.671   4.359   7.386
 5655POPC   NC371579  39.283  14.680   5.089
 5655POPC   PO471580  39.046  14.186   5.398
 5655POPC   GL171581  39.116  14.246   5.862
 5655POPC   GL271582  39.271  14.560   5.884
 5655POPC   C1A71583  39.219  14.284   6.326
 5655POPC   D2A71584  39.184  14.565   6.680
 5655POPC   C3A71585  39.091  14.429   7.110
 5655POPC   C4A71586  38.947  14.390   7.534
 5655POPC   C1B71587  39.494  14.802   6.204
 5655POPC   C2B71588  39.705  14.710   6.590
 5655POPC   C3B71589  39.558  14.702   7.004
 5655POPC   C4B71590  39.687  14.779   7.444
 5656POPC   NC371591  22.380  42.087   5.451
 5656POPC   PO471592  21.889  42.604   5.527
 5656POPC   GL171593  22.071  42.503   5.959
 5656POPC   GL271594  22.455  42.554   6.026
 5656POPC   C1A71595  22.107  42.606   6.405
 5656POPC   D2A71596  22.311  42.483   6.782
 5656POPC   C3A71597  22.011  42.291   7.053
 5656POPC   C4A71598  22.022  42.355   7.473
 5656POPC   C1B71599  22.454  42.102   6.139
 5656POPC   C2B71600  22.482  41.775   6.481
 5656POPC   C3B71601  22.391  41.933   6.909
 5656POPC   C4B71602  22.265  41.940   7.326
 5657POPC   NC371603  13.635  14.418   5.309
 5657POPC   PO471604  13.180  14.805   5.630
 5657POPC   GL171605  13.467  14.508   5.796
 5657POPC   GL271606  13.381  14.176   5.830
 5657POPC   C1A71607  13.735  14.442   6.159
 5657POPC   D2A71608  13.714  14.712   6.504
 5657POPC   C3A71609  13.846  14.565   6.895
 5657POPC   C4A71610  14.008  14.150   7.041
 5657POPC   C1B71611  13.255  14.232   6.262
 5657POPC   C2B71612  13.371  14.372   6.681
 5657POPC   C3B71613  13.454  14.333   7.123
 5657POPC   C4B71614  13.323  14.490   7.519
 5658POPC   NC371615  41.875  13.534   5.522
 5658POPC   PO471616  42.528  13.623   5.378
 5658POPC   GL171617  42.539  13.439   5.808
 5658POPC   GL271618  42.198  13.315   5.878
 5658POPC   C1A71619  42.666  13.520   6.253
 5658POPC   D2A71620  42.349  13.484   6.615
 5658POPC   C3A71621  42.505  13.511   7.043
 5658POPC   C4A71622  42.556  13.375   7.475
 5658POPC   C1B71623  42.201  13.706   6.130
 5658POPC   C2B71624  41.988  13.870   6.502
 5658POPC   C3B71625  41.892  13.757   6.931
 5658POPC   C4B71626  41.970  13.985   7.298
 5659POPC   NC371627  25.978  36.692   5.365
 5659POPC   PO471628  26.259  37.321   5.387
 5659POPC   GL171629  26.193  37.291   5.812
 5659POPC   GL271630  25.905  37.040   5.830
 5659POPC   C1A71631  26.160  37.238   6.248
 5659POPC   D2A71632  25.978  36.953   6.512
 5659POPC   C3A71633  25.891  37.006   6.907
 5659POPC   C4A71634  26.187  37.147   7.170
 5659POPC   C1B71635  25.722  36.727   6.143
 5659POPC   C2B71636  25.827  36.464   6.538
 5659POPC   C3B71637  25.784  36.336   6.937
 5659POPC   C4B71638  25.873  36.624   7.230
 5660POPC   NC371639  18.838  42.924   5.365
 5660POPC   PO471640  19.375  43.199   5.206
 5660POPC   GL171641  19.099  43.203   5.683
 5660POPC   GL271642  18.954  42.842   5.836
 5660POPC   C1A71643  19.192  43.118   6.166
 5660POPC   D2A71644  19.349  43.048   6.570
 5660POPC   C3A71645  19.096  43.063   6.902
 5660POPC   C4A71646  19.226  43.160   7.295
 5660POPC   C1B71647  18.741  42.603   6.142
 5660POPC   C2B71648  18.858  42.741   6.530
 5660POPC   C3B71649  18.773  42.675   6.922
 5660POPC   C4B71650  18.985  42.712   7.269
 5661POPC   NC371651   5.317   5.309   5.472
 5661POPC   PO471652   4.944   4.777   5.713
 5661POPC   GL171653   5.008   5.186   5.880
 5661POPC   GL271654   5.324   5.154   5.963
 5661POPC   C1A71655   4.856   5.364   6.253
 5661POPC   D2A71656   4.585   5.176   6.565
 5661POPC   C3A71657   4.729   5.169   6.987
 5661POPC   C4A71658   4.986   4.862   7.176
 5661POPC   C1B71659   5.367   5.400   6.335
 5661POPC   C2B71660   5.247   5.394   6.798
 5661POPC   C3B71661   5.358   5.208   7.196
 5661POPC   C4B71662   5.547   4.942   7.565
 5662POPC   NC371663  25.242  35.598   5.366
 5662POPC   PO471664  25.054  35.072   5.631
 5662POPC   GL171665  25.245  35.293   5.938
 5662POPC   GL271666  25.422  35.587   5.860
 5662POPC   C1A71667  25.119  35.316   6.340
 5662POPC   D2A71668  25.212  35.104   6.713
 5662POPC   C3A71669  25.007  35.179   7.079
 5662POPC   C4A71670  25.162  35.524   7.206
 5662POPC   C1B71671  25.233  35.801   6.246
 5662POPC   C2B71672  25.219  35.679   6.699
 5662POPC   C3B71673  25.564  35.456   6.902
 5662POPC   C4B71674  25.661  35.486   7.348
 5663POPC   NC371675  20.972  41.600   5.515
 5663POPC   PO471676  21.497  41.155   5.595
 5663POPC   GL171677  21.180  41.206   5.910
 5663POPC   GL271678  21.097  41.556   5.992
 5663POPC   C1A71679  21.248  41.281   6.379
 5663POPC   D2A71680  21.457  41.523   6.703
 5663POPC   C3A71681  21.506  41.269   7.058
 5663POPC   C4A71682  21.153  41.059   7.263
 5663POPC   C1B71683  20.923  41.947   6.140
 5663POPC   C2B71684  20.900  42.137   6.560
 5663POPC   C3B71685  21.128  41.949   6.897
 5663POPC   C4B71686  21.247  41.690   7.248
 5664POPC   NC371687  25.683   9.885   5.516
 5664POPC   PO471688  25.308   9.495   5.274
 5664POPC   GL171689  25.509   9.455   5.714
 5664POPC   GL271690  25.410   9.756   5.934
 5664POPC   C1A71691  25.583   9.343   6.148
 5664POPC   D2A71692  25.348   9.391   6.536
 5664POPC   C3A71693  25.463   9.371   6.958
 5664POPC   C4A71694  25.251   9.629   7.268
 5664POPC   C1B71695  25.439   9.876   6.404
 5664POPC   C2B71696  25.255   9.968   6.848
 5664POPC   C3B71697  25.473  10.091   7.244
 5664POPC   C4B71698  25.379  10.232   7.664
 5665POPC   NC371699  42.868  20.233   5.419
 5665POPC   PO471700  43.483  20.634   5.530
 5665POPC   GL171701  43.094  20.605   5.774
 5665POPC   GL271702  43.281  20.376   5.962
 5665POPC   C1A71703  42.965  20.714   6.224
 5665POPC   D2A71704  43.116  20.576   6.642
 5665POPC   C3A71705  42.971  20.780   7.023
 5665POPC   C4A71706  42.921  20.908   7.446
 5665POPC   C1B71707  43.321  20.179   6.358
 5665POPC   C2B71708  43.468  20.208   6.780
 5665POPC   C3B71709  43.191  20.350   7.109
 5665POPC   C4B71710  43.217  20.485   7.568
 5666POPC   NC371711  30.464  29.070   5.541
 5666POPC   PO471712  31.024  29.513   5.461
 5666POPC   GL171713  30.873  29.282   5.818
 5666POPC   GL271714  30.680  28.987   5.983
 5666POPC   C1A71715  30.804  29.414   6.244
 5666POPC   D2A71716  30.546  29.539   6.604
 5666POPC   C3A71717  30.698  29.325   6.975
 5666POPC   C4A71718  30.977  29.416   7.300
 5666POPC   C1B71719  30.369  29.090   6.310
 5666POPC   C2B71720  30.282  29.098   6.766
 5666POPC   C3B71721  30.382  28.887   7.157
 5666POPC   C4B71722  30.430  28.829   7.656
 5667POPC   NC371723  12.824   4.472   5.035
 5667POPC   PO471724  13.002   4.001   5.530
 5667POPC   GL171725  12.830   4.235   5.888
 5667POPC   GL271726  13.058   4.561   5.987
 5667POPC   C1A71727  12.598   4.173   6.238
 5667POPC   D2A71728  12.735   4.153   6.652
 5667POPC   C3A71729  12.617   4.379   7.009
 5667POPC   C4A71730  12.638   4.101   7.334
 5667POPC   C1B71731  12.850   4.600   6.347
 5667POPC   C2B71732  13.009   4.629   6.748
 5667POPC   C3B71733  12.939   4.745   7.160
 5667POPC   C4B71734  12.978   4.503   7.516
 5668POPC   NC371735  35.143  32.235   5.428
 5668POPC   PO471736  35.732  31.889   5.333
 5668POPC   GL171737  35.562  32.040   5.753
 5668POPC   GL271738  35.822  32.295   5.850
 5668POPC   C1A71739  35.239  32.153   6.116
 5668POPC   D2A71740  35.170  32.440   6.494
 5668POPC   C3A71741  35.125  32.253   6.918
 5668POPC   C4A71742  35.307  32.344   7.321
 5668POPC   C1B71743  35.672  32.356   6.250
 5668POPC   C2B71744  35.547  32.109   6.589
 5668POPC   C3B71745  35.562  31.989   7.012
 5668POPC   C4B71746  35.803  32.128   7.365
 5669POPC   NC371747  17.386  28.913   5.301
 5669POPC   PO471748  17.834  29.405   5.487
 5669POPC   GL171749  17.645  29.047   5.839
 5669POPC   GL271750  17.296  28.918   5.890
 5669POPC   C1A71751  17.569  28.934   6.331
 5669POPC   D2A71752  17.527  29.009   6.798
 5669POPC   C3A71753  17.881  29.162   7.073
 5669POPC   C4A71754  17.780  29.488   7.405
 5669POPC   C1B71755  17.133  28.634   6.256
 5669POPC   C2B71756  17.093  28.750   6.706
 5669POPC   C3B71757  17.095  29.001   7.120
 5669POPC   C4B71758  17.459  29.054   7.315
 5670POPC   NC371759  31.357  33.989   5.217
 5670POPC   PO471760  31.349  34.687   5.233
 5670POPC   GL171761  31.288  34.634   5.691
 5670POPC   GL271762  31.577  34.719   5.894
 5670POPC   C1A71763  31.144  34.552   6.136
 5670POPC   D2A71764  31.138  34.726   6.564
 5670POPC   C3A71765  31.322  34.513   6.928
 5670POPC   C4A71766  31.405  34.483   7.342
 5670POPC   C1B71767  31.852  34.543   6.217
 5670POPC   C2B71768  31.688  34.680   6.610
 5670POPC   C3B71769  31.476  34.979   6.890
 5670POPC   C4B71770  31.606  34.958   7.285
 5671POPC   NC371771  29.454   3.955   5.200
 5671POPC   PO471772  29.016   3.522   5.541
 5671POPC   GL171773  29.142   3.671   5.876
 5671POPC   GL271774  29.473   3.738   5.739
 5671POPC   C1A71775  28.940   3.846   6.240
 5671POPC   D2A71776  28.687   3.802   6.645
 5671POPC   C3A71777  28.903   3.708   7.015
 5671POPC   C4A71778  29.281   3.785   7.247
 5671POPC   C1B71779  29.482   3.720   6.242
 5671POPC   C2B71780  29.189   3.571   6.606
 5671POPC   C3B71781  29.103   3.249   6.941
 5671POPC   C4B71782  29.160   3.307   7.383
 5672POPC   NC371783  21.422  28.391   5.521
 5672POPC   PO471784  20.953  28.912   5.522
 5672POPC   GL171785  21.170  28.682   5.876
 5672POPC   GL271786  21.182  28.297   5.952
 5672POPC   C1A71787  21.493  28.590   6.201
 5672POPC   D2A71788  21.696  28.567   6.606
 5672POPC   C3A71789  21.457  28.523   6.998
 5672POPC   C4A71790  21.532  28.350   7.410
 5672POPC   C1B71791  21.406  28.054   6.299
 5672POPC   C2B71792  21.570  28.060   6.742
 5672POPC   C3B71793  21.319  28.003   7.137
 5672POPC   C4B71794  21.178  28.074   7.644
 5673POPC   NC371795  32.214  27.594   4.972
 5673POPC   PO471796  32.087  27.409   5.646
 5673POPC   GL171797  32.288  27.622   5.945
 5673POPC   GL271798  32.380  27.968   5.838
 5673POPC   C1A71799  32.328  27.515   6.396
 5673POPC   D2A71800  32.461  27.146   6.641
 5673POPC   C3A71801  32.324  27.177   7.069
 5673POPC   C4A71802  32.047  27.483   7.131
 5673POPC   C1B71803  32.168  28.006   6.258
 5673POPC   C2B71804  32.204  27.919   6.702
 5673POPC   C3B71805  32.208  28.149   7.065
 5673POPC   C4B71806  32.369  27.878   7.368
 5674POPC   NC371807   2.647  20.234   5.537
 5674POPC   PO471808   3.003  20.783   5.611
 5674POPC   GL171809   2.831  20.547   5.894
 5674POPC   GL271810   2.524  20.671   5.897
 5674POPC   C1A71811   2.720  20.363   6.258
 5674POPC   D2A71812   2.920  20.503   6.586
 5674POPC   C3A71813   2.829  20.407   6.968
 5674POPC   C4A71814   2.906  20.702   7.223
 5674POPC   C1B71815   2.322  20.804   6.209
 5674POPC   C2B71816   2.410  20.664   6.593
 5674POPC   C3B71817   2.455  20.784   6.983
 5674POPC   C4B71818   2.440  20.510   7.319
 5675POPC   NC371819  43.534  10.655   5.655
 5675POPC   PO471820  43.051  10.737   5.175
 5675POPC   GL171821  43.015  10.489   5.658
 5675POPC   GL271822  42.911  10.192   5.868
 5675POPC   C1A71823  42.970  10.581   6.171
 5675POPC   D2A71824  43.233  10.561   6.522
 5675POPC   C3A71825  43.053  10.695   6.888
 5675POPC   C4A71826  43.335  10.623   7.186
 5675POPC   C1B71827  43.109  10.076   6.227
 5675POPC   C2B71828  42.954  10.143   6.601
 5675POPC   C3B71829  43.157  10.192   6.965
 5675POPC   C4B71830  43.062  10.172   7.375
 5676POPC   NC371831  13.756  21.112   5.442
 5676POPC   PO471832  13.330  20.556   5.464
 5676POPC   GL171833  13.603  20.444   5.846
 5676POPC   GL271834  13.976  20.550   5.898
 5676POPC   C1A71835  13.655  20.586   6.298
 5676POPC   D2A71836  13.792  20.651   6.708
 5676POPC   C3A71837  13.469  20.714   6.930
 5676POPC   C4A71838  13.384  20.373   7.155
 5676POPC   C1B71839  14.085  20.891   6.222
 5676POPC   C2B71840  13.891  21.114   6.592
 5676POPC   C3B71841  13.852  21.057   7.068
 5676POPC   C4B71842  13.818  21.135   7.537
 5677POPC   NC371843  27.936  19.467   5.376
 5677POPC   PO471844  27.714  20.104   5.375
 5677POPC   GL171845  27.648  19.985   5.784
 5677POPC   GL271846  27.693  19.643   5.780
 5677POPC   C1A71847  27.467  19.956   6.191
 5677POPC   D2A71848  27.249  20.093   6.548
 5677POPC   C3A71849  27.426  19.913   6.920
 5677POPC   C4A71850  27.375  20.079   7.320
 5677POPC   C1B71851  27.633  19.469   6.168
 5677POPC   C2B71852  27.727  19.636   6.573
 5677POPC   C3B71853  27.796  19.449   6.990
 5677POPC   C4B71854  27.622  19.505   7.360
 5678POPC   NC371855  11.513   1.081   5.325
 5678POPC   PO471856  10.991   1.265   5.652
 5678POPC   GL171857  11.382   1.161   5.824
 5678POPC   GL271858  11.539   1.467   5.705
 5678POPC   C1A71859  11.463   0.920   6.205
 5678POPC   D2A71860  11.497   1.072   6.625
 5678POPC   C3A71861  11.106   1.155   6.845
 5678POPC   C4A71862  11.187   1.068   7.260
 5678POPC   C1B71863  11.373   1.574   6.138
 5678POPC   C2B71864  11.517   1.595   6.558
 5678POPC   C3B71865  11.339   1.591   6.960
 5678POPC   C4B71866  11.479   1.459   7.351
 5679POPC   NC371867  35.987  17.055   5.393
 5679POPC   PO471868  36.580  16.619   5.333
 5679POPC   GL171869  36.242  16.645   5.760
 5679POPC   GL271870  36.082  16.985   5.894
 5679POPC   C1A71871  36.294  16.728   6.259
 5679POPC   D2A71872  36.440  16.782   6.670
 5679POPC   C3A71873  36.162  16.614   6.921
 5679POPC   C4A71874  36.160  16.362   7.257
 5679POPC   C1B71875  35.817  16.927   6.289
 5679POPC   C2B71876  35.848  16.960   6.760
 5679POPC   C3B71877  35.922  17.029   7.217
 5679POPC   C4B71878  35.773  17.126   7.710
 5680POPC   NC371879   3.145  41.779   5.487
 5680POPC   PO471880   3.754  41.508   5.238
 5680POPC   GL171881   3.734  41.500   5.728
 5680POPC   GL271882   3.382  41.512   5.877
 5680POPC   C1A71883   3.781  41.713   6.148
 5680POPC   D2A71884   3.595  41.841   6.545
 5680POPC   C3A71885   3.787  41.793   6.951
 5680POPC   C4A71886   3.503  41.847   7.288
 5680POPC   C1B71887   3.544  41.264   6.256
 5680POPC   C2B71888   3.643  41.259   6.697
 5680POPC   C3B71889   3.448  41.406   7.044
 5680POPC   C4B71890   3.484  41.389   7.493
 5681POPC   NC371891  10.818   0.388   5.518
 5681POPC   PO471892  11.446   0.603   5.286
 5681POPC   GL171893  11.393   0.627   5.744
 5681POPC   GL271894  11.058   0.745   5.814
 5681POPC   C1A71895  11.493   0.391   6.147
 5681POPC   D2A71896  11.312   0.244   6.529
 5681POPC   C3A71897  11.372   0.437   6.969
 5681POPC   C4A71898  11.623   0.831   7.083
 5681POPC   C1B71899  10.986   0.560   6.224
 5681POPC   C2B71900  11.072   0.696   6.640
 5681POPC   C3B71901  10.918   0.662   7.076
 5681POPC   C4B71902  11.004   0.270   7.290
 5682POPC   NC371903  40.498  35.078   5.651
 5682POPC   PO471904  40.868  35.561   5.283
 5682POPC   GL171905  40.719  35.572   5.735
 5682POPC   GL271906  40.382  35.565   5.760
 5682POPC   C1A71907  40.918  35.554   6.160
 5682POPC   D2A71908  40.765  35.706   6.549
 5682POPC   C3A71909  40.913  35.565   6.966
 5682POPC   C4A71910  40.717  35.205   7.202
 5682POPC   C1B71911  40.406  35.465   6.218
 5682POPC   C2B71912  40.560  35.206   6.529
 5682POPC   C3B71913  40.434  34.950   6.871
 5682POPC   C4B71914  40.206  35.045   7.244
 5683POPC   NC371915   0.717  39.121   5.387
 5683POPC   PO471916   0.154  39.471   5.465
 5683POPC   GL171917   0.455  39.353   5.809
 5683POPC   GL271918   0.614  39.000   5.869
 5683POPC   C1A71919   0.431  39.261   6.247
 5683POPC   D2A71920   0.541  39.035   6.583
 5683POPC   C3A71921   0.327  39.115   6.913
 5683POPC   C4A71922   0.334  39.197   7.310
 5683POPC   C1B71923   0.863  38.827   6.242
 5683POPC   C2B71924   0.953  38.740   6.686
 5683POPC   C3B71925   0.829  39.023   7.017
 5683POPC   C4B71926   0.816  39.141   7.426
 5684POPC   NC371927  18.565  39.986   5.342
 5684POPC   PO471928  17.973  39.721   5.454
 5684POPC   GL171929  18.300  39.741   5.735
 5684POPC   GL271930  18.262  40.071   5.801
 5684POPC   C1A71931  18.485  39.677   6.143
 5684POPC   D2A71932  18.584  39.621   6.588
 5684POPC   C3A71933  18.270  39.809   6.867
 5684POPC   C4A71934  18.340  39.794   7.284
 5684POPC   C1B71935  18.057  40.262   6.148
 5684POPC   C2B71936  18.116  40.399   6.538
 5684POPC   C3B71937  17.947  40.450   6.912
 5684POPC   C4B71938  18.117  40.230   7.229
 5685POPC   NC371939  34.020  13.033   5.494
 5685POPC   PO471940  34.098  12.416   5.395
 5685POPC   GL171941  34.083  12.617   5.807
 5685POPC   GL271942  33.762  12.690   5.904
 5685POPC   C1A71943  34.123  12.841   6.230
 5685POPC   D2A71944  34.335  12.977   6.636
 5685POPC   C3A71945  34.013  12.960   6.982
 5685POPC   C4A71946  34.012  12.649   7.310
 5685POPC   C1B71947  33.520  12.833   6.249
 5685POPC   C2B71948  33.375  12.740   6.662
 5685POPC   C3B71949  33.572  12.669   7.043
 5685POPC   C4B71950  33.618  12.951   7.386
 5686POPC   NC371951  17.231  38.657   5.536
 5686POPC   PO471952  17.637  38.231   5.321
 5686POPC   GL171953  17.521  38.258   5.756
 5686POPC   GL271954  17.847  38.324   5.831
 5686POPC   C1A71955  17.355  38.255   6.198
 5686POPC   D2A71956  17.482  38.329   6.637
 5686POPC   C3A71957  17.424  38.727   6.861
 5686POPC   C4A71958  17.231  38.673   7.265
 5686POPC   C1B71959  17.801  38.542   6.197
 5686POPC   C2B71960  17.985  38.424   6.564
 5686POPC   C3B71961  17.909  38.537   6.932
 5686POPC   C4B71962  17.677  38.405   7.221
 5687POPC   NC371963  16.160  39.347   5.211
 5687POPC   PO471964  15.596  39.014   5.301
 5687POPC   GL171965  15.863  39.088   5.669
 5687POPC   GL271966  15.751  38.799   5.815
 5687POPC   C1A71967  16.021  39.071   6.130
 5687POPC   D2A71968  15.885  39.123   6.533
 5687POPC   C3A71969  16.155  39.231   6.873
 5687POPC   C4A71970  15.988  39.143   7.261
 5687POPC   C1B71971  15.648  38.722   6.263
 5687POPC   C2B71972  15.724  38.659   6.740
 5687POPC   C3B71973  15.582  38.844   7.140
 5687POPC   C4B71974  15.547  39.014   7.558
 5688POPC   NC371975  26.754  29.843   5.357
 5688POPC   PO471976  27.343  29.898   5.411
 5688POPC   GL171977  27.077  29.724   5.791
 5688POPC   GL271978  26.702  29.645   5.820
 5688POPC   C1A71979  26.929  29.815   6.245
 5688POPC   D2A71980  27.060  29.770   6.662
 5688POPC   C3A71981  27.139  30.087   6.942
 5688POPC   C4A71982  26.989  30.160   7.348
 5688POPC   C1B71983  26.532  29.520   6.217
 5688POPC   C2B71984  26.485  29.763   6.615
 5688POPC   C3B71985  26.646  29.905   7.038
 5688POPC   C4B71986  26.560  29.928   7.504
 5689POPC   NC371987  21.552  16.251   5.221
 5689POPC   PO471988  20.938  16.330   5.349
 5689POPC   GL171989  21.290  16.148   5.660
 5689POPC   GL271990  21.203  15.899   5.906
 5689POPC   C1A71991  21.461  16.241   6.116
 5689POPC   D2A71992  21.562  15.954   6.429
 5689POPC   C3A71993  21.391  15.983   6.851
 5689POPC   C4A71994  21.516  16.222   7.205
 5689POPC   C1B71995  21.064  15.624   6.219
 5689POPC   C2B71996  21.031  15.685   6.630
 5689POPC   C3B71997  21.123  15.448   6.996
 5689POPC   C4B71998  21.164  15.712   7.341
 5690POPC   NC371999  43.400  43.201   5.496
 5690POPC   PO472000  43.067  42.600   5.304
 5690POPC   GL172001  43.066  42.914   5.758
 5690POPC   GL272002  43.333  42.954   6.025
 5690POPC   C1A72003  42.868  43.003   6.183
 5690POPC   D2A72004  42.995  43.206   6.572
 5690POPC   C3A72005  43.042  42.857   6.861
 5690POPC   C4A72006  43.226  42.787   7.249
 5690POPC   C1B72007  43.408  43.334   6.251
 5690POPC   C2B72008  43.597  43.416   6.688
 5690POPC   C3B72009  43.335  43.257   7.022
 5690POPC   C4B72010  42.993  43.414   7.281
 5691POPC   NC372011  13.227  14.038   5.368
 5691POPC   PO472012  13.154  13.407   5.583
 5691POPC   GL172013  13.018  13.790   5.817
 5691POPC   GL272014  12.648  13.763   5.879
 5691POPC   C1A72015  12.985  13.781   6.275
 5691POPC   D2A72016  13.028  13.512   6.628
 5691POPC   C3A72017  12.980  13.759   6.972
 5691POPC   C4A72018  13.249  13.780   7.304
 5691POPC   C1B72019  12.594  13.443   6.217
 5691POPC   C2B72020  12.541  13.619   6.651
 5691POPC   C3B72021  12.469  13.797   7.062
 5691POPC   C4B72022  12.713  13.716   7.435
 5692POPC   NC372023  21.538  43.258   5.371
 5692POPC   PO472024  21.081  42.745   5.409
 5692POPC   GL172025  21.265  42.910   5.792
 5692POPC   GL272026  21.144  43.232   5.701
 5692POPC   C1A72027  21.401  43.189   6.191
 5692POPC   D2A72028  21.465  43.331   6.662
 5692POPC   C3A72029  21.419  43.034   7.039
 5692POPC   C4A72030  21.548  43.094   7.504
 5692POPC   C1B72031  20.944  43.339   6.041
 5692POPC   C2B72032  20.968  43.280   6.494
 5692POPC   C3B72033  21.036  43.402   6.925
 5692POPC   C4B72034  21.122  43.299   7.334
 5693POPC   NC372035  34.163  24.588   5.488
 5693POPC   PO472036  33.620  24.171   5.339
 5693POPC   GL172037  33.715  24.111   5.815
 5693POPC   GL272038  34.039  24.284   5.900
 5693POPC   C1A72039  33.696  24.315   6.265
 5693POPC   D2A72040  33.712  24.605   6.599
 5693POPC   C3A72041  33.841  24.405   6.941
 5693POPC   C4A72042  33.846  24.113   7.269
 5693POPC   C1B72043  34.050  24.707   6.175
 5693POPC   C2B72044  34.032  24.999   6.564
 5693POPC   C3B72045  34.012  24.879   7.013
 5693POPC   C4B72046  34.042  24.597   7.365
 5694POPC   NC372047  11.335  31.152   5.556
 5694POPC   PO472048  11.037  30.551   5.440
 5694POPC   GL172049  11.274  30.697   5.793
 5694POPC   GL272050  11.607  30.579   5.862
 5694POPC   C1A72051  11.147  30.811   6.202
 5694POPC   D2A72052  11.164  30.461   6.489
 5694POPC   C3A72053  11.210  30.460   6.933
 5694POPC   C4A72054  11.065  30.823   7.191
 5694POPC   C1B72055  11.690  30.886   6.183
 5694POPC   C2B72056  11.467  30.966   6.569
 5694POPC   C3B72057  11.531  30.860   6.970
 5694POPC   C4B72058  11.758  30.957   7.304
 5695POPC   NC372059   6.069  19.685   5.418
 5695POPC   PO472060   5.426  19.970   5.416
 5695POPC   GL172061   5.688  19.857   5.880
 5695POPC   GL272062   6.043  19.977   5.863
 5695POPC   C1A72063   5.708  19.648   6.302
 5695POPC   D2A72064   5.522  19.449   6.702
 5695POPC   C3A72065   5.735  19.634   7.060
 5695POPC   C4A72066   5.681  19.998   7.313
 5695POPC   C1B72067   6.184  19.943   6.289
 5695POPC   C2B72068   6.023  19.912   6.725
 5695POPC   C3B72069   6.161  19.874   7.162
 5695POPC   C4B72070   6.104  19.728   7.634
 5696POPC   NC372071   4.793  23.518   5.458
 5696POPC   PO472072   5.014  24.159   5.197
 5696POPC   GL172073   5.246  23.818   5.580
 5696POPC   GL272074   5.048  23.817   5.892
 5696POPC   C1A72075   5.469  23.608   6.020
 5696POPC   D2A72076   5.401  23.760   6.463
 5696POPC   C3A72077   5.390  23.602   6.883
 5696POPC   C4A72078   5.477  23.530   7.316
 5696POPC   C1B72079   4.931  23.906   6.304
 5696POPC   C2B72080   4.771  24.112   6.681
 5696POPC   C3B72081   4.784  24.077   7.090
 5696POPC   C4B72082   5.075  23.808   7.262
 5697POPC   NC372083  24.869   6.419   5.518
 5697POPC   PO472084  24.190   6.626   5.534
 5697POPC   GL172085  24.385   6.833   5.901
 5697POPC   GL272086  24.753   6.811   5.847
 5697POPC   C1A72087  24.539   6.890   6.316
 5697POPC   D2A72088  24.557   6.849   6.714
 5697POPC   C3A72089  24.374   6.539   6.853
 5697POPC   C4A72090  24.362   6.696   7.246
 5697POPC   C1B72091  24.884   6.527   6.215
 5697POPC   C2B72092  24.986   6.482   6.624
 5697POPC   C3B72093  24.879   6.597   7.010
 5697POPC   C4B72094  24.780   6.372   7.383
 5698POPC   NC372095  11.009  33.132   5.173
 5698POPC   PO472096  11.425  32.698   5.497
 5698POPC   GL172097  11.229  33.013   5.773
 5698POPC   GL272098  11.023  33.282   5.686
 5698POPC   C1A72099  11.360  33.124   6.167
 5698POPC   D2A72100  11.134  33.030   6.533
 5698POPC   C3A72101  11.395  32.838   6.840
 5698POPC   C4A72102  11.209  32.902   7.200
 5698POPC   C1B72103  10.933  33.390   6.138
 5698POPC   C2B72104  10.850  33.472   6.571
 5698POPC   C3B72105  11.044  33.370   6.976
 5698POPC   C4B72106  11.139  33.371   7.434
 5699POPC   NC372107   9.989  44.829   5.502
 5699POPC   PO472108   9.737  44.218   5.630
 5699POPC   GL172109   9.941  44.521   5.899
 5699POPC   GL272110   9.687  44.786   5.914
 5699POPC   C1A72111  10.098  44.894   6.179
 5699POPC   D2A72112   9.908  44.960   6.591
 5699POPC   C3A72113   9.833  44.571   6.839
 5699POPC   C4A72114   9.985  44.306   7.200
 5699POPC   C1B72115   9.647  44.564   6.316
 5699POPC   C2B72116   9.369  44.431   6.638
 5699POPC   C3B72117   9.334  44.737   6.945
 5699POPC   C4B72118   9.615  44.678   7.290
 5700POPC   NC372119   1.082  31.255   5.290
 5700POPC   PO472120   0.932  31.955   5.509
 5700POPC   GL172121   1.184  31.725   5.784
 5700POPC   GL272122   0.917  31.751   6.027
 5700POPC   C1A72123   1.364  31.573   6.184
 5700POPC   D2A72124   1.171  31.542   6.592
 5700POPC   C3A72125   1.343  31.372   6.979
 5700POPC   C4A72126   1.397  31.665   7.309
 5700POPC   C1B72127   0.876  31.329   6.223
 5700POPC   C2B72128   0.665  31.265   6.610
 5700POPC   C3B72129   0.830  31.462   6.963
 5700POPC   C4B72130   0.989  31.325   7.350
 5701POPC   NC372131  27.725   2.047   5.373
 5701POPC   PO472132  27.141   2.205   5.578
 5701POPC   GL172133  27.457   2.145   5.874
 5701POPC   GL272134  27.655   1.840   5.848
 5701POPC   C1A72135  27.398   2.324   6.294
 5701POPC   D2A72136  27.416   2.102   6.674
 5701POPC   C3A72137  27.222   2.323   7.003
 5701POPC   C4A72138  27.332   2.435   7.434
 5701POPC   C1B72139  27.798   2.013   6.254
 5701POPC   C2B72140  28.030   2.013   6.655
 5701POPC   C3B72141  27.787   1.989   7.020
 5701POPC   C4B72142  27.799   2.250   7.342
 5702POPC   NC372143  29.772  33.319   5.329
 5702POPC   PO472144  30.280  33.029   5.438
 5702POPC   GL172145  30.141  33.007   5.855
 5702POPC   GL272146  29.835  33.178   5.896
 5702POPC   C1A72147  30.076  33.011   6.307
 5702POPC   D2A72148  29.947  33.385   6.547
 5702POPC   C3A72149  30.064  33.354   6.962
 5702POPC   C4A72150  29.984  32.977   7.138
 5702POPC   C1B72151  29.592  33.085   6.328
 5702POPC   C2B72152  29.731  32.807   6.701
 5702POPC   C3B72153  29.602  32.646   7.148
 5702POPC   C4B72154  29.588  32.969   7.476
 5703POPC   NC372155   9.109   3.167   5.340
 5703POPC   PO472156   9.314   2.598   5.284
 5703POPC   GL172157   9.157   2.773   5.725
 5703POPC   GL272158   8.829   2.998   5.761
 5703POPC   C1A72159   9.203   2.658   6.226
 5703POPC   D2A72160   9.120   2.925   6.626
 5703POPC   C3A72161   9.111   2.877   7.101
 5703POPC   C4A72162   8.998   3.073   7.532
 5703POPC   C1B72163   8.722   2.777   6.123
 5703POPC   C2B72164   8.609   2.761   6.547
 5703POPC   C3B72165   8.642   2.974   6.937
 5703POPC   C4B72166   8.649   2.767   7.335
 5704POPC   NC372167  22.660  43.354   5.310
 5704POPC   PO472168  23.295  43.275   5.315
 5704POPC   GL172169  23.024  43.383   5.662
 5704POPC   GL272170  22.958  43.033   5.714
 5704POPC   C1A72171  23.004  43.391   6.132
 5704POPC   D2A72172  22.717  43.298   6.484
 5704POPC   C3A72173  22.914  43.203   6.881
 5704POPC   C4A72174  22.897  43.231   7.334
 5704POPC   C1B72175  22.818  42.907   6.145
 5704POPC   C2B72176  22.757  42.759   6.585
 5704POPC   C3B72177  22.650  42.799   7.025
 5704POPC   C4B72178  22.853  42.739   7.408
 5705POPC   NC372179  12.712  17.476   5.554
 5705POPC   PO472180  13.256  17.070   5.597
 5705POPC   GL172181  13.092  17.380   5.905
 5705POPC   GL272182  12.999  17.737   5.925
 5705POPC   C1A72183  12.757  17.401   6.224
 5705POPC   D2A72184  12.648  17.579   6.607
 5705POPC   C3A72185  12.854  17.476   6.989
 5705POPC   C4A72186  12.759  17.223   7.331
 5705POPC   C1B72187  12.690  17.950   6.209
 5705POPC   C2B72188  12.513  18.063   6.618
 5705POPC   C3B72189  12.491  17.849   7.000
 5705POPC   C4B72190  12.632  17.740   7.413
 5706POPC   NC372191  34.372  31.964   5.364
 5706POPC   PO472192  34.830  32.436   5.689
 5706POPC   GL172193  34.472  32.305   5.893
 5706POPC   GL272194  34.414  32.664   6.043
 5706POPC   C1A72195  34.410  32.031   6.267
 5706POPC   D2A72196  34.318  32.056   6.721
 5706POPC   C3A72197  34.647  32.006   7.019
 5706POPC   C4A72198  34.575  32.126   7.425
 5706POPC   C1B72199  34.679  32.483   6.333
 5706POPC   C2B72200  34.678  32.454   6.754
 5706POPC   C3B72201  34.735  32.522   7.168
 5706POPC   C4B72202  34.921  32.663   7.510
 5707POPC   NC372203  38.927  31.749   5.596
 5707POPC   PO472204  39.410  31.184   5.528
 5707POPC   GL172205  39.168  31.371   5.848
 5707POPC   GL272206  39.461  31.397   6.032
 5707POPC   C1A72207  39.022  31.541   6.245
 5707POPC   D2A72208  39.213  31.423   6.633
 5707POPC   C3A72209  39.130  31.651   6.988
 5707POPC   C4A72210  39.164  31.617   7.421
 5707POPC   C1B72211  39.509  31.751   6.348
 5707POPC   C2B72212  39.623  31.748   6.807
 5707POPC   C3B72213  39.636  31.637   7.245
 5707POPC   C4B72214  39.564  31.838   7.680
 5708POPC   NC372215  30.205   2.554   5.228
 5708POPC   PO472216  29.818   3.089   5.514
 5708POPC   GL172217  29.750   2.695   5.735
 5708POPC   GL272218  30.102   2.554   5.732
 5708POPC   C1A72219  29.788   2.737   6.182
 5708POPC   D2A72220  30.096   2.885   6.497
 5708POPC   C3A72221  29.858   2.945   6.862
 5708POPC   C4A72222  29.754   2.662   7.170
 5708POPC   C1B72223  30.351   2.641   6.112
 5708POPC   C2B72224  30.368   2.390   6.492
 5708POPC   C3B72225  30.290   2.557   6.870
 5708POPC   C4B72226  30.246   2.615   7.268
 5709POPC   NC372227  39.411  36.575   5.421
 5709POPC   PO472228  39.507  37.293   5.453
 5709POPC   GL172229  39.401  36.975   5.768
 5709POPC   GL272230  39.079  36.785   5.794
 5709POPC   C1A72231  39.379  37.017   6.203
 5709POPC   D2A72232  39.522  36.894   6.593
 5709POPC   C3A72233  39.230  36.683   6.844
 5709POPC   C4A72234  39.364  36.866   7.215
 5709POPC   C1B72235  38.887  37.089   6.088
 5709POPC   C2B72236  38.945  37.182   6.522
 5709POPC   C3B72237  39.047  37.157   6.960
 5709POPC   C4B72238  39.008  37.170   7.449
 5710POPC   NC372239  22.260  31.590   5.455
 5710POPC   PO472240  22.139  30.939   5.488
 5710POPC   GL172241  22.074  31.249   5.799
 5710POPC   GL272242  22.434  31.378   5.881
 5710POPC   C1A72243  22.025  31.556   6.127
 5710POPC   D2A72244  22.346  31.618   6.437
 5710POPC   C3A72245  22.205  31.648   6.852
 5710POPC   C4A72246  22.307  31.643   7.264
 5710POPC   C1B72247  22.300  31.135   6.254
 5710POPC   C2B72248  22.103  31.178   6.690
 5710POPC   C3B72249  22.248  31.134   7.155
 5710POPC   C4B72250  22.207  31.097   7.651
 5711POPC   NC372251  33.116  36.650   5.291
 5711POPC   PO472252  32.700  37.183   5.300
 5711POPC   GL172253  32.961  37.015   5.648
 5711POPC   GL272254  32.839  36.693   5.778
 5711POPC   C1A72255  33.112  37.008   6.091
 5711POPC   D2A72256  33.065  36.816   6.518
 5711POPC   C3A72257  33.049  37.147   6.818
 5711POPC   C4A72258  33.107  37.004   7.197
 5711POPC   C1B72259  32.652  36.819   6.216
 5711POPC   C2B72260  32.594  37.019   6.639
 5711POPC   C3B72261  32.625  36.851   7.090
 5711POPC   C4B72262  32.678  36.705   7.560
 5712POPC   NC372263  29.431  19.774   5.279
 5712POPC   PO472264  28.977  20.132   5.580
 5712POPC   GL172265  29.245  19.909   5.865
 5712POPC   GL272266  29.381  19.584   5.784
 5712POPC   C1A72267  29.072  19.871   6.288
 5712POPC   D2A72268  28.976  19.720   6.700
 5712POPC   C3A72269  28.988  20.078   7.002
 5712POPC   C4A72270  29.130  20.061   7.434
 5712POPC   C1B72271  29.518  19.634   6.245
 5712POPC   C2B72272  29.626  19.525   6.695
 5712POPC   C3B72273  29.640  19.702   7.117
 5712POPC   C4B72274  29.255  19.663   7.123
 5713POPC   NC372275  44.524  22.257   5.251
 5713POPC   PO472276  44.798  21.651   5.422
 5713POPC   GL172277  44.707  22.080   5.713
 5713POPC   GL272278  44.518  21.978   5.949
 5713POPC   C1A72279  44.597  22.414   6.152
 5713POPC   D2A72280  44.807  22.597   6.561
 5713POPC   C3A72281  44.718  22.553   7.022
 5713POPC   C4A72282  44.632  22.547   7.474
 5713POPC   C1B72283  44.706  21.928   6.349
 5713POPC   C2B72284  44.688  22.091   6.759
 5713POPC   C3B72285  44.616  22.097   7.212
 5713POPC   C4B72286  44.844  22.059   7.599
 5714POPC   NC372287  36.252  41.911   5.414
 5714POPC   PO472288  35.979  41.277   5.368
 5714POPC   GL172289  36.132  41.387   5.774
 5714POPC   GL272290  36.412  41.619   5.782
 5714POPC   C1A72291  36.050  41.591   6.191
 5714POPC   D2A72292  35.967  41.812   6.585
 5714POPC   C3A72293  36.093  41.609   6.979
 5714POPC   C4A72294  36.244  41.186   7.112
 5714POPC   C1B72295  36.542  41.454   6.163
 5714POPC   C2B72296  36.437  41.563   6.561
 5714POPC   C3B72297  36.581  41.764   6.906
 5714POPC   C4B72298  36.587  41.562   7.274
 5715POPC   NC372299  37.426  32.115   5.302
 5715POPC   PO472300  37.798  32.621   5.289
 5715POPC   GL172301  37.655  32.461   5.686
 5715POPC   GL272302  37.731  32.093   5.754
 5715POPC   C1A72303  37.657  32.549   6.138
 5715POPC   D2A72304  37.842  32.426   6.538
 5715POPC   C3A72305  37.616  32.495   6.942
 5715POPC   C4A72306  37.735  32.499   7.380
 5715POPC   C1B72307  37.517  32.040   6.185
 5715POPC   C2B72308  37.461  32.073   6.647
 5715POPC   C3B72309  37.433  32.030   7.104
 5715POPC   C4B72310  37.276  31.819   7.464
 5716POPC   NC372311  10.864  26.931   5.504
 5716POPC   PO472312  10.190  26.663   5.498
 5716POPC   GL172313  10.454  26.903   5.809
 5716POPC   GL272314  10.753  26.694   5.940
 5716POPC   C1A72315  10.517  27.081   6.216
 5716POPC   D2A72316  10.372  26.894   6.597
 5716POPC   C3A72317  10.687  26.731   6.865
 5716POPC   C4A72318  10.557  26.938   7.209
 5716POPC   C1B72319  10.434  26.552   6.203
 5716POPC   C2B72320  10.388  26.338   6.585
 5716POPC   C3B72321  10.246  26.475   6.997
 5716POPC   C4B72322  10.548  26.423   7.312
 5717POPC   NC372323   8.082  22.835   5.174
 5717POPC   PO472324   7.707  22.375   5.466
 5717POPC   GL172325   7.794  22.700   5.768
 5717POPC   GL272326   8.019  23.009   5.717
 5717POPC   C1A72327   8.081  22.718   6.129
 5717POPC   D2A72328   8.268  22.659   6.527
 5717POPC   C3A72329   8.051  22.864   6.860
 5717POPC   C4A72330   8.200  22.783   7.265
 5717POPC   C1B72331   8.335  23.154   6.087
 5717POPC   C2B72332   8.395  23.149   6.549
 5717POPC   C3B72333   8.548  22.980   6.939
 5717POPC   C4B72334   8.447  23.239   7.280
 5718POPC   NC372335  34.306  38.578   5.409
 5718POPC   PO472336  34.650  38.034   5.364
 5718POPC   GL172337  34.513  38.276   5.750
 5718POPC   GL272338  34.725  38.588   5.705
 5718POPC   C1A72339  34.324  38.466   6.155
 5718POPC   D2A72340  34.215  38.662   6.588
 5718POPC   C3A72341  34.417  38.499   6.991
 5718POPC   C4A72342  34.676  38.329   7.322
 5718POPC   C1B72343  34.815  38.556   6.145
 5718POPC   C2B72344  34.704  38.468   6.558
 5718POPC   C3B72345  34.935  38.586   6.928
 5718POPC   C4B72346  34.841  38.790   7.298
 5719POPC   NC372347  25.748   5.074   5.038
 5719POPC   PO472348  25.971   4.803   5.585
 5719POPC   GL172349  25.865   4.997   5.956
 5719POPC   GL272350  25.610   5.255   5.851
 5719POPC   C1A72351  26.070   5.021   6.380
 5719POPC   D2A72352  26.178   4.986   6.833
 5719POPC   C3A72353  26.299   5.280   7.128
 5719POPC   C4A72354  26.363   5.298   7.590
 5719POPC   C1B72355  25.703   5.375   6.280
 5719POPC   C2B72356  25.842   5.348   6.703
 5719POPC   C3B72357  25.718   5.161   7.045
 5719POPC   C4B72358  25.895   5.045   7.404
 5720POPC   NC372359  26.643  19.278   5.369
 5720POPC   PO472360  26.902  18.659   5.368
 5720POPC   GL172361  26.819  18.973   5.757
 5720POPC   GL272362  26.598  19.288   5.866
 5720POPC   C1A72363  26.795  18.997   6.224
 5720POPC   D2A72364  26.651  18.751   6.567
 5720POPC   C3A72365  26.734  18.909   6.962
 5720POPC   C4A72366  27.030  19.123   7.177
 5720POPC   C1B72367  26.615  19.462   6.286
 5720POPC   C2B72368  26.806  19.406   6.708
 5720POPC   C3B72369  26.633  19.449   7.119
 5720POPC   C4B72370  26.619  19.174   7.500
 5721POPC   NC372371   4.673  37.786   5.374
 5721POPC   PO472372   4.114  37.422   5.370
 5721POPC   GL172373   4.330  37.530   5.771
 5721POPC   GL272374   4.018  37.452   5.956
 5721POPC   C1A72375   4.409  37.563   6.245
 5721POPC   D2A72376   4.143  37.462   6.624
 5721POPC   C3A72377   4.480  37.512   6.921
 5721POPC   C4A72378   4.583  37.928   7.116
 5721POPC   C1B72379   3.965  37.825   6.277
 5721POPC   C2B72380   3.835  37.937   6.732
 5721POPC   C3B72381   4.051  37.739   7.068
 5721POPC   C4B72382   4.032  37.325   7.154
 5722POPC   NC372383  13.594  13.243   5.484
 5722POPC   PO472384  13.672  13.939   5.326
 5722POPC   GL172385  13.558  13.715   5.699
 5722POPC   GL272386  13.849  13.525   5.827
 5722POPC   C1A72387  13.495  13.755   6.149
 5722POPC   D2A72388  13.694  14.006   6.481
 5722POPC   C3A72389  13.580  13.883   6.892
 5722POPC   C4A72390  13.743  13.826   7.305
 5722POPC   C1B72391  13.817  13.293   6.233
 5722POPC   C2B72392  13.858  13.344   6.697
 5722POPC   C3B72393  13.533  13.381   7.017
 5722POPC   C4B72394  13.517  13.320   7.451
 5723POPC   NC372395  41.246   6.350   5.323
 5723POPC   PO472396  41.682   6.776   5.569
 5723POPC   GL172397  41.530   6.559   5.902
 5723POPC   GL272398  41.229   6.379   5.819
 5723POPC   C1A72399  41.572   6.732   6.294
 5723POPC   D2A72400  41.325   6.932   6.584
 5723POPC   C3A72401  41.463   6.911   6.985
 5723POPC   C4A72402  41.747   6.682   7.180
 5723POPC   C1B72403  41.179   6.279   6.231
 5723POPC   C2B72404  41.329   6.421   6.613
 5723POPC   C3B72405  41.361   6.393   7.034
 5723POPC   C4B72406  41.382   6.489   7.502
 5724POPC   NC372407  42.850   1.823   5.299
 5724POPC   PO472408  43.269   2.365   5.395
 5724POPC   GL172409  43.123   2.063   5.673
 5724POPC   GL272410  43.157   2.249   5.962
 5724POPC   C1A72411  42.964   1.783   6.036
 5724POPC   D2A72412  43.021   1.681   6.492
 5724POPC   C3A72413  42.965   1.949   6.889
 5724POPC   C4A72414  43.013   1.865   7.342
 5724POPC   C1B72415  43.439   2.444   6.295
 5724POPC   C2B72416  43.376   2.496   6.750
 5724POPC   C3B72417  43.320   2.366   7.182
 5724POPC   C4B72418  43.088   2.300   7.597
 5725POPC   NC372419  42.599  13.109   5.407
 5725POPC   PO472420  41.915  13.004   5.527
 5725POPC   GL172421  42.135  12.799   5.843
 5725POPC   GL272422  42.477  12.740   5.785
 5725POPC   C1A72423  42.127  12.695   6.261
 5725POPC   D2A72424  42.188  12.948   6.592
 5725POPC   C3A72425  42.122  12.687   6.927
 5725POPC   C4A72426  42.294  12.698   7.304
 5725POPC   C1B72427  42.525  13.025   6.147
 5725POPC   C2B72428  42.688  13.094   6.567
 5725POPC   C3B72429  42.543  12.991   6.978
 5725POPC   C4B72430  42.767  12.924   7.376
 5726POPC   NC372431  20.224  20.091   5.544
 5726POPC   PO472432  20.791  19.679   5.389
 5726POPC   GL172433  20.545  19.693   5.734
 5726POPC   GL272434  20.844  19.668   5.907
 5726POPC   C1A72435  20.462  19.911   6.159
 5726POPC   D2A72436  20.446  20.060   6.591
 5726POPC   C3A72437  20.311  19.792   6.962
 5726POPC   C4A72438  20.382  19.935   7.337
 5726POPC   C1B72439  20.954  19.634   6.295
 5726POPC   C2B72440  20.938  19.846   6.656
 5726POPC   C3B72441  20.789  19.964   7.022
 5726POPC   C4B72442  20.849  19.697   7.330
 5727POPC   NC372443   6.425  32.623   5.336
 5727POPC   PO472444   6.844  31.989   5.465
 5727POPC   GL172445   6.791  32.193   5.846
 5727POPC   GL272446   6.652  32.552   5.855
 5727POPC   C1A72447   6.837  32.283   6.266
 5727POPC   D2A72448   6.602  32.286   6.653
 5727POPC   C3A72449   6.846  32.440   6.990
 5727POPC   C4A72450   6.845  32.127   7.256
 5727POPC   C1B72451   6.335  32.416   6.216
 5727POPC   C2B72452   6.113  32.453   6.642
 5727POPC   C3B72453   6.347  32.582   7.020
 5727POPC   C4B72454   6.469  32.444   7.419
 5728POPC   NC372455  35.564  43.583   5.475
 5728POPC   PO472456  35.438  44.227   5.534
 5728POPC   GL172457  35.257  44.006   5.853
 5728POPC   GL272458  35.502  43.735   5.974
 5728POPC   C1A72459  35.303  44.072   6.315
 5728POPC   D2A72460  35.393  43.726   6.603
 5728POPC   C3A72461  35.484  43.883   7.015
 5728POPC   C4A72462  35.199  44.094   7.317
 5728POPC   C1B72463  35.074  43.654   6.159
 5728POPC   C2B72464  34.857  43.761   6.523
 5728POPC   C3B72465  34.983  43.737   6.974
 5728POPC   C4B72466  34.957  43.664   7.426
 5729POPC   NC372467   3.277  26.138   5.190
 5729POPC   PO472468   3.672  25.928   5.631
 5729POPC   GL172469   3.564  26.110   5.954
 5729POPC   GL272470   3.469  25.793   6.086
 5729POPC   C1A72471   3.692  26.162   6.346
 5729POPC   D2A72472   3.690  25.862   6.627
 5729POPC   C3A72473   3.557  26.017   6.998
 5729POPC   C4A72474   3.553  26.191   7.408
 5729POPC   C1B72475   3.188  25.885   6.368
 5729POPC   C2B72476   2.906  25.763   6.685
 5729POPC   C3B72477   3.125  25.730   7.054
 5729POPC   C4B72478   3.493  25.596   7.286
 5730POPC   NC372479  35.740  37.508   5.199
 5730POPC   PO472480  35.177  37.678   5.620
 5730POPC   GL172481  35.269  37.453   5.917
 5730POPC   GL272482  34.920  37.302   5.879
 5730POPC   C1A72483  35.466  37.554   6.321
 5730POPC   D2A72484  35.260  37.777   6.685
 5730POPC   C3A72485  35.484  37.794   7.070
 5730POPC   C4A72486  35.347  37.783   7.494
 5730POPC   C1B72487  34.947  37.503   6.298
 5730POPC   C2B72488  35.145  37.292   6.633
 5730POPC   C3B72489  35.219  37.354   7.049
 5730POPC   C4B72490  34.944  37.520   7.335
 5731POPC   NC372491  42.391  14.087   5.403
 5731POPC   PO472492  41.851  14.513   5.245
 5731POPC   GL172493  42.097  14.472   5.669
 5731POPC   GL272494  42.457  14.579   5.769
 5731POPC   C1A72495  42.071  14.567   6.140
 5731POPC   D2A72496  42.281  14.493   6.533
 5731POPC   C3A72497  42.034  14.395   6.878
 5731POPC   C4A72498  41.807  14.451   7.236
 5731POPC   C1B72499  42.447  14.209   6.084
 5731POPC   C2B72500  42.491  13.963   6.482
 5731POPC   C3B72501  42.351  13.980   6.891
 5731POPC   C4B72502  42.476  14.317   7.123
 5732POPC   NC372503  36.970  36.144   5.225
 5732POPC   PO472504  36.386  36.145   5.385
 5732POPC   GL172505  36.725  36.282   5.658
 5732POPC   GL272506  37.066  36.129   5.736
 5732POPC   C1A72507  36.706  36.377   6.099
 5732POPC   D2A72508  36.499  36.308   6.504
 5732POPC   C3A72509  36.766  36.119   6.813
 5732POPC   C4A72510  36.822  36.136   7.248
 5732POPC   C1B72511  37.219  35.953   6.140
 5732POPC   C2B72512  37.355  36.068   6.543
 5732POPC   C3B72513  37.262  36.181   6.947
 5732POPC   C4B72514  37.147  35.784   7.079
 5733POPC   NC372515  33.895  33.484   5.271
 5733POPC   PO472516  34.153  33.031   5.721
 5733POPC   GL172517  33.765  32.946   5.844
 5733POPC   GL272518  33.609  33.276   5.799
 5733POPC   C1A72519  33.646  32.728   6.194
 5733POPC   D2A72520  33.562  32.870   6.578
 5733POPC   C3A72521  33.487  32.604   6.916
 5733POPC   C4A72522  33.713  32.661   7.266
 5733POPC   C1B72523  33.706  33.269   6.263
 5733POPC   C2B72524  33.571  33.451   6.681
 5733POPC   C3B72525  33.613  33.338   7.103
 5733POPC   C4B72526  34.012  33.144   7.227
 5734POPC   NC372527  28.753   9.423   5.359
 5734POPC   PO472528  29.356   9.857   5.434
 5734POPC   GL172529  29.145   9.794   5.830
 5734POPC   GL272530  28.942   9.500   5.832
 5734POPC   C1A72531  29.277   9.630   6.252
 5734POPC   D2A72532  29.201   9.543   6.678
 5734POPC   C3A72533  29.300   9.803   7.068
 5734POPC   C4A72534  29.446   9.829   7.524
 5734POPC   C1B72535  28.761   9.276   6.201
 5734POPC   C2B72536  28.854   9.138   6.647
 5734POPC   C3B72537  28.991   9.330   7.072
 5734POPC   C4B72538  28.924   9.615   7.399
 5735POPC   NC372539  28.687  41.858   5.426
 5735POPC   PO472540  28.099  41.467   5.454
 5735POPC   GL172541  28.329  41.651   5.814
 5735POPC   GL272542  28.593  41.409   5.721
 5735POPC   C1A72543  28.280  41.761   6.286
 5735POPC   D2A72544  28.091  41.574   6.690
 5735POPC   C3A72545  28.149  41.719   7.110
 5735POPC   C4A72546  28.113  41.474   7.477
 5735POPC   C1B72547  28.679  41.433   6.180
 5735POPC   C2B72548  28.505  41.289   6.595
 5735POPC   C3B72549  28.419  41.293   7.036
 5735POPC   C4B72550  28.650  41.596   7.244
 5736POPC   NC372551   6.831  25.740   5.431
 5736POPC   PO472552   6.544  26.404   5.418
 5736POPC   GL172553   6.710  26.156   5.773
 5736POPC   GL272554   6.497  25.835   5.805
 5736POPC   C1A72555   6.745  26.147   6.245
 5736POPC   D2A72556   6.888  26.090   6.675
 5736POPC   C3A72557   6.662  26.219   7.036
 5736POPC   C4A72558   6.861  26.164   7.445
 5736POPC   C1B72559   6.287  25.924   6.185
 5736POPC   C2B72560   6.433  25.809   6.584
 5736POPC   C3B72561   6.614  25.720   6.967
 5736POPC   C4B72562   6.458  25.848   7.354
 5737POPC   NC372563   4.111  25.885   5.687
 5737POPC   PO472564   4.153  26.454   5.326
 5737POPC   GL172565   4.316  26.366   5.749
 5737POPC   GL272566   4.582  26.148   5.730
 5737POPC   C1A72567   4.223  26.209   6.223
 5737POPC   D2A72568   4.092  26.221   6.667
 5737POPC   C3A72569   4.445  26.174   6.937
 5737POPC   C4A72570   4.503  26.357   7.344
 5737POPC   C1B72571   4.619  25.839   6.086
 5737POPC   C2B72572   4.724  25.740   6.520
 5737POPC   C3B72573   4.559  25.654   6.926
 5737POPC   C4B72574   4.532  25.850   7.340
 5738POPC   NC372575  28.624   3.788   5.617
 5738POPC   PO472576  28.241   3.231   5.492
 5738POPC   GL172577  28.408   3.413   5.858
 5738POPC   GL272578  28.484   3.172   6.033
 5738POPC   C1A72579  28.417   3.688   6.235
 5738POPC   D2A72580  28.147   3.665   6.599
 5738POPC   C3A72581  28.247   3.631   7.030
 5738POPC   C4A72582  27.888   3.666   7.314
 5738POPC   C1B72583  28.753   3.309   6.384
 5738POPC   C2B72584  28.609   3.302   6.821
 5738POPC   C3B72585  28.634   3.276   7.281
 5738POPC   C4B72586  28.503   3.291   7.753
 5739POPC   NC372587  36.621  11.629   5.425
 5739POPC   PO472588  37.107  11.277   5.198
 5739POPC   GL172589  36.939  11.262   5.643
 5739POPC   GL272590  37.250  11.294   5.827
 5739POPC   C1A72591  36.781  11.300   6.116
 5739POPC   D2A72592  36.591  11.174   6.563
 5739POPC   C3A72593  36.702  11.196   7.011
 5739POPC   C4A72594  36.849  11.499   7.315
 5739POPC   C1B72595  37.274  11.194   6.269
 5739POPC   C2B72596  37.082  11.366   6.647
 5739POPC   C3B72597  37.218  11.211   7.020
 5739POPC   C4B72598  37.367  10.804   7.122
 5740POPC   NC372599  26.590  44.083   5.419
 5740POPC   PO472600  26.506  43.404   5.241
 5740POPC   GL172601  26.667  43.613   5.689
 5740POPC   GL272602  26.994  43.483   5.866
 5740POPC   C1A72603  26.790  43.872   6.114
 5740POPC   D2A72604  26.914  43.822   6.577
 5740POPC   C3A72605  26.767  44.041   6.958
 5740POPC   C4A72606  26.925  44.072   7.395
 5740POPC   C1B72607  27.173  43.440   6.295
 5740POPC   C2B72608  27.365  43.577   6.690
 5740POPC   C3B72609  27.142  43.704   7.083
 5740POPC   C4B72610  26.700  43.625   7.270
 5741POPC   NC372611  13.327   7.356   5.517
 5741POPC   PO472612  13.827   7.113   5.096
 5741POPC   GL172613  13.794   7.157   5.608
 5741POPC   GL272614  13.553   6.955   5.785
 5741POPC   C1A72615  13.712   7.339   6.077
 5741POPC   D2A72616  13.703   7.258   6.538
 5741POPC   C3A72617  13.809   7.493   6.919
 5741POPC   C4A72618  14.148   7.650   7.193
 5741POPC   C1B72619  13.383   6.924   6.206
 5741POPC   C2B72620  13.257   7.038   6.625
 5741POPC   C3B72621  13.356   7.263   7.014
 5741POPC   C4B72622  13.325   7.706   7.190
 5742POPC   NC372623   9.475  24.278   5.314
 5742POPC   PO472624  10.038  24.241   5.707
 5742POPC   GL172625   9.717  24.502   5.899
 5742POPC   GL272626   9.661  24.849   5.827
 5742POPC   C1A72627   9.696  24.467   6.321
 5742POPC   D2A72628   9.820  24.151   6.573
 5742POPC   C3A72629   9.895  24.263   6.953
 5742POPC   C4A72630   9.597  24.423   7.236
 5742POPC   C1B72631   9.393  24.859   6.197
 5742POPC   C2B72632   9.317  24.708   6.625
 5742POPC   C3B72633   9.444  24.909   7.000
 5742POPC   C4B72634   9.455  24.867   7.433
 5743POPC   NC372635  21.615  33.060   5.367
 5743POPC   PO472636  21.084  32.687   5.485
 5743POPC   GL172637  21.233  32.976   5.810
 5743POPC   GL272638  21.563  33.116   5.866
 5743POPC   C1A72639  21.191  33.178   6.213
 5743POPC   D2A72640  21.345  33.354   6.592
 5743POPC   C3A72641  21.174  33.116   6.907
 5743POPC   C4A72642  21.239  33.098   7.324
 5743POPC   C1B72643  21.675  33.386   6.207
 5743POPC   C2B72644  21.865  33.419   6.636
 5743POPC   C3B72645  21.614  33.365   7.029
 5743POPC   C4B72646  21.727  33.214   7.410
 5744POPC   NC372647  31.350  41.742   5.479
 5744POPC   PO472648  31.876  41.415   5.310
 5744POPC   GL172649  31.631  41.503   5.802
 5744POPC   GL272650  31.235  41.599   5.939
 5744POPC   C1A72651  31.668  41.723   6.223
 5744POPC   D2A72652  31.385  41.849   6.575
 5744POPC   C3A72653  31.492  41.826   7.023
 5744POPC   C4A72654  31.283  41.621   7.403
 5744POPC   C1B72655  31.280  41.378   6.295
 5744POPC   C2B72656  31.564  41.381   6.620
 5744POPC   C3B72657  31.507  41.317   7.019
 5744POPC   C4B72658  31.661  41.140   7.347
 5745POPC   NC372659  36.741  10.117   5.512
 5745POPC   PO472660  36.925   9.495   5.297
 5745POPC   GL172661  36.873   9.581   5.831
 5745POPC   GL272662  36.963   9.917   5.919
 5745POPC   C1A72663  36.659   9.713   6.260
 5745POPC   D2A72664  36.802   9.553   6.658
 5745POPC   C3A72665  36.665   9.772   7.055
 5745POPC   C4A72666  36.467  10.176   7.210
 5745POPC   C1B72667  37.167   9.730   6.265
 5745POPC   C2B72668  37.229   9.863   6.672
 5745POPC   C3B72669  37.260   9.532   6.933
 5745POPC   C4B72670  37.095   9.626   7.280
 5746POPC   NC372671   0.400  11.014   5.463
 5746POPC   PO472672   0.106  11.620   5.486
 5746POPC   GL172673   0.189  11.292   5.846
 5746POPC   GL272674   0.571  11.186   5.929
 5746POPC   C1A72675   0.237  11.283   6.313
 5746POPC   D2A72676   0.179  11.522   6.695
 5746POPC   C3A72677   0.355  11.271   7.044
 5746POPC   C4A72678   0.215  11.073   7.417
 5746POPC   C1B72679   0.749  11.447   6.300
 5746POPC   C2B72680   0.729  11.496   6.763
 5746POPC   C3B72681   0.902  11.505   7.198
 5746POPC   C4B72682   0.939  11.650   7.638
 5747POPC   NC372683  29.545  41.767   5.590
 5747POPC   PO472684  29.998  41.405   5.274
 5747POPC   GL172685  29.967  41.500   5.726
 5747POPC   GL272686  30.024  41.839   5.822
 5747POPC   C1A72687  29.840  41.475   6.174
 5747POPC   D2A72688  29.597  41.659   6.506
 5747POPC   C3A72689  29.825  41.608   6.893
 5747POPC   C4A72690  29.671  41.437   7.257
 5747POPC   C1B72691  30.252  41.817   6.211
 5747POPC   C2B72692  30.373  41.456   6.476
 5747POPC   C3B72693  30.316  41.288   6.900
 5747POPC   C4B72694  30.179  41.526   7.267
 5748POPC   NC372695  30.289  35.550   5.530
 5748POPC   PO472696  30.880  35.425   5.241
 5748POPC   GL172697  30.872  35.558   5.673
 5748POPC   GL272698  30.678  35.325   5.838
 5748POPC   C1A72699  30.941  35.688   6.129
 5748POPC   D2A72700  30.740  35.673   6.559
 5748POPC   C3A72701  30.972  35.675   6.949
 5748POPC   C4A72702  30.853  35.610   7.385
 5748POPC   C1B72703  30.666  35.206   6.280
 5748POPC   C2B72704  30.447  35.282   6.684
 5748POPC   C3B72705  30.589  35.343   7.054
 5748POPC   C4B72706  30.672  35.130   7.445
 5749POPC   NC372707  26.612  15.949   5.078
 5749POPC   PO472708  26.974  16.229   5.583
 5749POPC   GL172709  26.945  16.104   5.997
 5749POPC   GL272710  27.058  15.749   5.977
 5749POPC   C1A72711  26.719  15.921   6.351
 5749POPC   D2A72712  26.455  16.147   6.637
 5749POPC   C3A72713  26.609  16.171   7.060
 5749POPC   C4A72714  26.553  16.124   7.542
 5749POPC   C1B72715  27.335  15.917   6.245
 5749POPC   C2B72716  27.196  15.951   6.594
 5749POPC   C3B72717  26.972  15.818   6.918
 5749POPC   C4B72718  27.027  15.987   7.338
 5750POPC   NC372719  25.765  44.257   5.431
 5750POPC   PO472720  26.253  44.786   5.572
 5750POPC   GL172721  26.092  44.416   5.814
 5750POPC   GL272722  25.706  44.437   5.918
 5750POPC   C1A72723  26.074  44.306   6.255
 5750POPC   D2A72724  25.719  44.416   6.526
 5750POPC   C3A72725  25.897  44.380   6.921
 5750POPC   C4A72726  26.291  44.220   7.071
 5750POPC   C1B72727  25.899  44.776   6.193
 5750POPC   C2B72728  26.147  44.722   6.593
 5750POPC   C3B72729  26.225  44.762   7.049
 5750POPC   C4B72730  25.919  44.822   7.379
 5751POPC   NC372731  31.987  20.677   5.448
 5751POPC   PO472732  31.353  20.870   5.314
 5751POPC   GL172733  31.300  20.800   5.763
 5751POPC   GL272734  31.562  20.577   5.802
 5751POPC   C1A72735  31.348  20.850   6.219
 5751POPC   D2A72736  31.760  20.923   6.471
 5751POPC   C3A72737  31.741  20.895   6.927
 5751POPC   C4A72738  31.573  20.561   7.178
 5751POPC   C1B72739  31.647  20.459   6.232
 5751POPC   C2B72740  31.498  20.521   6.662
 5751POPC   C3B72741  31.269  20.228   6.944
 5751POPC   C4B72742  31.307  20.163   7.408
 5752POPC   NC372743  33.852  28.935   5.244
 5752POPC   PO472744  34.286  29.168   5.637
 5752POPC   GL172745  33.907  29.198   5.850
 5752POPC   GL272746  33.671  29.505   5.805
 5752POPC   C1A72747  33.987  29.045   6.258
 5752POPC   D2A72748  33.781  29.021   6.629
 5752POPC   C3A72749  33.969  29.099   7.013
 5752POPC   C4A72750  33.988  29.108   7.463
 5752POPC   C1B72751  33.513  29.245   6.185
 5752POPC   C2B72752  33.289  29.097   6.565
 5752POPC   C3B72753  33.425  28.911   6.973
 5752POPC   C4B72754  33.540  29.236   7.237
 5753POPC   NC372755  14.191  11.953   5.364
 5753POPC   PO472756  14.813  11.724   5.437
 5753POPC   GL172757  14.520  11.946   5.777
 5753POPC   GL272758  14.116  11.930   5.867
 5753POPC   C1A72759  14.473  11.996   6.241
 5753POPC   D2A72760  14.191  11.885   6.597
 5753POPC   C3A72761  14.467  11.984   6.915
 5753POPC   C4A72762  14.793  12.025   7.210
 5753POPC   C1B72763  14.032  12.235   6.203
 5753POPC   C2B72764  14.012  12.373   6.619
 5753POPC   C3B72765  13.964  12.185   7.006
 5753POPC   C4B72766  14.192  12.004   7.339
 5754POPC   NC372767  18.927  36.408   5.632
 5754POPC   PO472768  19.096  35.704   5.489
 5754POPC   GL172769  19.269  35.974   5.785
 5754POPC   GL272770  18.940  35.998   5.914
 5754POPC   C1A72771  19.361  36.157   6.185
 5754POPC   D2A72772  19.213  36.064   6.577
 5754POPC   C3A72773  19.210  36.378   6.880
 5754POPC   C4A72774  19.367  36.187   7.214
 5754POPC   C1B72775  18.723  35.899   6.263
 5754POPC   C2B72776  18.757  35.851   6.699
 5754POPC   C3B72777  18.807  36.041   7.101
 5754POPC   C4B72778  18.744  35.726   7.394
 5755POPC   NC372779  10.041  24.666   5.524
 5755POPC   PO472780   9.753  25.318   5.511
 5755POPC   GL172781   9.921  25.322   5.880
 5755POPC   GL272782  10.121  25.084   5.811
 5755POPC   C1A72783   9.717  25.254   6.241
 5755POPC   D2A72784   9.457  25.214   6.575
 5755POPC   C3A72785   9.669  25.364   6.912
 5755POPC   C4A72786   9.487  25.362   7.304
 5755POPC   C1B72787  10.035  24.857   6.193
 5755POPC   C2B72788   9.834  24.865   6.597
 5755POPC   C3B72789   9.932  24.779   7.004
 5755POPC   C4B72790   9.907  25.089   7.289
 5756POPC   NC372791  15.520  36.107   5.487
 5756POPC   PO472792  16.113  36.383   5.347
 5756POPC   GL172793  15.949  36.254   5.752
 5756POPC   GL272794  16.058  35.915   5.744
 5756POPC   C1A72795  15.898  36.103   6.207
 5756POPC   D2A72796  16.114  36.100   6.616
 5756POPC   C3A72797  15.849  36.365   6.887
 5756POPC   C4A72798  15.582  36.151   7.184
 5756POPC   C1B72799  16.287  35.754   6.120
 5756POPC   C2B72800  16.545  35.764   6.504
 5756POPC   C3B72801  16.522  35.926   6.925
 5756POPC   C4B72802  16.178  36.119   7.182
 5757POPC   NC372803   2.919   2.146   5.303
 5757POPC   PO472804   2.332   1.902   5.501
 5757POPC   GL172805   2.734   1.857   5.694
 5757POPC   GL272806   2.694   2.200   5.804
 5757POPC   C1A72807   2.936   1.866   6.108
 5757POPC   D2A72808   2.771   1.791   6.521
 5757POPC   C3A72809   2.982   1.879   6.887
 5757POPC   C4A72810   2.729   1.777   7.215
 5757POPC   C1B72811   2.556   2.167   6.254
 5757POPC   C2B72812   2.762   2.324   6.654
 5757POPC   C3B72813   2.787   2.322   7.117
 5757POPC   C4B72814   2.968   2.502   7.514
 5758POPC   NC372815  10.518  18.027   5.481
 5758POPC   PO472816  10.685  18.707   5.535
 5758POPC   GL172817  10.436  18.568   5.902
 5758POPC   GL272818  10.368  18.174   5.942
 5758POPC   C1A72819  10.577  18.485   6.312
 5758POPC   D2A72820  10.591  18.117   6.569
 5758POPC   C3A72821  10.751  18.248   6.965
 5758POPC   C4A72822  10.461  18.451   7.231
 5758POPC   C1B72823  10.194  17.884   6.255
 5758POPC   C2B72824  10.073  17.992   6.683
 5758POPC   C3B72825  10.278  18.013   7.069
 5758POPC   C4B72826  10.364  17.999   7.509
 5759POPC   NC372827  24.222  29.747   5.514
 5759POPC   PO472828  23.677  29.284   5.384
 5759POPC   GL172829  23.727  29.302   5.811
 5759POPC   GL272830  23.789  29.652   5.782
 5759POPC   C1A72831  23.539  29.232   6.201
 5759POPC   D2A72832  23.270  29.265   6.550
 5759POPC   C3A72833  23.502  29.073   6.854
 5759POPC   C4A72834  23.767  29.224   7.181
 5759POPC   C1B72835  23.873  29.645   6.212
 5759POPC   C2B72836  23.804  29.437   6.600
 5759POPC   C3B72837  24.116  29.483   6.885
 5759POPC   C4B72838  23.916  29.707   7.186
 5760POPC   NC372839  35.178  17.976   5.563
 5760POPC   PO472840  35.538  18.494   5.250
 5760POPC   GL172841  35.467  18.392   5.670
 5760POPC   GL272842  35.643  18.098   5.735
 5760POPC   C1A72843  35.279  18.371   6.095
 5760POPC   D2A72844  35.488  18.393   6.492
 5760POPC   C3A72845  35.396  18.340   6.909
 5760POPC   C4A72846  35.261  18.251   7.322
 5760POPC   C1B72847  35.642  17.982   6.177
 5760POPC   C2B72848  35.592  17.868   6.633
 5760POPC   C3B72849  35.555  17.896   7.102
 5760POPC   C4B72850  35.548  17.924   7.575
 5761POPC   NC372851  44.483   2.168   5.404
 5761POPC   PO472852  44.926   1.618   5.550
 5761POPC   GL172853  44.548   1.659   5.758
 5761POPC   GL272854  44.617   1.986   5.872
 5761POPC   C1A72855  44.285   1.682   6.160
 5761POPC   D2A72856  44.176   1.607   6.608
 5761POPC   C3A72857  44.284   1.964   6.941
 5761POPC   C4A72858  44.398   1.893   7.421
 5761POPC   C1B72859  44.800   1.726   6.216
 5761POPC   C2B72860  44.654   1.725   6.643
 5761POPC   C3B72861  44.772   1.799   7.079
 5761POPC   C4B72862  44.932   1.907   7.498
 5762POPC   NC372863  42.542  19.306   5.524
 5762POPC   PO472864  41.891  19.152   5.383
 5762POPC   GL172865  42.031  18.912   5.756
 5762POPC   GL272866  42.416  18.871   5.803
 5762POPC   C1A72867  42.100  18.896   6.201
 5762POPC   D2A72868  42.267  19.001   6.590
 5762POPC   C3A72869  42.022  18.986   6.951
 5762POPC   C4A72870  42.156  19.051   7.382
 5762POPC   C1B72871  42.637  19.000   6.201
 5762POPC   C2B72872  42.768  18.953   6.657
 5762POPC   C3B72873  42.621  19.042   7.098
 5762POPC   C4B72874  42.686  19.427   7.396
 5763POPC   NC372875  20.151  24.667   5.469
 5763POPC   PO472876  19.657  24.162   5.489
 5763POPC   GL172877  19.841  24.378   5.818
 5763POPC   GL272878  20.184  24.308   5.833
 5763POPC   C1A72879  19.722  24.447   6.254
 5763POPC   D2A72880  19.494  24.657   6.583
 5763POPC   C3A72881  19.654  24.653   6.977
 5763POPC   C4A72882  19.536  24.553   7.357
 5763POPC   C1B72883  20.175  24.174   6.253
 5763POPC   C2B72884  20.348  24.340   6.635
 5763POPC   C3B72885  20.296  24.202   7.046
 5763POPC   C4B72886  19.984  24.334   7.297
 5764POPC   NC372887  12.013  19.137   5.545
 5764POPC   PO472888  12.306  19.684   5.185
 5764POPC   GL172889  12.174  19.660   5.646
 5764POPC   GL272890  12.385  19.493   5.843
 5764POPC   C1A72891  12.094  19.878   6.073
 5764POPC   D2A72892  12.129  19.865   6.521
 5764POPC   C3A72893  11.881  19.880   6.870
 5764POPC   C4A72894  11.954  19.882   7.304
 5764POPC   C1B72895  12.194  19.402   6.238
 5764POPC   C2B72896  12.409  19.457   6.629
 5764POPC   C3B72897  12.428  19.602   7.040
 5764POPC   C4B72898  12.271  19.485   7.409
 5765POPC   NC372899  10.062  29.704   5.576
 5765POPC   PO472900   9.340  29.663   5.460
 5765POPC   GL172901   9.584  29.799   5.811
 5765POPC   GL272902   9.781  30.092   5.706
 5765POPC   C1A72903   9.782  29.871   6.220
 5765POPC   D2A72904   9.530  29.908   6.584
 5765POPC   C3A72905   9.632  29.861   7.014
 5765POPC   C4A72906   9.460  29.916   7.420
 5765POPC   C1B72907   9.960  30.366   6.029
 5765POPC   C2B72908   9.903  30.326   6.468
 5765POPC   C3B72909   9.898  30.289   6.904
 5765POPC   C4B72910   9.850  30.255   7.336
 5766POPC   NC372911   8.152  41.298   5.332
 5766POPC   PO472912   8.281  41.870   5.280
 5766POPC   GL172913   8.098  41.673   5.683
 5766POPC   GL272914   8.368  41.441   5.767
 5766POPC   C1A72915   7.999  41.568   6.163
 5766POPC   D2A72916   7.840  41.433   6.603
 5766POPC   C3A72917   8.079  41.548   6.994
 5766POPC   C4A72918   8.259  41.455   7.391
 5766POPC   C1B72919   8.491  41.419   6.192
 5766POPC   C2B72920   8.344  41.367   6.597
 5766POPC   C3B72921   8.492  41.240   6.991
 5766POPC   C4B72922   8.772  41.458   7.265
 5767POPC   NC372923   5.618  20.292   5.671
 5767POPC   PO472924   5.121  20.601   5.309
 5767POPC   GL172925   5.188  20.642   5.750
 5767POPC   GL272926   5.517  20.788   5.825
 5767POPC   C1A72927   4.925  20.695   6.129
 5767POPC   D2A72928   4.855  20.500   6.544
 5767POPC   C3A72929   5.013  20.584   6.988
 5767POPC   C4A72930   4.765  20.385   7.323
 5767POPC   C1B72931   5.409  20.601   6.239
 5767POPC   C2B72932   5.370  20.422   6.638
 5767POPC   C3B72933   5.547  20.430   7.031
 5767POPC   C4B72934   5.547  20.792   7.301
 5768POPC   NC372935  31.684  26.870   5.412
 5768POPC   PO472936  31.052  26.669   5.472
 5768POPC   GL172937  31.362  26.593   5.796
 5768POPC   GL272938  31.111  26.401   5.976
 5768POPC   C1A72939  31.625  26.825   6.135
 5768POPC   D2A72940  31.484  27.067   6.511
 5768POPC   C3A72941  31.337  26.910   6.912
 5768POPC   C4A72942  31.458  26.936   7.351
 5768POPC   C1B72943  31.485  26.347   6.234
 5768POPC   C2B72944  31.629  26.534   6.606
 5768POPC   C3B72945  31.501  26.439   7.027
 5768POPC   C4B72946  31.774  26.503   7.366
 5769POPC   NC372947  21.034   0.019   5.305
 5769POPC   PO472948  21.433  44.470   5.201
 5769POPC   GL172949  21.511  44.433   5.689
 5769POPC   GL272950  21.218  44.311   5.891
 5769POPC   C1A72951  21.476  44.661   6.128
 5769POPC   D2A72952  21.150  44.625   6.470
 5769POPC   C3A72953  21.305  44.802   6.850
 5769POPC   C4A72954  21.358  44.692   7.235
 5769POPC   C1B72955  21.052  44.152   6.218
 5769POPC   C2B72956  21.135  44.095   6.599
 5769POPC   C3B72957  21.084  44.325   6.934
 5769POPC   C4B72958  21.151  44.237   7.354
 5770POPC   NC372959  24.315  35.972   5.353
 5770POPC   PO472960  24.743  36.531   5.562
 5770POPC   GL172961  24.552  36.146   5.797
 5770POPC   GL272962  24.215  35.926   5.850
 5770POPC   C1A72963  24.467  36.131   6.228
 5770POPC   D2A72964  24.296  36.032   6.617
 5770POPC   C3A72965  24.363  36.341   6.931
 5770POPC   C4A72966  24.480  36.221   7.316
 5770POPC   C1B72967  24.299  35.633   6.226
 5770POPC   C2B72968  24.278  35.521   6.693
 5770POPC   C3B72969  24.247  35.782   7.075
 5770POPC   C4B72970  24.250  35.809   7.520
 5771POPC   NC372971   3.683  35.859   5.583
 5771POPC   PO472972   3.293  36.250   5.167
 5771POPC   GL172973   3.217  36.341   5.678
 5771POPC   GL272974   3.325  36.079   5.870
 5771POPC   C1A72975   3.473  36.470   6.147
 5771POPC   D2A72976   3.811  36.389   6.494
 5771POPC   C3A72977   3.652  36.456   6.943
 5771POPC   C4A72978   3.357  36.475   7.308
 5771POPC   C1B72979   3.517  35.991   6.297
 5771POPC   C2B72980   3.548  35.998   6.734
 5771POPC   C3B72981   3.475  35.998   7.172
 5771POPC   C4B72982   3.692  35.861   7.543
 5772POPC   NC372983  31.486  29.465   5.526
 5772POPC   PO472984  31.380  30.056   5.279
 5772POPC   GL172985  31.434  29.947   5.718
 5772POPC   GL272986  31.791  30.053   5.703
 5772POPC   C1A72987  31.255  29.691   6.111
 5772POPC   D2A72988  31.060  29.759   6.551
 5772POPC   C3A72989  31.335  29.872   6.926
 5772POPC   C4A72990  31.476  29.590   7.288
 5772POPC   C1B72991  31.711  30.273   6.114
 5772POPC   C2B72992  31.555  30.312   6.546
 5772POPC   C3B72993  31.711  30.262   6.958
 5772POPC   C4B72994  31.870  29.894   7.138
 5773POPC   NC372995   8.036  23.822   5.328
 5773POPC   PO472996   8.374  23.208   5.387
 5773POPC   GL172997   8.181  23.517   5.744
 5773POPC   GL272998   8.185  23.892   5.804
 5773POPC   C1A72999   8.108  23.594   6.220
 5773POPC   D2A73000   7.898  23.322   6.535
 5773POPC   C3A73001   8.056  23.376   6.957
 5773POPC   C4A73002   8.238  23.712   7.180
 5773POPC   C1B73003   7.788  23.991   6.019
 5773POPC   C2B73004   7.768  23.894   6.465
 5773POPC   C3B73005   7.824  24.029   6.886
 5773POPC   C4B73006   7.768  23.840   7.303
 5774POPC   NC373007   8.492  22.778   5.554
 5774POPC   PO473008   9.013  23.059   5.180
 5774POPC   GL173009   9.007  22.797   5.610
 5774POPC   GL273010   8.807  22.938   5.913
 5774POPC   C1A73011   9.149  22.587   6.019
 5774POPC   D2A73012   9.125  22.451   6.465
 5774POPC   C3A73013   8.959  22.638   6.847
 5774POPC   C4A73014   9.183  22.787   7.213
 5774POPC   C1B73015   8.797  22.858   6.377
 5774POPC   C2B73016   8.971  23.148   6.717
 5774POPC   C3B73017   8.977  23.249   7.173
 5774POPC   C4B73018   8.921  23.368   7.623
 5775POPC   NC373019  11.084  35.066   5.289
 5775POPC   PO473020  11.513  35.499   5.329
 5775POPC   GL173021  11.355  35.259   5.721
 5775POPC   GL273022  11.584  34.998   5.838
 5775POPC   C1A73023  11.185  35.200   6.174
 5775POPC   D2A73024  10.978  35.309   6.603
 5775POPC   C3A73025  11.208  35.246   6.996
 5775POPC   C4A73026  11.486  35.459   7.209
 5775POPC   C1B73027  11.677  35.044   6.270
 5775POPC   C2B73028  11.569  35.267   6.636
 5775POPC   C3B73029  11.683  35.038   6.990
 5775POPC   C4B73030  11.589  35.007   7.429
 5776POPC   NC373031  35.178  17.147   5.561
 5776POPC   PO473032  35.632  16.674   5.494
 5776POPC   GL173033  35.500  16.878   5.849
 5776POPC   GL273034  35.175  16.717   5.876
 5776POPC   C1A73035  35.323  17.059   6.231
 5776POPC   D2A73036  35.357  16.847   6.624
 5776POPC   C3A73037  35.392  17.080   6.980
 5776POPC   C4A73038  35.414  17.004   7.391
 5776POPC   C1B73039  35.485  16.538   6.214
 5776POPC   C2B73040  35.769  16.475   6.561
 5776POPC   C3B73041  35.684  16.529   6.996
 5776POPC   C4B73042  35.344  16.545   7.189
 5777POPC   NC373043  33.905  37.200   5.563
 5777POPC   PO473044  33.553  36.669   5.386
 5777POPC   GL173045  33.456  36.719   5.801
 5777POPC   GL273046  33.823  36.783   5.848
 5777POPC   C1A73047  33.495  36.711   6.255
 5777POPC   D2A73048  33.481  37.118   6.519
 5777POPC   C3A73049  33.540  37.197   6.976
 5777POPC   C4A73050  33.591  36.967   7.380
 5777POPC   C1B73051  33.904  36.991   6.247
 5777POPC   C2B73052  33.850  36.741   6.621
 5777POPC   C3B73053  33.910  36.836   7.017
 5777POPC   C4B73054  33.982  37.241   7.227
 5778POPC   NC373055  19.576  38.025   5.119
 5778POPC   PO473056  19.151  37.572   5.284
 5778POPC   GL173057  19.078  37.646   5.755
 5778POPC   GL273058  18.771  37.654   5.872
 5778POPC   C1A73059  19.150  37.893   6.157
 5778POPC   D2A73060  19.095  37.792   6.601
 5778POPC   C3A73061  19.282  37.939   6.968
 5778POPC   C4A73062  19.224  37.878   7.394
 5778POPC   C1B73063  18.982  37.401   6.211
 5778POPC   C2B73064  18.830  37.350   6.631
 5778POPC   C3B73065  18.941  37.492   7.042
 5778POPC   C4B73066  18.811  37.489   7.470
 5779POPC   NC373067  42.603   4.365   5.279
 5779POPC   PO473068  43.188   4.093   5.293
 5779POPC   GL173069  43.046   4.224   5.729
 5779POPC   GL273070  43.027   4.591   5.777
 5779POPC   C1A73071  42.883   4.080   6.160
 5779POPC   D2A73072  43.042   4.178   6.621
 5779POPC   C3A73073  43.098   4.083   7.072
 5779POPC   C4A73074  43.255   4.191   7.528
 5779POPC   C1B73075  43.148   4.498   6.227
 5779POPC   C2B73076  43.252   4.661   6.653
 5779POPC   C3B73077  43.329   4.552   7.098
 5779POPC   C4B73078  43.369   4.698   7.543
 5780POPC   NC373079  43.790  13.418   5.403
 5780POPC   PO473080  44.442  13.556   5.471
 5780POPC   GL173081  44.265  13.578   5.862
 5780POPC   GL273082  44.134  13.916   5.913
 5780POPC   C1A73083  43.948  13.480   6.169
 5780POPC   D2A73084  44.042  13.405   6.590
 5780POPC   C3A73085  43.710  13.493   6.856
 5780POPC   C4A73086  43.847  13.401   7.269
 5780POPC   C1B73087  44.272  13.831   6.347
 5780POPC   C2B73088  44.020  13.891   6.725
 5780POPC   C3B73089  43.828  13.887   7.147
 5780POPC   C4B73090  43.805  14.088   7.521
 5781POPC   NC373091  21.442  13.004   5.529
 5781POPC   PO473092  20.904  12.618   5.587
 5781POPC   GL173093  21.059  12.877   5.910
 5781POPC   GL273094  20.848  13.184   5.959
 5781POPC   C1A73095  21.396  12.774   6.228
 5781POPC   D2A73096  21.750  12.691   6.541
 5781POPC   C3A73097  21.538  12.639   6.954
 5781POPC   C4A73098  21.098  12.474   7.012
 5781POPC   C1B73099  21.232  13.272   6.200
 5781POPC   C2B73100  21.469  13.149   6.582
 5781POPC   C3B73101  21.571  13.307   6.988
 5781POPC   C4B73102  21.337  13.304   7.375
 5782POPC   NC373103  23.258   0.533   5.648
 5782POPC   PO473104  22.738   0.815   5.449
 5782POPC   GL173105  22.703   0.682   5.880
 5782POPC   GL273106  22.866   0.342   5.963
 5782POPC   C1A73107  22.837   0.741   6.294
 5782POPC   D2A73108  22.986   0.534   6.654
 5782POPC   C3A73109  22.642   0.434   6.923
 5782POPC   C4A73110  22.731   0.413   7.382
 5782POPC   C1B73111  23.236   0.259   6.259
 5782POPC   C2B73112  23.264   0.033   6.650
 5782POPC   C3B73113  23.106   0.196   7.039
 5782POPC   C4B73114  23.229   0.147   7.455
 5783POPC   NC373115  14.106  32.223   5.341
 5783POPC   PO473116  14.703  32.473   5.457
 5783POPC   GL173117  14.336  32.409   5.771
 5783POPC   GL273118  14.250  32.023   5.805
 5783POPC   C1A73119  14.380  32.307   6.230
 5783POPC   D2A73120  14.665  32.459   6.580
 5783POPC   C3A73121  14.634  32.269   6.974
 5783POPC   C4A73122  14.296  32.265   7.223
 5783POPC   C1B73123  14.344  31.812   6.220
 5783POPC   C2B73124  14.248  31.985   6.655
 5783POPC   C3B73125  14.202  31.795   7.073
 5783POPC   C4B73126  13.947  31.877   7.464
 5784POPC   NC373127  10.291  40.304   5.615
 5784POPC   PO473128  10.765  39.850   5.442
 5784POPC   GL173129  10.613  39.954   5.860
 5784POPC   GL273130  10.858  39.714   5.985
 5784POPC   C1A73131  10.399  40.197   6.262
 5784POPC   D2A73132  10.458  40.405   6.715
 5784POPC   C3A73133  10.484  40.116   7.082
 5784POPC   C4A73134  10.281  39.723   7.204
 5784POPC   C1B73135  10.527  39.679   6.278
 5784POPC   C2B73136  10.582  39.885   6.644
 5784POPC   C3B73137  10.786  39.719   6.979
 5784POPC   C4B73138  10.700  39.418   7.236
 5785POPC   NC373139  19.986  32.592   5.108
 5785POPC   PO473140  19.655  33.075   5.474
 5785POPC   GL173141  19.811  33.047   5.881
 5785POPC   GL273142  20.023  32.817   6.002
 5785POPC   C1A73143  19.774  33.204   6.296
 5785POPC   D2A73144  20.078  33.120   6.618
 5785POPC   C3A73145  19.880  32.924   6.986
 5785POPC   C4A73146  19.489  32.810   7.216
 5785POPC   C1B73147  20.292  32.690   6.361
 5785POPC   C2B73148  20.178  32.549   6.797
 5785POPC   C3B73149  19.944  32.479   7.209
 5785POPC   C4B73150  20.040  32.528   7.652
 5786POPC   NC373151  26.266   4.423   5.494
 5786POPC   PO473152  25.666   4.635   5.191
 5786POPC   GL173153  25.754   4.364   5.682
 5786POPC   GL273154  26.063   4.464   5.941
 5786POPC   C1A73155  25.790   4.089   6.106
 5786POPC   D2A73156  26.127   4.097   6.481
 5786POPC   C3A73157  26.063   4.184   6.956
 5786POPC   C4A73158  26.213   4.284   7.385
 5786POPC   C1B73159  25.830   4.578   6.261
 5786POPC   C2B73160  25.988   4.568   6.642
 5786POPC   C3B73161  25.862   4.643   7.062
 5786POPC   C4B73162  25.774   4.520   7.474
 5787POPC   NC373163   0.837  37.633   5.599
 5787POPC   PO473164   1.402  37.401   5.349
 5787POPC   GL173165   1.292  37.449   5.832
 5787POPC   GL273166   0.968  37.558   6.069
 5787POPC   C1A73167   1.436  37.499   6.270
 5787POPC   D2A73168   1.259  37.575   6.681
 5787POPC   C3A73169   1.533  37.509   7.050
 5787POPC   C4A73170   1.397  37.607   7.478
 5787POPC   C1B73171   1.080  37.929   6.313
 5787POPC   C2B73172   1.052  38.088   6.700
 5787POPC   C3B73173   1.235  37.945   7.059
 5787POPC   C4B73174   1.159  38.047   7.452
 5788POPC   NC373175  35.734  18.005   5.210
 5788POPC   PO473176  35.333  17.564   5.470
 5788POPC   GL173177  35.496  17.579   5.826
 5788POPC   GL273178  35.723  17.325   5.745
 5788POPC   C1A73179  35.318  17.602   6.233
 5788POPC   D2A73180  35.054  17.774   6.562
 5788POPC   C3A73181  35.245  17.567   6.891
 5788POPC   C4A73182  35.157  17.444   7.287
 5788POPC   C1B73183  35.829  17.433   6.177
 5788POPC   C2B73184  35.621  17.355   6.555
 5788POPC   C3B73185  35.779  17.449   6.929
 5788POPC   C4B73186  35.665  17.458   7.325
 5789POPC   NC373187  22.364   6.247   5.644
 5789POPC   PO473188  21.859   6.634   5.272
 5789POPC   GL173189  21.880   6.551   5.748
 5789POPC   GL273190  21.945   6.858   5.951
 5789POPC   C1A73191  22.037   6.413   6.201
 5789POPC   D2A73192  22.344   6.464   6.551
 5789POPC   C3A73193  22.189   6.443   6.988
 5789POPC   C4A73194  22.341   6.551   7.421
 5789POPC   C1B73195  22.185   6.907   6.295
 5789POPC   C2B73196  22.116   6.903   6.708
 5789POPC   C3B73197  22.004   6.942   7.119
 5789POPC   C4B73198  22.258   7.157   7.435
 5790POPC   NC373199  23.155  23.771   5.135
 5790POPC   PO473200  22.663  23.499   5.388
 5790POPC   GL173201  22.801  23.737   5.766
 5790POPC   GL273202  23.141  23.883   5.705
 5790POPC   C1A73203  22.597  23.769   6.180
 5790POPC   D2A73204  22.435  23.568   6.578
 5790POPC   C3A73205  22.596  23.761   6.946
 5790POPC   C4A73206  22.587  23.939   7.376
 5790POPC   C1B73207  23.142  23.632   6.130
 5790POPC   C2B73208  22.955  23.645   6.563
 5790POPC   C3B73209  23.076  23.605   6.998
 5790POPC   C4B73210  23.083  23.887   7.331
 5791POPC   NC373211  38.650   6.950   5.563
 5791POPC   PO473212  38.090   6.477   5.467
 5791POPC   GL173213  38.362   6.610   5.843
 5791POPC   GL273214  38.231   6.969   5.878
 5791POPC   C1A73215  38.661   6.565   6.231
 5791POPC   D2A73216  38.533   6.465   6.664
 5791POPC   C3A73217  38.792   6.403   7.051
 5791POPC   C4A73218  38.617   6.375   7.464
 5791POPC   C1B73219  38.254   6.872   6.304
 5791POPC   C2B73220  38.190   6.826   6.747
 5791POPC   C3B73221  38.375   6.762   7.148
 5791POPC   C4B73222  38.090   7.046   7.425
 5792POPC   NC373223  10.585  16.191   5.612
 5792POPC   PO473224  10.223  15.601   5.453
 5792POPC   GL173225  10.252  15.818   5.816
 5792POPC   GL273226  10.599  15.754   5.871
 5792POPC   C1A73227  10.208  16.038   6.223
 5792POPC   D2A73228  10.326  16.297   6.600
 5792POPC   C3A73229  10.531  16.124   6.958
 5792POPC   C4A73230  10.267  15.986   7.300
 5792POPC   C1B73231  10.505  15.524   6.201
 5792POPC   C2B73232  10.433  15.734   6.571
 5792POPC   C3B73233  10.383  15.638   6.966
 5792POPC   C4B73234  10.681  15.705   7.318
 5793POPC   NC373235  18.428  12.548   5.122
 5793POPC   PO473236  18.008  12.918   5.497
 5793POPC   GL173237  18.159  12.845   5.884
 5793POPC   GL273238  17.834  12.847   5.997
 5793POPC   C1A73239  18.510  12.868   6.197
 5793POPC   D2A73240  18.619  12.559   6.531
 5793POPC   C3A73241  18.414  12.595   6.933
 5793POPC   C4A73242  18.451  12.674   7.355
 5793POPC   C1B73243  17.997  13.082   6.324
 5793POPC   C2B73244  18.102  12.952   6.732
 5793POPC   C3B73245  18.238  13.092   7.146
 5793POPC   C4B73246  18.127  13.243   7.572
 5794POPC   NC373247  29.259  20.750   5.139
 5794POPC   PO473248  29.914  20.740   5.432
 5794POPC   GL173249  30.098  20.498   5.787
 5794POPC   GL273250  29.804  20.643   5.935
 5794POPC   C1A73251  30.072  20.325   6.215
 5794POPC   D2A73252  29.806  20.477   6.534
 5794POPC   C3A73253  29.973  20.312   6.892
 5794POPC   C4A73254  29.963  20.436   7.296
 5794POPC   C1B73255  29.726  20.969   6.243
 5794POPC   C2B73256  29.499  20.886   6.643
 5794POPC   C3B73257  29.701  20.763   7.003
 5794POPC   C4B73258  29.803  20.915   7.394
 5795POPC   NC373259  20.556  28.678   5.373
 5795POPC   PO473260  21.034  28.354   5.280
 5795POPC   GL173261  20.746  28.397   5.730
 5795POPC   GL273262  20.633  28.089   5.932
 5795POPC   C1A73263  20.623  28.553   6.158
 5795POPC   D2A73264  20.517  28.381   6.597
 5795POPC   C3A73265  20.534  28.612   6.983
 5795POPC   C4A73266  20.383  28.663   7.404
 5795POPC   C1B73267  20.899  28.173   6.324
 5795POPC   C2B73268  21.142  28.390   6.584
 5795POPC   C3B73269  20.971  28.349   6.962
 5795POPC   C4B73270  21.006  28.557   7.332
 5796POPC   NC373271  19.754  29.210   5.375
 5796POPC   PO473272  19.846  29.748   5.586
 5796POPC   GL173273  19.994  29.324   5.832
 5796POPC   GL273274  19.897  28.949   5.812
 5796POPC   C1A73275  19.883  29.169   6.272
 5796POPC   D2A73276  19.641  29.363   6.603
 5796POPC   C3A73277  19.506  29.167   6.987
 5796POPC   C4A73278  19.892  29.014   7.211
 5796POPC   C1B73279  19.646  28.730   6.129
 5796POPC   C2B73280  19.567  28.831   6.561
 5796POPC   C3B73281  19.602  28.667   6.971
 5796POPC   C4B73282  19.474  28.765   7.399
 5797POPC   NC373283  34.747  28.500   5.145
 5797POPC   PO473284  34.162  28.626   5.410
 5797POPC   GL173285  34.447  28.402   5.766
 5797POPC   GL273286  34.474  28.057   5.854
 5797POPC   C1A73287  34.674  28.390   6.184
 5797POPC   D2A73288  34.587  28.146   6.532
 5797POPC   C3A73289  34.617  28.345   6.941
 5797POPC   C4A73290  34.858  28.302   7.306
 5797POPC   C1B73291  34.200  27.966   6.190
 5797POPC   C2B73292  34.100  28.004   6.622
 5797POPC   C3B73293  34.381  27.890   6.938
 5797POPC   C4B73294  34.417  28.000   7.353
 5798POPC   NC373295  39.195  22.449   5.315
 5798POPC   PO473296  39.268  23.079   5.269
 5798POPC   GL173297  39.301  22.867   5.634
 5798POPC   GL273298  39.553  23.061   5.770
 5798POPC   C1A73299  39.214  22.754   6.066
 5798POPC   D2A73300  39.029  22.755   6.472
 5798POPC   C3A73301  39.287  22.777   6.847
 5798POPC   C4A73302  39.074  22.765   7.221
 5798POPC   C1B73303  39.424  23.211   6.178
 5798POPC   C2B73304  39.228  23.213   6.564
 5798POPC   C3B73305  39.411  23.274   6.986
 5798POPC   C4B73306  39.225  23.237   7.382
 5799POPC   NC373307  43.443  44.834   5.410
 5799POPC   PO473308  42.778  44.773   5.389
 5799POPC   GL173309  43.040  44.635   5.716
 5799POPC   GL273310  42.821  44.352   5.783
 5799POPC   C1A73311  43.264  44.786   6.087
 5799POPC   D2A73312  43.101  44.844   6.491
 5799POPC   C3A73313  43.180  44.658   6.878
 5799POPC   C4A73314  43.149  44.832   7.283
 5799POPC   C1B73315  42.786  44.313   6.245
 5799POPC   C2B73316  42.746  44.491   6.657
 5799POPC   C3B73317  42.783  44.426   7.109
 5799POPC   C4B73318  42.832  44.552   7.558
 5800POPC   NC373319  13.430  39.244   5.350
 5800POPC   PO473320  14.072  38.948   5.386
 5800POPC   GL173321  13.848  39.015   5.797
 5800POPC   GL273322  13.513  39.196   5.845
 5800POPC   C1A73323  13.674  38.917   6.233
 5800POPC   D2A73324  13.440  39.186   6.556
 5800POPC   C3A73325  13.506  39.095   7.004
 5800POPC   C4A73326  13.782  38.795   7.261
 5800POPC   C1B73327  13.754  39.445   6.109
 5800POPC   C2B73328  13.798  39.719   6.439
 5800POPC   C3B73329  13.680  39.592   6.830
 5800POPC   C4B73330  13.451  39.592   7.151
 5801POPC   NC373331   4.851   8.897   5.524
 5801POPC   PO473332   5.587   8.824   5.445
 5801POPC   GL173333   5.360   8.913   5.820
 5801POPC   GL273334   5.165   8.609   5.836
 5801POPC   C1A73335   5.181   9.195   6.159
 5801POPC   D2A73336   4.853   9.197   6.492
 5801POPC   C3A73337   4.981   9.190   6.932
 5801POPC   C4A73338   5.094   9.191   7.380
 5801POPC   C1B73339   4.945   8.739   6.248
 5801POPC   C2B73340   4.796   8.732   6.713
 5801POPC   C3B73341   4.950   8.696   7.160
 5801POPC   C4B73342   4.981   8.709   7.618
 5802POPC   NC373343   8.065  39.694   5.448
 5802POPC   PO473344   8.465  40.233   5.498
 5802POPC   GL173345   8.240  40.196   5.889
 5802POPC   GL273346   8.106  39.848   5.929
 5802POPC   C1A73347   8.065  40.187   6.308
 5802POPC   D2A73348   8.177  39.941   6.662
 5802POPC   C3A73349   8.120  40.107   7.075
 5802POPC   C4A73350   8.020  39.777   7.372
 5802POPC   C1B73351   8.444  39.765   6.230
 5802POPC   C2B73352   8.527  39.545   6.624
 5802POPC   C3B73353   8.405  39.643   7.034
 5802POPC   C4B73354   8.543  39.941   7.323
 5803POPC   NC373355  27.015  21.913   5.390
 5803POPC   PO473356  26.632  22.438   5.439
 5803POPC   GL173357  26.904  22.269   5.784
 5803POPC   GL273358  26.806  21.993   5.980
 5803POPC   C1A73359  27.121  22.322   6.195
 5803POPC   D2A73360  27.294  22.262   6.592
 5803POPC   C3A73361  27.005  22.155   6.923
 5803POPC   C4A73362  27.191  22.269   7.317
 5803POPC   C1B73363  26.805  22.021   6.459
 5803POPC   C2B73364  26.506  22.248   6.751
 5803POPC   C3B73365  26.547  22.212   7.188
 5803POPC   C4B73366  26.672  21.827   7.394
 5804POPC   NC373367  44.943  41.603   5.522
 5804POPC   PO473368   0.529  41.404   5.416
 5804POPC   GL173369   0.493  41.573   5.854
 5804POPC   GL273370   0.742  41.850   5.951
 5804POPC   C1A73371   0.328  41.711   6.263
 5804POPC   D2A73372   0.491  41.719   6.688
 5804POPC   C3A73373   0.234  41.507   7.018
 5804POPC   C4A73374   0.253  41.059   7.112
 5804POPC   C1B73375   0.823  41.549   6.299
 5804POPC   C2B73376   0.963  41.391   6.694
 5804POPC   C3B73377   0.759  41.458   7.062
 5804POPC   C4B73378   0.660  41.876   7.148
 5805POPC   NC373379  11.321  34.048   5.406
 5805POPC   PO473380  11.382  33.348   5.328
 5805POPC   GL173381  11.420  33.616   5.751
 5805POPC   GL273382  11.077  33.775   5.829
 5805POPC   C1A73383  11.366  33.681   6.241
 5805POPC   D2A73384  11.193  33.854   6.668
 5805POPC   C3A73385  11.365  33.764   7.095
 5805POPC   C4A73386  11.655  33.470   7.304
 5805POPC   C1B73387  10.931  33.995   6.235
 5805POPC   C2B73388  11.011  34.330   6.587
 5805POPC   C3B73389  11.164  34.243   7.031
 5805POPC   C4B73390  11.106  34.173   7.483
 5806POPC   NC373391  13.188  33.572   5.404
 5806POPC   PO473392  12.608  33.977   5.316
 5806POPC   GL173393  12.804  33.899   5.708
 5806POPC   GL273394  12.681  33.556   5.728
 5806POPC   C1A73395  12.749  34.072   6.160
 5806POPC   D2A73396  13.021  34.111   6.551
 5806POPC   C3A73397  12.818  34.000   6.951
 5806POPC   C4A73398  12.427  33.848   7.146
 5806POPC   C1B73399  12.903  33.593   6.136
 5806POPC   C2B73400  12.729  33.647   6.569
 5806POPC   C3B73401  12.753  33.480   7.005
 5806POPC   C4B73402  13.141  33.596   7.207
 5807POPC   NC373403  36.457   1.807   5.482
 5807POPC   PO473404  35.883   2.157   5.529
 5807POPC   GL173405  35.947   1.929   5.900
 5807POPC   GL273406  36.249   1.741   5.921
 5807POPC   C1A73407  36.006   2.032   6.332
 5807POPC   D2A73408  36.142   1.845   6.691
 5807POPC   C3A73409  36.188   2.029   7.091
 5807POPC   C4A73410  36.139   1.775   7.472
 5807POPC   C1B73411  36.396   1.639   6.288
 5807POPC   C2B73412  36.586   1.969   6.482
 5807POPC   C3B73413  36.669   1.996   6.878
 5807POPC   C4B73414  36.648   1.898   7.297
 5808POPC   NC373415  22.056  17.744   5.545
 5808POPC   PO473416  22.443  17.139   5.549
 5808POPC   GL173417  22.303  17.475   5.898
 5808POPC   GL273418  22.420  17.853   5.870
 5808POPC   C1A73419  21.985  17.652   6.218
 5808POPC   D2A73420  21.751  17.610   6.628
 5808POPC   C3A73421  22.011  17.676   7.026
 5808POPC   C4A73422  22.088  17.495   7.467
 5808POPC   C1B73423  22.448  17.844   6.296
 5808POPC   C2B73424  22.383  17.745   6.678
 5808POPC   C3B73425  22.480  17.997   7.005
 5808POPC   C4B73426  22.247  18.034   7.363
 5809POPC   NC373427  34.813  36.939   5.523
 5809POPC   PO473428  34.316  37.186   5.775
 5809POPC   GL173429  34.344  36.844   5.992
 5809POPC   GL273430  34.643  36.715   5.959
 5809POPC   C1A73431  34.351  36.836   6.415
 5809POPC   D2A73432  34.189  37.137   6.715
 5809POPC   C3A73433  34.397  36.998   7.075
 5809POPC   C4A73434  34.831  37.027   7.188
 5809POPC   C1B73435  34.843  36.982   6.261
 5809POPC   C2B73436  34.724  37.038   6.674
 5809POPC   C3B73437  34.694  36.647   6.847
 5809POPC   C4B73438  34.948  36.491   7.161
 5810POPC   NC373439  32.123  29.199   5.285
 5810POPC   PO473440  32.649  28.841   5.411
 5810POPC   GL173441  32.398  29.008   5.743
 5810POPC   GL273442  32.031  28.918   5.716
 5810POPC   C1A73443  32.486  29.192   6.158
 5810POPC   D2A73444  32.305  29.099   6.546
 5810POPC   C3A73445  32.476  29.186   6.922
 5810POPC   C4A73446  32.575  28.906   7.276
 5810POPC   C1B73447  31.982  29.241   6.051
 5810POPC   C2B73448  31.918  29.423   6.485
 5810POPC   C3B73449  31.837  29.389   6.947
 5810POPC   C4B73450  32.082  29.176   7.233
 5811POPC   NC373451  27.298  12.410   5.553
 5811POPC   PO473452  27.785  11.967   5.459
 5811POPC   GL173453  27.622  12.020   5.892
 5811POPC   GL273454  27.276  12.058   5.929
 5811POPC   C1A73455  27.525  11.909   6.339
 5811POPC   D2A73456  27.684  11.731   6.721
 5811POPC   C3A73457  27.779  11.975   7.053
 5811POPC   C4A73458  27.858  12.315   7.329
 5811POPC   C1B73459  27.297  12.362   6.228
 5811POPC   C2B73460  27.211  12.212   6.638
 5811POPC   C3B73461  27.269  11.958   7.002
 5811POPC   C4B73462  27.416  12.091   7.397
 5812POPC   NC373463  19.198   3.400   5.393
 5812POPC   PO473464  18.836   3.936   5.403
 5812POPC   GL173465  18.909   3.666   5.826
 5812POPC   GL273466  19.258   3.514   5.885
 5812POPC   C1A73467  19.046   3.704   6.307
 5812POPC   D2A73468  19.292   3.445   6.616
 5812POPC   C3A73469  19.332   3.636   7.024
 5812POPC   C4A73470  18.962   3.888   7.108
 5812POPC   C1B73471  19.028   3.218   6.180
 5812POPC   C2B73472  18.797   3.257   6.600
 5812POPC   C3B73473  18.899   3.342   7.060
 5812POPC   C4B73474  18.747   3.214   7.496
 5813POPC   NC373475   0.925  21.106   5.563
 5813POPC   PO473476   1.431  21.345   5.202
 5813POPC   GL173477   1.306  21.500   5.710
 5813POPC   GL273478   0.974  21.493   5.922
 5813POPC   C1A73479   1.432  21.419   6.180
 5813POPC   D2A73480   1.335  21.199   6.600
 5813POPC   C3A73481   1.216  21.417   6.987
 5813POPC   C4A73482   1.448  21.408   7.354
 5813POPC   C1B73483   1.007  21.101   6.208
 5813POPC   C2B73484   0.898  20.915   6.608
 5813POPC   C3B73485   1.074  20.934   7.018
 5813POPC   C4B73486   0.974  21.136   7.387
 5814POPC   NC373487  37.968  29.243   5.491
 5814POPC   PO473488  37.404  28.775   5.450
 5814POPC   GL173489  37.416  28.932   5.889
 5814POPC   GL273490  37.533  29.277   5.845
 5814POPC   C1A73491  37.582  29.100   6.317
 5814POPC   D2A73492  37.799  29.380   6.590
 5814POPC   C3A73493  37.795  29.224   7.013
 5814POPC   C4A73494  37.613  28.957   7.266
 5814POPC   C1B73495  37.461  29.643   6.180
 5814POPC   C2B73496  37.492  29.774   6.612
 5814POPC   C3B73497  37.373  29.464   6.898
 5814POPC   C4B73498  37.365  29.390   7.312
 5815POPC   NC373499  29.262   7.832   5.402
 5815POPC   PO473500  28.724   8.230   5.435
 5815POPC   GL173501  28.986   8.225   5.792
 5815POPC   GL273502  28.932   7.882   5.848
 5815POPC   C1A73503  29.057   8.407   6.221
 5815POPC   D2A73504  29.078   8.274   6.666
 5815POPC   C3A73505  29.008   8.487   7.057
 5815POPC   C4A73506  28.905   8.462   7.509
 5815POPC   C1B73507  29.116   7.893   6.257
 5815POPC   C2B73508  29.349   7.859   6.651
 5815POPC   C3B73509  29.240   7.881   7.083
 5815POPC   C4B73510  29.331   8.206   7.370
 5816POPC   NC373511  38.731   0.437   5.426
 5816POPC   PO473512  38.185   0.119   5.538
 5816POPC   GL173513  38.413   0.387   5.843
 5816POPC   GL273514  38.379   0.748   5.742
 5816POPC   C1A73515  38.400   0.496   6.294
 5816POPC   D2A73516  38.185   0.475   6.682
 5816POPC   C3A73517  38.357   0.407   7.087
 5816POPC   C4A73518  38.789   0.402   7.263
 5816POPC   C1B73519  38.502   0.960   6.134
 5816POPC   C2B73520  38.379   0.956   6.586
 5816POPC   C3B73521  38.632   0.830   6.955
 5816POPC   C4B73522  38.532   0.820   7.382
 5817POPC   NC373523  28.653  15.500   5.446
 5817POPC   PO473524  29.163  15.163   5.591
 5817POPC   GL173525  29.223  15.169   5.990
 5817POPC   GL273526  29.396  14.855   6.017
 5817POPC   C1A73527  28.980  14.998   6.343
 5817POPC   D2A73528  28.824  14.810   6.730
 5817POPC   C3A73529  28.931  15.136   7.020
 5817POPC   C4A73530  29.092  15.385   7.427
 5817POPC   C1B73531  29.472  15.020   6.410
 5817POPC   C2B73532  29.424  15.293   6.734
 5817POPC   C3B73533  29.432  15.160   7.144
 5817POPC   C4B73534  29.476  14.911   7.536
 5818POPC   NC373535   6.782  33.492   5.638
 5818POPC   PO473536   6.772  32.927   5.302
 5818POPC   GL173537   6.521  33.038   5.688
 5818POPC   GL273538   6.779  33.106   5.972
 5818POPC   C1A73539   6.327  32.928   6.109
 5818POPC   D2A73540   6.461  32.808   6.535
 5818POPC   C3A73541   6.329  33.077   6.861
 5818POPC   C4A73542   6.305  33.071   7.290
 5818POPC   C1B73543   6.609  33.286   6.387
 5818POPC   C2B73544   6.766  33.312   6.832
 5818POPC   C3B73545   6.809  33.006   7.217
 5818POPC   C4B73546   6.670  33.123   7.661
 5819POPC   NC373547   9.443  25.675   5.407
 5819POPC   PO473548   9.188  26.342   5.393
 5819POPC   GL173549   9.154  26.101   5.786
 5819POPC   GL273550   9.245  26.420   5.888
 5819POPC   C1A73551   8.908  25.855   6.135
 5819POPC   D2A73552   8.637  25.767   6.516
 5819POPC   C3A73553   8.849  25.831   6.930
 5819POPC   C4A73554   8.919  26.062   7.357
 5819POPC   C1B73555   8.950  26.364   6.208
 5819POPC   C2B73556   8.942  26.204   6.605
 5819POPC   C3B73557   9.178  26.294   6.978
 5819POPC   C4B73558   9.298  26.645   7.230
 5820POPC   NC373559  17.162  34.602   5.319
 5820POPC   PO473560  17.602  34.149   5.269
 5820POPC   GL173561  17.492  34.371   5.667
 5820POPC   GL273562  17.567  34.711   5.737
 5820POPC   C1A73563  17.513  34.419   6.144
 5820POPC   D2A73564  17.436  34.621   6.569
 5820POPC   C3A73565  17.417  34.414   6.946
 5820POPC   C4A73566  17.448  34.246   7.370
 5820POPC   C1B73567  17.896  34.750   6.113
 5820POPC   C2B73568  18.033  34.816   6.552
 5820POPC   C3B73569  17.845  34.727   6.954
 5820POPC   C4B73570  17.560  34.734   7.313
 5821POPC   NC373571  44.356  10.522   5.422
 5821POPC   PO473572  44.967  10.850   5.528
 5821POPC   GL173573  44.733  10.488   5.779
 5821POPC   GL273574  44.925  10.164   5.922
 5821POPC   C1A73575  44.493  10.365   6.146
 5821POPC   D2A73576  44.568  10.513   6.553
 5821POPC   C3A73577  44.353  10.396   6.918
 5821POPC   C4A73578  44.519  10.567   7.252
 5821POPC   C1B73579   0.011  10.495   6.230
 5821POPC   C2B73580   0.005  10.817   6.569
 5821POPC   C3B73581   0.064  10.750   7.033
 5821POPC   C4B73582  44.985  10.558   7.436
 5822POPC   NC373583  14.646  43.448   5.519
 5822POPC   PO473584  14.527  44.126   5.446
 5822POPC   GL173585  14.497  43.911   5.826
 5822POPC   GL273586  14.210  43.699   5.849
 5822POPC   C1A73587  14.392  43.987   6.241
 5822POPC   D2A73588  14.314  43.849   6.609
 5822POPC   C3A73589  14.412  44.076   6.993
 5822POPC   C4A73590  14.522  43.989   7.401
 5822POPC   C1B73591  13.987  43.622   6.249
 5822POPC   C2B73592  13.848  43.611   6.698
 5822POPC   C3B73593  14.193  43.618   7.024
 5822POPC   C4B73594  14.259  43.543   7.422
 5823POPC   NC373595  38.346   8.655   5.694
 5823POPC   PO473596  38.240   8.103   5.301
 5823POPC   GL173597  38.333   8.163   5.795
 5823POPC   GL273598  38.622   8.254   5.814
 5823POPC   C1A73599  38.198   8.292   6.229
 5823POPC   D2A73600  38.212   8.143   6.653
 5823POPC   C3A73601  38.298   8.411   7.024
 5823POPC   C4A73602  38.215   8.121   7.310
 5823POPC   C1B73603  38.703   8.445   6.216
 5823POPC   C2B73604  38.624   8.476   6.642
 5823POPC   C3B73605  38.855   8.384   6.999
 5823POPC   C4B73606  38.704   8.267   7.405
 5824POPC   NC373607   8.344  13.430   5.297
 5824POPC   PO473608   8.233  14.039   5.523
 5824POPC   GL173609   8.216  13.769   5.815
 5824POPC   GL273610   8.015  13.478   5.695
 5824POPC   C1A73611   8.430  13.762   6.208
 5824POPC   D2A73612   8.214  13.737   6.569
 5824POPC   C3A73613   8.357  13.870   6.950
 5824POPC   C4A73614   8.275  13.741   7.381
 5824POPC   C1B73615   7.937  13.492   6.159
 5824POPC   C2B73616   7.815  13.350   6.557
 5824POPC   C3B73617   7.948  13.518   6.930
 5824POPC   C4B73618   7.782  13.586   7.297
 5825POPC   NC373619  17.337  24.155   5.515
 5825POPC   PO473620  17.491  24.824   5.407
 5825POPC   GL173621  17.633  24.846   5.810
 5825POPC   GL273622  17.618  24.477   5.866
 5825POPC   C1A73623  17.519  24.861   6.230
 5825POPC   D2A73624  17.230  24.677   6.524
 5825POPC   C3A73625  17.394  24.727   6.917
 5825POPC   C4A73626  17.507  24.595   7.357
 5825POPC   C1B73627  17.708  24.263   6.275
 5825POPC   C2B73628  17.776  24.068   6.692
 5825POPC   C3B73629  17.703  24.180   7.142
 5825POPC   C4B73630  17.638  24.177   7.655
 5826POPC   NC373631  43.146  18.511   5.463
 5826POPC   PO473632  43.226  17.860   5.677
 5826POPC   GL173633  43.150  18.238   5.886
 5826POPC   GL273634  42.829  18.471   5.872
 5826POPC   C1A73635  43.297  18.393   6.265
 5826POPC   D2A73636  43.369  18.248   6.672
 5826POPC   C3A73637  43.196  18.367   7.050
 5826POPC   C4A73638  43.147  18.202   7.445
 5826POPC   C1B73639  42.805  18.214   6.242
 5826POPC   C2B73640  42.888  18.445   6.589
 5826POPC   C3B73641  42.724  18.543   6.948
 5826POPC   C4B73642  42.831  18.604   7.350
 5827POPC   NC373643  30.957  43.237   5.255
 5827POPC   PO473644  30.419  42.916   5.544
 5827POPC   GL173645  30.643  43.255   5.742
 5827POPC   GL273646  30.991  43.319   5.764
 5827POPC   C1A73647  30.512  43.408   6.156
 5827POPC   D2A73648  30.580  43.180   6.541
 5827POPC   C3A73649  30.374  43.038   6.934
 5827POPC   C4A73650  30.302  42.659   7.147
 5827POPC   C1B73651  30.922  43.049   6.128
 5827POPC   C2B73652  31.049  42.956   6.532
 5827POPC   C3B73653  30.890  42.942   6.921
 5827POPC   C4B73654  30.766  42.826   7.294
 5828POPC   NC373655  14.255  15.531   5.403
 5828POPC   PO473656  14.693  15.084   5.558
 5828POPC   GL173657  14.533  15.110   5.983
 5828POPC   GL273658  14.196  15.280   5.927
 5828POPC   C1A73659  14.409  15.231   6.406
 5828POPC   D2A73660  14.297  15.438   6.775
 5828POPC   C3A73661  14.580  15.283   7.038
 5828POPC   C4A73662  14.900  15.407   7.250
 5828POPC   C1B73663  14.072  14.901   6.182
 5828POPC   C2B73664  14.207  14.780   6.547
 5828POPC   C3B73665  14.196  14.954   6.948
 5828POPC   C4B73666  14.145  15.170   7.321
 5829POPC   NC373667  36.190   0.145   5.478
 5829POPC   PO473668  35.863   0.701   5.405
 5829POPC   GL173669  35.968   0.521   5.787
 5829POPC   GL273670  36.311   0.538   5.862
 5829POPC   C1A73671  35.977   0.368   6.216
 5829POPC   D2A73672  36.185   0.252   6.614
 5829POPC   C3A73673  35.854   0.204   6.932
 5829POPC   C4A73674  35.658   0.517   7.157
 5829POPC   C1B73675  36.468   0.552   6.273
 5829POPC   C2B73676  36.417   0.749   6.670
 5829POPC   C3B73677  36.252   0.525   7.051
 5829POPC   C4B73678  36.319   0.069   7.130
 5830POPC   NC373679   7.240  27.476   5.575
 5830POPC   PO473680   7.840  27.697   5.520
 5830POPC   GL173681   7.643  27.661   5.910
 5830POPC   GL273682   7.308  27.614   6.050
 5830POPC   C1A73683   7.648  27.291   6.199
 5830POPC   D2A73684   7.383  27.318   6.548
 5830POPC   C3A73685   7.609  27.209   6.926
 5830POPC   C4A73686   7.452  27.345   7.280
 5830POPC   C1B73687   6.950  27.519   6.289
 5830POPC   C2B73688   6.870  27.611   6.675
 5830POPC   C3B73689   7.160  27.610   6.956
 5830POPC   C4B73690   7.156  27.768   7.348
 5831POPC   NC373691   2.981  42.602   5.510
 5831POPC   PO473692   2.689  41.954   5.501
 5831POPC   GL173693   2.733  42.283   5.811
 5831POPC   GL273694   2.433  42.346   5.963
 5831POPC   C1A73695   2.845  42.540   6.195
 5831POPC   D2A73696   2.725  42.634   6.640
 5831POPC   C3A73697   2.984  42.432   6.985
 5831POPC   C4A73698   2.867  42.536   7.436
 5831POPC   C1B73699   2.655  42.054   6.259
 5831POPC   C2B73700   2.697  42.113   6.698
 5831POPC   C3B73701   2.495  42.327   7.049
 5831POPC   C4B73702   2.584  41.961   7.261
 5832POPC   NC373703  35.200  16.437   5.398
 5832POPC   PO473704  35.536  15.876   5.563
 5832POPC   GL173705  35.379  15.925   5.942
 5832POPC   GL273706  35.280  16.225   5.865
 5832POPC   C1A73707  35.509  16.033   6.357
 5832POPC   D2A73708  35.672  15.737   6.652
 5832POPC   C3A73709  35.361  15.610   6.943
 5832POPC   C4A73710  35.529  15.559   7.305
 5832POPC   C1B73711  35.026  16.328   6.222
 5832POPC   C2B73712  35.173  16.368   6.636
 5832POPC   C3B73713  35.398  16.123   6.875
 5832POPC   C4B73714  35.249  16.018   7.255
 5833POPC   NC373715  24.880  23.673   5.632
 5833POPC   PO473716  24.255  23.879   5.608
 5833POPC   GL173717  24.401  23.674   5.935
 5833POPC   GL273718  24.069  23.556   6.007
 5833POPC   C1A73719  24.707  23.609   6.285
 5833POPC   D2A73720  24.835  23.319   6.623
 5833POPC   C3A73721  24.728  23.494   7.028
 5833POPC   C4A73722  24.806  23.974   7.113
 5833POPC   C1B73723  24.183  23.707   6.393
 5833POPC   C2B73724  24.457  23.854   6.690
 5833POPC   C3B73725  24.316  23.778   7.071
 5833POPC   C4B73726  24.247  23.372   7.236
 5834POPC   NC373727   8.911   5.375   5.586
 5834POPC   PO473728   8.844   4.719   5.412
 5834POPC   GL173729   8.759   4.838   5.830
 5834POPC   GL273730   8.448   5.011   5.797
 5834POPC   C1A73731   9.011   4.878   6.213
 5834POPC   D2A73732   9.192   4.783   6.622
 5834POPC   C3A73733   8.901   4.778   6.980
 5834POPC   C4A73734   8.946   4.991   7.389
 5834POPC   C1B73735   8.634   5.217   6.178
 5834POPC   C2B73736   8.810   5.167   6.611
 5834POPC   C3B73737   8.579   5.194   7.013
 5834POPC   C4B73738   8.541   5.318   7.476
 5835POPC   NC373739  17.668  23.519   5.386
 5835POPC   PO473740  17.850  24.130   5.511
 5835POPC   GL173741  17.620  23.919   5.870
 5835POPC   GL273742  17.437  23.586   5.846
 5835POPC   C1A73743  17.513  23.779   6.302
 5835POPC   D2A73744  17.510  23.524   6.663
 5835POPC   C3A73745  17.430  23.775   6.989
 5835POPC   C4A73746  17.523  23.774   7.405
 5835POPC   C1B73747  17.142  23.420   6.179
 5835POPC   C2B73748  17.111  23.188   6.607
 5835POPC   C3B73749  17.146  23.346   7.044
 5835POPC   C4B73750  17.310  23.332   7.499
 5836POPC   NC373751  31.583   1.494   5.432
 5836POPC   PO473752  31.202   1.027   5.539
 5836POPC   GL173753  31.547   1.125   5.807
 5836POPC   GL273754  31.856   1.006   5.637
 5836POPC   C1A73755  31.712   1.298   6.191
 5836POPC   D2A73756  31.733   1.202   6.626
 5836POPC   C3A73757  31.405   1.321   6.896
 5836POPC   C4A73758  31.404   1.467   7.294
 5836POPC   C1B73759  31.841   0.779   6.060
 5836POPC   C2B73760  31.803   0.712   6.502
 5836POPC   C3B73761  31.836   0.724   6.977
 5836POPC   C4B73762  31.815   1.132   7.189
 5837POPC   NC373763   7.953  17.910   5.282
 5837POPC   PO473764   8.327  17.301   5.487
 5837POPC   GL173765   8.095  17.356   5.826
 5837POPC   GL273766   7.913  17.610   5.689
 5837POPC   C1A73767   8.227  17.413   6.237
 5837POPC   D2A73768   8.372  17.567   6.639
 5837POPC   C3A73769   8.273  17.351   6.989
 5837POPC   C4A73770   8.483  17.103   7.278
 5837POPC   C1B73771   8.116  17.856   5.999
 5837POPC   C2B73772   8.057  17.906   6.439
 5837POPC   C3B73773   7.896  17.716   6.848
 5837POPC   C4B73774   8.072  17.717   7.281
 5838POPC   NC373775  17.140   5.967   5.337
 5838POPC   PO473776  17.603   5.573   5.580
 5838POPC   GL173777  17.480   5.811   5.917
 5838POPC   GL273778  17.136   5.745   5.803
 5838POPC   C1A73779  17.701   5.952   6.302
 5838POPC   D2A73780  17.693   6.001   6.756
 5838POPC   C3A73781  17.523   5.704   7.001
 5838POPC   C4A73782  17.444   5.841   7.405
 5838POPC   C1B73783  17.003   5.952   6.155
 5838POPC   C2B73784  17.206   6.029   6.535
 5838POPC   C3B73785  17.143   6.291   6.867
 5838POPC   C4B73786  17.082   6.147   7.250
 5839POPC   NC373787  23.164  13.382   5.647
 5839POPC   PO473788  22.680  13.718   5.387
 5839POPC   GL173789  22.825  13.728   5.852
 5839POPC   GL273790  22.801  13.384   5.982
 5839POPC   C1A73791  22.854  13.731   6.326
 5839POPC   D2A73792  22.987  13.830   6.708
 5839POPC   C3A73793  22.731  13.731   7.026
 5839POPC   C4A73794  22.824  13.673   7.496
 5839POPC   C1B73795  23.090  13.215   6.316
 5839POPC   C2B73796  23.199  13.359   6.718
 5839POPC   C3B73797  23.082  13.390   7.165
 5839POPC   C4B73798  23.207  13.193   7.571
 5840POPC   NC373799  41.967   7.146   5.485
 5840POPC   PO473800  42.647   7.284   5.332
 5840POPC   GL173801  42.490   7.401   5.686
 5840POPC   GL273802  42.772   7.275   5.850
 5840POPC   C1A73803  42.237   7.413   6.049
 5840POPC   D2A73804  42.203   7.300   6.477
 5840POPC   C3A73805  42.102   7.602   6.812
 5840POPC   C4A73806  42.154   7.638   7.269
 5840POPC   C1B73807  42.708   7.435   6.270
 5840POPC   C2B73808  42.582   7.648   6.647
 5840POPC   C3B73809  42.727   7.651   7.075
 5840POPC   C4B73810  42.835   7.423   7.439
 5841POPC   NC373811  40.652  26.377   5.524
 5841POPC   PO473812  41.051  25.857   5.208
 5841POPC   GL173813  40.932  25.908   5.706
 5841POPC   GL273814  40.646  26.000   5.880
 5841POPC   C1A73815  41.043  25.998   6.190
 5841POPC   D2A73816  40.972  26.316   6.549
 5841POPC   C3A73817  40.966  26.180   6.980
 5841POPC   C4A73818  40.965  25.767   7.172
 5841POPC   C1B73819  40.540  26.231   6.269
 5841POPC   C2B73820  40.470  26.196   6.743
 5841POPC   C3B73821  40.541  26.406   7.142
 5841POPC   C4B73822  40.446  26.255   7.542
 5842POPC   NC373823  25.994  38.994   5.482
 5842POPC   PO473824  26.373  39.507   5.321
 5842POPC   GL173825  26.117  39.427   5.743
 5842POPC   GL273826  26.193  39.108   5.938
 5842POPC   C1A73827  25.976  39.516   6.203
 5842POPC   D2A73828  26.034  39.669   6.637
 5842POPC   C3A73829  26.091  39.386   6.951
 5842POPC   C4A73830  26.263  39.502   7.310
 5842POPC   C1B73831  25.902  39.021   6.262
 5842POPC   C2B73832  25.727  39.236   6.606
 5842POPC   C3B73833  25.656  39.146   7.074
 5842POPC   C4B73834  25.930  39.142   7.470
 5843POPC   NC373835  35.362  29.412   5.336
 5843POPC   PO473836  35.139  28.770   5.249
 5843POPC   GL173837  35.120  28.877   5.708
 5843POPC   GL273838  35.368  29.140   5.790
 5843POPC   C1A73839  35.076  28.982   6.192
 5843POPC   D2A73840  35.342  28.891   6.609
 5843POPC   C3A73841  35.244  29.072   7.056
 5843POPC   C4A73842  35.479  29.095   7.482
 5843POPC   C1B73843  35.481  29.295   6.240
 5843POPC   C2B73844  35.453  29.421   6.687
 5843POPC   C3B73845  35.690  29.327   7.087
 5843POPC   C4B73846  35.672  29.555   7.516
 5844POPC   NC373847  16.343  38.210   5.438
 5844POPC   PO473848  16.769  38.692   5.591
 5844POPC   GL173849  16.757  38.346   5.842
 5844POPC   GL273850  16.537  38.087   5.876
 5844POPC   C1A73851  16.830  38.359   6.260
 5844POPC   D2A73852  17.044  38.659   6.501
 5844POPC   C3A73853  16.997  38.444   6.862
 5844POPC   C4A73854  16.665  38.517   7.096
 5844POPC   C1B73855  16.360  38.147   6.257
 5844POPC   C2B73856  16.461  38.276   6.663
 5844POPC   C3B73857  16.236  38.206   7.042
 5844POPC   C4B73858  16.199  38.202   7.490
 5845POPC   NC373859  39.017  27.802   5.419
 5845POPC   PO473860  39.533  27.295   5.462
 5845POPC   GL173861  39.218  27.423   5.758
 5845POPC   GL273862  39.218  27.792   5.882
 5845POPC   C1A73863  39.157  27.389   6.202
 5845POPC   D2A73864  39.394  27.306   6.586
 5845POPC   C3A73865  39.331  27.512   6.970
 5845POPC   C4A73866  39.325  27.167   7.232
 5845POPC   C1B73867  39.245  27.889   6.315
 5845POPC   C2B73868  38.988  27.664   6.592
 5845POPC   C3B73869  38.824  27.695   6.941
 5845POPC   C4B73870  39.057  27.800   7.298
 5846POPC   NC373871  13.788  41.308   5.115
 5846POPC   PO473872  13.786  40.731   5.456
 5846POPC   GL173873  13.897  40.681   5.881
 5846POPC   GL273874  14.063  40.983   5.913
 5846POPC   C1A73875  13.910  40.680   6.346
 5846POPC   D2A73876  13.917  40.552   6.791
 5846POPC   C3A73877  13.503  40.483   6.938
 5846POPC   C4A73878  13.322  40.583   7.316
 5846POPC   C1B73879  13.824  41.171   6.277
 5846POPC   C2B73880  13.614  40.959   6.650
 5846POPC   C3B73881  13.673  40.947   7.081
 5846POPC   C4B73882  13.401  41.082   7.389
 5847POPC   NC373883  28.764   0.029   5.459
 5847POPC   PO473884  29.411  44.576   5.514
 5847POPC   GL173885  29.209  44.656   5.910
 5847POPC   GL273886  28.915  44.888   5.931
 5847POPC   C1A73887  28.946  44.506   6.254
 5847POPC   D2A73888  28.899  44.721   6.643
 5847POPC   C3A73889  29.217  44.720   6.962
 5847POPC   C4A73890  29.108  44.731   7.388
 5847POPC   C1B73891  29.179   0.007   6.302
 5847POPC   C2B73892  29.187   0.211   6.738
 5847POPC   C3B73893  29.302   0.180   7.206
 5847POPC   C4B73894  29.390   0.070   7.639
 5848POPC   NC373895  42.086   5.367   5.566
 5848POPC   PO473896  42.523   4.840   5.301
 5848POPC   GL173897  42.456   5.050   5.754
 5848POPC   GL273898  42.101   4.994   5.934
 5848POPC   C1A73899  42.512   5.188   6.197
 5848POPC   D2A73900  42.592   5.409   6.604
 5848POPC   C3A73901  42.582   5.113   6.944
 5848POPC   C4A73902  42.475   4.832   7.271
 5848POPC   C1B73903  41.917   5.152   6.323
 5848POPC   C2B73904  42.041   5.254   6.744
 5848POPC   C3B73905  42.090   4.874   6.937
 5848POPC   C4B73906  42.002   4.630   7.293
 5849POPC   NC373907   2.819  37.435   5.442
 5849POPC   PO473908   3.249  37.919   5.367
 5849POPC   GL173909   3.092  37.735   5.782
 5849POPC   GL273910   2.734  37.731   5.867
 5849POPC   C1A73911   3.023  37.902   6.226
 5849POPC   D2A73912   3.055  37.718   6.668
 5849POPC   C3A73913   2.937  37.918   7.057
 5849POPC   C4A73914   2.912  38.135   7.456
 5849POPC   C1B73915   2.632  37.551   6.277
 5849POPC   C2B73916   2.390  37.609   6.662
 5849POPC   C3B73917   2.526  37.584   7.047
 5849POPC   C4B73918   2.869  37.330   7.169
 5850POPC   NC373919  13.208  12.412   5.083
 5850POPC   PO473920  13.031  11.895   5.521
 5850POPC   GL173921  12.882  12.098   5.897
 5850POPC   GL273922  12.511  12.152   5.966
 5850POPC   C1A73923  13.102  12.182   6.270
 5850POPC   D2A73924  13.016  12.129   6.702
 5850POPC   C3A73925  13.270  12.100   7.084
 5850POPC   C4A73926  13.115  12.447   7.378
 5850POPC   C1B73927  12.628  11.735   6.138
 5850POPC   C2B73928  12.663  11.765   6.547
 5850POPC   C3B73929  12.516  12.054   6.841
 5850POPC   C4B73930  12.773  12.141   7.167
 5851POPC   NC373931   6.130  43.096   5.667
 5851POPC   PO473932   5.606  43.510   5.483
 5851POPC   GL173933   5.802  43.442   5.847
 5851POPC   GL273934   5.710  43.116   5.932
 5851POPC   C1A73935   5.991  43.375   6.270
 5851POPC   D2A73936   6.066  42.995   6.512
 5851POPC   C3A73937   5.797  43.068   6.845
 5851POPC   C4A73938   5.833  43.299   7.220
 5851POPC   C1B73939   5.623  42.845   6.281
 5851POPC   C2B73940   5.740  42.585   6.620
 5851POPC   C3B73941   6.094  42.629   6.876
 5851POPC   C4B73942   5.990  42.823   7.258
 5852POPC   NC373943  28.791  43.150   5.599
 5852POPC   PO473944  28.137  43.298   5.463
 5852POPC   GL173945  28.049  43.101   5.839
 5852POPC   GL273946  28.381  42.993   5.909
 5852POPC   C1A73947  28.067  43.223   6.278
 5852POPC   D2A73948  28.326  43.263   6.677
 5852POPC   C3A73949  28.120  43.114   7.081
 5852POPC   C4A73950  28.039  42.825   7.445
 5852POPC   C1B73951  28.484  43.430   6.089
 5852POPC   C2B73952  28.623  43.641   6.457
 5852POPC   C3B73953  28.556  43.695   6.873
 5852POPC   C4B73954  28.491  43.453   7.239
 5853POPC   NC373955  15.624  18.720   5.418
 5853POPC   PO473956  15.912  19.304   5.404
 5853POPC   GL173957  15.920  19.184   5.816
 5853POPC   GL273958  15.719  18.921   5.872
 5853POPC   C1A73959  15.875  19.239   6.252
 5853POPC   D2A73960  15.736  19.290   6.649
 5853POPC   C3A73961  16.023  19.304   6.971
 5853POPC   C4A73962  15.822  19.200   7.358
 5853POPC   C1B73963  16.077  18.782   6.155
 5853POPC   C2B73964  15.884  18.772   6.549
 5853POPC   C3B73965  15.844  18.826   6.967
 5853POPC   C4B73966  16.240  18.889   7.184
 5854POPC   NC373967  38.829  23.133   5.399
 5854POPC   PO473968  38.657  22.440   5.427
 5854POPC   GL173969  38.409  22.593   5.802
 5854POPC   GL273970  38.258  22.941   5.842
 5854POPC   C1A73971  38.576  22.756   6.209
 5854POPC   D2A73972  38.588  22.972   6.614
 5854POPC   C3A73973  38.606  22.758   7.004
 5854POPC   C4A73974  38.570  22.718   7.431
 5854POPC   C1B73975  38.339  23.226   6.236
 5854POPC   C2B73976  38.224  23.319   6.694
 5854POPC   C3B73977  38.184  23.065   7.071
 5854POPC   C4B73978  38.097  22.626   7.185
 5855POPC   NC373979  33.795   5.624   5.541
 5855POPC   PO473980  33.907   6.158   5.183
 5855POPC   GL173981  33.949   6.141   5.679
 5855POPC   GL273982  33.604   6.048   5.829
 5855POPC   C1A73983  34.010   5.961   6.128
 5855POPC   D2A73984  33.871   5.772   6.525
 5855POPC   C3A73985  33.924   5.934   6.934
 5855POPC   C4A73986  34.146   5.997   7.330
 5855POPC   C1B73987  33.544   5.670   6.131
 5855POPC   C2B73988  33.520   5.407   6.512
 5855POPC   C3B73989  33.639   5.478   6.942
 5855POPC   C4B73990  33.706   5.704   7.329
 5856POPC   NC373991  20.441   4.634   5.473
 5856POPC   PO473992  20.360   4.014   5.616
 5856POPC   GL173993  20.623   4.264   5.897
 5856POPC   GL273994  20.777   4.600   5.855
 5856POPC   C1A73995  20.652   4.317   6.346
 5856POPC   D2A73996  20.338   4.333   6.659
 5856POPC   C3A73997  20.508   4.453   7.008
 5856POPC   C4A73998  20.709   4.497   7.407
 5856POPC   C1B73999  20.943   4.720   6.251
 5856POPC   C2B74000  20.862   4.660   6.690
 5856POPC   C3B74001  20.718   4.905   7.067
 5856POPC   C4B74002  20.723   4.974   7.511
 5857POPC   NC374003  22.464  15.944   5.495
 5857POPC   PO474004  21.791  15.820   5.239
 5857POPC   GL174005  21.815  16.073   5.655
 5857POPC   GL274006  21.711  15.861   5.918
 5857POPC   C1A74007  21.973  16.243   6.098
 5857POPC   D2A74008  22.055  16.060   6.524
 5857POPC   C3A74009  22.011  16.264   6.937
 5857POPC   C4A74010  22.354  16.208   7.262
 5857POPC   C1B74011  22.015  15.693   6.142
 5857POPC   C2B74012  22.054  15.514   6.538
 5857POPC   C3B74013  22.144  15.711   6.913
 5857POPC   C4B74014  21.960  15.867   7.266
 5858POPC   NC374015  10.638  20.649   5.451
 5858POPC   PO474016  10.114  20.175   5.373
 5858POPC   GL174017  10.304  20.369   5.750
 5858POPC   GL274018  10.271  20.748   5.794
 5858POPC   C1A74019  10.569  20.446   6.117
 5858POPC   D2A74020  10.744  20.790   6.362
 5858POPC   C3A74021  10.744  20.701   6.798
 5858POPC   C4A74022  10.518  20.436   7.077
 5858POPC   C1B74023  10.128  20.719   6.195
 5858POPC   C2B74024  10.238  20.511   6.553
 5858POPC   C3B74025  10.028  20.534   6.913
 5858POPC   C4B74026  10.155  20.741   7.236
 5859POPC   NC374027  37.303  34.084   5.486
 5859POPC   PO474028  36.665  33.776   5.409
 5859POPC   GL174029  36.816  33.921   5.809
 5859POPC   GL274030  36.714  33.605   5.913
 5859POPC   C1A74031  37.091  33.970   6.197
 5859POPC   D2A74032  37.027  33.865   6.644
 5859POPC   C3A74033  37.154  34.096   7.012
 5859POPC   C4A74034  37.205  33.818   7.324
 5859POPC   C1B74035  36.722  33.584   6.345
 5859POPC   C2B74036  36.680  33.505   6.770
 5859POPC   C3B74037  36.742  33.579   7.216
 5859POPC   C4B74038  36.645  33.355   7.588
 5860POPC   NC374039   7.000  13.671   5.420
 5860POPC   PO474040   6.304  13.941   5.457
 5860POPC   GL174041   6.566  13.609   5.733
 5860POPC   GL274042   6.931  13.541   5.901
 5860POPC   C1A74043   6.513  13.457   6.168
 5860POPC   D2A74044   6.784  13.538   6.497
 5860POPC   C3A74045   6.557  13.662   6.834
 5860POPC   C4A74046   6.345  13.491   7.198
 5860POPC   C1B74047   7.013  13.899   6.172
 5860POPC   C2B74048   6.930  14.064   6.558
 5860POPC   C3B74049   7.006  13.905   6.961
 5860POPC   C4B74050   6.698  13.852   7.281
 5861POPC   NC374051  28.250  21.008   5.436
 5861POPC   PO474052  28.427  21.621   5.370
 5861POPC   GL174053  28.448  21.577   5.811
 5861POPC   GL274054  28.144  21.364   5.887
 5861POPC   C1A74055  28.716  21.734   6.155
 5861POPC   D2A74056  28.787  21.818   6.594
 5861POPC   C3A74057  28.554  21.507   6.836
 5861POPC   C4A74058  28.515  21.388   7.237
 5861POPC   C1B74059  28.368  21.373   6.294
 5861POPC   C2B74060  28.360  21.069   6.613
 5861POPC   C3B74061  28.352  20.921   7.017
 5861POPC   C4B74062  28.223  21.040   7.453
 5862POPC   NC374063  44.378  26.915   5.407
 5862POPC   PO474064   0.090  27.048   5.531
 5862POPC   GL174065  44.739  26.840   5.796
 5862POPC   GL274066  44.400  26.966   5.902
 5862POPC   C1A74067  44.718  26.749   6.240
 5862POPC   D2A74068  44.940  26.834   6.606
 5862POPC   C3A74069  44.727  26.694   6.980
 5862POPC   C4A74070  44.693  26.925   7.341
 5862POPC   C1B74071  44.257  26.959   6.306
 5862POPC   C2B74072  44.441  27.018   6.692
 5862POPC   C3B74073  44.309  27.105   7.092
 5862POPC   C4B74074  44.215  26.918   7.496
 5863POPC   NC374075  28.340  23.031   5.151
 5863POPC   PO474076  28.005  22.693   5.647
 5863POPC   GL174077  28.283  22.944   5.909
 5863POPC   GL274078  28.592  23.075   5.751
 5863POPC   C1A74079  28.366  22.933   6.363
 5863POPC   D2A74080  28.663  22.750   6.642
 5863POPC   C3A74081  28.458  22.705   7.036
 5863POPC   C4A74082  28.495  22.805   7.474
 5863POPC   C1B74083  28.648  23.313   6.164
 5863POPC   C2B74084  28.731  23.286   6.608
 5863POPC   C3B74085  28.685  23.160   7.006
 5863POPC   C4B74086  28.328  23.226   7.239
 5864POPC   NC374087  25.098  24.720   5.239
 5864POPC   PO474088  25.697  24.682   5.430
 5864POPC   GL174089  25.361  24.672   5.763
 5864POPC   GL274090  25.545  24.838   6.003
 5864POPC   C1A74091  25.152  24.581   6.229
 5864POPC   D2A74092  25.338  24.494   6.669
 5864POPC   C3A74093  25.111  24.455   7.105
 5864POPC   C4A74094  25.066  24.735   7.487
 5864POPC   C1B74095  25.761  24.866   6.396
 5864POPC   C2B74096  25.775  24.873   6.836
 5864POPC   C3B74097  25.497  24.792   7.148
 5864POPC   C4B74098  25.560  24.822   7.600
 5865POPC   NC374099  39.657   7.458   5.365
 5865POPC   PO474100  40.242   7.196   5.319
 5865POPC   GL174101  40.257   7.487   5.699
 5865POPC   GL274102  39.924   7.490   5.802
 5865POPC   C1A74103  40.302   7.537   6.178
 5865POPC   D2A74104  40.074   7.675   6.578
 5865POPC   C3A74105  40.229   7.485   6.950
 5865POPC   C4A74106  40.102   7.299   7.286
 5865POPC   C1B74107  39.757   7.509   6.213
 5865POPC   C2B74108  39.644   7.289   6.592
 5865POPC   C3B74109  39.722   7.435   6.988
 5865POPC   C4B74110  39.660   7.542   7.411
 5866POPC   NC374111  10.224  38.782   5.468
 5866POPC   PO474112  10.630  38.243   5.717
 5866POPC   GL174113  10.409  38.528   5.868
 5866POPC   GL274114  10.664  38.786   5.811
 5866POPC   C1A74115  10.191  38.471   6.236
 5866POPC   D2A74116  10.190  38.623   6.637
 5866POPC   C3A74117  10.194  38.447   7.014
 5866POPC   C4A74118  10.267  38.657   7.375
 5866POPC   C1B74119  10.690  38.681   6.256
 5866POPC   C2B74120  10.605  38.333   6.528
 5866POPC   C3B74121  10.699  38.424   6.930
 5866POPC   C4B74122  10.613  38.273   7.299
 5867POPC   NC374123  39.894  18.593   5.457
 5867POPC   PO474124  40.273  18.005   5.536
 5867POPC   GL174125  40.163  18.331   5.828
 5867POPC   GL274126  39.793  18.416   5.914
 5867POPC   C1A74127  40.179  18.239   6.244
 5867POPC   D2A74128  40.075  17.980   6.625
 5867POPC   C3A74129  40.094  18.189   7.055
 5867POPC   C4A74130  40.056  18.329   7.507
 5867POPC   C1B74131  39.699  18.320   6.338
 5867POPC   C2B74132  39.968  18.484   6.660
 5867POPC   C3B74133  39.847  18.704   7.017
 5867POPC   C4B74134  39.629  18.875   7.332
 5868POPC   NC374135   0.580   7.915   5.437
 5868POPC   PO474136   0.415   8.532   5.397
 5868POPC   GL174137   0.423   8.326   5.819
 5868POPC   GL274138   0.220   7.993   5.800
 5868POPC   C1A74139   0.547   8.302   6.291
 5868POPC   D2A74140   0.892   8.310   6.636
 5868POPC   C3A74141   0.742   8.469   7.072
 5868POPC   C4A74142   0.340   8.575   7.314
 5868POPC   C1B74143   0.022   8.189   6.158
 5868POPC   C2B74144   0.105   8.448   6.515
 5868POPC   C3B74145   0.281   8.284   6.895
 5868POPC   C4B74146   0.442   8.075   7.263
 5869POPC   NC374147  42.718  41.994   5.693
 5869POPC   PO474148  42.444  42.591   5.395
 5869POPC   GL174149  42.299  42.411   5.827
 5869POPC   GL274150  42.288  42.085   5.931
 5869POPC   C1A74151  42.146  42.389   6.294
 5869POPC   D2A74152  42.347  42.583   6.626
 5869POPC   C3A74153  42.377  42.398   7.015
 5869POPC   C4A74154  42.187  42.111   7.295
 5869POPC   C1B74155  42.504  41.980   6.292
 5869POPC   C2B74156  42.368  42.034   6.648
 5869POPC   C3B74157  42.513  41.891   6.971
 5869POPC   C4B74158  42.688  41.905   7.315
 5870POPC   NC374159  39.836  27.935   5.321
 5870POPC   PO474160  40.138  28.615   5.334
 5870POPC   GL174161  39.993  28.419   5.733
 5870POPC   GL274162  40.077  28.072   5.755
 5870POPC   C1A74163  40.034  28.404   6.207
 5870POPC   D2A74164  39.857  28.261   6.591
 5870POPC   C3A74165  40.036  28.505   6.908
 5870POPC   C4A74166  39.910  28.359   7.271
 5870POPC   C1B74167  39.949  27.916   6.163
 5870POPC   C2B74168  40.162  27.836   6.550
 5870POPC   C3B74169  40.201  28.021   6.970
 5870POPC   C4B74170  40.528  28.157   7.283
 5871POPC   NC374171  13.073  16.007   5.361
 5871POPC   PO474172  12.573  16.227   5.656
 5871POPC   GL174173  12.710  15.906   5.933
 5871POPC   GL274174  12.396  15.678   5.959
 5871POPC   C1A74175  13.022  15.952   6.284
 5871POPC   D2A74176  13.354  15.944   6.620
 5871POPC   C3A74177  13.110  15.941   7.006
 5871POPC   C4A74178  12.968  16.242   7.257
 5871POPC   C1B74179  12.640  15.603   6.326
 5871POPC   C2B74180  12.770  15.676   6.735
 5871POPC   C3B74181  12.654  15.657   7.166
 5871POPC   C4B74182  12.746  15.713   7.627
 5872POPC   NC374183  41.344   3.046   5.464
 5872POPC   PO474184  41.653   2.443   5.484
 5872POPC   GL174185  41.637   2.755   5.856
 5872POPC   GL274186  41.422   3.050   5.956
 5872POPC   C1A74187  41.619   2.736   6.304
 5872POPC   D2A74188  41.570   2.779   6.734
 5872POPC   C3A74189  41.730   2.539   7.055
 5872POPC   C4A74190  41.676   2.697   7.464
 5872POPC   C1B74191  41.783   3.201   6.210
 5872POPC   C2B74192  41.955   3.161   6.643
 5872POPC   C3B74193  41.772   3.118   7.081
 5872POPC   C4B74194  41.345   2.993   7.166
 5873POPC   NC374195  32.115  33.403   5.504
 5873POPC   PO474196  32.602  32.940   5.377
 5873POPC   GL174197  32.385  33.058   5.785
 5873POPC   GL274198  31.989  33.010   5.813
 5873POPC   C1A74199  32.318  33.057   6.214
 5873POPC   D2A74200  32.239  32.884   6.608
 5873POPC   C3A74201  32.195  33.235   6.874
 5873POPC   C4A74202  32.272  33.139   7.279
 5873POPC   C1B74203  31.884  32.809   6.197
 5873POPC   C2B74204  31.729  32.789   6.635
 5873POPC   C3B74205  31.909  32.829   7.052
 5873POPC   C4B74206  31.916  32.629   7.448
 5874POPC   NC374207  21.816  15.338   5.146
 5874POPC   PO474208  22.418  15.132   5.395
 5874POPC   GL174209  22.106  15.022   5.713
 5874POPC   GL274210  21.810  14.832   5.602
 5874POPC   C1A74211  22.099  15.175   6.147
 5874POPC   D2A74212  22.372  15.057   6.521
 5874POPC   C3A74213  22.369  15.229   6.935
 5874POPC   C4A74214  22.120  15.363   7.287
 5874POPC   C1B74215  21.668  14.818   6.040
 5874POPC   C2B74216  21.711  15.030   6.444
 5874POPC   C3B74217  21.873  15.154   6.846
 5874POPC   C4B74218  21.806  14.970   7.223
 5875POPC   NC374219  25.444  38.843   5.142
 5875POPC   PO474220  24.977  38.473   5.476
 5875POPC   GL174221  25.176  38.467   5.897
 5875POPC   GL274222  25.493  38.597   5.882
 5875POPC   C1A74223  25.261  38.247   6.293
 5875POPC   D2A74224  25.363  38.371   6.744
 5875POPC   C3A74225  25.229  38.180   7.132
 5875POPC   C4A74226  25.152  38.435   7.533
 5875POPC   C1B74227  25.662  38.570   6.315
 5875POPC   C2B74228  25.647  38.764   6.736
 5875POPC   C3B74229  25.490  38.679   7.202
 5875POPC   C4B74230  25.742  38.672   7.601
 5876POPC   NC374231  39.236  10.121   5.392
 5876POPC   PO474232  39.366   9.514   5.603
 5876POPC   GL174233  39.444   9.875   5.827
 5876POPC   GL274234  39.086   9.932   5.831
 5876POPC   C1A74235  39.544   9.846   6.280
 5876POPC   D2A74236  39.341   9.623   6.625
 5876POPC   C3A74237  39.409   9.748   7.059
 5876POPC   C4A74238  39.027   9.580   7.204
 5876POPC   C1B74239  39.198  10.184   6.151
 5876POPC   C2B74240  39.015  10.217   6.483
 5876POPC   C3B74241  39.083  10.086   6.873
 5876POPC   C4B74242  39.024  10.076   7.312
 5877POPC   NC374243  44.064   1.354   5.571
 5877POPC   PO474244  43.659   0.899   5.350
 5877POPC   GL174245  43.742   0.972   5.795
 5877POPC   GL274246  43.630   1.288   5.851
 5877POPC   C1A74247  43.903   1.001   6.223
 5877POPC   D2A74248  43.694   1.089   6.606
 5877POPC   C3A74249  44.012   1.194   6.887
 5877POPC   C4A74250  44.138   1.087   7.310
 5877POPC   C1B74251  43.780   1.499   6.234
 5877POPC   C2B74252  43.674   1.591   6.652
 5877POPC   C3B74253  43.880   1.667   7.028
 5877POPC   C4B74254  43.988   1.559   7.421
 5878POPC   NC374255  14.768   6.918   5.614
 5878POPC   PO474256  15.313   6.848   5.305
 5878POPC   GL174257  15.259   6.697   5.736
 5878POPC   GL274258  15.350   6.320   5.776
 5878POPC   C1A74259  15.100   6.733   6.181
 5878POPC   D2A74260  15.161   6.511   6.590
 5878POPC   C3A74261  14.953   6.693   6.967
 5878POPC   C4A74262  14.970   6.875   7.405
 5878POPC   C1B74263  15.562   6.539   6.116
 5878POPC   C2B74264  15.588   6.782   6.480
 5878POPC   C3B74265  15.609   6.846   6.879
 5878POPC   C4B74266  15.387   6.613   7.177
 5879POPC   NC374267  28.992   8.649   5.405
 5879POPC   PO474268  29.210   9.298   5.364
 5879POPC   GL174269  29.180   9.054   5.743
 5879POPC   GL274270  28.838   8.977   5.782
 5879POPC   C1A74271  29.154   8.928   6.189
 5879POPC   D2A74272  29.364   8.716   6.528
 5879POPC   C3A74273  29.255   8.920   6.894
 5879POPC   C4A74274  29.325   8.835   7.308
 5879POPC   C1B74275  28.628   8.694   6.095
 5879POPC   C2B74276  28.641   8.543   6.548
 5879POPC   C3B74277  28.519   8.713   6.979
 5879POPC   C4B74278  28.817   8.909   7.272
 5880POPC   NC374279   6.494  21.896   5.694
 5880POPC   PO474280   6.547  21.265   5.518
 5880POPC   GL174281   6.692  21.159   5.908
 5880POPC   GL274282   6.583  21.487   6.039
 5880POPC   C1A74283   6.681  21.065   6.341
 5880POPC   D2A74284   6.765  21.369   6.610
 5880POPC   C3A74285   6.898  21.231   6.979
 5880POPC   C4A74286   7.085  21.498   7.244
 5880POPC   C1B74287   6.225  21.202   6.170
 5880POPC   C2B74288   6.071  21.225   6.589
 5880POPC   C3B74289   6.348  21.306   6.915
 5880POPC   C4B74290   6.570  21.624   7.187
 5881POPC   NC374291   2.160  34.999   5.561
 5881POPC   PO474292   1.762  34.445   5.486
 5881POPC   GL174293   1.967  34.580   5.889
 5881POPC   GL274294   2.250  34.788   6.014
 5881POPC   C1A74295   2.022  34.434   6.332
 5881POPC   D2A74296   2.180  34.412   6.757
 5881POPC   C3A74297   1.849  34.506   7.017
 5881POPC   C4A74298   1.783  34.931   7.139
 5881POPC   C1B74299   2.546  34.455   6.171
 5881POPC   C2B74300   2.681  34.545   6.593
 5881POPC   C3B74301   2.459  34.857   6.849
 5881POPC   C4B74302   2.262  34.709   7.206
 5882POPC   NC374303  42.228  18.551   5.409
 5882POPC   PO474304  42.809  18.167   5.453
 5882POPC   GL174305  42.508  18.077   5.836
 5882POPC   GL274306  42.288  18.381   5.912
 5882POPC   C1A74307  42.316  18.018   6.282
 5882POPC   D2A74308  42.043  18.011   6.661
 5882POPC   C3A74309  42.242  18.087   7.056
 5882POPC   C4A74310  42.696  18.096   7.217
 5882POPC   C1B74311  42.406  18.526   6.349
 5882POPC   C2B74312  42.237  18.520   6.785
 5882POPC   C3B74313  42.326  18.577   7.250
 5882POPC   C4B74314  42.222  18.596   7.686
 5883POPC   NC374315  18.465  17.616   5.465
 5883POPC   PO474316  18.201  17.012   5.512
 5883POPC   GL174317  18.227  17.315   5.805
 5883POPC   GL274318  18.594  17.324   5.855
 5883POPC   C1A74319  18.218  17.572   6.177
 5883POPC   D2A74320  18.315  17.418   6.586
 5883POPC   C3A74321  18.482  17.644   6.918
 5883POPC   C4A74322  18.306  17.727   7.285
 5883POPC   C1B74323  18.684  17.137   6.244
 5883POPC   C2B74324  18.562  16.960   6.615
 5883POPC   C3B74325  18.405  17.123   6.992
 5883POPC   C4B74326  18.611  17.314   7.300
 5884POPC   NC374327  12.551   3.913   5.500
 5884POPC   PO474328  12.612   3.307   5.184
 5884POPC   GL174329  12.819   3.232   5.632
 5884POPC   GL274330  13.036   3.528   5.720
 5884POPC   C1A74331  12.930   3.208   6.093
 5884POPC   D2A74332  12.915   3.126   6.536
 5884POPC   C3A74333  13.123   3.324   6.880
 5884POPC   C4A74334  12.849   3.379   7.253
 5884POPC   C1B74335  12.928   3.740   6.124
 5884POPC   C2B74336  12.999   3.700   6.558
 5884POPC   C3B74337  12.925   3.803   6.995
 5884POPC   C4B74338  13.072   3.828   7.442
 5885POPC   NC374339  20.604  40.404   5.297
 5885POPC   PO474340  20.784  41.087   5.378
 5885POPC   GL174341  20.760  40.941   5.790
 5885POPC   GL274342  20.731  40.632   5.719
 5885POPC   C1A74343  20.422  40.899   6.107
 5885POPC   D2A74344  20.221  41.034   6.502
 5885POPC   C3A74345  20.513  41.112   6.856
 5885POPC   C4A74346  20.539  40.922   7.272
 5885POPC   C1B74347  20.699  40.472   6.106
 5885POPC   C2B74348  20.623  40.653   6.521
 5885POPC   C3B74349  20.384  40.600   6.882
 5885POPC   C4B74350  20.534  40.405   7.251
 5886POPC   NC374351   7.330  11.078   5.364
 5886POPC   PO474352   8.053  11.053   5.332
 5886POPC   GL174353   7.729  11.021   5.722
 5886POPC   GL274354   7.500  11.307   5.801
 5886POPC   C1A74355   7.558  10.989   6.175
 5886POPC   D2A74356   7.530  11.256   6.543
 5886POPC   C3A74357   7.365  11.079   6.906
 5886POPC   C4A74358   7.439  11.196   7.340
 5886POPC   C1B74359   7.295  11.518   6.173
 5886POPC   C2B74360   7.080  11.486   6.594
 5886POPC   C3B74361   7.315  11.589   6.967
 5886POPC   C4B74362   7.380  11.717   7.369
 5887POPC   NC374363   6.523  20.161   5.008
 5887POPC   PO474364   6.614  19.648   5.464
 5887POPC   GL174365   6.540  19.799   5.854
 5887POPC   GL274366   6.871  19.924   5.861
 5887POPC   C1A74367   6.651  19.651   6.266
 5887POPC   D2A74368   6.453  19.645   6.648
 5887POPC   C3A74369   6.652  19.753   7.004
 5887POPC   C4A74370   6.468  19.499   7.293
 5887POPC   C1B74371   6.737  20.141   6.225
 5887POPC   C2B74372   6.523  20.156   6.632
 5887POPC   C3B74373   6.522  20.243   7.065
 5887POPC   C4B74374   6.386  20.142   7.523
 5888POPC   NC374375  10.194  13.615   5.557
 5888POPC   PO474376   9.626  13.250   5.498
 5888POPC   GL174377   9.670  13.453   5.895
 5888POPC   GL274378   9.789  13.796   5.841
 5888POPC   C1A74379   9.561  13.656   6.293
 5888POPC   D2A74380   9.670  13.662   6.740
 5888POPC   C3A74381   9.762  13.372   7.103
 5888POPC   C4A74382   9.853  13.379   7.582
 5888POPC   C1B74383  10.047  13.757   6.226
 5888POPC   C2B74384  10.206  13.875   6.616
 5888POPC   C3B74385  10.009  13.928   7.007
 5888POPC   C4B74386   9.621  13.846   7.216
 5889POPC   NC374387  18.878   6.210   5.451
 5889POPC   PO474388  19.075   6.880   5.532
 5889POPC   GL174389  18.928   6.596   5.795
 5889POPC   GL274390  19.229   6.471   5.800
 5889POPC   C1A74391  18.987   6.630   6.228
 5889POPC   D2A74392  18.822   6.838   6.549
 5889POPC   C3A74393  18.881   6.703   6.940
 5889POPC   C4A74394  18.784   6.369   7.194
 5889POPC   C1B74395  19.373   6.271   6.127
 5889POPC   C2B74396  19.242   6.269   6.526
 5889POPC   C3B74397  19.461   6.376   6.884
 5889POPC   C4B74398  19.258   6.550   7.234
 5890POPC   NC374399   9.396  10.494   5.451
 5890POPC   PO474400   8.749  10.514   5.355
 5890POPC   GL174401   8.867  10.531   5.746
 5890POPC   GL274402   8.977  10.195   5.763
 5890POPC   C1A74403   9.094  10.612   6.128
 5890POPC   D2A74404   8.987  10.498   6.545
 5890POPC   C3A74405   8.709  10.652   6.861
 5890POPC   C4A74406   8.910  10.523   7.249
 5890POPC   C1B74407   8.733  10.229   6.162
 5890POPC   C2B74408   8.604  10.141   6.611
 5890POPC   C3B74409   8.700  10.090   7.068
 5890POPC   C4B74410   8.877  10.062   7.502
 5891POPC   NC374411  38.590  13.123   5.416
 5891POPC   PO474412  38.178  12.555   5.558
 5891POPC   GL174413  38.437  12.622   5.889
 5891POPC   GL274414  38.327  12.966   5.889
 5891POPC   C1A74415  38.527  12.644   6.335
 5891POPC   D2A74416  38.624  12.599   6.776
 5891POPC   C3A74417  38.294  12.719   7.007
 5891POPC   C4A74418  38.257  12.924   7.370
 5891POPC   C1B74419  38.736  13.038   6.063
 5891POPC   C2B74420  38.789  13.055   6.524
 5891POPC   C3B74421  38.653  13.126   6.963
 5891POPC   C4B74422  38.786  13.068   7.394
 5892POPC   NC374423  26.644  26.396   5.537
 5892POPC   PO474424  27.000  25.839   5.536
 5892POPC   GL174425  26.825  26.023   5.883
 5892POPC   GL274426  27.008  26.328   5.874
 5892POPC   C1A74427  26.681  26.030   6.329
 5892POPC   D2A74428  26.793  25.920   6.774
 5892POPC   C3A74429  26.494  26.126   7.083
 5892POPC   C4A74430  26.511  26.265   7.500
 5892POPC   C1B74431  27.206  26.281   6.229
 5892POPC   C2B74432  27.057  26.328   6.610
 5892POPC   C3B74433  27.064  26.274   7.052
 5892POPC   C4B74434  26.907  25.934   7.329
 5893POPC   NC374435  10.165  11.103   5.643
 5893POPC   PO474436   9.589  11.505   5.359
 5893POPC   GL174437   9.584  11.623   5.794
 5893POPC   GL274438   9.934  11.542   5.876
 5893POPC   C1A74439   9.495  11.782   6.201
 5893POPC   D2A74440   9.370  11.546   6.566
 5893POPC   C3A74441   9.597  11.472   6.955
 5893POPC   C4A74442   9.547  11.100   7.201
 5893POPC   C1B74443   9.798  11.379   6.302
 5893POPC   C2B74444   9.984  11.228   6.700
 5893POPC   C3B74445  10.062  11.133   7.126
 5893POPC   C4B74446   9.911  11.404   7.440
 5894POPC   NC374447   2.248  28.962   4.993
 5894POPC   PO474448   1.774  29.188   5.398
 5894POPC   GL174449   1.739  29.099   5.833
 5894POPC   GL274450   2.044  29.273   5.866
 5894POPC   C1A74451   1.845  29.047   6.288
 5894POPC   D2A74452   1.942  28.826   6.679
 5894POPC   C3A74453   1.875  28.997   7.088
 5894POPC   C4A74454   1.787  29.369   7.316
 5894POPC   C1B74455   2.256  29.347   6.254
 5894POPC   C2B74456   2.447  29.128   6.602
 5894POPC   C3B74457   2.402  28.937   7.015
 5894POPC   C4B74458   2.284  29.134   7.402
 5895POPC   NC374459  11.167  19.801   5.493
 5895POPC   PO474460  11.733  19.919   5.550
 5895POPC   GL174461  11.653  19.684   5.895
 5895POPC   GL274462  11.317  19.813   5.987
 5895POPC   C1A74463  11.647  19.748   6.351
 5895POPC   D2A74464  11.273  19.887   6.533
 5895POPC   C3A74465  11.396  20.000   6.912
 5895POPC   C4A74466  11.457  19.816   7.274
 5895POPC   C1B74467  10.967  19.554   6.177
 5895POPC   C2B74468  10.787  19.612   6.566
 5895POPC   C3B74469  10.999  19.661   6.940
 5895POPC   C4B74470  10.965  19.747   7.344
 5896POPC   NC374471   6.913  10.616   5.061
 5896POPC   PO474472   6.513  10.300   5.471
 5896POPC   GL174473   6.345  10.410   5.889
 5896POPC   GL274474   6.315  10.798   5.871
 5896POPC   C1A74475   6.518  10.253   6.285
 5896POPC   D2A74476   6.841  10.391   6.557
 5896POPC   C3A74477   6.786  10.291   6.985
 5896POPC   C4A74478   6.809  10.573   7.310
 5896POPC   C1B74479   6.515  10.768   6.272
 5896POPC   C2B74480   6.401  10.644   6.702
 5896POPC   C3B74481   6.396  10.917   7.069
 5896POPC   C4B74482   6.415  10.798   7.505
 5897POPC   NC374483  17.177  44.795   5.816
 5897POPC   PO474484  16.977  44.339   5.403
 5897POPC   GL174485  16.728  44.544   5.772
 5897POPC   GL274486  16.643  44.885   5.935
 5897POPC   C1A74487  16.800  44.506   6.254
 5897POPC   D2A74488  16.996  44.439   6.704
 5897POPC   C3A74489  16.705  44.383   7.123
 5897POPC   C4A74490  16.359  44.241   7.474
 5897POPC   C1B74491  16.370  44.856   6.340
 5897POPC   C2B74492  16.096  44.804   6.754
 5897POPC   C3B74493  16.105  44.810   7.288
 5897POPC   C4B74494  16.371  44.702   7.677
 5898POPC   NC374495   9.673   2.915   5.294
 5898POPC   PO474496   9.927   2.398   5.303
 5898POPC   GL174497   9.817   2.636   5.699
 5898POPC   GL274498   9.649   2.956   5.794
 5898POPC   C1A74499   9.699   2.509   6.117
 5898POPC   D2A74500   9.937   2.492   6.486
 5898POPC   C3A74501   9.736   2.456   6.877
 5898POPC   C4A74502   9.818   2.531   7.318
 5898POPC   C1B74503   9.570   3.015   6.223
 5898POPC   C2B74504   9.671   2.912   6.627
 5898POPC   C3B74505   9.616   2.948   7.050
 5898POPC   C4B74506   9.419   3.287   7.250
 5899POPC   NC374507  43.646  34.386   5.263
 5899POPC   PO474508  43.911  34.885   5.467
 5899POPC   GL174509  43.790  34.611   5.754
 5899POPC   GL274510  43.505  34.778   5.787
 5899POPC   C1A74511  43.945  34.573   6.188
 5899POPC   D2A74512  43.981  34.792   6.574
 5899POPC   C3A74513  44.094  34.575   6.941
 5899POPC   C4A74514  44.010  34.950   7.233
 5899POPC   C1B74515  43.445  34.525   6.141
 5899POPC   C2B74516  43.547  34.541   6.561
 5899POPC   C3B74517  43.622  34.690   6.974
 5899POPC   C4B74518  43.598  34.341   7.229
 5900POPC   NC374519  29.982   1.601   5.435
 5900POPC   PO474520  29.801   2.244   5.262
 5900POPC   GL174521  29.759   2.080   5.718
 5900POPC   GL274522  30.118   2.003   5.781
 5900POPC   C1A74523  29.809   1.818   6.157
 5900POPC   D2A74524  30.088   1.934   6.547
 5900POPC   C3A74525  30.068   1.710   6.968
 5900POPC   C4A74526  29.752   1.739   7.308
 5900POPC   C1B74527  30.011   2.275   6.147
 5900POPC   C2B74528  29.862   2.416   6.581
 5900POPC   C3B74529  29.907   2.208   6.959
 5900POPC   C4B74530  29.962   2.204   7.368
 5901POPC   NC374531   7.179  16.379   5.493
 5901POPC   PO474532   7.593  15.825   5.555
 5901POPC   GL174533   7.611  16.206   5.795
 5901POPC   GL274534   7.291  16.143   5.935
 5901POPC   C1A74535   7.702  16.244   6.241
 5901POPC   D2A74536   7.500  16.026   6.589
 5901POPC   C3A74537   7.545  16.206   7.002
 5901POPC   C4A74538   7.514  15.964   7.357
 5901POPC   C1B74539   7.135  15.831   6.225
 5901POPC   C2B74540   7.148  15.626   6.621
 5901POPC   C3B74541   7.165  15.875   6.978
 5901POPC   C4B74542   7.058  15.763   7.357
 5902POPC   NC374543  42.610  34.462   5.120
 5902POPC   PO474544  42.213  34.787   5.597
 5902POPC   GL174545  42.139  34.401   5.800
 5902POPC   GL274546  42.409  34.169   5.867
 5902POPC   C1A74547  42.053  34.436   6.245
 5902POPC   D2A74548  42.099  34.691   6.624
 5902POPC   C3A74549  42.348  34.610   7.006
 5902POPC   C4A74550  42.396  34.602   7.460
 5902POPC   C1B74551  42.503  34.186   6.316
 5902POPC   C2B74552  42.694  34.356   6.725
 5902POPC   C3B74553  42.767  34.350   7.226
 5902POPC   C4B74554  42.848  34.091   7.679
 5903POPC   NC374555  32.766  20.943   5.084
 5903POPC   PO474556  32.416  20.492   5.468
 5903POPC   GL174557  32.320  20.764   5.839
 5903POPC   GL274558  31.963  20.874   5.923
 5903POPC   C1A74559  32.580  20.826   6.231
 5903POPC   D2A74560  32.377  20.856   6.636
 5903POPC   C3A74561  32.586  20.910   7.023
 5903POPC   C4A74562  32.552  20.895   7.467
 5903POPC   C1B74563  32.123  20.596   6.263
 5903POPC   C2B74564  32.024  20.474   6.674
 5903POPC   C3B74565  32.151  20.620   7.072
 5903POPC   C4B74566  31.970  20.797   7.422
 5904POPC   NC374567  31.410  32.686   5.293
 5904POPC   PO474568  31.672  33.288   5.495
 5904POPC   GL174569  31.435  33.064   5.803
 5904POPC   GL274570  31.507  32.726   5.797
 5904POPC   C1A74571  31.426  32.993   6.258
 5904POPC   D2A74572  31.299  33.182   6.628
 5904POPC   C3A74573  31.509  33.158   7.018
 5904POPC   C4A74574  31.530  33.284   7.454
 5904POPC   C1B74575  31.105  32.671   6.020
 5904POPC   C2B74576  31.038  32.701   6.463
 5904POPC   C3B74577  31.270  32.699   6.846
 5904POPC   C4B74578  31.439  32.689   7.271
 5905POPC   NC374579  15.587  29.482   5.467
 5905POPC   PO474580  16.189  29.067   5.459
 5905POPC   GL174581  15.902  29.197   5.766
 5905POPC   GL274582  15.724  28.929   5.930
 5905POPC   C1A74583  15.915  29.330   6.175
 5905POPC   D2A74584  15.984  29.186   6.579
 5905POPC   C3A74585  15.892  29.347   6.967
 5905POPC   C4A74586  16.211  29.326   7.264
 5905POPC   C1B74587  16.089  28.845   6.185
 5905POPC   C2B74588  16.186  28.725   6.614
 5905POPC   C3B74589  16.164  28.880   7.028
 5905POPC   C4B74590  16.117  28.617   7.387
 5906POPC   NC374591  40.369   6.794   5.136
 5906POPC   PO474592  39.966   6.363   5.497
 5906POPC   GL174593  39.991   6.637   5.872
 5906POPC   GL274594  40.208   6.941   5.764
 5906POPC   C1A74595  39.814   6.645   6.297
 5906POPC   D2A74596  39.600   6.726   6.676
 5906POPC   C3A74597  39.774   6.448   6.999
 5906POPC   C4A74598  40.141   6.260   7.206
 5906POPC   C1B74599  40.041   7.097   6.119
 5906POPC   C2B74600  40.128   7.162   6.525
 5906POPC   C3B74601  39.966   7.003   6.900
 5906POPC   C4B74602  40.070   6.771   7.244
 5907POPC   NC374603  15.607   1.782   5.500
 5907POPC   PO474604  15.529   2.366   5.425
 5907POPC   GL174605  15.357   2.252   5.791
 5907POPC   GL274606  14.995   2.140   5.796
 5907POPC   C1A74607  15.331   2.068   6.198
 5907POPC   D2A74608  15.194   1.964   6.582
 5907POPC   C3A74609  15.411   2.094   6.916
 5907POPC   C4A74610  15.142   2.265   7.116
 5907POPC   C1B74611  14.804   1.952   6.198
 5907POPC   C2B74612  14.725   1.739   6.609
 5907POPC   C3B74613  14.968   1.727   7.008
 5907POPC   C4B74614  14.938   1.487   7.401
 5908POPC   NC374615  43.966   0.578   5.474
 5908POPC   PO474616  43.894  44.929   5.485
 5908POPC   GL174617  43.636   0.124   5.786
 5908POPC   GL274618  43.548   0.503   5.764
 5908POPC   C1A74619  43.777   0.003   6.176
 5908POPC   D2A74620  44.076   0.181   6.501
 5908POPC   C3A74621  43.925   0.225   6.948
 5908POPC   C4A74622  43.632   0.146   7.303
 5908POPC   C1B74623  43.830   0.504   6.124
 5908POPC   C2B74624  43.791   0.589   6.554
 5908POPC   C3B74625  43.821   0.729   6.962
 5908POPC   C4B74626  43.716   0.711   7.373
 5909POPC   NC374627  28.542  35.540   5.398
 5909POPC   PO474628  28.210  35.004   5.461
 5909POPC   GL174629  28.331  35.245   5.791
 5909POPC   GL274630  28.683  35.221   5.835
 5909POPC   C1A74631  28.323  35.363   6.195
 5909POPC   D2A74632  28.069  35.393   6.538
 5909POPC   C3A74633  28.295  35.462   6.899
 5909POPC   C4A74634  28.161  35.579   7.281
 5909POPC   C1B74635  28.731  35.055   6.295
 5909POPC   C2B74636  28.642  35.105   6.770
 5909POPC   C3B74637  28.445  35.087   7.223
 5909POPC   C4B74638  28.562  34.880   7.640
 5910POPC   NC374639  26.203  34.877   5.257
 5910POPC   PO474640  26.055  34.249   5.454
 5910POPC   GL174641  25.980  34.312   5.878
 5910POPC   GL274642  25.922  34.684   5.863
 5910POPC   C1A74643  26.175  34.445   6.264
 5910POPC   D2A74644  26.242  34.785   6.534
 5910POPC   C3A74645  26.189  34.594   6.889
 5910POPC   C4A74646  26.046  34.808   7.207
 5910POPC   C1B74647  25.739  34.757   6.306
 5910POPC   C2B74648  25.754  34.957   6.749
 5910POPC   C3B74649  25.575  34.981   7.194
 5910POPC   C4B74650  25.767  34.773   7.632
 5911POPC   NC374651  25.064  25.808   5.304
 5911POPC   PO474652  25.477  26.314   5.487
 5911POPC   GL174653  25.283  26.100   5.806
 5911POPC   GL274654  24.955  26.181   5.689
 5911POPC   C1A74655  25.410  26.031   6.252
 5911POPC   D2A74656  25.611  26.213   6.611
 5911POPC   C3A74657  25.476  26.012   6.984
 5911POPC   C4A74658  25.558  26.256   7.359
 5911POPC   C1B74659  24.891  26.066   6.138
 5911POPC   C2B74660  24.907  25.846   6.537
 5911POPC   C3B74661  24.959  25.976   6.952
 5911POPC   C4B74662  25.120  25.991   7.384
 5912POPC   NC374663   7.596  25.404   5.183
 5912POPC   PO474664   7.004  25.310   5.426
 5912POPC   GL174665   7.349  25.128   5.609
 5912POPC   GL274666   7.157  25.058   5.909
 5912POPC   C1A74667   7.597  25.352   5.932
 5912POPC   D2A74668   7.631  25.590   6.321
 5912POPC   C3A74669   7.631  25.367   6.725
 5912POPC   C4A74670   7.538  25.281   7.147
 5912POPC   C1B74671   7.251  25.223   6.355
 5912POPC   C2B74672   7.159  25.581   6.663
 5912POPC   C3B74673   7.090  25.568   7.114
 5912POPC   C4B74674   7.060  25.169   7.330
 5913POPC   NC374675  40.965  33.716   5.401
 5913POPC   PO474676  40.544  34.182   5.504
 5913POPC   GL174677  40.764  34.055   5.822
 5913POPC   GL274678  41.093  34.083   5.740
 5913POPC   C1A74679  40.673  33.899   6.233
 5913POPC   D2A74680  40.912  33.966   6.573
 5913POPC   C3A74681  40.727  33.796   6.933
 5913POPC   C4A74682  40.672  33.645   7.356
 5913POPC   C1B74683  41.144  33.731   6.087
 5913POPC   C2B74684  41.330  33.646   6.518
 5913POPC   C3B74685  41.189  33.556   6.958
 5913POPC   C4B74686  41.120  33.858   7.317
 5914POPC   NC374687  28.166  24.635   5.343
 5914POPC   PO474688  28.015  24.039   5.665
 5914POPC   GL174689  28.394  24.297   5.828
 5914POPC   GL274690  28.439  24.691   5.790
 5914POPC   C1A74691  28.339  24.292   6.252
 5914POPC   D2A74692  28.273  24.542   6.629
 5914POPC   C3A74693  28.376  24.360   7.038
 5914POPC   C4A74694  28.520  24.474   7.436
 5914POPC   C1B74695  28.607  24.711   6.222
 5914POPC   C2B74696  28.542  24.970   6.600
 5914POPC   C3B74697  28.464  24.870   7.036
 5914POPC   C4B74698  28.716  24.930   7.400
 5915POPC   NC374699  28.552  17.378   5.479
 5915POPC   PO474700  28.045  17.762   5.369
 5915POPC   GL174701  28.237  17.776   5.811
 5915POPC   GL274702  28.373  17.459   5.955
 5915POPC   C1A74703  28.137  17.826   6.270
 5915POPC   D2A74704  28.333  17.781   6.699
 5915POPC   C3A74705  28.326  17.450   7.018
 5915POPC   C4A74706  28.212  17.549   7.454
 5915POPC   C1B74707  28.620  17.706   6.256
 5915POPC   C2B74708  28.850  17.768   6.656
 5915POPC   C3B74709  28.725  17.774   7.086
 5915POPC   C4B74710  28.697  17.448   7.373
 5916POPC   NC374711  37.564  27.134   5.249
 5916POPC   PO474712  37.619  27.804   5.347
 5916POPC   GL174713  37.640  27.520   5.723
 5916POPC   GL274714  37.500  27.760   5.959
 5916POPC   C1A74715  37.802  27.360   6.108
 5916POPC   D2A74716  37.995  27.322   6.528
 5916POPC   C3A74717  37.890  27.559   6.884
 5916POPC   C4A74718  37.669  27.384   7.229
 5916POPC   C1B74719  37.539  27.656   6.409
 5916POPC   C2B74720  37.379  27.606   6.795
 5916POPC   C3B74721  37.523  27.851   7.130
 5916POPC   C4B74722  37.944  27.837   7.386
 5917POPC   NC374723  31.262  32.094   5.579
 5917POPC   PO474724  31.802  32.487   5.428
 5917POPC   GL174725  31.791  32.305   5.877
 5917POPC   GL274726  31.520  32.050   5.999
 5917POPC   C1A74727  31.531  32.470   6.250
 5917POPC   D2A74728  31.471  32.289   6.607
 5917POPC   C3A74729  31.673  32.366   6.951
 5917POPC   C4A74730  31.636  32.097   7.280
 5917POPC   C1B74731  31.124  32.133   6.251
 5917POPC   C2B74732  30.984  32.241   6.681
 5917POPC   C3B74733  31.166  32.262   7.125
 5917POPC   C4B74734  31.072  32.466   7.573
 5918POPC   NC374735  41.478  19.041   5.222
 5918POPC   PO474736  40.946  18.728   5.385
 5918POPC   GL174737  41.365  18.783   5.717
 5918POPC   GL274738  41.521  19.079   5.753
 5918POPC   C1A74739  41.625  18.767   6.133
 5918POPC   D2A74740  41.788  18.658   6.568
 5918POPC   C3A74741  41.477  18.784   6.867
 5918POPC   C4A74742  41.422  19.002   7.258
 5918POPC   C1B74743  41.744  19.273   6.106
 5918POPC   C2B74744  41.761  19.158   6.517
 5918POPC   C3B74745  41.573  19.301   6.872
 5918POPC   C4B74746  41.790  19.368   7.223
 5919POPC   NC374747  21.625  32.062   5.432
 5919POPC   PO474748  21.110  31.947   5.205
 5919POPC   GL174749  21.179  32.115   5.695
 5919POPC   GL274750  21.421  32.416   5.766
 5919POPC   C1A74751  21.272  32.198   6.193
 5919POPC   D2A74752  21.442  32.426   6.606
 5919POPC   C3A74753  21.390  32.160   6.972
 5919POPC   C4A74754  21.750  31.916   7.062
 5919POPC   C1B74755  21.447  32.701   6.166
 5919POPC   C2B74756  21.639  32.931   6.541
 5919POPC   C3B74757  21.598  32.845   6.988
 5919POPC   C4B74758  21.245  32.618   7.127
 5920POPC   NC374759  42.408  44.513   5.409
 5920POPC   PO474760  42.109   0.083   5.392
 5920POPC   GL174761  42.358  44.968   5.758
 5920POPC   GL274762  42.373  44.599   5.898
 5920POPC   C1A74763  42.185  44.984   6.183
 5920POPC   D2A74764  42.258  44.631   6.442
 5920POPC   C3A74765  42.305  44.740   6.867
 5920POPC   C4A74766  42.310  44.519   7.205
 5920POPC   C1B74767  42.688  44.808   6.140
 5920POPC   C2B74768  42.613  44.986   6.539
 5920POPC   C3B74769  42.782  44.962   6.924
 5920POPC   C4B74770  42.602  44.914   7.291
 5921POPC   NC374771  23.984  22.569   5.081
 5921POPC   PO474772  23.542  22.205   5.261
 5921POPC   GL174773  23.447  22.131   5.738
 5921POPC   GL274774  23.440  22.396   5.966
 5921POPC   C1A74775  23.532  21.913   6.137
 5921POPC   D2A74776  23.784  21.937   6.520
 5921POPC   C3A74777  23.517  21.990   6.891
 5921POPC   C4A74778  23.616  22.161   7.247
 5921POPC   C1B74779  23.733  22.395   6.253
 5921POPC   C2B74780  23.639  22.412   6.663
 5921POPC   C3B74781  23.925  22.471   6.999
 5921POPC   C4B74782  23.830  22.598   7.419
 5922POPC   NC374783  20.185  12.298   5.392
 5922POPC   PO474784  19.471  12.226   5.407
 5922POPC   GL174785  19.750  12.235   5.824
 5922POPC   GL274786  20.125  12.145   5.862
 5922POPC   C1A74787  19.846  12.049   6.260
 5922POPC   D2A74788  19.876  11.761   6.592
 5922POPC   C3A74789  19.838  11.940   6.999
 5922POPC   C4A74790  19.680  12.127   7.384
 5922POPC   C1B74791  20.250  12.385   6.230
 5922POPC   C2B74792  20.093  12.454   6.663
 5922POPC   C3B74793  20.150  12.355   7.092
 5922POPC   C4B74794  20.287  11.965   7.285
 5923POPC   NC374795  34.564   8.142   5.258
 5923POPC   PO474796  35.055   8.080   5.683
 5923POPC   GL174797  34.638   8.205   5.802
 5923POPC   GL274798  34.444   7.943   5.971
 5923POPC   C1A74799  34.515   8.388   6.218
 5923POPC   D2A74800  34.349   8.314   6.665
 5923POPC   C3A74801  34.605   8.156   7.007
 5923POPC   C4A74802  34.802   7.880   7.280
 5923POPC   C1B74803  34.094   8.089   6.261
 5923POPC   C2B74804  33.909   8.052   6.648
 5923POPC   C3B74805  34.128   7.896   6.991
 5923POPC   C4B74806  34.299   7.939   7.384
 5924POPC   NC374807   1.281  35.471   5.489
 5924POPC   PO474808   0.942  34.893   5.378
 5924POPC   GL174809   1.011  35.177   5.801
 5924POPC   GL274810   0.910  35.562   5.842
 5924POPC   C1A74811   1.313  35.402   6.139
 5924POPC   D2A74812   1.402  35.513   6.576
 5924POPC   C3A74813   1.267  35.193   6.842
 5924POPC   C4A74814   1.106  35.073   7.229
 5924POPC   C1B74815   0.868  35.626   6.301
 5924POPC   C2B74816   0.914  35.583   6.762
 5924POPC   C3B74817   1.111  35.618   7.144
 5924POPC   C4B74818   0.999  35.691   7.577
 5925POPC   NC374819  23.510   5.461   5.419
 5925POPC   PO474820  23.718   6.075   5.455
 5925POPC   GL174821  23.621   6.023   5.900
 5925POPC   GL274822  23.554   5.650   5.935
 5925POPC   C1A74823  23.748   5.956   6.351
 5925POPC   D2A74824  23.950   5.661   6.654
 5925POPC   C3A74825  23.860   5.783   7.076
 5925POPC   C4A74826  23.524   5.989   7.245
 5925POPC   C1B74827  23.395   5.575   6.357
 5925POPC   C2B74828  23.429   5.705   6.776
 5925POPC   C3B74829  23.446   5.477   7.148
 5925POPC   C4B74830  23.258   5.634   7.482
 5926POPC   NC374831  28.896  33.915   5.424
 5926POPC   PO474832  29.389  33.556   5.402
 5926POPC   GL174833  29.263  33.795   5.775
 5926POPC   GL274834  28.920  33.726   5.917
 5926POPC   C1A74835  29.281  33.967   6.207
 5926POPC   D2A74836  29.023  33.885   6.581
 5926POPC   C3A74837  29.235  33.849   6.971
 5926POPC   C4A74838  29.361  33.580   7.304
 5926POPC   C1B74839  28.704  33.558   6.316
 5926POPC   C2B74840  28.793  33.402   6.758
 5926POPC   C3B74841  28.848  33.555   7.183
 5926POPC   C4B74842  28.702  33.923   7.393
 5927POPC   NC374843  11.302  21.693   5.498
 5927POPC   PO474844  10.971  20.970   5.484
 5927POPC   GL174845  11.181  21.083   5.854
 5927POPC   GL274846  11.502  21.161   5.716
 5927POPC   C1A74847  11.319  21.340   6.222
 5927POPC   D2A74848  11.378  21.509   6.649
 5927POPC   C3A74849  11.107  21.365   6.981
 5927POPC   C4A74850  10.884  21.352   7.358
 5927POPC   C1B74851  11.662  20.992   6.103
 5927POPC   C2B74852  11.759  21.031   6.566
 5927POPC   C3B74853  11.608  21.165   6.983
 5927POPC   C4B74854  11.558  21.574   7.159
 5928POPC   NC374855  44.751  36.435   5.420
 5928POPC   PO474856  44.444  35.774   5.279
 5928POPC   GL174857  44.584  35.923   5.734
 5928POPC   GL274858  44.853  36.144   5.828
 5928POPC   C1A74859  44.729  35.723   6.150
 5928POPC   D2A74860  44.583  35.818   6.569
 5928POPC   C3A74861  44.733  35.688   6.957
 5928POPC   C4A74862  44.485  35.852   7.292
 5928POPC   C1B74863  44.601  36.212   6.221
 5928POPC   C2B74864  44.687  36.309   6.676
 5928POPC   C3B74865  44.413  36.327   7.045
 5928POPC   C4B74866  44.563  36.499   7.444
 5929POPC   NC374867  13.851   5.680   5.164
 5929POPC   PO474868  13.292   5.761   5.579
 5929POPC   GL174869  13.554   5.957   5.875
 5929POPC   GL274870  13.925   5.934   5.831
 5929POPC   C1A74871  13.521   5.865   6.295
 5929POPC   D2A74872  13.648   5.460   6.527
 5929POPC   C3A74873  13.550   5.478   6.977
 5929POPC   C4A74874  13.638   5.795   7.302
 5929POPC   C1B74875  14.020   5.886   6.278
 5929POPC   C2B74876  13.820   5.928   6.734
 5929POPC   C3B74877  13.722   6.242   7.086
 5929POPC   C4B74878  13.882   6.181   7.535
 5930POPC   NC374879  20.588  16.048   5.432
 5930POPC   PO474880  21.038  15.613   5.551
 5930POPC   GL174881  20.700  15.782   5.881
 5930POPC   GL274882  20.387  16.003   5.898
 5930POPC   C1A74883  20.563  15.747   6.334
 5930POPC   D2A74884  20.435  15.795   6.769
 5930POPC   C3A74885  20.711  15.752   7.068
 5930POPC   C4A74886  20.666  15.891   7.479
 5930POPC   C1B74887  20.441  16.247   6.310
 5930POPC   C2B74888  20.315  16.332   6.751
 5930POPC   C3B74889  20.370  16.205   7.187
 5930POPC   C4B74890  20.171  16.315   7.621
 5931POPC   NC374891   5.314   0.718   5.557
 5931POPC   PO474892   5.032   0.084   5.388
 5931POPC   GL174893   4.868   0.238   5.815
 5931POPC   GL274894   5.162   0.425   5.937
 5931POPC   C1A74895   4.761   0.489   6.219
 5931POPC   D2A74896   4.981   0.640   6.617
 5931POPC   C3A74897   4.862   0.444   7.004
 5931POPC   C4A74898   4.970   0.452   7.408
 5931POPC   C1B74899   5.386   0.556   6.297
 5931POPC   C2B74900   5.529   0.538   6.704
 5931POPC   C3B74901   5.353   0.612   7.074
 5931POPC   C4B74902   5.496   0.649   7.487
 5932POPC   NC374903  23.105  34.281   5.506
 5932POPC   PO474904  22.514  34.741   5.521
 5932POPC   GL174905  22.875  34.723   5.799
 5932POPC   GL274906  22.766  34.416   5.889
 5932POPC   C1A74907  23.171  34.585   6.167
 5932POPC   D2A74908  23.349  34.403   6.578
 5932POPC   C3A74909  23.106  34.522   6.989
 5932POPC   C4A74910  22.900  34.743   7.388
 5932POPC   C1B74911  22.621  34.663   6.257
 5932POPC   C2B74912  22.670  34.768   6.690
 5932POPC   C3B74913  22.594  34.516   7.035
 5932POPC   C4B74914  22.590  34.322   7.430
 5933POPC   NC374915  41.112  26.830   5.485
 5933POPC   PO474916  40.471  26.682   5.180
 5933POPC   GL174917  40.636  26.905   5.634
 5933POPC   GL274918  40.424  27.212   5.668
 5933POPC   C1A74919  40.716  26.706   6.108
 5933POPC   D2A74920  40.601  26.672   6.574
 5933POPC   C3A74921  40.877  26.741   6.940
 5933POPC   C4A74922  40.809  27.063   7.259
 5933POPC   C1B74923  40.564  27.184   6.095
 5933POPC   C2B74924  40.531  27.218   6.545
 5933POPC   C3B74925  40.406  27.009   6.919
 5933POPC   C4B74926  40.277  27.177   7.316
 5934POPC   NC374927  20.987  21.317   5.534
 5934POPC   PO474928  21.217  21.770   4.990
 5934POPC   GL174929  21.300  21.711   5.553
 5934POPC   GL274930  21.486  21.363   5.684
 5934POPC   C1A74931  21.252  21.572   6.070
 5934POPC   D2A74932  21.372  21.414   6.498
 5934POPC   C3A74933  21.175  21.351   6.927
 5934POPC   C4A74934  21.268  21.615   7.281
 5934POPC   C1B74935  21.494  21.088   6.096
 5934POPC   C2B74936  21.785  21.035   6.480
 5934POPC   C3B74937  21.862  21.056   6.952
 5934POPC   C4B74938  21.557  21.214   7.283
 5935POPC   NC374939   8.175  30.217   5.614
 5935POPC   PO474940   7.857  29.653   5.412
 5935POPC   GL174941   7.966  29.666   5.871
 5935POPC   GL274942   8.332  29.683   5.902
 5935POPC   C1A74943   8.055  29.841   6.332
 5935POPC   D2A74944   7.967  30.077   6.752
 5935POPC   C3A74945   7.983  29.765   7.088
 5935POPC   C4A74946   8.240  29.766   7.414
 5935POPC   C1B74947   8.533  29.975   6.186
 5935POPC   C2B74948   8.466  30.187   6.565
 5935POPC   C3B74949   8.427  30.039   6.984
 5935POPC   C4B74950   8.512  30.181   7.388
 5936POPC   NC374951   5.186  19.391   5.626
 5936POPC   PO474952   4.896  18.956   5.141
 5936POPC   GL174953   4.911  18.889   5.674
 5936POPC   GL274954   5.236  18.853   5.841
 5936POPC   C1A74955   4.864  19.077   6.145
 5936POPC   D2A74956   4.758  19.012   6.577
 5936POPC   C3A74957   5.063  19.163   6.875
 5936POPC   C4A74958   4.954  19.192   7.303
 5936POPC   C1B74959   5.370  18.872   6.278
 5936POPC   C2B74960   5.544  18.836   6.710
 5936POPC   C3B74961   5.363  18.814   7.132
 5936POPC   C4B74962   5.446  19.150   7.418
 5937POPC   NC374963  14.097  28.575   5.495
 5937POPC   PO474964  13.426  28.548   5.361
 5937POPC   GL174965  13.494  28.298   5.712
 5937POPC   GL274966  13.565  28.566   5.922
 5937POPC   C1A74967  13.347  28.164   6.131
 5937POPC   D2A74968  13.323  28.411   6.488
 5937POPC   C3A74969  13.580  28.296   6.837
 5937POPC   C4A74970  13.368  28.177   7.193
 5937POPC   C1B74971  13.829  28.581   6.273
 5937POPC   C2B74972  14.069  28.570   6.632
 5937POPC   C3B74973  13.969  28.673   7.038
 5937POPC   C4B74974  13.635  28.620   7.313
 5938POPC   NC374975  13.366  17.830   5.387
 5938POPC   PO474976  13.894  17.468   5.561
 5938POPC   GL174977  13.648  17.383   5.917
 5938POPC   GL274978  13.513  17.715   5.879
 5938POPC   C1A74979  13.389  17.257   6.289
 5938POPC   D2A74980  13.159  17.584   6.533
 5938POPC   C3A74981  13.355  17.608   6.933
 5938POPC   C4A74982  13.406  17.374   7.309
 5938POPC   C1B74983  13.602  17.718   6.319
 5938POPC   C2B74984  13.750  17.418   6.648
 5938POPC   C3B74985  13.857  17.480   7.100
 5938POPC   C4B74986  13.857  17.635   7.550
 5939POPC   NC374987   0.313  26.612   5.587
 5939POPC   PO474988   0.941  26.831   5.461
 5939POPC   GL174989   0.689  26.857   5.852
 5939POPC   GL274990   0.693  26.498   5.962
 5939POPC   C1A74991   0.386  26.815   6.240
 5939POPC   D2A74992   0.455  26.949   6.678
 5939POPC   C3A74993   0.224  26.809   7.061
 5939POPC   C4A74994   0.173  27.012   7.476
 5939POPC   C1B74995   0.903  26.732   6.302
 5939POPC   C2B74996   1.020  26.688   6.719
 5939POPC   C3B74997   0.846  26.573   7.096
 5939POPC   C4B74998   0.678  26.930   7.298
 5940POPC   NC374999   0.108  34.050   5.509
 5940POPC   PO475000   0.806  33.831   5.390
 5940POPC   GL175001   0.739  33.822   5.840
 5940POPC   GL275002   0.363  33.809   5.869
 5940POPC   C1A75003   0.643  33.540   6.192
 5940POPC   D2A75004   0.481  33.466   6.582
 5940POPC   C3A75005   0.471  33.766   6.897
 5940POPC   C4A75006   0.341  33.753   7.296
 5940POPC   C1B75007   0.374  33.953   6.269
 5940POPC   C2B75008   0.735  33.978   6.506
 5940POPC   C3B75009   0.696  34.228   6.870
 5940POPC   C4B75010   0.757  34.100   7.297
 5941POPC   NC375011  10.649   5.455   5.471
 5941POPC   PO475012  10.760   4.868   5.477
 5941POPC   GL175013  10.542   5.048   5.859
 5941POPC   GL275014  10.192   4.952   5.865
 5941POPC   C1A75015  10.459   4.808   6.286
 5941POPC   D2A75016  10.711   4.737   6.659
 5941POPC   C3A75017  10.607   4.955   7.005
 5941POPC   C4A75018  10.585   5.326   7.265
 5941POPC   C1B75019  10.001   5.014   6.277
 5941POPC   C2B75020  10.203   5.040   6.687
 5941POPC   C3B75021  10.129   5.116   7.120
 5941POPC   C4B75022   9.813   5.219   7.437
 5942POPC   NC375023  10.421  26.242   5.433
 5942POPC   PO475024  10.710  25.606   5.456
 5942POPC   GL175025  10.555  25.899   5.786
 5942POPC   GL275026  10.258  26.159   5.888
 5942POPC   C1A75027  10.743  26.136   6.127
 5942POPC   D2A75028  10.770  26.000   6.542
 5942POPC   C3A75029  10.876  26.225   6.930
 5942POPC   C4A75030  10.808  25.970   7.296
 5942POPC   C1B75031  10.294  25.907   6.225
 5942POPC   C2B75032  10.343  25.719   6.613
 5942POPC   C3B75033  10.404  25.969   6.962
 5942POPC   C4B75034  10.194  26.069   7.323
 5943POPC   NC375035  41.078  13.706   5.498
 5943POPC   PO475036  40.430  13.583   5.452
 5943POPC   GL175037  40.720  13.576   5.848
 5943POPC   GL275038  40.840  13.939   5.889
 5943POPC   C1A75039  40.817  13.346   6.264
 5943POPC   D2A75040  40.882  13.541   6.676
 5943POPC   C3A75041  40.945  13.347   7.088
 5943POPC   C4A75042  40.570  13.214   7.312
 5943POPC   C1B75043  40.823  13.901   6.307
 5943POPC   C2B75044  41.073  14.021   6.670
 5943POPC   C3B75045  40.904  13.885   7.059
 5943POPC   C4B75046  41.093  13.732   7.411
 5944POPC   NC375047  15.758  14.291   5.525
 5944POPC   PO475048  16.218  14.781   5.479
 5944POPC   GL175049  16.044  14.586   5.842
 5944POPC   GL275050  15.662  14.656   5.890
 5944POPC   C1A75051  16.134  14.565   6.289
 5944POPC   D2A75052  15.888  14.673   6.660
 5944POPC   C3A75053  15.969  14.466   7.056
 5944POPC   C4A75054  16.388  14.411   7.234
 5944POPC   C1B75055  15.637  14.374   6.278
 5944POPC   C2B75056  15.519  14.333   6.734
 5944POPC   C3B75057  15.451  14.300   7.154
 5944POPC   C4B75058  15.722  14.211   7.495
 5945POPC   NC375059  22.261   3.969   5.032
 5945POPC   PO475060  22.703   3.639   5.337
 5945POPC   GL175061  22.252   3.564   5.741
 5945POPC   GL275062  21.971   3.286   5.910
 5945POPC   C1A75063  22.223   3.561   6.238
 5945POPC   D2A75064  21.959   3.722   6.627
 5945POPC   C3A75065  22.061   3.641   7.062
 5945POPC   C4A75066  22.514   3.700   7.184
 5945POPC   C1B75067  21.828   3.261   6.353
 5945POPC   C2B75068  22.162   3.237   6.666
 5945POPC   C3B75069  22.370   3.230   7.059
 5945POPC   C4B75070  22.064   3.170   7.324
 5946POPC   NC375071  30.572  44.207   5.544
 5946POPC   PO475072  30.822  43.664   5.399
 5946POPC   GL175073  30.551  43.752   5.762
 5946POPC   GL275074  30.836  43.779   5.932
 5946POPC   C1A75075  30.458  43.931   6.209
 5946POPC   D2A75076  30.558  43.725   6.568
 5946POPC   C3A75077  30.591  43.924   6.942
 5946POPC   C4A75078  30.580  43.729   7.369
 5946POPC   C1B75079  30.994  43.555   6.275
 5946POPC   C2B75080  30.987  43.446   6.681
 5946POPC   C3B75081  30.706  43.430   6.971
 5946POPC   C4B75082  30.901  43.329   7.275
 5947POPC   NC375083  26.540  41.868   5.423
 5947POPC   PO475084  26.775  42.459   5.425
 5947POPC   GL175085  26.728  42.282   5.794
 5947POPC   GL275086  26.443  42.536   5.867
 5947POPC   C1A75087  26.909  42.390   6.208
 5947POPC   D2A75088  27.064  42.455   6.619
 5947POPC   C3A75089  26.888  42.212   6.957
 5947POPC   C4A75090  26.687  42.305   7.338
 5947POPC   C1B75091  26.437  42.210   6.197
 5947POPC   C2B75092  26.438  41.995   6.581
 5947POPC   C3B75093  26.343  42.133   7.005
 5947POPC   C4B75094  26.322  41.917   7.411
 5948POPC   NC375095  25.741  16.291   5.329
 5948POPC   PO475096  25.526  15.713   5.386
 5948POPC   GL175097  25.433  15.654   5.810
 5948POPC   GL275098  25.487  16.004   5.808
 5948POPC   C1A75099  25.106  15.722   6.148
 5948POPC   D2A75100  24.938  16.091   6.361
 5948POPC   C3A75101  25.018  16.054   6.798
 5948POPC   C4A75102  25.233  15.951   7.183
 5948POPC   C1B75103  25.585  15.934   6.220
 5948POPC   C2B75104  25.585  16.298   6.478
 5948POPC   C3B75105  25.479  16.273   6.889
 5948POPC   C4B75106  25.664  16.269   7.289
 5949POPC   NC375107   1.344   7.107   5.245
 5949POPC   PO475108   1.418   6.413   5.305
 5949POPC   GL175109   1.355   6.740   5.659
 5949POPC   GL275110   1.007   6.686   5.807
 5949POPC   C1A75111   1.401   6.854   6.106
 5949POPC   D2A75112   1.497   6.738   6.535
 5949POPC   C3A75113   1.259   6.954   6.824
 5949POPC   C4A75114   1.200   6.983   7.259
 5949POPC   C1B75115   1.151   6.415   6.176
 5949POPC   C2B75116   1.076   6.411   6.632
 5949POPC   C3B75117   1.221   6.481   7.060
 5949POPC   C4B75118   0.959   6.563   7.416
 5950POPC   NC375119   8.843  44.843   5.181
 5950POPC   PO475120   9.338  44.440   5.187
 5950POPC   GL175121   9.102  44.551   5.598
 5950POPC   GL275122   8.726  44.612   5.662
 5950POPC   C1A75123   9.213  44.668   6.031
 5950POPC   D2A75124   9.251  44.903   6.428
 5950POPC   C3A75125   8.896  44.852   6.684
 5950POPC   C4A75126   8.835  44.798   7.130
 5950POPC   C1B75127   8.718  44.756   6.106
 5950POPC   C2B75128   8.912  44.438   6.390
 5950POPC   C3B75129   8.880  44.347   6.828
 5950POPC   C4B75130   8.596  44.333   7.196
 5951POPC   NC375131   5.878   3.155   5.245
 5951POPC   PO475132   5.606   2.523   5.150
 5951POPC   GL175133   5.783   2.754   5.589
 5951POPC   GL275134   5.975   3.051   5.740
 5951POPC   C1A75135   5.861   2.673   6.058
 5951POPC   D2A75136   5.761   2.639   6.508
 5951POPC   C3A75137   5.716   2.782   6.920
 5951POPC   C4A75138   5.877   2.506   7.219
 5951POPC   C1B75139   6.238   3.001   6.168
 5951POPC   C2B75140   6.115   3.000   6.619
 5951POPC   C3B75141   6.225   2.866   7.048
 5951POPC   C4B75142   6.175   2.776   7.521
 5952POPC   NC375143  40.804   4.057   5.503
 5952POPC   PO475144  40.386   4.628   5.492
 5952POPC   GL175145  40.599   4.423   5.807
 5952POPC   GL275146  40.962   4.513   5.747
 5952POPC   C1A75147  40.725   4.389   6.218
 5952POPC   D2A75148  40.658   4.642   6.572
 5952POPC   C3A75149  40.693   4.368   6.898
 5952POPC   C4A75150  40.538   4.195   7.254
 5952POPC   C1B75151  41.233   4.460   6.092
 5952POPC   C2B75152  41.184   4.382   6.507
 5952POPC   C3B75153  41.209   4.340   6.924
 5952POPC   C4B75154  40.999   4.369   7.309
 5953POPC   NC375155   7.385  31.678   5.365
 5953POPC   PO475156   7.186  30.983   5.437
 5953POPC   GL175157   7.249  31.300   5.761
 5953POPC   GL275158   7.451  31.577   5.857
 5953POPC   C1A75159   7.100  31.430   6.188
 5953POPC   D2A75160   7.150  31.267   6.590
 5953POPC   C3A75161   7.214  31.533   6.982
 5953POPC   C4A75162   7.282  31.388   7.428
 5953POPC   C1B75163   7.752  31.596   6.179
 5953POPC   C2B75164   7.984  31.575   6.537
 5953POPC   C3B75165   7.904  31.424   6.928
 5953POPC   C4B75166   7.734  31.574   7.258
 5954POPC   NC375167  32.869  12.784   5.375
 5954POPC   PO475168  33.539  12.919   5.529
 5954POPC   GL175169  33.171  12.771   5.835
 5954POPC   GL275170  32.810  12.974   5.856
 5954POPC   C1A75171  33.000  12.693   6.289
 5954POPC   D2A75172  32.864  12.643   6.750
 5954POPC   C3A75173  33.037  12.961   7.025
 5954POPC   C4A75174  33.215  13.273   7.328
 5954POPC   C1B75175  32.597  13.041   6.268
 5954POPC   C2B75176  32.614  13.114   6.697
 5954POPC   C3B75177  32.493  12.982   7.074
 5954POPC   C4B75178  32.644  12.624   7.238
 5955POPC   NC375179  23.436   2.419   5.553
 5955POPC   PO475180  23.954   2.830   5.458
 5955POPC   GL175181  23.821   2.630   5.798
 5955POPC   GL275182  23.564   2.897   5.847
 5955POPC   C1A75183  23.711   2.522   6.209
 5955POPC   D2A75184  23.647   2.798   6.562
 5955POPC   C3A75185  23.789   2.690   6.938
 5955POPC   C4A75186  23.652   2.702   7.334
 5955POPC   C1B75187  23.398   3.093   6.238
 5955POPC   C2B75188  23.174   3.003   6.611
 5955POPC   C3B75189  23.371   2.996   6.997
 5955POPC   C4B75190  23.352   3.120   7.438
 5956POPC   NC375191  33.531   1.915   5.581
 5956POPC   PO475192  33.014   1.604   5.541
 5956POPC   GL175193  32.916   1.876   5.914
 5956POPC   GL275194  33.065   2.244   5.875
 5956POPC   C1A75195  33.012   2.003   6.356
 5956POPC   D2A75196  32.863   2.368   6.597
 5956POPC   C3A75197  32.708   2.234   7.007
 5956POPC   C4A75198  32.679   1.793   7.078
 5956POPC   C1B75199  33.428   2.286   6.191
 5956POPC   C2B75200  33.448   2.146   6.636
 5956POPC   C3B75201  33.153   2.011   6.920
 5956POPC   C4B75202  33.160   1.795   7.300
 5957POPC   NC375203  43.012   5.275   5.354
 5957POPC   PO475204  43.512   4.922   5.456
 5957POPC   GL175205  43.212   5.100   5.802
 5957POPC   GL275206  42.885   5.335   5.832
 5957POPC   C1A75207  43.022   4.982   6.168
 5957POPC   D2A75208  42.850   4.974   6.532
 5957POPC   C3A75209  43.087   5.127   6.850
 5957POPC   C4A75210  43.048   4.965   7.238
 5957POPC   C1B75211  42.940   5.512   6.227
 5957POPC   C2B75212  43.067   5.625   6.633
 5957POPC   C3B75213  42.927   5.593   7.058
 5957POPC   C4B75214  43.308   5.434   7.237
 5958POPC   NC375215  25.103  26.657   5.482
 5958POPC   PO475216  25.483  27.291   5.485
 5958POPC   GL175217  25.394  26.986   5.825
 5958POPC   GL275218  25.012  26.893   5.918
 5958POPC   C1A75219  25.360  26.980   6.274
 5958POPC   D2A75220  25.013  26.860   6.564
 5958POPC   C3A75221  25.121  26.949   6.997
 5958POPC   C4A75222  25.501  26.799   7.215
 5958POPC   C1B75223  25.158  26.512   6.146
 5958POPC   C2B75224  25.103  26.329   6.555
 5958POPC   C3B75225  25.189  26.433   6.953
 5958POPC   C4B75226  25.094  26.501   7.335
 5959POPC   NC375227  42.280  38.105   5.476
 5959POPC   PO475228  42.706  38.649   5.649
 5959POPC   GL175229  42.426  38.415   5.855
 5959POPC   GL275230  42.638  38.148   5.863
 5959POPC   C1A75231  42.413  38.455   6.282
 5959POPC   D2A75232  42.517  38.751   6.616
 5959POPC   C3A75233  42.452  38.554   7.029
 5959POPC   C4A75234  42.572  38.445   7.444
 5959POPC   C1B75235  42.662  37.991   6.283
 5959POPC   C2B75236  42.474  38.068   6.722
 5959POPC   C3B75237  42.724  38.012   7.133
 5959POPC   C4B75238  42.573  37.973   7.593
 5960POPC   NC375239  43.717  31.976   5.491
 5960POPC   PO475240  43.946  31.370   5.230
 5960POPC   GL175241  43.867  31.489   5.690
 5960POPC   GL275242  44.179  31.557   5.806
 5960POPC   C1A75243  43.773  31.541   6.175
 5960POPC   D2A75244  43.700  31.621   6.636
 5960POPC   C3A75245  43.647  31.386   7.030
 5960POPC   C4A75246  43.658  31.535   7.474
 5960POPC   C1B75247  44.272  31.648   6.229
 5960POPC   C2B75248  44.196  31.377   6.566
 5960POPC   C3B75249  44.129  31.479   6.993
 5960POPC   C4B75250  44.318  31.817   7.173
 5961POPC   NC375251  35.771  14.583   5.388
 5961POPC   PO475252  36.427  14.398   5.448
 5961POPC   GL175253  36.217  14.438   5.846
 5961POPC   GL275254  35.969  14.713   5.848
 5961POPC   C1A75255  36.242  14.397   6.311
 5961POPC   D2A75256  36.233  14.680   6.636
 5961POPC   C3A75257  36.441  14.539   6.967
 5961POPC   C4A75258  36.219  14.423   7.328
 5961POPC   C1B75259  35.772  14.483   6.178
 5961POPC   C2B75260  35.817  14.366   6.603
 5961POPC   C3B75261  35.670  14.163   6.947
 5961POPC   C4B75262  35.690  14.339   7.327
 5962POPC   NC375263  18.490  42.002   5.526
 5962POPC   PO475264  18.212  41.319   5.507
 5962POPC   GL175265  18.352  41.592   5.805
 5962POPC   GL275266  18.621  41.413   5.855
 5962POPC   C1A75267  18.240  41.625   6.224
 5962POPC   D2A75268  18.156  41.375   6.577
 5962POPC   C3A75269  18.290  41.570   6.939
 5962POPC   C4A75270  18.059  41.417   7.239
 5962POPC   C1B75271  18.761  41.633   6.172
 5962POPC   C2B75272  18.643  41.736   6.567
 5962POPC   C3B75273  18.824  41.669   6.957
 5962POPC   C4B75274  18.609  41.804   7.279
 5963POPC   NC375275  10.230  25.540   5.505
 5963POPC   PO475276  10.662  24.934   5.346
 5963POPC   GL175277  10.607  25.005   5.847
 5963POPC   GL275278  10.545  25.371   5.878
 5963POPC   C1A75279  10.498  25.108   6.309
 5963POPC   D2A75280  10.236  25.195   6.668
 5963POPC   C3A75281  10.379  25.044   7.060
 5963POPC   C4A75282  10.444  25.168   7.490
 5963POPC   C1B75283  10.692  25.583   6.225
 5963POPC   C2B75284  10.801  25.466   6.662
 5963POPC   C3B75285  10.616  25.503   7.091
 5963POPC   C4B75286  10.807  25.512   7.524
 5964POPC   NC375287  30.438  37.930   5.375
 5964POPC   PO475288  31.091  37.962   5.503
 5964POPC   GL175289  30.823  37.746   5.808
 5964POPC   GL275290  30.534  37.945   5.905
 5964POPC   C1A75291  30.681  37.569   6.217
 5964POPC   D2A75292  30.432  37.606   6.596
 5964POPC   C3A75293  30.716  37.610   6.949
 5964POPC   C4A75294  30.729  37.329   7.261
 5964POPC   C1B75295  30.491  38.051   6.370
 5964POPC   C2B75296  30.437  38.035   6.872
 5964POPC   C3B75297  30.333  37.907   7.315
 5964POPC   C4B75298  30.294  37.937   7.807
 5965POPC   NC375299  14.923  17.282   5.377
 5965POPC   PO475300  15.530  17.687   5.373
 5965POPC   GL175301  15.539  17.487   5.786
 5965POPC   GL275302  15.166  17.466   5.848
 5965POPC   C1A75303  15.573  17.321   6.213
 5965POPC   D2A75304  15.263  17.335   6.531
 5965POPC   C3A75305  15.303  17.341   6.971
 5965POPC   C4A75306  15.659  17.405   7.266
 5965POPC   C1B75307  15.265  17.730   6.215
 5965POPC   C2B75308  15.120  17.816   6.632
 5965POPC   C3B75309  15.033  17.774   7.037
 5965POPC   C4B75310  15.232  17.621   7.408
 5966POPC   NC375311  37.136  41.318   5.280
 5966POPC   PO475312  36.762  41.898   5.408
 5966POPC   GL175313  36.905  41.772   5.827
 5966POPC   GL275314  37.192  41.556   5.757
 5966POPC   C1A75315  36.853  41.844   6.286
 5966POPC   D2A75316  36.975  41.550   6.615
 5966POPC   C3A75317  37.049  41.584   7.041
 5966POPC   C4A75318  36.926  41.959   7.240
 5966POPC   C1B75319  37.068  41.378   6.147
 5966POPC   C2B75320  37.324  41.192   6.528
 5966POPC   C3B75321  37.216  41.089   6.970
 5966POPC   C4B75322  37.261  41.167   7.450
 5967POPC   NC375323   8.386   3.753   5.460
 5967POPC   PO475324   7.938   3.149   5.457
 5967POPC   GL175325   8.051   3.344   5.839
 5967POPC   GL275326   8.415   3.361   5.777
 5967POPC   C1A75327   7.956   3.417   6.308
 5967POPC   D2A75328   8.196   3.645   6.618
 5967POPC   C3A75329   8.035   3.634   7.028
 5967POPC   C4A75330   7.823   3.380   7.290
 5967POPC   C1B75331   8.443   3.545   6.171
 5967POPC   C2B75332   8.570   3.310   6.549
 5967POPC   C3B75333   8.530   3.487   6.965
 5967POPC   C4B75334   8.423   3.645   7.370
 5968POPC   NC375335  37.162  36.949   5.189
 5968POPC   PO475336  37.616  37.326   5.565
 5968POPC   GL175337  37.707  36.941   5.804
 5968POPC   GL275338  38.061  36.865   5.923
 5968POPC   C1A75339  37.663  36.747   6.216
 5968POPC   D2A75340  37.659  36.879   6.623
 5968POPC   C3A75341  37.420  36.693   6.923
 5968POPC   C4A75342  37.679  36.432   7.152
 5968POPC   C1B75343  37.923  37.193   6.227
 5968POPC   C2B75344  37.739  37.374   6.604
 5968POPC   C3B75345  37.619  37.232   7.017
 5968POPC   C4B75346  37.909  37.105   7.346
 5969POPC   NC375347  31.265  22.094   5.501
 5969POPC   PO475348  31.884  22.273   5.685
 5969POPC   GL175349  31.549  22.205   5.903
 5969POPC   GL275350  31.319  22.447   5.869
 5969POPC   C1A75351  31.395  22.053   6.262
 5969POPC   D2A75352  31.471  21.771   6.561
 5969POPC   C3A75353  31.538  22.044   6.887
 5969POPC   C4A75354  31.553  22.252   7.267
 5969POPC   C1B75355  31.108  22.477   6.229
 5969POPC   C2B75356  31.058  22.231   6.594
 5969POPC   C3B75357  31.153  22.408   6.980
 5969POPC   C4B75358  31.069  22.410   7.398
 5970POPC   NC375359  17.936  38.571   5.393
 5970POPC   PO475360  18.516  38.249   5.432
 5970POPC   GL175361  18.337  38.460   5.762
 5970POPC   GL275362  18.280  38.797   5.700
 5970POPC   C1A75363  18.299  38.331   6.179
 5970POPC   D2A75364  18.590  38.289   6.518
 5970POPC   C3A75365  18.372  38.294   6.908
 5970POPC   C4A75366  18.180  38.270   7.289
 5970POPC   C1B75367  18.218  38.854   6.144
 5970POPC   C2B75368  18.364  38.760   6.556
 5970POPC   C3B75369  18.290  38.855   6.998
 5970POPC   C4B75370  18.073  38.752   7.382
 5971POPC   NC375371  40.723  39.421   5.470
 5971POPC   PO475372  40.258  38.994   5.350
 5971POPC   GL175373  40.579  39.061   5.774
 5971POPC   GL275374  40.934  39.210   5.872
 5971POPC   C1A75375  40.614  39.098   6.229
 5971POPC   D2A75376  40.775  38.923   6.607
 5971POPC   C3A75377  40.576  39.120   6.945
 5971POPC   C4A75378  40.606  39.009   7.352
 5971POPC   C1B75379  41.129  39.125   6.257
 5971POPC   C2B75380  40.994  39.371   6.584
 5971POPC   C3B75381  41.066  39.276   6.988
 5971POPC   C4B75382  40.825  39.459   7.304
 5972POPC   NC375383   5.865   8.612   5.156
 5972POPC   PO475384   6.223   9.018   5.573
 5972POPC   GL175385   5.935   8.783   5.852
 5972POPC   GL275386   5.683   8.497   5.803
 5972POPC   C1A75387   5.937   8.969   6.280
 5972POPC   D2A75388   6.177   8.957   6.686
 5972POPC   C3A75389   5.867   8.998   6.995
 5972POPC   C4A75390   5.499   9.257   7.055
 5972POPC   C1B75391   5.529   8.612   6.217
 5972POPC   C2B75392   5.684   8.686   6.635
 5972POPC   C3B75393   5.613   8.515   7.053
 5972POPC   C4B75394   5.449   8.554   7.485
 5973POPC   NC375395  24.285  26.277   5.173
 5973POPC   PO475396  24.638  26.817   5.467
 5973POPC   GL175397  24.496  26.796   5.887
 5973POPC   GL275398  24.597  26.461   5.931
 5973POPC   C1A75399  24.246  26.812   6.270
 5973POPC   D2A75400  24.340  27.044   6.616
 5973POPC   C3A75401  24.253  26.900   7.011
 5973POPC   C4A75402  24.659  26.823   7.238
 5973POPC   C1B75403  24.667  26.521   6.353
 5973POPC   C2B75404  24.638  26.578   6.792
 5973POPC   C3B75405  24.665  26.317   7.164
 5973POPC   C4B75406  24.603  26.359   7.597
 5974POPC   NC375407  26.467  18.514   5.493
 5974POPC   PO475408  25.977  18.085   5.240
 5974POPC   GL175409  25.870  18.056   5.753
 5974POPC   GL275410  26.169  18.241   5.855
 5974POPC   C1A75411  25.796  18.204   6.238
 5974POPC   D2A75412  26.026  18.503   6.575
 5974POPC   C3A75413  26.009  18.412   7.037
 5974POPC   C4A75414  25.832  18.167   7.367
 5974POPC   C1B75415  26.296  18.065   6.259
 5974POPC   C2B75416  26.084  17.999   6.675
 5974POPC   C3B75417  26.162  17.884   7.112
 5974POPC   C4B75418  26.341  18.199   7.416
 5975POPC   NC375419  38.233   3.786   5.433
 5975POPC   PO475420  38.777   3.394   5.336
 5975POPC   GL175421  38.544   3.466   5.703
 5975POPC   GL275422  38.727   3.646   5.944
 5975POPC   C1A75423  38.238   3.461   6.043
 5975POPC   D2A75424  38.426   3.597   6.422
 5975POPC   C3A75425  38.356   3.510   6.886
 5975POPC   C4A75426  38.199   3.358   7.284
 5975POPC   C1B75427  38.858   3.887   6.302
 5975POPC   C2B75428  38.860   3.647   6.684
 5975POPC   C3B75429  38.819   3.349   7.013
 5975POPC   C4B75430  38.661   3.563   7.393
 5976POPC   NC375431  44.476   6.460   5.048
 5976POPC   PO475432   0.003   6.848   5.283
 5976POPC   GL175433  44.800   6.667   5.677
 5976POPC   GL275434  44.740   6.310   5.684
 5976POPC   C1A75435  44.483   6.655   6.036
 5976POPC   D2A75436  44.350   6.822   6.438
 5976POPC   C3A75437  44.631   6.935   6.776
 5976POPC   C4A75438  44.616   6.861   7.230
 5976POPC   C1B75439  44.840   6.308   6.140
 5976POPC   C2B75440  44.763   6.483   6.556
 5976POPC   C3B75441  44.621   6.402   6.973
 5976POPC   C4B75442  44.765   6.044   7.267
 5977POPC   NC375443  25.532  18.137   5.371
 5977POPC   PO475444  24.840  18.263   5.179
 5977POPC   GL175445  25.029  18.241   5.660
 5977POPC   GL275446  25.282  17.963   5.767
 5977POPC   C1A75447  25.196  18.341   6.128
 5977POPC   D2A75448  25.298  18.112   6.534
 5977POPC   C3A75449  25.404  18.351   6.932
 5977POPC   C4A75450  25.091  18.521   7.217
 5977POPC   C1B75451  25.063  17.856   6.130
 5977POPC   C2B75452  24.785  17.896   6.494
 5977POPC   C3B75453  24.935  18.058   6.924
 5977POPC   C4B75454  24.821  18.100   7.361
 5978POPC   NC375455  38.627  33.396   5.372
 5978POPC   PO475456  38.371  34.038   5.464
 5978POPC   GL175457  38.616  33.815   5.790
 5978POPC   GL275458  38.437  33.482   5.845
 5978POPC   C1A75459  38.738  33.981   6.218
 5978POPC   D2A75460  38.582  34.114   6.653
 5978POPC   C3A75461  38.749  34.071   7.083
 5978POPC   C4A75462  38.459  33.928   7.415
 5978POPC   C1B75463  38.741  33.447   6.168
 5978POPC   C2B75464  38.768  33.606   6.569
 5978POPC   C3B75465  38.549  33.624   6.947
 5978POPC   C4B75466  38.640  33.426   7.332
 5979POPC   NC375467  24.286  27.233   5.468
 5979POPC   PO475468  24.649  27.795   5.259
 5979POPC   GL175469  24.459  27.668   5.687
 5979POPC   GL275470  24.264  27.950   5.803
 5979POPC   C1A75471  24.464  27.429   6.112
 5979POPC   D2A75472  24.676  27.593   6.510
 5979POPC   C3A75473  24.730  27.293   6.840
 5979POPC   C4A75474  24.499  27.307   7.169
 5979POPC   C1B75475  24.123  27.808   6.213
 5979POPC   C2B75476  24.167  27.909   6.640
 5979POPC   C3B75477  24.439  27.772   6.954
 5979POPC   C4B75478  24.809  27.866   7.128
 5980POPC   NC375479  44.160  34.246   5.662
 5980POPC   PO475480  43.692  33.879   5.384
 5980POPC   GL175481  43.691  33.713   5.794
 5980POPC   GL275482  43.489  33.972   5.993
 5980POPC   C1A75483  43.934  33.604   6.142
 5980POPC   D2A75484  43.772  33.851   6.479
 5980POPC   C3A75485  43.969  33.821   6.856
 5980POPC   C4A75486  44.052  34.092   7.208
 5980POPC   C1B75487  43.433  33.560   6.213
 5980POPC   C2B75488  43.657  33.339   6.558
 5980POPC   C3B75489  43.569  33.361   6.994
 5980POPC   C4B75490  43.597  33.779   7.194
 5981POPC   NC375491   8.746   0.876   5.665
 5981POPC   PO475492   8.824   0.285   5.332
 5981POPC   GL175493   8.879   0.386   5.827
 5981POPC   GL275494   8.920   0.700   6.098
 5981POPC   C1A75495   8.872   0.221   6.258
 5981POPC   D2A75496   8.988   0.466   6.601
 5981POPC   C3A75497   9.150   0.236   6.931
 5981POPC   C4A75498   8.963   0.270   7.282
 5981POPC   C1B75499   8.534   0.617   6.326
 5981POPC   C2B75500   8.445   0.676   6.751
 5981POPC   C3B75501   8.709   0.692   7.116
 5981POPC   C4B75502   9.166   0.724   7.228
 5982POPC   NC375503  13.118   6.211   5.549
 5982POPC   PO475504  13.729   6.129   5.249
 5982POPC   GL175505  13.748   6.398   5.720
 5982POPC   GL275506  13.979   6.676   5.726
 5982POPC   C1A75507  13.615   6.390   6.185
 5982POPC   D2A75508  13.456   6.318   6.631
 5982POPC   C3A75509  13.439   6.669   6.978
 5982POPC   C4A75510  13.578   6.633   7.433
 5982POPC   C1B75511  13.898   6.827   6.149
 5982POPC   C2B75512  13.729   6.754   6.556
 5982POPC   C3B75513  13.941   6.726   6.951
 5982POPC   C4B75514  13.781   7.038   7.200
 5983POPC   NC375515  29.392  22.511   5.447
 5983POPC   PO475516  28.958  22.043   5.407
 5983POPC   GL175517  28.972  22.053   5.839
 5983POPC   GL275518  29.315  22.096   5.859
 5983POPC   C1A75519  28.931  22.196   6.268
 5983POPC   D2A75520  29.094  22.387   6.633
 5983POPC   C3A75521  29.016  22.167   7.025
 5983POPC   C4A75522  28.947  21.747   7.082
 5983POPC   C1B75523  29.469  22.203   6.260
 5983POPC   C2B75524  29.630  22.295   6.648
 5983POPC   C3B75525  29.454  22.422   7.015
 5983POPC   C4B75526  29.272  22.327   7.451
 5984POPC   NC375527  23.238  44.165   5.224
 5984POPC   PO475528  22.778  43.782   5.407
 5984POPC   GL175529  22.759  43.808   5.846
 5984POPC   GL275530  23.105  43.844   5.926
 5984POPC   C1A75531  22.770  43.825   6.314
 5984POPC   D2A75532  23.009  43.674   6.668
 5984POPC   C3A75533  22.853  43.828   7.060
 5984POPC   C4A75534  22.769  44.283   7.117
 5984POPC   C1B75535  23.363  43.866   6.324
 5984POPC   C2B75536  23.534  43.624   6.692
 5984POPC   C3B75537  23.276  43.520   7.084
 5984POPC   C4B75538  23.159  43.617   7.514
 5985POPC   NC375539  11.069  27.523   5.323
 5985POPC   PO475540  11.749  27.601   5.187
 5985POPC   GL175541  11.493  27.627   5.629
 5985POPC   GL275542  11.222  27.801   5.716
 5985POPC   C1A75543  11.384  27.439   6.073
 5985POPC   D2A75544  11.631  27.389   6.469
 5985POPC   C3A75545  11.507  27.546   6.896
 5985POPC   C4A75546  11.557  27.394   7.276
 5985POPC   C1B75547  11.096  27.863   6.132
 5985POPC   C2B75548  11.220  27.751   6.529
 5985POPC   C3B75549  11.014  27.710   6.927
 5985POPC   C4B75550  10.930  28.021   7.248
 5986POPC   NC375551   2.799  40.842   5.442
 5986POPC   PO475552   2.122  41.146   5.645
 5986POPC   GL175553   2.488  41.020   5.818
 5986POPC   GL275554   2.556  40.640   5.829
 5986POPC   C1A75555   2.616  40.974   6.240
 5986POPC   D2A75556   2.513  40.791   6.633
 5986POPC   C3A75557   2.694  41.005   7.015
 5986POPC   C4A75558   2.635  40.998   7.491
 5986POPC   C1B75559   2.673  40.461   6.218
 5986POPC   C2B75560   2.728  40.286   6.612
 5986POPC   C3B75561   2.663  40.465   7.000
 5986POPC   C4B75562   2.898  40.611   7.285
 5987POPC   NC375563   7.644  15.359   5.551
 5987POPC   PO475564   7.063  15.183   5.312
 5987POPC   GL175565   7.271  15.068   5.746
 5987POPC   GL275566   7.178  15.365   5.945
 5987POPC   C1A75567   7.452  14.997   6.204
 5987POPC   D2A75568   7.426  15.114   6.641
 5987POPC   C3A75569   7.359  14.913   7.041
 5987POPC   C4A75570   7.711  15.003   7.258
 5987POPC   C1B75571   7.541  15.511   6.226
 5987POPC   C2B75572   7.686  15.545   6.659
 5987POPC   C3B75573   7.484  15.465   7.079
 5987POPC   C4B75574   7.446  15.490   7.541
 5988POPC   NC375575   5.230   9.857   5.563
 5988POPC   PO475576   4.838   9.359   5.538
 5988POPC   GL175577   4.919   9.603   5.933
 5988POPC   GL275578   4.861   9.952   5.938
 5988POPC   C1A75579   4.957   9.692   6.395
 5988POPC   D2A75580   5.275   9.622   6.738
 5988POPC   C3A75581   5.142   9.682   7.161
 5988POPC   C4A75582   4.821   9.921   7.391
 5988POPC   C1B75583   5.302   9.985   6.182
 5988POPC   C2B75584   5.295  10.133   6.625
 5988POPC   C3B75585   5.443  10.095   7.049
 5988POPC   C4B75586   5.287  10.073   7.489
 5989POPC   NC375587  19.579  14.443   5.384
 5989POPC   PO475588  20.214  14.130   5.457
 5989POPC   GL175589  19.962  14.205   5.810
 5989POPC   GL275590  20.005  14.566   5.892
 5989POPC   C1A75591  19.970  14.226   6.278
 5989POPC   D2A75592  20.207  14.245   6.684
 5989POPC   C3A75593  19.986  14.547   6.953
 5989POPC   C4A75594  19.774  14.476   7.328
 5989POPC   C1B75595  19.610  14.603   6.096
 5989POPC   C2B75596  19.602  14.529   6.538
 5989POPC   C3B75597  19.442  14.450   6.949
 5989POPC   C4B75598  19.265  14.537   7.378
 5990POPC   NC375599   2.182  27.187   5.504
 5990POPC   PO475600   2.412  26.646   5.552
 5990POPC   GL175601   2.128  26.538   5.830
 5990POPC   GL275602   2.172  26.885   5.949
 5990POPC   C1A75603   1.879  26.486   6.198
 5990POPC   D2A75604   1.873  26.688   6.582
 5990POPC   C3A75605   1.973  26.500   6.959
 5990POPC   C4A75606   1.762  26.709   7.308
 5990POPC   C1B75607   2.382  27.076   6.291
 5990POPC   C2B75608   2.119  27.149   6.633
 5990POPC   C3B75609   2.131  26.987   7.042
 5990POPC   C4B75610   2.099  27.198   7.395
 5991POPC   NC375611  33.222  24.884   5.322
 5991POPC   PO475612  32.969  25.501   5.519
 5991POPC   GL175613  32.989  25.262   5.896
 5991POPC   GL275614  32.764  24.974   5.796
 5991POPC   C1A75615  33.080  25.349   6.350
 5991POPC   D2A75616  33.294  25.530   6.717
 5991POPC   C3A75617  33.183  25.271   7.070
 5991POPC   C4A75618  32.784  25.353   7.241
 5991POPC   C1B75619  32.865  24.895   6.248
 5991POPC   C2B75620  32.895  25.005   6.708
 5991POPC   C3B75621  32.848  24.855   7.143
 5991POPC   C4B75622  33.164  24.897   7.447
 5992POPC   NC375623   4.933  17.792   5.058
 5992POPC   PO475624   5.099  17.220   5.346
 5992POPC   GL175625   4.983  17.237   5.780
 5992POPC   GL275626   5.299  17.428   5.840
 5992POPC   C1A75627   4.924  17.386   6.203
 5992POPC   D2A75628   5.182  17.464   6.564
 5992POPC   C3A75629   5.143  17.180   6.903
 5992POPC   C4A75630   5.123  17.193   7.344
 5992POPC   C1B75631   5.269  17.777   6.139
 5992POPC   C2B75632   5.411  17.922   6.570
 5992POPC   C3B75633   5.373  17.769   7.001
 5992POPC   C4B75634   5.466  17.572   7.397
 5993POPC   NC375635  34.367  25.589   5.408
 5993POPC   PO475636  34.430  24.911   5.290
 5993POPC   GL175637  34.365  25.108   5.704
 5993POPC   GL275638  34.588  25.392   5.834
 5993POPC   C1A75639  34.244  25.193   6.146
 5993POPC   D2A75640  34.405  25.423   6.469
 5993POPC   C3A75641  34.367  25.244   6.860
 5993POPC   C4A75642  34.345  25.175   7.268
 5993POPC   C1B75643  34.837  25.305   6.228
 5993POPC   C2B75644  34.865  25.392   6.680
 5993POPC   C3B75645  34.840  25.384   7.130
 5993POPC   C4B75646  35.125  25.256   7.484
 5994POPC   NC375647  19.622  40.840   5.482
 5994POPC   PO475648  20.131  40.330   5.371
 5994POPC   GL175649  19.967  40.584   5.751
 5994POPC   GL275650  19.946  40.967   5.850
 5994POPC   C1A75651  19.749  40.544   6.162
 5994POPC   D2A75652  19.944  40.575   6.564
 5994POPC   C3A75653  19.744  40.561   6.959
 5994POPC   C4A75654  20.042  40.549   7.268
 5994POPC   C1B75655  19.557  41.020   6.130
 5994POPC   C2B75656  19.514  40.878   6.568
 5994POPC   C3B75657  19.567  41.056   6.988
 5994POPC   C4B75658  19.661  40.893   7.401
 5995POPC   NC375659  27.792   3.296   5.361
 5995POPC   PO475660  27.513   3.963   5.213
 5995POPC   GL175661  27.755   3.735   5.581
 5995POPC   GL275662  27.533   3.521   5.797
 5995POPC   C1A75663  27.955   3.612   6.019
 5995POPC   D2A75664  27.653   3.673   6.381
 5995POPC   C3A75665  27.666   3.653   6.845
 5995POPC   C4A75666  27.354   3.741   7.169
 5995POPC   C1B75667  27.630   3.213   6.106
 5995POPC   C2B75668  27.492   3.180   6.507
 5995POPC   C3B75669  27.629   3.096   6.903
 5995POPC   C4B75670  27.524   3.276   7.274
 5996POPC   NC375671   8.256  29.652   5.160
 5996POPC   PO475672   8.466  29.074   5.373
 5996POPC   GL175673   8.178  29.214   5.692
 5996POPC   GL275674   8.077  28.881   5.768
 5996POPC   C1A75675   8.160  29.250   6.153
 5996POPC   D2A75676   8.131  29.070   6.583
 5996POPC   C3A75677   8.298  29.343   6.900
 5996POPC   C4A75678   8.289  29.284   7.313
 5996POPC   C1B75679   7.994  28.739   6.189
 5996POPC   C2B75680   7.998  28.568   6.602
 5996POPC   C3B75681   7.911  28.765   6.986
 5996POPC   C4B75682   7.956  28.884   7.413
 5997POPC   NC375683   2.257  36.691   5.080
 5997POPC   PO475684   1.752  36.661   5.526
 5997POPC   GL175685   1.849  36.949   5.867
 5997POPC   GL275686   2.214  37.040   5.866
 5997POPC   C1A75687   1.710  37.054   6.302
 5997POPC   D2A75688   1.747  36.801   6.706
 5997POPC   C3A75689   1.969  36.837   7.111
 5997POPC   C4A75690   2.137  36.910   7.564
 5997POPC   C1B75691   2.145  36.791   6.285
 5997POPC   C2B75692   2.302  36.717   6.705
 5997POPC   C3B75693   2.372  36.460   7.073
 5997POPC   C4B75694   2.503  36.563   7.496
 5998POPC   NC375695  23.082  22.153   5.359
 5998POPC   PO475696  23.265  22.736   5.625
 5998POPC   GL175697  22.961  22.399   5.824
 5998POPC   GL275698  22.938  22.014   5.851
 5998POPC   C1A75699  23.060  22.269   6.266
 5998POPC   D2A75700  22.960  22.147   6.666
 5998POPC   C3A75701  23.125  22.305   7.011
 5998POPC   C4A75702  22.841  22.411   7.325
 5998POPC   C1B75703  22.763  21.842   6.252
 5998POPC   C2B75704  22.642  21.751   6.670
 5998POPC   C3B75705  22.630  22.001   7.070
 5998POPC   C4B75706  22.684  21.977   7.541
 5999POPC   NC375707  39.439  11.773   5.499
 5999POPC   PO475708  38.993  11.263   5.445
 5999POPC   GL175709  39.258  11.368   5.813
 5999POPC   GL275710  39.544  11.567   5.952
 5999POPC   C1A75711  39.224  11.242   6.216
 5999POPC   D2A75712  39.327  10.987   6.532
 5999POPC   C3A75713  39.111  11.122   6.878
 5999POPC   C4A75714  38.950  10.970   7.241
 5999POPC   C1B75715  39.441  11.724   6.343
 5999POPC   C2B75716  39.137  11.578   6.607
 5999POPC   C3B75717  38.971  11.613   7.001
 5999POPC   C4B75718  39.218  11.421   7.289
 6000POPC   NC375719   0.876  44.451   5.576
 6000POPC   PO475720   0.192  44.546   5.413
 6000POPC   GL175721   0.333  44.846   5.734
 6000POPC   GL275722   0.459  44.552   5.868
 6000POPC   C1A75723   0.583  44.961   6.129
 6000POPC   D2A75724   0.622  44.692   6.509
 6000POPC   C3A75725   0.341  44.731   6.850
 6000POPC   C4A75726   0.549  44.816   7.224
 6000POPC   C1B75727   0.236  44.505   6.252
 6000POPC   C2B75728   0.265  44.275   6.591
 6000POPC   C3B75729   0.078  44.255   6.936
 6000POPC   C4B75730   0.219  44.401   7.271
 6001POPC   NC375731   5.203  12.243   5.480
 6001POPC   PO475732   4.656  11.856   5.473
 6001POPC   GL175733   4.822  12.081   5.793
 6001POPC   GL275734   5.098  11.856   5.833
 6001POPC   C1A75735   4.817  12.349   6.158
 6001POPC   D2A75736   4.799  12.106   6.518
 6001POPC   C3A75737   4.859  12.291   6.901
 6001POPC   C4A75738   4.837  12.078   7.286
 6001POPC   C1B75739   5.284  12.109   6.161
 6001POPC   C2B75740   5.291  12.173   6.596
 6001POPC   C3B75741   5.140  11.869   6.910
 6001POPC   C4B75742   5.293  11.823   7.324
 6002POPC   NC375743  22.453  38.843   5.574
 6002POPC   PO475744  23.050  39.161   5.364
 6002POPC   GL175745  22.856  39.146   5.758
 6002POPC   GL275746  22.998  39.468   5.826
 6002POPC   C1A75747  22.755  39.178   6.201
 6002POPC   D2A75748  22.887  39.350   6.585
 6002POPC   C3A75749  22.826  39.103   6.951
 6002POPC   C4A75750  22.872  39.166   7.395
 6002POPC   C1B75751  23.250  39.417   6.207
 6002POPC   C2B75752  23.362  39.511   6.635
 6002POPC   C3B75753  23.187  39.483   7.066
 6002POPC   C4B75754  23.100  39.611   7.508
 6003POPC   NC375755  31.747   6.102   5.131
 6003POPC   PO475756  31.255   5.648   5.359
 6003POPC   GL175757  31.358   5.683   5.801
 6003POPC   GL275758  31.673   5.485   5.865
 6003POPC   C1A75759  31.245   5.938   6.189
 6003POPC   D2A75760  31.465   6.100   6.551
 6003POPC   C3A75761  31.209   5.967   6.915
 6003POPC   C4A75762  31.439   6.098   7.248
 6003POPC   C1B75763  31.395   5.446   6.255
 6003POPC   C2B75764  31.477   5.600   6.672
 6003POPC   C3B75765  31.516   5.595   7.113
 6003POPC   C4B75766  31.269   5.684   7.501
 6004POPC   NC375767  11.833  27.289   5.504
 6004POPC   PO475768  12.223  26.756   5.437
 6004POPC   GL175769  12.015  26.695   5.763
 6004POPC   GL275770  11.700  26.818   5.659
 6004POPC   C1A75771  12.144  26.837   6.165
 6004POPC   D2A75772  12.257  26.970   6.575
 6004POPC   C3A75773  12.064  26.772   6.936
 6004POPC   C4A75774  12.181  27.002   7.304
 6004POPC   C1B75775  11.671  26.994   6.078
 6004POPC   C2B75776  11.733  26.860   6.508
 6004POPC   C3B75777  11.650  27.055   6.882
 6004POPC   C4B75778  11.682  26.906   7.261
 6005POPC   NC375779  42.091  31.303   5.403
 6005POPC   PO475780  42.633  31.660   5.255
 6005POPC   GL175781  42.361  31.716   5.647
 6005POPC   GL275782  42.402  31.410   5.791
 6005POPC   C1A75783  42.271  31.732   6.137
 6005POPC   D2A75784  42.432  31.792   6.559
 6005POPC   C3A75785  42.342  31.595   6.952
 6005POPC   C4A75786  42.446  31.649   7.379
 6005POPC   C1B75787  42.386  31.210   6.201
 6005POPC   C2B75788  42.308  30.997   6.585
 6005POPC   C3B75789  42.394  31.088   6.981
 6005POPC   C4B75790  42.378  30.909   7.358
 6006POPC   NC375791  14.933  36.275   5.704
 6006POPC   PO475792  14.460  35.886   5.302
 6006POPC   GL175793  14.440  36.010   5.761
 6006POPC   GL275794  14.215  36.274   5.842
 6006POPC   C1A75795  14.568  36.146   6.208
 6006POPC   D2A75796  14.723  36.010   6.594
 6006POPC   C3A75797  14.650  36.270   6.950
 6006POPC   C4A75798  14.589  36.084   7.345
 6006POPC   C1B75799  14.089  35.988   6.208
 6006POPC   C2B75800  14.175  36.172   6.598
 6006POPC   C3B75801  14.200  35.997   6.989
 6006POPC   C4B75802  14.072  36.112   7.388
 6007POPC   NC375803  41.847  10.666   5.477
 6007POPC   PO475804  41.222  10.401   5.459
 6007POPC   GL175805  41.456  10.483   5.815
 6007POPC   GL275806  41.410  10.789   5.953
 6007POPC   C1A75807  41.670  10.436   6.222
 6007POPC   D2A75808  41.705  10.672   6.603
 6007POPC   C3A75809  41.678  10.399   6.958
 6007POPC   C4A75810  41.789  10.469   7.387
 6007POPC   C1B75811  41.285  10.899   6.332
 6007POPC   C2B75812  41.171  10.927   6.751
 6007POPC   C3B75813  41.393  10.797   7.131
 6007POPC   C4B75814  41.577  10.905   7.509
 6008POPC   NC375815  22.125  25.606   5.406
 6008POPC   PO475816  22.467  25.052   5.359
 6008POPC   GL175817  22.220  25.187   5.731
 6008POPC   GL275818  21.994  25.462   5.867
 6008POPC   C1A75819  22.148  25.042   6.134
 6008POPC   D2A75820  22.181  25.155   6.555
 6008POPC   C3A75821  21.891  24.955   6.788
 6008POPC   C4A75822  21.904  24.875   7.203
 6008POPC   C1B75823  22.185  25.576   6.248
 6008POPC   C2B75824  21.988  25.622   6.657
 6008POPC   C3B75825  22.017  25.452   7.079
 6008POPC   C4B75826  22.009  25.677   7.472
 6009POPC   NC375827  38.982  15.384   5.518
 6009POPC   PO475828  39.467  14.966   5.400
 6009POPC   GL175829  39.251  15.064   5.803
 6009POPC   GL275830  38.899  14.934   5.808
 6009POPC   C1A75831  39.176  15.218   6.221
 6009POPC   D2A75832  39.304  15.071   6.628
 6009POPC   C3A75833  39.109  15.345   6.908
 6009POPC   C4A75834  39.202  15.411   7.341
 6009POPC   C1B75835  38.959  14.765   6.233
 6009POPC   C2B75836  38.796  14.926   6.625
 6009POPC   C3B75837  38.911  14.891   7.028
 6009POPC   C4B75838  39.209  14.882   7.321
 6010POPC   NC375839   7.105  24.026   5.387
 6010POPC   PO475840   7.397  24.684   5.308
 6010POPC   GL175841   7.209  24.486   5.646
 6010POPC   GL275842   7.462  24.657   5.816
 6010POPC   C1A75843   7.296  24.264   6.060
 6010POPC   D2A75844   7.615  24.386   6.368
 6010POPC   C3A75845   7.472  24.432   6.801
 6010POPC   C4A75846   7.600  24.341   7.212
 6010POPC   C1B75847   7.605  24.872   6.136
 6010POPC   C2B75848   7.606  24.881   6.555
 6010POPC   C3B75849   7.327  24.922   6.878
 6010POPC   C4B75850   7.349  24.774   7.286
 6011POPC   NC375851  25.878  15.461   5.245
 6011POPC   PO475852  26.523  15.181   5.394
 6011POPC   GL175853  26.237  15.307   5.732
 6011POPC   GL275854  25.871  15.213   5.728
 6011POPC   C1A75855  26.199  15.124   6.145
 6011POPC   D2A75856  25.948  15.018   6.490
 6011POPC   C3A75857  26.119  15.150   6.879
 6011POPC   C4A75858  26.206  15.146   7.325
 6011POPC   C1B75859  25.724  15.370   6.147
 6011POPC   C2B75860  25.740  15.480   6.589
 6011POPC   C3B75861  25.612  15.198   6.899
 6011POPC   C4B75862  25.707  15.078   7.291
 6012POPC   NC375863   1.431  31.997   5.410
 6012POPC   PO475864   1.209  32.566   5.197
 6012POPC   GL175865   1.216  32.609   5.701
 6012POPC   GL275866   1.215  32.257   5.805
 6012POPC   C1A75867   0.990  32.554   6.136
 6012POPC   D2A75868   1.155  32.282   6.484
 6012POPC   C3A75869   1.060  32.406   6.912
 6012POPC   C4A75870   0.930  32.397   7.333
 6012POPC   C1B75871   1.545  32.101   6.073
 6012POPC   C2B75872   1.549  31.953   6.483
 6012POPC   C3B75873   1.403  31.968   6.898
 6012POPC   C4B75874   1.448  32.293   7.220
 6013POPC   NC375875  27.785  14.613   5.134
 6013POPC   PO475876  27.206  14.451   5.442
 6013POPC   GL175877  27.377  14.334   5.845
 6013POPC   GL275878  27.262  14.054   6.034
 6013POPC   C1A75879  27.627  14.440   6.205
 6013POPC   D2A75880  27.818  14.427   6.606
 6013POPC   C3A75881  27.586  14.258   6.900
 6013POPC   C4A75882  27.648  14.454   7.293
 6013POPC   C1B75883  27.271  14.129   6.473
 6013POPC   C2B75884  27.292  14.561   6.602
 6013POPC   C3B75885  27.285  14.682   7.016
 6013POPC   C4B75886  27.224  14.647   7.485
 6014POPC   NC375887  37.637  14.528   5.291
 6014POPC   PO475888  37.455  13.888   5.175
 6014POPC   GL175889  37.599  14.075   5.642
 6014POPC   GL275890  37.844  14.359   5.737
 6014POPC   C1A75891  37.730  14.106   6.156
 6014POPC   D2A75892  37.811  14.325   6.604
 6014POPC   C3A75893  37.756  14.088   7.028
 6014POPC   C4A75894  37.507  14.046   7.396
 6014POPC   C1B75895  37.555  14.590   6.070
 6014POPC   C2B75896  37.362  14.580   6.518
 6014POPC   C3B75897  37.378  14.401   6.943
 6014POPC   C4B75898  37.595  14.545   7.315
 6015POPC   NC375899  25.164  11.714   5.471
 6015POPC   PO475900  25.674  11.273   5.189
 6015POPC   GL175901  25.530  11.427   5.681
 6015POPC   GL275902  25.169  11.445   5.889
 6015POPC   C1A75903  25.584  11.521   6.157
 6015POPC   D2A75904  25.297  11.474   6.539
 6015POPC   C3A75905  25.314  11.287   6.953
 6015POPC   C4A75906  25.357  10.893   7.178
 6015POPC   C1B75907  25.066  11.788   6.205
 6015POPC   C2B75908  25.044  11.913   6.650
 6015POPC   C3B75909  25.070  11.732   7.061
 6015POPC   C4B75910  25.341  11.570   7.390
 6016POPC   NC375911  30.408  10.955   5.602
 6016POPC   PO475912  30.861  11.473   5.448
 6016POPC   GL175913  30.817  11.398   5.872
 6016POPC   GL275914  30.867  11.071   5.934
 6016POPC   C1A75915  30.693  11.398   6.320
 6016POPC   D2A75916  30.785  11.606   6.697
 6016POPC   C3A75917  30.924  11.414   7.091
 6016POPC   C4A75918  30.498  11.395   7.152
 6016POPC   C1B75919  31.071  11.075   6.324
 6016POPC   C2B75920  30.839  11.080   6.700
 6016POPC   C3B75921  30.687  10.930   7.063
 6016POPC   C4B75922  31.066  10.773   7.234
 6017POPC   NC375923   0.997  23.400   5.401
 6017POPC   PO475924   1.447  22.928   5.551
 6017POPC   GL175925   1.339  22.740   5.919
 6017POPC   GL275926   1.041  22.588   5.814
 6017POPC   C1A75927   1.336  23.079   6.196
 6017POPC   D2A75928   1.382  23.285   6.555
 6017POPC   C3A75929   1.575  23.103   6.901
 6017POPC   C4A75930   1.393  23.173   7.296
 6017POPC   C1B75931   0.926  22.794   6.187
 6017POPC   C2B75932   1.209  22.759   6.566
 6017POPC   C3B75933   1.107  22.903   6.957
 6017POPC   C4B75934   0.904  23.079   7.319
 6018POPC   NC375935  37.886  13.736   5.286
 6018POPC   PO475936  37.525  13.332   5.589
 6018POPC   GL175937  37.668  13.617   5.873
 6018POPC   GL275938  38.014  13.776   5.778
 6018POPC   C1A75939  37.495  13.665   6.296
 6018POPC   D2A75940  37.376  14.025   6.571
 6018POPC   C3A75941  37.272  13.863   6.967
 6018POPC   C4A75942  37.504  13.566   7.195
 6018POPC   C1B75943  38.031  13.698   6.210
 6018POPC   C2B75944  37.884  13.830   6.606
 6018POPC   C3B75945  38.008  13.650   7.002
 6018POPC   C4B75946  37.935  13.760   7.422
 6019POPC   NC375947  14.929  32.101   5.629
 6019POPC   PO475948  15.530  32.355   5.517
 6019POPC   GL175949  15.333  32.400   5.903
 6019POPC   GL275950  15.385  32.084   6.058
 6019POPC   C1A75951  15.468  32.528   6.323
 6019POPC   D2A75952  15.517  32.214   6.611
 6019POPC   C3A75953  15.150  32.218   6.882
 6019POPC   C4A75954  15.088  32.504   7.210
 6019POPC   C1B75955  15.051  32.201   6.352
 6019POPC   C2B75956  14.751  31.931   6.586
 6019POPC   C3B75957  14.702  31.767   7.011
 6019POPC   C4B75958  14.950  32.009   7.323
 6020POPC   NC375959  10.239  28.796   5.196
 6020POPC   PO475960  10.684  28.259   5.049
 6020POPC   GL175961  10.644  28.201   5.564
 6020POPC   GL275962  10.642  28.527   5.769
 6020POPC   C1A75963  10.635  28.092   6.068
 6020POPC   D2A75964  10.831  28.113   6.531
 6020POPC   C3A75965  10.552  28.215   6.925
 6020POPC   C4A75966  10.475  28.185   7.399
 6020POPC   C1B75967  10.390  28.527   6.179
 6020POPC   C2B75968  10.293  28.633   6.607
 6020POPC   C3B75969  10.146  28.821   6.983
 6020POPC   C4B75970  10.176  28.603   7.392
 6021POPC   NC375971  16.241  22.936   5.471
 6021POPC   PO475972  15.612  22.843   5.423
 6021POPC   GL175973  15.894  22.713   5.756
 6021POPC   GL275974  15.980  23.027   5.918
 6021POPC   C1A75975  15.959  22.570   6.153
 6021POPC   D2A75976  15.883  22.592   6.564
 6021POPC   C3A75977  16.042  22.870   6.825
 6021POPC   C4A75978  16.029  22.842   7.244
 6021POPC   C1B75979  15.920  23.257   6.318
 6021POPC   C2B75980  15.897  23.373   6.745
 6021POPC   C3B75981  16.034  23.337   7.133
 6021POPC   C4B75982  15.832  23.374   7.538
 6022POPC   NC375983   2.343  27.763   5.445
 6022POPC   PO475984   1.816  27.448   5.571
 6022POPC   GL175985   2.071  27.649   5.853
 6022POPC   GL275986   2.026  28.024   5.796
 6022POPC   C1A75987   2.118  27.519   6.256
 6022POPC   D2A75988   2.143  27.692   6.632
 6022POPC   C3A75989   1.972  27.495   6.988
 6022POPC   C4A75990   2.188  27.686   7.329
 6022POPC   C1B75991   1.835  27.944   6.201
 6022POPC   C2B75992   1.695  27.945   6.602
 6022POPC   C3B75993   1.904  27.997   6.977
 6022POPC   C4B75994   1.701  27.789   7.315
 6023POPC   NC375995  37.238  40.312   5.474
 6023POPC   PO475996  36.893  40.919   5.268
 6023POPC   GL175997  37.043  41.026   5.699
 6023POPC   GL275998  36.763  41.256   5.706
 6023POPC   C1A75999  37.174  40.886   6.130
 6023POPC   D2A76000  37.172  40.665   6.518
 6023POPC   C3A76001  36.871  40.705   6.860
 6023POPC   C4A76002  37.039  40.693   7.254
 6023POPC   C1B76003  36.674  40.981   6.068
 6023POPC   C2B76004  36.819  41.069   6.487
 6023POPC   C3B76005  36.705  41.215   6.889
 6023POPC   C4B76006  36.768  41.105   7.302
 6024POPC   NC376007   3.516  30.722   5.326
 6024POPC   PO476008   4.180  30.633   5.413
 6024POPC   GL176009   3.796  30.625   5.765
 6024POPC   GL276010   3.394  30.553   5.779
 6024POPC   C1A76011   3.580  30.719   6.199
 6024POPC   D2A76012   3.589  30.525   6.604
 6024POPC   C3A76013   3.674  30.821   6.957
 6024POPC   C4A76014   3.708  30.835   7.418
 6024POPC   C1B76015   3.254  30.323   6.162
 6024POPC   C2B76016   3.076  30.473   6.557
 6024POPC   C3B76017   3.236  30.506   6.966
 6024POPC   C4B76018   3.220  30.788   7.276
 6025POPC   NC376019  42.728  12.215   5.454
 6025POPC   PO476020  43.387  11.913   5.354
 6025POPC   GL176021  43.262  11.836   5.785
 6025POPC   GL276022  42.920  11.862   5.750
 6025POPC   C1A76023  43.163  11.962   6.238
 6025POPC   D2A76024  43.143  12.360   6.512
 6025POPC   C3A76025  43.117  12.193   6.915
 6025POPC   C4A76026  43.315  11.853   7.135
 6025POPC   C1B76027  42.671  11.870   6.124
 6025POPC   C2B76028  42.729  12.051   6.556
 6025POPC   C3B76029  42.687  11.908   6.981
 6025POPC   C4B76030  42.852  12.035   7.374
 6026POPC   NC376031  31.610   5.219   5.337
 6026POPC   PO476032  31.374   4.665   5.499
 6026POPC   GL176033  31.594   4.951   5.800
 6026POPC   GL276034  31.297   5.146   5.829
 6026POPC   C1A76035  31.735   5.079   6.241
 6026POPC   D2A76036  31.498   5.098   6.664
 6026POPC   C3A76037  31.618   5.082   7.110
 6026POPC   C4A76038  31.608   5.285   7.525
 6026POPC   C1B76039  31.201   4.931   6.222
 6026POPC   C2B76040  31.058   4.822   6.645
 6026POPC   C3B76041  31.089   4.984   7.057
 6026POPC   C4B76042  31.255   4.908   7.463
 6027POPC   NC376043   3.367  11.717   5.397
 6027POPC   PO476044   3.799  12.216   5.533
 6027POPC   GL176045   3.649  12.099   5.899
 6027POPC   GL276046   3.741  11.780   5.870
 6027POPC   C1A76047   3.889  12.051   6.290
 6027POPC   D2A76048   3.964  12.091   6.727
 6027POPC   C3A76049   3.619  12.179   6.953
 6027POPC   C4A76050   3.430  12.328   7.292
 6027POPC   C1B76051   3.434  11.795   6.235
 6027POPC   C2B76052   3.369  11.799   6.681
 6027POPC   C3B76053   3.646  11.692   7.038
 6027POPC   C4B76054   3.656  11.891   7.441
 6028POPC   NC376055  13.428   3.774   5.418
 6028POPC   PO476056  13.979   4.097   5.719
 6028POPC   GL176057  13.687   3.752   5.890
 6028POPC   GL276058  13.541   3.440   5.799
 6028POPC   C1A76059  13.445   3.669   6.267
 6028POPC   D2A76060  13.640   3.765   6.668
 6028POPC   C3A76061  13.448   3.827   7.067
 6028POPC   C4A76062  13.602   3.784   7.458
 6028POPC   C1B76063  13.767   3.240   6.128
 6028POPC   C2B76064  13.703   3.239   6.584
 6028POPC   C3B76065  13.643   3.358   7.004
 6028POPC   C4B76066  13.350   3.374   7.333
 6029POPC   NC376067  25.069  38.897   5.640
 6029POPC   PO476068  25.620  39.229   5.350
 6029POPC   GL176069  25.409  39.439   5.669
 6029POPC   GL276070  25.634  39.283   5.902
 6029POPC   C1A76071  25.129  39.428   6.044
 6029POPC   D2A76072  25.261  39.425   6.479
 6029POPC   C3A76073  25.034  39.547   6.832
 6029POPC   C4A76074  25.220  39.395   7.197
 6029POPC   C1B76075  25.398  39.005   6.194
 6029POPC   C2B76076  25.100  38.860   6.493
 6029POPC   C3B76077  25.162  38.956   6.918
 6029POPC   C4B76078  25.002  38.885   7.324
 6030POPC   NC376079  29.674  31.261   5.236
 6030POPC   PO476080  30.271  31.277   5.394
 6030POPC   GL176081  30.023  31.524   5.739
 6030POPC   GL276082  29.660  31.607   5.625
 6030POPC   C1A76083  29.909  31.700   6.198
 6030POPC   D2A76084  29.923  31.805   6.684
 6030POPC   C3A76085  29.960  31.402   6.948
 6030POPC   C4A76086  30.002  31.190   7.352
 6030POPC   C1B76087  29.469  31.443   6.019
 6030POPC   C2B76088  29.514  31.478   6.486
 6030POPC   C3B76089  29.502  31.625   6.922
 6030POPC   C4B76090  29.634  31.542   7.344
 6031POPC   NC376091  29.063  26.393   5.469
 6031POPC   PO476092  28.873  25.741   5.465
 6031POPC   GL176093  29.054  25.875   5.876
 6031POPC   GL276094  29.323  26.117   5.858
 6031POPC   C1A76095  28.969  25.841   6.346
 6031POPC   D2A76096  29.342  25.948   6.598
 6031POPC   C3A76097  29.393  26.063   7.019
 6031POPC   C4A76098  29.012  26.068   7.231
 6031POPC   C1B76099  29.055  26.293   6.192
 6031POPC   C2B76100  28.905  26.279   6.638
 6031POPC   C3B76101  28.851  26.505   7.028
 6031POPC   C4B76102  29.238  26.528   7.196
 6032POPC   NC376103   5.304   4.490   5.601
 6032POPC   PO476104   5.009   3.814   5.569
 6032POPC   GL176105   5.023   4.158   5.905
 6032POPC   GL276106   5.363   4.256   6.062
 6032POPC   C1A76107   4.911   4.341   6.347
 6032POPC   D2A76108   4.834   4.545   6.785
 6032POPC   C3A76109   5.042   4.351   7.182
 6032POPC   C4A76110   5.253   3.957   7.266
 6032POPC   C1B76111   5.300   4.686   6.288
 6032POPC   C2B76112   5.341   4.869   6.737
 6032POPC   C3B76113   5.450   4.657   7.151
 6032POPC   C4B76114   5.363   4.474   7.585
 6033POPC   NC376115   4.307  25.739   5.186
 6033POPC   PO476116   4.507  25.062   5.343
 6033POPC   GL176117   4.440  25.278   5.784
 6033POPC   GL276118   4.075  25.202   5.922
 6033POPC   C1A76119   4.404  25.377   6.237
 6033POPC   D2A76120   4.088  25.180   6.542
 6033POPC   C3A76121   4.247  25.238   6.959
 6033POPC   C4A76122   4.534  25.293   7.290
 6033POPC   C1B76123   3.923  25.550   6.223
 6033POPC   C2B76124   4.170  25.706   6.588
 6033POPC   C3B76125   4.073  25.819   7.028
 6033POPC   C4B76126   4.117  25.598   7.412
 6034POPC   NC376127  24.937  39.732   5.106
 6034POPC   PO476128  25.523  40.025   5.417
 6034POPC   GL176129  25.222  39.962   5.782
 6034POPC   GL276130  25.145  40.314   5.929
 6034POPC   C1A76131  25.127  39.899   6.238
 6034POPC   D2A76132  25.253  40.235   6.526
 6034POPC   C3A76133  25.253  40.032   6.899
 6034POPC   C4A76134  25.366  39.926   7.277
 6034POPC   C1B76135  24.816  40.286   6.278
 6034POPC   C2B76136  24.776  40.083   6.684
 6034POPC   C3B76137  24.845  40.240   7.129
 6034POPC   C4B76138  24.821  40.307   7.576
 6035POPC   NC376139  34.565  19.579   5.535
 6035POPC   PO476140  34.222  20.157   5.416
 6035POPC   GL176141  34.486  19.995   5.812
 6035POPC   GL276142  34.350  19.678   5.976
 6035POPC   C1A76143  34.721  19.997   6.238
 6035POPC   D2A76144  34.998  20.053   6.657
 6035POPC   C3A76145  34.753  20.052   7.039
 6035POPC   C4A76146  34.529  19.972   7.455
 6035POPC   C1B76147  34.631  19.504   6.262
 6035POPC   C2B76148  34.610  19.709   6.656
 6035POPC   C3B76149  34.346  19.718   7.002
 6035POPC   C4B76150  34.639  19.530   7.218
 6036POPC   NC376151  26.595   5.367   5.480
 6036POPC   PO476152  26.851   4.841   5.111
 6036POPC   GL176153  26.760   4.893   5.619
 6036POPC   GL276154  26.993   5.115   5.754
 6036POPC   C1A76155  26.598   5.086   6.078
 6036POPC   D2A76156  26.503   5.270   6.510
 6036POPC   C3A76157  26.701   5.029   6.850
 6036POPC   C4A76158  26.784   5.131   7.271
 6036POPC   C1B76159  27.086   4.927   6.155
 6036POPC   C2B76160  27.155   4.841   6.611
 6036POPC   C3B76161  27.238   4.833   7.064
 6036POPC   C4B76162  27.205   4.880   7.524
 6037POPC   NC376163   7.882   0.939   5.500
 6037POPC   PO476164   8.286   1.518   5.394
 6037POPC   GL176165   8.345   1.334   5.842
 6037POPC   GL276166   8.695   1.288   5.962
 6037POPC   C1A76167   8.074   1.154   6.215
 6037POPC   D2A76168   8.032   0.948   6.633
 6037POPC   C3A76169   7.889   1.271   6.920
 6037POPC   C4A76170   7.845   1.477   7.293
 6037POPC   C1B76171   8.563   1.167   6.344
 6037POPC   C2B76172   8.417   1.298   6.737
 6037POPC   C3B76173   8.358   1.079   7.101
 6037POPC   C4B76174   8.540   1.008   7.514
 6038POPC   NC376175  14.260   7.101   5.392
 6038POPC   PO476176  14.669   7.626   5.259
 6038POPC   GL176177  14.412   7.743   5.826
 6038POPC   GL276178  14.132   7.505   5.818
 6038POPC   C1A76179  14.550   7.624   6.264
 6038POPC   D2A76180  14.668   7.321   6.620
 6038POPC   C3A76181  14.640   7.523   7.050
 6038POPC   C4A76182  14.553   7.571   7.503
 6038POPC   C1B76183  14.214   7.230   6.173
 6038POPC   C2B76184  14.185   7.025   6.574
 6038POPC   C3B76185  14.238   7.176   6.995
 6038POPC   C4B76186  14.178   7.219   7.457
 6039POPC   NC376187  41.384  17.189   5.556
 6039POPC   PO476188  41.747  16.611   5.464
 6039POPC   GL176189  41.629  16.787   5.865
 6039POPC   GL276190  41.260  16.783   5.882
 6039POPC   C1A76191  41.523  16.715   6.316
 6039POPC   D2A76192  41.542  16.865   6.747
 6039POPC   C3A76193  41.300  16.623   7.043
 6039POPC   C4A76194  41.487  16.429   7.383
 6039POPC   C1B76195  41.147  17.144   6.185
 6039POPC   C2B76196  41.272  17.304   6.609
 6039POPC   C3B76197  41.319  17.207   7.064
 6039POPC   C4B76198  41.541  16.928   7.382
 6040POPC   NC376199  24.516  38.660   5.358
 6040POPC   PO476200  24.265  38.101   5.252
 6040POPC   GL176201  24.416  38.269   5.739
 6040POPC   GL276202  24.657  38.554   5.836
 6040POPC   C1A76203  24.290  38.560   6.151
 6040POPC   D2A76204  24.531  38.664   6.552
 6040POPC   C3A76205  24.387  38.376   6.843
 6040POPC   C4A76206  24.325  38.306   7.282
 6040POPC   C1B76207  24.769  38.331   6.217
 6040POPC   C2B76208  24.883  38.259   6.666
 6040POPC   C3B76209  24.835  38.501   7.044
 6040POPC   C4B76210  24.496  38.803   7.136
 6041POPC   NC376211  44.382  25.142   5.466
 6041POPC   PO476212  44.882  25.528   5.256
 6041POPC   GL176213  44.785  25.428   5.700
 6041POPC   GL276214  44.735  25.094   5.820
 6041POPC   C1A76215  44.576  25.467   6.114
 6041POPC   D2A76216  44.707  25.378   6.531
 6041POPC   C3A76217  44.394  25.463   6.826
 6041POPC   C4A76218  44.469  25.561   7.261
 6041POPC   C1B76219  44.528  24.952   6.203
 6041POPC   C2B76220  44.497  24.952   6.661
 6041POPC   C3B76221  44.698  25.109   7.063
 6041POPC   C4B76222  44.569  24.834   7.414
 6042POPC   NC376223  39.272   2.129   5.385
 6042POPC   PO476224  39.223   1.500   5.448
 6042POPC   GL176225  39.158   1.849   5.804
 6042POPC   GL276226  39.313   2.210   5.868
 6042POPC   C1A76227  39.123   1.929   6.266
 6042POPC   D2A76228  38.924   1.881   6.663
 6042POPC   C3A76229  39.199   1.919   7.017
 6042POPC   C4A76230  39.047   1.994   7.414
 6042POPC   C1B76231  39.285   2.425   6.253
 6042POPC   C2B76232  39.100   2.356   6.645
 6042POPC   C3B76233  39.247   2.451   7.036
 6042POPC   C4B76234  39.432   2.343   7.434
 6043POPC   NC376235   8.116  20.192   5.318
 6043POPC   PO476236   8.425  20.754   5.556
 6043POPC   GL176237   8.403  20.601   5.931
 6043POPC   GL276238   8.285  20.290   5.814
 6043POPC   C1A76239   8.327  20.820   6.319
 6043POPC   D2A76240   8.049  21.034   6.612
 6043POPC   C3A76241   8.206  20.891   6.988
 6043POPC   C4A76242   8.267  21.036   7.372
 6043POPC   C1B76243   8.043  20.367   6.211
 6043POPC   C2B76244   8.037  20.509   6.654
 6043POPC   C3B76245   7.981  20.425   7.095
 6043POPC   C4B76246   8.255  20.370   7.448
 6044POPC   NC376247  13.023  30.439   5.438
 6044POPC   PO476248  12.512  30.875   5.439
 6044POPC   GL176249  12.597  30.606   5.821
 6044POPC   GL276250  12.927  30.485   5.917
 6044POPC   C1A76251  12.614  30.657   6.285
 6044POPC   D2A76252  12.568  30.904   6.656
 6044POPC   C3A76253  12.666  30.672   7.037
 6044POPC   C4A76254  12.986  30.395   7.215
 6044POPC   C1B76255  13.067  30.847   6.139
 6044POPC   C2B76256  13.078  30.704   6.581
 6044POPC   C3B76257  13.102  30.920   6.964
 6044POPC   C4B76258  13.001  30.928   7.387
 6045POPC   NC376259  32.284  42.084   5.578
 6045POPC   PO476260  32.666  42.618   5.385
 6045POPC   GL176261  32.420  42.556   5.790
 6045POPC   GL276262  32.059  42.540   5.736
 6045POPC   C1A76263  32.513  42.346   6.210
 6045POPC   D2A76264  32.598  42.188   6.652
 6045POPC   C3A76265  32.321  42.230   7.037
 6045POPC   C4A76266  31.927  42.102   7.187
 6045POPC   C1B76267  32.016  42.509   6.180
 6045POPC   C2B76268  32.174  42.451   6.594
 6045POPC   C3B76269  32.249  42.718   6.970
 6045POPC   C4B76270  32.091  42.714   7.407
 6046POPC   NC376271  22.974   6.603   5.354
 6046POPC   PO476272  22.393   6.717   5.652
 6046POPC   GL176273  22.706   6.687   5.950
 6046POPC   GL276274  22.946   6.420   5.846
 6046POPC   C1A76275  22.701   6.817   6.406
 6046POPC   D2A76276  22.602   6.821   6.868
 6046POPC   C3A76277  23.022   6.760   7.088
 6046POPC   C4A76278  23.461   6.866   7.156
 6046POPC   C1B76279  22.758   6.292   6.259
 6046POPC   C2B76280  22.845   6.403   6.687
 6046POPC   C3B76281  22.706   6.369   7.118
 6046POPC   C4B76282  22.858   6.496   7.544
 6047POPC   NC376283  42.321  22.736   5.377
 6047POPC   PO476284  41.897  23.354   5.262
 6047POPC   GL176285  42.032  23.298   5.744
 6047POPC   GL276286  42.227  23.011   5.803
 6047POPC   C1A76287  42.074  23.204   6.248
 6047POPC   D2A76288  42.190  22.893   6.597
 6047POPC   C3A76289  42.386  23.061   6.980
 6047POPC   C4A76290  42.373  23.471   7.179
 6047POPC   C1B76291  42.462  22.816   6.149
 6047POPC   C2B76292  42.553  22.536   6.517
 6047POPC   C3B76293  42.598  22.543   6.968
 6047POPC   C4B76294  42.379  22.662   7.320
 6048POPC   NC376295  41.719  39.331   5.468
 6048POPC   PO476296  41.154  38.967   5.502
 6048POPC   GL176297  41.455  39.107   5.845
 6048POPC   GL276298  41.753  38.903   5.840
 6048POPC   C1A76299  41.696  39.255   6.219
 6048POPC   D2A76300  41.501  39.266   6.619
 6048POPC   C3A76301  41.578  39.463   7.008
 6048POPC   C4A76302  41.294  39.628   7.299
 6048POPC   C1B76303  41.549  38.760   6.249
 6048POPC   C2B76304  41.314  38.797   6.638
 6048POPC   C3B76305  41.456  38.934   7.027
 6048POPC   C4B76306  41.714  38.957   7.357
 6049POPC   NC376307   0.349   2.753   5.420
 6049POPC   PO476308   0.441   3.334   5.621
 6049POPC   GL176309   0.604   3.003   5.828
 6049POPC   GL276310   0.250   2.901   5.905
 6049POPC   C1A76311   0.625   2.913   6.265
 6049POPC   D2A76312   0.298   2.813   6.532
 6049POPC   C3A76313   0.421   2.848   6.967
 6049POPC   C4A76314   0.349   2.973   7.405
 6049POPC   C1B76315   0.385   2.504   6.074
 6049POPC   C2B76316   0.530   2.353   6.466
 6049POPC   C3B76317   0.242   2.391   6.815
 6049POPC   C4B76318   0.189   2.487   7.248
 6050POPC   NC376319  21.273  35.897   5.433
 6050POPC   PO476320  21.587  36.420   5.579
 6050POPC   GL176321  21.535  36.092   5.892
 6050POPC   GL276322  21.250  35.857   5.933
 6050POPC   C1A76323  21.622  35.942   6.330
 6050POPC   D2A76324  21.684  36.185   6.715
 6050POPC   C3A76325  21.633  36.290   7.173
 6050POPC   C4A76326  21.729  36.275   7.642
 6050POPC   C1B76327  21.143  36.181   6.189
 6050POPC   C2B76328  21.203  36.291   6.602
 6050POPC   C3B76329  21.225  36.090   6.959
 6050POPC   C4B76330  21.015  36.100   7.323
 6051POPC   NC376331  15.514  41.917   5.325
 6051POPC   PO476332  15.094  41.413   5.365
 6051POPC   GL176333  15.136  41.515   5.789
 6051POPC   GL276334  15.396  41.759   5.794
 6051POPC   C1A76335  15.120  41.634   6.213
 6051POPC   D2A76336  14.843  41.694   6.551
 6051POPC   C3A76337  14.965  41.513   6.919
 6051POPC   C4A76338  14.994  41.476   7.338
 6051POPC   C1B76339  15.551  41.926   6.183
 6051POPC   C2B76340  15.483  41.721   6.568
 6051POPC   C3B76341  15.628  41.768   6.962
 6051POPC   C4B76342  15.343  41.831   7.291
 6052POPC   NC376343   3.175  15.036   5.137
 6052POPC   PO476344   2.819  15.568   5.379
 6052POPC   GL176345   2.735  15.159   5.628
 6052POPC   GL276346   3.041  15.090   5.800
 6052POPC   C1A76347   2.585  15.088   6.095
 6052POPC   D2A76348   2.484  15.451   6.401
 6052POPC   C3A76349   2.531  15.496   6.873
 6052POPC   C4A76350   2.692  15.543   7.299
 6052POPC   C1B76351   2.985  15.405   6.168
 6052POPC   C2B76352   2.970  15.430   6.618
 6052POPC   C3B76353   3.068  15.232   7.027
 6052POPC   C4B76354   3.086  15.243   7.472
 6053POPC   NC376355  28.380  25.766   5.437
 6053POPC   PO476356  28.608  26.420   5.514
 6053POPC   GL176357  28.630  26.177   5.885
 6053POPC   GL276358  28.554  25.781   5.922
 6053POPC   C1A76359  28.533  26.124   6.305
 6053POPC   D2A76360  28.509  25.911   6.673
 6053POPC   C3A76361  28.242  26.155   6.893
 6053POPC   C4A76362  28.380  26.369   7.191
 6053POPC   C1B76363  28.207  25.711   6.224
 6053POPC   C2B76364  28.003  25.763   6.639
 6053POPC   C3B76365  28.121  25.710   7.089
 6053POPC   C4B76366  28.560  25.845   7.210
 6054POPC   NC376367   7.118   0.730   5.438
 6054POPC   PO476368   7.786   0.438   5.330
 6054POPC   GL176369   7.558   0.506   5.714
 6054POPC   GL276370   7.447   0.159   5.835
 6054POPC   C1A76371   7.566   0.558   6.182
 6054POPC   D2A76372   7.580   0.373   6.603
 6054POPC   C3A76373   7.312   0.556   6.910
 6054POPC   C4A76374   7.306   0.676   7.333
 6054POPC   C1B76375   7.176   0.142   6.228
 6054POPC   C2B76376   6.961   0.051   6.638
 6054POPC   C3B76377   7.136   0.102   7.038
 6054POPC   C4B76378   7.382   0.195   7.423
 6055POPC   NC376379   6.154  21.460   5.346
 6055POPC   PO476380   5.616  21.038   5.371
 6055POPC   GL176381   5.852  21.210   5.776
 6055POPC   GL276382   6.065  21.545   5.835
 6055POPC   C1A76383   5.731  21.374   6.201
 6055POPC   D2A76384   5.543  21.268   6.598
 6055POPC   C3A76385   5.778  21.322   7.007
 6055POPC   C4A76386   6.137  21.329   7.363
 6055POPC   C1B76387   6.106  21.720   6.253
 6055POPC   C2B76388   5.875  21.707   6.646
 6055POPC   C3B76389   6.061  21.742   7.061
 6055POPC   C4B76390   5.877  21.730   7.503
 6056POPC   NC376391  37.207   6.170   5.471
 6056POPC   PO476392  36.562   5.885   5.405
 6056POPC   GL176393  36.778   6.038   5.756
 6056POPC   GL276394  37.058   5.884   5.859
 6056POPC   C1A76395  36.719   5.977   6.221
 6056POPC   D2A76396  36.927   6.024   6.611
 6056POPC   C3A76397  36.755   5.995   7.018
 6056POPC   C4A76398  37.133   6.099   7.181
 6056POPC   C1B76399  37.224   5.817   6.247
 6056POPC   C2B76400  37.056   5.524   6.527
 6056POPC   C3B76401  36.993   5.536   6.962
 6056POPC   C4B76402  37.021   5.656   7.373
 6057POPC   NC376403   6.307  40.860   5.114
 6057POPC   PO476404   5.669  40.707   5.356
 6057POPC   GL176405   5.842  40.940   5.735
 6057POPC   GL276406   5.673  40.734   5.870
 6057POPC   C1A76407   6.021  40.813   6.208
 6057POPC   D2A76408   6.121  40.566   6.612
 6057POPC   C3A76409   6.097  40.846   6.994
 6057POPC   C4A76410   5.960  40.782   7.437
 6057POPC   C1B76411   5.498  40.837   6.235
 6057POPC   C2B76412   5.692  40.854   6.621
 6057POPC   C3B76413   5.579  40.788   7.034
 6057POPC   C4B76414   5.642  41.154   7.245
 6058POPC   NC376415   1.472  36.948   5.240
 6058POPC   PO476416   0.785  36.813   5.288
 6058POPC   GL176417   0.982  37.048   5.670
 6058POPC   GL276418   1.336  36.925   5.744
 6058POPC   C1A76419   1.081  37.082   6.149
 6058POPC   D2A76420   1.268  36.873   6.507
 6058POPC   C3A76421   1.236  37.090   6.910
 6058POPC   C4A76422   1.308  37.128   7.360
 6058POPC   C1B76423   1.186  36.598   6.063
 6058POPC   C2B76424   0.952  36.451   6.447
 6058POPC   C3B76425   0.928  36.677   6.842
 6058POPC   C4B76426   1.209  36.641   7.187
 6059POPC   NC376427  40.377  29.169   5.471
 6059POPC   PO476428  40.962  28.770   5.406
 6059POPC   GL176429  40.731  28.912   5.788
 6059POPC   GL276430  40.661  29.279   5.875
 6059POPC   C1A76431  40.756  28.980   6.262
 6059POPC   D2A76432  41.058  28.876   6.549
 6059POPC   C3A76433  40.916  28.950   6.976
 6059POPC   C4A76434  40.733  28.959   7.401
 6059POPC   C1B76435  40.456  29.499   6.215
 6059POPC   C2B76436  40.520  29.693   6.644
 6059POPC   C3B76437  40.661  29.437   7.022
 6059POPC   C4B76438  41.094  29.384   7.194
 6060POPC   NC376439  14.918  44.156   5.198
 6060POPC   PO476440  15.075  43.583   5.372
 6060POPC   GL176441  14.993  43.799   5.778
 6060POPC   GL276442  15.103  44.164   5.820
 6060POPC   C1A76443  14.898  43.785   6.227
 6060POPC   D2A76444  15.141  43.730   6.626
 6060POPC   C3A76445  14.898  43.690   6.988
 6060POPC   C4A76446  14.960  43.741   7.384
 6060POPC   C1B76447  15.268  44.145   6.283
 6060POPC   C2B76448  15.285  44.220   6.747
 6060POPC   C3B76449  15.323  44.053   7.208
 6060POPC   C4B76450  15.365  43.945   7.649
 6061POPC   NC376451  11.010  39.401   5.478
 6061POPC   PO476452  11.654  39.613   5.668
 6061POPC   GL176453  11.298  39.397   5.906
 6061POPC   GL276454  11.161  39.037   5.864
 6061POPC   C1A76455  11.279  39.358   6.341
 6061POPC   D2A76456  11.531  39.536   6.644
 6061POPC   C3A76457  11.417  39.360   7.024
 6061POPC   C4A76458  11.098  39.115   7.229
 6061POPC   C1B76459  11.516  38.919   6.175
 6061POPC   C2B76460  11.603  39.023   6.591
 6061POPC   C3B76461  11.429  38.839   6.927
 6061POPC   C4B76462  11.577  38.956   7.299
 6062POPC   NC376463  15.904  15.077   5.320
 6062POPC   PO476464  16.355  15.534   5.387
 6062POPC   GL176465  16.103  15.360   5.727
 6062POPC   GL276466  15.747  15.373   5.721
 6062POPC   C1A76467  15.998  15.047   6.047
 6062POPC   D2A76468  16.056  15.113   6.460
 6062POPC   C3A76469  15.925  15.142   6.888
 6062POPC   C4A76470  15.920  14.986   7.308
 6062POPC   C1B76471  15.740  15.470   6.134
 6062POPC   C2B76472  15.763  15.526   6.553
 6062POPC   C3B76473  15.682  15.581   6.966
 6062POPC   C4B76474  15.912  15.498   7.306
 6063POPC   NC376475  43.665   7.766   5.668
 6063POPC   PO476476  44.160   8.043   5.328
 6063POPC   GL176477  43.949   8.196   5.739
 6063POPC   GL276478  44.053   8.006   6.007
 6063POPC   C1A76479  43.657   8.292   6.151
 6063POPC   D2A76480  43.669   8.448   6.605
 6063POPC   C3A76481  43.767   8.237   7.013
 6063POPC   C4A76482  43.541   8.063   7.370
 6063POPC   C1B76483  43.765   7.810   6.316
 6063POPC   C2B76484  43.734   7.624   6.703
 6063POPC   C3B76485  43.817   7.702   7.109
 6063POPC   C4B76486  44.069   7.779   7.446
 6064POPC   NC376487  26.606   8.416   5.362
 6064POPC   PO476488  27.212   8.011   5.402
 6064POPC   GL176489  27.129   8.218   5.810
 6064POPC   GL276490  26.822   8.430   5.830
 6064POPC   C1A76491  26.915   8.148   6.227
 6064POPC   D2A76492  26.578   8.127   6.529
 6064POPC   C3A76493  26.779   7.895   6.846
 6064POPC   C4A76494  26.865   7.917   7.263
 6064POPC   C1B76495  26.632   8.569   6.225
 6064POPC   C2B76496  26.517   8.601   6.695
 6064POPC   C3B76497  26.606   8.347   7.124
 6064POPC   C4B76498  26.484   8.091   7.549
 6065POPC   NC376499  25.062   0.707   5.397
 6065POPC   PO476500  25.506   0.298   5.286
 6065POPC   GL176501  25.283   0.368   5.727
 6065POPC   GL276502  25.237   0.726   5.870
 6065POPC   C1A76503  25.259   0.306   6.190
 6065POPC   D2A76504  25.417   0.422   6.604
 6065POPC   C3A76505  25.337   0.233   7.010
 6065POPC   C4A76506  25.490   0.532   7.318
 6065POPC   C1B76507  24.867   0.642   6.120
 6065POPC   C2B76508  24.744   0.682   6.537
 6065POPC   C3B76509  24.969   0.595   6.950
 6065POPC   C4B76510  25.004   0.428   7.393
 6066POPC   NC376511  21.849  11.713   5.629
 6066POPC   PO476512  21.190  11.719   5.431
 6066POPC   GL176513  21.196  12.020   5.786
 6066POPC   GL276514  21.433  11.810   5.951
 6066POPC   C1A76515  21.443  12.273   6.120
 6066POPC   D2A76516  21.350  12.343   6.559
 6066POPC   C3A76517  21.571  12.123   6.911
 6066POPC   C4A76518  21.553  12.265   7.340
 6066POPC   C1B76519  21.101  11.902   6.285
 6066POPC   C2B76520  21.121  11.894   6.735
 6066POPC   C3B76521  21.132  11.952   7.175
 6066POPC   C4B76522  21.199  11.807   7.615
 6067POPC   NC376523   7.266  22.257   5.171
 6067POPC   PO476524   7.435  22.870   5.316
 6067POPC   GL176525   7.369  23.016   5.761
 6067POPC   GL276526   7.112  22.794   5.980
 6067POPC   C1A76527   7.508  23.018   6.191
 6067POPC   D2A76528   7.244  22.949   6.551
 6067POPC   C3A76529   7.516  23.085   6.869
 6067POPC   C4A76530   7.702  23.079   7.270
 6067POPC   C1B76531   7.153  22.420   6.241
 6067POPC   C2B76532   7.085  22.352   6.673
 6067POPC   C3B76533   6.990  22.680   6.933
 6067POPC   C4B76534   7.274  22.797   7.207
 6068POPC   NC376535  16.467  36.115   5.166
 6068POPC   PO476536  16.830  36.658   5.186
 6068POPC   GL176537  16.825  36.436   5.625
 6068POPC   GL276538  16.497  36.244   5.683
 6068POPC   C1A76539  16.911  36.294   6.089
 6068POPC   D2A76540  17.031  36.019   6.477
 6068POPC   C3A76541  17.038  36.128   6.941
 6068POPC   C4A76542  17.178  35.858   7.293
 6068POPC   C1B76543  16.383  36.271   6.136
 6068POPC   C2B76544  16.606  36.314   6.538
 6068POPC   C3B76545  16.617  36.440   6.962
 6068POPC   C4B76546  16.679  36.206   7.327
 6069POPC   NC376547   9.763  15.710   5.489
 6069POPC   PO476548   9.272  16.066   5.164
 6069POPC   GL176549   9.627  16.174   5.633
 6069POPC   GL276550   9.752  15.937   5.932
 6069POPC   C1A76551   9.705  16.385   6.135
 6069POPC   D2A76552   9.836  16.488   6.566
 6069POPC   C3A76553   9.623  16.275   6.926
 6069POPC   C4A76554   9.778  16.080   7.307
 6069POPC   C1B76555   9.732  15.942   6.403
 6069POPC   C2B76556   9.984  15.929   6.786
 6069POPC   C3B76557   9.868  15.644   7.110
 6069POPC   C4B76558   9.698  15.621   7.522
 6070POPC   NC376559   1.781   3.685   5.564
 6070POPC   PO476560   2.341   3.321   5.666
 6070POPC   GL176561   1.949   3.422   5.966
 6070POPC   GL276562   1.797   3.793   6.044
 6070POPC   C1A76563   1.683   3.384   6.344
 6070POPC   D2A76564   1.660   3.434   6.806
 6070POPC   C3A76565   2.104   3.392   6.951
 6070POPC   C4A76566   2.293   3.531   7.336
 6070POPC   C1B76567   2.179   3.819   6.276
 6070POPC   C2B76568   2.121   3.858   6.717
 6070POPC   C3B76569   1.907   3.845   7.086
 6070POPC   C4B76570   1.781   3.914   7.523
 6071POPC   NC376571  21.882  39.393   5.183
 6071POPC   PO476572  21.206  39.192   5.411
 6071POPC   GL176573  21.377  39.241   5.785
 6071POPC   GL276574  21.083  39.351   5.943
 6071POPC   C1A76575  21.497  39.243   6.218
 6071POPC   D2A76576  21.221  39.370   6.526
 6071POPC   C3A76577  21.468  39.528   6.845
 6071POPC   C4A76578  21.380  39.320   7.222
 6071POPC   C1B76579  21.129  38.904   6.134
 6071POPC   C2B76580  21.266  38.626   6.484
 6071POPC   C3B76581  21.153  38.607   6.929
 6071POPC   C4B76582  21.127  38.877   7.282
 6072POPC   NC376583   7.038  32.421   5.457
 6072POPC   PO476584   7.618  32.080   5.257
 6072POPC   GL176585   7.384  32.091   5.696
 6072POPC   GL276586   7.331  32.392   5.943
 6072POPC   C1A76587   7.211  31.932   6.110
 6072POPC   D2A76588   7.374  31.762   6.514
 6072POPC   C3A76589   7.221  32.022   6.879
 6072POPC   C4A76590   7.512  32.029   7.220
 6072POPC   C1B76591   7.652  32.636   6.249
 6072POPC   C2B76592   7.797  32.639   6.679
 6072POPC   C3B76593   7.437  32.480   6.944
 6072POPC   C4B76594   7.224  32.407   7.376
 6073POPC   NC376595  15.990  37.599   5.402
 6073POPC   PO476596  15.604  38.131   5.438
 6073POPC   GL176597  15.714  37.850   5.774
 6073POPC   GL276598  16.080  37.848   5.849
 6073POPC   C1A76599  15.728  37.717   6.209
 6073POPC   D2A76600  15.610  37.430   6.512
 6073POPC   C3A76601  15.714  37.637   6.901
 6073POPC   C4A76602  15.888  37.860   7.276
 6073POPC   C1B76603  16.246  37.646   6.229
 6073POPC   C2B76604  16.450  37.760   6.587
 6073POPC   C3B76605  16.243  37.715   6.930
 6073POPC   C4B76606  16.353  37.680   7.330
 6074POPC   NC376607  30.822   2.143   5.455
 6074POPC   PO476608  30.435   1.595   5.577
 6074POPC   GL176609  30.629   1.894   5.883
 6074POPC   GL276610  30.564   2.256   5.881
 6074POPC   C1A76611  30.602   1.920   6.336
 6074POPC   D2A76612  30.844   1.710   6.673
 6074POPC   C3A76613  30.796   1.907   7.066
 6074POPC   C4A76614  30.411   2.112   7.173
 6074POPC   C1B76615  30.814   2.382   6.242
 6074POPC   C2B76616  30.840   2.266   6.672
 6074POPC   C3B76617  30.782   2.450   7.074
 6074POPC   C4B76618  30.977   2.260   7.425
 6075POPC   NC376619  12.293  10.249   5.512
 6075POPC   PO476620  12.066  10.789   5.238
 6075POPC   GL176621  12.039  10.666   5.705
 6075POPC   GL276622  11.728  10.512   5.834
 6075POPC   C1A76623  12.158  10.556   6.136
 6075POPC   D2A76624  12.405  10.553   6.528
 6075POPC   C3A76625  12.163  10.529   6.897
 6075POPC   C4A76626  11.973  10.513   7.294
 6075POPC   C1B76627  11.667  10.765   6.186
 6075POPC   C2B76628  11.941  10.835   6.524
 6075POPC   C3B76629  11.799  10.880   6.912
 6075POPC   C4B76630  11.833  11.035   7.280
 6076POPC   NC376631  30.414   4.034   5.467
 6076POPC   PO476632  30.117   4.565   5.331
 6076POPC   GL176633  30.051   4.379   5.762
 6076POPC   GL276634  29.721   4.486   5.928
 6076POPC   C1A76635  30.075   4.203   6.189
 6076POPC   D2A76636  30.129   4.319   6.640
 6076POPC   C3A76637  29.804   4.344   6.996
 6076POPC   C4A76638  29.955   4.386   7.465
 6076POPC   C1B76639  29.887   4.674   6.322
 6076POPC   C2B76640  29.745   4.795   6.746
 6076POPC   C3B76641  29.540   4.737   7.184
 6076POPC   C4B76642  29.627   4.740   7.660
 6077POPC   NC376643   3.259  15.501   5.552
 6077POPC   PO476644   3.618  15.019   5.282
 6077POPC   GL176645   3.590  15.143   5.723
 6077POPC   GL276646   3.832  15.422   5.693
 6077POPC   C1A76647   3.401  15.089   6.168
 6077POPC   D2A76648   3.419  15.176   6.603
 6077POPC   C3A76649   3.386  14.856   6.892
 6077POPC   C4A76650   3.568  14.710   7.237
 6077POPC   C1B76651   3.899  15.284   6.125
 6077POPC   C2B76652   4.033  15.348   6.558
 6077POPC   C3B76653   3.842  15.170   6.914
 6077POPC   C4B76654   3.561  15.223   7.259
 6078POPC   NC376655  32.206  32.692   5.475
 6078POPC   PO476656  32.575  32.151   5.323
 6078POPC   GL176657  32.373  32.265   5.725
 6078POPC   GL276658  32.528  31.941   5.780
 6078POPC   C1A76659  32.273  32.502   6.122
 6078POPC   D2A76660  31.997  32.353   6.487
 6078POPC   C3A76661  32.183  32.415   6.900
 6078POPC   C4A76662  32.466  32.703   7.082
 6078POPC   C1B76663  32.329  32.010   6.170
 6078POPC   C2B76664  32.387  31.885   6.561
 6078POPC   C3B76665  32.413  31.716   6.942
 6078POPC   C4B76666  32.404  32.043   7.213
 6079POPC   NC376667   7.103  42.351   5.450
 6079POPC   PO476668   7.721  42.000   5.395
 6079POPC   GL176669   7.487  42.130   5.767
 6079POPC   GL276670   7.347  42.462   5.865
 6079POPC   C1A76671   7.485  42.043   6.214
 6079POPC   D2A76672   7.252  41.903   6.590
 6079POPC   C3A76673   7.486  41.907   6.956
 6079POPC   C4A76674   7.588  42.315   7.140
 6079POPC   C1B76675   7.478  42.572   6.266
 6079POPC   C2B76676   7.444  42.877   6.591
 6079POPC   C3B76677   7.394  42.784   7.007
 6079POPC   C4B76678   7.180  42.831   7.355
 6080POPC   NC376679  24.002  12.861   5.481
 6080POPC   PO476680  24.641  12.700   5.484
 6080POPC   GL176681  24.430  12.823   5.846
 6080POPC   GL276682  24.547  13.155   5.871
 6080POPC   C1A76683  24.570  12.847   6.287
 6080POPC   D2A76684  24.475  12.699   6.684
 6080POPC   C3A76685  24.336  12.885   7.053
 6080POPC   C4A76686  24.366  12.653   7.471
 6080POPC   C1B76687  24.590  13.359   6.281
 6080POPC   C2B76688  24.642  13.200   6.715
 6080POPC   C3B76689  24.668  13.277   7.158
 6080POPC   C4B76690  24.685  13.038   7.512
 6081POPC   NC376691  41.308  38.453   5.510
 6081POPC   PO476692  42.025  38.518   5.449
 6081POPC   GL176693  41.801  38.394   5.812
 6081POPC   GL276694  41.608  38.085   5.769
 6081POPC   C1A76695  41.915  38.389   6.254
 6081POPC   D2A76696  42.086  38.443   6.671
 6081POPC   C3A76697  41.866  38.542   7.041
 6081POPC   C4A76698  41.749  38.276   7.395
 6081POPC   C1B76699  41.454  38.249   6.169
 6081POPC   C2B76700  41.537  38.319   6.627
 6081POPC   C3B76701  41.372  38.418   7.043
 6081POPC   C4B76702  41.352  38.614   7.484
 6082POPC   NC376703   6.431  20.806   5.593
 6082POPC   PO476704   6.910  20.393   5.200
 6082POPC   GL176705   6.832  20.418   5.677
 6082POPC   GL276706   6.499  20.318   5.820
 6082POPC   C1A76707   6.834  20.642   6.082
 6082POPC   D2A76708   6.771  20.589   6.510
 6082POPC   C3A76709   7.051  20.771   6.773
 6082POPC   C4A76710   6.895  20.698   7.164
 6082POPC   C1B76711   6.341  20.454   6.229
 6082POPC   C2B76712   6.282  20.768   6.515
 6082POPC   C3B76713   6.477  20.794   6.907
 6082POPC   C4B76714   6.409  20.629   7.353
 6083POPC   NC376715  16.241  31.613   5.341
 6083POPC   PO476716  15.656  31.367   5.428
 6083POPC   GL176717  15.960  31.523   5.790
 6083POPC   GL276718  16.277  31.746   5.845
 6083POPC   C1A76719  16.022  31.572   6.273
 6083POPC   D2A76720  15.797  31.758   6.684
 6083POPC   C3A76721  15.682  31.491   7.039
 6083POPC   C4A76722  15.890  31.180   7.294
 6083POPC   C1B76723  16.478  31.844   6.278
 6083POPC   C2B76724  16.322  31.758   6.726
 6083POPC   C3B76725  16.105  31.742   7.142
 6083POPC   C4B76726  16.282  31.808   7.591
 6084POPC   NC376727  42.223   4.640   5.597
 6084POPC   PO476728  41.929   4.142   5.280
 6084POPC   GL176729  42.186   4.144   5.697
 6084POPC   GL276730  42.536   4.261   5.784
 6084POPC   C1A76731  42.186   4.280   6.156
 6084POPC   D2A76732  42.139   4.603   6.474
 6084POPC   C3A76733  42.248   4.390   6.855
 6084POPC   C4A76734  42.415   4.329   7.251
 6084POPC   C1B76735  42.633   4.561   6.120
 6084POPC   C2B76736  42.661   4.510   6.546
 6084POPC   C3B76737  42.805   4.597   6.941
 6084POPC   C4B76738  42.887   4.494   7.359
 6085POPC   NC376739  21.054   4.875   5.365
 6085POPC   PO476740  21.287   5.516   5.574
 6085POPC   GL176741  21.468   5.264   5.874
 6085POPC   GL276742  21.670   5.498   6.027
 6085POPC   C1A76743  21.412   4.850   6.090
 6085POPC   D2A76744  21.364   4.670   6.527
 6085POPC   C3A76745  21.250   5.021   6.808
 6085POPC   C4A76746  21.108   5.276   7.189
 6085POPC   C1B76747  21.604   5.233   6.378
 6085POPC   C2B76748  21.822   5.201   6.741
 6085POPC   C3B76749  21.665   5.080   7.103
 6085POPC   C4B76750  21.575   5.255   7.442
 6086POPC   NC376751  24.487  43.293   5.512
 6086POPC   PO476752  24.712  42.684   5.706
 6086POPC   GL176753  24.545  42.983   5.914
 6086POPC   GL276754  24.220  42.949   5.866
 6086POPC   C1A76755  24.621  43.052   6.295
 6086POPC   D2A76756  24.853  43.111   6.622
 6086POPC   C3A76757  24.728  42.953   6.974
 6086POPC   C4A76758  24.587  43.098   7.362
 6086POPC   C1B76759  24.110  42.991   6.275
 6086POPC   C2B76760  24.300  42.980   6.670
 6086POPC   C3B76761  24.224  42.965   7.058
 6086POPC   C4B76762  23.997  43.120   7.405
 6087POPC   NC376763  42.675   8.709   5.420
 6087POPC   PO476764  42.106   9.097   5.249
 6087POPC   GL176765  42.260   8.904   5.702
 6087POPC   GL276766  42.442   9.107   5.959
 6087POPC   C1A76767  42.239   8.729   6.200
 6087POPC   D2A76768  42.373   8.841   6.672
 6087POPC   C3A76769  42.310   8.586   7.074
 6087POPC   C4A76770  42.225   8.739   7.510
 6087POPC   C1B76771  42.427   9.398   6.307
 6087POPC   C2B76772  42.161   9.541   6.643
 6087POPC   C3B76773  42.100   9.238   6.967
 6087POPC   C4B76774  42.461   9.057   7.194
 6088POPC   NC376775  31.721  13.037   5.263
 6088POPC   PO476776  32.425  12.899   5.458
 6088POPC   GL176777  32.313  12.754   5.854
 6088POPC   GL276778  32.236  13.068   5.917
 6088POPC   C1A76779  32.229  12.647   6.296
 6088POPC   D2A76780  32.344  12.609   6.740
 6088POPC   C3A76781  32.047  12.570   7.090
 6088POPC   C4A76782  32.137  12.677   7.507
 6088POPC   C1B76783  31.997  13.164   6.251
 6088POPC   C2B76784  32.120  13.060   6.612
 6088POPC   C3B76785  31.977  13.056   6.976
 6088POPC   C4B76786  32.093  13.158   7.363
 6089POPC   NC376787  29.710  26.054   5.471
 6089POPC   PO476788  30.353  25.968   5.613
 6089POPC   GL176789  30.141  26.038   5.942
 6089POPC   GL276790  29.834  26.179   5.937
 6089POPC   C1A76791  30.101  26.056   6.362
 6089POPC   D2A76792  29.858  26.148   6.701
 6089POPC   C3A76793  29.989  25.836   6.988
 6089POPC   C4A76794  29.750  25.857   7.344
 6089POPC   C1B76795  29.558  26.303   6.290
 6089POPC   C2B76796  29.412  26.472   6.686
 6089POPC   C3B76797  29.692  26.593   6.991
 6089POPC   C4B76798  29.942  26.305   7.198
 6090POPC   NC376799  33.518  22.934   5.487
 6090POPC   PO476800  34.108  22.706   5.469
 6090POPC   GL176801  33.906  22.565   5.830
 6090POPC   GL276802  33.538  22.628   5.890
 6090POPC   C1A76803  34.003  22.790   6.222
 6090POPC   D2A76804  33.786  22.935   6.600
 6090POPC   C3A76805  33.997  23.048   6.944
 6090POPC   C4A76806  34.134  22.845   7.284
 6090POPC   C1B76807  33.413  22.823   6.266
 6090POPC   C2B76808  33.369  22.646   6.703
 6090POPC   C3B76809  33.563  22.753   7.071
 6090POPC   C4B76810  33.551  23.207   7.094
 6091POPC   NC376811  23.459  11.901   5.265
 6091POPC   PO476812  23.882  12.411   5.464
 6091POPC   GL176813  23.784  12.166   5.844
 6091POPC   GL276814  23.534  11.891   5.822
 6091POPC   C1A76815  23.951  12.019   6.244
 6091POPC   D2A76816  23.925  11.863   6.670
 6091POPC   C3A76817  23.802  12.077   7.041
 6091POPC   C4A76818  23.395  12.234   7.198
 6091POPC   C1B76819  23.447  11.923   6.297
 6091POPC   C2B76820  23.347  11.959   6.757
 6091POPC   C3B76821  23.437  11.713   7.119
 6091POPC   C4B76822  23.748  11.553   7.396
 6092POPC   NC376823  17.238  15.305   5.538
 6092POPC   PO476824  17.733  14.897   5.656
 6092POPC   GL176825  17.602  15.261   5.928
 6092POPC   GL276826  17.881  15.493   5.877
 6092POPC   C1A76827  17.292  15.235   6.297
 6092POPC   D2A76828  17.235  14.904   6.666
 6092POPC   C3A76829  17.523  14.941   7.031
 6092POPC   C4A76830  17.926  15.079   7.207
 6092POPC   C1B76831  17.874  15.668   6.186
 6092POPC   C2B76832  17.723  15.451   6.484
 6092POPC   C3B76833  17.737  15.456   6.894
 6092POPC   C4B76834  17.590  15.473   7.299
 6093POPC   NC376835   1.838  41.209   5.283
 6093POPC   PO476836   2.048  41.877   5.393
 6093POPC   GL176837   1.862  41.648   5.761
 6093POPC   GL276838   2.116  41.497   5.999
 6093POPC   C1A76839   1.698  41.678   6.185
 6093POPC   D2A76840   2.014  41.610   6.507
 6093POPC   C3A76841   1.837  41.533   6.890
 6093POPC   C4A76842   2.042  41.613   7.258
 6093POPC   C1B76843   1.877  41.182   6.249
 6093POPC   C2B76844   2.050  41.011   6.618
 6093POPC   C3B76845   2.210  41.187   7.005
 6093POPC   C4B76846   1.856  41.141   7.230
 6094POPC   NC376847   7.357   9.332   5.363
 6094POPC   PO476848   8.013   9.216   5.583
 6094POPC   GL176849   7.620   8.971   5.793
 6094POPC   GL276850   7.229   9.043   5.834
 6094POPC   C1A76851   7.443   8.830   6.232
 6094POPC   D2A76852   7.545   9.021   6.642
 6094POPC   C3A76853   7.455   8.874   7.065
 6094POPC   C4A76854   7.507   8.759   7.510
 6094POPC   C1B76855   7.049   9.210   6.276
 6094POPC   C2B76856   7.056   9.295   6.730
 6094POPC   C3B76857   7.130   9.262   7.164
 6094POPC   C4B76858   7.012   8.882   7.381
 6095POPC   NC376859  14.772  28.509   5.688
 6095POPC   PO476860  14.308  28.164   5.349
 6095POPC   GL176861  14.322  28.266   5.828
 6095POPC   GL276862  14.253  28.595   5.989
 6095POPC   C1A76863  14.210  28.167   6.268
 6095POPC   D2A76864  14.459  28.190   6.650
 6095POPC   C3A76865  14.294  28.272   7.070
 6095POPC   C4A76866  13.885  28.129   7.246
 6095POPC   C1B76867  14.516  28.601   6.340
 6095POPC   C2B76868  14.543  28.698   6.783
 6095POPC   C3B76869  14.654  28.661   7.205
 6095POPC   C4B76870  14.515  28.450   7.556
 6096POPC   NC376871   9.815  30.364   5.234
 6096POPC   PO476872   9.343  30.932   5.336
 6096POPC   GL176873   9.553  30.880   5.745
 6096POPC   GL276874   9.565  30.539   5.717
 6096POPC   C1A76875   9.660  30.748   6.197
 6096POPC   D2A76876   9.796  30.826   6.626
 6096POPC   C3A76877   9.725  30.741   7.064
 6096POPC   C4A76878  10.136  30.681   7.235
 6096POPC   C1B76879   9.480  30.269   6.082
 6096POPC   C2B76880   9.385  30.399   6.494
 6096POPC   C3B76881   9.360  30.271   6.903
 6096POPC   C4B76882   9.376  30.430   7.278
 6097POPC   NC376883  38.903  28.560   5.392
 6097POPC   PO476884  39.487  28.259   5.305
 6097POPC   GL176885  39.525  28.192   5.738
 6097POPC   GL276886  39.184  28.353   5.808
 6097POPC   C1A76887  39.535  28.315   6.180
 6097POPC   D2A76888  39.253  28.385   6.524
 6097POPC   C3A76889  39.247  28.059   6.843
 6097POPC   C4A76890  39.514  28.043   7.196
 6097POPC   C1B76891  39.222  28.747   6.101
 6097POPC   C2B76892  39.022  28.851   6.525
 6097POPC   C3B76893  39.027  28.707   6.982
 6097POPC   C4B76894  39.033  28.807   7.475
 6098POPC   NC376895  29.239  24.373   5.354
 6098POPC   PO476896  28.577  24.420   5.331
 6098POPC   GL176897  28.903  24.510   5.729
 6098POPC   GL276898  29.129  24.259   5.847
 6098POPC   C1A76899  29.125  24.624   6.168
 6098POPC   D2A76900  29.137  24.403   6.589
 6098POPC   C3A76901  28.896  24.584   6.951
 6098POPC   C4A76902  29.020  24.527   7.368
 6098POPC   C1B76903  28.848  24.189   6.212
 6098POPC   C2B76904  28.676  24.217   6.651
 6098POPC   C3B76905  28.834  24.102   7.074
 6098POPC   C4B76906  28.827  24.077   7.516
 6099POPC   NC376907  35.219   3.559   5.179
 6099POPC   PO476908  35.948   3.658   5.338
 6099POPC   GL176909  35.540   3.521   5.679
 6099POPC   GL276910  35.637   3.261   5.861
 6099POPC   C1A76911  35.410   3.539   6.206
 6099POPC   D2A76912  35.054   3.615   6.553
 6099POPC   C3A76913  34.998   3.425   6.979
 6099POPC   C4A76914  35.039   3.662   7.387
 6099POPC   C1B76915  35.902   3.236   6.231
 6099POPC   C2B76916  35.748   3.122   6.615
 6099POPC   C3B76917  35.483   3.399   6.826
 6099POPC   C4B76918  35.430   3.349   7.259
 6100POPC   NC376919  25.128   0.025   5.362
 6100POPC   PO476920  25.345  44.436   5.528
 6100POPC   GL176921  25.086  44.552   5.845
 6100POPC   GL276922  25.009  44.913   5.883
 6100POPC   C1A76923  24.996  44.464   6.272
 6100POPC   D2A76924  25.186  44.618   6.655
 6100POPC   C3A76925  24.998  44.656   7.068
 6100POPC   C4A76926  25.213  44.386   7.363
 6100POPC   C1B76927  25.381  44.804   6.187
 6100POPC   C2B76928  25.594  44.919   6.594
 6100POPC   C3B76929  25.550  44.750   7.015
 6100POPC   C4B76930  25.414  44.889   7.414
 6101POPC   NC376931   0.056  25.084   5.370
 6101POPC   PO476932   0.672  25.206   5.428
 6101POPC   GL176933   0.597  25.206   5.849
 6101POPC   GL276934   0.249  25.186   5.836
 6101POPC   C1A76935   0.488  25.380   6.261
 6101POPC   D2A76936   0.306  25.459   6.681
 6101POPC   C3A76937   0.614  25.347   7.036
 6101POPC   C4A76938   0.580  25.205   7.458
 6101POPC   C1B76939   0.024  25.164   6.215
 6101POPC   C2B76940   0.027  24.956   6.602
 6101POPC   C3B76941   0.202  25.015   6.992
 6101POPC   C4B76942   0.222  24.847   7.385
 6102POPC   NC376943  38.214  21.259   5.363
 6102POPC   PO476944  37.527  21.274   5.470
 6102POPC   GL176945  37.677  21.366   5.873
 6102POPC   GL276946  38.001  21.263   5.822
 6102POPC   C1A76947  37.599  21.422   6.318
 6102POPC   D2A76948  37.496  21.192   6.691
 6102POPC   C3A76949  37.557  21.456   7.096
 6102POPC   C4A76950  37.634  21.900   7.245
 6102POPC   C1B76951  38.108  21.418   6.206
 6102POPC   C2B76952  38.049  21.157   6.552
 6102POPC   C3B76953  37.919  21.083   6.946
 6102POPC   C4B76954  38.060  21.362   7.234
 6103POPC   NC376955  33.546   2.695   5.350
 6103POPC   PO476956  32.877   2.809   5.256
 6103POPC   GL176957  33.080   2.754   5.665
 6103POPC   GL276958  32.751   2.772   5.793
 6103POPC   C1A76959  33.162   2.723   6.135
 6103POPC   D2A76960  33.316   2.631   6.577
 6103POPC   C3A76961  33.128   2.567   6.991
 6103POPC   C4A76962  33.238   2.801   7.381
 6103POPC   C1B76963  32.670   2.746   6.242
 6103POPC   C2B76964  32.900   2.910   6.603
 6103POPC   C3B76965  32.970   3.049   7.014
 6103POPC   C4B76966  32.684   3.013   7.338
 6104POPC   NC376967  26.103   0.192   5.367
 6104POPC   PO476968  26.321   0.795   5.584
 6104POPC   GL176969  25.990   0.511   5.793
 6104POPC   GL276970  26.088   0.160   5.878
 6104POPC   C1A76971  25.787   0.452   6.206
 6104POPC   D2A76972  25.831   0.747   6.565
 6104POPC   C3A76973  26.124   0.635   6.907
 6104POPC   C4A76974  26.008   0.677   7.309
 6104POPC   C1B76975  26.260   0.130   6.279
 6104POPC   C2B76976  26.002   0.225   6.624
 6104POPC   C3B76977  25.866   0.205   7.043
 6104POPC   C4B76978  26.243   0.219   7.290
 6105POPC   NC376979   4.700  34.601   5.343
 6105POPC   PO476980   5.391  34.792   5.307
 6105POPC   GL176981   5.172  34.699   5.750
 6105POPC   GL276982   4.850  34.876   5.753
 6105POPC   C1A76983   5.261  34.506   6.200
 6105POPC   D2A76984   5.163  34.317   6.622
 6105POPC   C3A76985   5.187  34.581   6.990
 6105POPC   C4A76986   5.095  34.529   7.416
 6105POPC   C1B76987   4.813  34.767   6.192
 6105POPC   C2B76988   4.809  34.688   6.626
 6105POPC   C3B76989   4.699  34.907   6.983
 6105POPC   C4B76990   4.687  34.833   7.395
 6106POPC   NC376991  38.116  41.779   5.396
 6106POPC   PO476992  37.860  41.169   5.302
 6106POPC   GL176993  37.701  41.464   5.665
 6106POPC   GL276994  37.733  41.787   5.832
 6106POPC   C1A76995  37.570  41.432   6.137
 6106POPC   D2A76996  37.635  41.693   6.528
 6106POPC   C3A76997  37.558  41.477   6.928
 6106POPC   C4A76998  37.739  41.358   7.329
 6106POPC   C1B76999  37.346  41.892   6.127
 6106POPC   C2B77000  37.236  42.016   6.581
 6106POPC   C3B77001  37.403  41.984   6.992
 6106POPC   C4B77002  37.397  41.744   7.373
 6107POPC   NC377003   0.320  36.875   5.292
 6107POPC   PO477004   0.538  37.319   5.802
 6107POPC   GL177005   0.496  36.886   5.794
 6107POPC   GL277006   0.197  36.729   5.850
 6107POPC   C1A77007   0.585  36.749   6.212
 6107POPC   D2A77008   0.661  37.153   6.444
 6107POPC   C3A77009   0.680  37.155   6.886
 6107POPC   C4A77010   0.487  36.830   7.107
 6107POPC   C1B77011   0.142  37.016   6.264
 6107POPC   C2B77012   0.183  37.189   6.682
 6107POPC   C3B77013   0.065  37.096   7.098
 6107POPC   C4B77014   0.125  37.011   7.541
 6108POPC   NC377015  17.898  36.086   5.530
 6108POPC   PO477016  18.555  36.136   5.579
 6108POPC   GL177017  18.304  35.950   5.896
 6108POPC   GL277018  17.954  36.047   6.016
 6108POPC   C1A77019  18.233  35.791   6.312
 6108POPC   D2A77020  18.006  35.884   6.637
 6108POPC   C3A77021  18.280  35.783   6.908
 6108POPC   C4A77022  18.273  36.027   7.225
 6108POPC   C1B77023  17.923  36.323   6.398
 6108POPC   C2B77024  17.947  36.369   6.857
 6108POPC   C3B77025  18.006  36.467   7.295
 6108POPC   C4B77026  18.050  36.271   7.700
 6109POPC   NC377027  35.084   0.551   5.129
 6109POPC   PO477028  34.380   0.580   5.158
 6109POPC   GL177029  34.343   0.527   5.709
 6109POPC   GL277030  34.267   0.140   5.832
 6109POPC   C1A77031  34.564   0.447   6.138
 6109POPC   D2A77032  34.716   0.662   6.527
 6109POPC   C3A77033  34.820   0.622   6.989
 6109POPC   C4A77034  34.547   0.786   7.319
 6109POPC   C1B77035  34.215  44.975   6.245
 6109POPC   C2B77036  34.448   0.176   6.560
 6109POPC   C3B77037  34.352   0.457   6.853
 6109POPC   C4B77038  34.472   0.288   7.187
 6110POPC   NC377039  13.397   9.094   5.475
 6110POPC   PO477040  13.861   8.595   5.430
 6110POPC   GL177041  13.795   8.881   5.756
 6110POPC   GL277042  13.484   8.721   5.829
 6110POPC   C1A77043  13.618   9.111   6.132
 6110POPC   D2A77044  13.375   9.037   6.528
 6110POPC   C3A77045  13.610   8.940   6.920
 6110POPC   C4A77046  13.771   9.193   7.243
 6110POPC   C1B77047  13.784   8.627   6.192
 6110POPC   C2B77048  13.683   8.505   6.600
 6110POPC   C3B77049  13.825   8.449   7.018
 6110POPC   C4B77050  13.704   8.651   7.370
 6111POPC   NC377051  24.095   6.191   5.695
 6111POPC   PO477052  24.704   5.911   5.482
 6111POPC   GL177053  24.544   5.991   5.906
 6111POPC   GL277054  24.529   6.345   5.890
 6111POPC   C1A77055  24.266   5.887   6.285
 6111POPC   D2A77056  24.171   6.092   6.708
 6111POPC   C3A77057  24.349   5.768   6.972
 6111POPC   C4A77058  24.642   5.822   7.327
 6111POPC   C1B77059  24.397   6.387   6.302
 6111POPC   C2B77060  24.641   6.130   6.528
 6111POPC   C3B77061  24.675   6.142   6.932
 6111POPC   C4B77062  24.332   6.198   7.240
 6112POPC   NC377063  38.999  35.912   5.563
 6112POPC   PO477064  39.660  36.154   5.509
 6112POPC   GL177065  39.425  36.372   5.882
 6112POPC   GL277066  39.101  36.218   5.969
 6112POPC   C1A77067  39.315  36.513   6.306
 6112POPC   D2A77068  39.094  36.251   6.587
 6112POPC   C3A77069  39.321  36.139   6.963
 6112POPC   C4A77070  39.206  36.390   7.287
 6112POPC   C1B77071  39.031  35.859   6.255
 6112POPC   C2B77072  39.180  35.762   6.651
 6112POPC   C3B77073  38.999  35.696   7.034
 6112POPC   C4B77074  39.120  35.892   7.408
 6113POPC   NC377075   2.307  30.461   5.237
 6113POPC   PO477076   1.882  30.914   5.431
 6113POPC   GL177077   2.128  30.626   5.733
 6113POPC   GL277078   2.372  30.841   5.893
 6113POPC   C1A77079   2.184  30.486   6.210
 6113POPC   D2A77080   1.837  30.483   6.580
 6113POPC   C3A77081   1.939  30.574   7.038
 6113POPC   C4A77082   1.954  30.385   7.464
 6113POPC   C1B77083   1.922  30.922   6.144
 6113POPC   C2B77084   1.655  30.968   6.566
 6113POPC   C3B77085   1.780  31.075   7.031
 6113POPC   C4B77086   2.198  31.077   7.259
 6114POPC   NC377087  44.560  42.425   5.420
 6114POPC   PO477088  44.563  41.805   5.685
 6114POPC   GL177089  44.643  42.183   5.886
 6114POPC   GL277090  44.418  42.468   5.892
 6114POPC   C1A77091  44.635  42.278   6.314
 6114POPC   D2A77092  44.345  42.376   6.616
 6114POPC   C3A77093  44.450  42.157   6.988
 6114POPC   C4A77094  44.902  42.113   7.157
 6114POPC   C1B77095  44.631  42.765   6.150
 6114POPC   C2B77096  44.614  42.912   6.554
 6114POPC   C3B77097  44.631  42.669   6.935
 6114POPC   C4B77098  44.491  42.532   7.331
 6115POPC   NC377099   2.085   7.221   5.613
 6115POPC   PO477100   2.206   6.572   5.481
 6115POPC   GL177101   2.039   6.464   5.866
 6115POPC   GL277102   1.886   6.801   5.898
 6115POPC   C1A77103   1.865   6.448   6.260
 6115POPC   D2A77104   2.003   6.668   6.593
 6115POPC   C3A77105   1.944   6.436   6.960
 6115POPC   C4A77106   1.974   6.537   7.358
 6115POPC   C1B77107   2.211   6.957   6.197
 6115POPC   C2B77108   2.318   7.092   6.614
 6115POPC   C3B77109   2.223   6.880   7.005
 6115POPC   C4B77110   2.293   6.914   7.448
 6116POPC   NC377111   8.784  39.881   5.477
 6116POPC   PO477112   9.034  40.599   5.343
 6116POPC   GL177113   8.925  40.329   5.733
 6116POPC   GL277114   9.100  40.034   5.840
 6116POPC   C1A77115   8.736  40.219   6.155
 6116POPC   D2A77116   8.691  40.045   6.594
 6116POPC   C3A77117   8.799  40.250   6.995
 6116POPC   C4A77118   9.029  40.073   7.390
 6116POPC   C1B77119   9.005  39.779   6.197
 6116POPC   C2B77120   9.016  39.617   6.597
 6116POPC   C3B77121   8.903  39.750   7.005
 6116POPC   C4B77122   8.895  39.575   7.459
 6117POPC   NC377123  23.181  13.086   5.084
 6117POPC   PO477124  22.627  12.730   5.398
 6117POPC   GL177125  22.770  12.924   5.759
 6117POPC   GL277126  23.127  12.897   5.800
 6117POPC   C1A77127  22.679  12.945   6.193
 6117POPC   D2A77128  22.870  12.824   6.556
 6117POPC   C3A77129  22.865  13.005   6.885
 6117POPC   C4A77130  22.869  12.934   7.277
 6117POPC   C1B77131  23.252  12.738   6.201
 6117POPC   C2B77132  23.376  12.834   6.639
 6117POPC   C3B77133  23.347  12.969   7.050
 6117POPC   C4B77134  23.305  12.704   7.374
 6118POPC   NC377135   6.641   1.605   5.520
 6118POPC   PO477136   6.377   1.038   5.546
 6118POPC   GL177137   6.470   1.238   5.883
 6118POPC   GL277138   6.263   1.521   5.857
 6118POPC   C1A77139   6.846   1.152   6.176
 6118POPC   D2A77140   6.982   0.887   6.547
 6118POPC   C3A77141   6.846   1.029   6.956
 6118POPC   C4A77142   6.952   1.402   7.195
 6118POPC   C1B77143   6.536   1.559   6.247
 6118POPC   C2B77144   6.592   1.283   6.593
 6118POPC   C3B77145   6.438   1.347   7.010
 6118POPC   C4B77146   6.536   1.714   7.236
 6119POPC   NC377147  34.448  43.652   5.322
 6119POPC   PO477148  35.084  43.472   5.455
 6119POPC   GL177149  34.766  43.622   5.739
 6119POPC   GL277150  34.559  43.934   5.747
 6119POPC   C1A77151  34.589  43.501   6.109
 6119POPC   D2A77152  34.360  43.537   6.484
 6119POPC   C3A77153  34.461  43.766   6.850
 6119POPC   C4A77154  34.447  43.585   7.247
 6119POPC   C1B77155  34.401  43.964   6.178
 6119POPC   C2B77156  34.365  44.201   6.529
 6119POPC   C3B77157  34.497  44.305   6.926
 6119POPC   C4B77158  34.662  44.048   7.234
 6120POPC   NC377159  19.158   8.538   5.440
 6120POPC   PO477160  19.214   7.848   5.323
 6120POPC   GL177161  19.278   8.080   5.735
 6120POPC   GL277162  18.971   8.266   5.841
 6120POPC   C1A77163  19.156   7.976   6.209
 6120POPC   D2A77164  19.119   7.769   6.593
 6120POPC   C3A77165  19.082   8.024   6.931
 6120POPC   C4A77166  18.946   7.981   7.321
 6120POPC   C1B77167  19.359   8.428   6.101
 6120POPC   C2B77168  19.524   8.479   6.525
 6120POPC   C3B77169  19.219   8.519   6.855
 6120POPC   C4B77170  19.209   8.423   7.264
 6121POPC   NC377171  12.241   6.113   5.569
 6121POPC   PO477172  11.848   5.538   5.385
 6121POPC   GL177173  11.968   5.566   5.819
 6121POPC   GL277174  11.866   5.897   5.854
 6121POPC   C1A77175  12.133   5.682   6.227
 6121POPC   D2A77176  12.290   6.016   6.487
 6121POPC   C3A77177  12.248   5.904   6.913
 6121POPC   C4A77178  12.049   5.609   7.185
 6121POPC   C1B77179  11.815   6.079   6.263
 6121POPC   C2B77180  11.853   6.200   6.694
 6121POPC   C3B77181  11.768   6.036   7.124
 6121POPC   C4B77182  11.735   5.903   7.575
 6122POPC   NC377183  15.768  26.270   5.432
 6122POPC   PO477184  15.967  25.590   5.353
 6122POPC   GL177185  15.997  25.733   5.784
 6122POPC   GL277186  16.115  26.090   5.797
 6122POPC   C1A77187  15.798  25.742   6.191
 6122POPC   D2A77188  16.002  25.718   6.576
 6122POPC   C3A77189  15.881  25.637   7.006
 6122POPC   C4A77190  16.064  25.682   7.409
 6122POPC   C1B77191  15.797  26.246   6.107
 6122POPC   C2B77192  15.766  26.162   6.533
 6122POPC   C3B77193  16.004  26.121   6.899
 6122POPC   C4B77194  15.779  26.089   7.280
 6123POPC   NC377195  17.233   4.133   5.477
 6123POPC   PO477196  17.895   4.091   5.528
 6123POPC   GL177197  17.574   4.098   5.870
 6123POPC   GL277198  17.446   4.438   5.823
 6123POPC   C1A77199  17.328   4.106   6.288
 6123POPC   D2A77200  17.256   4.020   6.757
 6123POPC   C3A77201  17.120   4.096   7.167
 6123POPC   C4A77202  17.105   4.360   7.572
 6123POPC   C1B77203  17.544   4.554   6.243
 6123POPC   C2B77204  17.643   4.333   6.663
 6123POPC   C3B77205  17.500   4.443   7.078
 6123POPC   C4B77206  17.543   4.666   7.471
 6124POPC   NC377207  12.145  20.999   5.349
 6124POPC   PO477208  11.749  21.526   5.459
 6124POPC   GL177209  12.002  21.303   5.761
 6124POPC   GL277210  11.967  21.610   5.927
 6124POPC   C1A77211  12.143  21.144   6.173
 6124POPC   D2A77212  12.199  21.333   6.589
 6124POPC   C3A77213  12.118  21.287   7.035
 6124POPC   C4A77214  12.329  21.459   7.419
 6124POPC   C1B77215  11.796  21.501   6.324
 6124POPC   C2B77216  11.851  21.675   6.750
 6124POPC   C3B77217  12.051  21.817   7.143
 6124POPC   C4B77218  12.130  22.207   7.407
 6125POPC   NC377219   3.825   5.268   5.030
 6125POPC   PO477220   3.540   4.859   5.490
 6125POPC   GL177221   3.753   5.024   5.895
 6125POPC   GL277222   3.897   5.406   5.873
 6125POPC   C1A77223   3.616   4.852   6.299
 6125POPC   D2A77224   3.377   4.652   6.630
 6125POPC   C3A77225   3.428   4.879   6.980
 6125POPC   C4A77226   3.269   5.006   7.336
 6125POPC   C1B77227   3.620   5.376   6.242
 6125POPC   C2B77228   3.613   5.230   6.658
 6125POPC   C3B77229   3.612   5.363   7.076
 6125POPC   C4B77230   3.762   5.156   7.427
 6126POPC   NC377231  31.692  44.446   5.512
 6126POPC   PO477232  32.399  44.464   5.452
 6126POPC   GL177233  32.093  44.500   5.811
 6126POPC   GL277234  32.074  44.835   5.948
 6126POPC   C1A77235  32.031  44.443   6.277
 6126POPC   D2A77236  32.422  44.446   6.523
 6126POPC   C3A77237  32.462  44.580   6.930
 6126POPC   C4A77238  32.259  44.529   7.284
 6126POPC   C1B77239  32.400  44.889   6.252
 6126POPC   C2B77240  32.261  44.965   6.672
 6126POPC   C3B77241  32.001  44.872   7.031
 6126POPC   C4B77242  32.095  44.948   7.500
 6127POPC   NC377243   3.917  27.588   5.217
 6127POPC   PO477244   4.477  27.891   5.339
 6127POPC   GL177245   4.305  27.591   5.709
 6127POPC   GL277246   3.972  27.335   5.784
 6127POPC   C1A77247   4.454  27.663   6.148
 6127POPC   D2A77248   4.385  27.462   6.535
 6127POPC   C3A77249   4.522  27.596   6.922
 6127POPC   C4A77250   4.574  27.740   7.340
 6127POPC   C1B77251   3.933  27.486   6.271
 6127POPC   C2B77252   3.994  27.761   6.664
 6127POPC   C3B77253   4.047  27.629   7.107
 6127POPC   C4B77254   3.952  27.713   7.539
 6128POPC   NC377255  31.280  19.780   5.490
 6128POPC   PO477256  31.756  20.219   5.477
 6128POPC   GL177257  31.466  20.081   5.888
 6128POPC   GL277258  31.426  19.721   5.979
 6128POPC   C1A77259  31.372  20.072   6.376
 6128POPC   D2A77260  31.695  20.063   6.716
 6128POPC   C3A77261  31.605  19.891   7.118
 6128POPC   C4A77262  31.533  19.746   7.552
 6128POPC   C1B77263  31.118  19.648   6.312
 6128POPC   C2B77264  30.997  19.759   6.757
 6128POPC   C3B77265  31.175  19.595   7.174
 6128POPC   C4B77266  31.239  19.333   7.544
 6129POPC   NC377267  43.958  38.302   5.345
 6129POPC   PO477268  44.370  38.812   5.363
 6129POPC   GL177269  44.178  38.548   5.775
 6129POPC   GL277270  44.083  38.160   5.811
 6129POPC   C1A77271  43.950  38.579   6.217
 6129POPC   D2A77272  43.710  38.725   6.612
 6129POPC   C3A77273  43.864  38.594   7.009
 6129POPC   C4A77274  43.763  38.790   7.409
 6129POPC   C1B77275  43.833  38.061   6.168
 6129POPC   C2B77276  43.655  38.236   6.522
 6129POPC   C3B77277  43.726  38.119   6.931
 6129POPC   C4B77278  44.129  38.102   7.110
 6130POPC   NC377279  39.070   7.857   5.589
 6130POPC   PO477280  39.248   7.267   5.403
 6130POPC   GL177281  39.246   7.417   5.803
 6130POPC   GL277282  38.906   7.352   5.809
 6130POPC   C1A77283  39.302   7.271   6.213
 6130POPC   D2A77284  39.185   7.035   6.563
 6130POPC   C3A77285  39.313   7.143   6.983
 6130POPC   C4A77286  39.224   7.275   7.405
 6130POPC   C1B77287  38.892   7.561   6.216
 6130POPC   C2B77288  39.081   7.536   6.643
 6130POPC   C3B77289  38.901   7.488   7.065
 6130POPC   C4B77290  38.821   7.579   7.541
 6131POPC   NC377291  12.943  21.687   5.362
 6131POPC   PO477292  12.583  21.140   5.362
 6131POPC   GL177293  12.554  21.177   5.828
 6131POPC   GL277294  12.797  21.454   5.870
 6131POPC   C1A77295  12.655  21.157   6.302
 6131POPC   D2A77296  12.681  21.410   6.696
 6131POPC   C3A77297  12.641  21.186   7.083
 6131POPC   C4A77298  12.773  21.207   7.515
 6131POPC   C1B77299  12.928  21.623   6.295
 6131POPC   C2B77300  13.125  21.662   6.722
 6131POPC   C3B77301  13.071  21.536   7.178
 6131POPC   C4B77302  13.038  21.643   7.641
 6132POPC   NC377303   2.605  29.894   5.055
 6132POPC   PO477304   3.076  29.693   5.464
 6132POPC   GL177305   2.760  29.737   5.804
 6132POPC   GL277306   2.942  29.985   5.951
 6132POPC   C1A77307   2.519  29.839   6.215
 6132POPC   D2A77308   2.425  29.659   6.621
 6132POPC   C3A77309   2.496  29.910   6.988
 6132POPC   C4A77310   2.707  29.849   7.416
 6132POPC   C1B77311   3.025  29.822   6.285
 6132POPC   C2B77312   2.852  29.974   6.624
 6132POPC   C3B77313   3.014  29.937   7.022
 6132POPC   C4B77314   3.045  30.240   7.365
 6133POPC   NC377315  17.120  39.466   5.465
 6133POPC   PO477316  17.650  38.944   5.470
 6133POPC   GL177317  17.542  39.186   5.789
 6133POPC   GL277318  17.174  39.091   5.798
 6133POPC   C1A77319  17.666  39.153   6.232
 6133POPC   D2A77320  17.881  38.928   6.569
 6133POPC   C3A77321  17.804  39.051   6.984
 6133POPC   C4A77322  17.502  39.098   7.250
 6133POPC   C1B77323  17.217  39.392   6.118
 6133POPC   C2B77324  17.169  39.238   6.518
 6133POPC   C3B77325  17.302  39.368   6.892
 6133POPC   C4B77326  17.086  39.406   7.282
 6134POPC   NC377327   5.294  35.252   5.229
 6134POPC   PO477328   4.660  35.096   5.270
 6134POPC   GL177329   4.858  35.364   5.656
 6134POPC   GL277330   5.213  35.469   5.685
 6134POPC   C1A77331   5.079  35.188   6.101
 6134POPC   D2A77332   5.230  34.950   6.508
 6134POPC   C3A77333   5.170  35.100   6.964
 6134POPC   C4A77334   5.193  35.020   7.443
 6134POPC   C1B77335   4.995  35.682   6.054
 6134POPC   C2B77336   4.816  35.711   6.455
 6134POPC   C3B77337   5.083  35.602   6.803
 6134POPC   C4B77338   5.083  35.729   7.207
 6135POPC   NC377339   0.502  42.325   5.200
 6135POPC   PO477340  44.826  42.064   5.269
 6135POPC   GL177341   0.071  42.290   5.631
 6135POPC   GL277342   0.409  42.448   5.690
 6135POPC   C1A77343   0.082  42.426   6.095
 6135POPC   D2A77344  44.999  42.577   6.545
 6135POPC   C3A77345   0.260  42.402   6.888
 6135POPC   C4A77346   0.410  42.269   7.301
 6135POPC   C1B77347   0.616  42.479   6.096
 6135POPC   C2B77348   0.758  42.265   6.457
 6135POPC   C3B77349   0.774  42.346   6.889
 6135POPC   C4B77350   0.843  42.538   7.269
 6136POPC   NC377351  32.460   4.811   5.389
 6136POPC   PO477352  32.233   4.163   5.442
 6136POPC   GL177353  32.125   4.265   5.847
 6136POPC   GL277354  32.434   4.075   5.921
 6136POPC   C1A77355  32.309   4.437   6.226
 6136POPC   D2A77356  32.560   4.312   6.561
 6136POPC   C3A77357  32.322   4.339   6.943
 6136POPC   C4A77358  32.356   4.568   7.348
 6136POPC   C1B77359  32.120   3.933   6.257
 6136POPC   C2B77360  31.877   3.806   6.659
 6136POPC   C3B77361  32.097   3.864   7.017
 6136POPC   C4B77362  32.051   4.169   7.356
 6137POPC   NC377363  13.219  28.832   5.664
 6137POPC   PO477364  12.744  29.276   5.439
 6137POPC   GL177365  12.868  29.169   5.842
 6137POPC   GL277366  12.747  28.825   5.858
 6137POPC   C1A77367  12.914  29.212   6.286
 6137POPC   D2A77368  12.903  29.552   6.597
 6137POPC   C3A77369  12.933  29.285   6.916
 6137POPC   C4A77370  12.801  29.418   7.276
 6137POPC   C1B77371  12.528  28.878   6.228
 6137POPC   C2B77372  12.665  28.888   6.640
 6137POPC   C3B77373  12.502  29.017   7.025
 6137POPC   C4B77374  12.806  28.926   7.303
 6138POPC   NC377375   5.788   9.212   5.621
 6138POPC   PO477376   5.698   9.874   5.577
 6138POPC   GL177377   6.057   9.847   5.889
 6138POPC   GL277378   6.239   9.504   5.841
 6138POPC   C1A77379   6.027  10.081   6.272
 6138POPC   D2A77380   5.763   9.938   6.624
 6138POPC   C3A77381   5.886   9.835   7.045
 6138POPC   C4A77382   5.619   9.663   7.340
 6138POPC   C1B77383   6.019   9.499   6.254
 6138POPC   C2B77384   5.904   9.420   6.664
 6138POPC   C3B77385   6.155   9.411   7.002
 6138POPC   C4B77386   6.020   9.304   7.407
 6139POPC   NC377387  11.969  38.143   5.466
 6139POPC   PO477388  12.437  37.706   5.202
 6139POPC   GL177389  12.443  37.941   5.679
 6139POPC   GL277390  12.124  37.848   5.835
 6139POPC   C1A77391  12.426  37.909   6.214
 6139POPC   D2A77392  12.377  37.965   6.695
 6139POPC   C3A77393  12.310  37.637   7.032
 6139POPC   C4A77394  11.916  37.522   7.245
 6139POPC   C1B77395  11.878  38.016   6.125
 6139POPC   C2B77396  11.871  38.035   6.548
 6139POPC   C3B77397  11.876  37.905   6.927
 6139POPC   C4B77398  11.602  37.979   7.269
 6140POPC   NC377399  29.429  41.797   5.052
 6140POPC   PO477400  28.922  41.425   5.252
 6140POPC   GL177401  29.126  41.429   5.665
 6140POPC   GL277402  28.988  41.691   5.850
 6140POPC   C1A77403  29.237  41.349   6.123
 6140POPC   D2A77404  29.079  41.540   6.496
 6140POPC   C3A77405  29.299  41.427   6.874
 6140POPC   C4A77406  29.161  41.497   7.267
 6140POPC   C1B77407  28.744  41.945   6.123
 6140POPC   C2B77408  28.687  41.919   6.570
 6140POPC   C3B77409  28.965  41.842   6.912
 6140POPC   C4B77410  28.981  41.972   7.337
 6141POPC   NC377411  38.168   9.619   5.497
 6141POPC   PO477412  38.847   9.777   5.331
 6141POPC   GL177413  38.599   9.915   5.701
 6141POPC   GL277414  38.604   9.567   5.796
 6141POPC   C1A77415  38.677   9.951   6.174
 6141POPC   D2A77416  38.757   9.744   6.607
 6141POPC   C3A77417  38.640   9.880   7.049
 6141POPC   C4A77418  38.298   9.772   7.323
 6141POPC   C1B77419  38.483   9.467   6.207
 6141POPC   C2B77420  38.303   9.404   6.593
 6141POPC   C3B77421  38.497   9.420   6.955
 6141POPC   C4B77422  38.581   9.319   7.339
 6142POPC   NC377423  38.704  12.381   5.458
 6142POPC   PO477424  38.357  11.904   5.207
 6142POPC   GL177425  38.575  11.930   5.658
 6142POPC   GL277426  38.862  11.684   5.729
 6142POPC   C1A77427  38.536  12.129   6.110
 6142POPC   D2A77428  38.254  12.229   6.493
 6142POPC   C3A77429  38.405  12.160   6.909
 6142POPC   C4A77430  38.483  11.778   7.213
 6142POPC   C1B77431  38.878  11.720   6.195
 6142POPC   C2B77432  38.764  11.932   6.620
 6142POPC   C3B77433  38.868  12.110   7.088
 6142POPC   C4B77434  38.511  12.265   7.398
 6143POPC   NC377435  44.777  25.996   5.392
 6143POPC   PO477436  44.348  26.458   5.528
 6143POPC   GL177437  44.635  26.282   5.817
 6143POPC   GL277438  44.713  25.911   5.870
 6143POPC   C1A77439  44.704  26.254   6.246
 6143POPC   D2A77440  44.859  26.325   6.638
 6143POPC   C3A77441  44.525  26.200   6.948
 6143POPC   C4A77442  44.557  26.201   7.369
 6143POPC   C1B77443  44.921  25.803   6.252
 6143POPC   C2B77444  44.643  25.864   6.590
 6143POPC   C3B77445  44.844  25.677   6.938
 6143POPC   C4B77446   0.020  25.646   7.343
 6144POPC   NC377447  36.893  39.620   5.442
 6144POPC   PO477448  36.727  40.325   5.409
 6144POPC   GL177449  36.748  39.988   5.760
 6144POPC   GL277450  37.080  39.826   5.863
 6144POPC   C1A77451  36.688  39.707   6.135
 6144POPC   D2A77452  36.941  39.705   6.549
 6144POPC   C3A77453  36.747  39.834   6.962
 6144POPC   C4A77454  36.759  40.252   7.147
 6144POPC   C1B77455  36.957  40.121   6.227
 6144POPC   C2B77456  36.982  40.209   6.679
 6144POPC   C3B77457  37.302  40.395   6.941
 6144POPC   C4B77458  37.466  40.256   7.324
 6145POPC   NC377459  28.614   7.736   5.468
 6145POPC   PO477460  29.091   7.335   5.293
 6145POPC   GL177461  29.089   7.388   5.740
 6145POPC   GL277462  28.830   7.383   5.947
 6145POPC   C1A77463  29.328   7.290   6.122
 6145POPC   D2A77464  29.157   7.428   6.483
 6145POPC   C3A77465  29.172   7.383   6.937
 6145POPC   C4A77466  29.276   7.161   7.333
 6145POPC   C1B77467  28.685   7.647   6.298
 6145POPC   C2B77468  28.833   7.790   6.689
 6145POPC   C3B77469  28.716   7.717   7.096
 6145POPC   C4B77470  28.861   7.472   7.377
 6146POPC   NC377471  32.217  37.062   5.373
 6146POPC   PO477472  32.000  36.469   5.312
 6146POPC   GL177473  32.257  36.629   5.701
 6146POPC   GL277474  32.422  36.994   5.813
 6146POPC   C1A77475  32.165  36.630   6.152
 6146POPC   D2A77476  32.315  36.601   6.588
 6146POPC   C3A77477  32.114  36.745   6.988
 6146POPC   C4A77478  32.219  36.593   7.393
 6146POPC   C1B77479  32.230  37.136   6.201
 6146POPC   C2B77480  32.092  37.082   6.599
 6146POPC   C3B77481  32.271  37.227   7.013
 6146POPC   C4B77482  32.351  37.112   7.431
 6147POPC   NC377483   3.051   8.372   5.344
 6147POPC   PO477484   2.635   7.793   5.135
 6147POPC   GL177485   2.809   7.858   5.629
 6147POPC   GL277486   2.809   8.209   5.752
 6147POPC   C1A77487   2.857   7.876   6.110
 6147POPC   D2A77488   3.024   8.059   6.505
 6147POPC   C3A77489   2.723   8.015   6.848
 6147POPC   C4A77490   2.808   8.007   7.286
 6147POPC   C1B77491   2.832   8.413   6.163
 6147POPC   C2B77492   2.713   8.503   6.607
 6147POPC   C3B77493   2.848   8.471   7.057
 6147POPC   C4B77494   2.922   8.686   7.451
 6148POPC   NC377495  35.737  26.630   5.525
 6148POPC   PO477496  35.113  26.778   5.372
 6148POPC   GL177497  35.270  26.739   5.803
 6148POPC   GL277498  35.592  26.885   5.934
 6148POPC   C1A77499  35.226  26.646   6.237
 6148POPC   D2A77500  35.335  26.918   6.552
 6148POPC   C3A77501  35.110  26.857   6.906
 6148POPC   C4A77502  35.171  26.854   7.321
 6148POPC   C1B77503  35.694  27.155   6.266
 6148POPC   C2B77504  35.807  27.051   6.719
 6148POPC   C3B77505  35.609  26.826   7.083
 6148POPC   C4B77506  35.624  27.002   7.533
 6149POPC   NC377507  33.745  41.815   5.074
 6149POPC   PO477508  34.255  42.212   5.205
 6149POPC   GL177509  33.899  42.467   5.521
 6149POPC   GL277510  33.574  42.550   5.645
 6149POPC   C1A77511  33.842  42.326   6.022
 6149POPC   D2A77512  33.933  42.065   6.409
 6149POPC   C3A77513  33.960  42.284   6.805
 6149POPC   C4A77514  33.796  42.263   7.221
 6149POPC   C1B77515  33.460  42.657   6.086
 6149POPC   C2B77516  33.560  42.434   6.478
 6149POPC   C3B77517  33.444  42.449   6.904
 6149POPC   C4B77518  33.568  42.726   7.203
 6150POPC   NC377519  42.566  29.784   5.669
 6150POPC   PO477520  42.010  30.152   5.352
 6150POPC   GL177521  42.085  30.010   5.759
 6150POPC   GL277522  42.094  29.619   5.797
 6150POPC   C1A77523  42.310  30.166   6.142
 6150POPC   D2A77524  42.589  29.899   6.412
 6150POPC   C3A77525  42.635  30.064   6.834
 6150POPC   C4A77526  42.441  29.971   7.244
 6150POPC   C1B77527  42.014  29.774   6.217
 6150POPC   C2B77528  42.097  29.949   6.618
 6150POPC   C3B77529  42.010  29.787   7.032
 6150POPC   C4B77530  41.937  29.927   7.468
 6151POPC   NC377531  13.082  43.609   5.126
 6151POPC   PO477532  12.701  44.080   5.430
 6151POPC   GL177533  12.765  43.859   5.796
 6151POPC   GL277534  12.515  43.659   5.772
 6151POPC   C1A77535  12.683  43.964   6.226
 6151POPC   D2A77536  13.004  44.035   6.516
 6151POPC   C3A77537  12.941  43.928   6.945
 6151POPC   C4A77538  12.656  43.957   7.288
 6151POPC   C1B77539  12.458  43.499   6.170
 6151POPC   C2B77540  12.673  43.555   6.601
 6151POPC   C3B77541  12.504  43.576   7.008
 6151POPC   C4B77542  12.325  43.434   7.419
 6152POPC   NC377543  14.089  12.680   5.464
 6152POPC   PO477544  13.386  12.734   5.418
 6152POPC   GL177545  13.577  12.758   5.800
 6152POPC   GL277546  13.851  12.966   5.845
 6152POPC   C1A77547  13.452  12.897   6.193
 6152POPC   D2A77548  13.391  13.192   6.500
 6152POPC   C3A77549  13.172  13.042   6.824
 6152POPC   C4A77550  13.379  12.847   7.150
 6152POPC   C1B77551  13.967  12.759   6.213
 6152POPC   C2B77552  13.780  12.826   6.603
 6152POPC   C3B77553  13.898  12.747   7.018
 6152POPC   C4B77554  13.961  13.137   7.183
 6153POPC   NC377555  22.467  23.932   5.443
 6153POPC   PO477556  21.870  23.591   5.428
 6153POPC   GL177557  22.196  23.586   5.733
 6153POPC   GL277558  22.126  23.930   5.857
 6153POPC   C1A77559  22.224  23.392   6.149
 6153POPC   D2A77560  21.945  23.295   6.524
 6153POPC   C3A77561  22.150  23.278   6.944
 6153POPC   C4A77562  22.050  23.591   7.251
 6153POPC   C1B77563  21.958  23.830   6.287
 6153POPC   C2B77564  21.989  23.789   6.758
 6153POPC   C3B77565  22.201  24.033   7.077
 6153POPC   C4B77566  22.127  24.004   7.561
 6154POPC   NC377567   0.760  17.352   5.331
 6154POPC   PO477568   0.154  17.554   5.239
 6154POPC   GL177569   0.385  17.534   5.685
 6154POPC   GL277570   0.502  17.203   5.809
 6154POPC   C1A77571   0.637  17.617   6.121
 6154POPC   D2A77572   0.710  17.693   6.603
 6154POPC   C3A77573   0.442  17.531   6.955
 6154POPC   C4A77574   0.662  17.433   7.345
 6154POPC   C1B77575   0.208  17.351   6.157
 6154POPC   C2B77576   0.046  17.312   6.586
 6154POPC   C3B77577   0.090  17.152   7.009
 6154POPC   C4B77578   0.144  17.363   7.410
 6155POPC   NC377579  20.309  35.712   5.406
 6155POPC   PO477580  20.776  35.173   5.443
 6155POPC   GL177581  20.596  35.393   5.801
 6155POPC   GL277582  20.249  35.440   5.828
 6155POPC   C1A77583  20.528  35.364   6.257
 6155POPC   D2A77584  20.765  35.482   6.606
 6155POPC   C3A77585  20.513  35.433   6.972
 6155POPC   C4A77586  20.474  35.314   7.414
 6155POPC   C1B77587  20.203  35.739   6.180
 6155POPC   C2B77588  20.341  35.768   6.576
 6155POPC   C3B77589  20.173  35.826   6.937
 6155POPC   C4B77590  20.101  35.610   7.279
 6156POPC   NC377591   3.335   9.839   5.348
 6156POPC   PO477592   3.950   9.646   5.471
 6156POPC   GL177593   3.717   9.738   5.790
 6156POPC   GL277594   3.452   9.527   5.755
 6156POPC   C1A77595   3.786   9.870   6.182
 6156POPC   D2A77596   3.944   9.683   6.521
 6156POPC   C3A77597   3.749   9.861   6.898
 6156POPC   C4A77598   3.852   9.775   7.309
 6156POPC   C1B77599   3.270   9.842   6.039
 6156POPC   C2B77600   3.343   9.937   6.464
 6156POPC   C3B77601   3.225   9.917   6.864
 6156POPC   C4B77602   3.362  10.010   7.263
 6157POPC   NC377603  11.119  31.749   5.103
 6157POPC   PO477604  10.864  31.278   5.532
 6157POPC   GL177605  11.081  31.507   5.832
 6157POPC   GL277606  11.391  31.687   5.806
 6157POPC   C1A77607  11.278  31.337   6.199
 6157POPC   D2A77608  11.168  31.496   6.562
 6157POPC   C3A77609  11.119  31.237   6.886
 6157POPC   C4A77610  11.361  31.262   7.225
 6157POPC   C1B77611  11.139  31.861   6.189
 6157POPC   C2B77612  11.031  31.981   6.648
 6157POPC   C3B77613  11.203  31.736   7.018
 6157POPC   C4B77614  11.198  31.666   7.478
 6158POPC   NC377615  29.634  35.558   5.495
 6158POPC   PO477616  29.003  35.602   5.350
 6158POPC   GL177617  28.932  35.708   5.751
 6158POPC   GL277618  29.266  35.648   5.848
 6158POPC   C1A77619  28.865  35.563   6.172
 6158POPC   D2A77620  29.155  35.328   6.442
 6158POPC   C3A77621  29.101  35.513   6.846
 6158POPC   C4A77622  28.862  35.371   7.173
 6158POPC   C1B77623  29.604  35.558   6.159
 6158POPC   C2B77624  29.511  35.680   6.567
 6158POPC   C3B77625  29.603  35.523   6.960
 6158POPC   C4B77626  29.384  35.285   7.268
 6159POPC   NC377627   4.705  39.655   5.469
 6159POPC   PO477628   4.521  38.913   5.419
 6159POPC   GL177629   4.454  39.261   5.728
 6159POPC   GL277630   4.123  39.273   5.850
 6159POPC   C1A77631   4.512  39.501   6.140
 6159POPC   D2A77632   4.385  39.304   6.534
 6159POPC   C3A77633   4.562  39.420   6.917
 6159POPC   C4A77634   4.613  39.282   7.331
 6159POPC   C1B77635   3.904  39.034   6.163
 6159POPC   C2B77636   4.028  38.912   6.579
 6159POPC   C3B77637   3.920  38.983   6.986
 6159POPC   C4B77638   3.984  39.260   7.306
 6160POPC   NC377639  23.644  25.066   5.424
 6160POPC   PO477640  23.268  25.651   5.362
 6160POPC   GL177641  23.483  25.411   5.765
 6160POPC   GL277642  23.450  25.031   5.878
 6160POPC   C1A77643  23.657  25.428   6.203
 6160POPC   D2A77644  23.513  25.545   6.635
 6160POPC   C3A77645  23.852  25.497   6.947
 6160POPC   C4A77646  23.945  25.402   7.369
 6160POPC   C1B77647  23.604  24.914   6.292
 6160POPC   C2B77648  23.735  25.063   6.696
 6160POPC   C3B77649  23.826  24.953   7.122
 6160POPC   C4B77650  24.066  24.602   7.238
 6161POPC   NC377651  23.802   6.492   5.292
 6161POPC   PO477652  23.295   6.969   5.303
 6161POPC   GL177653  23.418   6.647   5.652
 6161POPC   GL277654  23.757   6.644   5.780
 6161POPC   C1A77655  23.405   6.513   6.122
 6161POPC   D2A77656  23.324   6.685   6.566
 6161POPC   C3A77657  23.484   6.422   6.901
 6161POPC   C4A77658  23.874   6.322   7.089
 6161POPC   C1B77659  23.972   6.658   6.179
 6161POPC   C2B77660  23.913   6.545   6.599
 6161POPC   C3B77661  23.946   6.804   6.951
 6161POPC   C4B77662  23.936   6.963   7.347
 6162POPC   NC377663  15.703  32.722   5.754
 6162POPC   PO477664  16.142  33.085   5.355
 6162POPC   GL177665  16.001  33.160   5.785
 6162POPC   GL277666  16.156  32.878   5.943
 6162POPC   C1A77667  15.845  33.148   6.237
 6162POPC   D2A77668  15.989  32.969   6.617
 6162POPC   C3A77669  16.087  33.171   6.967
 6162POPC   C4A77670  15.964  33.087   7.408
 6162POPC   C1B77671  16.363  33.184   6.254
 6162POPC   C2B77672  16.502  33.080   6.682
 6162POPC   C3B77673  16.337  32.700   6.891
 6162POPC   C4B77674  16.086  32.629   7.255
 6163POPC   NC377675  14.272  40.704   5.497
 6163POPC   PO477676  14.887  40.677   5.192
 6163POPC   GL177677  14.836  40.775   5.693
 6163POPC   GL277678  14.572  41.035   5.839
 6163POPC   C1A77679  14.734  40.663   6.184
 6163POPC   D2A77680  14.376  40.539   6.508
 6163POPC   C3A77681  14.408  40.706   6.938
 6163POPC   C4A77682  14.109  40.744   7.255
 6163POPC   C1B77683  14.353  40.994   6.298
 6163POPC   C2B77684  14.113  41.029   6.684
 6163POPC   C3B77685  14.138  41.211   7.090
 6163POPC   C4B77686  13.913  41.162   7.494
 6164POPC   NC377687  44.087  11.452   5.170
 6164POPC   PO477688  43.487  11.269   5.312
 6164POPC   GL177689  43.709  11.136   5.657
 6164POPC   GL277690  44.014  11.291   5.755
 6164POPC   C1A77691  43.716  11.111   6.127
 6164POPC   D2A77692  43.640  10.881   6.504
 6164POPC   C3A77693  43.731  11.026   6.896
 6164POPC   C4A77694  43.678  10.963   7.308
 6164POPC   C1B77695  44.134  11.403   6.224
 6164POPC   C2B77696  44.110  11.329   6.689
 6164POPC   C3B77697  43.948  11.436   7.126
 6164POPC   C4B77698  44.197  11.663   7.448
 6165POPC   NC377699  23.124  41.560   5.041
 6165POPC   PO477700  22.751  41.032   5.089
 6165POPC   GL177701  22.718  41.299   5.503
 6165POPC   GL277702  22.729  41.679   5.550
 6165POPC   C1A77703  22.852  41.366   5.975
 6165POPC   D2A77704  23.116  41.335   6.388
 6165POPC   C3A77705  22.938  41.288   6.816
 6165POPC   C4A77706  22.749  41.422   7.202
 6165POPC   C1B77707  22.890  41.913   5.941
 6165POPC   C2B77708  23.013  41.854   6.393
 6165POPC   C3B77709  22.884  41.811   6.842
 6165POPC   C4B77710  22.768  41.915   7.275
 6166POPC   NC377711  14.301  35.398   5.439
 6166POPC   PO477712  14.753  35.008   5.681
 6166POPC   GL177713  14.454  35.272   5.905
 6166POPC   GL277714  14.086  35.185   5.855
 6166POPC   C1A77715  14.466  35.628   6.180
 6166POPC   D2A77716  14.333  35.682   6.606
 6166POPC   C3A77717  14.624  35.658   6.980
 6166POPC   C4A77718  14.654  35.538   7.436
 6166POPC   C1B77719  14.028  35.364   6.240
 6166POPC   C2B77720  13.889  35.434   6.605
 6166POPC   C3B77721  14.102  35.356   6.946
 6166POPC   C4B77722  14.177  35.588   7.286
 6167POPC   NC377723  18.739   4.757   5.732
 6167POPC   PO477724  18.132   5.047   5.354
 6167POPC   GL177725  18.064   5.299   5.729
 6167POPC   GL277726  18.273   5.032   5.869
 6167POPC   C1A77727  18.021   5.387   6.200
 6167POPC   D2A77728  18.129   5.182   6.623
 6167POPC   C3A77729  18.410   5.311   6.953
 6167POPC   C4A77730  18.336   5.538   7.342
 6167POPC   C1B77731  18.501   5.176   6.246
 6167POPC   C2B77732  18.611   4.943   6.608
 6167POPC   C3B77733  18.449   4.772   6.985
 6167POPC   C4B77734  18.612   4.835   7.388
 6168POPC   NC377735   2.928  31.095   5.509
 6168POPC   PO477736   2.541  31.646   5.382
 6168POPC   GL177737   2.842  31.574   5.706
 6168POPC   GL277738   2.579  31.340   5.833
 6168POPC   C1A77739   2.999  31.413   6.121
 6168POPC   D2A77740   3.159  31.462   6.537
 6168POPC   C3A77741   2.872  31.416   6.842
 6168POPC   C4A77742   2.644  31.293   7.178
 6168POPC   C1B77743   2.564  31.717   6.110
 6168POPC   C2B77744   2.502  31.829   6.534
 6168POPC   C3B77745   2.357  31.587   6.883
 6168POPC   C4B77746   2.281  31.610   7.319
 6169POPC   NC377747  26.618  27.418   5.625
 6169POPC   PO477748  26.865  28.017   5.465
 6169POPC   GL177749  26.917  27.784   5.866
 6169POPC   GL277750  27.091  27.461   5.845
 6169POPC   C1A77751  26.789  27.613   6.289
 6169POPC   D2A77752  26.526  27.679   6.656
 6169POPC   C3A77753  26.765  27.973   6.878
 6169POPC   C4A77754  26.950  27.780   7.199
 6169POPC   C1B77755  26.920  27.153   6.165
 6169POPC   C2B77756  27.011  27.220   6.620
 6169POPC   C3B77757  26.799  27.303   7.017
 6169POPC   C4B77758  26.848  27.122   7.425
 6170POPC   NC377759  13.262  27.249   5.337
 6170POPC   PO477760  13.791  26.770   5.276
 6170POPC   GL177761  13.680  26.605   5.707
 6170POPC   GL277762  13.316  26.595   5.814
 6170POPC   C1A77763  13.701  26.759   6.160
 6170POPC   D2A77764  13.638  26.981   6.569
 6170POPC   C3A77765  13.567  26.753   6.933
 6170POPC   C4A77766  13.723  26.858   7.321
 6170POPC   C1B77767  13.323  26.423   6.254
 6170POPC   C2B77768  13.211  26.397   6.707
 6170POPC   C3B77769  13.228  26.396   7.150
 6170POPC   C4B77770  13.320  26.603   7.545
 6171POPC   NC377771  12.542  37.011   5.603
 6171POPC   PO477772  13.195  37.107   5.459
 6171POPC   GL177773  12.984  37.019   5.854
 6171POPC   GL277774  13.007  36.699   5.904
 6171POPC   C1A77775  12.770  37.083   6.274
 6171POPC   D2A77776  12.561  37.339   6.644
 6171POPC   C3A77777  12.653  37.204   7.089
 6171POPC   C4A77778  13.058  37.267   7.308
 6171POPC   C1B77779  12.745  36.533   6.211
 6171POPC   C2B77780  12.612  36.607   6.622
 6171POPC   C3B77781  12.853  36.501   6.953
 6171POPC   C4B77782  12.930  36.768   7.277
 6172POPC   NC377783  24.711  28.137   5.578
 6172POPC   PO477784  25.349  28.020   5.306
 6172POPC   GL177785  25.220  28.284   5.719
 6172POPC   GL277786  24.922  28.528   5.810
 6172POPC   C1A77787  25.335  28.501   6.147
 6172POPC   D2A77788  25.502  28.657   6.572
 6172POPC   C3A77789  25.480  28.463   7.020
 6172POPC   C4A77790  25.524  28.325   7.457
 6172POPC   C1B77791  24.815  28.585   6.232
 6172POPC   C2B77792  25.023  28.485   6.609
 6172POPC   C3B77793  24.960  28.360   7.017
 6172POPC   C4B77794  25.085  28.551   7.383
 6173POPC   NC377795  17.495  12.958   5.258
 6173POPC   PO477796  17.784  12.416   5.137
 6173POPC   GL177797  17.548  12.607   5.614
 6173POPC   GL277798  17.413  13.010   5.739
 6173POPC   C1A77799  17.379  12.627   6.059
 6173POPC   D2A77800  17.215  12.753   6.463
 6173POPC   C3A77801  17.364  12.704   6.882
 6173POPC   C4A77802  17.496  12.648   7.322
 6173POPC   C1B77803  17.440  13.137   6.186
 6173POPC   C2B77804  17.583  13.121   6.627
 6173POPC   C3B77805  17.707  13.050   7.069
 6173POPC   C4B77806  17.591  13.162   7.516
 6174POPC   NC377807  16.001  12.257   5.589
 6174POPC   PO477808  16.040  12.938   5.450
 6174POPC   GL177809  16.110  12.737   5.845
 6174POPC   GL277810  15.794  12.634   5.950
 6174POPC   C1A77811  16.040  12.862   6.293
 6174POPC   D2A77812  15.757  12.964   6.597
 6174POPC   C3A77813  15.997  13.021   6.935
 6174POPC   C4A77814  16.011  12.847   7.293
 6174POPC   C1B77815  15.717  12.464   6.385
 6174POPC   C2B77816  15.803  12.495   6.847
 6174POPC   C3B77817  15.652  12.480   7.278
 6174POPC   C4B77818  15.812  12.536   7.706
 6175POPC   NC377819   4.986  28.952   5.465
 6175POPC   PO477820   5.347  29.456   5.616
 6175POPC   GL177821   5.106  29.188   5.892
 6175POPC   GL277822   5.117  28.777   5.922
 6175POPC   C1A77823   5.211  29.115   6.285
 6175POPC   D2A77824   5.118  28.806   6.553
 6175POPC   C3A77825   5.252  28.907   6.954
 6175POPC   C4A77826   5.536  29.179   7.211
 6175POPC   C1B77827   4.758  28.904   6.166
 6175POPC   C2B77828   4.537  28.951   6.517
 6175POPC   C3B77829   4.690  28.874   6.917
 6175POPC   C4B77830   4.844  29.133   7.208
 6176POPC   NC377831  12.361  13.674   5.484
 6176POPC   PO477832  11.692  13.929   5.632
 6176POPC   GL177833  12.068  13.829   5.877
 6176POPC   GL277834  12.126  13.455   5.901
 6176POPC   C1A77835  12.214  13.760   6.301
 6176POPC   D2A77836  12.049  13.762   6.732
 6176POPC   C3A77837  11.929  13.796   7.182
 6176POPC   C4A77838  12.187  13.824   7.540
 6176POPC   C1B77839  11.993  13.300   6.331
 6176POPC   C2B77840  12.180  13.270   6.764
 6176POPC   C3B77841  12.229  13.367   7.248
 6176POPC   C4B77842  12.128  13.340   7.730
 6177POPC   NC377843   1.479  21.779   5.319
 6177POPC   PO477844   1.141  22.279   5.411
 6177POPC   GL177845   1.264  22.079   5.795
 6177POPC   GL277846   0.910  22.084   5.923
 6177POPC   C1A77847   1.470  21.941   6.205
 6177POPC   D2A77848   1.320  21.729   6.586
 6177POPC   C3A77849   1.356  21.901   7.005
 6177POPC   C4A77850   1.130  21.808   7.364
 6177POPC   C1B77851   1.135  22.329   6.239
 6177POPC   C2B77852   1.330  22.265   6.632
 6177POPC   C3B77853   1.205  22.397   7.038
 6177POPC   C4B77854   1.212  22.681   7.397
 6178POPC   NC377855   3.019   3.897   5.443
 6178POPC   PO477856   2.811   3.337   5.126
 6178POPC   GL177857   2.816   3.475   5.642
 6178POPC   GL277858   3.050   3.371   5.886
 6178POPC   C1A77859   2.710   3.662   6.130
 6178POPC   D2A77860   2.550   3.594   6.592
 6178POPC   C3A77861   2.598   3.801   7.043
 6178POPC   C4A77862   2.651   3.814   7.586
 6178POPC   C1B77863   3.175   3.507   6.307
 6178POPC   C2B77864   3.020   3.416   6.732
 6178POPC   C3B77865   2.672   3.269   6.977
 6178POPC   C4B77866   2.808   3.422   7.332
 6179POPC   NC377867  32.589  38.745   5.645
 6179POPC   PO477868  32.081  39.126   5.447
 6179POPC   GL177869  32.062  39.218   5.877
 6179POPC   GL277870  32.014  38.854   5.881
 6179POPC   C1A77871  32.244  39.336   6.302
 6179POPC   D2A77872  32.478  39.339   6.676
 6179POPC   C3A77873  32.236  39.456   7.007
 6179POPC   C4A77874  32.377  39.554   7.418
 6179POPC   C1B77875  32.222  38.836   6.256
 6179POPC   C2B77876  32.124  38.963   6.660
 6179POPC   C3B77877  32.270  38.941   7.048
 6179POPC   C4B77878  32.063  39.156   7.385
 6180POPC   NC377879  44.775  28.610   5.501
 6180POPC   PO477880  44.784  27.931   5.522
 6180POPC   GL177881  44.705  28.214   5.839
 6180POPC   GL277882  44.385  28.138   5.964
 6180POPC   C1A77883  44.731  28.515   6.153
 6180POPC   D2A77884  44.796  28.317   6.509
 6180POPC   C3A77885  44.774  28.460   6.907
 6180POPC   C4A77886  44.940  28.416   7.315
 6180POPC   C1B77887  44.263  28.345   6.316
 6180POPC   C2B77888  44.259  28.460   6.743
 6180POPC   C3B77889  44.347  28.377   7.144
 6180POPC   C4B77890  44.460  28.280   7.563
 6181POPC   NC377891  22.325  28.811   5.600
 6181POPC   PO477892  22.076  29.444   5.486
 6181POPC   GL177893  22.186  29.337   5.878
 6181POPC   GL277894  21.951  29.075   5.869
 6181POPC   C1A77895  22.344  29.122   6.249
 6181POPC   D2A77896  22.245  28.886   6.660
 6181POPC   C3A77897  22.265  29.133   7.050
 6181POPC   C4A77898  21.983  29.187   7.412
 6181POPC   C1B77899  21.874  28.929   6.265
 6181POPC   C2B77900  21.762  29.092   6.652
 6181POPC   C3B77901  21.817  28.887   7.030
 6181POPC   C4B77902  21.868  28.705   7.430
 6182POPC   NC377903  20.261  27.630   5.412
 6182POPC   PO477904  19.604  27.580   5.448
 6182POPC   GL177905  19.744  27.768   5.837
 6182POPC   GL277906  20.099  27.694   5.905
 6182POPC   C1A77907  19.736  27.763   6.285
 6182POPC   D2A77908  19.612  27.502   6.591
 6182POPC   C3A77909  19.783  27.694   6.950
 6182POPC   C4A77910  19.572  27.792   7.339
 6182POPC   C1B77911  19.906  27.310   6.136
 6182POPC   C2B77912  19.912  27.058   6.541
 6182POPC   C3B77913  19.805  27.189   6.958
 6182POPC   C4B77914  19.949  27.394   7.323
 6183POPC   NC377915  44.926   5.676   5.116
 6183POPC   PO477916   0.567   5.899   5.410
 6183POPC   GL177917   0.489   5.823   5.842
 6183POPC   GL277918   0.618   5.546   5.923
 6183POPC   C1A77919   0.312   5.774   6.271
 6183POPC   D2A77920   0.384   5.676   6.703
 6183POPC   C3A77921   0.199   6.015   6.948
 6183POPC   C4A77922   0.285   6.209   7.331
 6183POPC   C1B77923   0.821   5.546   6.292
 6183POPC   C2B77924   0.917   5.709   6.678
 6183POPC   C3B77925   0.784   5.670   7.088
 6183POPC   C4B77926   0.616   5.792   7.469
 6184POPC   NC377927  18.305   8.034   5.304
 6184POPC   PO477928  18.683   8.531   5.495
 6184POPC   GL177929  18.408   8.237   5.767
 6184POPC   GL277930  18.552   7.904   5.795
 6184POPC   C1A77931  18.144   8.190   6.156
 6184POPC   D2A77932  18.261   8.324   6.566
 6184POPC   C3A77933  18.035   8.259   6.940
 6184POPC   C4A77934  18.125   8.507   7.321
 6184POPC   C1B77935  18.643   8.061   6.201
 6184POPC   C2B77936  18.664   7.993   6.623
 6184POPC   C3B77937  18.537   8.124   7.015
 6184POPC   C4B77938  18.432   8.054   7.428
 6185POPC   NC377939  17.621  21.891   5.372
 6185POPC   PO477940  18.009  22.440   5.555
 6185POPC   GL177941  17.652  22.224   5.822
 6185POPC   GL277942  17.438  21.895   5.834
 6185POPC   C1A77943  17.454  22.372   6.219
 6185POPC   D2A77944  17.496  22.190   6.643
 6185POPC   C3A77945  17.376  22.404   7.025
 6185POPC   C4A77946  17.674  22.205   7.291
 6185POPC   C1B77947  17.432  21.872   6.245
 6185POPC   C2B77948  17.185  21.790   6.612
 6185POPC   C3B77949  17.329  21.881   7.026
 6185POPC   C4B77950  17.220  22.067   7.437
 6186POPC   NC377951  19.530  37.606   5.548
 6186POPC   PO477952  19.960  38.145   5.368
 6186POPC   GL177953  19.860  37.931   5.793
 6186POPC   GL277954  19.901  37.555   5.905
 6186POPC   C1A77955  19.856  37.936   6.284
 6186POPC   D2A77956  19.723  37.768   6.718
 6186POPC   C3A77957  19.983  37.511   7.031
 6186POPC   C4A77958  20.054  37.575   7.507
 6186POPC   C1B77959  19.549  37.466   6.224
 6186POPC   C2B77960  19.370  37.367   6.645
 6186POPC   C3B77961  19.455  37.464   7.071
 6186POPC   C4B77962  19.520  37.479   7.497
 6187POPC   NC377963  42.763  10.373   5.205
 6187POPC   PO477964  42.304  10.782   5.429
 6187POPC   GL177965  42.233  10.628   5.822
 6187POPC   GL277966  42.548  10.549   5.858
 6187POPC   C1A77967  42.139  10.656   6.254
 6187POPC   D2A77968  42.112  10.345   6.567
 6187POPC   C3A77969  42.182  10.484   6.988
 6187POPC   C4A77970  42.294  10.380   7.424
 6187POPC   C1B77971  42.539  10.329   6.248
 6187POPC   C2B77972  42.599  10.507   6.646
 6187POPC   C3B77973  42.683  10.394   7.066
 6187POPC   C4B77974  42.715  10.673   7.376
 6188POPC   NC377975  15.187  37.112   5.259
 6188POPC   PO477976  15.218  36.428   5.300
 6188POPC   GL177977  15.053  36.780   5.653
 6188POPC   GL277978  15.368  36.987   5.725
 6188POPC   C1A77979  14.999  36.815   6.175
 6188POPC   D2A77980  14.960  36.611   6.645
 6188POPC   C3A77981  14.975  36.891   7.038
 6188POPC   C4A77982  15.097  36.838   7.490
 6188POPC   C1B77983  15.488  36.989   6.155
 6188POPC   C2B77984  15.374  36.920   6.586
 6188POPC   C3B77985  15.462  36.740   6.977
 6188POPC   C4B77986  15.425  37.091   7.236
 6189POPC   NC377987  19.944  13.749   5.478
 6189POPC   PO477988  19.458  13.225   5.387
 6189POPC   GL177989  19.614  13.466   5.777
 6189POPC   GL277990  19.969  13.408   5.879
 6189POPC   C1A77991  19.513  13.545   6.241
 6189POPC   D2A77992  19.684  13.340   6.648
 6189POPC   C3A77993  19.862  13.517   7.023
 6189POPC   C4A77994  19.658  13.626   7.421
 6189POPC   C1B77995  19.974  13.719   6.204
 6189POPC   C2B77996  19.802  13.876   6.635
 6189POPC   C3B77997  19.847  14.022   7.092
 6189POPC   C4B77998  20.105  13.840   7.454
 6190POPC   NC377999  12.190   9.511   5.536
 6190POPC   PO478000  11.815  10.103   5.519
 6190POPC   GL178001  12.007  10.069   5.931
 6190POPC   GL278002  12.040   9.714   5.982
 6190POPC   C1A78003  12.073  10.111   6.394
 6190POPC   D2A78004  12.354  10.081   6.762
 6190POPC   C3A78005  12.021  10.002   7.122
 6190POPC   C4A78006  12.005   9.659   7.460
 6190POPC   C1B78007  12.057   9.567   6.371
 6190POPC   C2B78008  12.090   9.662   6.767
 6190POPC   C3B78009  12.382   9.618   7.096
 6190POPC   C4B78010  12.415   9.363   7.487
 6191POPC   NC378011  34.798  31.235   5.631
 6191POPC   PO478012  34.286  31.524   5.216
 6191POPC   GL178013  34.420  31.586   5.698
 6191POPC   GL278014  34.713  31.821   5.769
 6191POPC   C1A78015  34.498  31.521   6.168
 6191POPC   D2A78016  34.306  31.521   6.602
 6191POPC   C3A78017  34.517  31.500   6.963
 6191POPC   C4A78018  34.404  31.667   7.338
 6191POPC   C1B78019  34.971  31.705   6.161
 6191POPC   C2B78020  34.960  31.452   6.562
 6191POPC   C3B78021  35.015  31.592   7.001
 6191POPC   C4B78022  34.847  31.418   7.400
 6192POPC   NC378023  29.405  14.777   5.508
 6192POPC   PO478024  29.004  14.183   5.487
 6192POPC   GL178025  29.142  14.428   5.800
 6192POPC   GL278026  28.936  14.732   5.808
 6192POPC   C1A78027  29.270  14.408   6.214
 6192POPC   D2A78028  29.263  14.594   6.591
 6192POPC   C3A78029  29.435  14.300   6.858
 6192POPC   C4A78030  29.379  14.213   7.277
 6192POPC   C1B78031  28.795  14.548   6.206
 6192POPC   C2B78032  28.886  14.256   6.609
 6192POPC   C3B78033  28.958  14.399   7.031
 6192POPC   C4B78034  29.238  14.705   7.123
 6193POPC   NC378035  29.222  16.322   5.414
 6193POPC   PO478036  29.456  16.890   5.206
 6193POPC   GL178037  29.288  16.792   5.647
 6193POPC   GL278038  28.943  16.647   5.692
 6193POPC   C1A78039  29.290  16.624   6.088
 6193POPC   D2A78040  29.464  16.590   6.501
 6193POPC   C3A78041  29.253  16.535   6.879
 6193POPC   C4A78042  29.281  16.635   7.336
 6193POPC   C1B78043  28.846  16.371   6.039
 6193POPC   C2B78044  28.923  16.488   6.461
 6193POPC   C3B78045  28.757  16.694   6.819
 6193POPC   C4B78046  28.828  16.513   7.179
 6194POPC   NC378047  30.281  13.929   5.664
 6194POPC   PO478048  29.791  14.443   5.489
 6194POPC   GL178049  29.689  14.418   5.932
 6194POPC   GL278050  30.044  14.390   5.955
 6194POPC   C1A78051  29.735  14.420   6.441
 6194POPC   D2A78052  29.690  14.790   6.790
 6194POPC   C3A78053  29.767  14.650   7.172
 6194POPC   C4A78054  29.878  14.239   7.125
 6194POPC   C1B78055  30.229  14.183   6.309
 6194POPC   C2B78056  30.153  14.029   6.719
 6194POPC   C3B78057  30.359  14.111   7.075
 6194POPC   C4B78058  30.351  14.535   7.188
 6195POPC   NC378059  21.554  23.266   5.526
 6195POPC   PO478060  21.150  22.643   5.495
 6195POPC   GL178061  21.329  22.901   5.817
 6195POPC   GL278062  21.142  23.249   5.819
 6195POPC   C1A78063  21.444  22.785   6.242
 6195POPC   D2A78064  21.224  22.690   6.605
 6195POPC   C3A78065  21.374  22.802   6.990
 6195POPC   C4A78066  21.545  22.628   7.294
 6195POPC   C1B78067  21.428  23.289   6.178
 6195POPC   C2B78068  21.425  23.165   6.599
 6195POPC   C3B78069  21.638  23.278   6.957
 6195POPC   C4B78070  21.632  23.136   7.354
 6196POPC   NC378071   0.018   8.741   5.482
 6196POPC   PO478072  44.464   9.087   5.488
 6196POPC   GL178073  44.637   8.877   5.842
 6196POPC   GL278074  44.880   8.634   5.961
 6196POPC   C1A78075  44.509   8.827   6.279
 6196POPC   D2A78076  44.563   8.795   6.718
 6196POPC   C3A78077  44.321   9.038   6.994
 6196POPC   C4A78078  44.257   8.927   7.415
 6196POPC   C1B78079   0.010   9.031   6.171
 6196POPC   C2B78080   0.129   9.020   6.600
 6196POPC   C3B78081   0.013   8.727   6.933
 6196POPC   C4B78082  44.714   8.771   7.223
 6197POPC   NC378083   4.878  41.849   5.416
 6197POPC   PO478084   4.843  41.175   5.327
 6197POPC   GL178085   5.068  41.260   5.708
 6197POPC   GL278086   5.094  41.622   5.819
 6197POPC   C1A78087   5.226  41.251   6.124
 6197POPC   D2A78088   5.056  41.272   6.522
 6197POPC   C3A78089   5.350  41.286   6.833
 6197POPC   C4A78090   5.146  41.403   7.217
 6197POPC   C1B78091   5.179  41.756   6.254
 6197POPC   C2B78092   5.078  41.749   6.710
 6197POPC   C3B78093   5.026  41.969   7.086
 6197POPC   C4B78094   5.329  42.137   7.343
 6198POPC   NC378095  12.186  43.929   5.432
 6198POPC   PO478096  12.131  44.518   5.676
 6198POPC   GL178097  11.948  44.155   5.852
 6198POPC   GL278098  12.273  44.064   5.935
 6198POPC   C1A78099  11.921  43.826   6.190
 6198POPC   D2A78100  12.233  43.789   6.510
 6198POPC   C3A78101  12.213  43.998   6.863
 6198POPC   C4A78102  12.136  43.888   7.274
 6198POPC   C1B78103  12.143  44.263   6.337
 6198POPC   C2B78104  12.157  44.507   6.716
 6198POPC   C3B78105  11.966  44.361   7.119
 6198POPC   C4B78106  11.898  44.235   7.564
 6199POPC   NC378107  44.395   2.895   5.091
 6199POPC   PO478108  44.899   2.698   5.314
 6199POPC   GL178109  44.767   2.781   5.723
 6199POPC   GL278110  44.891   2.482   5.885
 6199POPC   C1A78111  44.796   2.897   6.168
 6199POPC   D2A78112  44.844   2.581   6.480
 6199POPC   C3A78113  44.832   2.721   6.927
 6199POPC   C4A78114  44.851   2.949   7.317
 6199POPC   C1B78115  44.487   2.432   6.094
 6199POPC   C2B78116  44.383   2.308   6.516
 6199POPC   C3B78117  44.709   2.229   6.818
 6199POPC   C4B78118  44.721   2.291   7.250
 6200POPC   NC378119   9.345   9.541   5.379
 6200POPC   PO478120   9.901   9.882   5.358
 6200POPC   GL178121   9.919   9.774   5.821
 6200POPC   GL278122   9.604   9.609   5.918
 6200POPC   C1A78123  10.135   9.812   6.234
 6200POPC   D2A78124  10.073  10.013   6.614
 6200POPC   C3A78125  10.093   9.806   7.016
 6200POPC   C4A78126   9.875   9.673   7.419
 6200POPC   C1B78127   9.623   9.808   6.368
 6200POPC   C2B78128   9.618   9.729   6.826
 6200POPC   C3B78129   9.395   9.534   7.192
 6200POPC   C4B78130   9.143   9.231   7.466
 6201POPC   NC378131  37.306  34.642   5.413
 6201POPC   PO478132  37.877  35.062   5.333
 6201POPC   GL178133  37.734  34.969   5.804
 6201POPC   GL278134  37.474  34.698   5.925
 6201POPC   C1A78135  37.551  35.033   6.267
 6201POPC   D2A78136  37.508  34.726   6.547
 6201POPC   C3A78137  37.693  34.829   6.941
 6201POPC   C4A78138  37.840  34.793   7.365
 6201POPC   C1B78139  37.596  34.331   6.220
 6201POPC   C2B78140  37.453  34.194   6.599
 6201POPC   C3B78141  37.626  34.323   6.987
 6201POPC   C4B78142  37.537  34.361   7.408
 6202POPC   NC378143   4.440  31.103   5.305
 6202POPC   PO478144   4.101  31.686   5.225
 6202POPC   GL178145   4.224  31.485   5.665
 6202POPC   GL278146   4.511  31.629   5.858
 6202POPC   C1A78147   4.202  31.345   6.143
 6202POPC   D2A78148   4.179  31.512   6.591
 6202POPC   C3A78149   4.262  31.248   6.974
 6202POPC   C4A78150   4.070  31.373   7.381
 6202POPC   C1B78151   4.513  31.848   6.259
 6202POPC   C2B78152   4.452  31.969   6.663
 6202POPC   C3B78153   4.372  31.736   7.032
 6202POPC   C4B78154   4.552  31.516   7.397
 6203POPC   NC378155  19.432  27.073   5.442
 6203POPC   PO478156  20.088  26.748   5.296
 6203POPC   GL178157  19.973  26.875   5.708
 6203POPC   GL278158  20.203  27.171   5.747
 6203POPC   C1A78159  19.716  26.826   6.122
 6203POPC   D2A78160  19.623  26.585   6.518
 6203POPC   C3A78161  19.789  26.696   6.912
 6203POPC   C4A78162  19.768  26.719   7.371
 6203POPC   C1B78163  20.233  26.908   6.145
 6203POPC   C2B78164  20.172  26.575   6.474
 6203POPC   C3B78165  20.265  26.557   6.937
 6203POPC   C4B78166  20.199  26.946   7.196
 6204POPC   NC378167  24.017  33.588   5.484
 6204POPC   PO478168  23.550  34.095   5.316
 6204POPC   GL178169  23.388  33.877   5.677
 6204POPC   GL278170  23.527  33.563   5.809
 6204POPC   C1A78171  23.461  33.991   6.137
 6204POPC   D2A78172  23.430  33.672   6.457
 6204POPC   C3A78173  23.530  33.702   6.900
 6204POPC   C4A78174  23.487  33.912   7.281
 6204POPC   C1B78175  23.852  33.642   6.140
 6204POPC   C2B78176  24.189  33.738   6.466
 6204POPC   C3B78177  24.171  33.665   6.917
 6204POPC   C4B78178  23.979  33.660   7.359
 6205POPC   NC378179  31.612  42.698   5.513
 6205POPC   PO478180  31.812  42.085   5.583
 6205POPC   GL178181  31.596  42.328   5.891
 6205POPC   GL278182  31.272  42.484   5.825
 6205POPC   C1A78183  31.604  42.237   6.306
 6205POPC   D2A78184  31.756  42.180   6.693
 6205POPC   C3A78185  31.761  42.565   6.893
 6205POPC   C4A78186  31.632  42.526   7.290
 6205POPC   C1B78187  31.305  42.667   6.198
 6205POPC   C2B78188  31.239  42.481   6.581
 6205POPC   C3B78189  31.314  42.307   6.943
 6205POPC   C4B78190  31.135  42.472   7.284
 6206POPC   NC378191   6.851   5.009   5.379
 6206POPC   PO478192   6.386   5.380   5.646
 6206POPC   GL178193   6.747   5.246   5.891
 6206POPC   GL278194   6.810   4.859   5.874
 6206POPC   C1A78195   6.698   5.264   6.345
 6206POPC   D2A78196   6.524   5.022   6.686
 6206POPC   C3A78197   6.696   5.292   6.955
 6206POPC   C4A78198   6.942   5.343   7.304
 6206POPC   C1B78199   6.799   4.771   6.309
 6206POPC   C2B78200   7.030   4.935   6.667
 6206POPC   C3B78201   6.998   4.898   7.065
 6206POPC   C4B78202   6.604   4.858   7.233
 6207POPC   NC378203  17.781  41.121   5.337
 6207POPC   PO478204  17.602  40.539   5.647
 6207POPC   GL178205  17.388  40.730   5.957
 6207POPC   GL278206  17.234  40.479   6.106
 6207POPC   C1A78207  17.422  40.918   6.336
 6207POPC   D2A78208  17.322  40.985   6.742
 6207POPC   C3A78209  17.638  41.144   7.017
 6207POPC   C4A78210  17.378  41.014   7.331
 6207POPC   C1B78211  17.608  40.439   6.350
 6207POPC   C2B78212  17.467  40.314   6.722
 6207POPC   C3B78213  17.459  40.585   7.072
 6207POPC   C4B78214  17.842  40.788   7.289
 6208POPC   NC378215   8.267  38.261   5.411
 6208POPC   PO478216   7.827  38.663   5.414
 6208POPC   GL178217   8.076  38.512   5.837
 6208POPC   GL278218   8.427  38.352   5.893
 6208POPC   C1A78219   8.266  38.655   6.272
 6208POPC   D2A78220   8.393  38.524   6.706
 6208POPC   C3A78221   8.184  38.722   7.095
 6208POPC   C4A78222   7.961  38.608   7.488
 6208POPC   C1B78223   8.336  38.133   6.321
 6208POPC   C2B78224   8.294  38.021   6.793
 6208POPC   C3B78225   8.209  38.215   7.221
 6208POPC   C4B78226   8.344  38.341   7.669
 6209POPC   NC378227  38.725   6.112   5.377
 6209POPC   PO478228  39.396   5.957   5.353
 6209POPC   GL178229  39.139   6.002   5.705
 6209POPC   GL278230  39.412   5.809   5.843
 6209POPC   C1A78231  39.039   5.965   6.163
 6209POPC   D2A78232  38.900   6.118   6.570
 6209POPC   C3A78233  38.774   5.837   6.888
 6209POPC   C4A78234  38.854   5.935   7.303
 6209POPC   C1B78235  39.510   5.675   6.264
 6209POPC   C2B78236  39.304   5.814   6.635
 6209POPC   C3B78237  39.230   6.103   6.985
 6209POPC   C4B78238  39.356   5.908   7.388
 6210POPC   NC378239  28.166  26.519   5.574
 6210POPC   PO478240  28.462  27.106   5.536
 6210POPC   GL178241  28.483  26.792   5.895
 6210POPC   GL278242  28.231  26.551   6.073
 6210POPC   C1A78243  28.672  26.615   6.296
 6210POPC   D2A78244  28.460  26.555   6.666
 6210POPC   C3A78245  28.464  26.851   6.991
 6210POPC   C4A78246  28.508  26.799   7.439
 6210POPC   C1B78247  28.262  26.932   6.332
 6210POPC   C2B78248  28.077  27.000   6.682
 6210POPC   C3B78249  27.974  26.631   6.865
 6210POPC   C4B78250  28.020  26.715   7.262
 6211POPC   NC378251   4.457  16.857   5.102
 6211POPC   PO478252   4.088  16.409   5.451
 6211POPC   GL178253   4.115  16.725   5.817
 6211POPC   GL278254   4.425  16.955   5.820
 6211POPC   C1A78255   4.118  16.727   6.281
 6211POPC   D2A78256   4.351  16.837   6.671
 6211POPC   C3A78257   4.305  16.736   7.111
 6211POPC   C4A78258   4.171  17.020   7.471
 6211POPC   C1B78259   4.454  17.134   6.248
 6211POPC   C2B78260   4.706  17.206   6.623
 6211POPC   C3B78261   4.534  17.195   7.030
 6211POPC   C4B78262   4.652  16.996   7.385
 6212POPC   NC378263  22.020  27.126   5.103
 6212POPC   PO478264  22.113  27.709   5.447
 6212POPC   GL178265  22.168  27.577   5.855
 6212POPC   GL278266  22.125  27.227   5.831
 6212POPC   C1A78267  22.159  27.773   6.265
 6212POPC   D2A78268  22.206  27.675   6.675
 6212POPC   C3A78269  22.033  27.852   7.024
 6212POPC   C4A78270  22.267  27.759   7.397
 6212POPC   C1B78271  22.333  27.248   6.235
 6212POPC   C2B78272  22.183  27.171   6.644
 6212POPC   C3B78273  22.294  27.320   7.047
 6212POPC   C4B78274  22.161  27.261   7.464
 6213POPC   NC378275  42.362  38.841   5.426
 6213POPC   PO478276  42.145  39.408   5.318
 6213POPC   GL178277  42.160  39.218   5.741
 6213POPC   GL278278  42.272  38.899   5.916
 6213POPC   C1A78279  42.224  39.363   6.156
 6213POPC   D2A78280  42.329  39.257   6.574
 6213POPC   C3A78281  42.088  39.446   6.883
 6213POPC   C4A78282  42.148  39.528   7.308
 6213POPC   C1B78283  42.066  38.878   6.310
 6213POPC   C2B78284  41.921  38.963   6.728
 6213POPC   C3B78285  42.160  38.977   7.119
 6213POPC   C4B78286  42.112  38.664   7.480
 6214POPC   NC378287   7.247  34.139   5.472
 6214POPC   PO478288   7.545  33.557   5.371
 6214POPC   GL178289   7.551  33.660   5.811
 6214POPC   GL278290   7.524  34.009   5.912
 6214POPC   C1A78291   7.727  33.639   6.236
 6214POPC   D2A78292   7.950  33.644   6.652
 6214POPC   C3A78293   7.624  33.548   6.962
 6214POPC   C4A78294   7.375  33.806   7.257
 6214POPC   C1B78295   7.293  33.994   6.321
 6214POPC   C2B78296   7.342  33.972   6.774
 6214POPC   C3B78297   7.098  34.206   7.108
 6214POPC   C4B78298   6.970  34.192   7.546
 6215POPC   NC378299  39.716  30.555   5.448
 6215POPC   PO478300  40.411  30.485   5.596
 6215POPC   GL178301  40.028  30.594   5.871
 6215POPC   GL278302  39.804  30.908   5.829
 6215POPC   C1A78303  39.861  30.600   6.303
 6215POPC   D2A78304  39.709  30.617   6.721
 6215POPC   C3A78305  39.881  30.339   7.066
 6215POPC   C4A78306  40.093  30.405   7.499
 6215POPC   C1B78307  40.081  31.029   6.182
 6215POPC   C2B78308  40.147  30.951   6.654
 6215POPC   C3B78309  40.174  30.774   7.103
 6215POPC   C4B78310  40.235  30.909   7.568
 6216POPC   NC378311  41.187  31.719   5.497
 6216POPC   PO478312  40.755  32.229   5.185
 6216POPC   GL178313  40.652  32.276   5.713
 6216POPC   GL278314  40.870  32.493   5.914
 6216POPC   C1A78315  40.546  32.220   6.176
 6216POPC   D2A78316  40.688  32.421   6.570
 6216POPC   C3A78317  40.611  32.245   7.005
 6216POPC   C4A78318  40.444  32.088   7.401
 6216POPC   C1B78319  41.078  32.669   6.267
 6216POPC   C2B78320  41.100  32.674   6.712
 6216POPC   C3B78321  41.123  32.315   6.979
 6216POPC   C4B78322  41.334  32.427   7.345
 6217POPC   NC378323  18.353   3.917   5.529
 6217POPC   PO478324  18.082   3.280   5.455
 6217POPC   GL178325  18.240   3.469   5.841
 6217POPC   GL278326  18.069   3.783   5.940
 6217POPC   C1A78327  18.566   3.509   6.167
 6217POPC   D2A78328  18.594   3.788   6.533
 6217POPC   C3A78329  18.446   3.588   6.865
 6217POPC   C4A78330  18.404   3.205   7.093
 6217POPC   C1B78331  18.111   3.619   6.369
 6217POPC   C2B78332  18.008   3.336   6.719
 6217POPC   C3B78333  17.970   3.514   7.099
 6217POPC   C4B78334  18.164   3.896   7.164
 6218POPC   NC378335   3.676  43.318   5.454
 6218POPC   PO478336   3.316  42.799   5.262
 6218POPC   GL178337   3.369  42.850   5.759
 6218POPC   GL278338   3.717  42.987   5.848
 6218POPC   C1A78339   3.339  43.010   6.216
 6218POPC   D2A78340   3.586  43.104   6.614
 6218POPC   C3A78341   3.362  43.246   7.029
 6218POPC   C4A78342   3.526  43.030   7.346
 6218POPC   C1B78343   3.780  43.360   6.159
 6218POPC   C2B78344   3.933  43.556   6.564
 6218POPC   C3B78345   3.841  43.407   6.976
 6218POPC   C4B78346   3.816  43.515   7.421
 6219POPC   NC378347   6.137  41.324   5.445
 6219POPC   PO478348   6.069  41.914   5.616
 6219POPC   GL178349   5.958  41.524   5.889
 6219POPC   GL278350   6.176  41.239   5.969
 6219POPC   C1A78351   5.708  41.414   6.263
 6219POPC   D2A78352   5.591  41.736   6.576
 6219POPC   C3A78353   5.520  41.740   7.024
 6219POPC   C4A78354   5.786  41.948   7.330
 6219POPC   C1B78355   6.188  41.251   6.418
 6219POPC   C2B78356   5.881  41.331   6.746
 6219POPC   C3B78357   5.975  41.525   7.101
 6219POPC   C4B78358   6.135  41.249   7.357
 6220POPC   NC378359  34.777  39.535   5.494
 6220POPC   PO478360  34.370  38.997   5.548
 6220POPC   GL178361  34.433  38.922   5.947
 6220POPC   GL278362  34.785  39.050   5.974
 6220POPC   C1A78363  34.422  39.132   6.323
 6220POPC   D2A78364  34.646  39.281   6.651
 6220POPC   C3A78365  34.594  38.971   6.889
 6220POPC   C4A78366  34.296  38.968   7.200
 6220POPC   C1B78367  34.872  39.457   6.209
 6220POPC   C2B78368  35.043  39.614   6.614
 6220POPC   C3B78369  34.847  39.614   7.009
 6220POPC   C4B78370  34.744  39.289   7.271
 6221POPC   NC378371  43.793  20.081   5.071
 6221POPC   PO478372  43.590  19.640   5.554
 6221POPC   GL178373  43.868  19.723   5.872
 6221POPC   GL278374  44.078  20.018   5.881
 6221POPC   C1A78375  43.953  19.564   6.263
 6221POPC   D2A78376  43.983  19.301   6.576
 6221POPC   C3A78377  44.051  19.521   6.924
 6221POPC   C4A78378  44.078  19.749   7.280
 6221POPC   C1B78379  43.810  20.056   6.254
 6221POPC   C2B78380  43.983  20.077   6.636
 6221POPC   C3B78381  43.939  20.174   7.035
 6221POPC   C4B78382  43.668  20.467   7.196
 6222POPC   NC378383   2.362  38.631   5.190
 6222POPC   PO478384   1.892  38.256   5.524
 6222POPC   GL178385   2.103  38.607   5.722
 6222POPC   GL278386   1.792  38.712   5.875
 6222POPC   C1A78387   2.241  38.597   6.171
 6222POPC   D2A78388   2.151  38.277   6.527
 6222POPC   C3A78389   2.038  38.376   6.962
 6222POPC   C4A78390   2.223  38.604   7.297
 6222POPC   C1B78391   1.747  38.630   6.338
 6222POPC   C2B78392   1.730  38.758   6.773
 6222POPC   C3B78393   1.706  38.682   7.202
 6222POPC   C4B78394   1.615  38.245   7.301
 6223POPC   NC378395  27.952   7.091   5.106
 6223POPC   PO478396  27.499   7.324   5.465
 6223POPC   GL178397  27.412   7.465   5.842
 6223POPC   GL278398  27.453   7.793   5.795
 6223POPC   C1A78399  27.601   7.434   6.261
 6223POPC   D2A78400  27.708   7.521   6.682
 6223POPC   C3A78401  27.976   7.263   6.931
 6223POPC   C4A78402  27.893   7.142   7.369
 6223POPC   C1B78403  27.280   7.816   6.185
 6223POPC   C2B78404  27.193   7.654   6.562
 6223POPC   C3B78405  27.321   7.742   6.955
 6223POPC   C4B78406  27.322   7.731   7.353
 6224POPC   NC378407   0.484   4.459   5.363
 6224POPC   PO478408   0.787   4.077   5.735
 6224POPC   GL178409   0.327   4.291   5.827
 6224POPC   GL278410   0.267   4.661   5.802
 6224POPC   C1A78411   0.120   4.395   6.210
 6224POPC   D2A78412   0.345   4.437   6.579
 6224POPC   C3A78413   0.226   4.225   6.938
 6224POPC   C4A78414   0.043   3.915   7.195
 6224POPC   C1B78415   0.606   4.596   6.136
 6224POPC   C2B78416   0.820   4.642   6.553
 6224POPC   C3B78417   0.664   4.608   6.966
 6224POPC   C4B78418   0.517   4.403   7.318
 6225POPC   NC378419  28.041  15.053   5.458
 6225POPC   PO478420  28.556  14.835   5.075
 6225POPC   GL178421  28.558  14.996   5.546
 6225POPC   GL278422  28.402  14.752   5.782
 6225POPC   C1A78423  28.604  15.158   6.022
 6225POPC   D2A78424  28.490  15.116   6.482
 6225POPC   C3A78425  28.469  15.411   6.860
 6225POPC   C4A78426  28.575  15.363   7.310
 6225POPC   C1B78427  28.146  14.740   6.199
 6225POPC   C2B78428  28.109  14.839   6.670
 6225POPC   C3B78429  28.238  14.996   7.069
 6225POPC   C4B78430  27.954  15.084   7.389
 6226POPC   NC378431  29.514  14.008   5.480
 6226POPC   PO478432  30.043  13.529   5.621
 6226POPC   GL178433  29.688  13.592   5.848
 6226POPC   GL278434  29.802  13.924   5.889
 6226POPC   C1A78435  29.803  13.547   6.280
 6226POPC   D2A78436  29.981  13.340   6.616
 6226POPC   C3A78437  30.032  13.580   6.980
 6226POPC   C4A78438  29.988  13.455   7.415
 6226POPC   C1B78439  29.549  13.978   6.230
 6226POPC   C2B78440  29.667  13.881   6.652
 6226POPC   C3B78441  29.593  13.805   7.072
 6226POPC   C4B78442  29.745  13.915   7.488
 6227POPC   NC378443  37.346  25.670   5.471
 6227POPC   PO478444  37.750  26.161   5.459
 6227POPC   GL178445  37.701  26.211   5.863
 6227POPC   GL278446  37.613  26.542   5.927
 6227POPC   C1A78447  37.506  26.005   6.213
 6227POPC   D2A78448  37.441  25.884   6.643
 6227POPC   C3A78449  37.563  25.971   7.082
 6227POPC   C4A78450  37.941  25.844   7.258
 6227POPC   C1B78451  37.786  26.419   6.324
 6227POPC   C2B78452  37.754  26.304   6.754
 6227POPC   C3B78453  37.856  26.373   7.178
 6227POPC   C4B78454  37.854  26.518   7.569
 6228POPC   NC378455  11.680  33.088   5.544
 6228POPC   PO478456  12.306  33.196   5.420
 6228POPC   GL178457  12.113  33.308   5.797
 6228POPC   GL278458  12.085  32.929   5.880
 6228POPC   C1A78459  12.058  33.276   6.253
 6228POPC   D2A78460  12.260  33.060   6.602
 6228POPC   C3A78461  12.091  32.885   6.997
 6228POPC   C4A78462  11.972  33.076   7.372
 6228POPC   C1B78463  12.382  32.711   6.201
 6228POPC   C2B78464  12.313  32.545   6.644
 6228POPC   C3B78465  12.462  32.484   7.068
 6228POPC   C4B78466  12.298  32.659   7.443
 6229POPC   NC378467  38.572   7.850   5.134
 6229POPC   PO478468  38.277   7.356   5.516
 6229POPC   GL178469  38.403   7.475   5.881
 6229POPC   GL278470  38.596   7.739   5.745
 6229POPC   C1A78471  38.411   7.381   6.292
 6229POPC   D2A78472  38.569   7.513   6.657
 6229POPC   C3A78473  38.396   7.254   6.957
 6229POPC   C4A78474  38.598   7.177   7.327
 6229POPC   C1B78475  38.523   7.896   6.182
 6229POPC   C2B78476  38.765   7.987   6.551
 6229POPC   C3B78477  38.597   7.945   6.973
 6229POPC   C4B78478  38.416   7.656   7.253
 6230POPC   NC378479  33.540  35.890   5.440
 6230POPC   PO478480  34.186  35.904   5.556
 6230POPC   GL178481  33.934  35.996   5.885
 6230POPC   GL278482  33.703  36.258   5.795
 6230POPC   C1A78483  34.028  35.988   6.302
 6230POPC   D2A78484  33.760  35.951   6.626
 6230POPC   C3A78485  33.814  36.286   6.883
 6230POPC   C4A78486  33.906  36.187   7.264
 6230POPC   C1B78487  33.553  36.194   6.226
 6230POPC   C2B78488  33.375  36.365   6.621
 6230POPC   C3B78489  33.440  36.638   6.989
 6230POPC   C4B78490  33.523  36.474   7.433
 6231POPC   NC378491   0.907  28.165   5.690
 6231POPC   PO478492   0.510  28.574   5.277
 6231POPC   GL178493   0.312  28.529   5.699
 6231POPC   GL278494   0.617  28.538   5.927
 6231POPC   C1A78495   0.196  28.286   6.106
 6231POPC   D2A78496   0.305  28.444   6.533
 6231POPC   C3A78497   0.237  28.216   6.932
 6231POPC   C4A78498   0.460  28.268   7.339
 6231POPC   C1B78499   0.677  28.818   6.293
 6231POPC   C2B78500   0.825  28.888   6.728
 6231POPC   C3B78501   0.648  28.676   7.099
 6231POPC   C4B78502   0.677  28.727   7.566
 6232POPC   NC378503  24.086  18.627   5.362
 6232POPC   PO478504  24.572  19.100   5.418
 6232POPC   GL178505  24.381  19.020   5.830
 6232POPC   GL278506  24.291  18.659   5.945
 6232POPC   C1A78507  24.524  19.003   6.270
 6232POPC   D2A78508  24.376  19.152   6.670
 6232POPC   C3A78509  24.655  19.312   6.978
 6232POPC   C4A78510  24.731  18.993   7.265
 6232POPC   C1B78511  24.001  18.933   6.170
 6232POPC   C2B78512  23.890  18.986   6.590
 6232POPC   C3B78513  24.103  18.751   6.920
 6232POPC   C4B78514  24.261  18.794   7.336
 6233POPC   NC378515  19.561  38.390   5.581
 6233POPC   PO478516  20.168  38.638   5.440
 6233POPC   GL178517  19.957  38.693   5.891
 6233POPC   GL278518  19.793  38.387   6.013
 6233POPC   C1A78519  19.880  38.659   6.400
 6233POPC   D2A78520  19.600  38.337   6.529
 6233POPC   C3A78521  19.669  38.268   6.939
 6233POPC   C4A78522  19.991  38.418   7.179
 6233POPC   C1B78523  19.498  38.765   6.113
 6233POPC   C2B78524  19.412  38.832   6.567
 6233POPC   C3B78525  19.602  38.789   6.999
 6233POPC   C4B78526  19.373  38.828   7.416
 6234POPC   NC378527  10.091  43.943   5.515
 6234POPC   PO478528  10.741  43.728   5.426
 6234POPC   GL178529  10.568  43.669   5.802
 6234POPC   GL278530  10.219  43.531   5.791
 6234POPC   C1A78531  10.776  43.759   6.183
 6234POPC   D2A78532  10.633  44.022   6.505
 6234POPC   C3A78533  10.778  43.927   6.896
 6234POPC   C4A78534  10.711  43.981   7.331
 6234POPC   C1B78535  10.242  43.821   6.181
 6234POPC   C2B78536  10.157  43.834   6.637
 6234POPC   C3B78537  10.274  43.890   7.090
 6234POPC   C4B78538  10.230  44.022   7.563
 6235POPC   NC378539   4.142   5.939   5.411
 6235POPC   PO478540   4.626   6.432   5.462
 6235POPC   GL178541   4.559   6.030   5.781
 6235POPC   GL278542   4.187   5.944   5.905
 6235POPC   C1A78543   4.539   5.763   6.195
 6235POPC   D2A78544   4.254   5.863   6.527
 6235POPC   C3A78545   4.336   5.885   6.950
 6235POPC   C4A78546   4.312   6.030   7.373
 6235POPC   C1B78547   3.871   5.811   6.205
 6235POPC   C2B78548   3.782   5.710   6.650
 6235POPC   C3B78549   3.856   5.815   7.100
 6235POPC   C4B78550   3.941   5.700   7.525
 6236POPC   NC378551  17.040  24.915   5.482
 6236POPC   PO478552  16.786  24.301   5.541
 6236POPC   GL178553  16.816  24.575   5.891
 6236POPC   GL278554  17.118  24.739   5.954
 6236POPC   C1A78555  16.784  24.486   6.338
 6236POPC   D2A78556  16.787  24.198   6.677
 6236POPC   C3A78557  16.733  24.431   7.064
 6236POPC   C4A78558  16.474  24.793   7.195
 6236POPC   C1B78559  17.224  24.326   6.141
 6236POPC   C2B78560  17.283  24.149   6.566
 6236POPC   C3B78561  17.219  24.254   6.992
 6236POPC   C4B78562  17.146  24.220   7.430
 6237POPC   NC378563  37.001  30.657   5.121
 6237POPC   PO478564  37.286  30.297   5.634
 6237POPC   GL178565  37.259  30.317   6.051
 6237POPC   GL278566  36.917  30.464   6.129
 6237POPC   C1A78567  37.330  30.558   6.413
 6237POPC   D2A78568  36.946  30.572   6.635
 6237POPC   C3A78569  37.023  30.764   6.966
 6237POPC   C4A78570  37.274  30.662   7.280
 6237POPC   C1B78571  36.753  30.892   6.260
 6237POPC   C2B78572  36.515  30.973   6.614
 6237POPC   C3B78573  36.498  30.643   6.892
 6237POPC   C4B78574  36.593  30.779   7.254
 6238POPC   NC378575  22.279  41.048   5.198
 6238POPC   PO478576  22.007  40.517   5.652
 6238POPC   GL178577  22.143  40.731   5.974
 6238POPC   GL278578  22.446  40.627   6.025
 6238POPC   C1A78579  22.045  40.893   6.341
 6238POPC   D2A78580  22.255  40.778   6.663
 6238POPC   C3A78581  21.968  40.799   6.985
 6238POPC   C4A78582  21.939  41.069   7.298
 6238POPC   C1B78583  22.674  40.399   6.300
 6238POPC   C2B78584  22.520  40.335   6.704
 6238POPC   C3B78585  22.564  40.591   7.031
 6238POPC   C4B78586  22.340  40.714   7.319
 6239POPC   NC378587  14.975  18.273   5.497
 6239POPC   PO478588  14.281  18.390   5.549
 6239POPC   GL178589  14.508  18.134   5.791
 6239POPC   GL278590  14.736  18.423   5.925
 6239POPC   C1A78591  14.409  17.979   6.198
 6239POPC   D2A78592  14.438  18.211   6.590
 6239POPC   C3A78593  14.151  18.211   6.929
 6239POPC   C4A78594  14.347  18.165   7.313
 6239POPC   C1B78595  14.786  18.656   6.341
 6239POPC   C2B78596  14.503  18.715   6.679
 6239POPC   C3B78597  14.519  18.616   7.093
 6239POPC   C4B78598  14.630  18.554   7.506
 6240POPC   NC378599  35.166  30.387   5.301
 6240POPC   PO478600  35.336  31.090   5.468
 6240POPC   GL178601  35.102  30.756   5.676
 6240POPC   GL278602  35.433  30.653   5.761
 6240POPC   C1A78603  35.017  30.596   6.124
 6240POPC   D2A78604  35.065  30.817   6.533
 6240POPC   C3A78605  35.089  30.654   6.964
 6240POPC   C4A78606  35.022  30.917   7.325
 6240POPC   C1B78607  35.533  30.653   6.200
 6240POPC   C2B78608  35.502  30.546   6.623
 6240POPC   C3B78609  35.624  30.814   6.922
 6240POPC   C4B78610  35.584  30.895   7.311
 6241POPC   NC378611   3.109   8.981   5.578
 6241POPC   PO478612   2.607   8.543   5.415
 6241POPC   GL178613   2.661   8.806   5.780
 6241POPC   GL278614   2.551   9.156   5.796
 6241POPC   C1A78615   2.864   8.918   6.173
 6241POPC   D2A78616   2.755   9.073   6.518
 6241POPC   C3A78617   2.909   8.923   6.857
 6241POPC   C4A78618   3.004   9.114   7.214
 6241POPC   C1B78619   2.478   9.352   6.178
 6241POPC   C2B78620   2.568   9.533   6.558
 6241POPC   C3B78621   2.538   9.321   6.937
 6241POPC   C4B78622   2.580   9.295   7.374
 6242POPC   NC378623   5.363  10.714   5.582
 6242POPC   PO478624   4.975  10.240   5.503
 6242POPC   GL178625   5.063  10.421   5.876
 6242POPC   GL278626   4.795  10.667   5.909
 6242POPC   C1A78627   4.967  10.335   6.293
 6242POPC   D2A78628   4.778  10.432   6.664
 6242POPC   C3A78629   4.945  10.243   7.004
 6242POPC   C4A78630   4.889  10.427   7.377
 6242POPC   C1B78631   5.130  10.805   6.213
 6242POPC   C2B78632   5.243  10.665   6.642
 6242POPC   C3B78633   5.077  10.781   7.052
 6242POPC   C4B78634   5.128  10.848   7.519
 6243POPC   NC378635   1.901   0.777   5.721
 6243POPC   PO478636   1.810   1.380   5.362
 6243POPC   GL178637   1.645   1.215   5.751
 6243POPC   GL278638   1.981   1.230   5.960
 6243POPC   C1A78639   1.531   1.231   6.196
 6243POPC   D2A78640   1.845   1.470   6.446
 6243POPC   C3A78641   2.084   1.254   6.768
 6243POPC   C4A78642   1.948   1.107   7.168
 6243POPC   C1B78643   1.936   0.941   6.351
 6243POPC   C2B78644   2.163   0.717   6.673
 6243POPC   C3B78645   2.399   0.891   7.016
 6243POPC   C4B78646   2.348   0.881   7.493
 6244POPC   NC378647  37.571   5.299   5.528
 6244POPC   PO478648  37.924   4.718   5.467
 6244POPC   GL178649  37.743   4.864   5.858
 6244POPC   GL278650  37.439   5.055   5.963
 6244POPC   C1A78651  37.859   4.864   6.292
 6244POPC   D2A78652  38.003   5.249   6.568
 6244POPC   C3A78653  37.791   5.332   6.938
 6244POPC   C4A78654  37.822   5.116   7.306
 6244POPC   C1B78655  37.512   5.231   6.381
 6244POPC   C2B78656  37.579   4.909   6.715
 6244POPC   C3B78657  37.423   4.890   7.109
 6244POPC   C4B78658  37.323   5.259   7.284
 6245POPC   NC378659  16.468  24.650   5.509
 6245POPC   PO478660  16.053  24.161   5.330
 6245POPC   GL178661  15.973  24.515   5.644
 6245POPC   GL278662  15.604  24.581   5.699
 6245POPC   C1A78663  16.138  24.642   6.085
 6245POPC   D2A78664  15.951  24.823   6.465
 6245POPC   C3A78665  16.068  24.657   6.884
 6245POPC   C4A78666  15.968  24.765   7.285
 6245POPC   C1B78667  15.613  24.578   6.180
 6245POPC   C2B78668  15.638  24.464   6.678
 6245POPC   C3B78669  15.746  24.285   7.137
 6245POPC   C4B78670  15.842  23.972   7.496
 6246W        W78671   8.122  38.929  10.683
 6247W        W78672   0.378   6.635   3.244
 6248W        W78673  25.927  36.774  11.514
 6249W        W78674  29.214   0.128  13.443
 6250W        W78675  42.988  38.324   3.651
 6251W        W78676  22.237  11.770  13.491
 6252W        W78677  26.528  41.465  11.587
 6253W        W78678   6.373  26.159  12.538
 6254W        W78679  15.421  36.496  14.482
 6255W        W78680  18.968  39.465   0.782
 6256W        W78681  18.703   3.426   2.849
 6257W        W78682  12.575  38.211  12.944
 6258W        W78683  33.596  11.804   4.565
 6259W        W78684   4.708  19.447  13.951
 6260W        W78685   5.358  26.949   1.699
 6261W        W78686  44.387  42.770  10.590
 6262W        W78687   5.666   9.372   1.790
 6263W        W78688   1.485   8.175   4.608
 6264W        W78689  15.246   5.851  10.443
 6265W        W78690   8.705  11.338   2.269
 6266W        W78691  40.044   5.802   0.336
 6267W        W78692  15.652   5.319  14.331
 6268W        W78693   3.459   7.176  11.741
 6269W        W78694  10.083   6.640  13.398
 6270W        W78695  13.039  21.018  14.482
 6271W        W78696  26.043  44.277   0.546
 6272W        W78697   5.787  34.124   2.320
 6273W        W78698  29.171  34.410  13.910
 6274W        W78699  41.801  14.376  12.986
 6275W        W78700  14.878  28.235   1.102
 6276W        W78701  31.376  41.043   0.473
 6277W        W78702  18.636  39.364   4.355
 6278W        W78703  17.566  43.197  13.589
 6279W        W78704   2.012  11.640   4.218
 6280W        W78705  11.148  18.609  14.408
 6281W        W78706   7.045   2.495  11.660
 6282W        W78707  20.039  16.153   3.398
 6283W        W78708  12.162   5.718   2.511
 6284W        W78709   0.782  24.988  13.451
 6285W        W78710  10.401  12.622   3.943
 6286W        W78711  29.054   4.485  14.328
 6287W        W78712  10.346  22.646   3.064
 6288W        W78713   0.018  42.615   5.235
 6289W        W78714  38.963  20.574  12.932
 6290W        W78715  41.430   3.890   4.606
 6291W        W78716  42.296  31.908   2.658
 6292W        W78717  10.133  35.675  12.286
 6293W        W78718  42.167   9.398   3.200
 6294W        W78719   3.403  20.261   3.298
 6295W        W78720  32.703  42.865  12.550
 6296W        W78721  41.444  12.725   3.647
 6297W        W78722   2.879  27.747   3.799
 6298W        W78723  29.433  23.104   4.288
 6299W        W78724  14.832  17.198   1.969
 6300W        W78725  44.787  18.659   1.758
 6301W        W78726  44.207  14.015   4.811
 6302W        W78727  10.495  26.643   0.439
 6303W        W78728  16.707  33.623  14.775
 6304W        W78729   7.902  13.256  13.751
 6305W        W78730  37.842  26.141  11.136
 6306W        W78731  12.070  30.000   3.826
 6307W        W78732  30.393  20.279  13.513
 6308W        W78733  24.458  28.443  12.426
 6309W        W78734   1.816  30.038   3.106
 6310W        W78735  28.810  17.719  12.497
 6311W        W78736  25.075   4.642   4.624
 6312W        W78737  23.782  37.910   0.118
 6313W        W78738  29.404  25.991   1.320
 6314W        W78739  44.998  41.989   1.771
 6315W        W78740  35.272  35.820   1.926
 6316W        W78741   1.192   9.694  10.911
 6317W        W78742  34.619  19.687  10.755
 6318W        W78743  43.027   8.537   4.926
 6319W        W78744  14.852   3.613  14.987
 6320W        W78745  38.466   9.352   3.774
 6321W        W78746  40.354  31.429   0.393
 6322W        W78747  32.949  26.664   1.352
 6323W        W78748   4.835  30.382   3.307
 6324W        W78749   3.949  27.480  13.364
 6325W        W78750   0.685  38.336   0.471
 6326W        W78751  20.539   1.702  12.871
 6327W        W78752  25.916  33.109  13.189
 6328W        W78753  31.621  21.125   1.357
 6329W        W78754  20.344  32.177   2.384
 6330W        W78755  38.841  19.101  11.440
 6331W        W78756  40.398  38.582   4.644
 6332W        W78757   5.942  12.474   3.370
 6333W        W78758   8.622  14.209   2.525
 6334W        W78759   1.848  21.322   0.541
 6335W        W78760   2.712  14.081  14.797
 6336W        W78761  27.060  17.696   3.368
 6337W        W78762  40.409   3.764   1.034
 6338W        W78763  25.121  32.478   4.422
 6339W        W78764  37.054  18.623   2.669
 6340W        W78765  37.193  32.069  11.850
 6341W        W78766  38.685  17.746  14.520
 6342W        W78767  15.204  14.026   0.006
 6343W        W78768  26.120   6.002   0.203
 6344W        W78769  42.043  30.927   0.940
 6345W        W78770  44.425  14.247   2.937
 6346W        W78771  22.002  15.753   2.132
 6347W        W78772  36.420  32.836  10.588
 6348W        W78773  38.554  31.849   2.296
 6349W        W78774   4.918  14.599   1.493
 6350W        W78775  35.641  20.708   3.684
 6351W        W78776   3.424  22.756  12.035
 6352W        W78777  42.860   4.228   1.891
 6353W        W78778  28.636   5.729   1.888
 6354W        W78779  24.841   8.241   2.867
 6355W        W78780   7.359  30.206   1.805
 6356W        W78781  40.749  43.349  14.582
 6357W        W78782   6.927  36.390   0.732
 6358W        W78783  31.057  38.078  14.285
 6359W        W78784  23.674  34.408  10.588
 6360W        W78785   8.412  12.921   3.763
 6361W        W78786  21.095   4.920   3.786
 6362W        W78787  33.161  21.336  12.365
 6363W        W78788   3.481  37.428   4.533
 6364W        W78789  37.036   0.135  13.958
 6365W        W78790  16.917   4.842   2.447
 6366W        W78791  41.370  43.038   3.228
 6367W        W78792  10.075  14.819  14.906
 6368W        W78793  41.477  23.417  11.051
 6369W        W78794  19.208  22.243  12.763
 6370W        W78795   9.165  24.272   1.334
 6371W        W78796   8.969   3.843   3.716
 6372W        W78797  23.637  21.288  13.406
 6373W        W78798  31.901  16.871  11.621
 6374W        W78799  44.065  22.513   0.828
 6375W        W78800   9.848  43.911  12.894
 6376W        W78801  27.674  22.612  13.458
 6377W        W78802   2.255  40.546  14.505
 6378W        W78803  27.940  19.233   0.545
 6379W        W78804   7.957   6.655   3.214
 6380W        W78805   8.832  34.131  12.114
 6381W        W78806  21.086  18.598   4.142
 6382W        W78807   1.772  32.558  10.628
 6383W        W78808  31.830  31.196   3.110
 6384W        W78809  23.328  16.977   3.102
 6385W        W78810  10.933  41.969  12.454
 6386W        W78811  43.606  23.048   2.174
 6387W        W78812   7.833   8.200   9.942
 6388W        W78813  39.906  26.629  14.859
 6389W        W78814  21.262  32.440   5.050
 6390W        W78815  12.428  37.825  14.341
 6391W        W78816   8.752  35.374   5.516
 6392W        W78817  38.549  15.642  11.564
 6393W        W78818  29.071  13.876  13.958
 6394W        W78819  40.246  39.897  11.175
 6395W        W78820   4.883  28.510  13.819
 6396W        W78821  14.677  24.612   9.919
 6397W        W78822  25.179  14.261  13.322
 6398W        W78823  41.452   7.353   4.467
 6399W        W78824  21.016  27.617   2.341
 6400W        W78825  20.207   3.865  13.859
 6401W        W78826  27.377  23.096   1.793
 6402W        W78827  44.505  21.184   0.016
 6403W        W78828  40.906  29.377  13.901
 6404W        W78829  14.487  21.403  11.624
 6405W        W78830  28.615   0.961   0.118
 6406W        W78831  37.511   3.658  12.046
 6407W        W78832  43.887  23.242  14.124
 6408W        W78833   6.716  29.946   4.994
 6409W        W78834  17.210  43.079   1.603
 6410W        W78835  33.482  38.873   4.483
 6411W        W78836   4.456  15.618  11.119
 6412W        W78837   7.318  43.918  11.598
 6413W        W78838  15.216  41.109  12.801
 6414W        W78839  41.507   2.898   0.977
 6415W        W78840  38.955  26.139  13.898
 6416W        W78841  27.099  11.247  13.703
 6417W        W78842  38.181   0.726  14.680
 6418W        W78843  10.339  27.461   0.702
 6419W        W78844  20.336  17.798  11.697
 6420W        W78845   9.788   3.489  10.686
 6421W        W78846  40.312  35.319  14.319
 6422W        W78847   9.906  37.604   2.304
 6423W        W78848  25.683  14.110   3.966
 6424W        W78849   7.174  16.732   0.438
 6425W        W78850  26.801  31.909   4.540
 6426W        W78851   4.593  38.997   1.237
 6427W        W78852  34.888  16.634   2.788
 6428W        W78853  33.525  25.624  11.170
 6429W        W78854  38.528  15.590   1.322
 6430W        W78855  14.768  14.164  14.784
 6431W        W78856  21.168  19.285   3.247
 6432W        W78857  43.096  24.016  11.586
 6433W        W78858  41.887  32.179   1.240
 6434W        W78859  42.759  37.397  14.307
 6435W        W78860   4.097  15.544  10.235
 6436W        W78861  21.061  36.481  13.932
 6437W        W78862  20.431   8.953  11.825
 6438W        W78863  21.195  25.250   1.847
 6439W        W78864  32.362   7.411  11.418
 6440W        W78865  10.684  29.219   1.664
 6441W        W78866  32.847  34.448  13.806
 6442W        W78867  11.755  30.184   0.419
 6443W        W78868   8.911  35.153   1.820
 6444W        W78869  27.922  39.491   5.110
 6445W        W78870  11.148  16.071   4.568
 6446W        W78871  31.592   8.396  12.896
 6447W        W78872  14.102   9.572   0.896
 6448W        W78873  20.095  42.103   1.863
 6449W        W78874  28.021  30.482  12.858
 6450W        W78875   9.743   3.463  12.118
 6451W        W78876  26.963  43.401   1.140
 6452W        W78877   1.463  41.783  12.467
 6453W        W78878  44.367  26.542   5.028
 6454W        W78879   9.858   3.569   1.302
 6455W        W78880   0.631  33.903  13.832
 6456W        W78881  43.723  30.861   3.324
 6457W        W78882   7.491  21.469   3.260
 6458W        W78883  16.806   1.777   1.859
 6459W        W78884  19.997  22.962  14.768
 6460W        W78885   8.571   9.107   0.783
 6461W        W78886  25.711  36.517  14.243
 6462W        W78887  33.327  33.572   2.695
 6463W        W78888  23.068  10.570  13.523
 6464W        W78889  20.553  25.837  14.366
 6465W        W78890  34.784  37.359  10.758
 6466W        W78891  40.450  25.495   3.226
 6467W        W78892   5.346  13.855   2.269
 6468W        W78893  43.469  26.293   4.569
 6469W        W78894  22.756  39.838  12.820
 6470W        W78895   4.591  14.220   2.596
 6471W        W78896  29.208  19.602  12.944
 6472W        W78897  25.525  11.296   2.349
 6473W        W78898  30.164   5.747  11.430
 6474W        W78899  36.028   3.094  13.864
 6475W        W78900  16.794  24.860  14.779
 6476W        W78901  25.399   6.367   1.717
 6477W        W78902   0.210   6.705  14.704
 6478W        W78903  26.567  34.629  14.025
 6479W        W78904  27.037  38.040   4.505
 6480W        W78905  12.600  21.199   3.136
 6481W        W78906  29.037  19.151  11.736
 6482W        W78907  23.094  17.465   3.229
 6483W        W78908   6.465  32.541  14.523
 6484W        W78909  24.592  43.996   3.982
 6485W        W78910  42.369  36.483  14.072
 6486W        W78911  29.311   0.522  11.555
 6487W        W78912  18.497  33.513  12.940
 6488W        W78913  18.743  32.027   9.862
 6489W        W78914  34.505  27.073   0.271
 6490W        W78915   0.859  16.728   0.345
 6491W        W78916  37.367  43.546  13.389
 6492W        W78917  37.586  30.556  14.574
 6493W        W78918  29.929  44.407  12.628
 6494W        W78919  32.952  25.284  14.212
 6495W        W78920  44.161  26.076   2.211
 6496W        W78921   2.751   0.471  12.607
 6497W        W78922  19.959  12.478   9.583
 6498W        W78923  41.301   3.007  14.374
 6499W        W78924   6.626  23.909  12.098
 6500W        W78925  43.182  10.555   3.840
 6501W        W78926  17.553  34.503   2.285
 6502W        W78927  17.462  37.188   2.797
 6503W        W78928  34.690  40.509   1.179
 6504W        W78929  17.690   7.625   3.892
 6505W        W78930  43.885  23.530  11.024
 6506W        W78931  22.121  43.595  11.485
 6507W        W78932  42.701  18.621   2.001
 6508W        W78933  39.033  11.988   2.206
 6509W        W78934  14.054  17.130  11.180
 6510W        W78935  43.358  10.652  12.910
 6511W        W78936   5.901   5.853   1.724
 6512W        W78937  42.403  24.629  10.458
 6513W        W78938  27.432  15.992  13.407
 6514W        W78939   1.712  39.624   3.724
 6515W        W78940  11.135   8.807   4.530
 6516W        W78941  36.921  21.998   0.778
 6517W        W78942  17.220   9.787   4.402
 6518W        W78943  16.101  38.585  11.031
 6519W        W78944  20.878  41.561  10.261
 6520W        W78945  12.655  42.734  13.435
 6521W        W78946  34.203  13.625   3.128
 6522W        W78947   7.669  32.907   1.500
 6523W        W78948  40.495  16.820   1.771
 6524W        W78949  13.283  39.997  13.898
 6525W        W78950   8.797  24.462   2.184
 6526W        W78951  39.978  43.359   3.425
 6527W        W78952  37.865  25.614   0.385
 6528W        W78953   7.418  28.081   4.085
 6529W        W78954  30.970  11.439   2.693
 6530W        W78955  12.704   4.759   2.792
 6531W        W78956  43.395  20.085  14.229
 6532W        W78957  39.365  31.080   0.781
 6533W        W78958  37.772  43.251  14.289
 6534W        W78959  13.847  15.104   3.225
 6535W        W78960  28.056   8.822   4.573
 6536W        W78961  15.599  15.569   4.327
 6537W        W78962  35.556   4.346  13.957
 6538W        W78963   3.990  39.583   2.237
 6539W        W78964  32.844  22.486  13.951
 6540W        W78965  19.525  11.357  11.531
 6541W        W78966  17.514  27.457  10.534
 6542W        W78967  25.786  34.850   0.657
 6543W        W78968   4.139  16.802  13.468
 6544W        W78969  11.130  20.953   3.047
 6545W        W78970   1.423  36.590  14.078
 6546W        W78971  13.704  43.327  10.429
 6547W        W78972   7.881  44.433   0.480
 6548W        W78973  35.631  31.526  14.847
 6549W        W78974  20.726  41.859   2.122
 6550W        W78975  40.719   4.776  14.961
 6551W        W78976  26.204  36.329  13.355
 6552W        W78977  22.391  36.854   4.401
 6553W        W78978   2.176  12.855  11.905
 6554W        W78979  24.467  20.653   0.408
 6555W        W78980  10.928   9.573  12.528
 6556W        W78981   7.127  34.717   4.229
 6557W        W78982   2.988  22.720   2.691
 6558W        W78983  44.631  12.768   1.595
 6559W        W78984  42.043  43.076  14.391
 6560W        W78985  15.642   0.046  12.066
 6561W        W78986  44.691   9.773  12.762
 6562W        W78987   5.702   2.351   4.430
 6563W        W78988  18.380  29.484   3.641
 6564W        W78989  34.358   1.255   4.717
 6565W        W78990  44.437  40.090   1.711
 6566W        W78991   6.976  26.017   0.388
 6567W        W78992  11.617  36.079   4.200
 6568W        W78993   2.947   9.531   2.448
 6569W        W78994   8.417  39.401  10.642
 6570W        W78995   6.113   3.999   2.758
 6571W        W78996   0.478  41.392  14.287
 6572W        W78997  25.664   6.331   2.144
 6573W        W78998   4.879  12.585  10.508
 6574W        W78999   2.074  18.130  11.499
 6575W        W79000  19.718  36.490  12.651
 6576W        W79001   0.936  17.823  14.815
 6577W        W79002  37.396  13.807   3.739
 6578W        W79003  33.984  21.864   4.402
 6579W        W79004  11.156  16.539   0.450
 6580W        W79005  28.227  11.172   2.362
 6581W        W79006  23.809   4.361  10.576
 6582W        W79007  16.061  29.164   3.795
 6583W        W79008  29.750  18.107   5.055
 6584W        W79009  23.159  28.222   3.840
 6585W        W79010   8.277  15.215  11.602
 6586W        W79011  28.400  28.615   0.943
 6587W        W79012   7.387  37.076   2.291
 6588W        W79013  20.579  35.603  12.076
 6589W        W79014  10.477   5.162  13.311
 6590W        W79015  37.320   8.437   0.804
 6591W        W79016  40.547  15.096   4.046
 6592W        W79017  43.637  16.647  14.763
 6593W        W79018  42.831  27.953   0.210
 6594W        W79019   0.201  26.594  12.623
 6595W        W79020  21.489  22.743  12.472
 6596W        W79021  20.332  30.047  11.458
 6597W        W79022  43.003  19.240  10.706
 6598W        W79023  22.937  28.704   2.371
 6599W        W79024   0.457  13.584   1.227
 6600W        W79025  29.115  23.522   4.169
 6601W        W79026  11.391  16.232  12.167
 6602W        W79027  37.313  37.842  14.082
 6603W        W79028  27.926  21.221  12.658
 6604W        W79029   9.439   4.417   1.716
 6605W        W79030  39.033  14.197  13.055
 6606W        W79031  19.392  10.613   1.010
 6607W        W79032  19.306  23.523  14.577
 6608W        W79033   7.345  12.648  13.884
 6609W        W79034  44.227  43.814  13.786
 6610W        W79035  20.536   6.272  12.927
 6611W        W79036  27.621   5.188   2.799
 6612W        W79037  11.654   9.420  14.845
 6613W        W79038  32.886  11.369  11.148
 6614W        W79039  35.964  10.937  13.472
 6615W        W79040  41.284  31.397   4.598
 6616W        W79041  31.946  31.947  13.142
 6617W        W79042  42.605  35.366  12.440
 6618W        W79043  44.753  21.675   2.678
 6619W        W79044  34.994  12.831  12.548
 6620W        W79045  14.821  37.823  12.877
 6621W        W79046  29.968  32.918  11.463
 6622W        W79047   7.918  11.131  11.559
 6623W        W79048   1.741  17.880  11.879
 6624W        W79049  38.802  12.780   4.056
 6625W        W79050  42.290  32.584  12.826
 6626W        W79051   0.479  41.266   2.507
 6627W        W79052  23.933  21.637   4.164
 6628W        W79053   3.419  26.209  11.124
 6629W        W79054   0.243  18.553  13.904
 6630W        W79055   5.702  15.308   0.366
 6631W        W79056  27.193  31.519  13.809
 6632W        W79057  29.109  35.130   1.175
 6633W        W79058  34.838  21.245   1.374
 6634W        W79059  33.610  20.806   0.426
 6635W        W79060   3.561  20.161  11.663
 6636W        W79061  30.915  14.405  13.081
 6637W        W79062  10.797  21.318   4.725
 6638W        W79063   0.720   5.338   4.262
 6639W        W79064  37.229  37.563   4.648
 6640W        W79065   2.750  16.780  14.941
 6641W        W79066  18.888  14.831   2.040
 6642W        W79067   2.736  23.043  14.703
 6643W        W79068  16.381  30.980   3.776
 6644W        W79069   9.497  30.940   1.806
 6645W        W79070  15.574   4.260   3.749
 6646W        W79071  18.349   9.313   4.126
 6647W        W79072  31.730   9.372  13.617
 6648W        W79073  14.201  32.192   4.223
 6649W        W79074  10.298   6.658   1.024
 6650W        W79075  38.926  12.578  11.844
 6651W        W79076  12.650  33.647  13.871
 6652W        W79077  27.609  18.128   0.051
 6653W        W79078   5.505  21.518   1.647
 6654W        W79079  34.977  24.908   0.428
 6655W        W79080  13.638   1.878  11.311
 6656W        W79081  43.282  33.409   4.182
 6657W        W79082   6.211  35.692   1.896
 6658W        W79083  43.235  18.071   2.743
 6659W        W79084  12.540  26.459  11.188
 6660W        W79085  13.158  21.328  11.872
 6661W        W79086   0.756   5.339  14.312
 6662W        W79087  15.733  13.519  12.466
 6663W        W79088  13.142  21.561   3.841
 6664W        W79089  42.854  12.687  14.721
 6665W        W79090  30.091  38.386   0.567
 6666W        W79091  41.944   8.331  13.991
 6667W        W79092  32.975  10.156   3.434
 6668W        W79093  42.649  30.860  12.097
 6669W        W79094   3.150  36.495   0.391
 6670W        W79095  39.278  35.172  12.957
 6671W        W79096  27.553  34.409   1.627
 6672W        W79097   3.990  18.134   5.060
 6673W        W79098   8.085  25.106  14.400
 6674W        W79099  32.338   9.804  11.655
 6675W        W79100   9.339  39.029  13.006
 6676W        W79101  12.006  39.500  12.009
 6677W        W79102  43.245  35.286   1.291
 6678W        W79103   4.512  18.295   2.680
 6679W        W79104   4.751  43.179   3.133
 6680W        W79105  15.138  40.088   3.346
 6681W        W79106  38.855  21.268   4.243
 6682W        W79107  17.520  23.068   1.923
 6683W        W79108  34.093   9.676   0.358
 6684W        W79109  16.021  41.210   1.274
 6685W        W79110  18.797  11.849  10.775
 6686W        W79111  29.139  18.098   4.693
 6687W        W79112   3.022  29.174  10.585
 6688W        W79113  28.678  18.127   0.711
 6689W        W79114  14.139  16.789   4.444
 6690W        W79115  44.018  43.269   2.301
 6691W        W79116   2.677  40.820  14.179
 6692W        W79117  31.226  13.408  13.382
 6693W        W79118  30.127  44.032   4.668
 6694W        W79119  41.759   8.557   4.569
 6695W        W79120  26.457   3.230  10.572
 6696W        W79121  14.100  20.670   4.578
 6697W        W79122  14.616   5.650   4.200
 6698W        W79123  27.728  42.435   1.961
 6699W        W79124  22.007  13.531  12.821
 6700W        W79125   9.574  43.890   4.464
 6701W        W79126  33.676  16.795  12.536
 6702W        W79127  38.555  28.569   0.889
 6703W        W79128   0.879  12.308   0.998
 6704W        W79129  26.238  15.189  10.703
 6705W        W79130  43.118   9.805   0.383
 6706W        W79131  32.369  22.637  10.053
 6707W        W79132  14.873  43.945  11.181
 6708W        W79133   8.536  37.922   0.834
 6709W        W79134   7.884  12.734   1.336
 6710W        W79135  41.541  16.866   4.607
 6711W        W79136   3.227  24.089  11.408
 6712W        W79137  33.480  13.453   4.877
 6713W        W79138  37.767  40.980  14.451
 6714W        W79139   3.884  44.889   0.868
 6715W        W79140  12.873   9.649   2.757
 6716W        W79141  25.888  14.728   3.663
 6717W        W79142  22.267   8.887  13.555
 6718W        W79143  15.747  11.669  14.877
 6719W        W79144  39.260  17.408  14.494
 6720W        W79145  14.150  13.683   3.116
 6721W        W79146   0.454  44.571   3.702
 6722W        W79147  27.468  13.166   1.825
 6723W        W79148  10.545  32.071   3.889
 6724W        W79149   2.425   7.774  13.400
 6725W        W79150  40.225   1.028   1.316
 6726W        W79151  34.442  43.958  14.825
 6727W        W79152  25.683  35.558  12.420
 6728W        W79153  43.798  22.627   1.302
 6729W        W79154  35.577  17.726   4.077
 6730W        W79155  43.843  20.187   1.464
 6731W        W79156  15.194  37.742   4.668
 6732W        W79157  19.899  16.954   5.033
 6733W        W79158   5.792  40.859   4.291
 6734W        W79159  27.273  32.452   2.554
 6735W        W79160  21.792   7.820  14.328
 6736W        W79161  32.877  32.962   0.164
 6737W        W79162  36.330   1.905   4.138
 6738W        W79163  28.003  37.349   0.202
 6739W        W79164  17.103   6.575   1.656
 6740W        W79165  18.238  14.905  11.533
 6741W        W79166  32.270  24.534  13.373
 6742W        W79167  12.173  26.712  12.614
 6743W        W79168  44.419  29.945  13.740
 6744W        W79169   8.207  38.284  12.938
 6745W        W79170  20.017  33.056  14.403
 6746W        W79171  14.827   4.003   3.862
 6747W        W79172  12.263   0.248  13.957
 6748W        W79173  44.061  42.403   0.812
 6749W        W79174  16.045  38.459   4.558
 6750W        W79175  14.889  27.578  10.707
 6751W        W79176  21.615  36.620   2.239
 6752W        W79177  41.507  17.110  14.733
 6753W        W79178   1.207  40.538   0.366
 6754W        W79179  36.238  18.838  10.736
 6755W        W79180  14.747  21.979   3.144
 6756W        W79181  14.942  43.283  14.465
 6757W        W79182   9.257  17.738  14.725
 6758W        W79183   7.825  41.800   1.695
 6759W        W79184  16.312   8.517   3.366
 6760W        W79185  14.083  29.658  13.608
 6761W        W79186  30.365  42.271  11.473
 6762W        W79187   4.187  21.730  12.856
 6763W        W79188  43.383   3.759  10.269
 6764W        W79189  26.874  20.038   2.647
 6765W        W79190   1.443  35.314   1.254
 6766W        W79191  14.688  15.030  11.165
 6767W        W79192  22.589  39.140  12.470
 6768W        W79193  41.964  21.429   4.287
 6769W        W79194  29.702  18.701   0.336
 6770W        W79195  21.676  17.055   0.818
 6771W        W79196   2.246  40.595   1.897
 6772W        W79197  16.259  29.102   1.789
 6773W        W79198  19.551  38.961   3.870
 6774W        W79199  18.087  44.034  14.552
 6775W        W79200   8.824   7.704   0.083
 6776W        W79201  22.750  35.925   3.231
 6777W        W79202  40.129  30.998   1.229
 6778W        W79203  39.800  36.091  14.184
 6779W        W79204  28.654   4.752  11.658
 6780W        W79205  34.341  44.229  13.803
 6781W        W79206  36.882  43.246   3.244
 6782W        W79207  40.014   3.117   1.951
 6783W        W79208   8.668   9.190  14.838
 6784W        W79209  23.924  40.177   1.701
 6785W        W79210   2.754  12.732   0.204
 6786W        W79211  29.101  13.368   3.698
 6787W        W79212  17.523   6.921   0.822
 6788W        W79213  21.886  16.540   4.009
 6789W        W79214   8.171   8.435  10.711
 6790W        W79215  11.180  23.112   0.937
 6791W        W79216  40.729  24.612   0.228
 6792W        W79217  25.718  42.939  12.555
 6793W        W79218   3.466  22.298  10.948
 6794W        W79219  20.232  31.504  11.171
 6795W        W79220  25.540   2.448  13.420
 6796W        W79221   1.263  15.757   1.261
 6797W        W79222   0.754  30.158   4.179
 6798W        W79223  19.489   6.884   3.072
 6799W        W79224  44.493  39.355   2.041
 6800W        W79225   0.650  37.239   4.088
 6801W        W79226  24.692  12.750   2.435
 6802W        W79227  26.479  15.207  12.952
 6803W        W79228   4.243  12.101  14.455
 6804W        W79229  37.083  41.565   1.742
 6805W        W79230  20.107  42.468  10.588
 6806W        W79231  19.233   8.812   3.854
 6807W        W79232  15.925  34.054   0.750
 6808W        W79233  17.843  34.912   0.348
 6809W        W79234   4.683  34.899  12.399
 6810W        W79235  15.404  33.993  12.978
 6811W        W79236   0.922  35.389   2.318
 6812W        W79237  44.338  20.128   1.763
 6813W        W79238  11.380  23.686  13.902
 6814W        W79239  25.721   5.199   4.499
 6815W        W79240  21.307  42.752  10.724
 6816W        W79241  42.124  32.347   2.102
 6817W        W79242  42.818  33.191  12.460
 6818W        W79243  29.424  20.058  13.036
 6819W        W79244  17.613  11.215   1.344
 6820W        W79245  41.531   3.808  14.977
 6821W        W79246   9.358  26.335   4.392
 6822W        W79247  37.300  11.265   2.311
 6823W        W79248  39.401  11.130  11.771
 6824W        W79249  17.523  34.680  14.951
 6825W        W79250  32.651  16.583   2.898
 6826W        W79251   4.964  39.805   1.723
 6827W        W79252  44.689  30.542  14.727
 6828W        W79253  39.099  43.926  12.593
 6829W        W79254  13.787  37.117  13.776
 6830W        W79255  41.566  17.906   1.716
 6831W        W79256  16.730  41.429   4.120
 6832W        W79257   7.402   8.196  14.391
 6833W        W79258  35.343   4.970  13.550
 6834W        W79259   5.998   4.969   1.699
 6835W        W79260  19.571   5.700   1.895
 6836W        W79261  23.088  16.528   1.262
 6837W        W79262  34.861  30.840   3.761
 6838W        W79263  33.353   9.858   3.755
 6839W        W79264  27.308   9.246  11.505
 6840W        W79265   1.759  12.732  14.121
 6841W        W79266  13.232  28.447   1.426
 6842W        W79267   4.207  16.084   4.380
 6843W        W79268   3.252  28.910   1.948
 6844W        W79269  22.526  12.663   2.878
 6845W        W79270   8.412  28.372   4.703
 6846W        W79271  32.493   8.518   5.039
 6847W        W79272  38.773  14.538   2.504
 6848W        W79273  11.441  26.919   0.165
 6849W        W79274  21.204  41.316   5.183
 6850W        W79275  39.367  26.932   3.931
 6851W        W79276   9.467  15.372   3.626
 6852W        W79277  30.630  13.391  11.972
 6853W        W79278  32.073  43.373   3.531
 6854W        W79279  25.987  44.849   1.773
 6855W        W79280  18.967  19.664  13.972
 6856W        W79281   9.072   5.171   4.084
 6857W        W79282  14.703  30.711   4.573
 6858W        W79283  23.429  34.095  11.895
 6859W        W79284  40.499  35.039  14.721
 6860W        W79285  20.627  15.965   4.454
 6861W        W79286  32.837   5.667  12.860
 6862W        W79287  13.992  37.873  13.967
 6863W        W79288  21.033   6.164   4.508
 6864W        W79289  28.485  21.750   0.760
 6865W        W79290   5.918  42.314   2.359
 6866W        W79291  34.764  36.021   2.789
 6867W        W79292  10.855  35.454   1.821
 6868W        W79293  22.756  21.222  14.921
 6869W        W79294  43.267  30.959   1.944
 6870W        W79295  27.155  22.766   2.401
 6871W        W79296  33.110  25.175  10.740
 6872W        W79297   1.088  42.509   2.602
 6873W        W79298  24.706   8.677   1.004
 6874W        W79299  29.430  22.995  11.902
 6875W        W79300  39.674   3.295   0.767
 6876W        W79301  40.778  31.502   4.441
 6877W        W79302  25.788  27.085  13.399
 6878W        W79303   3.382  38.825  11.744
 6879W        W79304  22.298  22.572  12.879
 6880W        W79305  11.003  15.065   3.773
 6881W        W79306   7.245  34.772  11.498
 6882W        W79307  24.342  39.015   1.538
 6883W        W79308   4.900   2.450  10.547
 6884W        W79309  41.410  14.438   2.676
 6885W        W79310   2.309  33.701  11.039
 6886W        W79311  39.180  38.507  10.085
 6887W        W79312   1.083  30.601   4.206
 6888W        W79313  41.038  20.941  13.344
 6889W        W79314  15.094  25.589   2.205
 6890W        W79315  32.486  34.059   0.496
 6891W        W79316  18.822   3.536   2.352
 6892W        W79317  30.125  12.857  13.498
 6893W        W79318  19.183  24.062   1.852
 6894W        W79319  21.168   3.334   5.044
 6895W        W79320   0.285  11.784  11.578
 6896W        W79321  38.912  15.315   3.936
 6897W        W79322  17.557  39.359   2.302
 6898W        W79323   2.988  29.934  14.851
 6899W        W79324  27.163  31.995   4.091
 6900W        W79325  27.495  38.559  14.174
 6901W        W79326  15.373  40.531  13.419
 6902W        W79327  19.681   3.520  11.222
 6903W        W79328   1.262   2.819  13.463
 6904W        W79329  35.123  20.858  11.992
 6905W        W79330  13.325  14.503  14.237
 6906W        W79331  36.713  12.175  12.454
 6907W        W79332  16.356  29.537   3.599
 6908W        W79333  10.783  19.653   4.552
 6909W        W79334  23.783   2.559   4.027
 6910W        W79335  39.976  26.611   3.240
 6911W        W79336   6.301  36.945  10.541
 6912W        W79337  37.500  13.052   1.653
 6913W        W79338  33.946  17.599  14.811
 6914W        W79339  27.301   9.374  13.567
 6915W        W79340  40.487  37.127   3.147
 6916W        W79341  39.579   2.295   4.473
 6917W        W79342   2.246  19.908   1.971
 6918W        W79343  31.446  28.196  14.575
 6919W        W79344   4.169  33.585   4.610
 6920W        W79345  40.332  29.166  11.164
 6921W        W79346   7.065   6.650   4.534
 6922W        W79347   7.728  30.127   3.402
 6923W        W79348  30.982  30.635  14.460
 6924W        W79349  18.680  23.265   3.060
 6925W        W79350   1.448  23.500   4.141
 6926W        W79351  43.396   7.809  13.429
 6927W        W79352  19.991  29.916  11.987
 6928W        W79353  22.170   1.955   3.717
 6929W        W79354  20.692  40.752   0.920
 6930W        W79355  16.429  40.942   2.690
 6931W        W79356  17.621  19.292  13.415
 6932W        W79357  10.737  17.008   3.631
 6933W        W79358  31.206  16.665   0.817
 6934W        W79359   8.201  14.910   1.271
 6935W        W79360  38.881  32.069   3.453
 6936W        W79361   8.723  40.139   0.234
 6937W        W79362  22.231  38.321  14.784
 6938W        W79363  11.545   3.304   3.768
 6939W        W79364   7.992  36.926   3.724
 6940W        W79365   2.860  34.935  11.657
 6941W        W79366   2.694  42.373   0.219
 6942W        W79367  15.148   6.607   1.688
 6943W        W79368   5.909  19.589  11.286
 6944W        W79369  28.527  33.047  10.787
 6945W        W79370  14.767   8.380  10.682
 6946W        W79371  40.936  31.361   0.922
 6947W        W79372  22.189  27.444  13.811
 6948W        W79373  25.090  14.318   1.419
 6949W        W79374   8.718  43.809  10.482
 6950W        W79375  35.869   0.755  10.669
 6951W        W79376  28.065  31.142  10.707
 6952W        W79377  17.557  13.746  11.954
 6953W        W79378  16.795  44.485  10.361
 6954W        W79379  16.094   5.932  10.525
 6955W        W79380  41.799  16.701   0.750
 6956W        W79381  23.636  23.568  11.210
 6957W        W79382  10.722  12.342  11.113
 6958W        W79383  25.858  41.371  10.709
 6959W        W79384  35.901  17.667   3.648
 6960W        W79385  14.125  19.368  14.747
 6961W        W79386  20.337  43.035   4.206
 6962W        W79387  18.887   9.440   4.218
 6963W        W79388  20.048  38.366  12.464
 6964W        W79389  21.159  40.075   4.036
 6965W        W79390   8.445   1.942  12.064
 6966W        W79391  19.685  17.348   1.468
 6967W        W79392  20.692  41.430   1.810
 6968W        W79393  19.153  24.785   2.763
 6969W        W79394  31.145  23.427  11.978
 6970W        W79395  38.864  22.080   0.111
 6971W        W79396   5.412  39.829  11.184
 6972W        W79397  36.028  17.821   2.620
 6973W        W79398  18.741   7.793  13.878
 6974W        W79399  25.153  26.149  12.590
 6975W        W79400  20.215   2.207  13.346
 6976W        W79401  18.468   6.662   2.686
 6977W        W79402   9.385  14.092   1.285
 6978W        W79403  37.837   3.348  13.335
 6979W        W79404   9.706   7.455   0.043
 6980W        W79405  13.120  37.504   1.829
 6981W        W79406  33.975  12.638  14.285
 6982W        W79407   1.481   7.371  13.846
 6983W        W79408   3.180  33.551   3.048
 6984W        W79409  25.490  31.022  13.441
 6985W        W79410  39.867  44.220  11.049
 6986W        W79411  24.426  11.591  12.226
 6987W        W79412  23.455   0.579   2.865
 6988W        W79413  35.849  11.434   3.551
 6989W        W79414  14.813   5.700   2.926
 6990W        W79415   6.863  25.450   4.134
 6991W        W79416  15.718  38.895   0.724
 6992W        W79417  24.050  30.366   1.319
 6993W        W79418  34.009  23.242  13.850
 6994W        W79419   0.416  42.497   3.119
 6995W        W79420  14.205  25.069  14.356
 6996W        W79421   4.244  34.486   3.171
 6997W        W79422  41.797  35.573   2.676
 6998W        W79423  34.699   7.981   3.637
 6999W        W79424   2.419  43.033  14.552
 7000W        W79425  25.679  38.536   2.283
 7001W        W79426  39.416  42.035   3.253
 7002W        W79427   6.842  12.521   3.510
 7003W        W79428  21.794  22.747   2.408
 7004W        W79429  29.113   9.481   0.136
 7005W        W79430  43.886   1.142  14.825
 7006W        W79431  27.041  20.500   4.280
 7007W        W79432   0.843  13.706  13.009
 7008W        W79433   1.670  39.030   1.779
 7009W        W79434  43.003   0.312   1.855
 7010W        W79435   0.056  10.789  13.384
 7011W        W79436  30.390  15.120   5.003
 7012W        W79437  22.525  21.573   0.230
 7013W        W79438  37.919  14.171   3.886
 7014W        W79439  15.103  44.458   2.461
 7015W        W79440  29.970  14.851  11.610
 7016W        W79441  23.500  14.809  11.395
 7017W        W79442   5.775  37.973   2.280
 7018W        W79443  16.099  24.265   0.666
 7019W        W79444  13.442   7.397  14.441
 7020W        W79445  33.358   8.661   4.499
 7021W        W79446  43.522  27.056   1.915
 7022W        W79447  36.323  12.650   4.305
 7023W        W79448  40.288  20.557  12.879
 7024W        W79449  40.209   9.760  12.659
 7025W        W79450  30.891  12.190  11.502
 7026W        W79451  21.650  41.023   2.671
 7027W        W79452  40.807  39.434  13.010
 7028W        W79453  31.609  40.970  14.985
 7029W        W79454  27.719  37.887  14.612
 7030W        W79455  33.320  30.520   0.808
 7031W        W79456  33.000  13.032   3.282
 7032W        W79457  44.206  26.300  14.334
 7033W        W79458  12.596   6.197   3.304
 7034W        W79459   1.404  24.863   5.095
 7035W        W79460  36.500   6.714  13.930
 7036W        W79461  20.989   4.228  11.169
 7037W        W79462   2.706  40.742  12.751
 7038W        W79463  14.160  30.112   3.656
 7039W        W79464  42.876  16.466   1.186
 7040W        W79465  34.305  37.933   4.016
 7041W        W79466  40.818   4.510   0.804
 7042W        W79467   4.316  33.314  14.415
 7043W        W79468   1.377   1.732   2.949
 7044W        W79469   1.366  10.071  13.537
 7045W        W79470  29.929   3.821   4.169
 7046W        W79471  44.525   4.366   1.399
 7047W        W79472  38.003   4.229   2.350
 7048W        W79473  42.718  29.616  12.896
 7049W        W79474   5.364   7.450   0.653
 7050W        W79475  21.137  33.883   3.322
 7051W        W79476  10.302   5.489   1.796
 7052W        W79477  43.118  12.627  12.199
 7053W        W79478  16.464  10.732   4.293
 7054W        W79479  26.488  10.685   3.123
 7055W        W79480  34.834   1.375   3.345
 7056W        W79481  35.885  27.567   3.588
 7057W        W79482  41.024  27.491   1.621
 7058W        W79483  11.061  36.583   2.177
 7059W        W79484   0.891   5.003   2.799
 7060W        W79485  30.186  41.317   4.143
 7061W        W79486  13.589  10.174  11.828
 7062W        W79487   8.066  22.704  12.025
 7063W        W79488  13.213  10.375   2.517
 7064W        W79489   7.015  25.661   3.521
 7065W        W79490  41.937  17.555   3.690
 7066W        W79491  16.716   1.725  13.516
 7067W        W79492  20.496   7.174   1.716
 7068W        W79493   7.492   9.532  13.336
 7069W        W79494   8.198  11.742   1.250
 7070W        W79495  38.893  39.557  14.846
 7071W        W79496   6.250  10.274  14.100
 7072W        W79497  10.081  20.904   1.212
 7073W        W79498  18.542  20.912   0.794
 7074W        W79499   2.687   3.772   4.041
 7075W        W79500  11.080   3.124   0.286
 7076W        W79501   8.384  30.933  14.054
 7077W        W79502   5.349  29.201   3.590
 7078W        W79503  28.500  16.281  14.996
 7079W        W79504   3.266  26.809   2.912
 7080W        W79505   3.272  37.242   0.911
 7081W        W79506  27.621  39.897   4.998
 7082W        W79507   9.341   2.190   3.678
 7083W        W79508  29.131  29.951  13.515
 7084W        W79509   6.259   1.493   2.363
 7085W        W79510  22.025  13.645   4.244
 7086W        W79511  38.367   5.664   4.233
 7087W        W79512  42.640   6.527  13.040
 7088W        W79513  22.703  31.007   1.079
 7089W        W79514  22.451  43.679   3.649
 7090W        W79515  12.642  20.579  10.669
 7091W        W79516  41.408  30.534  11.898
 7092W        W79517  30.976   2.240  12.365
 7093W        W79518   3.021  25.678   2.341
 7094W        W79519  19.579  30.080   3.398
 7095W        W79520  37.321  42.424   1.621
 7096W        W79521   1.526  43.432   2.164
 7097W        W79522  11.147  30.747  13.610
 7098W        W79523  20.247   3.735   2.753
 7099W        W79524  28.997  28.519   3.794
 7100W        W79525  26.330  36.378   0.239
 7101W        W79526  41.643  23.795   1.947
 7102W        W79527  18.784  23.698  10.744
 7103W        W79528  38.949  44.398   5.093
 7104W        W79529  35.409  16.999  13.991
 7105W        W79530  10.298  17.743  10.212
 7106W        W79531  14.409  24.062   0.989
 7107W        W79532  27.761  18.970  13.325
 7108W        W79533  43.520  18.591  11.118
 7109W        W79534  19.273  43.762  12.103
 7110W        W79535  11.709  23.544   0.314
 7111W        W79536  27.924  24.314   0.389
 7112W        W79537   5.868  13.817   4.687
 7113W        W79538  21.877  36.563   0.963
 7114W        W79539  18.525  26.114   3.926
 7115W        W79540  42.303  26.134  13.827
 7116W        W79541  26.903  43.641   4.619
 7117W        W79542  12.842  40.333   0.915
 7118W        W79543  24.797  14.258   3.392
 7119W        W79544   7.520  30.785  13.122
 7120W        W79545  12.257   4.272  10.304
 7121W        W79546  27.738  11.761   1.451
 7122W        W79547  37.608  11.410   4.171
 7123W        W79548  43.014   0.241  11.669
 7124W        W79549  36.583  30.487   2.745
 7125W        W79550  29.030  28.661  12.876
 7126W        W79551   6.795  39.248   1.440
 7127W        W79552  16.218  20.532   3.359
 7128W        W79553  21.999  44.892   2.871
 7129W        W79554  40.728  32.586   1.877
 7130W        W79555  12.547  20.298  11.098
 7131W        W79556  17.124  34.696  13.532
 7132W        W79557   6.540  38.130   0.792
 7133W        W79558   4.036  36.062   0.536
 7134W        W79559  21.012  21.212  13.362
 7135W        W79560  39.685   0.398   3.146
 7136W        W79561  15.188   9.381   2.316
 7137W        W79562  16.659  27.969  11.979
 7138W        W79563   9.691  12.676  12.490
 7139W        W79564  32.626  35.105   3.651
 7140W        W79565  44.544  14.697  11.567
 7141W        W79566  41.376  27.534  11.955
 7142W        W79567  37.556  35.847  10.580
 7143W        W79568  23.283   5.839   0.859
 7144W        W79569  37.890  28.161   1.393
 7145W        W79570  23.501   6.149  11.712
 7146W        W79571  39.945  11.278  13.275
 7147W        W79572  13.291  34.099   0.731
 7148W        W79573   8.176  10.111  11.943
 7149W        W79574   2.767  20.369  11.236
 7150W        W79575  38.532  16.322   3.722
 7151W        W79576  32.626  10.632   1.170
 7152W        W79577  10.213  20.516   3.723
 7153W        W79578  37.252  31.090  11.054
 7154W        W79579  18.208   1.846  10.487
 7155W        W79580  17.051  32.184   5.017
 7156W        W79581  42.931  35.251   4.111
 7157W        W79582   7.283  20.187  11.477
 7158W        W79583  15.627  40.481  13.890
 7159W        W79584   9.627   6.359   5.050
 7160W        W79585  33.150  18.173  12.957
 7161W        W79586  21.217  25.130   0.499
 7162W        W79587  27.413   1.992   2.522
 7163W        W79588  42.041   6.818  10.933
 7164W        W79589  17.372  23.190   3.153
 7165W        W79590  16.925   7.827   4.557
 7166W        W79591  42.786   6.450  10.723
 7167W        W79592  11.643  43.003   2.264
 7168W        W79593  25.547  15.766   3.532
 7169W        W79594  33.173   8.777   3.643
 7170W        W79595  12.164  14.622  12.426
 7171W        W79596   0.297  23.413  12.978
 7172W        W79597  30.971   4.657   4.921
 7173W        W79598  44.449  32.917  11.992
 7174W        W79599   5.820  43.772  11.118
 7175W        W79600  40.009  35.881  11.985
 7176W        W79601   3.090  23.491  13.469
 7177W        W79602   5.837  14.327  12.403
 7178W        W79603  34.539  25.772   4.597
 7179W        W79604  37.688   7.856  11.112
 7180W        W79605  23.740  39.509   3.739
 7181W        W79606   0.917  27.586  13.482
 7182W        W79607  36.814  38.286  11.843
 7183W        W79608   7.768  37.589   3.292
 7184W        W79609  20.174  23.504   3.115
 7185W        W79610  10.237  28.087  14.808
 7186W        W79611  40.655   8.765   4.689
 7187W        W79612  40.421  21.131  14.693
 7188W        W79613  21.175  43.938   0.805
 7189W        W79614  39.353   6.893   1.824
 7190W        W79615  16.221   8.827   1.018
 7191W        W79616  30.862  38.301  12.942
 7192W        W79617   9.691  28.698  11.863
 7193W        W79618  20.467  39.022   3.695
 7194W        W79619  42.735  35.873   1.911
 7195W        W79620  15.479  12.620  12.604
 7196W        W79621  19.109  12.839   4.657
 7197W        W79622  17.471  37.699   0.718
 7198W        W79623  24.948  20.060  10.692
 7199W        W79624  26.515  36.170   2.705
 7200W        W79625  16.928  28.626   3.670
 7201W        W79626  24.077  36.076  11.992
 7202W        W79627  32.347  20.848  12.956
 7203W        W79628  33.050  41.367  14.165
 7204W        W79629  37.862  34.458  11.405
 7205W        W79630  23.010   5.422  14.461
 7206W        W79631   3.841  20.116   0.863
 7207W        W79632  15.718   6.739  13.044
 7208W        W79633  11.645  40.303  10.923
 7209W        W79634  39.587  23.195   4.868
 7210W        W79635  27.968  18.257  12.913
 7211W        W79636  44.435   5.316  10.808
 7212W        W79637  37.102  39.546   0.683
 7213W        W79638  12.841  13.414   0.101
 7214W        W79639  27.859  37.978  14.106
 7215W        W79640  26.950  36.893  13.983
 7216W        W79641  43.909  24.310  13.261
 7217W        W79642   1.823  23.781  10.661
 7218W        W79643  19.121   7.466  12.100
 7219W        W79644  30.629  31.970  14.840
 7220W        W79645  28.249   6.064   4.115
 7221W        W79646  19.499  38.826  14.150
 7222W        W79647  39.208  21.177   4.624
 7223W        W79648  21.477   3.683  11.884
 7224W        W79649  24.599  19.294   4.125
 7225W        W79650  20.149  30.004   0.302
 7226W        W79651  30.636  30.936   2.715
 7227W        W79652  42.810  10.147   3.209
 7228W        W79653  16.280   0.943   2.771
 7229W        W79654  29.696   2.849  14.946
 7230W        W79655  32.065  11.324  14.760
 7231W        W79656   5.258  19.094  13.415
 7232W        W79657   8.323   9.278   3.879
 7233W        W79658  44.516  26.007   1.258
 7234W        W79659  10.818  41.679  11.539
 7235W        W79660   6.336  32.504   0.032
 7236W        W79661   8.830  27.529   4.493
 7237W        W79662  20.818  20.002   0.166
 7238W        W79663   9.707   6.297  11.497
 7239W        W79664  16.826  20.219  11.964
 7240W        W79665   4.260  42.448  10.715
 7241W        W79666   9.313  39.558   0.704
 7242W        W79667  25.687  19.968  10.293
 7243W        W79668   3.161  22.596   4.580
 7244W        W79669   9.733   0.928  11.721
 7245W        W79670  15.039  12.798   3.174
 7246W        W79671  17.781  15.235   1.304
 7247W        W79672  15.987   2.700  11.670
 7248W        W79673   9.784   2.682  12.872
 7249W        W79674  34.864  31.158  12.959
 7250W        W79675  23.531  18.640   2.847
 7251W        W79676  40.512  44.092   4.161
 7252W        W79677  17.638  22.590   4.178
 7253W        W79678  38.009  37.448  12.977
 7254W        W79679  31.031  27.113   2.425
 7255W        W79680  21.721  14.833  13.041
 7256W        W79681  38.399  42.004  14.561
 7257W        W79682  42.636  28.767   4.028
 7258W        W79683  22.734  18.195  14.405
 7259W        W79684  36.976  38.512   2.894
 7260W        W79685  20.195  25.131   1.365
 7261W        W79686   1.913  18.686  11.146
 7262W        W79687  42.798  24.650   4.570
 7263W        W79688  30.896  13.258   4.453
 7264W        W79689  28.991  15.659   0.422
 7265W        W79690  40.254  26.043   3.172
 7266W        W79691  29.658  17.511  11.380
 7267W        W79692  16.426  14.933  11.635
 7268W        W79693   0.614  12.868  11.096
 7269W        W79694   6.911   1.862  14.973
 7270W        W79695   4.412  30.051  11.830
 7271W        W79696   6.176  39.047  11.775
 7272W        W79697   2.742   8.161   3.353
 7273W        W79698  28.174  21.682  12.621
 7274W        W79699  20.654  25.190   1.706
 7275W        W79700   7.339   6.434  12.893
 7276W        W79701  20.218  19.369   2.660
 7277W        W79702  23.325  19.896   5.030
 7278W        W79703  12.752  12.923  12.274
 7279W        W79704  21.756  36.050   4.170
 7280W        W79705  36.653  26.734   4.521
 7281W        W79706   3.032  27.176  12.134
 7282W        W79707  16.836  40.212  11.505
 7283W        W79708  40.871  11.591  13.449
 7284W        W79709  23.688  21.536   1.514
 7285W        W79710   6.234  36.670  11.032
 7286W        W79711  38.702   0.976   4.683
 7287W        W79712  42.064  39.757  13.567
 7288W        W79713  31.838  28.556   4.560
 7289W        W79714  12.165  36.260  13.129
 7290W        W79715  27.418  38.325  13.286
 7291W        W79716   1.817  11.685  10.688
 7292W        W79717  43.769  10.652   0.313
 7293W        W79718  26.179  26.490   3.865
 7294W        W79719   7.343  13.703   1.390
 7295W        W79720   2.485  34.718  11.974
 7296W        W79721  24.221  39.299  13.377
 7297W        W79722   1.377  15.532   1.856
 7298W        W79723  29.112  34.349   4.045
 7299W        W79724   3.680   4.456   1.808
 7300W        W79725  27.456  33.644  11.817
 7301W        W79726  20.970  27.826  11.641
 7302W        W79727  24.580   6.245   0.732
 7303W        W79728  33.006  36.342  11.106
 7304W        W79729  40.312   8.199   2.892
 7305W        W79730  23.184  19.298   0.548
 7306W        W79731  11.881  14.418   0.307
 7307W        W79732  32.456  40.124  11.134
 7308W        W79733  36.893  10.388  11.185
 7309W        W79734  26.488  19.430   3.204
 7310W        W79735   3.732  41.836   2.754
 7311W        W79736  38.926  33.118   3.166
 7312W        W79737  10.688   4.908  12.061
 7313W        W79738  36.331  12.788   3.410
 7314W        W79739   6.236  29.122  11.138
 7315W        W79740  32.824   6.925  12.562
 7316W        W79741  26.982  21.945   0.495
 7317W        W79742   3.377   1.190  14.323
 7318W        W79743   5.346  36.344   3.843
 7319W        W79744  27.720  20.192  11.919
 7320W        W79745  36.096  34.298  12.932
 7321W        W79746  37.299  32.111   4.237
 7322W        W79747  39.895  42.329  10.842
 7323W        W79748  18.288   4.961   3.156
 7324W        W79749  26.563  24.200  12.468
 7325W        W79750  38.137  27.111  11.889
 7326W        W79751  19.008   5.903  11.067
 7327W        W79752  24.891  44.567  11.060
 7328W        W79753  25.392  36.375   1.903
 7329W        W79754  43.354   4.470  13.468
 7330W        W79755  27.955  34.686   1.452
 7331W        W79756  18.505  38.218  11.228
 7332W        W79757   7.877  21.100   4.971
 7333W        W79758  31.983  35.642   3.289
 7334W        W79759  11.775  12.873   2.875
 7335W        W79760  27.106  10.263   4.705
 7336W        W79761  44.406   4.564  10.208
 7337W        W79762  42.907  14.150   3.644
 7338W        W79763  26.053  11.890  10.366
 7339W        W79764  11.559   5.317  14.366
 7340W        W79765   1.910  19.721  12.917
 7341W        W79766  22.724  12.063   0.459
 7342W        W79767   8.671   0.378   3.321
 7343W        W79768  20.490  44.869   1.796
 7344W        W79769  33.722   9.701   3.439
 7345W        W79770  30.512   2.938   1.240
 7346W        W79771  37.500  15.382   5.075
 7347W        W79772  14.184   7.881  13.087
 7348W        W79773   7.262   5.931  10.752
 7349W        W79774  15.422   7.950   2.949
 7350W        W79775   5.935  24.621  13.299
 7351W        W79776  44.011  25.604  13.939
 7352W        W79777   8.921  31.981   0.833
 7353W        W79778   3.838  25.449  12.583
 7354W        W79779  18.840  30.404   3.722
 7355W        W79780   4.340  18.726   2.470
 7356W        W79781   9.634   1.282   1.780
 7357W        W79782  43.998   9.404   4.143
 7358W        W79783  15.049  42.170  13.514
 7359W        W79784  22.241  38.147   0.363
 7360W        W79785  27.282  31.200   2.102
 7361W        W79786  15.319  25.454   1.737
 7362W        W79787  18.658   2.286   4.072
 7363W        W79788  26.928  25.702   2.904
 7364W        W79789  31.143   3.328   4.023
 7365W        W79790   3.904  38.705   4.807
 7366W        W79791  27.902  35.654   4.092
 7367W        W79792  19.400  34.900   1.216
 7368W        W79793  17.548  13.569  11.464
 7369W        W79794  35.332  25.255   2.200
 7370W        W79795  17.794   5.166  12.908
 7371W        W79796  44.954  28.012  12.889
 7372W        W79797  19.542  36.377   2.218
 7373W        W79798  23.516  27.909   1.417
 7374W        W79799   8.838  37.874   9.893
 7375W        W79800  15.811  42.844   4.332
 7376W        W79801  42.257  35.513   4.713
 7377W        W79802  16.299  27.063   3.721
 7378W        W79803  43.017  20.275   4.061
 7379W        W79804  37.242  38.962  12.906
 7380W        W79805   7.338  32.615  14.750
 7381W        W79806  40.777  20.193  13.741
 7382W        W79807   8.917   3.264   3.119
 7383W        W79808   1.960  14.991  14.901
 7384W        W79809  24.211  25.936   1.179
 7385W        W79810  38.625  17.837  12.661
 7386W        W79811  36.173  37.166  10.710
 7387W        W79812  31.186  16.808  13.750
 7388W        W79813   3.208   3.929   1.323
 7389W        W79814  29.831  30.044  14.730
 7390W        W79815  14.861   3.670   2.053
 7391W        W79816  34.322  38.179  12.047
 7392W        W79817   2.662  15.188   3.557
 7393W        W79818  30.022  17.296  14.972
 7394W        W79819  32.099   0.432  11.676
 7395W        W79820  17.027  10.258  14.822
 7396W        W79821  24.275  19.456  10.098
 7397W        W79822  19.585  12.797   4.468
 7398W        W79823  36.573   6.965   2.804
 7399W        W79824  31.028   7.848  11.908
 7400W        W79825  33.067  40.377   4.708
 7401W        W79826  19.649  35.836  10.743
 7402W        W79827   2.454   2.899  12.607
 7403W        W79828  14.177  32.578   0.504
 7404W        W79829  21.263  31.667  14.982
 7405W        W79830  40.770  42.930  13.801
 7406W        W79831  17.016  28.630  14.601
 7407W        W79832   0.531  25.558   1.943
 7408W        W79833  28.610   5.802   4.902
 7409W        W79834  33.988  42.321  14.370
 7410W        W79835  39.227  13.134   1.685
 7411W        W79836  27.489   6.658  13.055
 7412W        W79837  41.435  26.085   4.528
 7413W        W79838  12.783  13.391   4.141
 7414W        W79839   1.042  33.043   2.422
 7415W        W79840  24.709  16.716  14.069
 7416W        W79841  25.637   1.211  10.762
 7417W        W79842  21.925  19.644   3.162
 7418W        W79843   3.229  37.477   3.691
 7419W        W79844  23.122  10.004   5.112
 7420W        W79845  37.750   5.242   4.489
 7421W        W79846   1.215   9.332  14.035
 7422W        W79847   8.874  14.570   2.816
 7423W        W79848  34.352  13.950  12.256
 7424W        W79849  40.594  12.361  10.725
 7425W        W79850  36.800  16.680   1.882
 7426W        W79851   8.465   7.244   5.081
 7427W        W79852   3.421  44.562   4.189
 7428W        W79853   9.927  24.758   1.411
 7429W        W79854  37.700  22.152   2.773
 7430W        W79855  37.079  24.731  14.302
 7431W        W79856  20.677  37.376   1.287
 7432W        W79857  39.740  17.793   3.100
 7433W        W79858   2.710  26.007  10.902
 7434W        W79859   3.131  10.036  11.438
 7435W        W79860  18.763  19.673   5.127
 7436W        W79861  19.323  22.528   2.849
 7437W        W79862  31.151  27.494   1.819
 7438W        W79863   5.202  33.005   4.260
 7439W        W79864  23.726  22.802  13.104
 7440W        W79865   4.625   4.669  11.047
 7441W        W79866  26.571  15.175   0.323
 7442W        W79867  13.029  22.286   2.233
 7443W        W79868  43.814  38.602   3.225
 7444W        W79869  18.200  31.027   3.727
 7445W        W79870   9.384   8.398   5.116
 7446W        W79871  16.179   2.368   3.878
 7447W        W79872  15.211  23.138   0.826
 7448W        W79873  24.023  12.192   1.871
 7449W        W79874  42.841  13.212   0.477
 7450W        W79875  25.671  37.898  13.404
 7451W        W79876   1.280  32.605  10.786
 7452W        W79877  25.653  11.778   2.129
 7453W        W79878  27.937  20.987   3.345
 7454W        W79879  30.945  43.012   1.759
 7455W        W79880   0.436  12.648   3.514
 7456W        W79881  21.711  26.013   0.957
 7457W        W79882   6.901   0.767   4.376
 7458W        W79883  42.341  17.787   3.890
 7459W        W79884  32.363  24.578  10.630
 7460W        W79885  21.539   4.935  13.551
 7461W        W79886  31.136  34.158  11.880
 7462W        W79887  11.394  16.713  12.393
 7463W        W79888  43.787   2.311   1.615
 7464W        W79889  16.835  12.553  13.801
 7465W        W79890  42.153   9.700   3.839
 7466W        W79891  15.113  43.995   4.154
 7467W        W79892  37.860  26.930  10.642
 7468W        W79893  21.301  37.001   1.836
 7469W        W79894  34.801  17.312  13.025
 7470W        W79895  20.842  12.381  11.522
 7471W        W79896  37.003  23.859  14.784
 7472W        W79897   3.891  37.467  12.557
 7473W        W79898  25.215  10.203   1.796
 7474W        W79899  42.014  10.992  10.665
 7475W        W79900   1.943   4.938   0.180
 7476W        W79901  42.033  20.515  10.668
 7477W        W79902  35.347  14.935  11.169
 7478W        W79903  18.445  18.327  11.446
 7479W        W79904  21.226  13.261   4.240
 7480W        W79905  40.884  39.082  12.006
 7481W        W79906  36.018  44.251   4.097
 7482W        W79907  30.159  27.337  13.050
 7483W        W79908   0.379  11.209  14.752
 7484W        W79909  39.587  26.937  12.195
 7485W        W79910  31.735  43.059   2.695
 7486W        W79911  17.536  23.543  13.022
 7487W        W79912  13.063  39.691   1.948
 7488W        W79913  29.091  35.459   3.155
 7489W        W79914  14.849  44.357  10.671
 7490W        W79915   2.541  22.172  11.144
 7491W        W79916  20.603  19.027   2.709
 7492W        W79917   3.118  15.626  14.934
 7493W        W79918  13.223  39.289  11.998
 7494W        W79919  41.377  36.047   2.012
 7495W        W79920  31.712  35.872  11.025
 7496W        W79921  24.507   9.865   4.554
 7497W        W79922   4.844  13.652   0.439
 7498W        W79923  33.611   1.463  13.291
 7499W        W79924  35.691  42.766   2.908
 7500W        W79925  16.488  35.563  13.478
 7501W        W79926   1.515  26.896   3.570
 7502W        W79927  40.574  16.308   1.824
 7503W        W79928  30.384  31.627   2.301
 7504W        W79929  35.795  22.191   2.494
 7505W        W79930  31.152  22.535   2.661
 7506W        W79931  22.485  36.761  13.582
 7507W        W79932  39.137  16.202  13.521
 7508W        W79933  18.559  19.776  11.084
 7509W        W79934  39.569  39.655  11.834
 7510W        W79935  10.799   2.311   2.170
 7511W        W79936  15.252  41.598   3.435
 7512W        W79937   9.648  27.256   0.525
 7513W        W79938  19.286   9.809  12.044
 7514W        W79939  36.361  28.510  11.412
 7515W        W79940  40.405  15.057  14.206
 7516W        W79941  24.086  26.042  14.934
 7517W        W79942  26.925  35.871   2.627
 7518W        W79943   5.936   1.280  13.322
 7519W        W79944  34.010  29.376  14.540
 7520W        W79945  39.860   8.383   1.136
 7521W        W79946  32.641  35.625  10.795
 7522W        W79947  31.924  33.145  13.821
 7523W        W79948  25.202  35.810  11.157
 7524W        W79949  29.407  16.229   4.336
 7525W        W79950   0.937  38.943  14.854
 7526W        W79951  27.946  40.801  13.296
 7527W        W79952  33.087   7.101  13.857
 7528W        W79953  34.789  39.815  11.493
 7529W        W79954  39.336   9.806   4.576
 7530W        W79955   1.718  13.850   0.904
 7531W        W79956  16.264  23.158  10.354
 7532W        W79957  31.699  20.628   0.330
 7533W        W79958  10.337  34.483  14.919
 7534W        W79959  31.373  33.461   4.533
 7535W        W79960  20.063  37.104  14.758
 7536W        W79961  38.328   2.358   3.315
 7537W        W79962  27.126  37.528   1.619
 7538W        W79963  39.069  29.080   4.574
 7539W        W79964   1.529  31.958   1.713
 7540W        W79965  11.866   3.493   4.109
 7541W        W79966   4.767  15.395  14.110
 7542W        W79967  37.833  15.632   2.588
 7543W        W79968  34.328  29.547   2.642
 7544W        W79969  18.409  37.410  14.347
 7545W        W79970  13.700  44.945  11.650
 7546W        W79971  26.893  11.711   4.595
 7547W        W79972  10.331  27.985   2.690
 7548W        W79973  22.109  29.621  11.598
 7549W        W79974  22.493   1.245  14.479
 7550W        W79975  42.959  39.821  12.026
 7551W        W79976  10.884   9.764   3.833
 7552W        W79977  20.477  31.932   1.921
 7553W        W79978  30.092  16.797  14.021
 7554W        W79979   7.746  27.938   3.654
 7555W        W79980   4.721  26.905  12.502
 7556W        W79981   0.388  13.840   0.296
 7557W        W79982   7.436  10.831   2.696
 7558W        W79983  16.079  13.040  11.594
 7559W        W79984  34.896  17.951  11.656
 7560W        W79985  27.504  32.949   9.816
 7561W        W79986   7.233  40.642   4.672
 7562W        W79987  22.624   8.826  11.912
 7563W        W79988  41.191  40.361   4.176
 7564W        W79989   2.821   8.307  12.016
 7565W        W79990  36.509  29.993   0.789
 7566W        W79991  41.511  10.676   0.474
 7567W        W79992  31.842  43.904   2.820
 7568W        W79993  44.214  33.457  14.954
 7569W        W79994  43.837   9.111   2.660
 7570W        W79995  24.008  20.775   0.112
 7571W        W79996   4.026  23.620  11.596
 7572W        W79997  26.963  19.014   1.546
 7573W        W79998   5.835  41.934   1.003
 7574W        W79999  25.873  29.594  13.248
 7575W        W80000  28.972  35.311  13.935
 7576W        W80001   2.578  39.084   5.363
 7577W        W80002  33.877  18.573  10.637
 7578W        W80003  12.623  24.090   0.299
 7579W        W80004   8.877  17.579   0.676
 7580W        W80005   5.618   4.746   4.890
 7581W        W80006  23.733  28.531   2.905
 7582W        W80007  39.459  11.470   0.667
 7583W        W80008  27.348  39.610  11.175
 7584W        W80009  15.389  30.811   2.825
 7585W        W80010  10.663   7.305   4.614
 7586W        W80011  40.025  40.746  14.836
 7587W        W80012   9.607  22.245  12.275
 7588W        W80013  18.682  29.428  12.461
 7589W        W80014  43.983  22.343  13.352
 7590W        W80015  44.354  19.779  12.973
 7591W        W80016  22.005  11.225   2.852
 7592W        W80017  22.004  10.871   4.175
 7593W        W80018  31.469   5.368  14.828
 7594W        W80019   9.256  11.664  13.462
 7595W        W80020  20.213  31.695   5.534
 7596W        W80021   7.368  13.668  14.015
 7597W        W80022  33.887  12.711  11.383
 7598W        W80023  39.609  39.344   1.695
 7599W        W80024  42.985  30.085   0.411
 7600W        W80025  11.400  37.802   4.272
 7601W        W80026  15.322  16.299  12.384
 7602W        W80027  38.700  19.664   1.136
 7603W        W80028  42.974  41.153   0.886
 7604W        W80029  29.543  36.451  13.060
 7605W        W80030  18.936  28.591  14.454
 7606W        W80031   0.193  20.889   4.066
 7607W        W80032  17.146  35.831  12.614
 7608W        W80033  16.610  41.338   0.396
 7609W        W80034  15.872   7.808   4.378
 7610W        W80035  18.306  27.232   4.165
 7611W        W80036  20.736  30.051   4.865
 7612W        W80037  42.397  12.064   0.310
 7613W        W80038  11.786  24.230  14.592
 7614W        W80039  10.297  20.418  10.701
 7615W        W80040  43.651  39.915  13.014
 7616W        W80041   8.821  44.504   1.909
 7617W        W80042  18.689  40.877   4.156
 7618W        W80043  21.023  35.985  10.384
 7619W        W80044  30.733  31.308  14.509
 7620W        W80045  14.556  11.840  13.434
 7621W        W80046  21.598   4.477  10.384
 7622W        W80047  23.920  30.362   3.573
 7623W        W80048   0.006  40.319   2.435
 7624W        W80049  33.407   6.770  11.180
 7625W        W80050  43.411  39.427   4.208
 7626W        W80051  25.576   7.577   4.523
 7627W        W80052  30.415  38.358   1.400
 7628W        W80053  23.659  29.086  14.457
 7629W        W80054  14.554  31.029  12.639
 7630W        W80055  18.815   8.424   3.176
 7631W        W80056  15.185  32.185  10.632
 7632W        W80057  41.005  10.283  12.789
 7633W        W80058  37.937  25.471   4.668
 7634W        W80059  27.513  42.055   0.480
 7635W        W80060   1.507   2.149   1.199
 7636W        W80061  16.304   4.512   1.896
 7637W        W80062  37.982   0.728   4.154
 7638W        W80063  29.936   7.624   4.234
 7639W        W80064   6.476  41.889  12.501
 7640W        W80065  39.565  24.617  14.342
 7641W        W80066  14.119  36.445  10.859
 7642W        W80067  30.563  39.520   3.198
 7643W        W80068  39.774  41.415   1.396
 7644W        W80069  40.772   0.798  10.970
 7645W        W80070  19.603   4.533   2.859
 7646W        W80071  28.117  40.305   2.310
 7647W        W80072  40.329  18.813  14.766
 7648W        W80073  12.347  38.622   1.822
 7649W        W80074   6.046  41.808   3.258
 7650W        W80075  12.058   5.680  12.493
 7651W        W80076  14.688  41.997  13.883
 7652W        W80077  24.000   1.247   1.879
 7653W        W80078  38.747  32.821   2.325
 7654W        W80079  29.571  24.888  12.010
 7655W        W80080  37.596  24.125  14.828
 7656W        W80081   3.310  17.754   4.569
 7657W        W80082  12.973  22.996   2.833
 7658W        W80083  25.454  31.650   1.851
 7659W        W80084   3.217   2.225  11.503
 7660W        W80085  41.721  20.080   3.855
 7661W        W80086  27.660   1.815   1.131
 7662W        W80087  41.735  39.098   0.763
 7663W        W80088  31.273   0.729  11.598
 7664W        W80089  15.793   7.642   3.274
 7665W        W80090  13.321  24.307  11.555
 7666W        W80091   1.796  40.132  11.908
 7667W        W80092  42.998  26.149   2.862
 7668W        W80093  23.959  26.553  14.787
 7669W        W80094  15.781  36.811  13.842
 7670W        W80095  17.224  43.285   1.123
 7671W        W80096   4.661  23.015   2.367
 7672W        W80097   6.729   9.351   2.964
 7673W        W80098  41.479  34.564  14.660
 7674W        W80099  34.041   6.321  12.363
 7675W        W80100  32.047  18.692  14.531
 7676W        W80101  19.268  24.793   1.383
 7677W        W80102  22.267  25.665  11.631
 7678W        W80103  10.968  11.488  12.374
 7679W        W80104  43.881  19.714   4.250
 7680W        W80105   6.081   3.433  11.908
 7681W        W80106  30.507  12.285  10.915
 7682W        W80107  33.034  24.062  10.714
 7683W        W80108   1.910  39.326   0.970
 7684W        W80109   1.740   1.883  13.508
 7685W        W80110  13.129  40.356   2.559
 7686W        W80111  17.112   5.910   1.757
 7687W        W80112  24.680  30.076  12.069
 7688W        W80113  16.225   4.957   3.843
 7689W        W80114  26.509  21.151   0.945
 7690W        W80115  17.805  44.266   4.203
 7691W        W80116  32.230  35.628   1.144
 7692W        W80117   9.390  23.654   3.300
 7693W        W80118   2.870  35.172  11.167
 7694W        W80119  15.579  44.451  12.575
 7695W        W80120  21.513  26.489  11.123
 7696W        W80121  27.611  22.924  14.745
 7697W        W80122  19.569  36.557  13.949
 7698W        W80123  39.054  44.368  12.267
 7699W        W80124  12.665  31.587   4.067
 7700W        W80125  27.572  24.240  10.737
 7701W        W80126  13.172  15.980  12.564
 7702W        W80127   1.689  21.517   3.742
 7703W        W80128  17.623  33.113   3.077
 7704W        W80129  36.478   9.786  13.823
 7705W        W80130   3.428  10.180   0.005
 7706W        W80131  38.012  12.430   1.157
 7707W        W80132  11.346  10.107   4.608
 7708W        W80133  24.257  30.775   4.244
 7709W        W80134  16.426   3.311   4.991
 7710W        W80135  27.560  32.514   4.544
 7711W        W80136  21.721   8.612   2.705
 7712W        W80137  24.563  21.817   2.396
 7713W        W80138  24.026  26.682  13.522
 7714W        W80139  41.891  26.537   3.739
 7715W        W80140  31.883   8.175   2.686
 7716W        W80141   8.326  34.999   1.629
 7717W        W80142  33.984  12.853  14.757
 7718W        W80143  10.232  24.463  14.565
 7719W        W80144  28.581  43.790   3.322
 7720W        W80145  39.955   2.945   0.517
 7721W        W80146   1.282  17.406   2.323
 7722W        W80147  16.243   0.954   0.775
 7723W        W80148  17.225  15.125   3.714
 7724W        W80149  38.804  10.280  11.458
 7725W        W80150   9.573  41.480  12.995
 7726W        W80151  14.608  29.181   1.413
 7727W        W80152   2.291  18.129  14.058
 7728W        W80153  21.927   5.197  10.921
 7729W        W80154   3.339  44.172  10.381
 7730W        W80155  16.126   0.131  14.025
 7731W        W80156   3.918  31.389   3.666
 7732W        W80157  13.244   0.427  14.553
 7733W        W80158   6.887  42.862  12.742
 7734W        W80159  19.863   3.318   4.644
 7735W        W80160  34.432  41.354  11.631
 7736W        W80161   1.222   7.700  11.503
 7737W        W80162  12.295  44.710  12.616
 7738W        W80163   3.343   4.203   2.142
 7739W        W80164  23.034  36.446   1.907
 7740W        W80165  36.499   9.238   4.053
 7741W        W80166  16.077  18.210  12.049
 7742W        W80167   4.839   8.800  12.440
 7743W        W80168  15.648   8.477  12.591
 7744W        W80169   5.931  28.406  12.945
 7745W        W80170  15.763  34.547   5.021
 7746W        W80171  31.151  38.423   2.805
 7747W        W80172  13.121  15.249   2.107
 7748W        W80173  27.047   1.318   0.746
 7749W        W80174  23.011  29.402  11.125
 7750W        W80175  14.361  32.861   2.670
 7751W        W80176   2.951   5.838   3.236
 7752W        W80177  17.120   3.663  10.581
 7753W        W80178  19.481  22.031   1.515
 7754W        W80179  29.053  10.375   3.895
 7755W        W80180  15.151  13.062  11.594
 7756W        W80181   5.424  20.081  12.882
 7757W        W80182  30.122   5.693  11.944
 7758W        W80183  25.945  23.715  14.313
 7759W        W80184  30.493  30.125  12.941
 7760W        W80185  21.328  27.704   3.699
 7761W        W80186  44.287   8.486  12.205
 7762W        W80187  25.756  12.595  13.071
 7763W        W80188   3.971  43.251   0.314
 7764W        W80189  14.127  30.518  13.497
 7765W        W80190   8.931  32.164   0.320
 7766W        W80191   9.431  42.513   4.576
 7767W        W80192  41.276  29.950   4.207
 7768W        W80193  42.373  40.854   4.146
 7769W        W80194  22.533  11.194  10.138
 7770W        W80195  42.833  12.762   3.168
 7771W        W80196  34.875  27.495  11.952
 7772W        W80197  19.311  18.291   4.096
 7773W        W80198   6.767  26.756  14.812
 7774W        W80199   1.466  40.542  13.169
 7775W        W80200  13.710  22.477   1.183
 7776W        W80201   2.455  43.784   3.226
 7777W        W80202  17.786  20.089   0.857
 7778W        W80203   4.235  12.709   1.871
 7779W        W80204  28.735   9.786   3.759
 7780W        W80205  10.187  14.372  11.099
 7781W        W80206  22.903  19.087  11.230
 7782W        W80207  39.041   0.711  14.365
 7783W        W80208  32.725  43.049   4.183
 7784W        W80209  14.134  41.472   1.520
 7785W        W80210  40.908  37.334   4.803
 7786W        W80211  37.030  42.871  11.975
 7787W        W80212   7.625   4.840  13.891
 7788W        W80213   9.751  22.449   3.802
 7789W        W80214  15.985   2.568   2.656
 7790W        W80215  38.027   0.516   2.734
 7791W        W80216   1.889  10.356   0.721
 7792W        W80217  15.736  11.318   2.849
 7793W        W80218  38.388  28.162  13.972
 7794W        W80219  40.474  22.701  14.328
 7795W        W80220  42.803  32.228   4.635
 7796W        W80221  25.953  31.988   0.374
 7797W        W80222   7.098  11.710   0.196
 7798W        W80223   2.336  23.048   3.728
 7799W        W80224  38.023  32.751  11.901
 7800W        W80225  25.052  22.772   0.849
 7801W        W80226  15.090  43.695  12.027
 7802W        W80227   4.524  34.346   0.532
 7803W        W80228   7.516   7.260   3.748
 7804W        W80229  40.944  10.112   1.767
 7805W        W80230  31.142  17.111  10.247
 7806W        W80231  14.642  31.955   4.044
 7807W        W80232   9.443  34.819  11.839
 7808W        W80233  26.193   9.344   3.455
 7809W        W80234  23.275  29.973  12.829
 7810W        W80235  34.096   8.502   1.157
 7811W        W80236  17.378  27.133  11.467
 7812W        W80237  18.769   4.971  12.959
 7813W        W80238  44.119   1.995   1.025
 7814W        W80239   6.641  26.202   2.927
 7815W        W80240  43.688  19.255  12.066
 7816W        W80241  40.037  14.403  11.394
 7817W        W80242  16.192  32.035  14.892
 7818W        W80243  11.898  44.973   1.557
 7819W        W80244  21.142  35.917  12.637
 7820W        W80245  43.657   8.726  14.940
 7821W        W80246  21.953  33.592  14.448
 7822W        W80247  40.629  23.220   3.813
 7823W        W80248  26.648  23.007   2.278
 7824W        W80249  35.899  18.190  11.496
 7825W        W80250  21.080  21.896  14.848
 7826W        W80251   4.443  14.576   3.564
 7827W        W80252   7.298  26.787  12.981
 7828W        W80253  34.488  40.664  12.778
 7829W        W80254  34.371  29.688   4.223
 7830W        W80255  19.611   9.521   3.144
 7831W        W80256   1.824  43.852   2.101
 7832W        W80257  13.335   2.250  14.398
 7833W        W80258  44.832  19.753   4.035
 7834W        W80259  26.581   0.737  12.555
 7835W        W80260  10.205   4.664  14.430
 7836W        W80261  24.403  17.759   3.801
 7837W        W80262  28.615  42.388  11.883
 7838W        W80263  16.259  29.855   0.381
 7839W        W80264  30.574  39.571   3.709
 7840W        W80265   2.871  18.983   2.604
 7841W        W80266  29.184  33.130  12.022
 7842W        W80267  22.084  24.014  11.056
 7843W        W80268  21.239  28.731  14.333
 7844W        W80269   5.693  27.767   2.343
 7845W        W80270  40.078  21.547  14.819
 7846W        W80271  20.495  20.710  12.000
 7847W        W80272   4.365  20.848   4.624
 7848W        W80273  41.960  42.525  13.474
 7849W        W80274  24.847   3.655   0.323
 7850W        W80275   3.035   5.892   0.499
 7851W        W80276  44.679  31.649  11.904
 7852W        W80277  23.636  43.536  10.527
 7853W        W80278   7.606  38.815   1.734
 7854W        W80279   8.370  29.380   4.541
 7855W        W80280  24.935   9.691   4.964
 7856W        W80281   4.671  15.743  10.255
 7857W        W80282  19.254  27.086  12.597
 7858W        W80283  24.571   0.329   1.005
 7859W        W80284  25.242  23.921   4.565
 7860W        W80285  35.976  43.924   1.367
 7861W        W80286  20.020  42.833   2.660
 7862W        W80287   2.334  15.517   3.735
 7863W        W80288  35.471  10.377  10.222
 7864W        W80289  31.358  43.809  12.157
 7865W        W80290  26.203   1.029  12.385
 7866W        W80291   7.743  13.297   2.021
 7867W        W80292  22.499  11.202   0.794
 7868W        W80293  16.737  44.769  11.258
 7869W        W80294  37.478  19.679   3.869
 7870W        W80295  16.178  31.058  13.116
 7871W        W80296  14.191  14.872   4.235
 7872W        W80297  21.582  12.716   3.349
 7873W        W80298  34.002  14.193   1.350
 7874W        W80299  35.855  19.560  12.465
 7875W        W80300  14.304  17.277   4.504
 7876W        W80301  15.379   6.621  11.034
 7877W        W80302  32.048  37.061  11.570
 7878W        W80303  44.459   1.319  14.833
 7879W        W80304   8.060  28.137  11.632
 7880W        W80305  44.392  11.320   3.446
 7881W        W80306   9.300   6.142   0.537
 7882W        W80307  29.205  29.486  14.332
 7883W        W80308  26.141   0.070   3.177
 7884W        W80309  19.185  22.768   1.388
 7885W        W80310   3.421  14.732  14.779
 7886W        W80311  11.910  14.770   3.774
 7887W        W80312  40.072  40.037   0.538
 7888W        W80313  12.656  31.088  12.770
 7889W        W80314   0.033  31.066  11.283
 7890W        W80315   4.004  39.485   0.400
 7891W        W80316   4.829  24.666  14.045
 7892W        W80317   6.810  41.388   4.691
 7893W        W80318  17.072  10.605  10.718
 7894W        W80319   8.174  43.653   1.003
 7895W        W80320   5.341   0.577   2.303
 7896W        W80321  18.061  42.562   3.359
 7897W        W80322  16.905  23.642   3.751
 7898W        W80323  41.728  26.046  11.948
 7899W        W80324  22.227  18.190   0.469
 7900W        W80325  22.031  42.540   1.709
 7901W        W80326  43.016  21.773   1.303
 7902W        W80327   9.809  25.027  10.242
 7903W        W80328  34.589  40.878  11.825
 7904W        W80329  44.673  44.515  10.770
 7905W        W80330  19.602  35.495  14.220
 7906W        W80331  43.034  33.159   2.570
 7907W        W80332   1.835  13.660  13.974
 7908W        W80333  36.939  28.967   2.873
 7909W        W80334  33.845  43.000  13.076
 7910W        W80335  17.820  17.086   3.225
 7911W        W80336  41.237   5.218   2.646
 7912W        W80337   9.507  17.033   0.970
 7913W        W80338  34.646  44.927  11.275
 7914W        W80339  12.692  41.117  14.496
 7915W        W80340  44.716  16.246   2.111
 7916W        W80341  30.926  13.747  11.599
 7917W        W80342  16.646  14.304   1.259
 7918W        W80343  19.209   2.860  12.823
 7919W        W80344  44.480  27.281  13.616
 7920W        W80345  34.645  40.460  11.504
 7921W        W80346  26.994  25.096  11.975
 7922W        W80347  25.539  27.974   4.654
 7923W        W80348  35.898  39.594  11.513
 7924W        W80349  40.543   0.416   4.875
 7925W        W80350  32.679  19.348   5.147
 7926W        W80351   8.987  12.690   2.406
 7927W        W80352  12.638  22.555  13.601
 7928W        W80353   3.745  29.421   4.907
 7929W        W80354  43.480  14.654   1.321
 7930W        W80355  29.628  25.481   4.385
 7931W        W80356  28.462   8.033  10.776
 7932W        W80357   4.290   9.336   1.702
 7933W        W80358  13.902   1.001   0.535
 7934W        W80359  14.220  41.705   3.828
 7935W        W80360  26.542  35.932   3.761
 7936W        W80361  43.918   5.445  12.090
 7937W        W80362  28.292  35.780   3.777
 7938W        W80363  11.309  40.872  14.311
 7939W        W80364  27.906  29.536   4.244
 7940W        W80365   6.517  44.854   3.634
 7941W        W80366   8.118  41.923   4.360
 7942W        W80367  17.653  42.880   4.920
 7943W        W80368  33.079  37.651  14.436
 7944W        W80369   1.486  33.996  10.609
 7945W        W80370  18.696  17.683   1.422
 7946W        W80371  43.826  40.704   1.376
 7947W        W80372  13.610   3.254   4.434
 7948W        W80373  37.788   2.028   1.851
 7949W        W80374  22.508  35.269   4.850
 7950W        W80375  21.114  32.614   4.064
 7951W        W80376   4.328  22.228  13.969
 7952W        W80377   2.473  10.239   9.915
 7953W        W80378  33.186  19.869   2.343
 7954W        W80379  21.913  43.313  14.719
 7955W        W80380  32.418   0.242  12.071
 7956W        W80381  32.890   9.263   1.424
 7957W        W80382  35.396   6.646  12.409
 7958W        W80383  36.533  26.186   2.719
 7959W        W80384  41.909  17.152   0.541
 7960W        W80385  23.758  42.662  11.397
 7961W        W80386  14.930   0.686  10.751
 7962W        W80387  36.128  43.097  12.643
 7963W        W80388  14.274  39.328   3.592
 7964W        W80389  19.054  35.280  12.440
 7965W        W80390  22.032  17.723   2.382
 7966W        W80391  11.229  36.075   2.736
 7967W        W80392  25.073   8.886  13.863
 7968W        W80393  43.223  28.925  12.377
 7969W        W80394  26.205  27.491  13.489
 7970W        W80395  42.266   6.275   2.344
 7971W        W80396   4.215   5.190   3.224
 7972W        W80397  14.715  25.061   3.929
 7973W        W80398  30.585  31.544   1.342
 7974W        W80399  28.997   0.957   0.458
 7975W        W80400  37.930  38.356  13.412
 7976W        W80401  17.605  37.784   4.470
 7977W        W80402  11.836  44.559   3.307
 7978W        W80403   1.087  18.671   2.789
 7979W        W80404  10.619  40.411   3.720
 7980W        W80405  31.056  26.459  12.598
 7981W        W80406   9.445  39.979   3.282
 7982W        W80407  27.424  24.629  13.325
 7983W        W80408   9.138  25.084  14.438
 7984W        W80409  27.185   4.822  13.167
 7985W        W80410  36.463  23.745  11.325
 7986W        W80411  13.198  38.533  10.661
 7987W        W80412   3.451  19.045   0.959
 7988W        W80413  23.024  21.047   1.771
 7989W        W80414   5.273  23.239   0.929
 7990W        W80415  36.812   7.891   4.326
 7991W        W80416  10.868  43.263   2.719
 7992W        W80417  42.571   2.832   2.964
 7993W        W80418  27.163   7.698  14.771
 7994W        W80419  41.667   7.049   4.102
 7995W        W80420  29.969  19.273   1.142
 7996W        W80421  18.302   6.480  12.542
 7997W        W80422  17.656  42.955   2.379
 7998W        W80423  25.626  42.090  12.101
 7999W        W80424  32.593  36.868   4.237
 8000W        W80425   7.712   9.762  13.896
 8001W        W80426   4.974  33.571  11.155
 8002W        W80427  11.360  40.061   4.205
 8003W        W80428   5.287  20.589  12.925
 8004W        W80429   3.838  20.972  12.953
 8005W        W80430  12.789  31.372  11.462
 8006W        W80431  38.085  29.090   2.239
 8007W        W80432  11.708  32.881   1.945
 8008W        W80433  21.147   2.262   3.414
 8009W        W80434  35.043  42.441   4.024
 8010W        W80435   0.905  44.920   2.796
 8011W        W80436  20.215  18.697  14.252
 8012W        W80437   4.076   0.315   3.481
 8013W        W80438   0.295  27.210  13.123
 8014W        W80439   9.961   3.875   3.519
 8015W        W80440  35.035  15.357   0.278
 8016W        W80441   5.668   5.702   0.885
 8017W        W80442  34.539   5.646  12.546
 8018W        W80443  37.285  10.267  11.878
 8019W        W80444  11.335   6.938  13.912
 8020W        W80445   0.025   5.619   3.727
 8021W        W80446  35.485  26.556   0.719
 8022W        W80447   7.759  38.000   2.246
 8023W        W80448  28.977  12.635   1.258
 8024W        W80449   4.381  13.619   1.847
 8025W        W80450   2.468  25.102   1.137
 8026W        W80451  16.620  36.687  13.051
 8027W        W80452  13.345   8.936  13.014
 8028W        W80453  20.185  38.492  10.580
 8029W        W80454   9.421  37.215  10.970
 8030W        W80455  18.755  14.668   4.127
 8031W        W80456  36.747  21.042  13.323
 8032W        W80457   1.633  21.544  14.045
 8033W        W80458  16.609  20.220   3.711
 8034W        W80459  19.783  43.796  12.525
 8035W        W80460  28.150  15.127  11.910
 8036W        W80461  38.659  22.094   4.597
 8037W        W80462  34.313  34.566   3.436
 8038W        W80463  26.937  20.460  11.286
 8039W        W80464  12.123  23.240  12.476
 8040W        W80465  21.773  25.542  11.612
 8041W        W80466  16.648  10.850   3.290
 8042W        W80467  39.896  33.470   1.417
 8043W        W80468  22.598  30.457   2.288
 8044W        W80469  22.734  37.883   1.193
 8045W        W80470   7.325  19.509  13.333
 8046W        W80471  26.182  40.386  13.926
 8047W        W80472  10.367  28.221  13.934
 8048W        W80473  27.263  10.718   3.731
 8049W        W80474  42.802  24.729   3.589
 8050W        W80475  15.624  33.445   4.199
 8051W        W80476  43.518  14.725   2.713
 8052W        W80477   7.663  30.091  13.848
 8053W        W80478  35.490  20.823  12.829
 8054W        W80479   8.905  37.502  13.293
 8055W        W80480  35.837  28.501   3.208
 8056W        W80481  31.194  44.503  10.272
 8057W        W80482   1.639  41.382  10.729
 8058W        W80483  25.298  24.906   3.280
 8059W        W80484  23.073  21.329   4.171
 8060W        W80485  18.573   7.420  12.070
 8061W        W80486  29.091   2.201   2.147
 8062W        W80487  19.087  18.088  11.971
 8063W        W80488  14.516  35.177   1.651
 8064W        W80489   5.849  38.506  11.159
 8065W        W80490   3.451   7.538   4.735
 8066W        W80491  31.041  10.308  11.479
 8067W        W80492  21.956  29.678  12.073
 8068W        W80493  14.787  15.544  12.004
 8069W        W80494  38.871   8.429   1.920
 8070W        W80495  38.007   9.265   0.669
 8071W        W80496  21.170  40.282  14.701
 8072W        W80497   8.663  18.608   2.089
 8073W        W80498  21.989   8.216  13.516
 8074W        W80499   6.257  40.842  10.249
 8075W        W80500  38.393  11.852  12.841
 8076W        W80501  32.675  36.599   1.309
 8077W        W80502  23.994  43.442  12.857
 8078W        W80503   3.674  17.037  13.794
 8079W        W80504  43.835   4.884   4.636
 8080W        W80505  13.612  30.487  14.352
 8081W        W80506  18.846  25.724   2.773
 8082W        W80507  18.620   5.150   4.715
 8083W        W80508  22.307   5.697  12.938
 8084W        W80509   4.855   7.987   1.135
 8085W        W80510  20.716  15.854   1.832
 8086W        W80511  11.262   7.941   2.677
 8087W        W80512  16.070   2.298  13.374
 8088W        W80513   6.156  24.096  12.020
 8089W        W80514  43.721   3.183   1.803
 8090W        W80515  32.902  32.913   1.863
 8091W        W80516  33.287  28.983  14.466
 8092W        W80517  40.122  14.075  13.914
 8093W        W80518   4.096  27.604  10.704
 8094W        W80519   8.765  22.561   0.024
 8095W        W80520  19.918  35.006  10.291
 8096W        W80521   1.755  13.760  11.446
 8097W        W80522  33.360  10.656   2.621
 8098W        W80523  34.734   9.371  10.731
 8099W        W80524  35.694   8.356  10.761
 8100W        W80525   5.902  41.227  10.100
 8101W        W80526  18.101  42.511  13.034
 8102W        W80527   8.749  44.433   0.319
 8103W        W80528  28.218  25.543  14.539
 8104W        W80529  32.370   6.206   0.295
 8105W        W80530  13.827  14.608  13.003
 8106W        W80531   3.281   9.653  12.331
 8107W        W80532  29.235  33.490  10.624
 8108W        W80533  44.442   1.734   0.712
 8109W        W80534  29.364  37.018  12.057
 8110W        W80535  18.132  25.140  10.801
 8111W        W80536  15.083   2.751   2.788
 8112W        W80537   6.969  23.066   3.568
 8113W        W80538  19.116   6.407   1.426
 8114W        W80539   5.665   4.302   4.580
 8115W        W80540   5.217  35.839   4.723
 8116W        W80541  23.294   7.887   4.509
 8117W        W80542  44.554   2.555   3.696
 8118W        W80543   0.504  40.254  14.471
 8119W        W80544   9.672   4.036  14.587
 8120W        W80545  39.742   7.349  11.329
 8121W        W80546   9.303   7.837   4.594
 8122W        W80547  25.431   2.430   1.900
 8123W        W80548   6.704  32.474   4.650
 8124W        W80549   0.172   8.225   4.124
 8125W        W80550  32.785  23.325   2.735
 8126W        W80551  15.128  32.544  11.934
 8127W        W80552   5.224  36.416   2.987
 8128W        W80553  27.873   4.224  14.830
 8129W        W80554  13.115  33.125  13.314
 8130W        W80555   1.559  13.168  12.870
 8131W        W80556  21.678  30.121  12.117
 8132W        W80557  27.686  17.414   0.523
 8133W        W80558   7.013  22.428   4.097
 8134W        W80559   9.611  19.104  14.290
 8135W        W80560  10.230  26.778   3.366
 8136W        W80561  31.402  28.457  11.370
 8137W        W80562  20.204   4.401  13.852
 8138W        W80563  40.910  17.181   2.635
 8139W        W80564  38.946  20.028  13.034
 8140W        W80565   4.798  18.826  10.763
 8141W        W80566  12.878  42.341  13.021
 8142W        W80567   7.143  34.061   3.121
 8143W        W80568  29.938  22.061   2.741
 8144W        W80569  38.594  41.252   0.401
 8145W        W80570  40.444  33.844   2.304
 8146W        W80571  40.774  38.850  14.948
 8147W        W80572  10.647  16.776  11.199
 8148W        W80573  44.297  18.162  11.223
 8149W        W80574  19.449  34.087   2.158
 8150W        W80575   2.822  42.878   2.932
 8151W        W80576  22.754   3.774   1.795
 8152W        W80577  29.975   8.248   1.854
 8153W        W80578   4.735  43.376  10.888
 8154W        W80579  14.443  10.708   2.794
 8155W        W80580  41.585   9.623  12.795
 8156W        W80581  17.178  13.238   2.613
 8157W        W80582  34.504  17.311   3.712
 8158W        W80583  32.454   0.921   2.247
 8159W        W80584  24.056  22.808  11.872
 8160W        W80585  24.991   4.360   2.153
 8161W        W80586  15.889   2.870   4.803
 8162W        W80587  35.846  37.507  13.764
 8163W        W80588   3.665  42.714  14.422
 8164W        W80589  20.771   2.600  11.669
 8165W        W80590  18.463  21.887  11.048
 8166W        W80591  24.592  29.050  11.034
 8167W        W80592   0.389  12.521   0.960
 8168W        W80593  22.712  13.812   3.796
 8169W        W80594  24.628  13.719   4.328
 8170W        W80595  24.635  32.429   4.679
 8171W        W80596  42.801  42.075   1.980
 8172W        W80597  14.706  16.769   2.271
 8173W        W80598  35.090  42.158   4.493
 8174W        W80599  19.309  14.989  14.819
 8175W        W80600   5.640  42.926  14.315
 8176W        W80601  20.692  13.313  13.030
 8177W        W80602   1.783   3.316  12.199
 8178W        W80603  27.530  25.649  11.069
 8179W        W80604  35.968  17.625   4.657
 8180W        W80605  15.242  38.383  13.467
 8181W        W80606   0.190  33.176  12.443
 8182W        W80607  21.484   2.280   0.800
 8183W        W80608  25.661   6.238  11.559
 8184W        W80609  35.110  36.952  11.596
 8185W        W80610   0.969  11.578   3.305
 8186W        W80611   5.249  29.908  12.476
 8187W        W80612  15.361  26.745  13.533
 8188W        W80613  24.027  17.854   2.287
 8189W        W80614   2.936   8.170   4.357
 8190W        W80615  22.195  17.542  10.749
 8191W        W80616  25.106  38.870  12.583
 8192W        W80617  43.518  18.990   0.464
 8193W        W80618  36.514  19.658  12.166
 8194W        W80619  14.028  36.368  11.372
 8195W        W80620  30.133   7.410  11.278
 8196W        W80621  13.405  27.889   4.672
 8197W        W80622  21.714  17.016   4.104
 8198W        W80623  20.717  40.840  10.699
 8199W        W80624  32.300  29.966  14.860
 8200W        W80625   4.438  25.003   2.230
 8201W        W80626  13.706  11.218   3.781
 8202W        W80627  35.757   8.809  11.714
 8203W        W80628  27.083  40.058   2.340
 8204W        W80629  16.795   8.936   3.214
 8205W        W80630  19.989  16.502   1.890
 8206W        W80631  34.806  38.832   0.299
 8207W        W80632  16.413  41.690  11.959
 8208W        W80633  31.468  26.098  11.488
 8209W        W80634  37.350  21.564  14.303
 8210W        W80635   0.772   9.036  11.222
 8211W        W80636  11.657   3.175  13.647
 8212W        W80637  24.574   6.447   2.665
 8213W        W80638  33.036  15.655  14.512
 8214W        W80639  25.448  32.672   1.971
 8215W        W80640  44.569  13.302  13.328
 8216W        W80641  35.907  40.093   3.908
 8217W        W80642   4.223   2.405  11.714
 8218W        W80643  18.695  32.102   2.741
 8219W        W80644  26.760  38.827   5.191
 8220W        W80645  37.731  30.731   3.166
 8221W        W80646  33.866  14.324  14.054
 8222W        W80647  24.412   6.290   1.442
 8223W        W80648  14.976  16.394  11.920
 8224W        W80649  15.551  35.673  13.494
 8225W        W80650  19.258  13.182   3.766
 8226W        W80651  33.700  35.892   0.773
 8227W        W80652  31.010   5.661   4.564
 8228W        W80653  11.295  40.080  11.233
 8229W        W80654  29.524  37.034  13.739
 8230W        W80655  43.535  22.716   1.766
 8231W        W80656   0.915  19.589   0.905
 8232W        W80657  14.049  43.354  14.784
 8233W        W80658   4.763   9.690  10.770
 8234W        W80659  41.600  27.890  13.468
 8235W        W80660  28.997  26.911   2.900
 8236W        W80661   3.306  42.059  12.391
 8237W        W80662  21.197   4.747   4.280
 8238W        W80663  36.518  14.652   2.132
 8239W        W80664  42.083  22.549   1.056
 8240W        W80665  44.182   1.286   0.753
 8241W        W80666  37.876  30.404  12.470
 8242W        W80667  34.633  23.594  14.879
 8243W        W80668  23.974  28.538  12.558
 8244W        W80669  12.221  27.041   1.053
 8245W        W80670  31.061  39.325  14.520
 8246W        W80671  19.733   3.006  12.078
 8247W        W80672  27.234  12.557   2.671
 8248W        W80673   2.573   5.600   4.098
 8249W        W80674  31.294  40.873  14.522
 8250W        W80675  16.397  25.795   3.548
 8251W        W80676  29.115   3.367   0.460
 8252W        W80677  19.463  11.671   4.674
 8253W        W80678   9.293  33.750   1.222
 8254W        W80679   8.873  31.055  12.122
 8255W        W80680  24.620  14.339  13.306
 8256W        W80681   5.285  22.467  11.771
 8257W        W80682   6.764  33.888  13.470
 8258W        W80683  34.602  24.987   3.425
 8259W        W80684  40.971  32.700   0.531
 8260W        W80685  36.619  12.679   2.885
 8261W        W80686   1.516  30.438  13.002
 8262W        W80687   4.514  27.421  11.939
 8263W        W80688  15.113  27.564   0.835
 8264W        W80689  39.041  22.159  11.302
 8265W        W80690   2.246  19.656   0.424
 8266W        W80691  34.436  20.727   3.240
 8267W        W80692   9.431  28.101  13.871
 8268W        W80693  12.803  11.652   3.653
 8269W        W80694  17.529   7.379  11.992
 8270W        W80695   1.480  28.145  11.048
 8271W        W80696  20.823  24.938  12.413
 8272W        W80697  43.753  12.139   2.426
 8273W        W80698   4.223  25.873   4.358
 8274W        W80699  35.940  40.999  11.180
 8275W        W80700  29.123  37.385   0.985
 8276W        W80701  41.268  17.267  13.736
 8277W        W80702  15.687  40.028  14.768
 8278W        W80703  20.661   3.727   1.818
 8279W        W80704  13.776  22.272  10.529
 8280W        W80705  27.541  20.439   0.510
 8281W        W80706  31.012  43.446  10.635
 8282W        W80707  14.075  15.919  13.049
 8283W        W80708   1.955  34.472   0.657
 8284W        W80709  30.545  24.955   1.818
 8285W        W80710  30.511  16.712  10.646
 8286W        W80711  15.240  23.507  11.560
 8287W        W80712  17.429  12.828  12.045
 8288W        W80713  40.942  13.773  14.318
 8289W        W80714  17.084  39.819  13.375
 8290W        W80715   4.359  18.734   0.921
 8291W        W80716  17.261   2.502  13.567
 8292W        W80717  15.707   8.383   3.015
 8293W        W80718  28.677   7.155  12.932
 8294W        W80719  19.329  33.518   3.299
 8295W        W80720  44.329  13.269  11.958
 8296W        W80721  35.264  43.978   2.341
 8297W        W80722  15.612  30.026   1.233
 8298W        W80723  10.283  18.266  10.828
 8299W        W80724  15.660  15.322   4.939
 8300W        W80725  25.519   0.728  12.543
 8301W        W80726  44.471  18.885   4.093
 8302W        W80727  24.551   7.827   2.739
 8303W        W80728  29.139   2.343  13.975
 8304W        W80729  36.701  12.636  10.762
 8305W        W80730  44.492   6.842   3.686
 8306W        W80731   7.313   4.185  12.174
 8307W        W80732  31.400  13.715  10.639
 8308W        W80733  13.210  18.568   2.371
 8309W        W80734  17.378  41.855  12.201
 8310W        W80735  24.705  38.287  14.805
 8311W        W80736  28.042  34.840   4.703
 8312W        W80737  29.404   7.878  12.892
 8313W        W80738   8.444  29.958  12.290
 8314W        W80739  44.888  18.527   2.748
 8315W        W80740   8.073   4.289  13.437
 8316W        W80741  20.866   8.769   5.016
 8317W        W80742  15.325  29.834   5.125
 8318W        W80743   7.921  17.669  14.556
 8319W        W80744  22.473   6.623   2.837
 8320W        W80745   6.088  12.510   4.211
 8321W        W80746  35.801  36.749  11.126
 8322W        W80747   6.693   6.885  14.826
 8323W        W80748  17.158  16.083   3.649
 8324W        W80749  15.057   6.024   0.039
 8325W        W80750  39.461   5.819   1.329
 8326W        W80751  31.979  34.553  11.386
 8327W        W80752   5.485  23.223  12.511
 8328W        W80753  18.360  32.168  13.428
 8329W        W80754  40.388  44.230  11.605
 8330W        W80755  42.835  40.275  12.529
 8331W        W80756   5.929   0.915   3.353
 8332W        W80757  35.760  17.810  13.538
 8333W        W80758  43.496  17.750  11.258
 8334W        W80759  43.951  28.947  14.959
 8335W        W80760  13.414   3.556   9.779
 8336W        W80761  23.674  43.320   1.349
 8337W        W80762  10.188  20.890  11.041
 8338W        W80763  18.626  40.832   0.807
 8339W        W80764  18.850  38.572   2.451
 8340W        W80765  24.946  16.407   4.542
 8341W        W80766   2.554  36.456  10.393
 8342W        W80767  35.437  25.414   1.716
 8343W        W80768  36.226  37.667  10.447
 8344W        W80769  23.768  39.843   4.197
 8345W        W80770  37.346   2.889   3.085
 8346W        W80771   2.766  15.190   2.607
 8347W        W80772  36.174  26.607  11.055
 8348W        W80773  31.393  22.200   1.818
 8349W        W80774  18.668  35.979  12.992
 8350W        W80775  38.490   4.799  11.899
 8351W        W80776  37.405  15.837   2.358
 8352W        W80777  31.022  44.418   4.864
 8353W        W80778   2.005  29.878   2.642
 8354W        W80779  42.260  39.547  11.221
 8355W        W80780  22.549  39.413   4.157
 8356W        W80781  30.983  36.862  13.979
 8357W        W80782  38.437  15.542  12.393
 8358W        W80783  25.588   2.888  14.672
 8359W        W80784  40.007  41.986   1.793
 8360W        W80785   7.329   7.434   4.190
 8361W        W80786  39.369  16.441  12.117
 8362W        W80787  25.768  36.065  12.555
 8363W        W80788   7.530  38.376  13.830
 8364W        W80789  41.409  11.472  12.133
 8365W        W80790   7.529   1.075  10.702
 8366W        W80791  34.203  42.731   1.754
 8367W        W80792  26.941  32.601   1.673
 8368W        W80793   3.410  28.406   1.899
 8369W        W80794  35.438  38.739  13.908
 8370W        W80795  25.710   0.236  11.450
 8371W        W80796  11.781  41.123  14.437
 8372W        W80797  29.148  25.934   2.623
 8373W        W80798  20.488   2.395  12.063
 8374W        W80799  16.370   2.238  12.420
 8375W        W80800   5.910  26.296  14.765
 8376W        W80801  15.205  26.499   1.954
 8377W        W80802  27.299  36.080   2.286
 8378W        W80803   6.747  15.849  10.760
 8379W        W80804  32.996   4.767   4.258
 8380W        W80805  21.002  20.956  14.793
 8381W        W80806   6.449   7.346  10.272
 8382W        W80807  25.530  41.749   4.220
 8383W        W80808   8.602  16.201  10.691
 8384W        W80809  17.859   2.054  11.164
 8385W        W80810  18.599   0.690  14.758
 8386W        W80811  30.430  41.082  10.855
 8387W        W80812   9.452   3.517  13.828
 8388W        W80813  14.210  25.231   0.359
 8389W        W80814   2.283  26.078   2.191
 8390W        W80815  14.143   0.885   4.315
 8391W        W80816   1.297  28.567   0.744
 8392W        W80817  39.723  22.091   2.168
 8393W        W80818  12.734  37.075  12.286
 8394W        W80819   3.961  34.002  13.565
 8395W        W80820  21.340  27.081   1.754
 8396W        W80821  38.482   3.371   3.180
 8397W        W80822  18.497  25.657  10.960
 8398W        W80823   6.343  37.666   1.572
 8399W        W80824  35.125  28.583   4.782
 8400W        W80825  29.118  36.480  10.688
 8401W        W80826  12.289   2.239   0.236
 8402W        W80827  21.417  26.593  11.962
 8403W        W80828  19.619  14.554  10.369
 8404W        W80829  29.306  32.351   4.222
 8405W        W80830   6.186  40.426   3.296
 8406W        W80831  17.629  44.937  11.340
 8407W        W80832   1.033   9.528   3.309
 8408W        W80833  34.089  32.596   4.828
 8409W        W80834  10.270   5.121   3.812
 8410W        W80835   6.396   7.635  12.883
 8411W        W80836  11.233  29.922  12.462
 8412W        W80837  34.650  13.970   0.609
 8413W        W80838  20.594   5.467  13.408
 8414W        W80839  34.080  17.830  11.135
 8415W        W80840  38.955   8.229   2.827
 8416W        W80841  18.162   0.856  14.039
 8417W        W80842  34.554  37.986   1.738
 8418W        W80843  13.642  41.732  13.032
 8419W        W80844  35.523  28.318   4.186
 8420W        W80845  25.610  14.885  11.102
 8421W        W80846  15.699  17.802   3.664
 8422W        W80847  40.981  21.399   1.218
 8423W        W80848   7.778  14.752  13.739
 8424W        W80849  21.143   5.661   4.319
 8425W        W80850  35.816  11.923   0.438
 8426W        W80851  13.103  24.023   4.768
 8427W        W80852  22.954  15.418  14.932
 8428W        W80853   2.500   7.311   4.736
 8429W        W80854  10.688   4.854   1.793
 8430W        W80855  23.775   7.709  14.236
 8431W        W80856  18.794  20.662  12.520
 8432W        W80857  13.794  29.915   3.354
 8433W        W80858   9.848  35.615  13.322
 8434W        W80859  35.305  42.344  11.220
 8435W        W80860  40.380   9.120   0.687
 8436W        W80861  37.510  13.259  10.723
 8437W        W80862  11.444  14.828  11.182
 8438W        W80863  15.161   0.772  14.710
 8439W        W80864  13.390  26.170  14.035
 8440W        W80865  43.766  41.049  12.463
 8441W        W80866   3.804  34.528   4.086
 8442W        W80867  13.102  16.252  12.142
 8443W        W80868  19.396  10.486  13.937
 8444W        W80869  43.096   1.726  14.312
 8445W        W80870  11.427  11.528  12.600
 8446W        W80871  21.169  33.368   3.267
 8447W        W80872  23.074   7.722  11.001
 8448W        W80873   3.031  38.832  13.276
 8449W        W80874  41.261  39.519  14.734
 8450W        W80875   1.272  40.040  13.587
 8451W        W80876  40.247  30.218   4.960
 8452W        W80877  14.188   9.732   4.077
 8453W        W80878  15.302  12.244  11.882
 8454W        W80879  28.783  14.696   1.945
 8455W        W80880  33.255  16.983   3.179
 8456W        W80881  13.286  29.435   1.147
 8457W        W80882  36.882  36.381   4.422
 8458W        W80883  36.939   2.728  14.995
 8459W        W80884   3.618  24.668   3.245
 8460W        W80885  25.182  29.737  11.603
 8461W        W80886   4.509  36.811   3.154
 8462W        W80887  38.385  29.092   4.099
 8463W        W80888  33.115  37.464  12.012
 8464W        W80889  20.335  35.045  14.812
 8465W        W80890   9.233  41.344   3.174
 8466W        W80891  34.431  35.434   3.654
 8467W        W80892  10.570  36.148   1.328
 8468W        W80893   3.985  10.283   2.637
 8469W        W80894  27.101  16.753   0.233
 8470W        W80895   7.453  27.488  11.927
 8471W        W80896  22.996  11.268   9.881
 8472W        W80897  27.132  44.294   2.913
 8473W        W80898   3.461  42.405  14.042
 8474W        W80899   9.306  32.966   0.877
 8475W        W80900  41.175  27.507   2.129
 8476W        W80901  34.530  29.173  11.495
 8477W        W80902  27.544  32.488  10.042
 8478W        W80903   8.583   4.634  13.899
 8479W        W80904  41.802  29.245  12.967
 8480W        W80905  34.643  28.434  13.879
 8481W        W80906  30.110   4.320   1.282
 8482W        W80907  13.599   3.245   2.719
 8483W        W80908  10.619   0.489   3.735
 8484W        W80909  35.465  37.923  10.733
 8485W        W80910  43.456  27.820   4.630
 8486W        W80911  39.129  13.853  11.432
 8487W        W80912  27.060  39.399   4.647
 8488W        W80913   7.162   0.793   3.151
 8489W        W80914  22.741  10.679   4.618
 8490W        W80915  10.915   0.499   2.300
 8491W        W80916  29.473  24.744  12.497
 8492W        W80917  34.792  42.351   0.459
 8493W        W80918  26.054  14.545  13.486
 8494W        W80919  34.619  20.649   3.710
 8495W        W80920  21.227  26.154  10.831
 8496W        W80921   5.311  23.970   1.819
 8497W        W80922  20.630  26.579  13.475
 8498W        W80923  17.239  27.367   3.837
 8499W        W80924  24.279  22.030   0.108
 8500W        W80925  12.220  26.571   3.183
 8501W        W80926   5.341  15.059   3.494
 8502W        W80927  13.120   4.299  13.309
 8503W        W80928  14.293  18.249  12.607
 8504W        W80929  35.100  14.160   4.570
 8505W        W80930  44.233  26.961   0.783
 8506W        W80931  43.497  19.943  12.455
 8507W        W80932  20.735  37.334  13.876
 8508W        W80933  33.036   5.956  14.777
 8509W        W80934  43.445  23.600   0.433
 8510W        W80935   7.441   8.781  11.832
 8511W        W80936  20.594  23.244  13.975
 8512W        W80937   7.125   2.806   2.845
 8513W        W80938  13.315  40.328  12.133
 8514W        W80939  20.983  10.672   5.052
 8515W        W80940  39.268   7.365   0.823
 8516W        W80941   0.220  24.430   1.327
 8517W        W80942  12.350  16.606   4.555
 8518W        W80943  18.015   1.461   2.794
 8519W        W80944  34.650  40.525   4.730
 8520W        W80945  11.510  42.998  11.670
 8521W        W80946  27.162  37.729   0.229
 8522W        W80947  10.713   0.245  10.967
 8523W        W80948  27.583  33.482   0.678
 8524W        W80949  34.906  40.474  11.935
 8525W        W80950  18.825  31.165   3.210
 8526W        W80951   7.177  42.107  14.751
 8527W        W80952  15.981  14.256   4.184
 8528W        W80953  33.602  40.792  14.959
 8529W        W80954  33.032   9.398   1.903
 8530W        W80955  18.149   5.803  14.752
 8531W        W80956   5.295  38.574  11.646
 8532W        W80957  33.441   1.529   3.091
 8533W        W80958  13.268  35.790  14.276
 8534W        W80959   3.574  16.551   3.284
 8535W        W80960  38.558  35.460  13.379
 8536W        W80961   8.887  20.162  13.116
 8537W        W80962  44.528  23.402   3.658
 8538W        W80963  28.514  15.034  11.554
 8539W        W80964  12.910  30.977   1.436
 8540W        W80965  16.154  26.963  10.722
 8541W        W80966  26.100  15.348  11.543
 8542W        W80967   7.261   8.052   0.500
 8543W        W80968  32.091  32.312  11.964
 8544W        W80969  13.693  22.484  13.455
 8545W        W80970  35.093  11.371   3.141
 8546W        W80971  38.648   1.908  12.374
 8547W        W80972  35.648  12.554   1.666
 8548W        W80973  12.103  23.027  12.996
 8549W        W80974  26.958  32.021  10.633
 8550W        W80975  13.342  31.142   3.579
 8551W        W80976  23.253  18.290   0.379
 8552W        W80977  44.418   2.669  11.911
 8553W        W80978  39.526  15.104  12.963
 8554W        W80979  36.757  31.582   3.731
 8555W        W80980  19.778  33.825   0.353
 8556W        W80981   1.474  29.959  14.899
 8557W        W80982  30.841   7.150   2.529
 8558W        W80983  12.545  14.603   2.916
 8559W        W80984  32.426  36.567   1.751
 8560W        W80985   5.289  44.047  13.536
 8561W        W80986  23.838  18.826   4.308
 8562W        W80987   6.485  32.376   1.923
 8563W        W80988  10.936   4.903   0.692
 8564W        W80989  14.536  25.653   0.421
 8565W        W80990  34.154  19.110  14.344
 8566W        W80991   6.341  37.450  10.699
 8567W        W80992  25.756  36.665  14.744
 8568W        W80993  35.587  40.141  12.571
 8569W        W80994  26.860  43.865   1.374
 8570W        W80995  36.292   4.795  11.020
 8571W        W80996  22.184  23.823  12.088
 8572W        W80997  32.107  20.561   2.348
 8573W        W80998   1.030  14.225   4.059
 8574W        W80999  18.492  29.163  10.194
 8575W        W81000  32.573  34.814   4.616
 8576W        W81001  37.929  27.005   0.435
 8577W        W81002  41.967  44.101   4.638
 8578W        W81003  16.748  39.354  11.187
 8579W        W81004   6.459  20.652  11.546
 8580W        W81005  25.002  28.951  12.021
 8581W        W81006  33.463   8.267  12.509
 8582W        W81007  41.924   9.313   4.127
 8583W        W81008  34.602  30.482  11.341
 8584W        W81009  26.268  14.106   2.439
 8585W        W81010  24.257  13.127  10.145
 8586W        W81011   9.594   4.882  12.072
 8587W        W81012  25.164  37.267   0.467
 8588W        W81013   6.375   4.350   0.852
 8589W        W81014  42.260  18.018   0.820
 8590W        W81015  39.286  22.615  10.658
 8591W        W81016  18.063   5.893   3.639
 8592W        W81017  38.727  37.521   2.596
 8593W        W81018   0.566  37.155  13.874
 8594W        W81019  38.432  38.323  14.898
 8595W        W81020  14.486  27.570   3.805
 8596W        W81021   6.252  12.533   0.832
 8597W        W81022  13.127  29.497   3.200
 8598W        W81023  22.067  24.740   0.434
 8599W        W81024   2.928  12.090   1.578
 8600W        W81025   4.917   3.939  10.502
 8601W        W81026   0.860  26.670  10.008
 8602W        W81027   4.597   9.438   0.844
 8603W        W81028  10.945  29.388   4.265
 8604W        W81029  38.666  34.060  11.632
 8605W        W81030  40.609  18.289  13.036
 8606W        W81031  39.352  21.139  14.005
 8607W        W81032  39.095  18.564  10.841
 8608W        W81033  30.412  21.310   2.619
 8609W        W81034   6.665  13.614  14.427
 8610W        W81035  10.434   6.193  11.921
 8611W        W81036   2.218   8.122   1.688
 8612W        W81037  34.447  34.109   2.118
 8613W        W81038  22.297  35.422   1.313
 8614W        W81039  23.204   6.633  11.941
 8615W        W81040  40.836   7.818  12.504
 8616W        W81041  18.954  17.118  10.946
 8617W        W81042  30.862  15.663   4.033
 8618W        W81043  26.489  41.718   1.888
 8619W        W81044   7.711  18.310  12.335
 8620W        W81045  24.121  17.683   4.250
 8621W        W81046  33.123  26.637  12.510
 8622W        W81047   3.343  24.323  12.969
 8623W        W81048   2.797  32.022   0.010
 8624W        W81049  31.117  44.521  13.892
 8625W        W81050  17.673  28.421   4.358
 8626W        W81051   3.052  18.031  11.384
 8627W        W81052  31.934   8.007  14.749
 8628W        W81053   5.406  34.866  11.120
 8629W        W81054   7.242  16.281  12.950
 8630W        W81055  44.877  19.222   1.652
 8631W        W81056   0.957   6.907   2.304
 8632W        W81057   5.991   7.856  10.734
 8633W        W81058  11.820  22.573  14.573
 8634W        W81059  28.730  25.697   4.371
 8635W        W81060   7.399  28.379  14.533
 8636W        W81061  13.160  23.143  12.550
 8637W        W81062   0.274  26.895   1.447
 8638W        W81063  11.138  33.044  14.465
 8639W        W81064  25.708  21.930  12.471
 8640W        W81065  44.481   3.773  13.883
 8641W        W81066  10.196  18.347  12.132
 8642W        W81067   4.756   7.224  11.141
 8643W        W81068   3.815   5.100  13.332
 8644W        W81069  43.088   5.472   2.338
 8645W        W81070  18.415  42.849   1.713
 8646W        W81071  10.659  27.087   3.356
 8647W        W81072   5.192  44.335   3.648
 8648W        W81073  31.894  39.576   2.430
 8649W        W81074  37.981   7.862  12.995
 8650W        W81075  39.681  17.144  11.566
 8651W        W81076   4.291  29.096  11.589
 8652W        W81077   5.181  41.842   4.811
 8653W        W81078   9.326  40.727  13.370
 8654W        W81079  39.119   5.654   3.701
 8655W        W81080  36.477  24.066   0.964
 8656W        W81081  25.477  12.210  11.770
 8657W        W81082  17.749  18.063   0.735
 8658W        W81083  28.463  21.085   3.638
 8659W        W81084   6.923  23.984   3.991
 8660W        W81085   7.060  17.172   1.844
 8661W        W81086  41.091  33.060  12.575
 8662W        W81087   8.836   9.461   4.025
 8663W        W81088  28.754   7.662   3.811
 8664W        W81089   5.920  21.369   2.614
 8665W        W81090   4.429  29.119  12.078
 8666W        W81091   6.372  35.338  13.847
 8667W        W81092  26.602  24.695   3.772
 8668W        W81093  27.514  33.792  13.381
 8669W        W81094  29.688  26.739   0.838
 8670W        W81095  28.942  44.948   0.499
 8671W        W81096   1.801  15.629  14.799
 8672W        W81097  38.361  13.800   0.010
 8673W        W81098  25.954  25.032  11.887
 8674W        W81099  21.525   9.932   3.183
 8675W        W81100   9.804   7.131  11.535
 8676W        W81101  35.672  30.436  11.037
 8677W        W81102  41.298   8.843  13.271
 8678W        W81103  12.366  42.002   2.361
 8679W        W81104  33.476  29.630  11.207
 8680W        W81105  32.070  43.262  12.642
 8681W        W81106  42.971  23.175  14.474
 8682W        W81107  34.597  13.193  11.916
 8683W        W81108   9.543   8.227   4.293
 8684W        W81109  34.249  21.858  11.970
 8685W        W81110  20.098   9.895  13.168
 8686W        W81111  26.603  15.602  12.194
 8687W        W81112  20.302   8.773  10.497
 8688W        W81113  20.586   7.219   4.894
 8689W        W81114  10.082   9.647  13.939
 8690W        W81115  26.189  22.195  10.699
 8691W        W81116   9.690  40.263   2.685
 8692W        W81117  33.381  29.569   1.659
 8693W        W81118   9.051  11.812   0.288
 8694W        W81119  42.381   3.036   3.803
 8695W        W81120  33.417  15.750   4.557
 8696W        W81121  16.856   3.845  12.944
 8697W        W81122  13.829  35.332  14.987
 8698W        W81123  27.629  17.676   4.025
 8699W        W81124  24.797   8.790  11.610
 8700W        W81125  16.656   3.579   0.655
 8701W        W81126  24.849   4.220  11.314
 8702W        W81127  31.124  38.809   4.257
 8703W        W81128  29.194  28.131  14.526
 8704W        W81129  36.018  42.788  11.177
 8705W        W81130  10.902   5.422  11.007
 8706W        W81131  15.288  28.096   2.796
 8707W        W81132   4.720  39.125   2.297
 8708W        W81133  17.579  25.985  14.864
 8709W        W81134  19.364  11.330  10.599
 8710W        W81135  33.561  18.496  13.002
 8711W        W81136  22.203  20.989   3.203
 8712W        W81137  43.453   3.302   5.015
 8713W        W81138  44.261  10.684   4.894
 8714W        W81139  36.582   9.047   2.177
 8715W        W81140   9.745  32.138  11.934
 8716W        W81141  16.299  38.158   2.746
 8717W        W81142  41.792  41.379   4.203
 8718W        W81143  12.228  11.353   2.595
 8719W        W81144  19.554  32.421  12.630
 8720W        W81145  44.894  15.542   0.526
 8721W        W81146  15.150  22.191  10.891
 8722W        W81147  20.586  17.993   2.006
 8723W        W81148  10.685   7.884  12.155
 8724W        W81149  38.637  27.242  14.135
 8725W        W81150  16.673  12.884   4.798
 8726W        W81151  27.903  34.011   0.289
 8727W        W81152  13.324  13.760   0.798
 8728W        W81153  31.755  44.326   4.651
 8729W        W81154   8.533   8.380  12.507
 8730W        W81155  27.435  27.203   4.371
 8731W        W81156  43.404   2.032   1.312
 8732W        W81157  25.578  24.259   4.377
 8733W        W81158  22.921  16.490  14.902
 8734W        W81159  18.561  27.681   4.053
 8735W        W81160  40.172  33.903   2.739
 8736W        W81161  26.438  17.550  12.344
 8737W        W81162  42.803  31.380   0.728
 8738W        W81163  34.566  12.224   3.055
 8739W        W81164   7.663  12.596  11.564
 8740W        W81165  25.763  15.784  11.766
 8741W        W81166  41.837  18.604  13.140
 8742W        W81167  10.152  32.787   2.750
 8743W        W81168   9.195   6.352  11.471
 8744W        W81169   2.466  18.292   0.982
 8745W        W81170  18.217  30.851  13.949
 8746W        W81171  41.388  14.840   4.114
 8747W        W81172   9.441   2.136  13.991
 8748W        W81173  23.780  20.984  12.026
 8749W        W81174  37.979  10.847  14.347
 8750W        W81175   2.329  20.057   4.548
 8751W        W81176  20.396   1.262  11.075
 8752W        W81177  43.350   8.529  14.528
 8753W        W81178  20.673  21.073  11.466
 8754W        W81179   9.584   3.777   3.150
 8755W        W81180   6.833  19.100   4.207
 8756W        W81181   4.793  28.660  14.805
 8757W        W81182  27.044  13.261  14.895
 8758W        W81183  30.050   8.947  14.329
 8759W        W81184   0.297  39.780  13.867
 8760W        W81185  31.516  25.567   4.197
 8761W        W81186  30.986  39.995  13.854
 8762W        W81187  31.927   2.383   4.965
 8763W        W81188  36.137   5.847   2.691
 8764W        W81189  40.352  16.313   2.316
 8765W        W81190   8.228  37.798  14.953
 8766W        W81191  27.731  36.506   4.923
 8767W        W81192  44.752  21.067   1.900
 8768W        W81193   9.144   4.526   3.655
 8769W        W81194  23.197  18.494  14.403
 8770W        W81195  34.884  30.830   4.616
 8771W        W81196  23.471  26.725   2.979
 8772W        W81197  44.939  12.656   0.726
 8773W        W81198   1.410  26.020  12.389
 8774W        W81199  14.373  31.655   4.358
 8775W        W81200   5.719   0.011   4.525
 8776W        W81201  37.243  42.068   2.004
 8777W        W81202  35.173  17.205   2.526
 8778W        W81203  25.558  32.714  13.120
 8779W        W81204  36.235  26.494   0.255
 8780W        W81205   5.884  41.921  11.270
 8781W        W81206   3.746  13.352  10.696
 8782W        W81207  14.852  38.284  12.497
 8783W        W81208  14.861  41.370  13.192
 8784W        W81209  25.724  17.870  14.005
 8785W        W81210  42.268  13.445  14.474
 8786W        W81211  15.875  10.453  13.388
 8787W        W81212  29.211  28.567   1.368
 8788W        W81213  22.193  23.868  14.874
 8789W        W81214   7.643  10.041  14.326
 8790W        W81215  31.468  32.480  10.963
 8791W        W81216   3.844   9.283   1.231
 8792W        W81217  27.205  25.462   3.889
 8793W        W81218  25.022  20.594  10.705
 8794W        W81219  12.239   7.499   1.512
 8795W        W81220  24.920  26.300   5.151
 8796W        W81221  24.003  35.844   0.072
 8797W        W81222   4.842   9.005   1.018
 8798W        W81223  25.955  17.182   1.390
 8799W        W81224  26.426  13.254  12.878
 8800W        W81225  39.746  23.422   2.350
 8801W        W81226  15.063  23.234  13.899
 8802W        W81227   9.758   4.923  10.704
 8803W        W81228  16.362   2.831  11.298
 8804W        W81229  32.150  12.596   0.634
 8805W        W81230  23.677  21.454   1.008
 8806W        W81231   2.846  23.424  12.006
 8807W        W81232  12.263  28.196  12.640
 8808W        W81233  32.694  31.453  10.476
 8809W        W81234  27.482  26.682  10.369
 8810W        W81235  26.723   5.016   2.702
 8811W        W81236  31.460  15.229   1.810
 8812W        W81237   8.187  39.409  14.587
 8813W        W81238  11.274   6.002  14.803
 8814W        W81239  35.024  40.838  13.027
 8815W        W81240  30.868  14.144   0.800
 8816W        W81241  15.348  21.248  11.164
 8817W        W81242   1.416   7.995  11.123
 8818W        W81243   1.794  40.573  13.663
 8819W        W81244  26.263  36.047  13.955
 8820W        W81245   1.889   2.971   3.176
 8821W        W81246  21.602  24.705  10.715
 8822W        W81247  37.837  23.090   4.932
 8823W        W81248  37.006  17.241  12.132
 8824W        W81249  38.578  37.462  10.215
 8825W        W81250  27.988  16.064   2.492
 8826W        W81251  13.870  12.878  11.602
 8827W        W81252   1.812  44.065   1.641
 8828W        W81253  15.385   0.915  10.691
 8829W        W81254  11.691  24.250   3.381
 8830W        W81255   0.300  28.230   9.846
 8831W        W81256   7.231  26.935  14.442
 8832W        W81257  18.508  12.860   2.279
 8833W        W81258   6.522  41.938   3.115
 8834W        W81259   6.849  13.401   0.259
 8835W        W81260  42.768  39.747   3.549
 8836W        W81261  39.526  35.278  13.433
 8837W        W81262   3.343  10.588  12.782
 8838W        W81263   5.058  30.367   0.372
 8839W        W81264  18.367  32.091  10.207
 8840W        W81265  32.933  39.777  11.482
 8841W        W81266  37.974  35.420  11.438
 8842W        W81267  22.608  13.360   4.602
 8843W        W81268  33.058  37.368   0.997
 8844W        W81269  33.952   3.404  14.357
 8845W        W81270  44.741  39.080   1.164
 8846W        W81271  12.321  21.225  14.071
 8847W        W81272  25.513   5.009  10.655
 8848W        W81273  25.021  40.328  14.305
 8849W        W81274  37.164  38.568   0.832
 8850W        W81275  10.546  14.274   3.845
 8851W        W81276  29.700  40.323  14.303
 8852W        W81277  31.371  11.924   1.327
 8853W        W81278  22.908  18.212  11.959
 8854W        W81279  18.815  26.948  10.443
 8855W        W81280  24.852  29.065   3.648
 8856W        W81281  19.360  18.349  14.345
 8857W        W81282   6.400  10.207  13.138
 8858W        W81283   1.403  25.700   1.412
 8859W        W81284   3.307   6.734   2.687
 8860W        W81285  44.772  35.162   4.734
 8861W        W81286  35.775  35.501   3.339
 8862W        W81287  34.921  10.613  11.558
 8863W        W81288  12.805  20.056   2.707
 8864W        W81289  42.500  37.835   4.120
 8865W        W81290  23.086  44.446   1.150
 8866W        W81291  33.962  37.051   4.396
 8867W        W81292  35.909  22.600  14.048
 8868W        W81293   2.696  29.853   4.315
 8869W        W81294   5.708   6.589  10.952
 8870W        W81295  18.061  17.238   2.769
 8871W        W81296  16.769  32.991  10.611
 8872W        W81297  36.924   5.322  10.941
 8873W        W81298  29.159  21.263   1.782
 8874W        W81299   6.811  11.245  13.538
 8875W        W81300  21.257  19.353  13.325
 8876W        W81301  29.379  43.083  10.220
 8877W        W81302  38.071  22.052  11.027
 8878W        W81303  28.095  34.093  11.940
 8879W        W81304  34.116  36.792  11.488
 8880W        W81305   0.803  43.668  14.677
 8881W        W81306  20.662  31.109  10.661
 8882W        W81307  14.604  31.957   1.808
 8883W        W81308   9.138  41.809   1.430
 8884W        W81309  20.984  36.969  13.512
 8885W        W81310  38.944  38.053   4.971
 8886W        W81311  38.539  29.316   4.567
 8887W        W81312  20.677  34.116   1.727
 8888W        W81313  44.747  15.329  13.971
 8889W        W81314  39.777   0.664   9.821
 8890W        W81315  32.051  13.187  11.924
 8891W        W81316  16.653  28.479  11.937
 8892W        W81317  26.648  21.467   3.420
 8893W        W81318  39.607  40.139   2.725
 8894W        W81319  29.866  18.041   2.822
 8895W        W81320  10.859  37.450   0.844
 8896W        W81321  27.535  39.030  13.203
 8897W        W81322   1.706   6.262  14.302
 8898W        W81323  16.156  15.526  13.041
 8899W        W81324  18.006  12.956  14.998
 8900W        W81325  37.384  16.587  13.395
 8901W        W81326  32.859  22.710   3.027
 8902W        W81327   0.621  17.606  14.489
 8903W        W81328  26.602   7.958   3.678
 8904W        W81329   1.741   5.512  13.375
 8905W        W81330  35.279   5.650  12.046
 8906W        W81331  36.558   4.794   0.770
 8907W        W81332  33.598   9.749   0.995
 8908W        W81333   7.291  39.230  11.561
 8909W        W81334  28.972  12.866  10.751
 8910W        W81335  39.426  19.318  11.320
 8911W        W81336  36.105  10.716   3.319
 8912W        W81337  27.932  25.163  14.753
 8913W        W81338  41.520   8.057  14.138
 8914W        W81339  15.592  17.335   0.410
 8915W        W81340   5.650  13.317   4.600
 8916W        W81341   7.853   7.241  14.512
 8917W        W81342  14.206   6.733  13.406
 8918W        W81343  27.530  25.905   3.164
 8919W        W81344   1.302  24.475   4.122
 8920W        W81345  18.921  43.017  13.504
 8921W        W81346  39.077  21.189  12.206
 8922W        W81347  27.377   2.970  12.703
 8923W        W81348  17.075  32.163  13.696
 8924W        W81349   1.833  12.400  11.252
 8925W        W81350  34.922  25.454   1.680
 8926W        W81351  43.808  30.352   3.368
 8927W        W81352  44.395  18.791  10.439
 8928W        W81353   4.287  25.512  10.411
 8929W        W81354  25.172  16.616   3.226
 8930W        W81355  44.633  38.429   1.410
 8931W        W81356  37.656   6.275  12.643
 8932W        W81357  30.007  32.596   5.540
 8933W        W81358  42.793  27.153  14.343
 8934W        W81359  25.490  11.651  14.447
 8935W        W81360  15.806  24.427   3.594
 8936W        W81361  15.045  19.505  11.114
 8937W        W81362  37.164  18.257   0.773
 8938W        W81363  12.339   0.298   4.256
 8939W        W81364  24.056   2.223   1.997
 8940W        W81365  44.269  11.987   0.184
 8941W        W81366  14.202  36.103   0.983
 8942W        W81367  30.025  16.685   4.470
 8943W        W81368  39.043  41.787  11.818
 8944W        W81369   5.454  12.673  14.698
 8945W        W81370  22.636  19.692   2.428
 8946W        W81371  41.730  27.693   0.749
 8947W        W81372  28.762  42.943  12.630
 8948W        W81373  33.577  15.327   4.298
 8949W        W81374  43.818  30.256  12.635
 8950W        W81375  10.277  10.334  12.100
 8951W        W81376   4.719  44.943  14.035
 8952W        W81377  11.404  10.746  11.580
 8953W        W81378   4.985  43.354  13.062
 8954W        W81379  16.675  15.610  13.341
 8955W        W81380   7.986  44.896   2.244
 8956W        W81381  26.963  42.302  13.590
 8957W        W81382  32.868   9.951  12.565
 8958W        W81383   4.713  38.405  11.369
 8959W        W81384  33.568  21.311   0.384
 8960W        W81385  30.645  39.944   2.910
 8961W        W81386  15.644  38.964   1.256
 8962W        W81387  12.862  12.819  13.937
 8963W        W81388  38.327  20.025   0.951
 8964W        W81389  21.108   8.396  13.107
 8965W        W81390  27.016  34.891   2.975
 8966W        W81391  15.681  38.462  14.887
 8967W        W81392  34.635  39.470  12.046
 8968W        W81393  17.805  33.343  14.205
 8969W        W81394  19.664  10.731   2.116
 8970W        W81395  34.853   8.456  14.004
 8971W        W81396  41.236  29.468   4.422
 8972W        W81397  36.258  36.823  12.838
 8973W        W81398  14.378  14.183   4.453
 8974W        W81399  32.670  18.850   5.113
 8975W        W81400  35.948  44.470  12.436
 8976W        W81401  28.723  24.711   0.685
 8977W        W81402   2.458  43.185   4.539
 8978W        W81403   5.421  22.999   0.439
 8979W        W81404  41.173   7.351   1.795
 8980W        W81405  31.205  35.370   1.656
 8981W        W81406  32.622  10.063   1.113
 8982W        W81407   1.761  19.008   0.929
 8983W        W81408  31.671  29.647   4.343
 8984W        W81409  27.590  14.273   4.056
 8985W        W81410   8.818  28.465  14.996
 8986W        W81411   6.891  35.814  14.341
 8987W        W81412  33.413  32.525  12.100
 8988W        W81413  38.440  18.716  14.307
 8989W        W81414  33.548   6.260  12.532
 8990W        W81415  34.173  31.528  12.050
 8991W        W81416   6.712  22.702  12.980
 8992W        W81417  10.191  32.425  10.496
 8993W        W81418  22.109  27.580  12.381
 8994W        W81419  42.701  15.216  10.696
 8995W        W81420  42.003  17.606   1.740
 8996W        W81421  15.251  26.472  14.287
 8997W        W81422  34.749  43.946   0.825
 8998W        W81423  43.507  43.160  10.973
 8999W        W81424  31.017  17.095  12.885
 9000W        W81425   6.515  37.415  11.439
 9001W        W81426  19.055   6.113   1.009
 9002W        W81427  11.645  19.224   4.821
 9003W        W81428  11.083  39.134   1.287
 9004W        W81429  43.828  32.592   2.699
 9005W        W81430  31.625  33.399  14.183
 9006W        W81431   1.981   5.019  10.997
 9007W        W81432  26.362  21.713  13.479
 9008W        W81433   2.983  20.683  13.081
 9009W        W81434  24.678  34.232   2.003
 9010W        W81435   3.010  18.068   2.847
 9011W        W81436  20.175  34.182  13.312
 9012W        W81437  26.571  29.147  11.531
 9013W        W81438  30.356   7.218  13.736
 9014W        W81439  11.412   0.663   1.397
 9015W        W81440  14.539  27.107  12.653
 9016W        W81441  43.947  33.903   3.373
 9017W        W81442  40.810   6.847  12.093
 9018W        W81443  26.628  36.114   3.217
 9019W        W81444   5.320  26.222  10.646
 9020W        W81445  42.191   1.956  11.375
 9021W        W81446   1.164  27.599  10.920
 9022W        W81447  40.277   5.787   4.542
 9023W        W81448  27.553  24.438  14.815
 9024W        W81449   5.112  27.962  13.046
 9025W        W81450  43.423  44.552  14.399
 9026W        W81451  21.094  31.045  11.402
 9027W        W81452  21.730  36.775  11.100
 9028W        W81453  30.400  41.528   2.310
 9029W        W81454  25.485  23.469   4.623
 9030W        W81455  37.111  39.905   0.303
 9031W        W81456  23.703  40.479   4.312
 9032W        W81457  10.881  12.885   2.668
 9033W        W81458  39.412  44.385   1.199
 9034W        W81459   3.724  25.606  13.576
 9035W        W81460  14.895  17.249   0.949
 9036W        W81461  13.201  12.392  10.725
 9037W        W81462  36.047  12.337  13.277
 9038W        W81463  32.735  39.501   2.718
 9039W        W81464  21.045  37.457  14.676
 9040W        W81465  23.139   0.320   1.245
 9041W        W81466  29.237  12.110  13.773
 9042W        W81467  43.900  30.714   0.220
 9043W        W81468  14.164  21.187   3.222
 9044W        W81469  28.041   7.685  11.113
 9045W        W81470  25.466  18.332   3.798
 9046W        W81471  13.759  24.638   2.576
 9047W        W81472  19.249  25.593  14.619
 9048W        W81473  38.326  11.500  10.879
 9049W        W81474  26.650   4.713  14.480
 9050W        W81475  44.137  30.696  10.399
 9051W        W81476  42.257   5.319  12.432
 9052W        W81477  43.064  42.329  14.919
 9053W        W81478  34.265  38.121  11.118
 9054W        W81479  13.297  36.551  14.996
 9055W        W81480   6.391  11.839   3.784
 9056W        W81481   3.736  43.969  13.756
 9057W        W81482  33.019   1.183   2.269
 9058W        W81483  14.744  41.392   2.180
 9059W        W81484  35.052  21.138  14.914
 9060W        W81485  14.690  39.425   2.882
 9061W        W81486   0.039  18.047  13.075
 9062W        W81487  23.252  28.337   0.632
 9063W        W81488  41.496  34.942  13.815
 9064W        W81489  23.038  44.008   4.342
 9065W        W81490   4.448   0.400  10.655
 9066W        W81491  20.581  43.144   1.864
 9067W        W81492  32.535  21.189   0.295
 9068W        W81493   1.391  12.657  11.050
 9069W        W81494  41.863   2.822  12.964
 9070W        W81495   1.011  44.312   4.600
 9071W        W81496   3.888   2.589  11.092
 9072W        W81497   4.371  42.078  11.102
 9073W        W81498   2.706  43.823  11.648
 9074W        W81499  43.817  41.899  11.610
 9075W        W81500  19.749  12.298   4.542
 9076W        W81501   7.058  43.041  12.303
 9077W        W81502  11.682  33.291  14.923
 9078W        W81503   0.701  14.700   0.058
 9079W        W81504  15.334  44.251  10.491
 9080W        W81505  25.374  11.818   0.805
 9081W        W81506   8.988  27.825  13.861
 9082W        W81507  38.997   2.256  11.552
 9083W        W81508  40.065  10.786   1.498
 9084W        W81509  28.165  34.099   0.768
 9085W        W81510  20.245  13.644  13.711
 9086W        W81511   2.326  31.497   0.261
 9087W        W81512  17.206  34.479  11.171
 9088W        W81513  41.827  24.713   1.180
 9089W        W81514  20.969  42.911   4.922
 9090W        W81515  32.463  33.173   2.560
 9091W        W81516  35.098  23.996  12.501
 9092W        W81517  36.117  11.733  10.586
 9093W        W81518  21.167  18.693   0.933
 9094W        W81519  26.537   1.256   4.153
 9095W        W81520   8.704   5.637  14.049
 9096W        W81521  18.177   3.155  12.024
 9097W        W81522  33.555   4.918  12.964
 9098W        W81523  44.294   9.963  11.952
 9099W        W81524  24.128  34.568   4.114
 9100W        W81525  18.096   2.553  11.168
 9101W        W81526  44.848  25.608  14.909
 9102W        W81527  16.339  36.070  12.827
 9103W        W81528   5.487   7.227  11.999
 9104W        W81529  19.285  34.428   4.526
 9105W        W81530   0.495  34.490   4.620
 9106W        W81531  40.059  29.198  10.732
 9107W        W81532  34.533  31.702   3.766
 9108W        W81533  30.019   4.688   4.119
 9109W        W81534  41.872  42.768  12.983
 9110W        W81535  36.535  35.343  13.885
 9111W        W81536  17.347   5.154  13.964
 9112W        W81537  38.881  11.204  13.797
 9113W        W81538   5.376  20.648  13.438
 9114W        W81539  32.056   9.055  13.377
 9115W        W81540  40.610  41.389   2.965
 9116W        W81541   7.103  10.751  11.492
 9117W        W81542  27.951   2.745   4.111
 9118W        W81543  27.921   8.828  13.798
 9119W        W81544  37.469  17.209   0.279
 9120W        W81545  23.515  38.296  12.942
 9121W        W81546  28.229  43.303   2.360
 9122W        W81547   1.411  37.354  13.364
 9123W        W81548  21.341  18.239  14.350
 9124W        W81549   4.638  26.151  11.887
 9125W        W81550   3.005  10.407   2.686
 9126W        W81551  21.742  15.170  11.551
 9127W        W81552  14.017  44.329  11.398
 9128W        W81553  33.198  10.712  11.581
 9129W        W81554  30.562   0.212   1.857
 9130W        W81555  11.649  11.961   4.105
 9131W        W81556   1.284  37.528   0.981
 9132W        W81557  32.781  20.983  11.419
 9133W        W81558  35.618  25.723   3.767
 9134W        W81559  34.906  32.647   2.278
 9135W        W81560  30.736  27.421  14.498
 9136W        W81561  26.848  40.957  12.553
 9137W        W81562   3.236  36.907   2.422
 9138W        W81563  40.791   1.628  14.419
 9139W        W81564  37.921  41.722  13.370
 9140W        W81565  23.268  43.968   0.822
 9141W        W81566   3.847  33.925  14.445
 9142W        W81567   2.855   8.890  10.629
 9143W        W81568  19.155  38.040  12.617
 9144W        W81569   4.770  30.834  11.868
 9145W        W81570  14.977  24.812   4.645
 9146W        W81571  26.928  12.805   3.623
 9147W        W81572   5.891   2.758   0.398
 9148W        W81573  22.648  40.383   1.662
 9149W        W81574  34.959  43.361   0.520
 9150W        W81575  21.277  38.534   2.865
 9151W        W81576  25.837  30.773  10.080
 9152W        W81577  41.795  32.570   1.681
 9153W        W81578   3.835  11.124  13.788
 9154W        W81579  29.436  30.903  13.508
 9155W        W81580  10.030  35.576   3.669
 9156W        W81581  30.602   0.657  10.679
 9157W        W81582  23.508  44.023  10.638
 9158W        W81583   9.623  20.760  12.994
 9159W        W81584  21.688   3.252  12.044
 9160W        W81585  21.590   7.177   4.601
 9161W        W81586  20.270  21.703  13.270
 9162W        W81587   5.800   4.383   2.824
 9163W        W81588  30.874  12.976  10.955
 9164W        W81589   6.461  21.700  14.935
 9165W        W81590   0.866  38.913  13.975
 9166W        W81591  40.132  26.952  10.982
 9167W        W81592  21.332  33.935  12.084
 9168W        W81593  16.038  40.866   3.053
 9169W        W81594  32.099  40.345  11.434
 9170W        W81595  39.444  18.481  11.629
 9171W        W81596  35.649   5.472   3.322
 9172W        W81597  40.850  39.255  11.503
 9173W        W81598  16.228  36.517   4.413
 9174W        W81599  20.132  30.982  11.238
 9175W        W81600   8.850  43.557   4.259
 9176W        W81601  34.600   3.811  13.086
 9177W        W81602  12.336  24.213   5.731
 9178W        W81603   4.670  25.017  12.293
 9179W        W81604  25.244   6.701  13.417
 9180W        W81605  19.446   7.723   0.979
 9181W        W81606  41.971  37.367   2.139
 9182W        W81607  12.166  10.160   1.842
 9183W        W81608  33.890   1.318  11.513
 9184W        W81609  31.767  31.902  12.604
 9185W        W81610   6.599  37.188   0.920
 9186W        W81611   8.927  37.019   3.227
 9187W        W81612  16.708   9.268   0.737
 9188W        W81613   5.550  25.553  10.854
 9189W        W81614  35.457  17.218  12.423
 9190W        W81615  37.367   2.637  13.089
 9191W        W81616  10.756  37.356   4.980
 9192W        W81617   0.443  42.879   2.707
 9193W        W81618  33.205  27.527   4.855
 9194W        W81619  28.892  10.289   0.817
 9195W        W81620  28.540   3.014  13.629
 9196W        W81621  35.439   2.833  12.916
 9197W        W81622  19.534   0.925  12.992
 9198W        W81623  22.439  26.064  11.349
 9199W        W81624   7.157  26.999   1.820
 9200W        W81625  17.563  43.949  12.049
 9201W        W81626  44.714  12.579   3.185
 9202W        W81627  37.378  23.195  12.077
 9203W        W81628  14.209  16.588   2.277
 9204W        W81629  20.615  42.773  12.183
 9205W        W81630  10.108  43.253   4.175
 9206W        W81631  32.067  29.144   1.403
 9207W        W81632  12.711  15.373   3.425
 9208W        W81633  18.820   6.614  12.034
 9209W        W81634  28.652  31.994   2.352
 9210W        W81635   5.958  26.467   3.826
 9211W        W81636   3.469  27.112  13.850
 9212W        W81637  22.178   5.378   1.369
 9213W        W81638  19.532  31.418  10.679
 9214W        W81639  18.829  42.521  13.431
 9215W        W81640   6.172  20.006   1.295
 9216W        W81641  34.286  35.089  13.489
 9217W        W81642   0.245   8.771  10.533
 9218W        W81643  29.385  33.620  12.885
 9219W        W81644  27.705  28.360  11.583
 9220W        W81645   1.070  26.169  12.747
 9221W        W81646   6.702  21.726  11.640
 9222W        W81647  37.621  13.126   2.656
 9223W        W81648  19.142  29.040  13.467
 9224W        W81649  20.261   8.174   2.837
 9225W        W81650   3.246  20.976  10.569
 9226W        W81651  11.584  38.936  13.966
 9227W        W81652  12.636  37.858  13.869
 9228W        W81653   7.979   6.060   2.419
 9229W        W81654  36.746  43.963   1.250
 9230W        W81655  43.179  17.847  12.142
 9231W        W81656   7.335  29.766  12.864
 9232W        W81657  38.824   0.765   1.334
 9233W        W81658  30.172   2.475   3.791
 9234W        W81659  21.020  25.043   3.763
 9235W        W81660  37.058  44.984   4.638
 9236W        W81661  43.539  24.381  10.231
 9237W        W81662  43.927  35.620   4.633
 9238W        W81663   0.762  20.300   4.681
 9239W        W81664  10.173  38.339  11.611
 9240W        W81665  21.808  16.846  13.674
 9241W        W81666  14.647  25.519   3.294
 9242W        W81667  31.954  21.838   2.929
 9243W        W81668  28.306  15.423  14.990
 9244W        W81669  37.480  43.682  11.960
 9245W        W81670  21.484  32.067   1.661
 9246W        W81671  41.700   6.304  13.453
 9247W        W81672  10.788  14.213  13.568
 9248W        W81673  32.523  25.152   4.778
 9249W        W81674  43.070   9.377  14.566
 9250W        W81675   3.124   8.754  12.033
 9251W        W81676  21.017  10.144   0.002
 9252W        W81677  17.248   5.640   0.204
 9253W        W81678  44.010   6.814  14.300
 9254W        W81679   6.444  42.834   4.671
 9255W        W81680  23.954  21.765  11.643
 9256W        W81681  23.741  35.913   0.994
 9257W        W81682  36.397   6.205  10.990
 9258W        W81683  38.873   6.207   1.878
 9259W        W81684  13.303   2.976   4.982
 9260W        W81685  44.943  13.565   0.172
 9261W        W81686  43.828   2.064  12.678
 9262W        W81687  36.396  42.257  14.322
 9263W        W81688   5.718  14.410  13.423
 9264W        W81689  25.656  33.471  13.643
 9265W        W81690   7.668   6.667  11.017
 9266W        W81691  39.723  28.117  12.946
 9267W        W81692   1.935  34.307  14.298
 9268W        W81693   5.835  36.121   3.676
 9269W        W81694  15.726  41.518   2.131
 9270W        W81695  16.289  17.030   4.503
 9271W        W81696  14.722   4.884  13.913
 9272W        W81697  44.869  28.936  14.423
 9273W        W81698   3.699   5.141   3.411
 9274W        W81699   3.034  24.089   4.983
 9275W        W81700  36.537  30.892  12.358
 9276W        W81701  18.127  41.578  14.892
 9277W        W81702  41.516   2.166   2.116
 9278W        W81703  33.014   3.829   4.618
 9279W        W81704  33.370  25.924   0.837
 9280W        W81705  27.677  22.135   1.822
 9281W        W81706  12.700  39.011   4.239
 9282W        W81707  13.073  43.038   3.898
 9283W        W81708   3.770  24.964  11.828
 9284W        W81709   4.332  32.837   0.985
 9285W        W81710  17.789  36.818   0.437
 9286W        W81711   3.498  28.021   2.681
 9287W        W81712  13.924  16.740  11.946
 9288W        W81713  35.650   1.336   1.802
 9289W        W81714  42.623  39.128   3.861
 9290W        W81715  28.621  20.653   4.831
 9291W        W81716  22.090  23.728   2.649
 9292W        W81717   8.673  26.236  10.775
 9293W        W81718  10.178   9.262  11.058
 9294W        W81719  17.860  32.635   2.875
 9295W        W81720  43.866  19.087  12.543
 9296W        W81721  26.519   7.389  13.568
 9297W        W81722  28.662  22.127   4.604
 9298W        W81723  38.321  11.221   0.023
 9299W        W81724  37.496  17.758  11.732
 9300W        W81725   9.074  10.778  11.752
 9301W        W81726   4.037  32.426   3.046
 9302W        W81727  36.041  34.419   2.689
 9303W        W81728   4.248   5.250   0.615
 9304W        W81729  32.498  23.417   4.776
 9305W        W81730  23.026  20.478  11.548
 9306W        W81731  12.828   0.926   2.256
 9307W        W81732   9.343  23.239   4.571
 9308W        W81733  12.266   0.710  14.229
 9309W        W81734  41.807  19.392   0.318
 9310W        W81735  19.347  35.053  11.179
 9311W        W81736  36.521   0.354  13.964
 9312W        W81737  33.675   3.212  13.952
 9313W        W81738  35.521   6.619   2.420
 9314W        W81739  28.175  28.561  11.524
 9315W        W81740  44.741  28.890  11.404
 9316W        W81741  17.545  22.805  12.481
 9317W        W81742   8.314  27.838  14.504
 9318W        W81743  11.391  34.750   1.909
 9319W        W81744  35.330  11.632   2.750
 9320W        W81745  36.236   8.910  13.434
 9321W        W81746  28.224  29.089   3.420
 9322W        W81747  25.718  41.797  13.501
 9323W        W81748  24.082  43.293  10.582
 9324W        W81749  38.528  36.564   0.315
 9325W        W81750  11.221  42.038   3.665
 9326W        W81751   7.630  33.429  13.058
 9327W        W81752  33.483  17.307   0.730
 9328W        W81753  17.285   5.227   0.504
 9329W        W81754   8.175  40.508   3.361
 9330W        W81755   8.798   2.203  13.376
 9331W        W81756  16.228  22.153   1.328
 9332W        W81757  11.875   7.185  10.537
 9333W        W81758  30.203  18.449   3.697
 9334W        W81759   1.970  29.039  13.945
 9335W        W81760  23.317  16.678  13.901
 9336W        W81761  42.436  19.590   0.404
 9337W        W81762   2.070   8.759  12.016
 9338W        W81763  13.387  17.098  13.883
 9339W        W81764  29.585   8.117  12.468
 9340W        W81765   8.489  42.017   4.747
 9341W        W81766   2.802  19.467   2.820
 9342W        W81767  28.510  23.921   1.233
 9343W        W81768  44.731  24.922  12.515
 9344W        W81769  35.344  11.859   3.210
 9345W        W81770  33.715  17.707   4.350
 9346W        W81771   7.930  41.052   2.183
 9347W        W81772  10.575  36.968  11.983
 9348W        W81773  21.626  31.467  14.025
 9349W        W81774   5.787  23.395  13.919
 9350W        W81775  32.403  26.967  13.547
 9351W        W81776  23.981  25.456   4.106
 9352W        W81777  32.425  19.617   2.468
 9353W        W81778  18.193  17.861   1.459
 9354W        W81779   9.383   6.663   4.130
 9355W        W81780   0.368   3.208   4.740
 9356W        W81781  12.831  37.523   1.369
 9357W        W81782  26.571   5.659  14.325
 9358W        W81783  19.238   0.006   4.148
 9359W        W81784  34.777  44.488   4.107
 9360W        W81785  37.834  22.797  10.792
 9361W        W81786  37.878  29.022   4.095
 9362W        W81787  29.094  10.101  14.445
 9363W        W81788  24.765  33.636  12.523
 9364W        W81789  24.445   6.089  13.365
 9365W        W81790  14.367  12.092  12.033
 9366W        W81791  28.245  23.396   2.866
 9367W        W81792  10.210  39.306   0.730
 9368W        W81793  33.114  39.356  10.537
 9369W        W81794   1.682  10.667  11.274
 9370W        W81795   0.473  20.221  14.875
 9371W        W81796  33.050  40.701   0.435
 9372W        W81797   2.227   1.805  14.901
 9373W        W81798  10.766  41.049  12.576
 9374W        W81799  20.099   1.785   1.443
 9375W        W81800  32.366  23.617  10.639
 9376W        W81801  17.383   8.573  12.915
 9377W        W81802   3.317  23.636   2.909
 9378W        W81803  15.359   1.712  11.942
 9379W        W81804  39.674  32.012   3.129
 9380W        W81805  26.842  36.399   0.205
 9381W        W81806  26.441  25.173   3.695
 9382W        W81807  24.105   0.744   4.153
 9383W        W81808  44.327  17.605  13.456
 9384W        W81809   9.799   1.985   3.533
 9385W        W81810  11.346  38.178   3.815
 9386W        W81811   7.835   5.096   2.726
 9387W        W81812  12.980  10.500  10.099
 9388W        W81813  32.761  39.272  13.790
 9389W        W81814  22.135  43.349  13.306
 9390W        W81815  32.803  28.428   2.851
 9391W        W81816   0.796  11.611  11.532
 9392W        W81817  19.687  27.616   2.465
 9393W        W81818  28.223  19.169   3.727
 9394W        W81819  25.325  18.197   2.690
 9395W        W81820  24.788   5.056   1.772
 9396W        W81821  32.738  26.038  11.920
 9397W        W81822  21.447  22.967  10.940
 9398W        W81823  43.658  13.283   3.477
 9399W        W81824  11.292  17.308  11.604
 9400W        W81825  44.758   6.510   2.839
 9401W        W81826   5.355  16.804   3.079
 9402W        W81827  42.866  29.149   4.385
 9403W        W81828  13.165   1.893   0.351
 9404W        W81829  19.153   8.778   1.874
 9405W        W81830  21.731  33.841  10.735
 9406W        W81831  36.073  42.589  12.479
 9407W        W81832   3.926  14.817   2.479
 9408W        W81833  37.388  27.471  13.395
 9409W        W81834  26.596  33.535   0.865
 9410W        W81835  24.740  42.570   1.872
 9411W        W81836  22.516  23.785   2.959
 9412W        W81837   8.387  31.145  10.748
 9413W        W81838  17.321  42.918  14.221
 9414W        W81839  21.482  38.650  14.455
 9415W        W81840  24.387  14.191  11.966
 9416W        W81841   8.931  14.856   1.420
 9417W        W81842  35.630  15.459   3.576
 9418W        W81843  38.406  29.950  12.993
 9419W        W81844  12.027  43.890  13.472
 9420W        W81845  30.882  23.571   2.793
 9421W        W81846  20.435   7.515  10.553
 9422W        W81847  36.215  43.739   4.044
 9423W        W81848  11.733  10.658  13.567
 9424W        W81849  38.910  27.519  11.257
 9425W        W81850   4.268  23.570   1.837
 9426W        W81851   4.811   0.039  10.689
 9427W        W81852  24.019  43.787  10.837
 9428W        W81853  29.656  10.793  10.667
 9429W        W81854   3.972  43.943  11.761
 9430W        W81855   5.331   3.491   3.088
 9431W        W81856  14.302  39.885   0.439
 9432W        W81857  33.906  24.569   4.769
 9433W        W81858  37.968   1.951   4.987
 9434W        W81859  23.406  39.627   2.403
 9435W        W81860  22.644  35.535  14.791
 9436W        W81861   9.359  31.635  12.962
 9437W        W81862  44.823  13.638   4.583
 9438W        W81863  17.652  16.250  10.874
 9439W        W81864  34.011  22.891   4.179
 9440W        W81865  16.639  18.618  11.535
 9441W        W81866  14.676   5.058  14.952
 9442W        W81867  17.365  25.937   4.573
 9443W        W81868   8.319  29.163   3.113
 9444W        W81869  37.643  24.248   3.103
 9445W        W81870  23.688  19.128   3.695
 9446W        W81871  40.416  18.024   4.053
 9447W        W81872  42.129   7.126  12.165
 9448W        W81873  22.971   5.847  14.145
 9449W        W81874  27.071  10.277   2.692
 9450W        W81875  12.726   8.121  10.943
 9451W        W81876   2.746   1.401  12.937
 9452W        W81877   9.324  43.359   1.709
 9453W        W81878   7.862  13.772  14.076
 9454W        W81879  14.766  39.933   4.113
 9455W        W81880  22.951  22.718  10.430
 9456W        W81881   1.448  31.669  12.136
 9457W        W81882  25.876   9.365  11.079
 9458W        W81883  20.813   3.475   3.723
 9459W        W81884  41.224  36.946  12.576
 9460W        W81885  30.480  29.355  11.288
 9461W        W81886   9.473   4.477   2.816
 9462W        W81887  11.605  39.608   4.176
 9463W        W81888  10.277  26.527  12.201
 9464W        W81889  20.598  18.184  12.878
 9465W        W81890  21.365  18.454  13.091
 9466W        W81891   2.006  34.873  13.566
 9467W        W81892   7.533   4.789   4.593
 9468W        W81893  16.296  25.381  14.974
 9469W        W81894  34.222  36.323   3.375
 9470W        W81895  30.938  28.016   4.614
 9471W        W81896  29.868  27.135   4.605
 9472W        W81897  39.497  13.298   3.002
 9473W        W81898  17.320   9.265   0.072
 9474W        W81899  40.025   7.980   2.071
 9475W        W81900   7.779  30.761   4.199
 9476W        W81901  34.026  35.170   2.251
 9477W        W81902  10.073  25.195   3.752
 9478W        W81903  11.962   5.352  12.050
 9479W        W81904  23.069   0.256  13.244
 9480W        W81905  30.351  31.663  11.009
 9481W        W81906  38.062   2.386  14.277
 9482W        W81907  16.302   8.373   0.734
 9483W        W81908  36.996  31.967  13.788
 9484W        W81909   4.754  37.058   3.538
 9485W        W81910  33.608  34.597  11.916
 9486W        W81911  37.022  11.705   4.048
 9487W        W81912   8.195   4.751  12.037
 9488W        W81913  21.040   3.407   4.192
 9489W        W81914  37.253  44.503   4.596
 9490W        W81915  23.149   5.770  10.583
 9491W        W81916  37.640   2.831   2.678
 9492W        W81917  34.182  44.693   1.043
 9493W        W81918  17.359  39.335   3.809
 9494W        W81919   7.793  43.426   4.671
 9495W        W81920   6.283  23.096   2.109
 9496W        W81921  29.029  21.171   0.743
 9497W        W81922  13.753  28.302   1.502
 9498W        W81923  11.218   9.883   0.922
 9499W        W81924  18.220   2.567  13.506
 9500W        W81925   3.995   2.870  12.447
 9501W        W81926  39.478  25.887   0.765
 9502W        W81927   3.101   8.301   0.021
 9503W        W81928  43.741  10.215  11.147
 9504W        W81929  24.990   8.231  10.903
 9505W        W81930   1.845  33.532   3.280
 9506W        W81931   7.850  34.885   3.598
 9507W        W81932  12.395  17.616  14.446
 9508W        W81933  44.866  22.203  13.380
 9509W        W81934  35.380  11.325   1.450
 9510W        W81935   4.274  43.730  10.292
 9511W        W81936  34.872  30.124  10.769
 9512W        W81937  16.205  24.626  14.174
 9513W        W81938  22.057   0.368  11.601
 9514W        W81939  29.493  44.279  11.909
 9515W        W81940  31.978  34.341  14.387
 9516W        W81941  30.442   1.686  10.587
 9517W        W81942  29.209  40.074   0.565
 9518W        W81943  28.135  34.335   4.170
 9519W        W81944  11.647  26.715  12.930
 9520W        W81945  38.851  15.804   1.675
 9521W        W81946  13.929  17.523   0.971
 9522W        W81947  31.412  18.693  12.391
 9523W        W81948  34.076  16.327   4.903
 9524W        W81949  42.859  30.768   2.180
 9525W        W81950  35.470   7.079  13.191
 9526W        W81951  11.120  36.353   4.475
 9527W        W81952  11.638  23.698   1.837
 9528W        W81953  26.505  26.760   1.764
 9529W        W81954  19.183  36.124   1.330
 9530W        W81955  44.082  37.504   1.927
 9531W        W81956   8.697  11.361   0.349
 9532W        W81957  40.961  30.415  11.687
 9533W        W81958   6.262  24.555   3.738
 9534W        W81959  29.275  36.100   3.879
 9535W        W81960   1.410  19.405   0.463
 9536W        W81961   7.814  14.774  12.892
 9537W        W81962  44.242   8.271  11.417
 9538W        W81963  35.149  39.901  11.135
 9539W        W81964   2.239  20.729  12.593
 9540W        W81965  29.436   5.942  11.114
 9541W        W81966   7.236  11.367   3.380
 9542W        W81967  26.736  32.961   2.024
 9543W        W81968  39.946  27.930  11.564
 9544W        W81969  43.292  19.384   1.328
 9545W        W81970  11.221  15.642  11.000
 9546W        W81971  25.445  12.119  12.283
 9547W        W81972  33.772  44.356   4.113
 9548W        W81973  37.280   4.871   2.156
 9549W        W81974  14.241  40.769   2.196
 9550W        W81975  42.249   2.421  11.570
 9551W        W81976  42.583  33.988  14.471
 9552W        W81977  22.650   6.291   0.387
 9553W        W81978  36.114  24.256  14.062
 9554W        W81979  22.656  31.484   3.583
 9555W        W81980  19.801  42.985   5.006
 9556W        W81981  27.040  35.955  12.422
 9557W        W81982  39.579   1.820  12.549
 9558W        W81983  31.688  40.225  13.245
 9559W        W81984  44.338  34.400   2.729
 9560W        W81985  36.423  20.329  12.505
 9561W        W81986   2.109   5.341  11.382
 9562W        W81987   6.697   9.131   1.563
 9563W        W81988  36.964  19.634  14.411
 9564W        W81989  21.633   5.425  14.978
 9565W        W81990  33.938  17.270   4.692
 9566W        W81991  12.232   1.735  11.422
 9567W        W81992  30.384  26.558   4.183
 9568W        W81993  21.670  36.379  10.608
 9569W        W81994  41.924   5.535  14.412
 9570W        W81995  31.338  29.927   3.489
 9571W        W81996  35.027   0.273   3.732
 9572W        W81997  27.100  24.988  10.459
 9573W        W81998   2.725  31.620  12.017
 9574W        W81999  25.170  40.641  10.759
 9575W        W82000  25.268  22.529   4.493
 9576W        W82001  44.457  42.900  14.181
 9577W        W82002   0.560  25.935   1.294
 9578W        W82003  42.864  44.272   3.211
 9579W        W82004  35.804  26.016  12.147
 9580W        W82005  18.670  39.572  13.533
 9581W        W82006   2.961  10.761  10.690
 9582W        W82007  36.593   2.811  14.578
 9583W        W82008  34.434  34.706  13.837
 9584W        W82009  11.917  13.280  14.759
 9585W        W82010   4.526  12.018   1.330
 9586W        W82011   3.913  10.692  10.983
 9587W        W82012  13.162  38.600   2.815
 9588W        W82013  22.302  17.043   3.356
 9589W        W82014  12.928   0.824  14.473
 9590W        W82015  17.406  21.694   4.902
 9591W        W82016  10.370  20.939   0.740
 9592W        W82017  28.442  20.683  11.121
 9593W        W82018  43.828  21.134   4.050
 9594W        W82019  35.600  12.065   2.785
 9595W        W82020  40.555  26.406   4.145
 9596W        W82021  39.035  22.838  13.961
 9597W        W82022   2.881  23.987  13.687
 9598W        W82023  26.112  22.247  11.208
 9599W        W82024  17.255  36.349  11.928
 9600W        W82025  35.874   2.228  13.496
 9601W        W82026  24.146  32.857  13.342
 9602W        W82027  24.522  20.968  13.111
 9603W        W82028  24.081  29.766  10.205
 9604W        W82029   3.495  40.548   1.465
 9605W        W82030   4.716   4.829  12.569
 9606W        W82031  32.679   8.155   2.448
 9607W        W82032  22.516  10.417  10.785
 9608W        W82033  32.909  22.120  13.109
 9609W        W82034  34.949  12.617   1.125
 9610W        W82035  36.304  26.398  14.522
 9611W        W82036  43.228  18.203   4.180
 9612W        W82037  12.842  30.099  10.705
 9613W        W82038  32.432  35.895   3.422
 9614W        W82039   0.720  30.186  11.572
 9615W        W82040  44.982  20.595   2.184
 9616W        W82041   1.248  23.504  14.002
 9617W        W82042  27.563   3.813  14.942
 9618W        W82043   7.147  33.105  14.759
 9619W        W82044  38.741  29.161  14.682
 9620W        W82045  28.431  36.874   0.996
 9621W        W82046  34.930  36.322  10.506
 9622W        W82047  11.705  36.567  12.118
 9623W        W82048  26.500  16.846  12.861
 9624W        W82049  20.528  44.994   3.465
 9625W        W82050   5.182  42.769  12.454
 9626W        W82051  18.688  29.698   2.281
 9627W        W82052  41.929   6.243   3.934
 9628W        W82053  41.618  16.238  13.092
 9629W        W82054  44.392   8.882   1.383
 9630W        W82055   9.733  42.388   4.987
 9631W        W82056  41.750  33.527   0.751
 9632W        W82057   1.391  19.233   1.929
 9633W        W82058  24.309  36.379  14.791
 9634W        W82059  12.337   2.986  11.547
 9635W        W82060  16.575  22.501   3.248
 9636W        W82061  28.689  39.332  14.698
 9637W        W82062   1.015   8.856  13.076
 9638W        W82063   7.357  38.945  11.125
 9639W        W82064  40.693  31.428   3.650
 9640W        W82065  19.151  10.718   4.636
 9641W        W82066  18.559   5.700   1.904
 9642W        W82067  20.023  17.859   3.759
 9643W        W82068   9.477  29.353  12.967
 9644W        W82069  24.203  10.318  11.944
 9645W        W82070   5.460   2.063  11.154
 9646W        W82071  21.903  33.348   1.749
 9647W        W82072   1.939  13.860   0.442
 9648W        W82073  11.607   2.768  14.831
 9649W        W82074   7.829  36.155   3.223
 9650W        W82075  26.278  33.183   4.036
 9651W        W82076  12.211  30.373  12.379
 9652W        W82077  15.635  11.839   4.196
 9653W        W82078  30.641   7.942   0.966
 9654W        W82079   0.965  29.942   2.731
 9655W        W82080  38.970   9.168   0.720
 9656W        W82081  11.721  20.538   4.301
 9657W        W82082  28.534   7.149   3.659
 9658W        W82083  17.254  44.352   1.929
 9659W        W82084  26.207   7.922  12.355
 9660W        W82085  39.008  33.439  14.831
 9661W        W82086  41.083  23.251  12.957
 9662W        W82087   9.553  22.313   1.299
 9663W        W82088  20.025  34.317  14.568
 9664W        W82089  32.743  42.954  10.710
 9665W        W82090  38.846  36.456   3.745
 9666W        W82091  32.549  21.530   1.374
 9667W        W82092  11.708  15.329  12.019
 9668W        W82093  23.140   7.150  12.729
 9669W        W82094   5.149  16.540  13.430
 9670W        W82095  42.091   8.951  11.535
 9671W        W82096   0.428  17.865   0.894
 9672W        W82097  25.176  18.131   4.491
 9673W        W82098  43.372   6.819  10.750
 9674W        W82099   0.980   9.782  13.934
 9675W        W82100   0.753  27.527   3.741
 9676W        W82101   6.367  27.420  13.427
 9677W        W82102   1.142  21.501   2.325
 9678W        W82103  35.910  34.013   1.776
 9679W        W82104  41.971  10.113   3.546
 9680W        W82105  43.649  39.028  14.657
 9681W        W82106  36.904  30.170  12.499
 9682W        W82107   7.804  13.129   0.781
 9683W        W82108  37.396  44.815   2.717
 9684W        W82109  32.847  43.762  12.094
 9685W        W82110  40.954   2.897   0.984
 9686W        W82111   3.403   0.335  14.900
 9687W        W82112  13.635  24.749  14.399
 9688W        W82113  39.927  15.768  10.643
 9689W        W82114  17.778  20.823   3.289
 9690W        W82115  10.667  44.462  13.125
 9691W        W82116  28.675  35.448  13.386
 9692W        W82117  31.907  41.764  13.859
 9693W        W82118  39.977  21.662   2.379
 9694W        W82119  19.651   3.480   1.016
 9695W        W82120  37.387  18.326   4.199
 9696W        W82121  32.844  16.063  10.526
 9697W        W82122  40.020   5.960  12.303
 9698W        W82123  43.333   1.508   3.339
 9699W        W82124   6.178  20.275  12.464
 9700W        W82125  14.955  10.265   5.041
 9701W        W82126  22.501  27.429   2.404
 9702W        W82127  14.811   1.093   0.390
 9703W        W82128  15.203  40.590   3.155
 9704W        W82129  30.482  10.321  12.111
 9705W        W82130  41.255  26.220  11.874
 9706W        W82131  28.027  42.903  11.973
 9707W        W82132  24.247  37.363   1.289
 9708W        W82133  23.605  17.768   4.286
 9709W        W82134  18.563   6.283  13.806
 9710W        W82135   0.120  25.616   4.029
 9711W        W82136  14.653  37.124  11.055
 9712W        W82137  38.258  16.439  11.136
 9713W        W82138  35.254   1.952   0.289
 9714W        W82139  13.698  27.584   3.192
 9715W        W82140  11.244  20.714   1.182
 9716W        W82141   7.369   7.149  14.309
 9717W        W82142  21.586  31.219   1.807
 9718W        W82143  36.358  17.491   0.072
 9719W        W82144   6.169  21.175   1.712
 9720W        W82145   3.871  32.963   1.296
 9721W        W82146  19.810  31.726   1.781
 9722W        W82147  44.298   1.046   1.186
 9723W        W82148  20.170  42.940   2.104
 9724W        W82149  40.946  33.195   0.335
 9725W        W82150  31.187  38.379   3.941
 9726W        W82151   0.306  38.539  13.503
 9727W        W82152  19.745  32.617   1.771
 9728W        W82153  17.600  29.675  12.082
 9729W        W82154  42.493  34.544   1.644
 9730W        W82155   2.879  15.669   3.902
 9731W        W82156  15.706   2.536   4.461
 9732W        W82157  20.827  17.800  11.582
 9733W        W82158  20.030   8.853  13.988
 9734W        W82159  37.849  44.831  13.769
 9735W        W82160  23.136   3.673   0.050
 9736W        W82161  24.184  25.730   4.516
 9737W        W82162  18.185   2.900   2.718
 9738W        W82163  36.583  12.176  13.356
 9739W        W82164  33.485  23.268   0.313
 9740W        W82165  19.588   0.209  10.638
 9741W        W82166  18.198  19.746  14.638
 9742W        W82167  13.717  19.983   0.859
 9743W        W82168   0.003  12.422   1.738
 9744W        W82169  33.514   3.508   3.308
 9745W        W82170  32.197   8.320   2.260
 9746W        W82171   0.291  41.433   2.979
 9747W        W82172  33.452  25.191  10.324
 9748W        W82173   1.795  32.054  13.908
 9749W        W82174  38.456  32.389   3.354
 9750W        W82175   4.710  11.906   3.264
 9751W        W82176   7.117   5.894  12.940
 9752W        W82177  17.630  41.795  12.624
 9753W        W82178  13.539  14.972  14.387
 9754W        W82179   8.307   6.369  13.098
 9755W        W82180  10.861  23.562  11.910
 9756W        W82181  29.901  12.666  13.015
 9757W        W82182  44.246  14.949   4.525
 9758W        W82183  36.138  21.704   4.193
 9759W        W82184   9.258   9.831   2.132
 9760W        W82185  16.207   2.979   1.868
 9761W        W82186   5.445  38.811  11.206
 9762W        W82187  11.203  42.350   1.652
 9763W        W82188  39.641   1.476  12.058
 9764W        W82189  33.894   6.301  13.845
 9765W        W82190  16.506  39.123   2.748
 9766W        W82191  39.865  42.400  14.480
 9767W        W82192  13.653   9.692   4.952
 9768W        W82193  13.887  19.299  13.038
 9769W        W82194  29.934  28.375   3.342
 9770W        W82195  39.070  23.101   4.808
 9771W        W82196  44.760  35.139  14.408
 9772W        W82197   8.355  11.191  13.362
 9773W        W82198  41.842  34.404   0.008
 9774W        W82199  44.657   2.759   3.218
 9775W        W82200  30.877   7.751   4.306
 9776W        W82201  28.459   1.030   4.521
 9777W        W82202  26.125  38.068   1.204
 9778W        W82203  12.298  24.046  10.166
 9779W        W82204  44.065  25.497  13.062
 9780W        W82205  30.383   1.894  12.593
 9781W        W82206  41.247   6.190  10.736
 9782W        W82207  42.423  18.259   1.266
 9783W        W82208   2.289  14.737  10.965
 9784W        W82209  12.534  38.938  11.513
 9785W        W82210  19.704  29.978  14.968
 9786W        W82211   6.260  42.079   0.084
 9787W        W82212  14.119   1.420   0.297
 9788W        W82213  44.794  41.341  12.600
 9789W        W82214  28.478   0.485   2.719
 9790W        W82215  12.196  18.287   2.740
 9791W        W82216  39.522  37.001   4.602
 9792W        W82217  23.624  41.425   4.189
 9793W        W82218  10.817   2.224   3.613
 9794W        W82219   6.183  34.076   1.291
 9795W        W82220  40.775  20.490  10.727
 9796W        W82221  11.277  11.869  10.667
 9797W        W82222   9.644  35.618   2.301
 9798W        W82223  26.972  42.900   4.211
 9799W        W82224  35.606  19.173   4.703
 9800W        W82225   3.006   1.876   2.159
 9801W        W82226  42.910  39.806   1.410
 9802W        W82227   0.462   8.102  11.130
 9803W        W82228  36.538  31.659  11.126
 9804W        W82229  35.347  25.370  12.475
 9805W        W82230  40.918  24.796  11.877
 9806W        W82231  27.653  44.923   1.731
 9807W        W82232  36.467  32.542  12.282
 9808W        W82233  42.535  34.015  10.692
 9809W        W82234  26.121  41.520   3.160
 9810W        W82235  44.251  34.187   1.196
 9811W        W82236   5.796   5.188   3.412
 9812W        W82237  16.811  11.473   0.892
 9813W        W82238  41.066  38.768   3.638
 9814W        W82239  28.501  16.267   1.020
 9815W        W82240   9.606   5.735  11.028
 9816W        W82241  28.054  24.627  10.410
 9817W        W82242   9.766   0.420  10.751
 9818W        W82243  39.967  41.016  13.743
 9819W        W82244  29.729  21.148  14.093
 9820W        W82245   9.810  38.197  13.855
 9821W        W82246   3.537   3.796   3.161
 9822W        W82247  18.428  25.870   1.849
 9823W        W82248  37.499  15.318  10.253
 9824W        W82249  30.338  29.849  11.178
 9825W        W82250  19.767  40.306  12.194
 9826W        W82251  31.851   0.950  14.956
 9827W        W82252  24.999  23.790  11.208
 9828W        W82253  15.806  43.331  12.909
 9829W        W82254  42.721   4.371  12.467
 9830W        W82255  40.243  32.199   0.804
 9831W        W82256  12.730  11.468   2.351
 9832W        W82257  26.510  33.535   4.848
 9833W        W82258  15.398  23.013  10.350
 9834W        W82259  18.593  16.646  14.789
 9835W        W82260  20.492  26.165  12.889
 9836W        W82261   6.939  14.134   0.562
 9837W        W82262   1.476  24.564  11.026
 9838W        W82263  10.024  14.268   2.385
 9839W        W82264  44.425  27.640  12.339
 9840W        W82265  40.898  12.212  11.559
 9841W        W82266  15.078  28.699   3.311
 9842W        W82267  25.524  27.539   3.664
 9843W        W82268  25.424   2.504  12.451
 9844W        W82269   1.876  25.191  10.943
 9845W        W82270   3.767  16.087   1.399
 9846W        W82271   9.281  27.761  14.297
 9847W        W82272  44.956  38.566  14.796
 9848W        W82273  26.885  21.701  13.628
 9849W        W82274   2.780  42.009   3.646
 9850W        W82275  29.501  35.989  10.902
 9851W        W82276  23.313  43.032  14.868
 9852W        W82277  31.094  43.106   3.437
 9853W        W82278   9.348   3.574   4.015
 9854W        W82279  22.531  42.726   1.437
 9855W        W82280  19.694   4.293  13.550
 9856W        W82281   8.246  41.755  12.998
 9857W        W82282  42.806  19.247   1.315
 9858W        W82283   4.809  16.137  13.384
 9859W        W82284  19.302  28.587   1.737
 9860W        W82285   5.184   1.575  10.451
 9861W        W82286  37.375  43.049   3.247
 9862W        W82287  26.481  12.314   1.487
 9863W        W82288  40.183   3.359   0.817
 9864W        W82289  17.070  41.211   1.211
 9865W        W82290   0.763  19.693   2.756
 9866W        W82291  25.186  14.354  14.302
 9867W        W82292  37.646   4.805  11.880
 9868W        W82293  27.845  27.358   1.058
 9869W        W82294  11.795  27.649  14.856
 9870W        W82295  37.403  43.949   9.911
 9871W        W82296  19.199  27.505  13.522
 9872W        W82297  43.745   1.134  13.888
 9873W        W82298  25.262   8.057  14.473
 9874W        W82299  26.048  42.266  13.477
 9875W        W82300   5.946   1.791   4.907
 9876W        W82301  17.109  24.506   3.262
 9877W        W82302  23.677   8.744   1.203
 9878W        W82303   2.946  21.717   4.083
 9879W        W82304  24.300  38.512  14.018
 9880W        W82305  11.088  41.900  13.819
 9881W        W82306  31.902  31.104   4.594
 9882W        W82307   9.826   6.308   2.540
 9883W        W82308  39.840   8.624   3.871
 9884W        W82309  17.334  26.517  13.371
 9885W        W82310  14.180  18.459   0.936
 9886W        W82311  38.953  28.118   3.649
 9887W        W82312  39.547  17.115  14.890
 9888W        W82313  14.182  40.204  13.783
 9889W        W82314  35.634  21.505   1.852
 9890W        W82315  32.590  42.323  14.806
 9891W        W82316  23.157   7.788   4.986
 9892W        W82317  26.685   1.720   3.212
 9893W        W82318   9.689  42.411  10.412
 9894W        W82319  29.141  23.507   3.121
 9895W        W82320   7.311  29.241  12.868
 9896W        W82321  22.647  19.665  14.427
 9897W        W82322  36.962  40.229  10.705
 9898W        W82323  11.923  14.775  12.008
 9899W        W82324   1.725  30.023  11.038
 9900W        W82325  32.670  41.657   0.413
 9901W        W82326  20.300   5.791   3.361
 9902W        W82327  29.812  16.103   2.883
 9903W        W82328  32.065   0.254   2.813
 9904W        W82329   1.026  19.579   3.229
 9905W        W82330  35.867   3.489  12.863
 9906W        W82331  20.317  41.129   1.616
 9907W        W82332  39.522  21.700   4.091
 9908W        W82333   0.366   8.974   2.002
 9909W        W82334   8.846  15.515  11.415
 9910W        W82335   5.429   4.907   0.288
 9911W        W82336  29.421  15.761   1.403
 9912W        W82337  34.527  12.111  14.896
 9913W        W82338  10.406  42.980   4.491
 9914W        W82339  43.314  37.957  14.071
 9915W        W82340  30.069  30.621  12.413
 9916W        W82341  43.376  43.076   1.225
 9917W        W82342  43.939  29.101  14.045
 9918W        W82343  24.923   8.725   3.121
 9919W        W82344  21.621  42.236   3.768
 9920W        W82345  19.632  41.782  11.704
 9921W        W82346   9.322   8.583   0.867
 9922W        W82347  21.212  12.871  14.953
 9923W        W82348  14.787  22.516  11.494
 9924W        W82349  41.830  13.520  11.217
 9925W        W82350  34.836  44.944  14.056
 9926W        W82351  38.279  29.016   3.176
 9927W        W82352   0.272  20.066  12.168
 9928W        W82353   1.550  29.407  12.108
 9929W        W82354   8.697  22.449  14.490
 9930W        W82355  28.630  17.830   2.784
 9931W        W82356   1.286  28.914   1.334
 9932W        W82357   6.808  40.757  11.638
 9933W        W82358  19.753  21.238   9.963
 9934W        W82359  36.376   0.354  13.042
 9935W        W82360  11.659  33.901   2.419
 9936W        W82361  35.969  31.547  10.914
 9937W        W82362   1.751  30.852  13.156
 9938W        W82363  32.017   1.505  13.612
 9939W        W82364  16.831  39.386   3.069
 9940W        W82365   2.669  19.720   4.880
 9941W        W82366  23.625  38.834  12.837
 9942W        W82367  23.719  17.056   0.717
 9943W        W82368   2.578  33.560  11.463
 9944W        W82369  22.143  12.881   1.344
 9945W        W82370  25.065  23.224  12.039
 9946W        W82371  36.892  25.640  10.279
 9947W        W82372  20.663  41.704  12.450
 9948W        W82373  10.761  27.189   1.859
 9949W        W82374  13.396   9.048   1.891
 9950W        W82375  33.417  29.059   1.692
 9951W        W82376  38.903  35.445  11.613
 9952W        W82377   4.342   1.322   3.771
 9953W        W82378   1.343   9.079  12.549
 9954W        W82379  26.701  20.043  11.479
 9955W        W82380   4.391   1.969  11.983
 9956W        W82381   4.582  36.804   4.096
 9957W        W82382  41.741  11.229   2.172
 9958W        W82383  21.064  44.270   3.176
 9959W        W82384   5.754  30.125  13.602
 9960W        W82385   6.169  29.826   1.796
 9961W        W82386   7.089   0.697  13.541
 9962W        W82387   3.869  27.148  14.757
 9963W        W82388  36.312  23.266  13.565
 9964W        W82389  22.094  27.719  14.259
 9965W        W82390  18.965  24.870  14.943
 9966W        W82391  12.765  22.256  12.831
 9967W        W82392   1.736  23.131  13.338
 9968W        W82393  28.405  27.134   4.546
 9969W        W82394  36.659   4.871   4.057
 9970W        W82395   7.113  33.170  13.319
 9971W        W82396  27.963  24.675   3.167
 9972W        W82397   6.608  44.529  11.618
 9973W        W82398  31.121  28.120  13.355
 9974W        W82399  15.593  43.799  12.006
 9975W        W82400  23.605  24.178  14.806
 9976W        W82401  44.832  40.829  13.449
 9977W        W82402   3.419   6.936  10.885
 9978W        W82403  17.074  29.562  10.131
 9979W        W82404  37.610  18.621  11.997
 9980W        W82405  30.550  22.296   4.562
 9981W        W82406   8.950   3.267  12.705
 9982W        W82407  44.405   3.761  10.684
 9983W        W82408  20.082  16.542   3.749
 9984W        W82409  13.707  23.893  12.396
 9985W        W82410  24.351  22.536   1.348
 9986W        W82411  19.776  17.484   1.973
 9987W        W82412   9.243  34.210  10.745
 9988W        W82413  30.533   2.303  11.591
 9989W        W82414  23.137  43.407   2.692
 9990W        W82415  18.296  33.436   3.605
 9991W        W82416  17.764  18.856  14.805
 9992W        W82417  35.183  34.758   1.306
 9993W        W82418  17.674  29.472   4.185
 9994W        W82419  33.397  28.266   2.694
 9995W        W82420   9.639  20.655  11.436
 9996W        W82421  43.583  19.598   2.867
 9997W        W82422  22.170  33.376  11.958
 9998W        W82423  44.847  40.889  11.239
 9999W        W82424  41.868   8.616  10.676
10000W        W82425  24.203  29.946   0.212
10001W        W82426  15.762  26.002  12.378
10002W        W82427  39.037  38.054   2.268
10003W        W82428   2.532   1.058  10.953
10004W        W82429  33.074  16.888   9.795
10005W        W82430   7.437  30.012   2.414
10006W        W82431  10.709   0.426   4.571
10007W        W82432  22.898   2.835   4.165
10008W        W82433  26.747  22.495   1.387
10009W        W82434   1.768  11.856   1.945
10010W        W82435  28.595  43.260   3.291
10011W        W82436  20.679  23.089  13.012
10012W        W82437  22.511  11.159  11.497
10013W        W82438   6.923  35.900   1.427
10014W        W82439  28.183  41.462   1.437
10015W        W82440  12.223  27.496   2.908
10016W        W82441   4.239  20.561  11.238
10017W        W82442  32.567  27.501   2.367
10018W        W82443  17.537  42.809  11.851
10019W        W82444  35.153  44.791  13.660
10020W        W82445  44.804  12.269   4.575
10021W        W82446  31.661   5.539   2.262
10022W        W82447  39.591   2.229   0.624
10023W        W82448  11.807  32.564  14.442
10024W        W82449   4.669   3.206   3.762
10025W        W82450  33.828  25.891  13.905
10026W        W82451  16.963   5.701  13.126
10027W        W82452   6.241  30.687  13.030
10028W        W82453  20.661  14.014  12.579
10029W        W82454   1.486  34.341  11.015
10030W        W82455  37.031  42.609  12.558
10031W        W82456  40.426  35.027   3.821
10032W        W82457  17.607  43.425   3.063
10033W        W82458  26.538  35.613  10.547
10034W        W82459  36.577  19.646   2.278
10035W        W82460  13.174   1.550   4.795
10036W        W82461   8.126  28.392  10.747
10037W        W82462   0.491  21.508  10.569
10038W        W82463  33.450  24.013   1.387
10039W        W82464   1.609  35.805  12.519
10040W        W82465  34.112   5.889  11.656
10041W        W82466  18.125  23.338   4.400
10042W        W82467  33.622   3.152  12.457
10043W        W82468  38.754  26.542   2.259
10044W        W82469   5.458   5.790   1.387
10045W        W82470   1.333  22.628   4.541
10046W        W82471  35.545  27.684   1.865
10047W        W82472  31.079   0.268  11.507
10048W        W82473  34.064  19.636  14.487
10049W        W82474   5.361  27.863   2.731
10050W        W82475   9.225  20.489  11.993
10051W        W82476  16.555  36.358   3.414
10052W        W82477  30.749  35.530   1.409
10053W        W82478   9.859  29.397  11.592
10054W        W82479  39.799  28.177   1.618
10055W        W82480  34.660  23.032   1.861
10056W        W82481  33.645   0.362   4.375
10057W        W82482   2.870  39.542   4.714
10058W        W82483   9.723  30.124   1.635
10059W        W82484   7.465   8.423   0.815
10060W        W82485   8.210   6.234  11.117
10061W        W82486  36.925  13.451  13.235
10062W        W82487  19.812   3.728  12.433
10063W        W82488  22.129  43.530   4.619
10064W        W82489  11.251  27.969   1.425
10065W        W82490  40.900  10.613  13.666
10066W        W82491  27.927  16.192   3.502
10067W        W82492  30.174  23.104   1.273
10068W        W82493  30.007  38.010  11.555
10069W        W82494  24.485  21.982   0.600
10070W        W82495   6.308   7.810   4.568
10071W        W82496  11.651  27.956   4.526
10072W        W82497  16.022   6.063   2.226
10073W        W82498  39.299  39.532  12.599
10074W        W82499  30.409  13.106   4.488
10075W        W82500  23.676  21.976   0.145
10076W        W82501  43.453  23.467  12.134
10077W        W82502  41.757  19.671  13.038
10078W        W82503  40.515  10.186   0.833
10079W        W82504  43.058  12.917   4.211
10080W        W82505  14.579   0.793   2.751
10081W        W82506   4.217  25.286   1.324
10082W        W82507   6.807  40.381  13.637
10083W        W82508  15.240   2.487   0.259
10084W        W82509  15.066  42.842  12.990
10085W        W82510  24.517   1.278  12.981
10086W        W82511  44.175  40.298  10.667
10087W        W82512  25.332  42.962   1.799
10088W        W82513   4.399  14.976  12.505
10089W        W82514  11.053  33.398  13.166
10090W        W82515  26.060   9.656   1.397
10091W        W82516  17.015  40.537   0.815
10092W        W82517  37.334  21.602  13.746
10093W        W82518  20.032  36.704  10.975
10094W        W82519  36.320  13.170  11.457
10095W        W82520  39.744  32.077   0.893
10096W        W82521  16.115  26.056  11.137
10097W        W82522  18.160  43.459   4.415
10098W        W82523  17.788   8.380   0.736
10099W        W82524  30.529  13.167  12.920
10100W        W82525  18.725  16.403   2.332
10101W        W82526  29.847  32.151  12.861
10102W        W82527  30.165  27.632  12.625
10103W        W82528  40.780  24.507  13.324
10104W        W82529  38.115  25.230   4.218
10105W        W82530  26.238   9.816   0.932
10106W        W82531  34.999  37.945  14.095
10107W        W82532  43.557  33.849   4.103
10108W        W82533  11.573  14.188   3.653
10109W        W82534  15.303  43.069   1.794
10110W        W82535   5.844  42.790   0.784
10111W        W82536   3.977  38.863  14.848
10112W        W82537  44.573  10.142   2.037
10113W        W82538  39.018   7.730  12.095
10114W        W82539  37.939  43.039  13.850
10115W        W82540   7.862  42.807  13.777
10116W        W82541   3.893  12.609  11.190
10117W        W82542   1.400  20.804  10.748
10118W        W82543  27.519  21.381   4.703
10119W        W82544  43.363   7.568  14.367
10120W        W82545  37.651  22.166   5.512
10121W        W82546  18.139   9.784   4.036
10122W        W82547   0.033   7.220  14.051
10123W        W82548  41.296   1.277   2.403
10124W        W82549   8.754  37.923  13.641
10125W        W82550  23.259  11.180  13.033
10126W        W82551  39.559  25.199  11.145
10127W        W82552  24.025   3.499  14.220
10128W        W82553  42.955   5.631  13.363
10129W        W82554  40.259  21.684   3.370
10130W        W82555  21.368  13.730   0.568
10131W        W82556   8.838  31.849  12.076
10132W        W82557  17.626   9.222  11.069
10133W        W82558  14.106  26.740  10.142
10134W        W82559  38.850   2.897  14.740
10135W        W82560  36.015  31.965   2.027
10136W        W82561  11.259  37.288   4.167
10137W        W82562  28.446  44.442  10.905
10138W        W82563  11.555  39.531  13.417
10139W        W82564  22.612  15.828   3.714
10140W        W82565  39.501  43.539  13.971
10141W        W82566  35.441  26.751   2.400
10142W        W82567   3.785  13.150  13.790
10143W        W82568  19.838  19.437   0.501
10144W        W82569   7.637  40.916  12.125
10145W        W82570   7.053   5.701  14.406
10146W        W82571  22.995  28.407  13.430
10147W        W82572   6.179  30.173  12.934
10148W        W82573   5.307  11.161  14.628
10149W        W82574   5.280   7.188   1.654
10150W        W82575  39.127  27.476   4.994
10151W        W82576   1.685   0.854   2.403
10152W        W82577  13.087  25.563  11.050
10153W        W82578  25.697  34.161   1.871
10154W        W82579  15.232  27.864  11.936
10155W        W82580  37.157  32.953   4.055
10156W        W82581   0.665  21.997   3.261
10157W        W82582  14.192  36.550  14.715
10158W        W82583  28.258  17.146  11.538
10159W        W82584   1.042  44.659   1.879
10160W        W82585   4.200  44.352  10.653
10161W        W82586  17.122  34.503   0.886
10162W        W82587  31.305  17.578  13.892
10163W        W82588  36.571   8.810   3.185
10164W        W82589  19.069  13.829  10.532
10165W        W82590  14.422  38.809   4.263
10166W        W82591  10.879   3.922  14.704
10167W        W82592   7.839  36.613   9.917
10168W        W82593   8.494  21.065   0.263
10169W        W82594  19.425   7.179   3.855
10170W        W82595  33.327  40.484  12.916
10171W        W82596   6.813  31.430   3.347
10172W        W82597  16.198  25.284  13.623
10173W        W82598  29.425  29.726  14.785
10174W        W82599   6.877  32.476  10.676
10175W        W82600   1.939  27.947  11.220
10176W        W82601  23.664   8.831   4.951
10177W        W82602  40.309   5.000   3.854
10178W        W82603  27.777  38.807  11.345
10179W        W82604  40.736   1.649  11.073
10180W        W82605   0.013  14.389  13.711
10181W        W82606  20.674  10.700  11.650
10182W        W82607  30.047  16.398  10.617
10183W        W82608   2.167  42.847   3.552
10184W        W82609  39.345  39.482  11.415
10185W        W82610  28.454  13.421  14.749
10186W        W82611  38.402   1.799   1.162
10187W        W82612  13.535   0.893  12.448
10188W        W82613   6.214  26.303   4.331
10189W        W82614   0.276  19.316   2.907
10190W        W82615  13.131  21.156   3.118
10191W        W82616  15.268  43.378  13.950
10192W        W82617  12.401  24.228  12.622
10193W        W82618   3.532  42.518  12.477
10194W        W82619  25.356  22.250   1.387
10195W        W82620   8.079   1.493   3.729
10196W        W82621  36.577   2.282   3.854
10197W        W82622  15.516  30.511   1.929
10198W        W82623  36.902  13.747  11.180
10199W        W82624  35.709   9.344  11.522
10200W        W82625   9.401  37.834  11.900
10201W        W82626  22.707  23.456  11.671
10202W        W82627  35.544  39.461  14.785
10203W        W82628  30.660  16.301  12.133
10204W        W82629  14.300  39.044  14.427
10205W        W82630  22.469  18.051  13.480
10206W        W82631   8.675  23.118   3.172
10207W        W82632  17.010  18.898   2.841
10208W        W82633  28.913  41.879  13.757
10209W        W82634  36.810  24.821   2.693
10210W        W82635  32.051  43.801   3.812
10211W        W82636  17.310  28.383  13.120
10212W        W82637  21.197  33.951  13.183
10213W        W82638  37.289  12.670  12.997
10214W        W82639  17.257  13.681  12.531
10215W        W82640  40.792   6.344  10.507
10216W        W82641   7.770  38.480  14.928
10217W        W82642   5.176   8.945  10.772
10218W        W82643  21.173   2.263  11.619
10219W        W82644  27.536   8.696  13.024
10220W        W82645  35.282  30.089  13.085
10221W        W82646  26.720  26.636   4.808
10222W        W82647  42.950  17.200   0.354
10223W        W82648  12.999  23.703  11.090
10224W        W82649  35.835   1.072  11.400
10225W        W82650  23.074  19.577  11.069
10226W        W82651  27.797  35.049   3.428
10227W        W82652  28.538  42.915  11.853
10228W        W82653  23.320  23.510   0.948
10229W        W82654  19.002  36.168  13.354
10230W        W82655  15.070  44.877   0.715
10231W        W82656   1.738  33.097  12.948
10232W        W82657   5.783   7.332   3.423
10233W        W82658  41.243  35.543  11.814
10234W        W82659  21.087   9.313  11.986
10235W        W82660  22.461  36.018   2.729
10236W        W82661  21.768  27.566   4.575
10237W        W82662   6.731  30.892  13.437
10238W        W82663  10.899   6.479   4.059
10239W        W82664   3.695  32.081   1.300
10240W        W82665   2.988  43.571  10.926
10241W        W82666   7.791   3.405   2.065
10242W        W82667  14.417  23.655  14.062
10243W        W82668  24.467  31.615  12.972
10244W        W82669  18.564   2.797   1.614
10245W        W82670  10.090  14.713  12.479
10246W        W82671  34.376   6.305  13.654
10247W        W82672   5.437  16.297   4.339
10248W        W82673  29.210  18.909  10.856
10249W        W82674   8.704  20.591  12.098
10250W        W82675  38.469  38.318   4.042
10251W        W82676  29.083  33.491  14.697
10252W        W82677  23.292   5.260  13.465
10253W        W82678  13.130  11.837   1.370
10254W        W82679  37.654  28.595   1.246
10255W        W82680   0.164  34.119   2.410
10256W        W82681  18.600  29.369  11.896
10257W        W82682  10.250  13.384  13.836
10258W        W82683  31.037  12.986   1.628
10259W        W82684  33.605   7.237  11.007
10260W        W82685  16.144  21.268   2.705
10261W        W82686  23.498  24.953   0.393
10262W        W82687  17.518   9.096  13.815
10263W        W82688   9.824  34.045   3.841
10264W        W82689  44.829  22.029   1.304
10265W        W82690  32.490  18.314   0.287
10266W        W82691  35.198  17.086  11.582
10267W        W82692   8.864  19.971   2.146
10268W        W82693   6.856  31.384  13.319
10269W        W82694  18.124  28.141  11.703
10270W        W82695  43.021  23.095  13.969
10271W        W82696   1.315   0.850   3.764
10272W        W82697   5.614  42.982   0.358
10273W        W82698  28.906  12.550   3.334
10274W        W82699  30.000  42.394  12.196
10275W        W82700  43.989  28.538  12.440
10276W        W82701  11.857  33.568   4.151
10277W        W82702  43.529  22.950  13.849
10278W        W82703  44.920  13.781  11.540
10279W        W82704   0.235  25.096   1.793
10280W        W82705  32.481  11.118  12.531
10281W        W82706   7.815  17.237   4.362
10282W        W82707   7.899  26.608   3.098
10283W        W82708  24.190  16.714   2.616
10284W        W82709  38.117  22.678   2.096
10285W        W82710  35.332  32.954   0.961
10286W        W82711  10.695   1.300   0.711
10287W        W82712  31.617  21.026   3.128
10288W        W82713  25.876  31.552  10.265
10289W        W82714  40.032  41.261  14.952
10290W        W82715   7.083  33.600   0.752
10291W        W82716  20.345   7.018  10.621
10292W        W82717  41.516  16.435   2.813
10293W        W82718  28.218  25.202  12.572
10294W        W82719  38.630  35.050  14.980
10295W        W82720  24.082   9.371  13.987
10296W        W82721  10.972  24.987  14.304
10297W        W82722   9.076  20.007  11.888
10298W        W82723  27.379  14.496   2.704
10299W        W82724  14.104  11.612  12.527
10300W        W82725  10.423  19.702  13.477
10301W        W82726  13.258  42.519   4.625
10302W        W82727  36.859  11.912   1.312
10303W        W82728   9.853   7.249  14.568
10304W        W82729   6.623   2.858  13.915
10305W        W82730  29.463   7.787  12.069
10306W        W82731   1.502  18.897   0.493
10307W        W82732  20.229  32.442   0.382
10308W        W82733  12.268  16.052  10.991
10309W        W82734  41.009  41.405  14.275
10310W        W82735  14.843  11.273   3.281
10311W        W82736  12.264   5.188   4.626
10312W        W82737  34.366  44.222  10.794
10313W        W82738   6.768  21.220   0.928
10314W        W82739  38.783  30.684  11.149
10315W        W82740  17.616   5.451   1.100
10316W        W82741  31.989  43.690   1.397
10317W        W82742  12.558  32.177   4.580
10318W        W82743   1.306   4.639   1.854
10319W        W82744  26.694   3.415  12.859
10320W        W82745  34.537  36.898   2.193
10321W        W82746   2.943   7.345  12.015
10322W        W82747  28.240  30.728  12.010
10323W        W82748  16.060  19.589  11.100
10324W        W82749  34.015  33.528   4.765
10325W        W82750  41.862  36.201   0.484
10326W        W82751  40.191  36.438  10.979
10327W        W82752  23.001  31.649   5.030
10328W        W82753   6.492  25.033  14.948
10329W        W82754  41.565  20.758   0.926
10330W        W82755  26.236  26.046   0.523
10331W        W82756  35.028  17.513  12.601
10332W        W82757  40.891   0.199   5.348
10333W        W82758   2.935  10.688  12.080
10334W        W82759   3.574  24.543  11.596
10335W        W82760  11.300  43.435  10.499
10336W        W82761  24.679  25.596   1.720
10337W        W82762  14.131  19.843  14.913
10338W        W82763  35.439  25.984   4.175
10339W        W82764   5.370   2.903   0.395
10340W        W82765  36.017   0.831   1.168
10341W        W82766  24.152   8.350   0.481
10342W        W82767  17.144  23.417  11.193
10343W        W82768  35.932   3.266  13.346
10344W        W82769  22.548  12.290  14.748
10345W        W82770  28.083  17.683   1.710
10346W        W82771  20.673   6.476   4.227
10347W        W82772   6.218  10.164  14.603
10348W        W82773  39.981  29.007   4.059
10349W        W82774  21.087  20.651   4.946
10350W        W82775  43.937  35.637  12.126
10351W        W82776  16.361   5.178   0.432
10352W        W82777  17.033  38.524  12.815
10353W        W82778   7.226  22.727  12.953
10354W        W82779  17.787  17.390  10.709
10355W        W82780  36.672  25.145  14.115
10356W        W82781  11.950  23.764  14.806
10357W        W82782  42.893  27.081   2.919
10358W        W82783  18.306  27.228   1.942
10359W        W82784   6.064  16.045  14.928
10360W        W82785  23.519  16.875  12.399
10361W        W82786   4.775   8.407   4.153
10362W        W82787  15.225  42.538   1.743
10363W        W82788  11.438   6.227   1.177
10364W        W82789  31.618  11.198  12.128
10365W        W82790  23.549  40.534  13.559
10366W        W82791  11.746  44.931   4.633
10367W        W82792  29.154   4.841  12.585
10368W        W82793  43.905   4.097   2.895
10369W        W82794  30.676  26.577   0.752
10370W        W82795  19.246  15.572   1.178
10371W        W82796  19.007  17.783  13.471
10372W        W82797  21.719   1.485  12.786
10373W        W82798  12.547   3.432   4.686
10374W        W82799  28.860  15.075  11.139
10375W        W82800   0.751   6.466  13.496
10376W        W82801  13.186  19.543   4.583
10377W        W82802   1.866   5.452   1.976
10378W        W82803  28.680  37.538  14.029
10379W        W82804  18.107  24.838   5.035
10380W        W82805  33.040  27.453   0.244
10381W        W82806  42.962  26.279   3.744
10382W        W82807  17.579  24.437   1.587
10383W        W82808   5.755  41.555  13.576
10384W        W82809  38.329  24.526   0.716
10385W        W82810  40.758  15.283   3.415
10386W        W82811  15.997   6.365   5.074
10387W        W82812  34.031   3.894   2.912
10388W        W82813  38.310  39.336  10.642
10389W        W82814   3.505  32.638  11.534
10390W        W82815  24.502   5.620  11.667
10391W        W82816  42.365  26.693  11.443
10392W        W82817  35.389  20.142  13.995
10393W        W82818   7.445   9.230   1.659
10394W        W82819   2.352   3.650  14.408
10395W        W82820  32.445  44.968  10.774
10396W        W82821  38.948  29.890   4.236
10397W        W82822   0.220  35.350   4.565
10398W        W82823   8.722  13.143   1.743
10399W        W82824  32.432   4.395  14.833
10400W        W82825  10.807   5.732   3.333
10401W        W82826  16.115  36.224   4.821
10402W        W82827   2.539  12.547   4.167
10403W        W82828  40.872  38.711  13.393
10404W        W82829  12.834   8.137   0.543
10405W        W82830   6.865  19.542  11.689
10406W        W82831  12.131  39.844  12.681
10407W        W82832  13.850  41.343  13.330
10408W        W82833  21.968  35.472   2.400
10409W        W82834  22.552   9.837  14.816
10410W        W82835  11.774  36.302  13.523
10411W        W82836  29.591  14.162  12.627
10412W        W82837  12.502  12.287   1.501
10413W        W82838  44.816  35.604  12.116
10414W        W82839  35.196  35.213   3.752
10415W        W82840  23.606   8.516  13.941
10416W        W82841  26.311  22.530   3.092
10417W        W82842  12.633   6.208   0.892
10418W        W82843  19.686  23.588  11.179
10419W        W82844  41.412   0.086   9.580
10420W        W82845   1.455  19.336   4.262
10421W        W82846  43.704   7.416   1.189
10422W        W82847  22.496   3.704   2.721
10423W        W82848  31.879  26.881  13.662
10424W        W82849  42.132   3.912  12.787
10425W        W82850  39.812  32.572   0.684
10426W        W82851  38.935  22.975  11.956
10427W        W82852   6.679  36.932  11.491
10428W        W82853  37.768  29.005  13.457
10429W        W82854  14.733  17.633  11.227
10430W        W82855  33.471  25.564  13.337
10431W        W82856  24.132  42.012  10.778
10432W        W82857  43.526  35.807   2.231
10433W        W82858  38.883  15.098   5.019
10434W        W82859  24.695  40.757   1.278
10435W        W82860  38.137  44.949  11.851
10436W        W82861  29.994  13.883   4.580
10437W        W82862  23.068  43.155   4.185
10438W        W82863   2.031  10.894  13.927
10439W        W82864  22.096  21.494  12.510
10440W        W82865  29.066  29.988  14.036
10441W        W82866   6.919  34.813  11.119
10442W        W82867   9.645  31.669  14.233
10443W        W82868  17.764  20.748   1.324
10444W        W82869  22.640  36.368   1.340
10445W        W82870  24.189  13.064  11.155
10446W        W82871  25.049   0.296   0.296
10447W        W82872  32.525  36.443  14.206
10448W        W82873  43.534   4.679  11.592
10449W        W82874  35.552  26.641   3.735
10450W        W82875  41.950   2.770   3.823
10451W        W82876  32.022   6.384   2.368
10452W        W82877  32.534  27.940  10.460
10453W        W82878  17.739  41.495  10.595
10454W        W82879  16.467  24.998   2.781
10455W        W82880  42.836  30.943   3.411
10456W        W82881  38.754  42.476   1.705
10457W        W82882   8.674  32.744  14.308
10458W        W82883  43.034  19.466  14.912
10459W        W82884  12.753  37.570  12.187
10460W        W82885   3.612  25.927  12.006
10461W        W82886  14.289   6.248   2.756
10462W        W82887  26.644  42.796  11.549
10463W        W82888  15.470  32.261   0.629
10464W        W82889  44.299  23.838  14.681
10465W        W82890  34.528  37.145   1.194
10466W        W82891  15.799  36.459   1.953
10467W        W82892  25.722  21.412  11.129
10468W        W82893   5.669   2.811  13.948
10469W        W82894  36.384   8.327   1.797
10470W        W82895  37.052  13.332  11.997
10471W        W82896   4.793  29.470   1.487
10472W        W82897  34.775   2.395   2.024
10473W        W82898  12.024   7.723   0.890
10474W        W82899   5.044  17.638  11.485
10475W        W82900  42.346  44.352  12.927
10476W        W82901  20.769  39.872  11.945
10477W        W82902   4.726  24.663  11.899
10478W        W82903  14.367   1.474  11.905
10479W        W82904  42.703   1.516   0.288
10480W        W82905  37.894   7.892  12.193
10481W        W82906  17.144  23.520   4.502
10482W        W82907  11.478   6.320   2.613
10483W        W82908   4.804  40.511   3.664
10484W        W82909  32.403  13.616  13.389
10485W        W82910  13.484  16.601   3.865
10486W        W82911  42.069  26.951   1.804
10487W        W82912  16.064  15.845   2.823
10488W        W82913  33.426  26.713  12.956
10489W        W82914  17.241   2.617   4.069
10490W        W82915  15.110  40.564  13.911
10491W        W82916  25.663  44.228   2.298
10492W        W82917  25.403  22.182   2.350
10493W        W82918   3.858  25.331  10.654
10494W        W82919  26.084  33.553   2.688
10495W        W82920  11.786   1.750   0.078
10496W        W82921   0.470  13.704  13.988
10497W        W82922  20.126   5.244  11.160
10498W        W82923  12.158  40.609   2.764
10499W        W82924  34.719  14.824  12.055
10500W        W82925  26.457  17.089   3.683
10501W        W82926  15.558  14.834  12.867
10502W        W82927  21.224  42.288  11.603
10503W        W82928  32.754  29.074   4.573
10504W        W82929  41.386  39.338  14.275
10505W        W82930  12.400  23.516  12.987
10506W        W82931   7.270  22.091  12.040
10507W        W82932  25.548  37.922  14.264
10508W        W82933  12.441  14.633   3.852
10509W        W82934  23.624  28.877  14.940
10510W        W82935  24.504   8.296  11.806
10511W        W82936  28.146   0.287  11.946
10512W        W82937  21.414  33.474  11.264
10513W        W82938  39.932   6.654  13.879
10514W        W82939  20.504   5.146   0.489
10515W        W82940   2.798  11.705  11.911
10516W        W82941  33.416  33.290   4.436
10517W        W82942  32.520   1.686  14.849
10518W        W82943   1.819  25.090   1.815
10519W        W82944  10.230  12.451   1.105
10520W        W82945  24.804  36.515   3.530
10521W        W82946  27.385  28.569   4.364
10522W        W82947  16.130   8.554  11.991
10523W        W82948  44.780  37.565   2.848
10524W        W82949  35.498  21.685  10.795
10525W        W82950  12.397  42.161  12.950
10526W        W82951  25.475   0.557   2.760
10527W        W82952  22.602  41.093   2.365
10528W        W82953  19.548  20.632   0.801
10529W        W82954  38.793  15.803   3.683
10530W        W82955  30.392  26.915  12.845
10531W        W82956  37.008  20.724   2.623
10532W        W82957  20.921  34.050   1.248
10533W        W82958  38.058  29.691  13.935
10534W        W82959  44.179  13.792   3.498
10535W        W82960  36.385   7.123   1.436
10536W        W82961  43.756  14.629   2.211
10537W        W82962  27.514   1.885  14.249
10538W        W82963  16.493  27.026   4.243
10539W        W82964  35.145  39.857   0.356
10540W        W82965  21.633   3.883  13.772
10541W        W82966  42.818  30.650  12.574
10542W        W82967   3.778  36.768  10.995
10543W        W82968  24.680  21.612  14.420
10544W        W82969   2.694  15.662  12.455
10545W        W82970  14.737  26.264  10.508
10546W        W82971   4.963  34.041  13.547
10547W        W82972  44.326  14.629  14.077
10548W        W82973  11.966  38.595  13.896
10549W        W82974  17.049  28.499  12.520
10550W        W82975  26.149  21.232  12.897
10551W        W82976  26.564   1.390   0.513
10552W        W82977  15.626  23.976  11.531
10553W        W82978  38.890  18.105  14.220
10554W        W82979  19.208  13.447  13.904
10555W        W82980  35.920  42.305   1.216
10556W        W82981  20.159  40.716   2.348
10557W        W82982  33.107  29.040   1.268
10558W        W82983  35.568  36.320  12.520
10559W        W82984  17.131  21.689  11.486
10560W        W82985  27.864  14.767  13.065
10561W        W82986  40.505  36.615  12.514
10562W        W82987  26.879  25.965   4.256
10563W        W82988  39.117  43.131  14.447
10564W        W82989  28.271  36.227   5.177
10565W        W82990  16.757   7.182   3.679
10566W        W82991  15.705  36.822  11.152
10567W        W82992  44.408  19.088   0.822
10568W        W82993  23.695  12.852  14.387
10569W        W82994   1.827  41.076  14.022
10570W        W82995  28.045  43.961   1.224
10571W        W82996  23.557  30.546   0.265
10572W        W82997  21.459  37.409  11.671
10573W        W82998  10.583  28.729  14.477
10574W        W82999  34.433  29.631  12.737
10575W        W83000  38.976  16.628  11.676
10576W        W83001  43.520   8.791  11.184
10577W        W83002  10.954  20.564  12.461
10578W        W83003  22.058  39.526   0.804
10579W        W83004  19.256  20.010  12.180
10580W        W83005   8.948  13.805  14.894
10581W        W83006   1.683  38.420   1.551
10582W        W83007   6.801  13.126   0.728
10583W        W83008  43.712  25.610   0.444
10584W        W83009  18.709  12.728  13.853
10585W        W83010  17.822  42.708  14.259
10586W        W83011  42.682  30.000   3.800
10587W        W83012  32.986  15.129  10.993
10588W        W83013  34.776  33.176  10.709
10589W        W83014  20.159   6.001  11.488
10590W        W83015   8.365   5.011   4.632
10591W        W83016  12.366  16.035  13.543
10592W        W83017  38.684  31.537  14.090
10593W        W83018  27.406   7.092   4.395
10594W        W83019  43.990  32.650   0.396
10595W        W83020  22.704  22.623   2.281
10596W        W83021   9.912   1.953  13.764
10597W        W83022  19.984  20.126  11.526
10598W        W83023   7.166  24.466  13.893
10599W        W83024  25.252   2.031  13.371
10600W        W83025  18.693  33.069   9.768
10601W        W83026  35.567  10.397  14.812
10602W        W83027  15.794   1.001  13.099
10603W        W83028  29.690  44.563  13.410
10604W        W83029  19.279  14.620   4.157
10605W        W83030  32.908  17.257   5.437
10606W        W83031   3.869   5.967   2.704
10607W        W83032  18.378  41.045   4.551
10608W        W83033  36.362  37.130  12.433
10609W        W83034  13.552  39.291   4.156
10610W        W83035  40.420  14.201  11.685
10611W        W83036  24.736  10.843  10.927
10612W        W83037  10.728  15.806   1.346
10613W        W83038  24.129  12.593   1.078
10614W        W83039  38.805  10.889   4.580
10615W        W83040  41.842   3.641   1.827
10616W        W83041  28.610  17.664  14.482
10617W        W83042  27.105  33.935  11.034
10618W        W83043  17.046   1.871  11.535
10619W        W83044   7.576   4.389   2.181
10620W        W83045   2.326  30.984  11.571
10621W        W83046  16.060  31.605  13.033
10622W        W83047   3.945  28.434  14.551
10623W        W83048   5.446  40.805   0.230
10624W        W83049  11.882  33.039   2.939
10625W        W83050  22.085   2.154  10.604
10626W        W83051  21.542   3.026  12.486
10627W        W83052  40.424   6.185  12.534
10628W        W83053  26.647  43.831  14.004
10629W        W83054  10.084   9.230   2.779
10630W        W83055   0.321  42.388   4.546
10631W        W83056  40.887  19.020   4.764
10632W        W83057  44.203  13.752   4.012
10633W        W83058   8.845  21.451   3.816
10634W        W83059  13.884  43.274  14.312
10635W        W83060  42.223   7.564   4.523
10636W        W83061  21.339  28.850  10.291
10637W        W83062  43.998   1.047  12.551
10638W        W83063  23.233  39.082   9.874
10639W        W83064   2.368  11.885   4.538
10640W        W83065  35.107  37.790  14.581
10641W        W83066  39.847  13.484  14.867
10642W        W83067  37.039   7.277   4.160
10643W        W83068  22.851  34.939  12.876
10644W        W83069  36.042   2.705   2.820
10645W        W83070  28.027  28.050  11.856
10646W        W83071   6.621  27.043   1.863
10647W        W83072   3.968   9.150  11.045
10648W        W83073  12.098  13.246   1.939
10649W        W83074   6.661  12.051   3.395
10650W        W83075  33.430  43.351  11.412
10651W        W83076  32.817  12.642   4.218
10652W        W83077   2.347  34.495   0.998
10653W        W83078   8.798  29.886   3.328
10654W        W83079  26.529  10.274   0.942
10655W        W83080  42.725  41.400   4.239
10656W        W83081  43.161  34.533   2.307
10657W        W83082  27.515  23.925  14.802
10658W        W83083  27.607  15.115   1.222
10659W        W83084  35.961  17.062  13.971
10660W        W83085  44.134  30.783   5.137
10661W        W83086  21.531  13.296   2.074
10662W        W83087   4.238  28.878   1.813
10663W        W83088  36.365  17.843  14.139
10664W        W83089   7.519   4.630  12.022
10665W        W83090  18.833  16.738   3.220
10666W        W83091  19.019   1.947   4.196
10667W        W83092   0.211  37.309  12.038
10668W        W83093  12.765  33.313   1.656
10669W        W83094  32.120  43.366  14.114
10670W        W83095  36.740  42.708   4.992
10671W        W83096   3.714  40.359  14.351
10672W        W83097  17.897  27.004   4.410
10673W        W83098  33.428  44.229   3.296
10674W        W83099  16.554  15.849   1.262
10675W        W83100  27.151   3.208   0.372
10676W        W83101   0.094   9.165   3.320
10677W        W83102   9.130   2.931   1.801
10678W        W83103  44.609  10.379   1.567
10679W        W83104  16.201   5.454   3.668
10680W        W83105  30.706   1.890   3.039
10681W        W83106  34.564  11.803  10.585
10682W        W83107  18.966  42.815  13.001
10683W        W83108  36.856  12.186  10.979
10684W        W83109   1.381  10.272  11.130
10685W        W83110  19.176  32.665   0.440
10686W        W83111  15.394  42.023  13.147
10687W        W83112  21.803  24.621   2.774
10688W        W83113  16.062  12.648  10.477
10689W        W83114   7.474   5.801   4.918
10690W        W83115  10.357  35.432  12.705
10691W        W83116  23.362  28.556   3.281
10692W        W83117  38.601  21.651  11.593
10693W        W83118  14.235  10.176  13.139
10694W        W83119  36.944  10.223  14.853
10695W        W83120   0.393  37.538  11.579
10696W        W83121  27.438  13.790   3.774
10697W        W83122   6.059  29.300   1.853
10698W        W83123  10.407  23.529  13.856
10699W        W83124   6.267  44.438  14.574
10700W        W83125  24.622  17.728  12.158
10701W        W83126  14.831  15.323   3.711
10702W        W83127  42.650  25.622   4.549
10703W        W83128   2.878  43.406  11.895
10704W        W83129   4.957  37.721   0.922
10705W        W83130  26.035  32.792   3.786
10706W        W83131  36.081  16.569   4.654
10707W        W83132   8.714   1.033   1.431
10708W        W83133  29.757  10.584  11.128
10709W        W83134  22.556  29.793   1.642
10710W        W83135   4.333  41.828   3.710
10711W        W83136  31.129  32.115  12.080
10712W        W83137  10.763  27.633   0.466
10713W        W83138  43.474  10.673  10.687
10714W        W83139  33.939   2.247   2.317
10715W        W83140   1.230  37.650  12.061
10716W        W83141   7.910  37.628  14.028
10717W        W83142   3.312   8.229   3.149
10718W        W83143  25.189  20.799  11.152
10719W        W83144  17.661   8.606   4.147
10720W        W83145  19.355  13.062  11.109
10721W        W83146  42.447  31.586  12.809
10722W        W83147  11.019  23.218   4.570
10723W        W83148   7.250   6.373   4.134
10724W        W83149  33.503   1.990   2.209
10725W        W83150   0.452   0.084  13.939
10726W        W83151  32.390  29.027  14.752
10727W        W83152  17.351  39.118   1.893
10728W        W83153  30.990  22.773   3.107
10729W        W83154  38.884  34.068  11.175
10730W        W83155   7.406   9.392   4.303
10731W        W83156  30.162  19.019   2.061
10732W        W83157  16.221  37.938  13.134
10733W        W83158  44.364  40.571   2.610
10734W        W83159   1.252   5.837  12.494
10735W        W83160  43.535  27.776  12.269
10736W        W83161  36.048   1.507  11.603
10737W        W83162  19.368  12.901   2.775
10738W        W83163  38.419  11.755  13.363
10739W        W83164  24.224  19.988  11.218
10740W        W83165  25.492  13.682   0.364
10741W        W83166  33.661  12.836  10.589
10742W        W83167   6.975   8.446   2.459
10743W        W83168  31.887  22.724  13.910
10744W        W83169  22.197  17.241  12.791
10745W        W83170  17.510  33.375   0.374
10746W        W83171  35.383   5.669   3.719
10747W        W83172  12.023  29.196  11.599
10748W        W83173  40.007  11.321   2.748
10749W        W83174  22.015  17.292  13.790
10750W        W83175   8.037  16.797  11.300
10751W        W83176  10.340  44.022   2.842
10752W        W83177  41.498  44.896  13.666
10753W        W83178  18.127  20.681  14.279
10754W        W83179  28.845   5.355   2.213
10755W        W83180   3.051   0.411   1.301
10756W        W83181  30.018  37.130  13.780
10757W        W83182   0.492  27.915   0.838
10758W        W83183  19.926   2.882   3.702
10759W        W83184  27.938  43.259  14.220
10760W        W83185  25.078  15.665   1.788
10761W        W83186   5.356  32.694  10.612
10762W        W83187   9.898  14.915   2.739
10763W        W83188  24.520  26.097   2.452
10764W        W83189  40.358  23.024   4.203
10765W        W83190  33.604  15.160  10.622
10766W        W83191   7.588   8.181  12.530
10767W        W83192  28.096  16.487   0.223
10768W        W83193  37.532  36.062  13.746
10769W        W83194  21.934  33.577  13.555
10770W        W83195  41.216  36.290  14.282
10771W        W83196  22.832  26.994   0.729
10772W        W83197   4.380  13.528   0.233
10773W        W83198  20.943  10.079   4.611
10774W        W83199   1.125  17.462  14.502
10775W        W83200   5.298  35.023  12.604
10776W        W83201  41.376  19.646  12.138
10777W        W83202  32.549  11.814  10.560
10778W        W83203  12.325  42.004   0.235
10779W        W83204   6.787  16.560   3.146
10780W        W83205  18.077  26.572   4.652
10781W        W83206  16.623   7.779   1.916
10782W        W83207  19.123  12.668   0.882
10783W        W83208  26.042  22.040   4.506
10784W        W83209   6.936   1.960   3.684
10785W        W83210  37.050  30.264   2.748
10786W        W83211  10.343  42.339  11.931
10787W        W83212  28.206   6.679   0.255
10788W        W83213   3.879  28.953  13.882
10789W        W83214  33.040   4.841   2.176
10790W        W83215   6.879   8.253  11.197
10791W        W83216  12.264  35.215   1.009
10792W        W83217   0.471  32.150   4.082
10793W        W83218   9.399  17.812  10.489
10794W        W83219  17.058  31.390  10.368
10795W        W83220  17.772  35.624  13.985
10796W        W83221   0.677  21.562   0.319
10797W        W83222  39.341  10.159   1.294
10798W        W83223  10.603  18.432   2.393
10799W        W83224  20.717  20.815   1.483
10800W        W83225  18.199   0.738   0.888
10801W        W83226  14.433   1.771   4.675
10802W        W83227   0.837   4.679  14.679
10803W        W83228  19.493  24.264   5.013
10804W        W83229   3.808   6.959   4.360
10805W        W83230   7.312  39.633  14.430
10806W        W83231   5.528  33.636  10.527
10807W        W83232  28.538  15.875  12.902
10808W        W83233  29.410  25.140  10.296
10809W        W83234  26.542  40.771  12.929
10810W        W83235  25.594  36.963   3.160
10811W        W83236  27.176  33.996  11.538
10812W        W83237   6.488   5.227  11.581
10813W        W83238  40.982  10.715   1.270
10814W        W83239  12.259  29.238  13.505
10815W        W83240  24.448  29.689  10.572
10816W        W83241  22.723  32.682   2.322
10817W        W83242  22.077  34.849  14.588
10818W        W83243  44.363  20.547  13.374
10819W        W83244  43.447  42.418   4.610
10820W        W83245  27.862  44.356  13.979
10821W        W83246  22.075   8.149  11.116
10822W        W83247  35.477  15.726  13.523
10823W        W83248  14.102  13.243   0.416
10824W        W83249  18.325  28.966  13.011
10825W        W83250  27.300  44.232  12.234
10826W        W83251  43.255   3.363  14.734
10827W        W83252   0.926  28.058   4.731
10828W        W83253  15.342  18.530   4.075
10829W        W83254  23.700   9.235   4.638
10830W        W83255  26.871  17.648   0.436
10831W        W83256  39.958  37.591   1.478
10832W        W83257  44.461  38.557   4.570
10833W        W83258   8.823  12.911  13.355
10834W        W83259  37.145  41.373  12.915
10835W        W83260  23.183  19.610   4.145
10836W        W83261  35.933  33.997   4.597
10837W        W83262  19.799  41.551   4.644
10838W        W83263   0.225  16.669  11.193
10839W        W83264   8.222  18.643   3.266
10840W        W83265  29.459   5.973  13.035
10841W        W83266  41.845  27.911   2.714
10842W        W83267  12.245  43.309   0.087
10843W        W83268  24.526  39.460  14.660
10844W        W83269  27.455  17.124  14.771
10845W        W83270   9.169  38.090  14.465
10846W        W83271  42.126   7.892  14.796
10847W        W83272  18.020  43.409  12.964
10848W        W83273   2.671  18.646  14.575
10849W        W83274  17.557   9.786  13.964
10850W        W83275  13.741  11.202  13.951
10851W        W83276  19.527   5.814  11.722
10852W        W83277   5.533   7.433  14.593
10853W        W83278   9.309  16.508  13.118
10854W        W83279  33.372  15.277  14.352
10855W        W83280  44.933  41.413  14.077
10856W        W83281  31.640  15.626   2.794
10857W        W83282  25.068   2.740  12.837
10858W        W83283  21.827  12.549   1.944
10859W        W83284   0.921  33.202   1.950
10860W        W83285  42.450  44.134  14.351
10861W        W83286  32.392  32.012  13.540
10862W        W83287  10.281  26.953  13.118
10863W        W83288  25.272  20.939   0.447
10864W        W83289  33.910  27.643   3.343
10865W        W83290   7.193  15.731   2.453
10866W        W83291  11.676  36.307   0.242
10867W        W83292  20.246   2.821   1.946
10868W        W83293  31.428  44.047  13.976
10869W        W83294  18.748  28.416  10.709
10870W        W83295  28.517  34.914  12.661
10871W        W83296  37.008  10.398   0.330
10872W        W83297  24.282  32.993   0.297
10873W        W83298   8.044  32.236  13.466
10874W        W83299   5.264  38.386  14.901
10875W        W83300  39.914   0.320  13.839
10876W        W83301   1.212  20.815   3.936
10877W        W83302  24.159   7.958  13.448
10878W        W83303  35.504  21.153   3.886
10879W        W83304  29.491   1.785   4.166
10880W        W83305   7.252  29.015  13.328
10881W        W83306  43.772   5.123  11.489
10882W        W83307  24.548  40.928   4.346
10883W        W83308   8.256   4.143   2.162
10884W        W83309  32.447  11.092   0.249
10885W        W83310   1.414  42.028  10.690
10886W        W83311   0.348   8.909  14.360
10887W        W83312   7.927  19.192  10.625
10888W        W83313   7.637  19.320  14.450
10889W        W83314  22.712  16.294  10.694
10890W        W83315   9.232  29.701   2.302
10891W        W83316  39.765  26.622   4.027
10892W        W83317  28.750  32.553  10.684
10893W        W83318   0.714  14.768   1.855
10894W        W83319  13.744  26.786  14.844
10895W        W83320  18.737   0.724  12.476
10896W        W83321   0.555  30.543   3.354
10897W        W83322  41.387   3.336   1.756
10898W        W83323   4.052  42.579  12.367
10899W        W83324  12.850  39.924  11.414
10900W        W83325   6.905  12.274  13.446
10901W        W83326  34.909  40.426   3.664
10902W        W83327  25.240   4.732   1.798
10903W        W83328   0.732   7.876  10.641
10904W        W83329   2.266   4.390   0.960
10905W        W83330   8.726  22.859  11.288
10906W        W83331  21.288   4.647  11.987
10907W        W83332  16.541  37.330   2.756
10908W        W83333  28.955  15.753   3.159
10909W        W83334  12.868  14.135   4.974
10910W        W83335  25.290  29.525   2.382
10911W        W83336  18.632  10.258   3.409
10912W        W83337  17.834  16.819   4.632
10913W        W83338  25.936  23.128  11.072
10914W        W83339  42.379  31.541  14.069
10915W        W83340  24.076  43.688  11.874
10916W        W83341   8.691  20.284   4.080
10917W        W83342  10.809  14.841   2.587
10918W        W83343  13.406   1.482   3.796
10919W        W83344  43.045  21.183  11.502
10920W        W83345   5.286  29.879  10.488
10921W        W83346   7.442  16.772  13.027
10922W        W83347  14.915  26.723   1.362
10923W        W83348   6.733  34.219   5.057
10924W        W83349  18.244  28.534   1.892
10925W        W83350  35.993  30.520   0.941
10926W        W83351  27.135  31.974  13.543
10927W        W83352  38.365  14.189   2.486
10928W        W83353  28.945  44.314   2.586
10929W        W83354  23.770  34.426   0.985
10930W        W83355  41.599  28.103   4.346
10931W        W83356  17.584  30.200   1.328
10932W        W83357  12.920  38.431  11.646
10933W        W83358  10.110   1.399   2.931
10934W        W83359  40.803  26.970   0.175
10935W        W83360  29.387  42.965   4.163
10936W        W83361  13.568   3.488   1.860
10937W        W83362  12.765  44.427   2.402
10938W        W83363   5.807  42.392  14.705
10939W        W83364   0.550  42.375  14.370
10940W        W83365  14.790   5.329   1.962
10941W        W83366  28.050   8.349   3.664
10942W        W83367  14.035   8.908  13.752
10943W        W83368  21.154  31.135   1.227
10944W        W83369  30.450  14.122   1.802
10945W        W83370   0.213  11.447   2.992
10946W        W83371  28.475  38.991  10.650
10947W        W83372  12.950  23.299  14.036
10948W        W83373   0.755  25.245  12.607
10949W        W83374  30.886   9.402  11.027
10950W        W83375  40.975   6.916  14.485
10951W        W83376  25.089   6.178   4.726
10952W        W83377  12.255  29.868  12.265
10953W        W83378  31.949  24.187  14.443
10954W        W83379   7.403  12.400   2.859
10955W        W83380  10.675   8.349  11.936
10956W        W83381   2.745  33.335   0.898
10957W        W83382  22.606  37.730  12.388
10958W        W83383  39.986   7.719  11.862
10959W        W83384   4.887  13.352  14.093
10960W        W83385  19.677  19.783   2.077
10961W        W83386  31.468   9.691   4.345
10962W        W83387  22.245  30.013   4.936
10963W        W83388  24.566  41.807  10.993
10964W        W83389   0.292  35.569  12.795
10965W        W83390   3.303   5.964  12.402
10966W        W83391  33.336   7.004   5.058
10967W        W83392  17.830   3.479   0.765
10968W        W83393  17.335  22.063   4.128
10969W        W83394  34.511  25.160  13.666
10970W        W83395  11.665   9.708  10.021
10971W        W83396  37.385  15.376   3.317
10972W        W83397  20.448   6.856   4.522
10973W        W83398  22.522  30.757   0.213
10974W        W83399  22.144  30.060   3.900
10975W        W83400  21.585  24.243  12.396
10976W        W83401   2.271  17.168   3.325
10977W        W83402  14.733  16.328  11.480
10978W        W83403  12.650  35.333  12.091
10979W        W83404  17.784  35.273   3.989
10980W        W83405  38.947  43.446  12.410
10981W        W83406  24.658  18.570  11.491
10982W        W83407   7.420  42.500   1.376
10983W        W83408   5.976  27.483   2.686
10984W        W83409   9.373  41.606   2.734
10985W        W83410  14.592  31.209   4.517
10986W        W83411  14.297  33.001  12.929
10987W        W83412  24.299   2.786  11.692
10988W        W83413  16.703  39.883   1.651
10989W        W83414  10.130  43.923  13.866
10990W        W83415  35.435   3.676   4.237
10991W        W83416   6.822  27.687  13.564
10992W        W83417  13.682  43.890   2.873
10993W        W83418  24.795  36.248   4.039
10994W        W83419  30.975   4.296  12.543
10995W        W83420   6.654  34.875   4.160
10996W        W83421  29.085  10.200  12.031
10997W        W83422  13.123  28.123  14.432
10998W        W83423  16.849  38.990   1.938
10999W        W83424  36.060  26.658   3.836
11000W        W83425  35.057  22.511  12.522
11001W        W83426   1.918  16.039  12.036
11002W        W83427  15.791  20.198  13.577
11003W        W83428  20.150  29.490   0.392
11004W        W83429  27.201   0.789  14.992
11005W        W83430  18.281  39.259   2.734
11006W        W83431   7.560  32.955   3.931
11007W        W83432  42.500  35.096   3.238
11008W        W83433   7.321  10.237   1.986
11009W        W83434  12.284  42.945  12.087
11010W        W83435  44.486  39.275  10.649
11011W        W83436  18.761  27.608  12.334
11012W        W83437  31.432  40.002  14.114
11013W        W83438  31.006  33.650   4.859
11014W        W83439  30.164  21.784   3.119
11015W        W83440   5.252  31.875  11.083
11016W        W83441  30.745  40.806  12.451
11017W        W83442  25.378  14.547  12.896
11018W        W83443  14.101  27.825   4.137
11019W        W83444  23.229  16.619   4.700
11020W        W83445  25.543  30.457  14.906
11021W        W83446  19.520   4.434   4.093
11022W        W83447  36.455   0.269  10.378
11023W        W83448  30.885  42.078   3.249
11024W        W83449  29.459  40.994  10.876
11025W        W83450   4.318   6.682  12.599
11026W        W83451  18.838   5.254   1.843
11027W        W83452  11.243  23.608  12.456
11028W        W83453  18.711  14.127  13.069
11029W        W83454  37.544   8.098   2.638
11030W        W83455   3.797  37.853  10.723
11031W        W83456  27.893  15.693   3.298
11032W        W83457   5.254  27.457   1.765
11033W        W83458  36.835  39.992   3.672
11034W        W83459   6.339  10.623  11.091
11035W        W83460  19.850   6.616   1.722
11036W        W83461  29.292  11.349   4.110
11037W        W83462  28.432   0.244   1.318
11038W        W83463   5.476  41.955   0.340
11039W        W83464  27.048  11.563   4.127
11040W        W83465   2.509   0.360   3.751
11041W        W83466  10.834  34.629   4.679
11042W        W83467   6.065  29.220  14.635
11043W        W83468   0.268  31.647   4.162
11044W        W83469  39.309  37.069  11.122
11045W        W83470  23.135   7.865   9.736
11046W        W83471  29.345  34.906  13.813
11047W        W83472  23.626  22.598   1.197
11048W        W83473  12.280   9.146  11.433
11049W        W83474  13.188  29.292   3.686
11050W        W83475  12.832   4.618   3.270
11051W        W83476  34.394  13.448   1.514
11052W        W83477  35.468  24.260   0.830
11053W        W83478  18.618  30.980  13.296
11054W        W83479  42.309  15.271  11.632
11055W        W83480  24.982  35.924  13.254
11056W        W83481  34.974  32.140   2.218
11057W        W83482   1.236  24.198   0.375
11058W        W83483  14.666  41.481   4.093
11059W        W83484   8.615  18.347   3.403
11060W        W83485  26.663  33.957  10.252
11061W        W83486  37.414   0.439  13.474
11062W        W83487   7.474  27.456   2.799
11063W        W83488  20.691  40.385   3.744
11064W        W83489  21.267  26.154   3.323
11065W        W83490  37.796  19.770   2.899
11066W        W83491  26.007  32.628  11.461
11067W        W83492  10.284  25.137   4.626
11068W        W83493   4.188  35.561  12.022
11069W        W83494  41.776  42.046  11.169
11070W        W83495  30.077  24.721  11.923
11071W        W83496   9.759  11.249   2.469
11072W        W83497  29.556   3.387   4.578
11073W        W83498  26.483  37.009   3.703
11074W        W83499   6.108  14.267  11.635
11075W        W83500   0.437  17.516  14.011
11076W        W83501   6.904  16.198  13.390
11077W        W83502  22.377  21.442  14.223
11078W        W83503   7.761  31.624   4.035
11079W        W83504  23.466  18.956   3.269
11080W        W83505  11.589  11.125   0.450
11081W        W83506  14.615  39.998  12.625
11082W        W83507  20.827  38.037   3.769
11083W        W83508  23.266  42.989   1.823
11084W        W83509  33.586  41.179  12.537
11085W        W83510  39.631  39.220  13.993
11086W        W83511  30.389  40.375   2.818
11087W        W83512  36.426  22.688  14.226
11088W        W83513  13.090   7.648  12.509
11089W        W83514  36.959  19.817  12.959
11090W        W83515  32.039   4.616   2.394
11091W        W83516  17.069   3.770   0.043
11092W        W83517   6.810  23.398  10.923
11093W        W83518   0.410   5.199   1.032
11094W        W83519  42.010  26.081  13.405
11095W        W83520  14.544  23.690   3.620
11096W        W83521   4.418  25.094  11.506
11097W        W83522   5.379   2.609  13.565
11098W        W83523  22.229  37.695   3.445
11099W        W83524  43.640  15.091   0.581
11100W        W83525  33.318  43.787  12.934
11101W        W83526  10.326  16.257   2.126
11102W        W83527  40.384  40.971   0.788
11103W        W83528   5.897  16.170   4.057
11104W        W83529  44.503  10.250   2.533
11105W        W83530   3.348  12.213   0.876
11106W        W83531   6.187  37.292  13.948
11107W        W83532  23.922  26.214  11.616
11108W        W83533  26.577  27.520   4.686
11109W        W83534  11.748   0.048  11.833
11110W        W83535   1.701   8.168  12.570
11111W        W83536  20.216  11.783   0.908
11112W        W83537   1.560  20.154  13.788
11113W        W83538   1.959  39.727  10.685
11114W        W83539   3.895  34.441  14.280
11115W        W83540  31.705  24.782  11.224
11116W        W83541  14.647   9.901  10.216
11117W        W83542  39.862  31.882  14.485
11118W        W83543  26.920  30.320   3.709
11119W        W83544  36.287  42.983  11.574
11120W        W83545   1.225   1.933  13.435
11121W        W83546  16.285  44.373  14.442
11122W        W83547  14.417  17.330  11.571
11123W        W83548  20.858  16.563   0.286
11124W        W83549  19.981  17.294   4.184
11125W        W83550   6.212  27.449   0.721
11126W        W83551   2.954  22.223  10.803
11127W        W83552  30.426  22.736   2.248
11128W        W83553   4.931  35.956   3.899
11129W        W83554  21.252  36.044   4.225
11130W        W83555  30.146  31.778  13.997
11131W        W83556  31.144  37.445   4.406
11132W        W83557  15.402   4.298   1.428
11133W        W83558  21.578   3.405  14.398
11134W        W83559  39.987  23.463  11.173
11135W        W83560  26.496   4.507   1.242
11136W        W83561   6.952  20.547  13.529
11137W        W83562  40.865  35.335   0.444
11138W        W83563  21.726  19.508  10.625
11139W        W83564  26.120   4.705   2.025
11140W        W83565  12.342  37.781   4.182
11141W        W83566  43.344   9.638  12.242
11142W        W83567   6.815   2.871   4.634
11143W        W83568   3.368   8.277  12.879
11144W        W83569   4.939   0.114  12.032
11145W        W83570  25.042  42.082  14.064
11146W        W83571  38.561  34.056  12.482
11147W        W83572   4.722  14.130   4.699
11148W        W83573  28.526  14.387   3.314
11149W        W83574   5.979  36.604   5.508
11150W        W83575   6.872  23.231  12.864
11151W        W83576  22.531  29.939   2.131
11152W        W83577   3.023  40.801   1.897
11153W        W83578  17.831   8.624   2.396
11154W        W83579   3.242  31.378   2.622
11155W        W83580   7.928   6.737  12.440
11156W        W83581  16.393   2.674  13.551
11157W        W83582  42.052  18.080   0.051
11158W        W83583  25.524  12.566  10.776
11159W        W83584  40.378  21.808   4.646
11160W        W83585   3.800   2.752  13.278
11161W        W83586  21.736  11.689   0.909
11162W        W83587   1.970  17.073   1.865
11163W        W83588  26.004   0.846  13.357
11164W        W83589   2.489  38.229  14.753
11165W        W83590  10.901   7.082   0.675
11166W        W83591  34.084  42.887  10.161
11167W        W83592   6.333   5.609  13.770
11168W        W83593  19.426  33.593  12.990
11169W        W83594   2.394  35.467   0.063
11170W        W83595  33.890  41.871   4.565
11171W        W83596  22.327  15.645  12.837
11172W        W83597  22.776  12.205   3.635
11173W        W83598   0.920  25.767  12.412
11174W        W83599  17.966  42.797  10.402
11175W        W83600  35.363  37.503   2.710
11176W        W83601   7.714  17.042  11.621
11177W        W83602  27.835  18.759   3.218
11178W        W83603  29.683  28.156   2.663
11179W        W83604  33.566   6.071   3.810
11180W        W83605  24.288   5.624   3.314
11181W        W83606  13.968  37.500   2.104
11182W        W83607   5.806  30.280   4.683
11183W        W83608  25.575  44.651   4.237
11184W        W83609  20.036   4.652  11.207
11185W        W83610  15.260  15.059   3.664
11186W        W83611  31.447   3.790   4.928
11187W        W83612   6.664  42.843   4.207
11188W        W83613   0.286  30.983   3.299
11189W        W83614   4.929  12.754  14.449
11190W        W83615  16.745   0.740  13.537
11191W        W83616   1.967  25.135  13.089
11192W        W83617  15.770   3.343   3.201
11193W        W83618  35.003  35.098   2.178
11194W        W83619  25.217   0.362   3.686
11195W        W83620  16.310  15.639  12.150
11196W        W83621   3.463  39.816  11.667
11197W        W83622  17.197   9.205   0.558
11198W        W83623   2.732   1.461  12.427
11199W        W83624  24.038  22.940  14.906
11200W        W83625  16.523  16.667   4.148
11201W        W83626  11.919   0.957  11.427
11202W        W83627  21.282  10.357  10.439
11203W        W83628  10.631  28.944   0.820
11204W        W83629  44.215  40.889  14.243
11205W        W83630  33.998  24.874   1.249
11206W        W83631   0.686   7.764  14.044
11207W        W83632   7.142  35.508  12.095
11208W        W83633  22.456  42.522   0.900
11209W        W83634   1.686   1.815  14.853
11210W        W83635  12.098  15.766   4.182
11211W        W83636  15.293  11.670  14.036
11212W        W83637  17.811   1.482   5.077
11213W        W83638   5.674  41.840   4.163
11214W        W83639  11.204  43.328   4.945
11215W        W83640  18.835  25.035  11.570
11216W        W83641  39.970  35.407   0.927
11217W        W83642   6.461  11.203   2.090
11218W        W83643  11.736  31.384   3.300
11219W        W83644  34.937  13.561  13.026
11220W        W83645   2.822  37.564   0.931
11221W        W83646  43.404  32.387   4.155
11222W        W83647  15.608   0.252  12.917
11223W        W83648  36.627  20.748   1.887
11224W        W83649   0.980  39.975   4.154
11225W        W83650   7.763  23.662  12.426
11226W        W83651  37.179   1.880  11.710
11227W        W83652  42.845  11.650  10.941
11228W        W83653  37.956  36.140  11.234
11229W        W83654  27.251   6.986  13.408
11230W        W83655  37.367  43.965  14.403
11231W        W83656   5.321  10.722   3.327
11232W        W83657  40.878  34.077   0.921
11233W        W83658  20.685  44.966   1.316
11234W        W83659  21.414  16.423  12.783
11235W        W83660  39.846  12.578  11.381
11236W        W83661   3.201  40.436   4.364
11237W        W83662   7.575  43.532  14.228
11238W        W83663  11.614  19.075  13.263
11239W        W83664  40.396  23.149  14.572
11240W        W83665  29.116  39.012  13.280
11241W        W83666  39.302   6.940   0.458
11242W        W83667  31.051  20.368   3.835
11243W        W83668  41.493  24.538   2.396
11244W        W83669  12.763  40.079   1.726
11245W        W83670  33.113  18.132   5.084
11246W        W83671  28.960  12.718  12.623
11247W        W83672   3.385  17.985   3.228
11248W        W83673  12.149  44.732  13.951
11249W        W83674  35.869  24.496  13.056
11250W        W83675  24.101  15.997  13.931
11251W        W83676  31.707  15.664   1.874
11252W        W83677  40.508  37.179  10.683
11253W        W83678  44.725   5.351  14.338
11254W        W83679  22.226  14.314   1.920
11255W        W83680  40.425  22.482  13.834
11256W        W83681  30.967  12.290   4.552
11257W        W83682  21.261  15.709  11.210
11258W        W83683   1.585  29.494   1.450
11259W        W83684   6.901   6.319  13.128
11260W        W83685  15.343   0.518  10.331
11261W        W83686  44.890   4.751   0.947
11262W        W83687   4.880  18.565   0.833
11263W        W83688  14.214  39.682  11.065
11264W        W83689   1.424  39.034  13.911
11265W        W83690  24.291  26.331  11.268
11266W        W83691   6.648   5.743  11.420
11267W        W83692  25.734  14.194  10.704
11268W        W83693  32.377  30.937   4.835
11269W        W83694  29.415   3.621  10.959
11270W        W83695  29.146  37.629  13.857
11271W        W83696  31.603   7.479  13.481
11272W        W83697  30.688  33.006   1.760
11273W        W83698  31.337   6.691   1.139
11274W        W83699  17.663  14.872   3.680
11275W        W83700  36.912  37.267   3.914
11276W        W83701   1.515  14.837   1.371
11277W        W83702  30.413  23.662   2.996
11278W        W83703  23.182  42.921   4.677
11279W        W83704  21.592  25.179  14.727
11280W        W83705  36.431  13.544  11.121
11281W        W83706   5.121  30.481  11.640
11282W        W83707  26.924   4.207  13.369
11283W        W83708  24.807  11.858   4.591
11284W        W83709  36.817  26.914   5.009
11285W        W83710  27.805  15.095   2.175
11286W        W83711  15.572  10.875  11.074
11287W        W83712  28.470  32.015  14.571
11288W        W83713  26.686  44.153  11.613
11289W        W83714  44.175  23.319  13.293
11290W        W83715   2.451  20.560  13.860
11291W        W83716   7.343  31.268  10.674
11292W        W83717  19.216  22.674   1.972
11293W        W83718  32.053   6.386  10.719
11294W        W83719  13.895   6.714   4.812
11295W        W83720  21.340  36.925  11.872
11296W        W83721  29.169  33.400  11.528
11297W        W83722  39.266  30.266  11.592
11298W        W83723  24.018  17.839   0.999
11299W        W83724  22.273  18.088   4.561
11300W        W83725  39.809  41.010  10.574
11301W        W83726   2.759  10.899  14.848
11302W        W83727  32.799  17.898   0.245
11303W        W83728  43.432  44.473   4.070
11304W        W83729  22.235  40.947  12.706
11305W        W83730  15.660  13.938   0.305
11306W        W83731   5.640  18.774  12.083
11307W        W83732   3.311  11.186  14.854
11308W        W83733   4.589  21.152   1.382
11309W        W83734  24.291  23.363  14.709
11310W        W83735   0.295   2.071  11.918
11311W        W83736   1.659  35.124   1.998
11312W        W83737  31.920  30.787   4.995
11313W        W83738  27.993  22.891   3.895
11314W        W83739  12.458  19.330   3.594
11315W        W83740   7.455  29.726   3.599
11316W        W83741  17.076   2.315   3.701
11317W        W83742  11.932  27.019  13.835
11318W        W83743  25.002  18.265   3.524
11319W        W83744  36.613  20.730   0.956
11320W        W83745  44.817   9.496   1.253
11321W        W83746   0.752   4.853  10.477
11322W        W83747   9.244  31.130  10.485
11323W        W83748   0.542  11.359  13.123
11324W        W83749   8.705  11.393   3.185
11325W        W83750  16.655  26.134   2.793
11326W        W83751   5.926  15.526  14.910
11327W        W83752  13.770  30.074  14.059
11328W        W83753  43.071  26.454   4.218
11329W        W83754  14.857  20.632  14.496
11330W        W83755  10.740  27.542  12.423
11331W        W83756  25.601  31.037   0.264
11332W        W83757  34.389   5.495   3.035
11333W        W83758   1.813  16.147   1.602
11334W        W83759  21.692  43.334  13.558
11335W        W83760  30.863  44.316  10.622
11336W        W83761  38.980   4.829   0.792
11337W        W83762  15.720  14.266   3.742
11338W        W83763  21.173  39.659  11.564
11339W        W83764  42.721  11.196  12.026
11340W        W83765  14.789  36.900   0.701
11341W        W83766  28.091  44.356   4.526
11342W        W83767  17.805   8.194   1.276
11343W        W83768  15.154  26.581  12.562
11344W        W83769  33.357  30.582  14.924
11345W        W83770  25.113  30.633  13.820
11346W        W83771  38.522  43.081   5.008
11347W        W83772  42.090  33.032   4.724
11348W        W83773  36.285  11.309   2.570
11349W        W83774   7.310  17.845  13.977
11350W        W83775   8.560  40.102  12.987
11351W        W83776  30.033  32.680  10.144
11352W        W83777  28.733  36.000  11.268
11353W        W83778  10.408   5.986  14.089
11354W        W83779  30.069  12.698   3.801
11355W        W83780  44.314  19.749   3.960
11356W        W83781  43.812  24.312   0.377
11357W        W83782  25.653  37.776   4.533
11358W        W83783  33.430  35.872  11.477
11359W        W83784  29.593  36.941  13.226
11360W        W83785   3.478  28.377  13.214
11361W        W83786  10.799  32.297  14.487
11362W        W83787   9.879  18.674   4.892
11363W        W83788  32.309  26.635  12.749
11364W        W83789  29.794  29.741   3.853
11365W        W83790   7.164   5.790   2.426
11366W        W83791  39.593  16.991  12.107
11367W        W83792  19.550   5.772   2.405
11368W        W83793  35.372  13.548  13.952
11369W        W83794  42.172   7.733   3.705
11370W        W83795   3.254  30.829  12.668
11371W        W83796  27.566  10.141   0.920
11372W        W83797   1.442  34.603   2.956
11373W        W83798  37.131  21.548   0.949
11374W        W83799  22.077  44.388  13.080
11375W        W83800  39.400  20.228   2.359
11376W        W83801   9.354   3.509  11.511
11377W        W83802  33.889  13.086   3.662
11378W        W83803  14.270  21.920   5.538
11379W        W83804  43.353  43.948   0.267
11380W        W83805  42.462  30.373   4.762
11381W        W83806  28.531   5.277   4.979
11382W        W83807  31.459   1.341   0.057
11383W        W83808  34.247  31.430  13.352
11384W        W83809  25.160   9.879   2.569
11385W        W83810  30.574  41.343   0.887
11386W        W83811  10.210   9.726   1.988
11387W        W83812   9.815   8.371  11.928
11388W        W83813  21.137  40.962   2.785
11389W        W83814  29.829  25.153   1.317
11390W        W83815   2.207  44.447   2.816
11391W        W83816  40.984  36.323   0.861
11392W        W83817   2.730   0.483  13.141
11393W        W83818  37.773  39.915   2.654
11394W        W83819  39.101  17.645  13.562
11395W        W83820  41.926  34.973   3.341
11396W        W83821   7.448  31.612   2.709
11397W        W83822   8.747  25.410   4.715
11398W        W83823  23.743   2.395  11.274
11399W        W83824   8.308  13.836   3.707
11400W        W83825  10.691   4.555   4.428
11401W        W83826  13.664  23.981   4.672
11402W        W83827  30.701  41.956   0.935
11403W        W83828  30.611  38.132  14.996
11404W        W83829  20.073  27.408  13.921
11405W        W83830  39.407  43.052  10.511
11406W        W83831  35.393  23.526   5.037
11407W        W83832  23.056  17.721   0.951
11408W        W83833  19.573  29.613   1.775
11409W        W83834  14.303  31.461  14.545
11410W        W83835  41.348  32.464   2.662
11411W        W83836  11.762  37.889   3.706
11412W        W83837  36.615  13.168  12.963
11413W        W83838  16.860  17.069   4.575
11414W        W83839  15.581  37.005   3.761
11415W        W83840  43.912  17.967   3.623
11416W        W83841  17.723  20.570   2.820
11417W        W83842  12.764  34.311  10.588
11418W        W83843   8.450  12.425  14.687
11419W        W83844  21.829  43.288   2.345
11420W        W83845  36.482  38.248   0.540
11421W        W83846  40.423  40.856  11.454
11422W        W83847  36.039   6.459  13.908
11423W        W83848  29.844   1.829  13.518
11424W        W83849   9.093  14.841   2.431
11425W        W83850  44.059   9.484   0.851
11426W        W83851  14.807  20.076  11.676
11427W        W83852  37.943  26.981   1.863
11428W        W83853  14.881  30.097   2.410
11429W        W83854   5.280  34.189  11.811
11430W        W83855  39.328  26.014  11.438
11431W        W83856  25.064  42.436   2.339
11432W        W83857  29.450  34.603   4.359
11433W        W83858   4.746  42.705  13.347
11434W        W83859  31.482  38.106   4.532
11435W        W83860  27.215  27.241  12.296
11436W        W83861  35.762  16.583  13.979
11437W        W83862  23.580   3.900   4.610
11438W        W83863  22.982  27.910   4.204
11439W        W83864  23.585  17.265  12.858
11440W        W83865  11.697  12.385   3.730
11441W        W83866  25.529   6.677   4.146
11442W        W83867  27.073  19.522  12.280
11443W        W83868  36.854  20.104   4.442
11444W        W83869   1.342  40.892  14.016
11445W        W83870   4.639  25.753  10.713
11446W        W83871   8.567  33.472   5.064
11447W        W83872  14.569   0.233  12.892
11448W        W83873  28.883  31.676  11.073
11449W        W83874  17.893   0.998  10.603
11450W        W83875  10.747  25.804   0.459
11451W        W83876  39.003  15.716   3.188
11452W        W83877  41.324  12.276  14.080
11453W        W83878  25.048   4.935  11.282
11454W        W83879   5.733   3.302  10.621
11455W        W83880  23.431  21.758  11.635
11456W        W83881  39.002   9.692  13.040
11457W        W83882  41.967  36.692   2.831
11458W        W83883  44.358  15.318  14.724
11459W        W83884  16.085  30.530  14.095
11460W        W83885   5.174   0.759  14.215
11461W        W83886  37.023  13.764  11.688
11462W        W83887  41.006  30.390   3.333
11463W        W83888  19.158  42.286  13.749
11464W        W83889  19.335  30.545   3.521
11465W        W83890  36.087  32.010   1.503
11466W        W83891  40.670  42.871  10.194
11467W        W83892  44.406   5.714   2.597
11468W        W83893  31.508   1.325   1.901
11469W        W83894   7.419  26.072  10.421
11470W        W83895  36.880  10.371   1.952
11471W        W83896  28.310  26.094   3.632
11472W        W83897  38.856   7.757   4.342
11473W        W83898   8.349  28.744  13.345
11474W        W83899  37.942   5.873   3.036
11475W        W83900  22.610   6.108   1.489
11476W        W83901  35.836  42.357   2.602
11477W        W83902   9.371  22.801   1.347
11478W        W83903  27.692   1.686  14.707
11479W        W83904  26.263  38.888  10.531
11480W        W83905  31.508   9.453   0.495
11481W        W83906  36.003  25.917   2.792
11482W        W83907  38.051  24.682   1.604
11483W        W83908   3.788  40.492  12.631
11484W        W83909  11.139   3.736  13.840
11485W        W83910   1.913  14.373   0.455
11486W        W83911  18.569  36.496   2.383
11487W        W83912   5.280  28.493  12.237
11488W        W83913   9.440  12.198  12.351
11489W        W83914  26.149  28.759   4.724
11490W        W83915   9.659  21.274  10.613
11491W        W83916  13.418   0.282   2.825
11492W        W83917   0.387  14.124  10.701
11493W        W83918  16.643   5.870   0.610
11494W        W83919  36.887  18.842   3.645
11495W        W83920  13.201  13.809   2.746
11496W        W83921   7.386  34.659  13.356
11497W        W83922  11.228  22.909   2.202
11498W        W83923  12.090  37.398  13.947
11499W        W83924  18.133  15.304  14.546
11500W        W83925  11.054  30.972   4.185
11501W        W83926  33.770  21.059   2.772
11502W        W83927  33.341   7.642   4.466
11503W        W83928   5.439  24.015   0.435
11504W        W83929  21.624  15.387  14.025
11505W        W83930  41.216  14.275  12.197
11506W        W83931  38.031   7.416  14.660
11507W        W83932  40.332  35.714  12.877
11508W        W83933   2.295  19.541   4.558
11509W        W83934  27.595  17.888   1.728
11510W        W83935  38.821  36.994  10.093
11511W        W83936  13.322   7.451  12.981
11512W        W83937  12.401  16.520   3.699
11513W        W83938   4.368  37.613   1.895
11514W        W83939  35.284   1.427   3.120
11515W        W83940  44.052  20.563   1.747
11516W        W83941  35.998   5.367  11.019
11517W        W83942   9.369   9.573   3.065
11518W        W83943   2.206  37.267  10.917
11519W        W83944  20.063  19.591  11.653
11520W        W83945   7.596  34.506   4.195
11521W        W83946  23.249   7.562   4.077
11522W        W83947  16.282   7.634  14.368
11523W        W83948  20.475  20.028  14.754
11524W        W83949  34.447  37.107  13.787
11525W        W83950  35.493  39.555  11.165
11526W        W83951   0.970  42.925   1.405
11527W        W83952  27.224  20.290  14.798
11528W        W83953  14.602  42.697   4.844
11529W        W83954  33.486  27.576   0.548
11530W        W83955   2.020  24.444   0.726
11531W        W83956  30.086  11.623   4.331
11532W        W83957  39.910  37.117  14.452
11533W        W83958  14.729   0.447   4.597
11534W        W83959  43.351  32.320  11.517
11535W        W83960  31.965  10.926   3.650
11536W        W83961  33.430   5.528  12.080
11537W        W83962  31.615  17.527  13.462
11538W        W83963  31.442  12.124  12.726
11539W        W83964  39.958   6.444  10.669
11540W        W83965  23.803  14.449  11.162
11541W        W83966  37.792  43.031  12.626
11542W        W83967  18.749  38.868  12.034
11543W        W83968  23.176  38.687  13.069
11544W        W83969  30.434  28.567   4.533
11545W        W83970  20.752  30.611   3.648
11546W        W83971   5.137  36.373   4.694
11547W        W83972  14.343  36.715   2.949
11548W        W83973  33.071  36.136   2.151
11549W        W83974  31.614  42.427  13.224
11550W        W83975  34.809  44.776   1.337
11551W        W83976  42.409   7.802   1.247
11552W        W83977   1.861  33.476  11.081
11553W        W83978  28.557  30.752   5.204
11554W        W83979  16.799  14.307  13.034
11555W        W83980   2.479  13.196   4.903
11556W        W83981  41.886  39.750  12.647
11557W        W83982  31.361  25.437  12.015
11558W        W83983  29.612  41.973  14.382
11559W        W83984  12.226  26.202  12.564
11560W        W83985  29.097  20.478   3.633
11561W        W83986  42.651  19.588  14.024
11562W        W83987  29.794  17.128   4.037
11563W        W83988   8.755  29.370   3.412
11564W        W83989   1.528   1.113  11.990
11565W        W83990  21.228  39.270  12.481
11566W        W83991  13.243  17.296   2.762
11567W        W83992  12.239  21.687  10.862
11568W        W83993  15.782   8.258  14.598
11569W        W83994  14.637  26.225  13.364
11570W        W83995  31.575   0.509  12.494
11571W        W83996  28.108  20.827  10.739
11572W        W83997  24.702  41.805   2.550
11573W        W83998  26.135   1.908   1.350
11574W        W83999   3.265  15.054   1.115
11575W        W84000  30.563  33.306  13.804
11576W        W84001  23.096  20.079   3.215
11577W        W84002  30.003   5.983  14.340
11578W        W84003   6.590  14.474   0.441
11579W        W84004   9.124  14.257  11.606
11580W        W84005  40.827   5.004  11.300
11581W        W84006  30.048  18.756   1.190
11582W        W84007  29.018  17.222  12.958
11583W        W84008  29.465  32.099  10.530
11584W        W84009   0.669   9.756   1.269
11585W        W84010   4.047  41.783   3.191
11586W        W84011   1.518  12.647   4.199
11587W        W84012  33.938  25.561  14.800
11588W        W84013  32.097   4.161  11.477
11589W        W84014   9.415  43.076  12.908
11590W        W84015  18.328  10.874   3.595
11591W        W84016  38.465  28.554   3.312
11592W        W84017  43.390  24.722  12.469
11593W        W84018  18.397  33.584  11.045
11594W        W84019  24.698  10.704  11.428
11595W        W84020   2.997  29.505  14.508
11596W        W84021  38.376  32.463   1.165
11597W        W84022  14.774  28.603  12.772
11598W        W84023   7.348  13.261  12.128
11599W        W84024  15.873  35.510  10.392
11600W        W84025  31.532  28.202   3.283
11601W        W84026  30.082   5.704   1.450
11602W        W84027  40.869  11.272   3.227
11603W        W84028  28.150   5.761  13.353
11604W        W84029  41.948   3.372   4.516
11605W        W84030   6.115  44.923   2.686
11606W        W84031  37.146  44.513  13.593
11607W        W84032  23.436  34.124  11.377
11608W        W84033   0.722  15.222  14.350
11609W        W84034  29.190   0.393  10.715
11610W        W84035  36.624  30.301  14.364
11611W        W84036   9.377  10.646  13.336
11612W        W84037  17.580  42.570  13.065
11613W        W84038  43.577  27.555  11.450
11614W        W84039  10.605  31.209  14.360
11615W        W84040   1.513  16.477   1.876
11616W        W84041  32.254  32.819  14.551
11617W        W84042  21.994  23.199  10.710
11618W        W84043  31.026  19.675   5.003
11619W        W84044   6.941  34.937   0.193
11620W        W84045  14.475  13.272  12.092
11621W        W84046  26.455  40.051   1.683
11622W        W84047   7.681   7.858  12.060
11623W        W84048  41.494  11.487  11.227
11624W        W84049  10.640   4.774  10.245
11625W        W84050  11.310   8.675  10.541
11626W        W84051  20.202  36.494  12.370
11627W        W84052  25.411  25.372   0.321
11628W        W84053  16.934  42.016  13.467
11629W        W84054  43.130  44.350   1.828
11630W        W84055  36.660   1.486   0.888
11631W        W84056  14.021  41.766  12.308
11632W        W84057  10.496   7.872  10.775
11633W        W84058  21.041  34.573  13.987
11634W        W84059   2.863  26.954   4.650
11635W        W84060  21.679  37.835   1.421
11636W        W84061   2.188   6.226   3.229
11637W        W84062  16.643   2.608   3.761
11638W        W84063  11.432  41.453   2.913
11639W        W84064  40.607  30.046  13.376
11640W        W84065   3.291  14.662  12.559
11641W        W84066  34.961  31.347   4.603
11642W        W84067  37.044  12.753   2.544
11643W        W84068   7.573  22.215   2.356
11644W        W84069  25.310   5.214   3.858
11645W        W84070   3.428   7.821  11.026
11646W        W84071  35.156  14.676   4.636
11647W        W84072   9.898   0.784  12.956
11648W        W84073  14.833  34.437  10.603
11649W        W84074  18.056  10.722  14.453
11650W        W84075  18.400  32.432   3.770
11651W        W84076  36.879  11.904   2.729
11652W        W84077  19.653  32.899  13.540
11653W        W84078  35.307   5.416   4.182
11654W        W84079   0.420  10.397  14.350
11655W        W84080   7.132  26.536  11.594
11656W        W84081  26.543   1.526  13.002
11657W        W84082  35.291  40.421  12.879
11658W        W84083   1.465   5.658   2.258
11659W        W84084  44.758  34.085   1.926
11660W        W84085  37.436  43.307   4.130
11661W        W84086  44.042  13.842   0.366
11662W        W84087   9.191  11.643  11.682
11663W        W84088  35.057   3.222   4.198
11664W        W84089  23.153  29.480   4.379
11665W        W84090   3.176  27.161  13.391
11666W        W84091   5.860  14.221  10.947
11667W        W84092   0.202  44.804  14.329
11668W        W84093  11.168   3.431  11.705
11669W        W84094  37.564  20.217   0.417
11670W        W84095  41.190  42.502   1.004
11671W        W84096  15.546  12.227   3.437
11672W        W84097  27.702  30.044  13.592
11673W        W84098  32.873  31.218  10.908
11674W        W84099   9.989  11.660  12.106
11675W        W84100  15.106  14.830  13.137
11676W        W84101  42.837   7.751   3.147
11677W        W84102   5.871  10.284  13.127
11678W        W84103  23.211  31.005  13.396
11679W        W84104   5.224  23.022   4.169
11680W        W84105  12.865   6.142   0.439
11681W        W84106  42.775   9.842  11.563
11682W        W84107  35.407  37.578   0.090
11683W        W84108  17.272  12.535   0.369
11684W        W84109  15.383  24.800  11.007
11685W        W84110  16.977  35.721  11.130
11686W        W84111   5.324  33.961  10.944
11687W        W84112  35.383  15.551  10.098
11688W        W84113  14.096  14.904  14.892
11689W        W84114  19.174  40.243   2.170
11690W        W84115  44.221  41.483   1.304
11691W        W84116  16.021  43.309  14.485
11692W        W84117  14.262  12.893   3.606
11693W        W84118  35.562  22.824  11.351
11694W        W84119  33.064  10.597   0.777
11695W        W84120  20.721  15.846   4.955
11696W        W84121   2.976  10.357  10.021
11697W        W84122  12.777  42.782   1.737
11698W        W84123  29.162  34.839   1.620
11699W        W84124  22.224  38.296   4.272
11700W        W84125  20.648  27.924  12.510
11701W        W84126  20.758  30.029   1.948
11702W        W84127  30.141   3.754  14.974
11703W        W84128  37.066   2.865   1.810
11704W        W84129  36.951   5.903   0.430
11705W        W84130  38.212  19.913   1.966
11706W        W84131  29.690  35.336  12.470
11707W        W84132  28.600  30.170   3.143
11708W        W84133  36.111  37.281   0.390
11709W        W84134  19.467  27.492  10.744
11710W        W84135  11.874   0.893   2.640
11711W        W84136  13.613   4.973   1.333
11712W        W84137  15.288  41.338  10.799
11713W        W84138  26.055  15.444  14.338
11714W        W84139  34.862  26.577   9.913
11715W        W84140  13.391  38.834   2.419
11716W        W84141  12.606  35.246  10.884
11717W        W84142  41.320  22.999   3.250
11718W        W84143  18.562  43.212   2.767
11719W        W84144  30.058  44.363  13.115
11720W        W84145  34.785   3.804  11.976
11721W        W84146  37.647  24.881  14.403
11722W        W84147  26.589  33.375  11.632
11723W        W84148  41.389  35.493   0.781
11724W        W84149  44.953   5.397  12.121
11725W        W84150  19.757  21.017   2.764
11726W        W84151  40.646  36.522   2.329
11727W        W84152  35.349  27.581   0.826
11728W        W84153  12.716  29.095  14.394
11729W        W84154  14.471  12.031  11.188
11730W        W84155  30.921  43.072  11.518
11731W        W84156  17.559   6.804  10.765
11732W        W84157  21.663  23.827   3.233
11733W        W84158  39.864  18.807   1.861
11734W        W84159  21.435   9.299   1.451
11735W        W84160  14.839  15.806  10.992
11736W        W84161  11.605  33.795  14.978
11737W        W84162  17.829  29.976   0.899
11738W        W84163  22.077  36.844   3.206
11739W        W84164  43.962  36.598  11.834
11740W        W84165  40.730  17.625   2.457
11741W        W84166  27.274  24.197  11.147
11742W        W84167  38.628   6.994   2.889
11743W        W84168  33.679  30.074   4.890
11744W        W84169  18.295   2.204   3.280
11745W        W84170  31.867  35.102  14.983
11746W        W84171  14.622  35.827  13.816
11747W        W84172   5.672  24.278  12.046
11748W        W84173  24.886  44.141  13.594
11749W        W84174  29.052  23.180   2.214
11750W        W84175  12.327   8.657  11.557
11751W        W84176  33.064   7.214   2.743
11752W        W84177  26.793  35.060  12.507
11753W        W84178  15.823  28.786   1.907
11754W        W84179  31.697  23.461  13.626
11755W        W84180  25.646  11.086   1.345
11756W        W84181   3.156   5.236  11.584
11757W        W84182  25.515  22.603  14.784
11758W        W84183  23.972  36.935   4.594
11759W        W84184  33.417  44.867   2.640
11760W        W84185  31.679  40.018  11.460
11761W        W84186  34.046   4.993  13.163
11762W        W84187  12.080  38.010   2.479
11763W        W84188  10.629  27.221  12.833
11764W        W84189  35.296  36.537  13.834
11765W        W84190  28.982   1.770  10.657
11766W        W84191  38.614  12.456  14.441
11767W        W84192  15.426  29.575   0.407
11768W        W84193   0.092  14.021  11.994
11769W        W84194  21.524  20.218   4.845
11770W        W84195  29.018  32.933   2.915
11771W        W84196  26.887   2.346   1.289
11772W        W84197  14.063  34.749  12.112
11773W        W84198   8.396  33.624   1.250
11774W        W84199  11.609  16.707   4.117
11775W        W84200  31.013  14.211   4.123
11776W        W84201  16.084  13.624   2.398
11777W        W84202  33.775   9.830  14.969
11778W        W84203  42.417  35.627  14.996
11779W        W84204  10.884   2.846  13.767
11780W        W84205  32.330  33.697  11.276
11781W        W84206  12.552  35.676   1.995
11782W        W84207  22.815  25.184   0.852
11783W        W84208  35.650  34.508   3.634
11784W        W84209  28.628  21.707  12.894
11785W        W84210   5.381   7.568   3.220
11786W        W84211  32.869  10.378  12.301
11787W        W84212  41.349  33.849   0.894
11788W        W84213  25.760  37.002  12.874
11789W        W84214  15.666  39.031  10.443
11790W        W84215   9.890  26.457  10.403
11791W        W84216  20.859  23.197   2.381
11792W        W84217  21.305   3.281   3.660
11793W        W84218  27.576   9.601  13.999
11794W        W84219  36.905  23.008  14.590
11795W        W84220   8.793  23.999   3.115
11796W        W84221  36.675  42.674  14.518
11797W        W84222   1.465   2.691  13.906
11798W        W84223  16.537  20.758  12.569
11799W        W84224   7.289  15.008   4.715
11800W        W84225  43.555  16.532  14.274
11801W        W84226   1.441  12.141  11.033
11802W        W84227  27.503  26.656   0.313
11803W        W84228  12.691  16.663   2.259
11804W        W84229   8.885  19.640   3.049
11805W        W84230  32.378  10.760   3.381
11806W        W84231  31.992   1.191   1.270
11807W        W84232   1.733   0.122   2.248
11808W        W84233   6.502  42.947   9.867
11809W        W84234  13.358  28.544  14.786
11810W        W84235  38.540  11.678   0.213
11811W        W84236  27.064   2.207  14.029
11812W        W84237  40.452  35.592  11.515
11813W        W84238  13.262  35.353   4.349
11814W        W84239  27.103  15.706  14.911
11815W        W84240  23.991  31.547  11.584
11816W        W84241  15.767  35.496  12.403
11817W        W84242  40.518  41.962  12.889
11818W        W84243  12.807  10.196  12.366
11819W        W84244  21.645   4.920  14.090
11820W        W84245   8.098  10.666  11.502
11821W        W84246   4.641  18.085  12.749
11822W        W84247   6.752  20.466  10.699
11823W        W84248  30.027  21.918  11.116
11824W        W84249  43.436  25.155  14.279
11825W        W84250  12.167  21.777   4.737
11826W        W84251   8.190  28.562   0.306
11827W        W84252   4.825  29.289   0.767
11828W        W84253  22.303  44.675  13.578
11829W        W84254  19.526  41.394   0.025
11830W        W84255  30.605  28.525   2.601
11831W        W84256  44.141  37.898  13.037
11832W        W84257  11.267  23.185  14.043
11833W        W84258  20.259  22.162   2.625
11834W        W84259  36.990  44.348  14.084
11835W        W84260  33.815  44.830   0.367
11836W        W84261  13.223  33.712  12.524
11837W        W84262   8.568  13.368   0.544
11838W        W84263   9.983  42.791  12.510
11839W        W84264   8.757  36.875   5.680
11840W        W84265  10.306  32.871  13.773
11841W        W84266  43.249  21.786  12.902
11842W        W84267  22.247   3.063  14.839
11843W        W84268  32.591  26.489  13.742
11844W        W84269  33.370  12.642   1.378
11845W        W84270  23.810  15.793   1.429
11846W        W84271  36.781  38.000  12.616
11847W        W84272   9.659   2.781  13.365
11848W        W84273  30.646  10.707  14.804
11849W        W84274  28.721  23.212   2.651
11850W        W84275  16.122  26.214  12.688
11851W        W84276  30.126  44.560   1.911
11852W        W84277  41.414  14.311   0.997
11853W        W84278  13.990   7.621   0.892
11854W        W84279  26.756  22.233  14.589
11855W        W84280  13.626  27.025   2.401
11856W        W84281  27.958  34.856  14.919
11857W        W84282  37.254   2.438  13.582
11858W        W84283  41.903   5.808  10.779
11859W        W84284  20.493   9.341   3.704
11860W        W84285  11.267  38.447   0.129
11861W        W84286  41.867   0.775   2.280
11862W        W84287  38.842  34.633   0.279
11863W        W84288  16.311  24.981  14.592
11864W        W84289   5.271  15.373   3.098
11865W        W84290  39.170  44.321   0.503
11866W        W84291  44.257  43.919   1.708
11867W        W84292   2.911  18.515   0.803
11868W        W84293  13.570  20.275  14.537
11869W        W84294  10.914   7.409  14.795
11870W        W84295  10.718   2.467  11.995
11871W        W84296  28.202   6.745   4.212
11872W        W84297  22.850  41.824   3.338
11873W        W84298  43.726  15.352  10.612
11874W        W84299  41.443  31.158  14.738
11875W        W84300  11.107  33.388   1.952
11876W        W84301   7.241  36.950   4.882
11877W        W84302   7.662   0.735   3.814
11878W        W84303  43.336  32.362   2.807
11879W        W84304  24.422  10.317   1.546
11880W        W84305  40.474   7.749  11.671
11881W        W84306  34.896  37.074   1.848
11882W        W84307  23.714  17.745  13.960
11883W        W84308  38.840  31.326  14.536
11884W        W84309  38.588  16.798   2.286
11885W        W84310  30.173   1.948  12.085
11886W        W84311  31.623   5.737   3.603
11887W        W84312  23.703  19.772  10.428
11888W        W84313   3.495  35.841  13.871
11889W        W84314  19.092  41.601  11.597
11890W        W84315  19.046  21.055   3.155
11891W        W84316   7.374  36.421   1.674
11892W        W84317  29.045   1.915   1.204
11893W        W84318  40.682  37.847  10.804
11894W        W84319  42.762  25.385   4.993
11895W        W84320  23.208   0.831   4.186
11896W        W84321   4.239  40.867  13.493
11897W        W84322  20.252  27.414  12.101
11898W        W84323  22.108  17.784  11.698
11899W        W84324  38.331  31.500   2.767
11900W        W84325  41.722   9.234  14.355
11901W        W84326   9.843  17.529  10.388
11902W        W84327   0.036  19.119   3.339
11903W        W84328   0.673  15.566  12.326
11904W        W84329  34.796  12.063   3.654
11905W        W84330  29.612  21.272   2.490
11906W        W84331  25.360  28.668  12.541
11907W        W84332  37.837  14.984  12.056
11908W        W84333  25.735  31.067  12.976
11909W        W84334  40.726  40.893  12.015
11910W        W84335  40.303  25.643  14.774
11911W        W84336  29.913  31.326   0.708
11912W        W84337  43.001  21.246  14.087
11913W        W84338  15.381  26.313  13.819
11914W        W84339  14.848  18.115   3.348
11915W        W84340   8.733  33.867   3.725
11916W        W84341  33.487   8.007  14.904
11917W        W84342  39.858   5.149   2.642
11918W        W84343   0.252  33.813   3.773
11919W        W84344  24.144  39.355  11.561
11920W        W84345  44.239  36.551  13.270
11921W        W84346  25.880  21.860  10.944
11922W        W84347   6.027  41.753   2.379
11923W        W84348  14.065   7.659  14.930
11924W        W84349  44.631  17.213   0.715
11925W        W84350   4.348  21.713  14.047
11926W        W84351  40.571   3.727   1.525
11927W        W84352  34.059  41.759  13.465
11928W        W84353  15.260  34.528  11.608
11929W        W84354   6.618  42.447  12.414
11930W        W84355  17.436  32.462   3.892
11931W        W84356  34.526  17.232  14.176
11932W        W84357  30.031  26.436   1.863
11933W        W84358  35.837  21.166  11.525
11934W        W84359  25.105  37.900  14.528
11935W        W84360  13.119   3.404   5.217
11936W        W84361  41.971  17.119  14.518
11937W        W84362  14.407  39.262   1.345
11938W        W84363  10.771  29.130  12.552
11939W        W84364  41.588  33.697  14.944
11940W        W84365  37.911  43.287   4.320
11941W        W84366   7.676  20.384  12.057
11942W        W84367  34.861  41.556  10.275
11943W        W84368  43.961  23.485  14.586
11944W        W84369   1.910  43.039   4.364
11945W        W84370  36.635  12.263   4.180
11946W        W84371  13.636  11.948  13.049
11947W        W84372  29.647   9.581   3.837
11948W        W84373  26.651  26.708   2.707
11949W        W84374  44.925   1.736   0.884
11950W        W84375  29.927  34.104  11.087
11951W        W84376  26.010   3.483  10.433
11952W        W84377  44.010   6.940   1.302
11953W        W84378  30.348  44.898   2.662
11954W        W84379  42.813  22.038   4.170
11955W        W84380   8.966  15.062   0.917
11956W        W84381  36.033   1.008   4.618
11957W        W84382   4.634   5.933   5.272
11958W        W84383   0.482  30.890   1.134
11959W        W84384  10.704  42.476  10.646
11960W        W84385  10.864   6.716   0.273
11961W        W84386  19.069  18.720   4.202
11962W        W84387  24.679  19.098  13.596
11963W        W84388  24.549  32.200  12.610
11964W        W84389   4.792  44.878   0.022
11965W        W84390  37.622  34.496   1.823
11966W        W84391  30.119   9.200   1.507
11967W        W84392   8.371  27.670   1.956
11968W        W84393  10.642   3.223   3.762
11969W        W84394  27.614  26.705  12.193
11970W        W84395  15.710  41.601  13.802
11971W        W84396  13.318  40.806  11.209
11972W        W84397  18.156  19.704   1.510
11973W        W84398  33.012  26.977   3.550
11974W        W84399  12.369  10.715   3.770
11975W        W84400  34.055  33.403  11.713
11976W        W84401  24.587  40.503   5.088
11977W        W84402  12.268  20.520  12.364
11978W        W84403  14.279  39.748  14.933
11979W        W84404  25.049  33.966  13.836
11980W        W84405   1.346  23.211   0.746
11981W        W84406  40.138  33.207   4.313
11982W        W84407  14.097  13.018  11.117
11983W        W84408  26.783  16.749  13.278
11984W        W84409  14.056  24.461  13.034
11985W        W84410  43.422  15.749  12.687
11986W        W84411  11.311  43.480  11.016
11987W        W84412  31.931   1.890   3.672
11988W        W84413   4.449  24.665   3.752
11989W        W84414  27.901  20.186   4.824
11990W        W84415   7.124  20.146  12.460
11991W        W84416   5.983  16.167  10.625
11992W        W84417  27.129   0.458   3.991
11993W        W84418   1.689  23.213  10.709
11994W        W84419  15.200  25.836   1.359
11995W        W84420  20.253  29.284  14.469
11996W        W84421  29.623  23.455   3.326
11997W        W84422  35.094  35.485   4.584
11998W        W84423  40.980   8.997  14.202
11999W        W84424  36.407  30.770   0.771
12000W        W84425  27.903   2.496   3.174
12001W        W84426  23.160   6.419  10.687
12002W        W84427   5.979   3.631  14.043
12003W        W84428  38.551  21.194   0.012
12004W        W84429  20.669   3.415  14.359
12005W        W84430  14.785  37.423  12.003
12006W        W84431   5.375   5.781  14.978
12007W        W84432   7.721   5.681  10.647
12008W        W84433  15.155  26.014   3.771
12009W        W84434  14.595   2.791  13.276
12010W        W84435  28.348  30.530   0.000
12011W        W84436   0.181  11.422  14.306
12012W        W84437  35.015  15.154  13.337
12013W        W84438  11.203  40.547   1.294
12014W        W84439  12.306  28.412   4.441
12015W        W84440   8.645  25.668  12.902
12016W        W84441  13.304  27.562  11.390
12017W        W84442   5.310  19.701  12.543
12018W        W84443   8.106  43.636  14.307
12019W        W84444  39.074  13.864   1.353
12020W        W84445  44.375  35.476  12.331
12021W        W84446   0.345  19.208   3.774
12022W        W84447  18.169  40.798  13.442
12023W        W84448  17.757  18.595  12.075
12024W        W84449  24.510  33.865  13.941
12025W        W84450  21.016  39.422  12.017
12026W        W84451  35.065  43.072  11.175
12027W        W84452  38.499   5.278  11.130
12028W        W84453   0.671  27.595  11.589
12029W        W84454  18.887   6.253  14.227
12030W        W84455  40.796  17.794  12.881
12031W        W84456   6.510  25.598   1.754
12032W        W84457   0.893  19.884  14.256
12033W        W84458  35.773   7.069   1.712
12034W        W84459  25.632  10.371   0.876
12035W        W84460  17.510  36.409   0.286
12036W        W84461  14.244   0.186  11.927
12037W        W84462  43.446  43.079   3.237
12038W        W84463  10.167  23.919   3.537
12039W        W84464  25.500  22.043   0.420
12040W        W84465  26.469   8.255   1.863
12041W        W84466  22.523  40.357   0.717
12042W        W84467   2.940  29.876   3.423
12043W        W84468   5.126   5.444  11.531
12044W        W84469  31.732  42.996  10.643
12045W        W84470   1.354  25.240  11.711
12046W        W84471  39.809  14.570   3.212
12047W        W84472  18.279  38.510   1.223
12048W        W84473  31.965  34.541   0.836
12049W        W84474  37.029  22.727   0.022
12050W        W84475  29.714  34.396  10.719
12051W        W84476  36.856   5.204   1.921
12052W        W84477  10.851  22.153  10.979
12053W        W84478  14.188  16.658  12.368
12054W        W84479   6.000  37.496   2.387
12055W        W84480  41.563  15.718   4.613
12056W        W84481   8.728  25.207  10.432
12057W        W84482  31.722  17.785   0.251
12058W        W84483  37.806  38.862   0.064
12059W        W84484  24.460  27.667   3.852
12060W        W84485   4.359   1.283  13.917
12061W        W84486  23.964  37.046  12.596
12062W        W84487  21.442  11.208  13.300
12063W        W84488  27.969  21.041   2.299
12064W        W84489  41.391   8.277  12.656
12065W        W84490  10.531   1.393  14.696
12066W        W84491  42.074  36.377   2.432
12067W        W84492  37.140  44.339   2.315
12068W        W84493  41.249   4.084   4.169
12069W        W84494   3.198  21.029  11.928
12070W        W84495  42.942  15.582  12.556
12071W        W84496  23.498  24.121  10.370
12072W        W84497   5.617  24.235   0.894
12073W        W84498  33.871  11.057   1.270
12074W        W84499  26.389  18.751   4.600
12075W        W84500   1.736  13.427   1.202
12076W        W84501  34.497  15.303  12.094
12077W        W84502  42.104  38.464  14.857
12078W        W84503  39.031  13.147   0.207
12079W        W84504  26.780  29.205  11.063
12080W        W84505  31.372  28.666  14.199
12081W        W84506   8.299  35.085  11.083
12082W        W84507  18.224  33.680  12.494
12083W        W84508  14.336  36.565   0.724
12084W        W84509  36.917  27.584   2.650
12085W        W84510  10.442  19.256   4.400
12086W        W84511  28.558   2.355  12.370
12087W        W84512   0.533   9.845   2.879
12088W        W84513   8.248  13.818  14.413
12089W        W84514  39.949  16.123   1.016
12090W        W84515   0.051  43.527  14.070
12091W        W84516  44.373  36.930   1.305
12092W        W84517   3.202   7.916   3.861
12093W        W84518  13.053  14.769   0.769
12094W        W84519  43.796  13.656   4.321
12095W        W84520   5.292   6.750   3.864
12096W        W84521  34.173  30.047   4.675
12097W        W84522  11.443  44.721  12.095
12098W        W84523  27.332  22.562  13.852
12099W        W84524  28.586  34.125   9.820
12100W        W84525  22.933   6.342   2.723
12101W        W84526  31.579   3.129  12.025
12102W        W84527   5.282  23.537  13.811
12103W        W84528  31.012   2.741  11.029
12104W        W84529  25.983  33.992   4.212
12105W        W84530   5.535  18.530  12.591
12106W        W84531  29.600  15.284   4.889
12107W        W84532  12.860  36.309   3.710
12108W        W84533  15.166   2.949   3.764
12109W        W84534  31.036  44.816   4.507
12110W        W84535  18.774  24.763  13.350
12111W        W84536   2.139  21.432   9.862
12112W        W84537  21.104  21.521   2.642
12113W        W84538   6.283  15.467  14.050
12114W        W84539  16.110  42.786  11.598
12115W        W84540  23.555   7.461  10.925
12116W        W84541  36.945  31.619  14.600
12117W        W84542  44.373  23.771  11.141
12118W        W84543  22.949  12.324  11.668
12119W        W84544  14.686   0.568   0.056
12120W        W84545   0.829  13.144  13.331
12121W        W84546  17.094  34.243   0.346
12122W        W84547  27.169  41.989  11.183
12123W        W84548   4.954  31.735   2.300
12124W        W84549  36.434  20.681  11.960
12125W        W84550  39.141   3.236  13.945
12126W        W84551   4.406  37.988   2.275
12127W        W84552  42.922  16.338   3.051
12128W        W84553  26.831  14.615  11.971
12129W        W84554  32.922  35.826   3.135
12130W        W84555  18.307   3.230   0.758
12131W        W84556  10.944  28.227   2.792
12132W        W84557  36.898  19.723  13.883
12133W        W84558   0.319  18.549   4.034
12134W        W84559  41.903   9.597   0.744
12135W        W84560  26.570  42.593   3.702
12136W        W84561  16.695  31.238   2.935
12137W        W84562   7.669  25.678   2.803
12138W        W84563  40.150  16.687  11.263
12139W        W84564  33.026  43.298   3.367
12140W        W84565  21.408   7.762  11.524
12141W        W84566  12.685  40.469  12.904
12142W        W84567   0.428  11.322   4.454
12143W        W84568  32.352   4.368  13.579
12144W        W84569  40.764  17.822   0.412
12145W        W84570  38.698  27.632   1.598
12146W        W84571  18.718   2.522   5.127
12147W        W84572  31.141  26.161   3.789
12148W        W84573  12.284  29.283   1.268
12149W        W84574   5.234  29.625   1.727
12150W        W84575   4.229  13.185   1.568
12151W        W84576  36.375  26.598  13.333
12152W        W84577  30.030   1.441   2.580
12153W        W84578   7.240   0.929  13.110
12154W        W84579  17.882   4.116   0.481
12155W        W84580  38.184  30.199  12.114
12156W        W84581  36.270  22.726  11.066
12157W        W84582  27.623  18.621  12.975
12158W        W84583  29.300   9.711   4.714
12159W        W84584  29.499  38.262   0.353
12160W        W84585   8.147  10.866   1.402
12161W        W84586  23.292  27.838   0.514
12162W        W84587  26.122  35.507  13.870
12163W        W84588  10.711  14.618   0.673
12164W        W84589  34.007  33.563  10.284
12165W        W84590  14.960  23.892  12.963
12166W        W84591  44.021   9.592   0.329
12167W        W84592  21.116   0.202  14.927
12168W        W84593   3.406  35.398  14.908
12169W        W84594   0.005   3.323  14.792
12170W        W84595  41.022   1.354  11.575
12171W        W84596   6.798  35.835  10.984
12172W        W84597  13.891  13.572   4.338
12173W        W84598  34.264  32.588   2.548
12174W        W84599  41.799   8.836   0.154
12175W        W84600  34.469  15.673   2.844
12176W        W84601  30.546  32.554  13.443
12177W        W84602  25.481  18.497   4.685
12178W        W84603  28.052  29.523  11.991
12179W        W84604   1.470  27.109   1.595
12180W        W84605   1.347   5.603   3.710
12181W        W84606   6.479  30.017  11.619
12182W        W84607  21.447  10.518  12.095
12183W        W84608  22.288  36.475  12.150
12184W        W84609   0.730   3.974  11.081
12185W        W84610  23.249  15.352   0.856
12186W        W84611   0.352  16.556  14.027
12187W        W84612  10.785   5.769   0.726
12188W        W84613  28.720  29.589  13.912
12189W        W84614  16.187  35.874  10.848
12190W        W84615   2.375   4.554   2.830
12191W        W84616  29.789   7.793  13.984
12192W        W84617   6.312  20.757   3.134
12193W        W84618   8.483  23.762   9.911
12194W        W84619  39.241  44.532   2.744
12195W        W84620  30.587  44.015   4.043
12196W        W84621  25.749  42.911   2.674
12197W        W84622  27.153  15.473   2.905
12198W        W84623  22.919   2.897  11.227
12199W        W84624  30.041  15.878   3.277
12200W        W84625  20.762   2.883  12.095
12201W        W84626  26.009  41.230  12.651
12202W        W84627  15.305   3.619   3.207
12203W        W84628   8.260  39.077  11.919
12204W        W84629   2.815  35.657  12.972
12205W        W84630   0.044   2.367   0.225
12206W        W84631  28.391  34.605  14.003
12207W        W84632  22.924  33.863   4.176
12208W        W84633  32.877  43.904   2.675
12209W        W84634  31.361   3.782   4.338
12210W        W84635  31.604   3.865   0.940
12211W        W84636   8.974  33.376   0.699
12212W        W84637  31.968  13.928   4.582
12213W        W84638  24.388  33.010   4.160
12214W        W84639  24.454  14.807  10.748
12215W        W84640   4.778  29.910   4.776
12216W        W84641   2.419  30.637   2.253
12217W        W84642   3.425  22.789  13.965
12218W        W84643  39.442   8.368   3.646
12219W        W84644   7.516  35.155  13.369
12220W        W84645   7.011   8.775   0.814
12221W        W84646  34.856  33.416  14.840
12222W        W84647  44.084  12.078  14.714
12223W        W84648  32.221   0.720   1.288
12224W        W84649  44.914  24.216  10.610
12225W        W84650  39.082  16.050  11.194
12226W        W84651   6.265  38.877   2.240
12227W        W84652  20.860  17.995  14.329
12228W        W84653  28.530   4.766   1.867
12229W        W84654  20.515  44.272  14.976
12230W        W84655  35.191   0.510   4.165
12231W        W84656   3.870  20.131   4.972
12232W        W84657  43.747  38.790  10.644
12233W        W84658  42.297  34.325   1.210
12234W        W84659  41.588  30.948  12.115
12235W        W84660  36.053  24.949   3.114
12236W        W84661  20.811  37.372  12.491
12237W        W84662  26.626  27.203  13.728
12238W        W84663  31.333  23.163   2.932
12239W        W84664  14.688  34.107  14.032
12240W        W84665  19.552  28.979   3.304
12241W        W84666   4.520   6.279   3.978
12242W        W84667  18.048  26.552  13.897
12243W        W84668  18.041  42.353  11.557
12244W        W84669  11.638  25.703  14.021
12245W        W84670  26.504  36.534   1.935
12246W        W84671  10.585  38.497   2.922
12247W        W84672   1.284   3.653   4.787
12248W        W84673  30.596  27.088   4.260
12249W        W84674  29.765   0.719   0.928
12250W        W84675   2.264  11.248   0.933
12251W        W84676  25.748  18.534  14.933
12252W        W84677   0.339   5.617  13.343
12253W        W84678  21.463   6.087   3.578
12254W        W84679  10.558  14.773  13.929
12255W        W84680  25.534   0.778   2.310
12256W        W84681   8.291   4.493  14.296
12257W        W84682  15.866  16.817   3.240
12258W        W84683  18.277   1.688  11.121
12259W        W84684   9.542  44.311   4.166
12260W        W84685  18.788  36.508   4.055
12261W        W84686   5.655  29.467   1.465
12262W        W84687  42.051   2.647   2.920
12263W        W84688  38.032  13.014   0.440
12264W        W84689  41.774  18.724  14.439
12265W        W84690   7.146  35.335   1.675
12266W        W84691  30.597   0.249  11.710
12267W        W84692  31.082  12.344   0.908
12268W        W84693   9.011   4.818   2.392
12269W        W84694   3.331   9.891  11.883
12270W        W84695  24.010  19.701   4.600
12271W        W84696  43.019  15.807   4.275
12272W        W84697   6.091  36.491   2.853
12273W        W84698  38.342  41.490  10.501
12274W        W84699  25.943  38.909  11.608
12275W        W84700   2.679  32.139  12.055
12276W        W84701  11.120  39.104  13.506
12277W        W84702  32.389   2.585  10.885
12278W        W84703  25.275   9.726   1.648
12279W        W84704  23.510  39.592   0.410
12280W        W84705  33.107  23.028  10.669
12281W        W84706  14.785  24.497   0.907
12282W        W84707   8.596  42.651  12.485
12283W        W84708  34.653   5.978  13.920
12284W        W84709   9.131   6.946  14.871
12285W        W84710   4.698  15.920   4.478
12286W        W84711  18.654  40.398   3.893
12287W        W84712  39.973  41.423   3.731
12288W        W84713  34.148  14.319   0.046
12289W        W84714  23.960   4.135  14.886
12290W        W84715  26.519   2.321  13.409
12291W        W84716   8.680   6.177  13.867
12292W        W84717  17.736  33.905  10.128
12293W        W84718   2.783  26.403  14.281
12294W        W84719   1.264  19.134   4.724
12295W        W84720  19.361  40.904   0.083
12296W        W84721  38.826  26.005  11.548
12297W        W84722  30.902  25.028   0.025
12298W        W84723  41.733  22.725   1.792
12299W        W84724   4.195   0.840  10.738
12300W        W84725  38.978  17.432   4.638
12301W        W84726  19.042  18.392  13.495
12302W        W84727  33.870  34.882   5.037
12303W        W84728  23.108  37.599   3.657
12304W        W84729  33.506  30.011  10.382
12305W        W84730  43.477  28.931   0.258
12306W        W84731  15.333  35.418   3.141
12307W        W84732  27.138  41.763  12.156
12308W        W84733  16.581  25.250  11.533
12309W        W84734  19.314  14.700  12.137
12310W        W84735  25.877  24.113  10.597
12311W        W84736   8.411  19.287  10.445
12312W        W84737  41.248  37.531   5.138
12313W        W84738   5.225  32.372   4.783
12314W        W84739  32.972  21.954   0.915
12315W        W84740  42.275  44.505  11.425
12316W        W84741  41.145  12.206   3.225
12317W        W84742   6.319  21.252  10.753
12318W        W84743   6.476  43.993  12.944
12319W        W84744  25.213  31.601  11.237
12320W        W84745  19.038  25.848   1.441
12321W        W84746   6.959  43.204  13.578
12322W        W84747  12.316   2.043   0.701
12323W        W84748  21.590  36.671  14.650
12324W        W84749  17.878  24.165   1.272
12325W        W84750  43.896  39.830  14.855
12326W        W84751   0.197  33.685  12.506
12327W        W84752  16.114  26.460   2.606
12328W        W84753  23.290  27.130  11.142
12329W        W84754   4.355  42.875   0.018
12330W        W84755  42.046  30.458   2.191
12331W        W84756   7.050  22.572  12.067
12332W        W84757  10.168  37.369  10.632
12333W        W84758  34.834   6.286  14.293
12334W        W84759  37.283  19.740   2.841
12335W        W84760  26.007  31.968  11.998
12336W        W84761   8.590   5.794  10.596
12337W        W84762  40.883   0.952   2.344
12338W        W84763  41.943  17.205   2.092
12339W        W84764  21.473   8.416   4.145
12340W        W84765   3.683  40.062   1.399
12341W        W84766   6.236  31.908   2.694
12342W        W84767   8.979  43.346   0.858
12343W        W84768  23.774  15.845   4.333
12344W        W84769  24.263  25.528  13.570
12345W        W84770   7.372  44.136  13.067
12346W        W84771   0.243  21.943   4.129
12347W        W84772   1.983  20.608   1.730
12348W        W84773  31.468  42.057   2.604
12349W        W84774   6.190   4.112  14.014
12350W        W84775  36.057  13.230   2.670
12351W        W84776  25.236  33.936   1.814
12352W        W84777  16.469  39.959   2.953
12353W        W84778  24.234  16.773   3.186
12354W        W84779  36.968  40.574  12.468
12355W        W84780  16.353   1.001   1.847
12356W        W84781  43.989   3.378   0.355
12357W        W84782  38.039  34.667  13.363
12358W        W84783  43.476  32.872  13.445
12359W        W84784  20.131  34.743  13.106
12360W        W84785   6.054  15.621   3.707
12361W        W84786  14.324   6.430  12.972
12362W        W84787  13.853  42.085  11.905
12363W        W84788  21.076  21.693   0.359
12364W        W84789  10.024  42.743  14.665
12365W        W84790  38.467   8.752  10.855
12366W        W84791  14.035  21.443   5.086
12367W        W84792  33.018  10.352   4.905
12368W        W84793  31.087  33.161   3.594
12369W        W84794  33.985  30.693  13.056
12370W        W84795  18.767  17.211   3.945
12371W        W84796  38.794   7.672   1.006
12372W        W84797   8.926   5.309  13.334
12373W        W84798   0.405  23.311  14.709
12374W        W84799  34.483  35.021   3.139
12375W        W84800  13.245  10.743  11.027
12376W        W84801  33.668  41.680   0.962
12377W        W84802  29.686  39.081  12.404
12378W        W84803  10.604  19.029   3.314
12379W        W84804  34.018   9.347   2.933
12380W        W84805   8.882   8.355  13.424
12381W        W84806  35.637  22.764   0.809
12382W        W84807  14.126  19.174   1.408
12383W        W84808  40.545  27.684   3.609
12384W        W84809  19.689  32.363  13.513
12385W        W84810  41.890  44.058  13.457
12386W        W84811   0.205  16.101  13.846
12387W        W84812   7.573  34.546   5.452
12388W        W84813  15.757  23.909   3.928
12389W        W84814  40.697  17.188   5.152
12390W        W84815  30.712  14.598  11.181
12391W        W84816  42.665  29.724   0.177
12392W        W84817  32.804  14.746   1.051
12393W        W84818  14.890  44.330  10.151
12394W        W84819   6.651  37.123  13.779
12395W        W84820  17.124  42.790  12.206
12396W        W84821  26.322  16.393   1.799
12397W        W84822  42.904   0.717  11.934
12398W        W84823   1.638   8.187  13.557
12399W        W84824  23.075  25.598  14.243
12400W        W84825  42.475   4.732   0.888
12401W        W84826  36.418  32.246   1.839
12402W        W84827  22.287  41.309   0.394
12403W        W84828  41.941  16.250   3.118
12404W        W84829  10.138   8.967   1.897
12405W        W84830  17.066   8.877   3.687
12406W        W84831   9.868  10.979  13.370
12407W        W84832  40.255  30.740   0.765
12408W        W84833  11.372  39.085   3.863
12409W        W84834  44.613  42.491  11.997
12410W        W84835   3.519   5.932   1.447
12411W        W84836  30.144  44.197  13.580
12412W        W84837   8.835  28.130  12.939
12413W        W84838  12.679  15.028  13.350
12414W        W84839   2.872  30.581   0.661
12415W        W84840  25.216  17.805   3.653
12416W        W84841  35.930  25.998   4.894
12417W        W84842   4.922  11.280   4.279
12418W        W84843  10.934  24.621   0.951
12419W        W84844  40.833  13.551  11.882
12420W        W84845  24.938  35.794  11.595
12421W        W84846   1.441  27.323  11.742
12422W        W84847  39.557  29.055   4.404
12423W        W84848  23.300   9.971  14.381
12424W        W84849  17.975  44.310   3.355
12425W        W84850  28.294  16.063  11.534
12426W        W84851  10.854   5.587   9.886
12427W        W84852  31.304   2.509   2.968
12428W        W84853  30.260   9.029   2.491
12429W        W84854  40.807  29.403  12.883
12430W        W84855  23.116  25.011   4.529
12431W        W84856  31.503  43.322   4.420
12432W        W84857  25.189  36.923  13.415
12433W        W84858  12.345  36.665   2.335
12434W        W84859  32.399  40.816  11.416
12435W        W84860  42.268  37.001  12.454
12436W        W84861  31.566   6.673  11.221
12437W        W84862  31.855  33.669  11.935
12438W        W84863  44.026  41.036   1.743
12439W        W84864   7.607   1.375   1.726
12440W        W84865  14.476  18.078  11.352
12441W        W84866  15.259  41.922   1.084
12442W        W84867   1.329  23.687   1.521
12443W        W84868  16.174  39.722   2.109
12444W        W84869   7.931  31.130  14.223
12445W        W84870  13.051  43.017  14.491
12446W        W84871  22.934  26.539  14.959
12447W        W84872   5.020  21.180  12.180
12448W        W84873   5.704  38.091  13.840
12449W        W84874   5.698  22.695   3.679
12450W        W84875  12.683  16.644   3.246
12451W        W84876  27.232  34.033  14.489
12452W        W84877  17.616   0.466   2.387
12453W        W84878  16.512   7.296   1.713
12454W        W84879  42.486  33.833   0.355
12455W        W84880  16.603  27.598   2.109
12456W        W84881  24.492   9.179   0.312
12457W        W84882  14.620  10.307  11.913
12458W        W84883  21.204  34.979   1.722
12459W        W84884  35.549  11.190  11.409
12460W        W84885  34.686  22.074   2.670
12461W        W84886  30.337   7.156   2.591
12462W        W84887   1.396  37.452   4.648
12463W        W84888  40.510  11.241   3.936
12464W        W84889  11.302  41.539   3.837
12465W        W84890  30.036  31.558  12.656
12466W        W84891  27.876   4.756  13.956
12467W        W84892   0.391  21.621   4.532
12468W        W84893  44.420   2.505   4.710
12469W        W84894  31.577  32.199  13.921
12470W        W84895  43.362  26.479  12.898
12471W        W84896  12.519  44.906  12.180
12472W        W84897   6.278  37.592  12.103
12473W        W84898   3.647  35.150   4.660
12474W        W84899  11.861  11.573  13.876
12475W        W84900  42.402   9.235   2.713
12476W        W84901   2.651  22.202   4.275
12477W        W84902   2.999  22.663   3.204
12478W        W84903  36.824  42.491   2.871
12479W        W84904  22.060   0.296  12.568
12480W        W84905  20.734  10.360  14.269
12481W        W84906  29.394  30.886   5.446
12482W        W84907  28.537  25.402   1.902
12483W        W84908  37.377   0.053   2.263
12484W        W84909  19.183  25.311   1.452
12485W        W84910  32.358  30.367   2.095
12486W        W84911  33.992  13.852  10.768
12487W        W84912  17.040  17.995   3.854
12488W        W84913   9.133  16.780   1.277
12489W        W84914  12.583   9.458  11.713
12490W        W84915  10.004  21.086  11.480
12491W        W84916   4.157  13.694   4.376
12492W        W84917  40.471   8.091  14.967
12493W        W84918  10.860  18.009   0.652
12494W        W84919   7.311  16.800   2.285
12495W        W84920  16.684   8.319  12.782
12496W        W84921   9.192  44.777   1.292
12497W        W84922  10.200  41.029   2.634
12498W        W84923  21.227   1.959   5.143
12499W        W84924  10.342  14.749  13.456
12500W        W84925  43.902  41.939   2.723
12501W        W84926  28.039  34.986  12.836
12502W        W84927  12.613  37.289   3.959
12503W        W84928  16.154  27.448   2.823
12504W        W84929   0.451  18.805   0.045
12505W        W84930  12.209  13.978   1.220
12506W        W84931  17.752  27.013  14.810
12507W        W84932   2.908   4.672   4.041
12508W        W84933   0.310  15.608   0.186
12509W        W84934  14.432   0.154   0.287
12510W        W84935  19.824  41.152  10.461
12511W        W84936   2.886  12.913   1.108
12512W        W84937  13.712  25.130   5.432
12513W        W84938  20.675   5.775  13.838
12514W        W84939  25.526  23.445  11.124
12515W        W84940   1.872  31.710   2.782
12516W        W84941  29.392  34.805  11.598
12517W        W84942  42.980  12.420   4.159
12518W        W84943  23.759  16.712  14.274
12519W        W84944  16.168   3.237   4.536
12520W        W84945   0.450  28.334   2.158
12521W        W84946  17.583  37.775  11.141
12522W        W84947  19.626  11.149   3.846
12523W        W84948  38.463   5.734  12.400
12524W        W84949  13.745  23.786  10.246
12525W        W84950  29.593  41.321  14.172
12526W        W84951  35.866  11.426  13.394
12527W        W84952  24.572   1.506   0.440
12528W        W84953  12.722  11.690  14.875
12529W        W84954   2.181  39.683   2.365
12530W        W84955  17.325  19.148   4.281
12531W        W84956  16.353   1.786  12.155
12532W        W84957  29.604  15.366  14.032
12533W        W84958  35.724  44.151  11.622
12534W        W84959  29.129  30.015   3.282
12535W        W84960  18.116   2.770   0.899
12536W        W84961  11.463  31.817  11.555
12537W        W84962  25.532   3.345  14.404
12538W        W84963  18.267  29.093   4.900
12539W        W84964  19.074  32.857   4.206
12540W        W84965  34.049   3.996   4.660
12541W        W84966  22.161   6.618  13.006
12542W        W84967  40.909  26.012  10.652
12543W        W84968  35.159   0.646   2.708
12544W        W84969  40.007  41.465   1.886
12545W        W84970  29.920  26.245   0.937
12546W        W84971  10.889  43.048   0.953
12547W        W84972   0.066  23.360   2.472
12548W        W84973  24.668   8.632  11.067
12549W        W84974  13.785  32.058   0.264
12550W        W84975  44.608   2.147   1.042
12551W        W84976  35.540   3.829   1.315
12552W        W84977  39.431  10.221   4.913
12553W        W84978  21.179  42.613   1.350
12554W        W84979  37.816  37.027   0.634
12555W        W84980   6.675  44.612   1.338
12556W        W84981  12.222  42.867  11.225
12557W        W84982  42.451   4.427  13.874
12558W        W84983  28.109  25.968  14.275
12559W        W84984   5.802  41.302  11.579
12560W        W84985  30.415  20.213  11.407
12561W        W84986  27.474   3.374  10.648
12562W        W84987  39.035   4.954  12.575
12563W        W84988  36.395  36.768   2.604
12564W        W84989  20.154  14.124  13.834
12565W        W84990  11.861   8.391   9.885
12566W        W84991  12.593  33.398  10.789
12567W        W84992  31.634   2.822  13.492
12568W        W84993  10.696  28.732   1.820
12569W        W84994  19.504  42.729   3.559
12570W        W84995  30.051  10.415  13.059
12571W        W84996  42.641  38.730  13.937
12572W        W84997   9.782  38.489   2.474
12573W        W84998  19.661   1.307   4.368
12574W        W84999  28.677  27.087  13.447
12575W        W85000   4.768  43.013   4.623
12576W        W85001   5.165  42.385  11.305
12577W        W85002  29.810  19.572   4.975
12578W        W85003  29.391   5.230  11.527
12579W        W85004   0.270  29.763  14.425
12580W        W85005  25.073  34.619  14.296
12581W        W85006  20.192  40.339  13.090
12582W        W85007  31.410  33.045   3.186
12583W        W85008  13.812  42.505  12.641
12584W        W85009  20.618  37.831  14.775
12585W        W85010  27.586   5.048  14.310
12586W        W85011  27.283  13.194   2.293
12587W        W85012  15.865  29.533  10.297
12588W        W85013  40.394  28.978   2.431
12589W        W85014  37.111   5.581   3.735
12590W        W85015  17.250  11.759   1.489
12591W        W85016  31.170  13.128  14.359
12592W        W85017   7.661  20.966   3.223
12593W        W85018  18.038   1.093   0.533
12594W        W85019   4.313  17.601  12.780
12595W        W85020   3.917  23.163   4.480
12596W        W85021  21.776  36.793   3.666
12597W        W85022  21.513  34.079   2.055
12598W        W85023  42.553  28.535   2.303
12599W        W85024  44.531  15.833  14.724
12600W        W85025   4.858  21.021   0.926
12601W        W85026  41.939  30.889  12.896
12602W        W85027  36.190  22.531   3.350
12603W        W85028  40.122   9.347   4.192
12604W        W85029  11.453   2.860  11.655
12605W        W85030   7.026  32.347   3.284
12606W        W85031  24.489  35.327  11.622
12607W        W85032  23.932  36.845  13.069
12608W        W85033  23.098  14.614  14.537
12609W        W85034   2.044  27.624   0.598
12610W        W85035  41.841   7.277  14.279
12611W        W85036  33.984  27.612  14.937
12612W        W85037  17.268  42.247  10.997
12613W        W85038  35.364  21.775  12.706
12614W        W85039   4.737  23.686   4.594
12615W        W85040   6.155  38.445  12.988
12616W        W85041  44.261   6.548  14.662
12617W        W85042   9.667  17.819  14.398
12618W        W85043  16.681  32.826   0.413
12619W        W85044   7.139   0.341  11.675
12620W        W85045  31.618  32.545  11.977
12621W        W85046  12.070  23.167  10.145
12622W        W85047   9.903  14.598   4.583
12623W        W85048  39.358   2.927  11.951
12624W        W85049  15.228  26.598  10.759
12625W        W85050  22.228  31.437  12.011
12626W        W85051  39.433  29.543   0.896
12627W        W85052  27.703  39.899   2.789
12628W        W85053  28.908  36.532   1.808
12629W        W85054  20.207  25.661  13.564
12630W        W85055   0.472   6.875   0.506
12631W        W85056  24.456  22.429   2.667
12632W        W85057  29.966  13.837  13.873
12633W        W85058  34.888  31.490   2.790
12634W        W85059  21.076  21.232   0.661
12635W        W85060   2.174  42.870  13.503
12636W        W85061  33.859  26.157   4.017
12637W        W85062   6.251   8.971   1.276
12638W        W85063  29.113  28.145   1.029
12639W        W85064  28.522  44.693  12.536
12640W        W85065  22.189   7.984  14.057
12641W        W85066  19.626   7.627   2.973
12642W        W85067   4.655  31.065  12.381
12643W        W85068  34.177  10.197   0.258
12644W        W85069   3.787   1.720  11.166
12645W        W85070  33.004   5.420  13.562
12646W        W85071  27.730  33.003   0.852
12647W        W85072   0.837   6.244   3.570
12648W        W85073  33.906  42.459   0.705
12649W        W85074  33.096  35.807  13.415
12650W        W85075   1.813  30.684   2.907
12651W        W85076   9.352  44.363   4.663
12652W        W85077  24.490  31.502   1.810
12653W        W85078  19.336   0.111   5.050
12654W        W85079   1.899  30.643   2.401
12655W        W85080  33.236  27.637  12.449
12656W        W85081  29.467  26.677  10.684
12657W        W85082  34.111  19.684  10.755
12658W        W85083  11.129   0.363   0.421
12659W        W85084  15.119   4.185  11.608
12660W        W85085  28.918   9.299   3.540
12661W        W85086  39.812  40.128  11.043
12662W        W85087  43.850  37.544   2.381
12663W        W85088  21.234  10.639   4.594
12664W        W85089  30.341  19.962   2.729
12665W        W85090   4.389  19.688  13.597
12666W        W85091  28.916  44.506  10.699
12667W        W85092  31.114  38.419  13.871
12668W        W85093  36.161  41.910   2.656
12669W        W85094  32.305   9.392   4.099
12670W        W85095  31.017  25.518   4.425
12671W        W85096   0.878  38.172   1.417
12672W        W85097  15.276  17.162   2.799
12673W        W85098  28.219   3.348  13.010
12674W        W85099  28.189  22.547  13.468
12675W        W85100  44.501  12.373  14.902
12676W        W85101  35.865   5.261   1.931
12677W        W85102  42.802  29.721   1.661
12678W        W85103  12.020  11.626   4.122
12679W        W85104  33.423  18.614  14.867
12680W        W85105  17.727  44.628  10.725
12681W        W85106  22.249   3.697   0.519
12682W        W85107  18.668  34.920   3.643
12683W        W85108  26.110  41.963   4.782
12684W        W85109  32.305  28.165  14.863
12685W        W85110  29.403   8.255   3.703
12686W        W85111  17.359  42.453  14.430
12687W        W85112   8.428  41.482   0.446
12688W        W85113  41.733   6.814  13.330
12689W        W85114   2.823  25.373  14.468
12690W        W85115  37.136  31.071   1.259
12691W        W85116  28.967  11.756   2.921
12692W        W85117   7.322  40.805   3.248
12693W        W85118  40.023  18.583   2.773
12694W        W85119  30.955  21.109  12.549
12695W        W85120  21.988  32.953  10.677
12696W        W85121  43.920  15.580  13.351
12697W        W85122  15.186   8.808  11.472
12698W        W85123  30.215  39.505  14.134
12699W        W85124  14.355  15.105   3.768
12700W        W85125   2.143  13.533   0.831
12701W        W85126   8.162  10.252   2.738
12702W        W85127  30.576  36.435   0.533
12703W        W85128  38.476  22.533  10.336
12704W        W85129  23.748  42.729   2.705
12705W        W85130   0.602  40.971  12.375
12706W        W85131   5.062  20.157  12.521
12707W        W85132  25.025  31.360   3.034
12708W        W85133  11.727  22.056  11.382
12709W        W85134  20.675   4.672  13.888
12710W        W85135  11.289  24.693   4.580
12711W        W85136  36.505  25.801   9.898
12712W        W85137   7.621   8.853  11.274
12713W        W85138  26.898   8.712  10.513
12714W        W85139   7.337   7.273  12.394
12715W        W85140  13.712   0.796   3.201
12716W        W85141   7.405  20.069  10.986
12717W        W85142  41.119  31.156   3.662
12718W        W85143  25.138   4.491  10.992
12719W        W85144   5.111  38.019   4.429
12720W        W85145  17.334  16.646   0.375
12721W        W85146  20.720  19.754   4.782
12722W        W85147  30.659  38.612   2.710
12723W        W85148   7.501  37.349   1.236
12724W        W85149  15.660   9.299   0.844
12725W        W85150  42.370   1.056  11.713
12726W        W85151  28.377  16.813   4.864
12727W        W85152   8.995  26.248   1.638
12728W        W85153  44.789  13.931   3.226
12729W        W85154  33.190  13.682  11.122
12730W        W85155   7.343  44.806  11.644
12731W        W85156  16.819  16.070   1.755
12732W        W85157  23.006  26.248   4.693
12733W        W85158  22.433   2.007  12.574
12734W        W85159  11.531  19.382  12.252
12735W        W85160  44.062  12.376   3.276
12736W        W85161  23.229  35.558  12.089
12737W        W85162  37.415  36.906  14.819
12738W        W85163   6.663  28.441   1.339
12739W        W85164  22.215  12.647  13.349
12740W        W85165  43.489  23.923   3.080
12741W        W85166  39.058  42.776   0.370
12742W        W85167  44.478  35.421   4.386
12743W        W85168  18.808  34.388  11.493
12744W        W85169  23.499   6.866   0.333
12745W        W85170   0.230   8.895   2.885
12746W        W85171  35.571   1.447   2.687
12747W        W85172  10.901  30.247  14.278
12748W        W85173   2.042   5.721   1.359
12749W        W85174  23.147  24.905   1.875
12750W        W85175  13.731   0.322  14.840
12751W        W85176  27.523   0.853   1.870
12752W        W85177  13.562  14.859   2.846
12753W        W85178  42.301  44.721  12.575
12754W        W85179  16.100  20.959  13.198
12755W        W85180  15.792   4.396  14.316
12756W        W85181   3.505  28.014  13.918
12757W        W85182   0.507  31.723   4.634
12758W        W85183  20.008   4.629   1.723
12759W        W85184  15.299  38.486   1.165
12760W        W85185  14.520  10.552   5.055
12761W        W85186  29.664  14.961   2.479
12762W        W85187  26.215   9.202   1.603
12763W        W85188  20.543   2.266  14.429
12764W        W85189  40.294  21.074   0.681
12765W        W85190   7.147   2.337  13.436
12766W        W85191  30.884   1.811   3.891
12767W        W85192  44.423  29.637  11.102
12768W        W85193   8.736   2.778  12.521
12769W        W85194   8.276  34.965   1.081
12770W        W85195  35.397   7.175  12.698
12771W        W85196  36.975  38.647   3.866
12772W        W85197   2.590  39.882  13.549
12773W        W85198  29.219   3.236   4.062
12774W        W85199  30.101   7.420  13.068
12775W        W85200  42.783  34.119   1.782
12776W        W85201  34.571  41.892   0.290
12777W        W85202  19.692  30.713   4.815
12778W        W85203  15.876  12.555  11.661
12779W        W85204  13.179  26.101   3.938
12780W        W85205   6.185   3.350  14.618
12781W        W85206  22.259  30.524   2.740
12782W        W85207   7.209  22.027   3.002
12783W        W85208   6.424  36.608   4.280
12784W        W85209  18.067   5.835   0.755
12785W        W85210   8.400   6.525   9.838
12786W        W85211   3.083  12.443   0.484
12787W        W85212   6.210  20.024  13.393
12788W        W85213  22.622  15.976   1.772
12789W        W85214  16.252  21.813   3.575
12790W        W85215  32.975  22.684  14.431
12791W        W85216  13.673  16.399   3.024
12792W        W85217   9.132  21.601  12.499
12793W        W85218   7.818   1.179   0.348
12794W        W85219   6.458  15.141  14.878
12795W        W85220  42.303  22.272   2.396
12796W        W85221   9.692  35.150   4.697
12797W        W85222   3.946   7.334  12.919
12798W        W85223  44.362  33.597   3.220
12799W        W85224  35.385   2.387   4.150
12800W        W85225  11.846  20.487  13.617
12801W        W85226  44.242  34.302  13.991
12802W        W85227   9.778  40.401   0.014
12803W        W85228  29.772  30.491  13.547
12804W        W85229  14.014   1.595  11.531
12805W        W85230  15.177  15.234   1.826
12806W        W85231  18.651  38.470   4.436
12807W        W85232   0.387  30.904  11.657
12808W        W85233  31.439  44.937  14.881
12809W        W85234   0.391  43.486   0.946
12810W        W85235  14.692   2.212   2.484
12811W        W85236  24.215  37.558   0.814
12812W        W85237   0.789  31.638   0.845
12813W        W85238  29.419  39.946  10.450
12814W        W85239  36.361   4.394  13.582
12815W        W85240   7.646   6.315  12.377
12816W        W85241   3.330  12.191   4.402
12817W        W85242  42.516  42.323   4.216
12818W        W85243  31.216  36.347   3.630
12819W        W85244  26.129   9.298   4.452
12820W        W85245   4.659  13.725  12.355
12821W        W85246  42.709  27.962   0.687
12822W        W85247  18.636   2.256  13.421
12823W        W85248  29.504  33.090   0.786
12824W        W85249   6.452  26.066   0.764
12825W        W85250  20.268  16.205   0.817
12826W        W85251  13.713  22.109   4.789
12827W        W85252  28.745  32.176  11.128
12828W        W85253  35.390  36.569   1.399
12829W        W85254  37.575  32.553  14.394
12830W        W85255  37.470  22.612   2.768
12831W        W85256  24.486   2.417  13.405
12832W        W85257  22.949  17.143  14.307
12833W        W85258  26.396  16.646  12.126
12834W        W85259   0.723   9.412  10.854
12835W        W85260  40.491  44.488  13.793
12836W        W85261   4.792  20.551  12.708
12837W        W85262  43.974  16.881  10.429
12838W        W85263  40.345   0.840  14.361
12839W        W85264  27.248  38.920  10.675
12840W        W85265  35.961  33.433   4.726
12841W        W85266  36.596  39.459   0.693
12842W        W85267  19.536  24.260  14.556
12843W        W85268  14.543  29.699   2.382
12844W        W85269  19.806   8.964  11.894
12845W        W85270  21.499   1.792   2.324
12846W        W85271  40.595  27.994   0.228
12847W        W85272  29.913  20.749  12.091
12848W        W85273  17.562  28.628   4.823
12849W        W85274  39.537  21.672   2.714
12850W        W85275  16.179  26.134  13.991
12851W        W85276   4.299  18.764   1.450
12852W        W85277  32.323  40.865  14.488
12853W        W85278  12.700  17.301   1.381
12854W        W85279   1.648  14.864   0.856
12855W        W85280  20.322   5.379  10.679
12856W        W85281   0.470  12.418  11.909
12857W        W85282  26.092  41.001   3.140
12858W        W85283  38.416   6.429   2.042
12859W        W85284   9.877  33.934   0.287
12860W        W85285   8.337  37.387  12.615
12861W        W85286  15.391  29.017   0.959
12862W        W85287  35.479  40.828  11.050
12863W        W85288  24.533  10.208  14.063
12864W        W85289  35.330  24.414  12.854
12865W        W85290   9.312  41.728  13.411
12866W        W85291   5.263   3.939   4.530
12867W        W85292   3.960  32.004  10.821
12868W        W85293   5.947  40.348   4.255
12869W        W85294  44.324  33.031   0.258
12870W        W85295  32.012  27.732  12.947
12871W        W85296   6.461  18.049  10.334
12872W        W85297  33.156  34.678   2.083
12873W        W85298  15.164  10.239   1.889
12874W        W85299   6.904  21.052  13.419
12875W        W85300   9.238  13.385  11.950
12876W        W85301  38.493  24.727   5.390
12877W        W85302  18.076   9.315   2.747
12878W        W85303  12.522  31.486  10.709
12879W        W85304  36.737   8.934  10.492
12880W        W85305  10.122  17.604  13.411
12881W        W85306   3.283  44.042   4.218
12882W        W85307  29.532  41.048   0.488
12883W        W85308  34.119  26.728   3.777
12884W        W85309   5.201  16.151   1.356
12885W        W85310   3.509  22.537   5.050
12886W        W85311   8.114  20.073   3.263
12887W        W85312  22.953  42.027  13.058
12888W        W85313   4.344  30.750  11.061
12889W        W85314  28.129  30.855   4.613
12890W        W85315  38.847  35.741   1.689
12891W        W85316  35.415  42.491   2.254
12892W        W85317  12.866  12.178   2.770
12893W        W85318  37.035   0.492  12.451
12894W        W85319  32.566  35.766  13.365
12895W        W85320  23.004   4.870  13.318
12896W        W85321   9.221  36.961   5.456
12897W        W85322  32.623  29.069  13.849
12898W        W85323   7.227  14.815  12.909
12899W        W85324  36.480   2.410  14.895
12900W        W85325   4.144  40.775  10.480
12901W        W85326  11.977  34.351   2.297
12902W        W85327  21.243  19.538   1.395
12903W        W85328  12.646  33.370  12.109
12904W        W85329  24.772  40.516   4.587
12905W        W85330  16.057  33.037   0.803
12906W        W85331  34.369  29.130  12.558
12907W        W85332  29.081  36.967   3.226
12908W        W85333   3.901  21.730   2.139
12909W        W85334  22.188  10.587   2.849
12910W        W85335  12.864  42.377   4.964
12911W        W85336   6.460  18.177   3.667
12912W        W85337  12.212  44.339  11.481
12913W        W85338  14.171  27.067   0.024
12914W        W85339  27.976  19.008  12.356
12915W        W85340  20.695   2.970  13.446
12916W        W85341  43.969   6.629  12.349
12917W        W85342  15.607   4.771  11.138
12918W        W85343  35.445  20.799  14.318
12919W        W85344  21.346  39.909  10.615
12920W        W85345  14.075   2.825  13.305
12921W        W85346  18.264  27.179  12.669
12922W        W85347  37.160  12.818   4.690
12923W        W85348  37.946  18.280  11.163
12924W        W85349  35.551   5.659  11.076
12925W        W85350  43.352  10.850   0.914
12926W        W85351  18.553  41.232   0.501
12927W        W85352  22.733  32.148   0.418
12928W        W85353  44.946  15.879  14.366
12929W        W85354  36.884   9.906  11.045
12930W        W85355   1.537   9.067  13.320
12931W        W85356  11.135  23.407   2.283
12932W        W85357  19.823  22.412   0.860
12933W        W85358  28.399  24.532   3.369
12934W        W85359  33.314  44.736   3.149
12935W        W85360  22.949  10.908  10.236
12936W        W85361  33.036  17.741   2.833
12937W        W85362  37.933  40.832  10.651
12938W        W85363   6.303   5.156   1.293
12939W        W85364  32.065   4.696  13.088
12940W        W85365  17.620  39.783   2.021
12941W        W85366  31.051  12.744   2.117
12942W        W85367  12.268  34.912   1.955
12943W        W85368   0.237  44.038  13.913
12944W        W85369   8.650  20.333  13.933
12945W        W85370   2.161  15.987   3.841
12946W        W85371   0.294  22.588   3.503
12947W        W85372  44.111  12.085   2.844
12948W        W85373   9.379  12.895  12.862
12949W        W85374  25.797  21.633   3.325
12950W        W85375  37.764  16.870   0.874
12951W        W85376  16.089  39.622  11.230
12952W        W85377  43.982  30.646  11.204
12953W        W85378   7.993  16.667  13.980
12954W        W85379   3.907  32.942  11.715
12955W        W85380  40.042  32.486   1.169
12956W        W85381   4.133  26.022  11.982
12957W        W85382  38.084  29.613   1.333
12958W        W85383  35.460  34.574  10.602
12959W        W85384  10.567   7.450  10.380
12960W        W85385  37.576  17.316  13.798
12961W        W85386   4.746  29.221  13.408
12962W        W85387   9.817  23.741   1.185
12963W        W85388   1.696  33.620  12.951
12964W        W85389  44.044   2.295  11.633
12965W        W85390  40.353  40.742   3.323
12966W        W85391  19.349  26.744   0.907
12967W        W85392  32.349  27.366  13.898
12968W        W85393  26.643  12.290   3.739
12969W        W85394   2.021  41.725   1.315
12970W        W85395  22.604   5.932   9.938
12971W        W85396  35.324  21.303  12.943
12972W        W85397  16.273  33.471   2.439
12973W        W85398  41.368  29.095   2.710
12974W        W85399  35.479  28.226  14.232
12975W        W85400  24.993  31.422   1.846
12976W        W85401   7.830  37.635   5.437
12977W        W85402   0.282  40.499  10.599
12978W        W85403  10.905  32.599  12.100
12979W        W85404  31.403  20.507   1.828
12980W        W85405   6.933  24.714  14.753
12981W        W85406  38.071  19.734  12.461
12982W        W85407  38.679  35.069   0.495
12983W        W85408  14.310   5.005  14.187
12984W        W85409  18.560   3.273  11.660
12985W        W85410  43.252  35.777   0.464
12986W        W85411  38.050  28.467   4.702
12987W        W85412  14.793   6.812   4.648
12988W        W85413  15.232  44.216  14.097
12989W        W85414  38.483  11.303   4.794
12990W        W85415   1.164  10.767  11.343
12991W        W85416  30.110  12.614  11.112
12992W        W85417  23.438  21.543  14.979
12993W        W85418  21.269  22.142   2.289
12994W        W85419  26.601  42.809  14.874
12995W        W85420  40.822  35.738  13.093
12996W        W85421   5.848  34.909   1.758
12997W        W85422  11.739  18.415  11.947
12998W        W85423  27.053  16.811   0.813
12999W        W85424  12.360  28.954  13.940
13000W        W85425   5.887   1.191  11.984
13001W        W85426   8.245  43.935  10.306
13002W        W85427  43.472  44.619  10.033
13003W        W85428  13.358  33.959  14.867
13004W        W85429  24.126  10.751  12.171
13005W        W85430  21.816  44.830   2.377
13006W        W85431  42.018   0.142   4.774
13007W        W85432  35.803  13.013   1.400
13008W        W85433  30.607  26.527  14.828
13009W        W85434  22.977  12.154   0.885
13010W        W85435  43.233   6.822  13.866
13011W        W85436  17.600  30.138  13.031
13012W        W85437  29.631  18.067   0.958
13013W        W85438  41.066  38.327   0.883
13014W        W85439  27.764   5.871   4.217
13015W        W85440  29.635  13.111   1.089
13016W        W85441  28.584  40.095   2.289
13017W        W85442  17.084  29.588  11.161
13018W        W85443  13.074  20.394  12.056
13019W        W85444  41.788   2.164  13.442
13020W        W85445  35.947  36.957   2.355
13021W        W85446  15.735  19.376   2.228
13022W        W85447  18.782  22.728  10.536
13023W        W85448  37.558  44.911   4.823
13024W        W85449  44.395  12.838  13.445
13025W        W85450  29.709  13.076  13.854
13026W        W85451  14.946  22.275   3.847
13027W        W85452  44.991  42.856   0.343
13028W        W85453  15.360  21.548   2.266
13029W        W85454  18.728  22.992   3.711
13030W        W85455   9.409  31.136   3.105
13031W        W85456   9.100  29.096   4.018
13032W        W85457  31.465  36.313   3.192
13033W        W85458   7.421  14.175  14.135
13034W        W85459   5.836  17.735   0.149
13035W        W85460  35.461  41.543  13.302
13036W        W85461  37.064  24.538  11.107
13037W        W85462   9.712   9.941  10.431
13038W        W85463  11.351   7.891  10.897
13039W        W85464  41.370  11.974  14.532
13040W        W85465   7.029   9.399  10.321
13041W        W85466  37.309  23.906   2.232
13042W        W85467  24.004  17.095  10.957
13043W        W85468   3.473  33.645  14.688
13044W        W85469  33.951  34.009  12.505
13045W        W85470  22.112  28.425  14.884
13046W        W85471   4.395  40.578  11.946
13047W        W85472  39.859  22.562   3.665
13048W        W85473  29.983  27.894  11.347
13049W        W85474   4.820  42.070   3.661
13050W        W85475  24.321  43.835   0.347
13051W        W85476   5.031  35.434   2.692
13052W        W85477  33.194  42.111  10.459
13053W        W85478  37.030  33.864  14.896
13054W        W85479   5.170   7.761  14.905
13055W        W85480  24.061  17.057  11.622
13056W        W85481  12.302   2.145  10.662
13057W        W85482   0.043  32.003  11.195
13058W        W85483  27.886  24.574  13.056
13059W        W85484  42.948  26.781  12.882
13060W        W85485  32.250  16.241  14.397
13061W        W85486  14.349  38.040   0.353
13062W        W85487  24.984  14.710  13.513
13063W        W85488  11.335  21.728  10.269
13064W        W85489  36.971  15.858  12.975
13065W        W85490  25.224  44.929   2.690
13066W        W85491  15.860  15.645   3.888
13067W        W85492  31.269  42.879   4.307
13068W        W85493  30.115   2.211  14.888
13069W        W85494   2.065  25.438  13.885
13070W        W85495  40.496  17.494   4.102
13071W        W85496  40.498  14.612  10.896
13072W        W85497  44.735  32.797   3.115
13073W        W85498  34.947  30.325   0.474
13074W        W85499  19.344  19.287  13.501
13075W        W85500  13.774  26.947   3.338
13076W        W85501  33.082  31.600  13.973
13077W        W85502  22.936  31.903   4.180
13078W        W85503  19.818  26.419   1.755
13079W        W85504  26.014  29.068   4.346
13080W        W85505   1.373   0.566  14.300
13081W        W85506  41.951  18.434  11.856
13082W        W85507  19.465  30.539   0.015
13083W        W85508  37.836  14.267  12.309
13084W        W85509  22.335  33.431  11.477
13085W        W85510  41.874  37.609  11.145
13086W        W85511  38.275  23.620   0.950
13087W        W85512  28.712   2.832  12.568
13088W        W85513  25.655  17.836   2.929
13089W        W85514  12.928  41.250   0.963
13090W        W85515  33.415  29.979   4.450
13091W        W85516  37.080  20.139  14.359
13092W        W85517  39.376  18.843  14.302
13093W        W85518  37.626  20.602  12.969
13094W        W85519   7.775  28.144   1.226
13095W        W85520   8.701  10.840   1.327
13096W        W85521   6.348  27.696   4.831
13097W        W85522  22.058  35.859   4.543
13098W        W85523  29.615   6.384   3.097
13099W        W85524  16.666  18.620   1.920
13100W        W85525  31.997  42.302   0.458
13101W        W85526  16.628  37.140  12.110
13102W        W85527   8.393  16.310   3.688
13103W        W85528  33.195  23.700   0.261
13104W        W85529   2.242   4.745  12.568
13105W        W85530  12.408  18.451   0.376
13106W        W85531  43.595  15.711  11.628
13107W        W85532   2.473  16.553  11.493
13108W        W85533  34.237   6.867  11.666
13109W        W85534  35.901  25.496  12.808
13110W        W85535  18.080  17.740   0.984
13111W        W85536  26.833   5.787   1.696
13112W        W85537   3.350  41.694   4.716
13113W        W85538   5.260  16.104  13.728
13114W        W85539  21.488  32.598  13.847
13115W        W85540  15.657  22.993   3.354
13116W        W85541  23.538   2.713   1.748
13117W        W85542  26.617  33.459  12.159
13118W        W85543  39.393  23.241   0.219
13119W        W85544  18.813  28.129  12.110
13120W        W85545  29.797  13.826  11.616
13121W        W85546  22.582  37.505  11.549
13122W        W85547  41.099  21.201  11.902
13123W        W85548  28.757   4.506  11.207
13124W        W85549  30.642   9.243   4.896
13125W        W85550  34.232  25.891   3.256
13126W        W85551  37.153   6.782  14.336
13127W        W85552  13.063  26.075   1.241
13128W        W85553  42.917  18.406   5.013
13129W        W85554   6.778   6.219  10.502
13130W        W85555  23.705  36.899   2.260
13131W        W85556  19.653  12.291   0.438
13132W        W85557  35.525   5.801  13.006
13133W        W85558  19.317   2.961  10.693
13134W        W85559  31.601  29.921   0.491
13135W        W85560  24.893  22.091  12.393
13136W        W85561   2.858  20.254   2.142
13137W        W85562   0.791  44.444  14.922
13138W        W85563  41.370  26.393   1.852
13139W        W85564   2.553  39.476   2.765
13140W        W85565  30.048  24.157  13.613
13141W        W85566  44.704  22.055  14.370
13142W        W85567  10.369   0.026  11.660
13143W        W85568  21.178  36.866   0.926
13144W        W85569  42.418  18.551  10.552
13145W        W85570  16.454  38.354   3.626
13146W        W85571  12.844  16.978   0.417
13147W        W85572  15.157  15.420   1.353
13148W        W85573  39.614  32.297   1.376
13149W        W85574  35.281  42.496   0.587
13150W        W85575  34.045  25.965  12.127
13151W        W85576  29.299  17.904  11.438
13152W        W85577  10.698  29.067   2.225
13153W        W85578  24.331  36.049   1.850
13154W        W85579  43.368   5.918  13.941
13155W        W85580  25.002  15.358  12.844
13156W        W85581  30.888  19.204  12.542
13157W        W85582  20.013  14.094   1.756
13158W        W85583  32.185  18.332   0.836
13159W        W85584   4.900  20.746   1.862
13160W        W85585  37.782  27.949   3.060
13161W        W85586   9.198  39.321  11.193
13162W        W85587  16.712  36.705  10.543
13163W        W85588  12.888  12.178   1.885
13164W        W85589   2.442   1.394   1.883
13165W        W85590  34.124  13.549   3.661
13166W        W85591  32.882  33.417  11.997
13167W        W85592  44.496  39.803  10.633
13168W        W85593  10.623   3.570   2.911
13169W        W85594  24.120  15.632  12.426
13170W        W85595  19.072  44.095   0.346
13171W        W85596   4.782  20.698   4.340
13172W        W85597  37.617   4.442   2.095
13173W        W85598  27.671  24.038   1.895
13174W        W85599  35.326  31.694  10.742
13175W        W85600   0.837  30.677  11.588
13176W        W85601   7.840  28.456   2.856
13177W        W85602   6.111  19.505   1.199
13178W        W85603  34.309   9.814  14.912
13179W        W85604   6.973  28.570  13.922
13180W        W85605  31.485   4.328  13.449
13181W        W85606  25.577  37.272   0.817
13182W        W85607   1.126  30.364  13.799
13183W        W85608  16.229  25.188  11.915
13184W        W85609   2.402  14.147   1.519
13185W        W85610   0.087  35.811   1.301
13186W        W85611  22.057  26.147   2.910
13187W        W85612  12.678   9.887   3.220
13188W        W85613  14.248  25.169   2.597
13189W        W85614  42.988   8.883  13.194
13190W        W85615  22.164   6.328   1.642
13191W        W85616  27.019  21.263   4.589
13192W        W85617  41.255  26.666  14.889
13193W        W85618  11.239  43.860  14.534
13194W        W85619   9.444  23.185  12.617
13195W        W85620  17.375  41.673  10.932
13196W        W85621  39.280  22.676   0.279
13197W        W85622  16.552  23.773  11.918
13198W        W85623   9.184  29.060   3.276
13199W        W85624   9.439   8.792  11.964
13200W        W85625  34.987  35.928   3.273
13201W        W85626  29.918   8.469  12.171
13202W        W85627  18.140  36.087   3.667
13203W        W85628  25.670   8.017   1.632
13204W        W85629  26.259   8.922  11.586
13205W        W85630   8.940   3.235  11.409
13206W        W85631  18.093  18.378  14.505
13207W        W85632  28.598   6.986  13.422
13208W        W85633  20.545  35.142   4.461
13209W        W85634   1.854  13.303  11.205
13210W        W85635   7.904  31.081   4.645
13211W        W85636   0.683  42.128  11.114
13212W        W85637   4.860   3.500   0.912
13213W        W85638  43.364   2.943   2.308
13214W        W85639  43.048  43.580   1.931
13215W        W85640  21.166  29.022   0.799
13216W        W85641   1.249  42.236   1.779
13217W        W85642   2.519  28.156   1.966
13218W        W85643  28.475  29.893   1.160
13219W        W85644  14.889  25.304   4.761
13220W        W85645  43.126  16.260   0.774
13221W        W85646   8.351   7.869   1.470
13222W        W85647   3.469   2.085   4.225
13223W        W85648  31.392   2.136  14.449
13224W        W85649  29.802  32.829  10.971
13225W        W85650   3.269  43.305   2.844
13226W        W85651  13.350   8.716  10.686
13227W        W85652  39.799  23.593   4.562
13228W        W85653  34.973   1.516   0.435
13229W        W85654   0.901   3.269  11.640
13230W        W85655  29.110   5.350   1.273
13231W        W85656   4.954  38.765  11.085
13232W        W85657  38.636  18.065   0.843
13233W        W85658  14.350  29.737   3.284
13234W        W85659  25.970   0.853  14.402
13235W        W85660   0.885   1.947   2.757
13236W        W85661   0.327   8.840  11.579
13237W        W85662   4.232  44.948  13.783
13238W        W85663  44.492  31.809  13.818
13239W        W85664  37.476  17.844   3.345
13240W        W85665  41.566  14.075   1.452
13241W        W85666  12.623  36.907  10.965
13242W        W85667  38.899   8.376  10.386
13243W        W85668  37.430  25.687   0.101
13244W        W85669  13.543  33.444  13.410
13245W        W85670  25.537  38.739  13.811
13246W        W85671   6.384  35.923   3.710
13247W        W85672  33.635  42.714  14.280
13248W        W85673  41.245   8.702  12.385
13249W        W85674  21.061  26.595   3.178
13250W        W85675  23.003  38.390  13.551
13251W        W85676  18.073  28.709  12.547
13252W        W85677   1.305   6.298   3.328
13253W        W85678  13.657   6.638   1.766
13254W        W85679  40.783  11.813   5.136
13255W        W85680  21.982  37.210  10.988
13256W        W85681  13.643  21.953  12.876
13257W        W85682   5.485  40.825  13.944
13258W        W85683  22.187  20.724  14.845
13259W        W85684   1.931   5.605  12.456
13260W        W85685  17.143   5.717   1.254
13261W        W85686   5.726  33.172   4.535
13262W        W85687   7.067  16.487   1.279
13263W        W85688  16.238  16.511   3.684
13264W        W85689  23.016  22.065  13.101
13265W        W85690  21.042  24.224   3.269
13266W        W85691  41.228  26.560  12.469
13267W        W85692  29.603  41.929  14.919
13268W        W85693   5.708  19.357  13.330
13269W        W85694  27.508   4.269   0.217
13270W        W85695  12.687  18.070  14.350
13271W        W85696  34.365  25.719   4.129
13272W        W85697   3.184  44.306   3.790
13273W        W85698  28.086  12.805   1.692
13274W        W85699  26.228  29.500   3.316
13275W        W85700  30.626  40.862   2.860
13276W        W85701  20.664  44.000  14.566
13277W        W85702  44.320   7.414  12.475
13278W        W85703   6.779   0.275   0.242
13279W        W85704  27.423  44.352  11.153
13280W        W85705  10.956   2.002  13.555
13281W        W85706  39.555  44.392  10.675
13282W        W85707  29.228  25.460  12.999
13283W        W85708  42.567  24.251  14.895
13284W        W85709  38.053  42.309   2.349
13285W        W85710  26.689  20.271   1.671
13286W        W85711  23.617   4.543  14.817
13287W        W85712  35.191  29.055   0.241
13288W        W85713  35.156  15.256  10.549
13289W        W85714  23.139  32.473   4.044
13290W        W85715  33.876  23.834  14.726
13291W        W85716  37.591  19.224  10.652
13292W        W85717   0.999   6.165  12.901
13293W        W85718   2.645  18.094   1.928
13294W        W85719  32.486  44.405  14.067
13295W        W85720   4.737  22.853   1.519
13296W        W85721  32.535  33.959  14.912
13297W        W85722  36.228   1.195   0.851
13298W        W85723   4.763  44.997   4.586
13299W        W85724  26.511  14.325  13.436
13300W        W85725   6.794  41.874  10.709
13301W        W85726  23.944  35.026  12.005
13302W        W85727  20.327  16.730   2.214
13303W        W85728  14.151  21.082  14.416
13304W        W85729  20.457   3.242  13.071
13305W        W85730  41.841  18.116   0.521
13306W        W85731  30.378  41.925   3.232
13307W        W85732  43.373  19.973   3.191
13308W        W85733  13.711  39.045   2.073
13309W        W85734   8.172  30.558  11.529
13310W        W85735  12.778   3.814   2.861
13311W        W85736  16.097   8.282   2.239
13312W        W85737  17.523  28.315   2.625
13313W        W85738  37.488  41.868  14.927
13314W        W85739  16.303  23.537  14.787
13315W        W85740   0.676  33.884  12.564
13316W        W85741  42.628  40.359  11.116
13317W        W85742  13.408  35.356   3.330
13318W        W85743  25.643  29.640   0.467
13319W        W85744  30.307  29.663   3.859
13320W        W85745   3.513   7.410  13.871
13321W        W85746  17.934   6.959  13.392
13322W        W85747  43.761   8.824   4.589
13323W        W85748  19.186  21.526  12.032
13324W        W85749  10.334  40.795   0.849
13325W        W85750  27.614  13.229   2.669
13326W        W85751  11.234   7.656   0.142
13327W        W85752  10.747   0.332  12.773
13328W        W85753  22.457  39.294  11.191
13329W        W85754   0.285  38.057  12.908
13330W        W85755   5.766  21.673   0.219
13331W        W85756  16.040  24.179  12.427
13332W        W85757  13.508  25.188   1.458
13333W        W85758  22.641  33.498   3.381
13334W        W85759  18.168   9.595   3.178
13335W        W85760  21.359   6.461  13.361
13336W        W85761  14.061  34.545  14.430
13337W        W85762  21.209  29.679  11.556
13338W        W85763  33.704  11.284  10.156
13339W        W85764  42.896  17.304  14.338
13340W        W85765  12.761  18.099   1.726
13341W        W85766  34.862  27.972  14.070
13342W        W85767  36.409   0.180   2.200
13343W        W85768  42.711  31.264   4.208
13344W        W85769  16.224  14.801  14.516
13345W        W85770  22.490  13.098  13.341
13346W        W85771   8.633  40.914   1.403
13347W        W85772  36.423  17.154   1.839
13348W        W85773  38.077  40.466   1.931
13349W        W85774   6.447  37.186   1.436
13350W        W85775  16.398  22.141   1.815
13351W        W85776  11.590   6.714  10.456
13352W        W85777  15.030  24.215  10.893
13353W        W85778  37.480  27.244  12.524
13354W        W85779  13.500  44.970  14.459
13355W        W85780  29.399  37.810   2.908
13356W        W85781   6.223  25.801   3.267
13357W        W85782  39.834  20.998  13.364
13358W        W85783  13.945   9.159   5.349
13359W        W85784  42.000  35.804  14.272
13360W        W85785  39.297   2.025  11.073
13361W        W85786  22.048  13.187  12.004
13362W        W85787  32.524   8.936   4.160
13363W        W85788   9.185  16.104  12.816
13364W        W85789  20.690   8.448  14.019
13365W        W85790   7.275   1.971  12.545
13366W        W85791  31.194  28.707   0.474
13367W        W85792  44.444  27.919  12.909
13368W        W85793   7.703  36.346  13.808
13369W        W85794  39.544  14.565  14.289
13370W        W85795  43.510  15.073   2.324
13371W        W85796  29.987   6.912  12.156
13372W        W85797  33.419   7.959  12.066
13373W        W85798   4.202  17.057   2.232
13374W        W85799  15.504   4.124   0.841
13375W        W85800  17.954   6.402   2.914
13376W        W85801   5.387   0.102   2.440
13377W        W85802  10.255  13.233   3.151
13378W        W85803  24.641   4.342  13.915
13379W        W85804   7.115  14.358  14.524
13380W        W85805  34.171  18.999  13.829
13381W        W85806  13.193   6.842   1.767
13382W        W85807   6.415  30.940   0.594
13383W        W85808  36.340  30.960  14.417
13384W        W85809  15.724  42.324   4.128
13385W        W85810  34.096  12.335  12.115
13386W        W85811  10.869   7.390  11.509
13387W        W85812  40.971   5.931  12.172
13388W        W85813  30.685   3.657  14.947
13389W        W85814   8.635  15.867   1.281
13390W        W85815  12.650  44.747  10.366
13391W        W85816  14.838  44.874   4.952
13392W        W85817  15.550  21.059   5.194
13393W        W85818  20.686  16.146  12.067
13394W        W85819   6.711  43.308   4.588
13395W        W85820  29.660   3.932  12.452
13396W        W85821  15.227   5.141   1.726
13397W        W85822   4.377   4.619   4.487
13398W        W85823   8.255  40.611   2.857
13399W        W85824  35.525  10.696   3.664
13400W        W85825   2.498  10.824   0.308
13401W        W85826  13.619   9.374  12.953
13402W        W85827   8.665   1.915  13.901
13403W        W85828  41.381  34.334   1.291
13404W        W85829  12.912  34.362  12.314
13405W        W85830   8.487   3.458  11.301
13406W        W85831  16.229  31.506   4.619
13407W        W85832   8.701  19.120   2.244
13408W        W85833  30.182  44.256   0.705
13409W        W85834  24.941  23.784   1.352
13410W        W85835  35.792  16.452   1.707
13411W        W85836  24.444  32.989   1.619
13412W        W85837  14.491  44.497   5.071
13413W        W85838  15.229  39.036  11.055
13414W        W85839  30.913  21.492   0.928
13415W        W85840   0.748  18.522  14.019
13416W        W85841  41.730   5.603  13.042
13417W        W85842  23.182  14.691  13.039
13418W        W85843  13.699  21.253  11.873
13419W        W85844  14.636  30.940  12.145
13420W        W85845  41.013  10.087  10.284
13421W        W85846  20.684   0.023  11.439
13422W        W85847  21.474  29.149  14.944
13423W        W85848  11.538  41.017  10.370
13424W        W85849  13.201  10.934  14.711
13425W        W85850  23.888   7.802  11.519
13426W        W85851   5.725   6.883   0.143
13427W        W85852  18.469  44.183   5.077
13428W        W85853   4.981   4.500   1.378
13429W        W85854  17.760  39.237  12.693
13430W        W85855   2.366  23.732   2.777
13431W        W85856   3.239  38.672   3.850
13432W        W85857  27.457  20.525  14.354
13433W        W85858  43.552   1.224   4.866
13434W        W85859  23.759  23.126   2.704
13435W        W85860  39.029  40.955   2.558
13436W        W85861  36.927   3.735  13.890
13437W        W85862  34.482  42.580   2.226
13438W        W85863  41.348  28.913  11.228
13439W        W85864  34.354   7.154   2.794
13440W        W85865   9.804  28.621   4.358
13441W        W85866  26.993  29.940  11.621
13442W        W85867  42.805  21.169   2.973
13443W        W85868  29.440  36.414   3.214
13444W        W85869  19.053  16.817   0.888
13445W        W85870   3.503  23.305  13.825
13446W        W85871  26.159  30.174   5.196
13447W        W85872  23.684  22.720  11.128
13448W        W85873  40.288  12.763   4.213
13449W        W85874   8.935  22.449  11.537
13450W        W85875  20.135  24.715  14.967
13451W        W85876  40.425  10.675   2.353
13452W        W85877  40.587  26.147   3.679
13453W        W85878   7.325  16.339   3.213
13454W        W85879   4.659  15.897  14.226
13455W        W85880  28.294  14.554  13.937
13456W        W85881  34.201  23.696   0.118
13457W        W85882  44.464  38.490  11.965
13458W        W85883  14.768  14.073   5.169
13459W        W85884  12.705  34.054  12.669
13460W        W85885  17.545  22.476  13.977
13461W        W85886   2.486  33.307   4.975
13462W        W85887  23.161  44.790  13.439
13463W        W85888  39.875  39.581   0.484
13464W        W85889   1.119  23.952   4.089
13465W        W85890  31.792  35.641  13.918
13466W        W85891  43.730  41.898  14.448
13467W        W85892   3.458   2.479   0.857
13468W        W85893   5.729  18.904  13.576
13469W        W85894   2.089  22.020  12.610
13470W        W85895   9.972  35.601   4.615
13471W        W85896  34.904  31.846  14.213
13472W        W85897  43.330  34.311   4.115
13473W        W85898  10.659  19.863   2.190
13474W        W85899   9.704  13.293   1.450
13475W        W85900  13.636  41.489   4.111
13476W        W85901   6.003  23.568  14.361
13477W        W85902  39.788  37.811  10.510
13478W        W85903  25.546   7.685  11.111
13479W        W85904   3.692  43.298  13.280
13480W        W85905  42.111  32.410   0.845
13481W        W85906   9.789  27.983  12.515
13482W        W85907  41.598  30.844  14.354
13483W        W85908  30.560  16.300   1.309
13484W        W85909  43.560  23.100   1.335
13485W        W85910  27.821  34.369  14.939
13486W        W85911   1.278   8.337  12.312
13487W        W85912   8.091  33.845   3.188
13488W        W85913  37.896  16.583   4.787
13489W        W85914  33.570  10.834   0.884
13490W        W85915  42.834  37.815   3.709
13491W        W85916  42.886  32.013  11.705
13492W        W85917  38.745  27.519  10.258
13493W        W85918  32.508  28.215   4.075
13494W        W85919  43.446  38.601  13.604
13495W        W85920  23.465  23.366   1.419
13496W        W85921   2.565   4.895   2.318
13497W        W85922   1.885  34.259   4.163
13498W        W85923   2.086  31.503  14.764
13499W        W85924  28.200  33.536   3.100
13500W        W85925  43.784   7.740   3.174
13501W        W85926   5.161  36.940   1.916
13502W        W85927   1.431  22.783  10.928
13503W        W85928  23.679  11.113   2.275
13504W        W85929   9.381  30.303  12.516
13505W        W85930  32.999  26.608  14.906
13506W        W85931  41.001  14.372  11.601
13507W        W85932  29.420  38.384  10.588
13508W        W85933  31.471  31.412   4.616
13509W        W85934  14.248   9.305   1.935
13510W        W85935  18.822  27.608   1.079
13511W        W85936  33.512  14.387  12.203
13512W        W85937  22.233  35.371  13.848
13513W        W85938  21.185   1.166   4.668
13514W        W85939  37.676  32.423  11.689
13515W        W85940  38.815   3.436   0.913
13516W        W85941   5.220   7.738  11.265
13517W        W85942  43.790  40.642   0.448
13518W        W85943  20.366  32.201  10.091
13519W        W85944  24.691  23.642  14.878
13520W        W85945   0.717  40.673  14.623
13521W        W85946  21.185  39.073  11.600
13522W        W85947  14.863  15.280  12.449
13523W        W85948  16.660   8.187   2.726
13524W        W85949  21.760  12.193   3.186
13525W        W85950  37.783  29.553  13.534
13526W        W85951   7.052  30.121  14.986
13527W        W85952  36.548  24.174  12.624
13528W        W85953  20.741  43.768  12.152
13529W        W85954  43.265  19.026  14.062
13530W        W85955  19.564  28.908   2.194
13531W        W85956  17.133  42.822  10.806
13532W        W85957  26.185  40.757   0.260
13533W        W85958  42.302  30.991   0.039
13534W        W85959  39.926   0.753   2.769
13535W        W85960  31.365  22.826  11.501
13536W        W85961   7.834  31.797  14.807
13537W        W85962  34.638  30.683  12.366
13538W        W85963  17.738   1.248   3.181
13539W        W85964  30.988  11.634  13.376
13540W        W85965  20.258  37.087   1.340
13541W        W85966   5.925  28.228   2.430
13542W        W85967  33.750  39.757  14.002
13543W        W85968  24.982  35.067  13.413
13544W        W85969  29.106  16.144   3.886
13545W        W85970  25.430   1.709   3.375
13546W        W85971  24.176  17.118  12.952
13547W        W85972  27.720  28.400  14.021
13548W        W85973   2.771   0.812   1.380
13549W        W85974   3.776   0.005   4.348
13550W        W85975  31.578  19.530  11.580
13551W        W85976   6.191  30.505   2.265
13552W        W85977  36.090   0.720   2.540
13553W        W85978  32.670  12.333  13.863
13554W        W85979  41.752  40.934  13.646
13555W        W85980  34.443  10.757  12.828
13556W        W85981   3.041   6.672   1.372
13557W        W85982   5.187  13.077  12.706
13558W        W85983  12.198  20.219  11.938
13559W        W85984  22.923  23.187   2.238
13560W        W85985  34.542  30.000   2.776
13561W        W85986  37.778  43.733  10.571
13562W        W85987  13.829   4.600  13.529
13563W        W85988   5.829  18.784   3.565
13564W        W85989   5.319  11.021   1.631
13565W        W85990  17.110  16.126  11.526
13566W        W85991  37.933   5.972   4.195
13567W        W85992  35.552   5.176   3.749
13568W        W85993  13.579  14.057  14.372
13569W        W85994  28.483  36.461   2.744
13570W        W85995  37.599   2.936  11.178
13571W        W85996  34.631   2.336  14.409
13572W        W85997  39.794  40.515  13.862
13573W        W85998  28.290  21.536  11.595
13574W        W85999  25.701  34.082  12.503
13575W        W86000  37.636  12.681   4.488
13576W        W86001   6.790  15.291   2.845
13577W        W86002   7.434   5.467   0.681
13578W        W86003  41.371  37.240  10.473
13579W        W86004  33.618   3.270   4.111
13580W        W86005  43.482  30.592  11.195
13581W        W86006  35.354  21.093   1.918
13582W        W86007  25.212  23.397  14.314
13583W        W86008  17.766   2.416   4.670
13584W        W86009  36.555  15.175  10.641
13585W        W86010  25.134  27.735   1.481
13586W        W86011   2.311   0.328  12.378
13587W        W86012  30.966  25.000   0.528
13588W        W86013  38.542  26.387   5.015
13589W        W86014  18.680  24.073   1.698
13590W        W86015  40.783   8.736  13.297
13591W        W86016  12.299   3.830   4.397
13592W        W86017  23.404  21.025  14.248
13593W        W86018  29.973  31.855  13.522
13594W        W86019  30.856  26.446   5.005
13595W        W86020   9.529  18.673  13.862
13596W        W86021  44.732  24.548  14.339
13597W        W86022   3.502  20.990  11.008
13598W        W86023  44.633  12.583  13.054
13599W        W86024   9.363  18.193  13.765
13600W        W86025  15.628  23.468   4.164
13601W        W86026  28.638   4.196  14.318
13602W        W86027  28.638   1.328   1.259
13603W        W86028  15.909  32.465   3.716
13604W        W86029  30.977   4.265  13.488
13605W        W86030  26.236   1.360   4.749
13606W        W86031  38.198  38.137  12.554
13607W        W86032   8.624  32.478  12.997
13608W        W86033  27.307  10.380   4.148
13609W        W86034  10.466   1.762   0.802
13610W        W86035  15.755  22.091   4.208
13611W        W86036  41.012  44.266   0.439
13612W        W86037  23.648  32.154  11.173
13613W        W86038   0.224  19.992  13.510
13614W        W86039  21.440  11.666   2.266
13615W        W86040  31.864   3.496   1.856
13616W        W86041   6.991  22.834  13.409
13617W        W86042   1.424  26.946  14.001
13618W        W86043  11.748  13.775  12.165
13619W        W86044  41.283   9.328  11.237
13620W        W86045   1.348   2.500  13.045
13621W        W86046  16.848   9.494   0.276
13622W        W86047  35.971   6.226   4.104
13623W        W86048   7.725   2.324  12.374
13624W        W86049  44.029  23.271   3.238
13625W        W86050  13.507  27.779   3.914
13626W        W86051  19.249   9.709   3.678
13627W        W86052  14.050  25.040  13.873
13628W        W86053  34.568  36.027   0.395
13629W        W86054  31.589  39.909   2.658
13630W        W86055  40.537  30.222  12.556
13631W        W86056  15.318  26.061  11.657
13632W        W86057  40.886  28.404   0.405
13633W        W86058  34.351   4.688  12.865
13634W        W86059   5.201  37.517  11.539
13635W        W86060   4.440  35.070   3.749
13636W        W86061  30.581  29.634   2.854
13637W        W86062   4.745   1.565  12.109
13638W        W86063  38.933  20.904  14.236
13639W        W86064  18.149  44.137  11.372
13640W        W86065  24.895  29.575   0.421
13641W        W86066   4.875  36.478  12.985
13642W        W86067   2.906   4.172  10.699
13643W        W86068   9.584   5.262   4.120
13644W        W86069   0.984   6.781   0.459
13645W        W86070  13.655  14.460  10.675
13646W        W86071   9.306  22.365  13.631
13647W        W86072   4.202   6.168  13.936
13648W        W86073  29.597  28.490   2.299
13649W        W86074  12.900  11.939   0.643
13650W        W86075  25.530  14.571   2.647
13651W        W86076  33.437  38.583   1.803
13652W        W86077  38.917   0.924   2.717
13653W        W86078  42.515  29.127  12.946
13654W        W86079  39.722  11.123   2.305
13655W        W86080  39.342   1.273  13.862
13656W        W86081  32.926  28.098  13.397
13657W        W86082  30.865  24.477   0.380
13658W        W86083   3.412  30.180   3.322
13659W        W86084  14.030   6.231  13.339
13660W        W86085  31.699  35.314   4.913
13661W        W86086  36.638  20.854  11.414
13662W        W86087  30.557  29.411   1.982
13663W        W86088  23.865  26.922   4.503
13664W        W86089  18.206   2.025   4.177
13665W        W86090  27.563  36.796   1.335
13666W        W86091  32.614  33.397  12.458
13667W        W86092  15.731   2.925  13.920
13668W        W86093  18.538  10.339  13.129
13669W        W86094   2.872   8.534   2.369
13670W        W86095  14.690  26.955   1.799
13671W        W86096  39.326  19.672   3.804
13672W        W86097  44.521  30.823   2.787
13673W        W86098   6.156   0.035  12.458
13674W        W86099   6.934  37.566  10.221
13675W        W86100  17.119  39.640   4.172
13676W        W86101  41.349  24.926   2.742
13677W        W86102  10.641  29.213   4.673
13678W        W86103  37.271  32.379   1.216
13679W        W86104  12.704   0.507  13.704
13680W        W86105  37.991  36.083  14.562
13681W        W86106  28.930  39.162   0.345
13682W        W86107  18.922   2.936  14.429
13683W        W86108  31.306   0.947   0.861
13684W        W86109  20.119  13.335  11.861
13685W        W86110  33.785   1.454   3.448
13686W        W86111   5.607  36.579   2.694
13687W        W86112  44.446  42.257   4.930
13688W        W86113  30.699   0.938  14.455
13689W        W86114   4.343  35.906   3.136
13690W        W86115  12.361  13.580   0.252
13691W        W86116  16.195  43.078   1.413
13692W        W86117  21.596  27.610  14.974
13693W        W86118  43.024  21.654  14.891
13694W        W86119   7.424   2.025   2.394
13695W        W86120   8.477  43.734  11.824
13696W        W86121  37.345   5.780  11.433
13697W        W86122  14.449  20.129  13.552
13698W        W86123  37.020  12.952  13.354
13699W        W86124  44.229  19.766   2.142
13700W        W86125  13.326   9.572   1.887
13701W        W86126  44.462   9.911   4.760
13702W        W86127  29.984   8.879   2.920
13703W        W86128   9.752   0.218   0.680
13704W        W86129  20.491  11.107   1.788
13705W        W86130  33.118  42.409  11.200
13706W        W86131  43.357  34.373   0.991
13707W        W86132  15.298   5.293   1.216
13708W        W86133  12.170  34.036   3.141
13709W        W86134  11.138  36.365  13.589
13710W        W86135   0.353  24.115   4.326
13711W        W86136  41.006   1.180   1.310
13712W        W86137   0.105   2.444   2.363
13713W        W86138  31.582  19.702  13.147
13714W        W86139   5.449  30.955  11.198
13715W        W86140   0.460  31.093   0.180
13716W        W86141  12.617   3.408  14.467
13717W        W86142  43.008  40.349  11.981
13718W        W86143   4.741  35.735   0.107
13719W        W86144  36.942  37.077  14.401
13720W        W86145  37.214  26.676   2.167
13721W        W86146  32.115   1.133  14.563
13722W        W86147   0.701  17.639   0.242
13723W        W86148  11.648  44.009   0.532
13724W        W86149  40.353  35.858   4.862
13725W        W86150   4.123  12.311   1.496
13726W        W86151  33.624  16.684  14.849
13727W        W86152  19.829  10.605  14.793
13728W        W86153  17.559  19.666  10.911
13729W        W86154  44.861   1.285   4.837
13730W        W86155  10.184  10.726   1.261
13731W        W86156  27.482  18.788   0.881
13732W        W86157  30.459  28.225  14.084
13733W        W86158  17.783  39.867   1.388
13734W        W86159  27.501   6.291   0.690
13735W        W86160  10.777  22.817   4.318
13736W        W86161  37.573  12.145   3.608
13737W        W86162  24.716  44.120   3.015
13738W        W86163  17.682  39.003  14.433
13739W        W86164  24.749   3.025   4.248
13740W        W86165  41.317   1.017   0.916
13741W        W86166  20.458  11.401  13.626
13742W        W86167  21.778   6.620  12.066
13743W        W86168  24.858   4.263  10.577
13744W        W86169  41.421  14.342   0.485
13745W        W86170  26.115  26.701   3.405
13746W        W86171   1.309  32.293  12.954
13747W        W86172  29.766   1.691  14.018
13748W        W86173  34.966  10.260   5.211
13749W        W86174  13.830  13.810  13.970
13750W        W86175  24.933  10.399   1.428
13751W        W86176  26.872  32.095   1.762
13752W        W86177  40.866  37.709   4.458
13753W        W86178  29.074  20.157   4.018
13754W        W86179  12.624  17.579   4.438
13755W        W86180  30.183  30.842   5.135
13756W        W86181  35.294  17.793  14.391
13757W        W86182  20.198  30.952   4.476
13758W        W86183  18.530  35.532   1.443
13759W        W86184   5.612  18.180  14.463
13760W        W86185  15.862  22.534  14.798
13761W        W86186  37.595  12.407  12.641
13762W        W86187  12.594  34.977  11.720
13763W        W86188   6.294  10.591   3.154
13764W        W86189  33.023  29.648  12.339
13765W        W86190  28.374  28.550   3.156
13766W        W86191  23.163  16.942  11.498
13767W        W86192   4.851   2.982   0.897
13768W        W86193   1.458  20.266  11.187
13769W        W86194  38.482  10.666  14.287
13770W        W86195   7.416   9.521   2.125
13771W        W86196  26.911   0.076   4.262
13772W        W86197  17.130  10.906   3.122
13773W        W86198  38.516  44.067   1.233
13774W        W86199  41.076   3.814  13.806
13775W        W86200  44.272   7.634   4.452
13776W        W86201  21.885  33.219   0.730
13777W        W86202  31.589  28.206   4.260
13778W        W86203  18.812   3.804  13.508
13779W        W86204  36.243  29.394  12.409
13780W        W86205  33.433  43.606   4.743
13781W        W86206  10.937  22.036  14.368
13782W        W86207  43.636  30.411  13.445
13783W        W86208   7.833  17.266  10.188
13784W        W86209  34.480   9.827  10.500
13785W        W86210  39.651   9.091   4.158
13786W        W86211  40.204   4.930   0.055
13787W        W86212   0.280   6.385   2.799
13788W        W86213  16.842  27.518   0.353
13789W        W86214  31.729  20.787   4.681
13790W        W86215  21.469  44.062  14.377
13791W        W86216  35.475  44.329  11.214
13792W        W86217  44.685  32.434   0.934
13793W        W86218  13.748  28.646   4.089
13794W        W86219   9.994   3.889  14.983
13795W        W86220  31.616  39.533   0.306
13796W        W86221  22.545  33.938   4.560
13797W        W86222  35.881  27.638  11.101
13798W        W86223  14.264   1.872   1.943
13799W        W86224  23.580  29.726   4.472
13800W        W86225   9.290   9.121   5.648
13801W        W86226  10.227  18.308   4.731
13802W        W86227  15.798   5.281   1.381
13803W        W86228  21.152  35.330  14.459
13804W        W86229  26.787  41.453   4.210
13805W        W86230   2.803  17.604  11.503
13806W        W86231  28.490  29.683  14.907
13807W        W86232   5.586  34.501   1.970
13808W        W86233  33.378  39.853   3.124
13809W        W86234  11.997  15.821  13.227
13810W        W86235  26.510  12.808   3.225
13811W        W86236  35.903  36.417   0.701
13812W        W86237  32.504  41.866  14.460
13813W        W86238  40.000  10.624  12.571
13814W        W86239  21.473  20.528  11.999
13815W        W86240  17.989   2.189   3.713
13816W        W86241   8.871  37.113   4.669
13817W        W86242   2.734  21.980   1.412
13818W        W86243  40.725  22.028   4.242
13819W        W86244  40.005  33.459   3.383
13820W        W86245  10.121   4.001  12.889
13821W        W86246  10.196   0.479  14.951
13822W        W86247  28.934  26.581  11.034
13823W        W86248  34.942  15.022  13.835
13824W        W86249  23.642  12.102   4.307
13825W        W86250  38.776  22.533   0.352
13826W        W86251  14.838  40.677  10.307
13827W        W86252  30.370   6.493  10.951
13828W        W86253  11.690   0.252  10.860
13829W        W86254  35.208  33.649  12.349
13830W        W86255  41.844  21.411   1.555
13831W        W86256  12.015  27.590  11.311
13832W        W86257  37.920   8.197   1.744
13833W        W86258  23.121  11.112   0.564
13834W        W86259  13.928   3.954   3.676
13835W        W86260   9.861  11.784  14.825
13836W        W86261  36.485  23.344   5.015
13837W        W86262  38.760  27.861   2.287
13838W        W86263  27.481  12.901  13.737
13839W        W86264  40.434  25.684  10.504
13840W        W86265  24.513  13.770  11.686
13841W        W86266  14.842  20.814   0.232
13842W        W86267   1.853  24.008  11.644
13843W        W86268  43.833  15.263  11.625
13844W        W86269  21.824  38.295   2.811
13845W        W86270   3.271  27.578   1.617
13846W        W86271  15.806  31.175  13.874
13847W        W86272  38.124  32.161   2.338
13848W        W86273  40.974  43.811  14.545
13849W        W86274  23.223   1.857   1.928
13850W        W86275  14.052  12.255  14.349
13851W        W86276  10.602  18.764  12.323
13852W        W86277  34.238  26.363   3.049
13853W        W86278   7.639  19.148  12.441
13854W        W86279  11.855  30.487   3.728
13855W        W86280  27.620  10.296   4.697
13856W        W86281  20.785  29.064  10.590
13857W        W86282  31.189  43.809  14.382
13858W        W86283  41.186  44.966  14.062
13859W        W86284  41.405   5.688   2.753
13860W        W86285  12.236   6.343  12.837
13861W        W86286  44.909   5.129  10.656
13862W        W86287   8.025  44.605   4.960
13863W        W86288  26.155  25.047  14.722
13864W        W86289  13.944  14.823  14.054
13865W        W86290  31.176  29.404   3.331
13866W        W86291   0.989   0.900   4.613
13867W        W86292   7.326  35.135  10.252
13868W        W86293  29.926  31.710  14.465
13869W        W86294  14.272   0.036   2.663
13870W        W86295  36.217   9.123   0.726
13871W        W86296  42.902   7.980  13.423
13872W        W86297  32.404  33.927   4.133
13873W        W86298  33.039  37.450  13.124
13874W        W86299  20.097  29.359   2.936
13875W        W86300  24.034  25.689   0.321
13876W        W86301  36.600  16.662   3.610
13877W        W86302  36.042  30.449  10.668
13878W        W86303  41.254   8.847   2.282
13879W        W86304  26.045  25.445  13.293
13880W        W86305  29.476  35.395  13.906
13881W        W86306   4.734   6.288  14.808
13882W        W86307  28.096  11.353  11.939
13883W        W86308  40.220  38.419   3.376
13884W        W86309  23.668  14.784   3.619
13885W        W86310  36.494  35.583   1.278
13886W        W86311  37.060  37.901  11.612
13887W        W86312  12.662  38.767  10.724
13888W        W86313  32.380   6.408  11.149
13889W        W86314  16.750  36.081   2.141
13890W        W86315  32.345  18.554   9.742
13891W        W86316  25.979   4.391   2.430
13892W        W86317  42.426  43.325   3.579
13893W        W86318  38.927  12.641  12.350
13894W        W86319  33.934  14.234   2.414
13895W        W86320  39.223  31.977   0.852
13896W        W86321  18.999   0.436  11.477
13897W        W86322  24.099  36.874   1.206
13898W        W86323  31.348  11.967   4.413
13899W        W86324  28.776   7.942   2.724
13900W        W86325  20.706  39.853   4.625
13901W        W86326  30.434  24.559  13.560
13902W        W86327  37.317  22.652  14.603
13903W        W86328   2.374  42.512   0.707
13904W        W86329  44.992  37.121   2.686
13905W        W86330  20.734  23.746  14.711
13906W        W86331   6.461   8.953   9.935
13907W        W86332  39.466  13.924  13.689
13908W        W86333   3.426   4.207  14.675
13909W        W86334   3.953  26.524  13.069
13910W        W86335   0.729   5.967   1.023
13911W        W86336  31.502   9.695   1.861
13912W        W86337   2.765  29.448  14.968
13913W        W86338   2.817  20.049   0.811
13914W        W86339  14.361   3.242  10.757
13915W        W86340  11.636  13.850   2.895
13916W        W86341  36.501  13.066  10.542
13917W        W86342  28.032  15.803  13.018
13918W        W86343  21.595  17.243  10.617
13919W        W86344   3.660  14.235   3.740
13920W        W86345  29.575   0.201   0.261
13921W        W86346  16.326  22.056  12.868
13922W        W86347  26.583  30.133  11.351
13923W        W86348  24.202  12.274   2.565
13924W        W86349  43.304  24.972  12.928
13925W        W86350  15.313  30.819  13.264
13926W        W86351   7.410  42.489  14.507
13927W        W86352   8.901  41.247   4.156
13928W        W86353  32.595  39.039  13.359
13929W        W86354   0.265  17.358   2.242
13930W        W86355  44.720   1.656  12.974
13931W        W86356  29.915  39.178  13.789
13932W        W86357   2.921  20.834   2.793
13933W        W86358  21.051  13.131   1.181
13934W        W86359  24.067  38.648   5.015
13935W        W86360  39.410   2.912  10.653
13936W        W86361  26.068  15.537  11.048
13937W        W86362   4.700  21.989  14.332
13938W        W86363  38.510  24.970   0.957
13939W        W86364  35.347  12.403   0.113
13940W        W86365  41.297  27.412   0.813
13941W        W86366  10.249  30.482  10.527
13942W        W86367  44.498  37.324  11.296
13943W        W86368  41.984  19.572   2.723
13944W        W86369   2.295   6.887  12.035
13945W        W86370  18.737  31.650   1.442
13946W        W86371  36.574  41.439   1.913
13947W        W86372  41.647  43.085  12.538
13948W        W86373  31.590  22.220   4.235
13949W        W86374   6.833   2.307   0.742
13950W        W86375  14.869   2.822  12.823
13951W        W86376  17.132  32.897   3.194
13952W        W86377   5.648  37.176  11.566
13953W        W86378  41.240  42.451   3.365
13954W        W86379  16.210   0.391   0.753
13955W        W86380  32.593  19.919  12.303
13956W        W86381  44.113  15.292  14.245
13957W        W86382  20.702   8.742   4.530
13958W        W86383  20.210  32.996   1.419
13959W        W86384  43.441   0.872   4.501
13960W        W86385  10.387  39.551  10.418
13961W        W86386  15.752  35.219   1.416
13962W        W86387  38.680  15.670   4.603
13963W        W86388   5.342  39.783   2.613
13964W        W86389  13.150   9.356  12.769
13965W        W86390  16.156   6.018  14.261
13966W        W86391  29.995  39.076   1.624
13967W        W86392  36.991  30.213  11.189
13968W        W86393   6.392   0.817   3.606
13969W        W86394  22.948   7.325  14.857
13970W        W86395  21.742  19.590  12.490
13971W        W86396  11.744  39.775   0.790
13972W        W86397  12.686  40.397  11.515
13973W        W86398   3.465  10.569   3.130
13974W        W86399  29.472  33.871  11.499
13975W        W86400  33.484  36.297  10.269
13976W        W86401  21.271   4.212  10.722
13977W        W86402  35.361  26.373  10.016
13978W        W86403  35.153  38.844  11.579
13979W        W86404  43.372  28.261  10.388
13980W        W86405   9.196   2.329   0.976
13981W        W86406  22.607  44.396   1.352
13982W        W86407  21.201   3.722   1.898
13983W        W86408  38.466  19.272  13.942
13984W        W86409   9.672   8.846  14.187
13985W        W86410   0.181  38.895   2.089
13986W        W86411  40.544  41.739  14.851
13987W        W86412   7.405  24.413  11.662
13988W        W86413  37.004  10.611  11.632
13989W        W86414  13.712  44.914  10.762
13990W        W86415  29.354  22.748   2.185
13991W        W86416   5.662  38.255  12.957
13992W        W86417   3.165  20.798  12.366
13993W        W86418  20.379  28.018   1.228
13994W        W86419  43.799  26.045   2.593
13995W        W86420  16.295  42.795   1.843
13996W        W86421  20.761  35.926  11.492
13997W        W86422  41.345  34.142  12.035
13998W        W86423   5.980  35.396   2.945
13999W        W86424  44.877  25.045  14.403
14000W        W86425  23.563   2.387  10.791
14001W        W86426  16.059  19.631  12.076
14002W        W86427  20.258  40.041  14.502
14003W        W86428   6.924   4.551  12.919
14004W        W86429  39.577  23.860  11.156
14005W        W86430  38.271  29.922  10.708
14006W        W86431  29.488  15.995  12.860
14007W        W86432   8.723  37.123  14.310
14008W        W86433  25.695   3.209   0.394
14009W        W86434  24.658  26.237   3.409
14010W        W86435   8.766  24.154  11.673
14011W        W86436  11.094  12.353  14.927
14012W        W86437  39.073  24.335   4.788
14013W        W86438  35.586  32.179  11.666
14014W        W86439  25.618   5.187   1.100
14015W        W86440  34.537   1.283  10.970
14016W        W86441  33.386  13.941   4.656
14017W        W86442  10.349   0.047  14.716
14018W        W86443   7.231   3.473   3.410
14019W        W86444   1.526  43.428   4.515
14020W        W86445  19.793  32.873  14.859
14021W        W86446  36.266   7.718   3.253
14022W        W86447  25.790   8.748   1.511
14023W        W86448  40.130   0.064  10.783
14024W        W86449  34.792  14.332   4.192
14025W        W86450  10.189  23.235  11.553
14026W        W86451   5.627  31.122  12.071
14027W        W86452  18.750  36.266   3.203
14028W        W86453  21.561   0.344   2.363
14029W        W86454  30.046  19.394   4.558
14030W        W86455  19.256  34.434  13.743
14031W        W86456  29.099  11.546   1.950
14032W        W86457  15.609  44.027  10.877
14033W        W86458   6.786  43.440   0.496
14034W        W86459  29.620  35.881  13.829
14035W        W86460  16.048  23.518  10.709
14036W        W86461   4.455  10.119   3.805
14037W        W86462  22.229  32.399  13.067
14038W        W86463   2.188   2.767  14.942
14039W        W86464  35.652  38.765   2.685
14040W        W86465  33.778   8.284   3.240
14041W        W86466  41.462  25.470   2.428
14042W        W86467  42.295  24.656   0.971
14043W        W86468  31.398  22.306   0.498
14044W        W86469   4.767   6.100  12.973
14045W        W86470  24.499  38.044  14.279
14046W        W86471  38.611  32.923   1.855
14047W        W86472   6.076  37.018   2.133
14048W        W86473  17.265  16.101  12.607
14049W        W86474  41.794  23.958  13.271
14050W        W86475  40.589  36.871   2.724
14051W        W86476   3.266  10.108  13.055
14052W        W86477  25.157  22.087  10.599
14053W        W86478  28.580  30.852   0.909
14054W        W86479  23.133  31.220   4.703
14055W        W86480  38.509  22.531  12.465
14056W        W86481  19.487   6.752  14.741
14057W        W86482  42.278  15.412  14.146
14058W        W86483   0.670   1.335   2.977
14059W        W86484  44.040  21.557  10.645
14060W        W86485  30.794  22.794   3.631
14061W        W86486  23.474  37.342   3.943
14062W        W86487  27.620  27.613   4.151
14063W        W86488   5.157  40.610   0.968
14064W        W86489   5.475   5.270   1.157
14065W        W86490  34.157  42.737  11.695
14066W        W86491  29.358   4.787   0.373
14067W        W86492  28.603  14.833  12.028
14068W        W86493  41.547   6.302   3.591
14069W        W86494  41.872  37.621   3.220
14070W        W86495   6.237   3.012  10.748
14071W        W86496  23.570   6.963  12.113
14072W        W86497  41.694   3.734   4.196
14073W        W86498  38.477  11.888   0.678
14074W        W86499  20.629  38.153  14.377
14075W        W86500  33.894  22.363   4.307
14076W        W86501  35.401  26.226   2.357
14077W        W86502  35.548  28.572   1.443
14078W        W86503   2.150  35.616   4.236
14079W        W86504  18.012  35.090  11.655
14080W        W86505  31.606  21.726  13.591
14081W        W86506  37.284   9.135   4.659
14082W        W86507  14.699  21.751  11.976
14083W        W86508  10.599  41.297  13.944
14084W        W86509  34.808  34.991   1.666
14085W        W86510  19.121  13.393   1.966
14086W        W86511  31.960  35.847  11.630
14087W        W86512  42.468  38.832  11.096
14088W        W86513  27.056  23.018  11.690
14089W        W86514  35.028  17.834   4.155
14090W        W86515  37.909   4.490   0.805
14091W        W86516  41.663  18.856  11.600
14092W        W86517  28.174  28.407   1.403
14093W        W86518  11.066  39.629  13.511
14094W        W86519  35.187  44.444   1.503
14095W        W86520  34.010  31.689  12.972
14096W        W86521  37.253  28.555  11.373
14097W        W86522  44.210  31.033  12.998
14098W        W86523  23.505  31.170  12.357
14099W        W86524  38.826   5.807  10.616
14100W        W86525  22.215  16.142  13.505
14101W        W86526  24.184  17.285   3.941
14102W        W86527  31.827  38.261   0.952
14103W        W86528  15.260  34.117  10.634
14104W        W86529   5.741   3.548   0.872
14105W        W86530  10.592  25.343   1.423
14106W        W86531  19.208  29.792  11.904
14107W        W86532  30.683  16.393   5.195
14108W        W86533  11.623  25.011   2.843
14109W        W86534   8.140  30.645   1.340
14110W        W86535  17.736  10.388   4.065
14111W        W86536  17.924   3.404   3.388
14112W        W86537  10.575   8.184   1.499
14113W        W86538   1.535  39.844  11.551
14114W        W86539  43.257  24.658  14.221
14115W        W86540  26.147  18.590   3.162
14116W        W86541   2.700  26.073   2.480
14117W        W86542  43.516  32.920  14.502
14118W        W86543  15.262  10.262   4.614
14119W        W86544  23.486  27.199  13.038
14120W        W86545   8.201   1.387   4.768
14121W        W86546  41.085  19.542  13.650
14122W        W86547  30.015  43.216  10.918
14123W        W86548  24.745  21.074  11.014
14124W        W86549   2.453   3.215  11.433
14125W        W86550   1.028   2.397  11.377
14126W        W86551   9.922  20.341   0.439
14127W        W86552   9.545  17.362  14.949
14128W        W86553  16.574  18.191   4.638
14129W        W86554   7.818   5.239   3.720
14130W        W86555  22.714  22.219  10.392
14131W        W86556  25.409  39.022   0.817
14132W        W86557  38.512  33.307  13.579
14133W        W86558  33.472  28.581   2.302
14134W        W86559  43.715  31.994   3.376
14135W        W86560  28.976  12.771  14.563
14136W        W86561  13.233  25.279   2.317
14137W        W86562   4.066  12.840  11.639
14138W        W86563  21.117  19.060  12.895
14139W        W86564  15.607  14.705   5.116
14140W        W86565   0.652  15.099   1.434
14141W        W86566   4.297   6.222   4.429
14142W        W86567   9.777  29.895  13.416
14143W        W86568   4.584  16.708   2.936
14144W        W86569  14.409  32.435   3.806
14145W        W86570  10.568  21.538   2.821
14146W        W86571   5.832  11.417   2.358
14147W        W86572  22.283  25.748   2.325
14148W        W86573  14.925  26.593  11.469
14149W        W86574  33.804  20.684  10.870
14150W        W86575  40.090   3.583   1.674
14151W        W86576  20.617  24.646   1.770
14152W        W86577  28.351   8.439  14.871
14153W        W86578  18.587  26.552   4.567
14154W        W86579  20.629  21.725   2.623
14155W        W86580  39.293  24.139  10.758
14156W        W86581  41.845  36.378   1.044
14157W        W86582  19.009   5.674   3.243
14158W        W86583  17.598  27.196  12.326
14159W        W86584  43.616  27.923  11.791
14160W        W86585  37.116  21.322  14.746
14161W        W86586   4.549  27.965   2.833
14162W        W86587   7.781  33.139  14.563
14163W        W86588  31.630   1.370   0.934
14164W        W86589  37.006   8.910  11.234
14165W        W86590  26.460   4.187   2.407
14166W        W86591  43.277  40.839   2.222
14167W        W86592   5.677  18.683  11.243
14168W        W86593  24.704  15.102  12.012
14169W        W86594  12.996  23.610  14.461
14170W        W86595  10.801  41.411  14.755
14171W        W86596  37.360  19.692  10.742
14172W        W86597  23.795  19.300   0.529
14173W        W86598  43.455  23.552   3.884
14174W        W86599   8.408   0.255  14.366
14175W        W86600  18.915   0.534   4.992
14176W        W86601   4.055  11.327   2.907
14177W        W86602  43.632   8.671  12.500
14178W        W86603  40.207  22.008   0.772
14179W        W86604  14.353  14.341  12.507
14180W        W86605  10.862  26.518  11.484
14181W        W86606  31.901  39.421  12.033
14182W        W86607  40.474  30.702  13.851
14183W        W86608   1.833  43.870  11.347
14184W        W86609  43.406   1.965  10.591
14185W        W86610  32.104  10.230  11.476
14186W        W86611  40.265  42.571   3.043
14187W        W86612  21.630  41.000   1.689
14188W        W86613  20.365   5.650  14.309
14189W        W86614  39.802   8.625  12.383
14190W        W86615  18.836   6.181  11.755
14191W        W86616  34.946  23.173   2.639
14192W        W86617  28.912   7.897  12.800
14193W        W86618  28.543  32.205   2.949
14194W        W86619  25.441  37.091  14.867
14195W        W86620  41.013  35.883   4.139
14196W        W86621  18.560  10.166  11.619
14197W        W86622  33.065   5.959  12.515
14198W        W86623  34.246  34.937   3.776
14199W        W86624  44.397  37.379  12.343
14200W        W86625   6.833   4.238  11.968
14201W        W86626  29.531  16.606   3.201
14202W        W86627   9.093  36.506   3.297
14203W        W86628  38.283   2.207   1.845
14204W        W86629  22.732  15.302   2.814
14205W        W86630  43.546  43.763  14.808
14206W        W86631  24.961   0.752  11.474
14207W        W86632  14.233  12.147  13.882
14208W        W86633  20.968  33.024  14.056
14209W        W86634  35.443  41.013   4.623
14210W        W86635  18.022  43.203   1.669
14211W        W86636  13.376  10.998   1.736
14212W        W86637  18.511  26.382   1.806
14213W        W86638  14.466  43.040  12.552
14214W        W86639  22.971   1.663   2.366
14215W        W86640  33.358   6.697   4.632
14216W        W86641  18.234  17.398   3.243
14217W        W86642  23.801   2.846  11.535
14218W        W86643  11.301  20.459   3.145
14219W        W86644  32.981  40.288  13.886
14220W        W86645  11.932  28.994   0.425
14221W        W86646  12.166  39.474  11.546
14222W        W86647  19.205  10.035  14.090
14223W        W86648  33.746  20.182   2.942
14224W        W86649  16.223  10.777   2.986
14225W        W86650  33.495  26.917  10.467
14226W        W86651   1.420   2.279  14.809
14227W        W86652  13.416  24.396  14.733
14228W        W86653  28.542   1.344  12.463
14229W        W86654  14.882  10.797   3.101
14230W        W86655  11.374   5.316   3.840
14231W        W86656  13.910   7.787   1.523
14232W        W86657   7.817   2.209   1.858
14233W        W86658  23.719  28.856   1.972
14234W        W86659  13.726  35.616   2.697
14235W        W86660  26.260  33.013  10.058
14236W        W86661  43.435   3.288  11.469
14237W        W86662   9.411  27.648   0.301
14238W        W86663  34.116   7.415  12.476
14239W        W86664   5.422  30.588   1.831
14240W        W86665  20.633  34.637   3.617
14241W        W86666  41.062  16.968  12.302
14242W        W86667   3.002   9.041  14.498
14243W        W86668  40.709  17.779   1.457
14244W        W86669  31.463  18.976   1.858
14245W        W86670  37.931  22.106   3.308
14246W        W86671  21.855  18.745   1.483
14247W        W86672  12.770  27.048   1.951
14248W        W86673  27.576  22.490   1.244
14249W        W86674  15.561  40.404   2.626
14250W        W86675  35.121  39.356  14.458
14251W        W86676   3.049  15.837  13.430
14252W        W86677  34.034  43.378  10.349
14253W        W86678   6.486   9.868  11.579
14254W        W86679   5.223  43.666   1.279
14255W        W86680  26.248  21.139   1.389
14256W        W86681   5.062  15.854  14.607
14257W        W86682  30.732  36.504   3.671
14258W        W86683  24.026   2.770   1.927
14259W        W86684  13.702  39.278   3.273
14260W        W86685  36.084  23.107  12.348
14261W        W86686  13.935  37.924  12.760
14262W        W86687  21.669  10.160   0.710
14263W        W86688  11.813  42.879  13.018
14264W        W86689   7.051  32.174   3.798
14265W        W86690  37.802  34.056  12.030
14266W        W86691  23.561  24.430   2.361
14267W        W86692  15.700   0.891  11.102
14268W        W86693  21.464  36.531   0.657
14269W        W86694  10.685  19.127  12.989
14270W        W86695  10.936  17.612  11.969
14271W        W86696  40.448  33.533  14.211
14272W        W86697  31.452  42.534  10.459
14273W        W86698   8.821  25.467  14.243
14274W        W86699   2.317  27.705   3.264
14275W        W86700  10.604  24.234  11.010
14276W        W86701  35.596  43.323  11.149
14277W        W86702  19.654  12.493  12.930
14278W        W86703  12.567   1.697   4.662
14279W        W86704   2.524  21.141  12.490
14280W        W86705   5.303  22.480   0.372
14281W        W86706  15.535  15.088   4.498
14282W        W86707  21.621  32.066  14.835
14283W        W86708  32.535   8.206   4.622
14284W        W86709  40.971   7.207   3.626
14285W        W86710  21.480  31.862  14.385
14286W        W86711   6.766   5.339  13.862
14287W        W86712  44.437  21.962   3.821
14288W        W86713  36.987   5.882   2.209
14289W        W86714  24.041  26.918   3.200
14290W        W86715  44.230   0.020   0.437
14291W        W86716  30.457   5.200  13.414
14292W        W86717   5.308  16.092  13.211
14293W        W86718  32.409  32.795   0.889
14294W        W86719  20.611  13.751   0.712
14295W        W86720  18.491  29.529   4.579
14296W        W86721   1.077  37.426   1.841
14297W        W86722  15.365  44.959  13.340
14298W        W86723  30.042  37.509   0.431
14299W        W86724  40.288   4.450  12.022
14300W        W86725  16.738  42.991   2.769
14301W        W86726  14.549  11.913   2.278
14302W        W86727  42.325  10.293   4.313
14303W        W86728  19.157  31.355  11.075
14304W        W86729  17.538  13.180  11.106
14305W        W86730   5.383  34.381  11.344
14306W        W86731  10.171  16.389   3.113
14307W        W86732  16.197   3.321  11.991
14308W        W86733  43.955  13.617  11.646
14309W        W86734   0.803   7.104  12.496
14310W        W86735  14.965  36.419  11.559
14311W        W86736  27.375   5.273   0.996
14312W        W86737  23.048  26.026  14.898
14313W        W86738  30.855   4.151   0.018
14314W        W86739  35.107  25.825  10.401
14315W        W86740   6.732  19.050  13.440
14316W        W86741  20.718  13.467  12.503
14317W        W86742   1.832  13.650  12.892
14318W        W86743  35.446  23.068  14.070
14319W        W86744  43.936  16.597  13.410
14320W        W86745  38.082  37.862   4.169
14321W        W86746   7.175  34.027  13.799
14322W        W86747  44.015  42.451  13.024
14323W        W86748   4.965  31.890   3.567
14324W        W86749   7.773  24.818  10.810
14325W        W86750  26.044  44.481  11.590
14326W        W86751   2.065  39.167  13.585
14327W        W86752   6.715  33.101   0.070
14328W        W86753  43.076   2.330   0.441
14329W        W86754  27.638   7.992  11.239
14330W        W86755  36.628  12.488   5.080
14331W        W86756   0.667  26.476  12.806
14332W        W86757   1.917   9.350  11.170
14333W        W86758  13.799  40.906   2.960
14334W        W86759  34.355  22.515   2.732
14335W        W86760   8.223   3.334   4.767
14336W        W86761  22.336  23.205  11.451
14337W        W86762  33.031  25.598  12.446
14338W        W86763  16.734  42.477   0.772
14339W        W86764  43.755  18.018   2.812
14340W        W86765   8.678   2.238  12.453
14341W        W86766  22.220  33.993  10.666
14342W        W86767  14.646   6.726   0.679
14343W        W86768   1.184  19.576  11.924
14344W        W86769  13.861  16.516   3.519
14345W        W86770  41.333   0.262  11.057
14346W        W86771  29.150  21.168  12.784
14347W        W86772  15.077  24.949   0.906
14348W        W86773  11.379  35.934   4.654
14349W        W86774  40.578  41.307  10.741
14350W        W86775  32.632  24.859  14.157
14351W        W86776  29.125  35.180  13.425
14352W        W86777  34.614  40.569  13.287
14353W        W86778  12.664  42.035  12.474
14354W        W86779  22.928   3.760  12.162
14355W        W86780  17.035  37.354  12.841
14356W        W86781  36.876   2.878  10.711
14357W        W86782  18.673   7.398   4.106
14358W        W86783  18.360   9.004   2.447
14359W        W86784  25.072  43.611  11.009
14360W        W86785   2.527  18.483   2.210
14361W        W86786  30.132  31.866   2.731
14362W        W86787  17.522  32.317   2.645
14363W        W86788   6.571   5.833   4.074
14364W        W86789  29.966  38.314  11.150
14365W        W86790  33.547  38.836  13.877
14366W        W86791  12.440   4.336   4.637
14367W        W86792  20.582  22.000  11.535
14368W        W86793   8.781   9.177   3.584
14369W        W86794  28.767  14.751   2.454
14370W        W86795   2.437   9.161  13.399
14371W        W86796  16.302  10.294   4.550
14372W        W86797  39.526  38.934  10.696
14373W        W86798  34.763  10.127  10.804
14374W        W86799   7.269   1.405  11.870
14375W        W86800   5.813  37.990  11.203
14376W        W86801  34.048  29.134  11.732
14377W        W86802  23.618  28.398   4.069
14378W        W86803  37.529   9.868   3.280
14379W        W86804  37.947   1.422  14.200
14380W        W86805  24.939   2.431  14.822
14381W        W86806   7.379  27.404  14.300
14382W        W86807  35.818  43.754  14.368
14383W        W86808  41.060  42.761   2.121
14384W        W86809  33.176  22.026   1.840
14385W        W86810  19.759  26.035   3.046
14386W        W86811  11.763  39.981   0.297
14387W        W86812  25.350  35.617  14.971
14388W        W86813   0.276  19.826   2.763
14389W        W86814  42.557  11.499  12.982
14390W        W86815  11.336  13.542   1.482
14391W        W86816  38.375  22.548   4.380
14392W        W86817   0.372  32.499  10.695
14393W        W86818  20.274  32.564   0.882
14394W        W86819  14.722   6.128  12.812
14395W        W86820  30.600  40.742   2.003
14396W        W86821  25.526  28.549  13.926
14397W        W86822  24.949  24.562  12.939
14398W        W86823  24.585   2.998   1.878
14399W        W86824  19.532  32.581   9.878
14400W        W86825  26.020  36.993   3.943
14401W        W86826  42.197  27.652   2.353
14402W        W86827   6.955   8.893   3.261
14403W        W86828   8.961   4.658   4.132
14404W        W86829  33.801  22.623   3.340
14405W        W86830  43.494  18.676   3.428
14406W        W86831  26.214  36.412  14.343
14407W        W86832   0.068  30.279  12.822
14408W        W86833  43.560  17.113  10.666
14409W        W86834  13.716  44.381   2.675
14410W        W86835  34.670   0.456  14.942
14411W        W86836  33.461  22.653   4.249
14412W        W86837  34.416  42.106  10.475
14413W        W86838  25.830  38.792   1.414
14414W        W86839  37.972  23.504   0.408
14415W        W86840  27.195  11.812   3.690
14416W        W86841   0.619  37.289   5.270
14417W        W86842  26.923  28.326   4.198
14418W        W86843  44.596  22.230   0.289
14419W        W86844  19.340  16.676   2.223
14420W        W86845  19.450  35.951   4.202
14421W        W86846  36.454  33.532  12.464
14422W        W86847  36.500   8.769   4.248
14423W        W86848  27.080   6.457  12.396
14424W        W86849  33.486  29.012   3.073
14425W        W86850   1.786  10.135   4.165
14426W        W86851  37.045   0.572   3.753
14427W        W86852   6.927   9.820  12.505
14428W        W86853  26.855  31.235  14.764
14429W        W86854  34.225  34.806   4.405
14430W        W86855  20.091  41.963   0.597
14431W        W86856  27.442  33.446  10.511
14432W        W86857   2.728  42.137   0.947
14433W        W86858  11.576  17.528   0.407
14434W        W86859  35.938  16.247  11.905
14435W        W86860  13.067   3.416   4.663
14436W        W86861  33.789   4.937   4.930
14437W        W86862  21.721   7.375  10.879
14438W        W86863  28.585  20.323   3.310
14439W        W86864  14.639  11.906   1.345
14440W        W86865   9.813  33.070   1.962
14441W        W86866  41.808  40.765  14.581
14442W        W86867  25.195  30.632  13.300
14443W        W86868  20.534  32.421  14.897
14444W        W86869  40.419  37.899   4.654
14445W        W86870   5.428  34.925   3.535
14446W        W86871   5.997  34.695  12.519
14447W        W86872  44.373  27.129   2.307
14448W        W86873  33.473  21.274  13.272
14449W        W86874  39.033   8.857   1.572
14450W        W86875  26.884  12.961  11.165
14451W        W86876  30.892  21.597   4.293
14452W        W86877  25.119   7.374  13.350
14453W        W86878  32.463   0.835   3.186
14454W        W86879  13.657  34.911  11.639
14455W        W86880   9.621   1.578  14.006
14456W        W86881  21.361  18.681   1.428
14457W        W86882  23.130   9.891  14.897
14458W        W86883  42.394  22.817   3.270
14459W        W86884   0.504  28.205  11.031
14460W        W86885   0.343   9.366  11.907
14461W        W86886  36.032   6.414   2.260
14462W        W86887  27.859  22.968  11.163
14463W        W86888  38.803  25.397  10.719
14464W        W86889  25.796   6.772  12.553
14465W        W86890  28.930  13.690  13.485
14466W        W86891   4.259  33.378  13.454
14467W        W86892  43.855  20.056  12.813
14468W        W86893   7.285  30.973   1.311
14469W        W86894  17.313  36.669  11.103
14470W        W86895   1.445  38.811  14.828
14471W        W86896  35.509  32.135  13.463
14472W        W86897  27.008  21.639  14.131
14473W        W86898  24.932  24.719  11.266
14474W        W86899  30.060  37.277  11.116
14475W        W86900  43.228  23.567   4.858
14476W        W86901   2.669  23.982  13.220
14477W        W86902   1.436  44.812  10.635
14478W        W86903  30.415   8.256   3.645
14479W        W86904  26.718  11.276  14.965
14480W        W86905  15.621  28.204   1.962
14481W        W86906  22.277  38.152  12.455
14482W        W86907  31.371   8.744  11.366
14483W        W86908  44.322   6.139  14.238
14484W        W86909  41.006   2.750  13.981
14485W        W86910  27.660  40.965  10.926
14486W        W86911  35.631  14.203   0.485
14487W        W86912  44.744  17.020   3.216
14488W        W86913   5.813  14.595  14.194
14489W        W86914   1.505  24.731   2.787
14490W        W86915  36.022  27.333  10.709
14491W        W86916  12.754  20.572   2.630
14492W        W86917  12.671  33.106   2.234
14493W        W86918  36.551   5.836   1.810
14494W        W86919  41.782   5.815   3.629
14495W        W86920  21.506  39.580  10.991
14496W        W86921  16.188  13.602   3.320
14497W        W86922  28.676   7.708  14.380
14498W        W86923  23.271  23.042   3.872
14499W        W86924   5.954  25.594   4.852
14500W        W86925  28.683  43.911   0.865
14501W        W86926  36.969  24.038  12.909
14502W        W86927  29.036   7.866   1.556
14503W        W86928  34.944  38.066  13.594
14504W        W86929  37.093  15.132   0.341
14505W        W86930   5.863   4.417  12.036
14506W        W86931  42.415  20.489   3.714
14507W        W86932  26.854  20.182   3.536
14508W        W86933  38.866  42.227   0.330
14509W        W86934   4.195  42.801   0.510
14510W        W86935   7.936   9.208  10.404
14511W        W86936  16.363  41.004  12.539
14512W        W86937  12.588  14.715  14.894
14513W        W86938  21.913  23.088  11.720
14514W        W86939  11.858   8.358   2.135
14515W        W86940   2.340  16.201   4.340
14516W        W86941  35.377   5.661  14.546
14517W        W86942  20.196  27.537   1.294
14518W        W86943  22.969  13.685   0.465
14519W        W86944   1.082  15.298  12.142
14520W        W86945   6.689  32.691   0.399
14521W        W86946   7.718  19.879   4.064
14522W        W86947  13.544  31.958   1.585
14523W        W86948  11.451   5.008   2.400
14524W        W86949  24.107  16.312   2.934
14525W        W86950  39.872   7.435   3.258
14526W        W86951  13.551  29.910  12.024
14527W        W86952   9.352  16.434  13.615
14528W        W86953   3.672  15.266   4.405
14529W        W86954  26.985   4.649  11.204
14530W        W86955  27.918  33.626  12.008
14531W        W86956  22.662  42.399  14.006
14532W        W86957  15.755  13.763  10.789
14533W        W86958  20.806  34.808  11.958
14534W        W86959  36.357  28.530  11.900
14535W        W86960   1.004   0.612   0.952
14536W        W86961   0.761  31.516  12.588
14537W        W86962   9.382   9.852   2.630
14538W        W86963  30.467  42.491  10.551
14539W        W86964  41.778  41.750   1.224
14540W        W86965  22.561  12.165  12.853
14541W        W86966  30.519  17.671   2.826
14542W        W86967  26.606  40.475  14.810
14543W        W86968  32.791  43.494  14.842
14544W        W86969  43.980   1.941   1.917
14545W        W86970   2.441  10.205  14.999
14546W        W86971  27.412  21.960   1.414
14547W        W86972  24.268  24.668   0.310
14548W        W86973   1.246   7.912  12.602
14549W        W86974  21.241  32.935   1.438
14550W        W86975  38.458   7.755  10.453
14551W        W86976  20.138  18.908  14.714
14552W        W86977  31.021  44.046   3.341
14553W        W86978  23.169  30.544  11.661
14554W        W86979   6.971  22.610   3.152
14555W        W86980   7.183  22.712   4.887
14556W        W86981  23.965  19.452  12.086
14557W        W86982   9.790  16.159  13.663
14558W        W86983   1.024   8.688   0.197
14559W        W86984  43.036  42.831   2.346
14560W        W86985  35.807  32.964   1.154
14561W        W86986  25.754  44.838  11.123
14562W        W86987  39.740   0.699   0.010
14563W        W86988  31.377   1.274  10.972
14564W        W86989  33.615   1.369   3.940
14565W        W86990  18.371  12.068  13.185
14566W        W86991   2.189  43.359   1.430
14567W        W86992  37.469  11.293  13.933
14568W        W86993  26.143  37.327   2.199
14569W        W86994  37.815   2.814   3.290
14570W        W86995  35.391   4.156   1.723
14571W        W86996  20.734  39.585   0.178
14572W        W86997  21.988  34.462   1.297
14573W        W86998   3.748   0.938  12.871
14574W        W86999  41.501  24.682   0.778
14575W        W87000  21.697  28.968   3.617
14576W        W87001   8.767  40.069  11.094
14577W        W87002  27.941  38.442  13.228
14578W        W87003  43.227  18.728  12.426
14579W        W87004  38.951   1.004   1.782
14580W        W87005  24.506  26.747  10.551
14581W        W87006  37.462  10.363   3.173
14582W        W87007  26.987  33.363  13.975
14583W        W87008  10.887  44.655   4.036
14584W        W87009  38.327  43.720  10.174
14585W        W87010  15.884  18.092  11.246
14586W        W87011   2.798  32.333   0.779
14587W        W87012  36.975   9.712  12.547
14588W        W87013   0.390  27.411   2.395
14589W        W87014  34.783   3.775   0.803
14590W        W87015   9.162  44.139   0.454
14591W        W87016  35.863  20.101   4.708
14592W        W87017   4.491  18.215  13.593
14593W        W87018  40.853  38.759  11.587
14594W        W87019   9.104  12.385   5.033
14595W        W87020  35.579  22.000   1.790
14596W        W87021  21.608  34.058   3.068
14597W        W87022  24.567   5.466  14.056
14598W        W87023   7.015  39.400   4.421
14599W        W87024  39.350  21.004  12.622
14600W        W87025  24.114  17.823  13.461
14601W        W87026  31.700  42.898   4.640
14602W        W87027  17.798   6.642   0.332
14603W        W87028   0.690   5.196   3.248
14604W        W87029   1.224  34.466  13.876
14605W        W87030  20.540   5.236   2.312
14606W        W87031   0.670  11.762   3.713
14607W        W87032   2.390  13.623  13.185
14608W        W87033   6.677   8.675   1.251
14609W        W87034   9.260  19.290   1.539
14610W        W87035   1.915  23.769   3.400
14611W        W87036  17.524   7.905  12.428
14612W        W87037  35.209  42.905   1.753
14613W        W87038  20.533   9.644   3.254
14614W        W87039   7.119  23.291   2.270
14615W        W87040   0.320  34.570  12.342
14616W        W87041  12.352   7.353  11.389
14617W        W87042  29.452   0.264  10.269
14618W        W87043  11.731   2.784  12.843
14619W        W87044  39.149  13.777   2.331
14620W        W87045  28.402   0.215  11.157
14621W        W87046  23.084   4.367  12.296
14622W        W87047   1.795  34.834   2.404
14623W        W87048   9.937  15.661   4.245
14624W        W87049  34.565  32.719  12.445
14625W        W87050   0.975  21.138  11.535
14626W        W87051  43.840   6.983   0.336
14627W        W87052   9.740  23.536  11.481
14628W        W87053   6.546  13.569  12.123
14629W        W87054  10.882  25.616  13.517
14630W        W87055   5.419  38.849   3.922
14631W        W87056   6.629  41.497  13.981
14632W        W87057   6.064  29.030   0.904
14633W        W87058  16.364  15.563   3.996
14634W        W87059   7.597  21.127  10.600
14635W        W87060  24.313  18.287   5.052
14636W        W87061  36.396  30.985  12.839
14637W        W87062  43.875  40.937   0.924
14638W        W87063  43.732  11.256   1.236
14639W        W87064  10.552  36.497   2.190
14640W        W87065  16.363  43.907   1.758
14641W        W87066  15.112  38.483   1.778
14642W        W87067  44.309   9.281  14.972
14643W        W87068  36.490   5.244  11.175
14644W        W87069  12.185  21.520  10.368
14645W        W87070   9.771  27.052  12.998
14646W        W87071   7.713  38.557   3.138
14647W        W87072  35.863  22.230  12.376
14648W        W87073  38.543  17.022  12.858
14649W        W87074  15.178  16.559  14.878
14650W        W87075  39.706  44.872  10.596
14651W        W87076  43.863  34.794  11.003
14652W        W87077   6.773  17.755  10.749
14653W        W87078  27.180  14.023   2.740
14654W        W87079   1.220  25.038   4.168
14655W        W87080  21.637  42.798   1.485
14656W        W87081  39.498   1.357   4.776
14657W        W87082  11.064  29.974   3.494
14658W        W87083  43.752  14.172  13.014
14659W        W87084  38.817   9.837   4.633
14660W        W87085  15.744  21.715  11.967
14661W        W87086   0.663   2.279  13.951
14662W        W87087  12.615  10.424   4.130
14663W        W87088  42.472  25.502  10.735
14664W        W87089   2.258  13.732   3.664
14665W        W87090  18.616  33.122  11.091
14666W        W87091   0.272   5.680  11.104
14667W        W87092   2.746  43.876   1.852
14668W        W87093  10.366  18.977  11.451
14669W        W87094  16.464  36.944   2.433
14670W        W87095   8.374  44.819   1.898
14671W        W87096  15.248  39.764  11.510
14672W        W87097  34.473  26.172   0.771
14673W        W87098   5.724   2.557  13.141
14674W        W87099  41.253  33.648  14.474
14675W        W87100  12.341  44.326  10.313
14676W        W87101  43.532  29.395   0.641
14677W        W87102  13.890  29.115   1.931
14678W        W87103  36.392  15.155  11.148
14679W        W87104  32.051  18.400  11.577
14680W        W87105  23.104   5.746  11.476
14681W        W87106  44.946  17.491   3.207
14682W        W87107  24.663  31.864  14.081
14683W        W87108  30.097  41.553   1.823
14684W        W87109  24.167  29.196  10.746
14685W        W87110  24.862  28.025   4.612
14686W        W87111  13.263  28.510   4.274
14687W        W87112   9.338  38.360  12.554
14688W        W87113  15.271  16.329   1.271
14689W        W87114  12.364  10.154  13.949
14690W        W87115  25.462  44.478   3.740
14691W        W87116  37.765  25.468   3.932
14692W        W87117  23.607   7.780   0.288
14693W        W87118  26.743  29.466   3.369
14694W        W87119  36.510  20.309   1.269
14695W        W87120  16.772  35.295  13.998
14696W        W87121   3.253  26.557  11.639
14697W        W87122  36.437  40.533  13.552
14698W        W87123  16.662   8.374   0.314
14699W        W87124  20.179  44.766   2.251
14700W        W87125   0.245   5.344  14.461
14701W        W87126  38.419  18.818  11.579
14702W        W87127  28.089   8.772   0.150
14703W        W87128  25.792  14.221   2.328
14704W        W87129   9.230  43.467   2.226
14705W        W87130  18.581  26.641  10.783
14706W        W87131   8.940  43.413   2.697
14707W        W87132  30.929   7.088  13.593
14708W        W87133  22.875  17.742  13.286
14709W        W87134  28.210  26.665   1.010
14710W        W87135  15.641  35.001   3.152
14711W        W87136  28.670  44.745   2.400
14712W        W87137  23.626   8.682  13.029
14713W        W87138  26.756  15.777  12.666
14714W        W87139  10.989  41.019   3.091
14715W        W87140  13.877  18.330   3.284
14716W        W87141  15.663   6.448   2.374
14717W        W87142  20.309   6.498   0.361
14718W        W87143  11.768  11.310  12.075
14719W        W87144   3.240  17.047   1.371
14720W        W87145  40.820  29.130   1.577
14721W        W87146  33.102  19.210  13.886
14722W        W87147  25.194  34.168  13.369
14723W        W87148  28.707  37.139  14.372
14724W        W87149  22.590   7.414  11.985
14725W        W87150   2.288  13.648   2.758
14726W        W87151  24.207  18.139   4.575
14727W        W87152  31.807  33.840  13.400
14728W        W87153   7.492   1.927  11.091
14729W        W87154  36.899  25.327   3.980
14730W        W87155  13.576  32.791   3.776
14731W        W87156  14.877  20.329  13.324
14732W        W87157  20.553  36.342   0.452
14733W        W87158  30.629   6.184  12.182
14734W        W87159  41.937  21.648  10.668
14735W        W87160  39.370  13.014   3.411
14736W        W87161  25.122  42.914   3.555
14737W        W87162   7.948  11.874  14.300
14738W        W87163  31.170  29.691  12.485
14739W        W87164   9.267  10.689  14.397
14740W        W87165  23.004  43.689  13.822
14741W        W87166  36.175  12.683  10.704
14742W        W87167  15.813  34.206   2.490
14743W        W87168  23.799  31.498  13.746
14744W        W87169   7.813   4.160   3.812
14745W        W87170   9.452  19.814  10.565
14746W        W87171  26.111  13.071  14.940
14747W        W87172  11.628  20.099   3.302
14748W        W87173   1.830  38.601   2.770
14749W        W87174  37.591  12.341  10.709
14750W        W87175  24.424   7.742  13.027
14751W        W87176  27.049   2.393  13.529
14752W        W87177  16.264   7.190   0.770
14753W        W87178   9.224  25.012  13.508
14754W        W87179  21.118  14.446  12.024
14755W        W87180  14.908  24.120  10.009
14756W        W87181  11.087  33.154   3.619
14757W        W87182  10.651   3.523   0.466
14758W        W87183  41.336  27.644  13.073
14759W        W87184   5.844   6.257  13.938
14760W        W87185  23.148  23.528  11.416
14761W        W87186   7.366   9.592  14.238
14762W        W87187   1.062  42.317  14.316
14763W        W87188  23.617  37.001   1.041
14764W        W87189  38.449  26.755  11.563
14765W        W87190  42.811  13.662  10.806
14766W        W87191  32.913  37.882   1.163
14767W        W87192  27.473  10.858  12.377
14768W        W87193   0.285   4.573  13.354
14769W        W87194  34.091  12.162   2.785
14770W        W87195  43.501  35.037  10.714
14771W        W87196   4.461  15.863   3.293
14772W        W87197  18.167   0.246   0.767
14773W        W87198   0.150  11.648   3.707
14774W        W87199  37.558  39.379  12.111
14775W        W87200  30.562  21.214   2.127
14776W        W87201  43.906   2.095   4.188
14777W        W87202  41.251  16.220  10.675
14778W        W87203  34.055  34.310   1.658
14779W        W87204  17.997  33.691   4.344
14780W        W87205   1.379  16.072   2.819
14781W        W87206  10.712  25.374  12.482
14782W        W87207  32.889  10.150  14.914
14783W        W87208  13.756   5.401   3.763
14784W        W87209   9.136  21.098   1.190
14785W        W87210  39.939   5.672   3.151
14786W        W87211  26.581  29.657  11.540
14787W        W87212  10.458  32.117  13.355
14788W        W87213  22.207  36.039  14.387
14789W        W87214  34.029  32.814  14.037
14790W        W87215  11.381  28.168  11.201
14791W        W87216  10.169  37.560   2.862
14792W        W87217  25.825  38.217  11.152
14793W        W87218  12.496  22.871   0.270
14794W        W87219  11.568  26.724   9.868
14795W        W87220  16.611  43.450   0.973
14796W        W87221  16.052  15.063  13.968
14797W        W87222  17.795  12.767  13.946
14798W        W87223   1.789   6.635  12.565
14799W        W87224  22.140   4.734   3.685
14800W        W87225  15.198   9.697   1.918
14801W        W87226  20.847  16.860   3.272
14802W        W87227  34.085  15.731  14.798
14803W        W87228  29.646   7.861   3.911
14804W        W87229  24.530   9.122   2.304
14805W        W87230  16.197   0.832  11.832
14806W        W87231   4.879  10.355  12.661
14807W        W87232   1.505  17.565  11.186
14808W        W87233  43.476  32.788  11.723
14809W        W87234  14.924  22.153   0.676
14810W        W87235  37.559  13.138  12.043
14811W        W87236  16.629  39.756  11.533
14812W        W87237   8.702  18.680  10.761
14813W        W87238  44.860   0.780   4.654
14814W        W87239  13.808  21.289   0.890
14815W        W87240  44.957  27.515  13.526
14816W        W87241  28.022   5.769  13.866
14817W        W87242  10.346  22.085  13.110
14818W        W87243  20.654   4.333  14.887
14819W        W87244  22.973  42.959   3.282
14820W        W87245  20.232   3.893  14.815
14821W        W87246  37.294  36.968  11.949
14822W        W87247  37.910  31.926   1.908
14823W        W87248   8.184  18.317   3.704
14824W        W87249  21.240  12.367   4.089
14825W        W87250  35.496  31.517   2.856
14826W        W87251  25.431  25.468  11.068
14827W        W87252  13.103  18.146  11.134
14828W        W87253  15.684   4.220  11.132
14829W        W87254   7.834  19.559   0.423
14830W        W87255   1.057  11.568  10.231
14831W        W87256  22.447  17.106   1.134
14832W        W87257  11.411  23.745  10.022
14833W        W87258  17.074  11.671   3.676
14834W        W87259   9.386  19.558   0.216
14835W        W87260  42.881   1.014   2.871
14836W        W87261   9.843  24.538  11.963
14837W        W87262  35.939  17.615  12.941
14838W        W87263  34.317   6.669   2.351
14839W        W87264  26.641  28.478   1.231
14840W        W87265  21.547  39.584   0.942
14841W        W87266  25.087  39.660   2.832
14842W        W87267  32.350  16.752  14.311
14843W        W87268   2.071  19.788  14.842
14844W        W87269   6.802  36.780  10.682
14845W        W87270   8.193  41.129   2.799
14846W        W87271  12.678   0.441   0.259
14847W        W87272  43.995  17.799  12.030
14848W        W87273  43.509  40.764  14.892
14849W        W87274  37.507  27.830   4.514
14850W        W87275  10.763  30.383   3.355
14851W        W87276  40.358  40.980  14.478
14852W        W87277  35.906  28.226   4.828
14853W        W87278  24.137  24.546   0.873
14854W        W87279  18.215  32.799   4.626
14855W        W87280  11.758  26.450  12.470
14856W        W87281   2.868  37.358  11.668
14857W        W87282  11.159  37.484   4.639
14858W        W87283  11.182   0.498   1.832
14859W        W87284  41.575  27.977   3.142
14860W        W87285  20.756  37.314  10.856
14861W        W87286   1.046   8.231  10.855
14862W        W87287   3.950  20.071   1.761
14863W        W87288  14.843  18.046  13.639
14864W        W87289  41.503  18.044   9.904
14865W        W87290  11.566   0.376   3.308
14866W        W87291  43.735  37.298   3.694
14867W        W87292  31.936  37.549  14.808
14868W        W87293  31.517  21.568   3.107
14869W        W87294  23.420  13.828  14.325
14870W        W87295  38.119  20.430  12.197
14871W        W87296  15.737  44.522  12.089
14872W        W87297  17.082  26.962  12.446
14873W        W87298  37.379  23.477   1.953
14874W        W87299  13.291   5.285   4.642
14875W        W87300   4.417  40.184   3.702
14876W        W87301  23.487  16.255  14.338
14877W        W87302  16.643  13.669   2.447
14878W        W87303  39.612  44.441  12.173
14879W        W87304   7.907  25.133  10.403
14880W        W87305   3.169   3.075  11.103
14881W        W87306   1.386  21.232   2.711
14882W        W87307  14.664  25.422   2.794
14883W        W87308  12.998  32.406  12.829
14884W        W87309  31.068   2.924   3.152
14885W        W87310   4.835  27.200   0.761
14886W        W87311  38.030  22.919   4.508
14887W        W87312  12.531  28.687   1.009
14888W        W87313  31.040   2.268  12.847
14889W        W87314  11.401  13.598   0.369
14890W        W87315  21.194  36.482  12.145
14891W        W87316  38.310  15.107   1.373
14892W        W87317  27.214  25.624  11.536
14893W        W87318  44.831  35.891   0.781
14894W        W87319  31.150  22.312  14.552
14895W        W87320  39.941  17.338   2.951
14896W        W87321  23.493  15.295  11.579
14897W        W87322   7.491  42.996  14.957
14898W        W87323  19.845  41.038   0.207
14899W        W87324  19.619   0.031   4.564
14900W        W87325   2.488  36.058   1.248
14901W        W87326  13.598  15.193  13.900
14902W        W87327  37.738  18.670  13.011
14903W        W87328   0.957  33.635   0.767
14904W        W87329  38.861  28.627  12.045
14905W        W87330  20.936   7.592   3.157
14906W        W87331  40.404  38.255   4.251
14907W        W87332  38.998  38.106  14.525
14908W        W87333  43.381  26.256  14.233
14909W        W87334   9.893  23.087   0.428
14910W        W87335  43.279  30.619  10.738
14911W        W87336  38.654  21.632  10.678
14912W        W87337   5.466  10.493   1.610
14913W        W87338  41.825  40.509   1.872
14914W        W87339  23.829   9.842   2.639
14915W        W87340  34.833  12.586   3.659
14916W        W87341  23.109  31.350  14.417
14917W        W87342   4.285  27.595  14.020
14918W        W87343   9.558  31.722  12.489
14919W        W87344   4.770  35.477   3.661
14920W        W87345  15.308   2.211  13.398
14921W        W87346  35.056  11.415   1.867
14922W        W87347  41.800  42.471   0.338
14923W        W87348   4.860   0.737  12.550
14924W        W87349  32.436   2.311  11.823
14925W        W87350   9.909  12.620   1.933
14926W        W87351  20.928   2.993   0.574
14927W        W87352  32.153  25.959  13.609
14928W        W87353  23.023  20.851   0.874
14929W        W87354   9.926  38.234   1.288
14930W        W87355  18.734  26.085   4.429
14931W        W87356  26.179   1.811   4.059
14932W        W87357  35.368   1.461  13.400
14933W        W87358  15.780  18.644  11.977
14934W        W87359  17.121  23.964  13.896
14935W        W87360  39.762   9.888  10.598
14936W        W87361  21.231  26.441  12.808
14937W        W87362  10.970  27.984  12.545
14938W        W87363  21.087   5.387  11.559
14939W        W87364   3.474   2.811  10.381
14940W        W87365   7.908  38.480  13.361
14941W        W87366  14.910  33.604   2.614
14942W        W87367  23.456   1.428  13.149
14943W        W87368  28.213  16.039  13.860
14944W        W87369  22.409  31.435   0.980
14945W        W87370  42.804  18.693  14.008
14946W        W87371  22.723  25.865  11.755
14947W        W87372   0.744   3.360  13.076
14948W        W87373  26.758  26.910  12.012
14949W        W87374  20.756  27.525  14.413
14950W        W87375   5.265  22.091  13.274
14951W        W87376  39.841  35.673  11.130
14952W        W87377  35.641   1.218   4.026
14953W        W87378  32.389  33.450   1.457
14954W        W87379  39.828  18.811   3.176
14955W        W87380   6.307  41.921  12.034
14956W        W87381  43.988  42.065  14.870
14957W        W87382  41.301  26.522   1.337
14958W        W87383   6.100  42.293   1.692
14959W        W87384   4.020  41.843   1.386
14960W        W87385  37.229   5.341   4.570
14961W        W87386  24.372  30.858   0.439
14962W        W87387  13.526   1.347  11.646
14963W        W87388   6.221   8.960  11.867
14964W        W87389   6.328  38.770   3.602
14965W        W87390  16.057  36.052   4.322
14966W        W87391  12.078  13.653   3.322
14967W        W87392   8.355  43.892  11.319
14968W        W87393  30.942  23.664   1.422
14969W        W87394  11.651   7.670   1.858
14970W        W87395  11.224  19.306   0.701
14971W        W87396  15.119  10.650   4.303
14972W        W87397  41.954  34.192  11.025
14973W        W87398  14.698  19.211   1.407
14974W        W87399  38.903  38.425   0.109
14975W        W87400   1.429  19.182   3.437
14976W        W87401  16.043   2.294  12.841
14977W        W87402   8.652   3.729  10.546
14978W        W87403  12.383  19.164   2.286
14979W        W87404   4.281   2.709   1.704
14980W        W87405  20.999  16.133   2.210
14981W        W87406  24.753  44.977  14.020
14982W        W87407  11.847  19.206   2.342
14983W        W87408  14.647  24.435   2.655
14984W        W87409   5.356  42.718  14.995
14985W        W87410  15.721  23.113   0.669
14986W        W87411  41.908  37.941  11.543
14987W        W87412   3.210  27.090   5.011
14988W        W87413  21.944  14.499  12.522
14989W        W87414  37.779  20.194  12.566
14990W        W87415  13.096   5.709  14.728
14991W        W87416  19.254  29.602   0.000
14992W        W87417  18.506  22.739   0.688
14993W        W87418   1.015  23.426  13.485
14994W        W87419  41.923  30.491   3.110
14995W        W87420  27.016  38.981  14.514
14996W        W87421  34.061   5.943  13.491
14997W        W87422  15.937  39.518  14.812
14998W        W87423  12.743  38.585  11.203
14999W        W87424   2.258  33.842  12.208
15000W        W87425   9.431  43.916  13.198
15001W        W87426  38.405  27.724  14.887
15002W        W87427  19.258  12.393   1.797
15003W        W87428  34.451   6.999   3.734
15004W        W87429  33.166  10.177  11.371
15005W        W87430  19.172  21.268  11.589
15006W        W87431   5.204  11.324  10.618
15007W        W87432  38.005  37.370   1.467
15008W        W87433  31.574  37.740   1.777
15009W        W87434  33.885  33.572  14.926
15010W        W87435  31.451  21.752   4.621
15011W        W87436   0.913  20.793  12.124
15012W        W87437  36.019  34.878   3.600
15013W        W87438   3.241  44.800   3.602
15014W        W87439  38.397  15.132   1.877
15015W        W87440  10.002  34.514   3.632
15016W        W87441  41.688  24.077  13.856
15017W        W87442   6.149  23.331  14.939
15018W        W87443   6.209  37.908   0.479
15019W        W87444  10.885  14.709  13.456
15020W        W87445  18.029   0.726  11.006
15021W        W87446  33.661  40.322   3.316
15022W        W87447  16.598   8.781  11.971
15023W        W87448  29.359  15.355   2.344
15024W        W87449  26.116   1.247  14.010
15025W        W87450  19.818  40.921  11.676
15026W        W87451  27.829   6.880  12.665
15027W        W87452  17.105  12.194   2.843
15028W        W87453  41.395  40.904  11.372
15029W        W87454  18.068   3.679  11.961
15030W        W87455  26.110  30.413  12.587
15031W        W87456  15.604  14.214   1.236
15032W        W87457  14.197  19.696  14.338
15033W        W87458  14.301  41.865   5.215
15034W        W87459  43.051  17.677   1.773
15035W        W87460  12.898   4.224  12.835
15036W        W87461  34.111  25.439  13.801
15037W        W87462  13.124  29.003  14.717
15038W        W87463  12.011  39.314  13.283
15039W        W87464  12.350  27.702  12.533
15040W        W87465  39.263  10.455  13.140
15041W        W87466   9.714  35.490   0.430
15042W        W87467  16.026  24.095   2.668
15043W        W87468  16.000   7.192   1.745
15044W        W87469  39.419  44.618   9.722
15045W        W87470  16.330  40.265   0.424
15046W        W87471  36.855  14.144  14.442
15047W        W87472  38.307  25.523  14.191
15048W        W87473  36.519  43.397  13.301
15049W        W87474  24.141  39.674  10.637
15050W        W87475  36.132   2.871   4.587
15051W        W87476   9.734   4.778   0.120
15052W        W87477   5.476  21.921   4.726
15053W        W87478  18.678   7.289   0.729
15054W        W87479  25.515  13.679  13.933
15055W        W87480   4.256  37.051   2.767
15056W        W87481  40.769  44.892   4.966
15057W        W87482  36.498  39.661   4.515
15058W        W87483  44.237  24.424   2.228
15059W        W87484   5.162  27.658  12.602
15060W        W87485  17.789  38.559  11.679
15061W        W87486  22.767  29.986  14.272
15062W        W87487  32.489  19.210   3.713
15063W        W87488  41.040  25.015   0.170
15064W        W87489  34.009  43.339  10.871
15065W        W87490  31.592   6.641  10.710
15066W        W87491  30.134   8.401  10.920
15067W        W87492   0.895   9.752  10.489
15068W        W87493  40.997  42.970   3.602
15069W        W87494  21.040  20.011   2.873
15070W        W87495  10.382  14.425   1.451
15071W        W87496  31.918  34.877   1.778
15072W        W87497  41.202  25.601   4.578
15073W        W87498  36.290  43.640  14.580
15074W        W87499   9.787  43.787  10.969
15075W        W87500  10.829  44.817  12.794
15076W        W87501  42.410  17.627  13.432
15077W        W87502  35.370  35.989   4.587
15078W        W87503  41.944  23.428   4.739
15079W        W87504   4.268   0.397   0.311
15080W        W87505   6.815  40.783   4.395
15081W        W87506  24.448  22.070   3.377
15082W        W87507  38.915  32.111   2.937
15083W        W87508  12.792  35.972  14.456
15084W        W87509  27.710   2.105   0.708
15085W        W87510  28.124  21.332   1.033
15086W        W87511   1.395  23.247   3.688
15087W        W87512   4.265  27.182   0.398
15088W        W87513  23.113  38.786  14.376
15089W        W87514   6.592  36.525   2.945
15090W        W87515   5.334   7.136   3.526
15091W        W87516  17.203  17.603   1.279
15092W        W87517   2.175  42.006  13.855
15093W        W87518  14.804  41.833   4.414
15094W        W87519  43.541  34.559   4.590
15095W        W87520   0.337  12.158   3.710
15096W        W87521  28.028  12.667  13.713
15097W        W87522  17.060  39.482  12.913
15098W        W87523  11.324   1.294  13.623
15099W        W87524  33.138  34.828   0.382
15100W        W87525   6.357   1.943   2.093
15101W        W87526   3.313  12.351   1.898
15102W        W87527  31.923  17.376   0.003
15103W        W87528  36.594  40.867  11.210
15104W        W87529  33.056   9.361   2.417
15105W        W87530  32.859  28.928  12.174
15106W        W87531  12.590   8.374  14.776
15107W        W87532  30.944  37.940   3.694
15108W        W87533  30.557  37.836   1.653
15109W        W87534  22.181  28.945   1.870
15110W        W87535   6.140  28.989  13.734
15111W        W87536  32.668   2.478   1.329
15112W        W87537  11.174  38.806   3.160
15113W        W87538  25.971  29.178  11.987
15114W        W87539  18.246  18.169  14.077
15115W        W87540   5.368  36.420  11.361
15116W        W87541  14.797  37.282   2.224
15117W        W87542  44.247  38.898   1.879
15118W        W87543  11.712  11.750  13.415
15119W        W87544  32.319  18.213  14.410
15120W        W87545  42.962  27.989   4.086
15121W        W87546  23.214   6.897   0.786
15122W        W87547  17.573  36.140   2.784
15123W        W87548   0.309  14.394   1.821
15124W        W87549   4.947  10.526  13.234
15125W        W87550  17.658  34.077   2.602
15126W        W87551  37.606  20.161   5.131
15127W        W87552   8.958  13.089   2.733
15128W        W87553  41.053  27.012  13.635
15129W        W87554  17.179  17.058   2.610
15130W        W87555  26.747  20.954   1.359
15131W        W87556  19.677  22.479  10.855
15132W        W87557  17.607   3.943  13.544
15133W        W87558  11.896  16.745  12.341
15134W        W87559  16.778   8.409  14.220
15135W        W87560  17.631  43.323  12.602
15136W        W87561  36.912  23.556  12.097
15137W        W87562   9.186   8.748  10.227
15138W        W87563  12.709  36.565  12.317
15139W        W87564  14.879  34.158  14.932
15140W        W87565  24.148  32.626   4.435
15141W        W87566  30.138   0.513   1.824
15142W        W87567   0.186   7.736  13.916
15143W        W87568  39.995  37.144  11.494
15144W        W87569  40.594  30.964   0.428
15145W        W87570  36.380  22.076   0.355
15146W        W87571  43.270  21.047   0.216
15147W        W87572  24.365   2.307   2.772
15148W        W87573  22.535  37.402  14.965
15149W        W87574  43.949  32.637  11.565
15150W        W87575  10.660  21.276   3.694
15151W        W87576  14.360  12.337   0.352
15152W        W87577   0.028  35.397  10.751
15153W        W87578  41.786  14.191  14.794
15154W        W87579  14.040  33.511  13.758
15155W        W87580  26.630  14.676   0.330
15156W        W87581   9.961   6.162   5.474
15157W        W87582  19.158   9.512   0.796
15158W        W87583  16.160  19.547  14.843
15159W        W87584  38.870  33.780   4.454
15160W        W87585  26.589  40.793  14.379
15161W        W87586  20.982  32.136   1.700
15162W        W87587  20.519  44.289  13.494
15163W        W87588  36.627  29.985   0.287
15164W        W87589  17.608  34.177  14.817
15165W        W87590  17.025  14.750  14.920
15166W        W87591  12.824  34.667   1.762
15167W        W87592  40.987  33.062  11.245
15168W        W87593   5.159   3.834  11.568
15169W        W87594  30.393  41.767   1.353
15170W        W87595  32.985   8.684   4.136
15171W        W87596  42.455  14.653  13.379
15172W        W87597   7.999   4.765   4.358
15173W        W87598  24.415  38.910   1.041
15174W        W87599   3.177   3.634   3.922
15175W        W87600  10.438  16.471  12.518
15176W        W87601  34.378  23.289  11.526
15177W        W87602  42.363  36.379   1.330
15178W        W87603  42.250  16.337  10.676
15179W        W87604  15.701   4.767   2.966
15180W        W87605   4.798  26.241  11.410
15181W        W87606  10.786  44.280   3.636
15182W        W87607   0.834  20.595   0.000
15183W        W87608  33.348   6.700  14.950
15184W        W87609  43.275  22.140  10.512
15185W        W87610  17.289  37.570   4.077
15186W        W87611   3.117  20.323  12.535
15187W        W87612  11.975  41.538  13.596
15188W        W87613  42.984   1.484  12.454
15189W        W87614  27.430  34.300  13.531
15190W        W87615   7.412  24.220  14.299
15191W        W87616   9.844  33.048  14.371
15192W        W87617  23.197  37.398   1.855
15193W        W87618   5.767  40.396   1.823
15194W        W87619  24.276  32.458  10.537
15195W        W87620  34.992  27.235   0.226
15196W        W87621  19.972  33.351  14.853
15197W        W87622  20.555  10.298  11.959
15198W        W87623  37.616  31.563   2.168
15199W        W87624  19.776  25.024  13.399
15200W        W87625   4.902   7.165  12.860
15201W        W87626   3.171  44.941  12.597
15202W        W87627  28.890   2.211   3.170
15203W        W87628  14.141  39.725  13.553
15204W        W87629  14.421  26.941  13.990
15205W        W87630   8.138  29.851  11.903
15206W        W87631  15.706  33.480  14.971
15207W        W87632  22.004  26.241  11.126
15208W        W87633   3.003  28.126   0.698
15209W        W87634  31.134  22.909  12.002
15210W        W87635  19.107  37.478   4.778
15211W        W87636  25.280  34.661  13.334
15212W        W87637  15.312  10.604  13.321
15213W        W87638  42.377  37.889  12.477
15214W        W87639  10.330   1.481   3.378
15215W        W87640  42.421  33.220  11.973
15216W        W87641  42.777  34.586  14.029
15217W        W87642   3.796  39.557  13.377
15218W        W87643  44.418  27.560  14.987
15219W        W87644  21.468   8.326  13.501
15220W        W87645  42.801  35.442   4.591
15221W        W87646  27.159  34.754   0.380
15222W        W87647  13.832  22.054   5.808
15223W        W87648  19.456  42.618  12.948
15224W        W87649  33.626   0.920  14.481
15225W        W87650  40.296  27.517  10.713
15226W        W87651   9.127   5.157  10.732
15227W        W87652  24.147  19.106   3.914
15228W        W87653   6.228  39.745   0.093
15229W        W87654   4.469  17.477   2.240
15230W        W87655  20.737  41.898   1.143
15231W        W87656   6.892  16.221   1.916
15232W        W87657   2.741  33.526   3.323
15233W        W87658   9.751   2.237  12.618
15234W        W87659  21.634  20.064   0.927
15235W        W87660   9.312  22.424  11.892
15236W        W87661  30.932  43.991  14.805
15237W        W87662  25.424  28.614   2.046
15238W        W87663  15.840  37.988   4.528
15239W        W87664  35.938  42.269  13.521
15240W        W87665   0.906   1.264   0.069
15241W        W87666   0.285  39.091   1.067
15242W        W87667  42.400   3.538   3.770
15243W        W87668  24.370  18.134  11.425
15244W        W87669  40.041  44.475   0.368
15245W        W87670  18.494   8.409  12.045
15246W        W87671  19.967  20.141  12.472
15247W        W87672  21.225  37.894  13.844
15248W        W87673  21.622  17.193   2.358
15249W        W87674  20.798  23.662   4.060
15250W        W87675  11.846  10.618  12.538
15251W        W87676   7.362  40.021   3.906
15252W        W87677  19.875  39.854   3.587
15253W        W87678  14.129  38.769  12.102
15254W        W87679  43.342  43.265   2.237
15255W        W87680  32.404  41.454  12.643
15256W        W87681  39.794  20.533   1.336
15257W        W87682  39.301  38.613  11.064
15258W        W87683   2.875   5.679  12.367
15259W        W87684   3.442  43.329   2.352
15260W        W87685  25.468   1.986   1.657
15261W        W87686  20.088  35.442   3.820
15262W        W87687  21.732  39.097  14.519
15263W        W87688  13.412  37.622   0.817
15264W        W87689  10.632  32.895   2.911
15265W        W87690   7.394  20.349   1.894
15266W        W87691  28.449  27.565   3.665
15267W        W87692  12.214  35.859  10.636
15268W        W87693  31.957  13.362   0.396
15269W        W87694  21.012  23.659   2.171
15270W        W87695  26.015   5.892   3.329
15271W        W87696  36.614  18.248  10.969
15272W        W87697  15.615  36.972  14.326
15273W        W87698  10.337  25.933  13.920
15274W        W87699  20.057  25.018  10.841
15275W        W87700  12.690   5.908   0.020
15276W        W87701  15.122  35.635   0.719
15277W        W87702  19.201   7.318   2.930
15278W        W87703  27.213  13.936   4.220
15279W        W87704  31.461  31.055  12.118
15280W        W87705  10.035  18.137   4.280
15281W        W87706  23.959  25.434  13.981
15282W        W87707  37.383  43.442  12.440
15283W        W87708  44.808  28.032   1.331
15284W        W87709  29.824   1.768   2.254
15285W        W87710   9.483  43.987  14.525
15286W        W87711  42.065  40.356  14.420
15287W        W87712  21.560  30.617   0.356
15288W        W87713  15.314  23.370  14.970
15289W        W87714  27.085   1.496  12.390
15290W        W87715  11.125  40.475  11.549
15291W        W87716  11.202  24.220   2.662
15292W        W87717  42.964   8.885   4.144
15293W        W87718  42.033   0.715   1.302
15294W        W87719  28.129  19.294  14.549
15295W        W87720  19.171  21.456  12.547
15296W        W87721  19.448  20.524  10.951
15297W        W87722  23.570  23.692  14.995
15298W        W87723  35.582  35.065   0.414
15299W        W87724  15.490  32.606  12.786
15300W        W87725  38.042  25.687   1.392
15301W        W87726  38.240  16.080  11.493
15302W        W87727  28.630  31.501  14.782
15303W        W87728   6.221  43.497  12.027
15304W        W87729   0.425  39.525   4.500
15305W        W87730  32.051  11.094  13.369
15306W        W87731   5.347  31.120  14.944
15307W        W87732  13.117  40.318  11.199
15308W        W87733   9.180   5.374  13.840
15309W        W87734   2.708  22.103   3.352
15310W        W87735  44.705  20.246   0.647
15311W        W87736  44.237  36.656  13.842
15312W        W87737  16.338   7.102  14.412
15313W        W87738  13.358  14.666  11.945
15314W        W87739  30.232  37.847  13.292
15315W        W87740   8.257  22.468  10.520
15316W        W87741  10.382  20.489  10.197
15317W        W87742  29.670   2.680   3.273
15318W        W87743  37.079  14.370   0.832
15319W        W87744  15.703  41.308  12.899
15320W        W87745   8.174   2.329  10.654
15321W        W87746  23.720  40.415  10.552
15322W        W87747  30.185  35.464   2.351
15323W        W87748  44.575  22.162  11.142
15324W        W87749  11.608   1.367  11.541
15325W        W87750  17.334  44.517  11.491
15326W        W87751   4.914  35.723   2.271
15327W        W87752   7.246  41.048   2.767
15328W        W87753  41.295  40.953  11.873
15329W        W87754  17.693  42.027  10.763
15330W        W87755   9.773  24.211  13.253
15331W        W87756   2.801  23.181  11.535
15332W        W87757  42.655  16.468  12.176
15333W        W87758  40.751   0.203  13.306
15334W        W87759  34.995   1.913   0.751
15335W        W87760  32.927   8.208  12.501
15336W        W87761  17.750  34.076   4.632
15337W        W87762  35.420  22.053   3.910
15338W        W87763  20.510   6.721  14.815
15339W        W87764  11.578  33.282   1.653
15340W        W87765  27.050  33.851   2.623
15341W        W87766  31.263  19.183   5.125
15342W        W87767  44.846  23.976  13.453
15343W        W87768  34.463  19.265   1.695
15344W        W87769   3.170  26.100   3.677
15345W        W87770  19.570  28.911  11.151
15346W        W87771  10.915  40.054   2.262
15347W        W87772  29.355   1.951  13.370
15348W        W87773  43.365  43.977   2.880
15349W        W87774   8.011   9.692  14.356
15350W        W87775  44.544  15.455  10.114
15351W        W87776   9.698   8.870   1.127
15352W        W87777  10.831  43.078  12.037
15353W        W87778   1.556  18.759   2.138
15354W        W87779  43.368  23.107  12.943
15355W        W87780  11.744  30.566  11.146
15356W        W87781   2.709  37.367  10.797
15357W        W87782  32.183  21.969  13.708
15358W        W87783  41.882  42.810  11.623
15359W        W87784  32.424  37.598   2.205
15360W        W87785  34.464   8.478   4.638
15361W        W87786  33.910   4.444  11.603
15362W        W87787  36.352  10.920   2.904
15363W        W87788   2.417  33.819  14.967
15364W        W87789  35.052  25.430   1.162
15365W        W87790   4.992  37.951  14.815
15366W        W87791  18.440   2.963   3.807
15367W        W87792   2.336  33.047   1.145
15368W        W87793  40.084  36.614  11.458
15369W        W87794  13.842   1.935  14.263
15370W        W87795  20.085  29.714   1.290
15371W        W87796  25.204   1.207   1.618
15372W        W87797  21.974  18.646   0.541
15373W        W87798  24.629  43.043  14.465
15374W        W87799  29.232   9.904   3.805
15375W        W87800  11.274  32.319  12.819
15376W        W87801  34.517   9.251  14.244
15377W        W87802  22.634   6.030  11.379
15378W        W87803  11.147   5.203  12.479
15379W        W87804  12.141   6.718  10.565
15380W        W87805  20.719  15.815  11.133
15381W        W87806  33.902  40.972   4.825
15382W        W87807  14.846  18.466  13.275
15383W        W87808   4.004  38.664   2.166
15384W        W87809  39.926   5.724  13.269
15385W        W87810  28.036  42.867  10.687
15386W        W87811   2.502  21.147   1.420
15387W        W87812  41.458  14.589   1.431
15388W        W87813   2.909  31.463   1.260
15389W        W87814  43.725  35.910   3.971
15390W        W87815  44.699   6.331  11.655
15391W        W87816  29.700  22.517  11.155
15392W        W87817  29.103  22.513   2.596
15393W        W87818  17.509  11.509  11.122
15394W        W87819  12.857  43.858   3.114
15395W        W87820  14.224  22.043  10.713
15396W        W87821  19.881  41.726  14.062
15397W        W87822  12.575  42.794   3.327
15398W        W87823  11.890   9.636   4.521
15399W        W87824   2.410  31.628  12.530
15400W        W87825  42.100  43.147   4.585
15401W        W87826  41.941   9.862   1.177
15402W        W87827   7.436  28.785   2.867
15403W        W87828   5.132  28.516  10.858
15404W        W87829  33.390  42.003   0.069
15405W        W87830  41.458  43.868   0.861
15406W        W87831  20.489  30.627   3.208
15407W        W87832  16.214   0.822  11.013
15408W        W87833  38.309  16.797   3.699
15409W        W87834   4.887  16.068   1.909
15410W        W87835  37.487   0.548   1.374
15411W        W87836  17.089  29.481  12.149
15412W        W87837  13.675  19.014  13.902
15413W        W87838  22.600   8.968  10.135
15414W        W87839  26.634  37.901   3.671
15415W        W87840  34.598  14.688   3.569
15416W        W87841  22.793  13.593   0.957
15417W        W87842  10.016  43.579   2.718
15418W        W87843  42.222  21.750   0.214
15419W        W87844   1.335  36.945   4.133
15420W        W87845  38.845   7.293  11.865
15421W        W87846  41.749  10.294   1.372
15422W        W87847  14.621  22.237  12.841
15423W        W87848  29.563   0.887  14.898
15424W        W87849  16.065   7.137  12.105
15425W        W87850  38.320  34.496   3.727
15426W        W87851  29.141  40.037   3.344
15427W        W87852  36.941  31.611   4.693
15428W        W87853  29.855   9.224  14.774
15429W        W87854   0.750  16.249  11.896
15430W        W87855  44.303   4.233   1.850
15431W        W87856  21.052   8.395   0.798
15432W        W87857   0.226  34.175  12.633
15433W        W87858  29.642   1.973  10.304
15434W        W87859  23.491   5.531  12.938
15435W        W87860  20.489   8.839  13.726
15436W        W87861  21.958  10.199  14.829
15437W        W87862  40.794   2.424   3.232
15438W        W87863  33.557   5.703   5.020
15439W        W87864  34.038  36.325   0.742
15440W        W87865  19.311  21.504   4.902
15441W        W87866  18.672  22.629  11.649
15442W        W87867  30.130   5.240   1.234
15443W        W87868  34.638   8.211  13.311
15444W        W87869  43.911   2.036  11.210
15445W        W87870   8.397  39.525  13.571
15446W        W87871  30.497  43.894  11.617
15447W        W87872  13.134  42.268  13.981
15448W        W87873  13.928  44.804  11.217
15449W        W87874   9.926  22.278  14.957
15450W        W87875  28.926  15.341  11.588
15451W        W87876  40.316   7.297   1.784
15452W        W87877  35.517   9.246   3.511
15453W        W87878  12.265  21.249   3.559
15454W        W87879  22.021  40.946  14.496
15455W        W87880  36.841  10.491   4.862
15456W        W87881   2.554  24.558   3.836
15457W        W87882  39.648  14.746   3.717
15458W        W87883  40.766  14.732   2.245
15459W        W87884  26.939  30.816   3.843
15460W        W87885  23.721  37.385   1.373
15461W        W87886  16.107  42.281  11.680
15462W        W87887  10.199  27.692   2.260
15463W        W87888   2.914  27.228   2.888
15464W        W87889  27.558   7.367   3.502
15465W        W87890  17.277  25.665   1.907
15466W        W87891  36.332  29.199   2.287
15467W        W87892  15.632  39.318   0.382
15468W        W87893  13.745   4.881   3.686
15469W        W87894  12.951  27.940  11.216
15470W        W87895  37.853  37.385  12.440
15471W        W87896   2.479   4.887  12.994
15472W        W87897  39.344   3.444   3.187
15473W        W87898  12.758   5.954  13.579
15474W        W87899  32.316  35.048  10.161
15475W        W87900  39.269   9.598   3.110
15476W        W87901  39.773   5.834   1.766
15477W        W87902  42.794  16.647  11.716
15478W        W87903   4.103   9.706   2.339
15479W        W87904  31.717  23.545   3.147
15480W        W87905  21.696   4.509   0.979
15481W        W87906  29.879   5.270  12.567
15482W        W87907   8.773  21.087   2.913
15483W        W87908  26.987  20.630  10.802
15484W        W87909  23.162  20.484  10.990
15485W        W87910  11.786  39.668   3.272
15486W        W87911  30.850  21.655  11.386
15487W        W87912  41.512  38.435   0.657
15488W        W87913  13.060  44.633   3.796
15489W        W87914  12.578  22.297   3.300
15490W        W87915  25.642  35.542  11.101
15491W        W87916  44.309   7.124   1.790
15492W        W87917   7.344  35.238  14.936
15493W        W87918  44.903  20.104  13.074
15494W        W87919  39.646  39.643   2.862
15495W        W87920  37.703   4.180   3.609
15496W        W87921  22.566  15.743  11.533
15497W        W87922  28.656  29.181   4.116
15498W        W87923  44.347  18.883   5.041
15499W        W87924  37.589   2.937   1.769
15500W        W87925  31.510   9.856   2.843
15501W        W87926  24.006  39.966   3.750
15502W        W87927  19.337  38.527  12.948
15503W        W87928   0.890  25.325  11.498
15504W        W87929  13.998  21.976   3.635
15505W        W87930  43.101  30.987   0.857
15506W        W87931  26.929  33.741  11.879
15507W        W87932   3.962  34.408  10.582
15508W        W87933  43.096  24.485  10.672
15509W        W87934  23.631  37.820   4.549
15510W        W87935  42.834  11.953   4.616
15511W        W87936  27.714  29.109  12.103
15512W        W87937   2.432  24.149   4.180
15513W        W87938  34.565  27.594   0.358
15514W        W87939  32.580  10.735   2.359
15515W        W87940   0.069  10.162   2.311
15516W        W87941  18.820  21.492   4.721
15517W        W87942  32.382  18.767  10.215
15518W        W87943  13.901  16.759  10.748
15519W        W87944   2.111  43.464  11.202
15520W        W87945  10.549  26.755  14.221
15521W        W87946  42.722   1.539  13.355
15522W        W87947  32.570   6.275   1.156
15523W        W87948  12.577  33.064   4.631
15524W        W87949   5.727   3.669   2.784
15525W        W87950   1.651   3.418   2.347
15526W        W87951   5.310  43.687  14.802
15527W        W87952  14.042   1.996   4.424
15528W        W87953  16.748   5.222  10.836
15529W        W87954  17.632  10.370  12.759
15530W        W87955  35.295  17.171  12.899
15531W        W87956  38.870   2.292  12.096
15532W        W87957  20.723  19.735  10.459
15533W        W87958  20.018   2.298   2.757
15534W        W87959  12.052  26.276   4.936
15535W        W87960  13.275  35.342  13.958
15536W        W87961  38.103  43.816   1.408
15537W        W87962  42.144   5.116   0.741
15538W        W87963  15.717  34.969   4.688
15539W        W87964   0.252   1.904   0.046
15540W        W87965  17.104   5.499  11.082
15541W        W87966   0.783   9.680  14.407
15542W        W87967  31.303  18.673   5.346
15543W        W87968   2.865  10.368  13.943
15544W        W87969  43.350   7.409  12.024
15545W        W87970  22.211  38.216   3.368
15546W        W87971  24.978   7.762  13.036
15547W        W87972  33.394  37.256   4.040
15548W        W87973   8.380  15.736   1.716
15549W        W87974  33.733  28.690   2.733
15550W        W87975  12.700   7.300   4.364
15551W        W87976  18.236  33.510  13.839
15552W        W87977  26.158  28.162   3.253
15553W        W87978  10.642  43.026   3.189
15554W        W87979   9.023  14.310  12.903
15555W        W87980  16.164  35.917  11.349
15556W        W87981  14.680  24.413  12.988
15557W        W87982  37.931  41.204   4.045
15558W        W87983  42.479  11.226  11.563
15559W        W87984  23.631  43.895  11.657
15560W        W87985  31.099   0.411  10.700
15561W        W87986  23.208  31.004  14.820
15562W        W87987   2.481  22.647  13.508
15563W        W87988  17.034   6.741   2.877
15564W        W87989  21.653  43.227  14.054
15565W        W87990   3.882  34.946   1.673
15566W        W87991  32.679  13.870   2.961
15567W        W87992  33.143  29.091   4.235
15568W        W87993  32.976   6.261  14.230
15569W        W87994  28.414  41.955  10.453
15570W        W87995  12.711  30.351   1.932
15571W        W87996  26.471  42.698   5.068
15572W        W87997  37.704   1.941   0.930
15573W        W87998  29.960  27.043  12.086
15574W        W87999  43.437  42.920  11.425
15575W        W88000  21.116   9.560  11.496
15576W        W88001  32.281  13.423   2.295
15577W        W88002  22.907  22.308   4.371
15578W        W88003   4.873  44.459   2.848
15579W        W88004  14.603  10.831   0.458
15580W        W88005  20.204  21.234   4.595
15581W        W88006  32.313  35.519  12.435
15582W        W88007   6.047   6.232  12.572
15583W        W88008  14.998  29.090  11.600
15584W        W88009  36.904  35.991  12.838
15585W        W88010  28.391   6.952  11.580
15586W        W88011  40.544  24.029   0.784
15587W        W88012  12.360  36.281  10.954
15588W        W88013  29.794  16.988  12.866
15589W        W88014  39.417  26.158   4.763
15590W        W88015   9.692  20.424   3.640
15591W        W88016  21.008  40.638   2.427
15592W        W88017  35.605   8.166   2.808
15593W        W88018   0.477  37.228  11.170
15594W        W88019   5.999  28.963  11.587
15595W        W88020  42.653  39.341  13.573
15596W        W88021  14.609  14.148  13.614
15597W        W88022  10.743  10.974   3.212
15598W        W88023   2.683  16.368  13.468
15599W        W88024  36.494  42.095  11.606
15600W        W88025  13.359  34.964   4.995
15601W        W88026  29.428  22.287   3.917
15602W        W88027   6.276  44.306   3.167
15603W        W88028   6.915  18.697   0.726
15604W        W88029  30.710   4.770  12.500
15605W        W88030   6.263  17.015   5.111
15606W        W88031  42.748  23.230   3.412
15607W        W88032  17.117  12.665  12.495
15608W        W88033  16.664  37.796  12.310
15609W        W88034  10.309  32.441  14.399
15610W        W88035  41.789  33.836   4.743
15611W        W88036  42.881  42.196  12.549
15612W        W88037  26.723   7.795  12.390
15613W        W88038  15.641  43.462  13.537
15614W        W88039  24.200  11.461  12.672
15615W        W88040  12.521  21.576   5.068
15616W        W88041  10.668   7.143  14.375
15617W        W88042  39.162  11.582  10.178
15618W        W88043  19.532   1.991   5.223
15619W        W88044  42.790   2.466  14.735
15620W        W88045   5.424  36.159  14.874
15621W        W88046  14.827  38.397   0.924
15622W        W88047   8.561  26.189  12.303
15623W        W88048  38.361  42.120   0.432
15624W        W88049  32.843  20.220  13.252
15625W        W88050  33.094  30.146   3.164
15626W        W88051  21.678   9.146   0.853
15627W        W88052  23.071  42.830   3.788
15628W        W88053  32.873  41.523   2.608
15629W        W88054  10.143  39.872  12.108
15630W        W88055  23.041  36.615   2.382
15631W        W88056   9.343  27.507   2.322
15632W        W88057  19.544  42.513   5.008
15633W        W88058  43.428  22.251   1.539
15634W        W88059   9.899   9.784  12.646
15635W        W88060  24.115  37.599  14.837
15636W        W88061  42.779  10.934  10.649
15637W        W88062  15.835   6.218   1.355
15638W        W88063  14.867  29.474   2.697
15639W        W88064   8.731  39.362   4.929
15640W        W88065   6.682   4.775   0.814
15641W        W88066  22.966  29.047  14.948
15642W        W88067  28.590  10.294  11.240
15643W        W88068  26.516  26.965   3.141
15644W        W88069  39.596   0.451   0.879
15645W        W88070  28.514  36.947  13.939
15646W        W88071  16.541  15.761   2.643
15647W        W88072  14.112  34.910   1.841
15648W        W88073  28.623   2.951  14.793
15649W        W88074  35.808  21.538  12.874
15650W        W88075  20.577  28.435  12.458
15651W        W88076  19.559   8.473   4.158
15652W        W88077  14.553  42.285  13.110
15653W        W88078  41.922  30.605  12.468
15654W        W88079  25.046  30.640   1.410
15655W        W88080   9.742  42.020  13.427
15656W        W88081  11.397   7.099   5.170
15657W        W88082  36.840   6.262   4.779
15658W        W88083  13.054  18.045   4.569
15659W        W88084  24.162   1.318   4.874
15660W        W88085  16.724  27.052  11.946
15661W        W88086   8.053  21.281   2.181
15662W        W88087  14.224  44.466  10.943
15663W        W88088  29.009  44.505  11.672
15664W        W88089  42.032   8.148  11.121
15665W        W88090  11.340  27.590   4.896
15666W        W88091   8.601  30.732  11.251
15667W        W88092  35.183   5.350   1.369
15668W        W88093  41.786   3.263   0.733
15669W        W88094   9.975   6.914   3.364
15670W        W88095  44.798  19.951   4.852
15671W        W88096   3.973  28.447   3.804
15672W        W88097  16.557  19.016   3.181
15673W        W88098  12.460  35.794  11.109
15674W        W88099  32.831   5.433   3.517
15675W        W88100  27.086  30.218  11.183
15676W        W88101  33.827  20.097  12.555
15677W        W88102  29.559  26.308  12.394
15678W        W88103  17.578   4.420  12.125
15679W        W88104  37.401   8.846   2.210
15680W        W88105  31.388  24.624  11.614
15681W        W88106  14.847  44.963  12.529
15682W        W88107  18.375  37.509   9.895
15683W        W88108  32.941   1.860   4.039
15684W        W88109   2.338  31.084  13.443
15685W        W88110  28.139  14.741  14.424
15686W        W88111   2.812   5.445  12.859
15687W        W88112  31.355  36.136   0.302
15688W        W88113  11.174  14.054  10.985
15689W        W88114   6.921  35.630   2.585
15690W        W88115  14.361  18.197   3.184
15691W        W88116  27.294  20.078   4.983
15692W        W88117  35.096  34.137  12.406
15693W        W88118  26.490   6.144   3.235
15694W        W88119  12.789   7.207   0.793
15695W        W88120  14.392  29.021   1.873
15696W        W88121  33.143  27.260  11.493
15697W        W88122  17.580  23.638  11.345
15698W        W88123  38.624  16.575  12.534
15699W        W88124  44.273  41.260  10.578
15700W        W88125  12.391  21.898  10.081
15701W        W88126  34.319  34.787   1.620
15702W        W88127  28.211  26.113   1.951
15703W        W88128  20.148  19.063  13.860
15704W        W88129  41.953  16.065   4.490
15705W        W88130   9.184   7.374   1.386
15706W        W88131  33.163   1.455   2.671
15707W        W88132  22.761   1.890  12.175
15708W        W88133  14.259  33.929   4.688
15709W        W88134  37.879   7.871  14.470
15710W        W88135  28.193  18.563  10.036
15711W        W88136   2.246  39.938  13.134
15712W        W88137  16.105  36.502   1.144
15713W        W88138   7.772  32.025   0.913
15714W        W88139  23.680  33.463   4.353
15715W        W88140  21.747  28.235  12.906
15716W        W88141  13.733  25.946  13.734
15717W        W88142   0.412  30.416  10.981
15718W        W88143  43.330   0.875   2.649
15719W        W88144   4.478  29.429  12.899
15720W        W88145  39.891  26.506  11.128
15721W        W88146  43.343  23.975  14.000
15722W        W88147  28.081   2.358   2.204
15723W        W88148  30.048  41.927   0.286
15724W        W88149  35.363  42.036  10.807
15725W        W88150  33.720   1.354  14.782
15726W        W88151  12.094  10.686   3.324
15727W        W88152  19.292  14.671  10.744
15728W        W88153  25.654   1.309   3.855
15729W        W88154  29.982   2.355   1.847
15730W        W88155   5.766  43.729  11.951
15731W        W88156  27.543  41.501  11.102
15732W        W88157   0.154  18.311   0.874
15733W        W88158  41.068  24.168   4.307
15734W        W88159  32.469  41.515  13.178
15735W        W88160  14.675  31.929  11.721
15736W        W88161  12.391  18.867  11.506
15737W        W88162  33.381  43.999   2.326
15738W        W88163  25.819  32.772   9.719
15739W        W88164  22.326  44.895  10.576
15740W        W88165  42.353  40.595   1.429
15741W        W88166  43.653  43.583   3.156
15742W        W88167  19.754  14.204   4.596
15743W        W88168  40.886  13.871   3.277
15744W        W88169  33.868   0.426  12.018
15745W        W88170  32.580  25.044  10.740
15746W        W88171  12.789  36.132   1.906
15747W        W88172  22.143  31.220   3.749
15748W        W88173  41.542  44.583   3.326
15749W        W88174  17.126  44.984  10.581
15750W        W88175  39.491   2.755  12.408
15751W        W88176  13.119   5.193  14.737
15752W        W88177  24.693  24.252  11.316
15753W        W88178  12.636  32.366  10.784
15754W        W88179  33.133  41.535   0.152
15755W        W88180  26.210  10.709  13.042
15756W        W88181   6.311  41.397  12.352
15757W        W88182  29.551  32.025   5.240
15758W        W88183   7.455  23.527   1.965
15759W        W88184   4.787   9.277   0.338
15760W        W88185  13.232   9.372   3.792
15761W        W88186   8.258  35.649  11.125
15762W        W88187   4.800   2.006  12.363
15763W        W88188  19.512   1.809   0.148
15764W        W88189  26.579   8.240   4.127
15765W        W88190  26.595  37.354   4.964
15766W        W88191  26.861  34.815  11.780
15767W        W88192  38.414  17.424  11.334
15768W        W88193  30.777  18.918  11.724
15769W        W88194  40.420  28.813  12.759
15770W        W88195  27.415  34.464  12.411
15771W        W88196   0.374   2.108   2.722
15772W        W88197  19.775  10.740  11.912
15773W        W88198  28.463  32.467   2.264
15774W        W88199  35.554  42.273   4.750
15775W        W88200  28.436  32.808  14.732
15776W        W88201  35.773  23.844   3.679
15777W        W88202  44.294  37.265   2.388
15778W        W88203  43.551  26.464  12.035
15779W        W88204  44.205   3.707  14.934
15780W        W88205   1.480   5.965  13.007
15781W        W88206  43.413  20.220   1.741
15782W        W88207   8.772  40.201   5.081
15783W        W88208  10.695  32.683  13.482
15784W        W88209   8.639   5.714   2.855
15785W        W88210  19.213  35.018   0.364
15786W        W88211  26.699  28.651  11.627
15787W        W88212  31.113  10.389   4.829
15788W        W88213  42.571  42.984  10.849
15789W        W88214  17.176  42.806   2.125
15790W        W88215  37.331  24.103   1.264
15791W        W88216  33.379  26.100  11.065
15792W        W88217  41.953  31.603   0.369
15793W        W88218  22.747   5.727   1.170
15794W        W88219   6.782  12.654  11.644
15795W        W88220  18.612  10.753   0.355
15796W        W88221   3.359  16.302   3.688
15797W        W88222   4.518  40.417   1.206
15798W        W88223  19.240  10.805   2.394
15799W        W88224  32.482  43.082  14.983
15800W        W88225  15.061  13.887  14.458
15801W        W88226  30.692   2.706   3.452
15802W        W88227  26.475  14.509  12.540
15803W        W88228  42.251  23.281   2.387
15804W        W88229  36.983  38.578   4.673
15805W        W88230  28.023   3.829  13.884
15806W        W88231  32.515  34.366   4.882
15807W        W88232  28.345  33.348   1.342
15808W        W88233  35.349  37.658   1.219
15809W        W88234   2.188  14.896  13.434
15810W        W88235  26.003   4.388   0.968
15811W        W88236  11.177  24.127  13.007
15812W        W88237  28.752   9.284  13.338
15813W        W88238   2.702   6.241  13.865
15814W        W88239   3.502  37.967  11.137
15815W        W88240  13.613  24.035  12.896
15816W        W88241  42.745  11.082   0.421
15817W        W88242  13.128  31.995   0.384
15818W        W88243  23.446  28.042  14.296
15819W        W88244  40.486   1.119   4.524
15820W        W88245  40.975   5.064  11.784
15821W        W88246  28.416  32.399   3.810
15822W        W88247   7.178  26.539   0.076
15823W        W88248  28.554  17.202   1.016
15824W        W88249  36.463  40.363  10.501
15825W        W88250  24.092  35.071  10.642
15826W        W88251  36.541  17.033  13.434
15827W        W88252  29.561   1.737   5.169
15828W        W88253  42.511  40.479  12.127
15829W        W88254  29.958  12.504   1.714
15830W        W88255  35.820   9.500  13.907
15831W        W88256   4.248  31.815  14.006
15832W        W88257  27.923  10.322  12.997
15833W        W88258  18.779   2.531  13.012
15834W        W88259   0.288  44.764  11.989
15835W        W88260   1.427  38.136  11.147
15836W        W88261  17.881  20.298   3.255
15837W        W88262  18.280  11.139   4.850
15838W        W88263  39.400  31.570  12.645
15839W        W88264  18.180   8.205  13.945
15840W        W88265   2.236  25.367   2.704
15841W        W88266  32.343  43.819  11.998
15842W        W88267   7.404  11.168  12.504
15843W        W88268  25.986  21.551  13.890
15844W        W88269  21.137   8.870  12.871
15845W        W88270  29.635   8.910  12.901
15846W        W88271  42.069  35.173   2.898
15847W        W88272  27.943  22.036   2.275
15848W        W88273  11.593  26.599  10.388
15849W        W88274   3.555  36.538   3.848
15850W        W88275   8.946  23.124   2.715
15851W        W88276   2.979   8.702   1.460
15852W        W88277  26.954  34.288   2.367
15853W        W88278  31.513  29.494  10.592
15854W        W88279  23.177  18.271   4.542
15855W        W88280  41.746  40.888   3.345
15856W        W88281  44.216  30.876   3.193
15857W        W88282  29.926  11.562   1.293
15858W        W88283  34.314  32.879  10.687
15859W        W88284   1.286  17.104  12.056
15860W        W88285  33.461  29.506   4.224
15861W        W88286  13.157  17.578  13.721
15862W        W88287  44.255  30.203  10.245
15863W        W88288  22.738  34.653  13.571
15864W        W88289  39.001   1.204   3.598
15865W        W88290  40.285  44.411   1.852
15866W        W88291  40.297   3.527   4.121
15867W        W88292  31.082  44.422   2.975
15868W        W88293   4.126  19.638   0.971
15869W        W88294  37.956  31.819  10.226
15870W        W88295  12.314  39.318   1.281
15871W        W88296  29.956  38.559  14.322
15872W        W88297  18.981  38.184   0.233
15873W        W88298   7.696   6.615   4.085
15874W        W88299   3.835  42.815   2.738
15875W        W88300  27.171  31.602   2.845
15876W        W88301  14.291  19.566   0.364
15877W        W88302  39.199  27.397  13.114
15878W        W88303  23.234  24.979  12.939
15879W        W88304   3.867  42.711   1.344
15880W        W88305  20.079  29.716  12.442
15881W        W88306  13.873   3.252  13.489
15882W        W88307  14.712   8.186  13.010
15883W        W88308  29.492  33.162   2.837
15884W        W88309  11.479  44.966   0.406
15885W        W88310   8.273  14.790   1.932
15886W        W88311   2.183  34.837   1.359
15887W        W88312  27.024   0.278  10.721
15888W        W88313  32.472  40.417   4.041
15889W        W88314  34.567   1.321   2.878
15890W        W88315  27.456   7.685  12.191
15891W        W88316  15.133   9.603  13.142
15892W        W88317  41.780  30.832   4.192
15893W        W88318   2.374  24.765  14.801
15894W        W88319   2.431  35.450   2.603
15895W        W88320  26.404  34.140   0.245
15896W        W88321  20.026  33.145   4.239
15897W        W88322  10.644  25.106  10.979
15898W        W88323  29.749  26.539  14.358
15899W        W88324  11.428  30.081  11.996
15900W        W88325  17.137  35.365  12.902
15901W        W88326  41.102  18.705   1.292
15902W        W88327  40.169  37.254   4.097
15903W        W88328  36.887   3.988   0.725
15904W        W88329  19.499  32.401  10.361
15905W        W88330  41.574  13.620   2.785
15906W        W88331  21.259  38.412  14.033
15907W        W88332  26.103  33.451  12.838
15908W        W88333  11.406  40.296  12.180
15909W        W88334   4.827  23.950  12.405
15910W        W88335  24.278  26.959   2.711
15911W        W88336   8.427  26.110  14.428
15912W        W88337  38.323  35.828  12.129
15913W        W88338   2.960  20.644   1.766
15914W        W88339  24.692  34.271  11.698
15915W        W88340   1.770  30.713   1.269
15916W        W88341  25.160  27.425   3.272
15917W        W88342   0.006  22.701  12.656
15918W        W88343  34.060  38.087   2.235
15919W        W88344   6.911  10.079   3.632
15920W        W88345  43.969  43.354   3.688
15921W        W88346  22.014  11.190   4.583
15922W        W88347  11.421  30.158  14.164
15923W        W88348  14.644  27.061  11.401
15924W        W88349  14.822  19.186   2.331
15925W        W88350  19.225  38.550   2.016
15926W        W88351  11.295  35.866  14.163
15927W        W88352  39.777   9.932  14.892
15928W        W88353  38.881  13.105   3.637
15929W        W88354  44.006  33.986   4.329
15930W        W88355   4.556   8.705   1.345
15931W        W88356  44.188  10.658   3.710
15932W        W88357   6.611  42.306   0.834
15933W        W88358  35.013  35.174   5.121
15934W        W88359  41.821  41.891   4.128
15935W        W88360   7.679  18.054   0.592
15936W        W88361  29.891  25.466   3.050
15937W        W88362  12.290  23.204  11.960
15938W        W88363  40.771   3.336   4.093
15939W        W88364   2.364  34.899  13.955
15940W        W88365   6.391  13.813  11.644
15941W        W88366  23.488  26.492  12.804
15942W        W88367  40.735   5.154  13.922
15943W        W88368  12.774   0.751   3.209
15944W        W88369   8.389   8.594  12.957
15945W        W88370  37.991  32.578   4.603
15946W        W88371  10.374  37.623  11.085
15947W        W88372  24.943  21.169  12.899
15948W        W88373  25.643  35.131   4.406
15949W        W88374  35.375  33.008   1.487
15950W        W88375  14.338  19.226   4.158
15951W        W88376  11.605  13.569  13.426
15952W        W88377   7.707  32.422   1.259
15953W        W88378  44.169   7.688  12.053
15954W        W88379  20.764  19.735  12.679
15955W        W88380  24.395  14.665   2.218
15956W        W88381  26.797  10.436   3.876
15957W        W88382  42.527  15.342   4.526
15958W        W88383  18.088  38.036  13.676
15959W        W88384  33.154  16.384   2.905
15960W        W88385  20.733  29.491  11.513
15961W        W88386  16.562  41.023   2.181
15962W        W88387  27.535  27.827   0.935
15963W        W88388  39.628   4.884  12.882
15964W        W88389  17.863  10.469   0.731
15965W        W88390   5.950  40.487  10.462
15966W        W88391  33.012  42.277   1.820
15967W        W88392  10.276   1.228  11.157
15968W        W88393  19.269  21.238  13.890
15969W        W88394  35.072  29.381  14.034
15970W        W88395  13.344  29.975   4.122
15971W        W88396  35.835   7.300   3.713
15972W        W88397  27.445  13.351  13.109
15973W        W88398  27.573  31.108  11.226
15974W        W88399  27.401  21.430   1.364
15975W        W88400   9.047  32.350   1.438
15976W        W88401  41.352  12.105   1.906
15977W        W88402  14.111   7.081   4.487
15978W        W88403  25.483  30.921   1.268
15979W        W88404  30.564  30.430  12.513
15980W        W88405  27.082  29.947   4.959
15981W        W88406   9.744  32.884   4.821
15982W        W88407  16.859  32.849   2.753
15983W        W88408   5.463   9.215   0.409
15984W        W88409   8.872  36.598   1.200
15985W        W88410   6.636  24.176  14.753
15986W        W88411   2.760  36.038  10.636
15987W        W88412  44.747  28.042  12.414
15988W        W88413   3.675  23.250  12.172
15989W        W88414  21.094  15.493  12.958
15990W        W88415   9.459  44.884  14.390
15991W        W88416  20.610   1.784  12.034
15992W        W88417  37.368  36.942  11.052
15993W        W88418  21.067  32.530  11.496
15994W        W88419  31.335  23.691  10.695
15995W        W88420  32.607  20.021  10.522
15996W        W88421   7.400  21.621  10.793
15997W        W88422  30.556  29.899  13.403
15998W        W88423  20.731  11.725   0.902
15999W        W88424   1.258  18.045   4.637
16000W        W88425  38.982   0.498   1.835
16001W        W88426  27.124   8.746  14.297
16002W        W88427  14.051   1.719  11.028
16003W        W88428  26.533   0.776  13.492
16004W        W88429   1.479   6.028   1.381
16005W        W88430   9.142  35.410  12.071
16006W        W88431  44.550  22.303  12.054
16007W        W88432  19.592  10.232   0.271
16008W        W88433  36.125  41.546   2.178
16009W        W88434  22.552   0.433  12.500
16010W        W88435  33.210  27.635  11.161
16011W        W88436  40.078  37.104   1.906
16012W        W88437  29.122  38.517  12.044
16013W        W88438   9.296  16.778   2.162
16014W        W88439   7.098  43.898  13.452
16015W        W88440  35.847  15.872   4.157
16016W        W88441   2.759  42.894  11.546
16017W        W88442   6.644  23.482   2.273
16018W        W88443   6.781  37.288   0.395
16019W        W88444  44.750  37.949   1.633
16020W        W88445  36.326  13.064   1.386
16021W        W88446  23.714  16.466  10.957
16022W        W88447  18.813  21.498  11.181
16023W        W88448  41.237  20.801  14.948
16024W        W88449  37.513  40.953  11.478
16025W        W88450  25.565   5.613   3.195
16026W        W88451  18.572  41.319  14.956
16027W        W88452  31.829  36.985   2.741
16028W        W88453   8.811  26.715  10.584
16029W        W88454  28.028  11.167   4.277
16030W        W88455  38.802  25.830  12.036
16031W        W88456  35.249  16.169   0.018
16032W        W88457  12.276  30.996  14.459
16033W        W88458   9.555  28.565   1.261
16034W        W88459  36.929  12.692  11.224
16035W        W88460  37.387  16.102   2.783
16036W        W88461  16.068   3.201  11.506
16037W        W88462  34.578  41.389   1.084
16038W        W88463  44.761  23.242  10.909
16039W        W88464   2.683  40.920   4.597
16040W        W88465  26.266  40.704  13.534
16041W        W88466  31.136   6.181  12.406
16042W        W88467  43.542  34.711  14.467
16043W        W88468  24.789   2.376  14.293
16044W        W88469  39.882  44.146   5.455
16045W        W88470  17.690   0.710   4.529
16046W        W88471  37.930  17.782  12.062
16047W        W88472  27.542   0.017  14.312
16048W        W88473   0.801  36.402   2.737
16049W        W88474  42.948  28.891   0.418
16050W        W88475  14.347  42.968   1.334
16051W        W88476  12.564  18.321   1.282
16052W        W88477  31.339  25.063  14.758
16053W        W88478  14.118  42.270  12.295
16054W        W88479   9.019  24.583   1.724
16055W        W88480  32.446  36.051   2.411
16056W        W88481   0.534  10.896   3.242
16057W        W88482  10.627  38.371  14.348
16058W        W88483  14.355  33.967  10.765
16059W        W88484  40.770  28.686  14.964
16060W        W88485   9.130  12.830   0.556
16061W        W88486  40.096  42.960   0.193
16062W        W88487  15.592  34.420   1.714
16063W        W88488  24.975  26.214   1.164
16064W        W88489   5.306   3.877  14.459
16065W        W88490  20.580  12.115   1.947
16066W        W88491  13.708  25.029  11.253
16067W        W88492  42.069   9.692  12.985
16068W        W88493  42.951   5.738  12.393
16069W        W88494  31.703  38.540  12.496
16070W        W88495   6.593  37.625  13.882
16071W        W88496  40.791  43.894  10.890
16072W        W88497  31.884  18.683   2.332
16073W        W88498  31.383  44.299  10.708
16074W        W88499  24.142  36.663  10.604
16075W        W88500  29.651  24.995   4.559
16076W        W88501  33.180  10.556   3.136
16077W        W88502  21.316  44.889   1.480
16078W        W88503  39.797  24.533  13.383
16079W        W88504  35.143  13.083   2.776
16080W        W88505   5.125  21.730  12.920
16081W        W88506   5.691  20.086   0.438
16082W        W88507  24.415  43.463  11.500
16083W        W88508   7.928  15.155   0.206
16084W        W88509  23.246  41.402   1.338
16085W        W88510   0.756  14.598   3.752
16086W        W88511  16.760  21.123   1.609
16087W        W88512  43.831  30.073  13.122
16088W        W88513   5.204  18.720   3.169
16089W        W88514   0.258  36.784  14.310
16090W        W88515  21.947   2.047   0.024
16091W        W88516  19.492  40.918   2.825
16092W        W88517   2.831  12.914   4.409
16093W        W88518  16.549  33.264  10.226
16094W        W88519  22.391  24.249   3.620
16095W        W88520  29.453  17.592  10.527
16096W        W88521  35.068  12.789   4.825
16097W        W88522  26.518  41.807   2.403
16098W        W88523   8.761   2.976   3.580
16099W        W88524  35.304  26.203  12.086
16100W        W88525   4.693  16.807  14.349
16101W        W88526   5.620  11.201   0.857
16102W        W88527   4.279  13.609   4.868
16103W        W88528  37.387  10.555  14.995
16104W        W88529  26.766  44.059   4.870
16105W        W88530   6.129  22.538   2.890
16106W        W88531   9.730  29.429  14.984
16107W        W88532  32.033  27.655   1.142
16108W        W88533  28.827  14.787   3.481
16109W        W88534   6.953  20.111  14.377
16110W        W88535  12.864   2.788   0.713
16111W        W88536  36.013  11.036  12.197
16112W        W88537  36.125   2.004   0.398
16113W        W88538   6.339   1.136  13.030
16114W        W88539   8.163  31.391   1.807
16115W        W88540   1.064   3.722  11.869
16116W        W88541  25.736  11.392  14.075
16117W        W88542  19.569   6.007  12.197
16118W        W88543  29.055  23.419   0.761
16119W        W88544  33.425  39.649   1.924
16120W        W88545  29.479  17.185  13.212
16121W        W88546  11.804  32.649   4.568
16122W        W88547   1.708  28.562   1.496
16123W        W88548   3.754  39.227  14.543
16124W        W88549  36.014  43.552   1.721
16125W        W88550   3.301  41.439   1.247
16126W        W88551  13.272  34.478   3.355
16127W        W88552  35.369  21.182  10.701
16128W        W88553  25.252  10.201   0.459
16129W        W88554   0.249   9.610  14.908
16130W        W88555  41.904   7.114  12.715
16131W        W88556  43.284  22.752  12.396
16132W        W88557  43.272  40.965  12.596
16133W        W88558   0.912  44.224  13.960
16134W        W88559  35.934   4.417   3.875
16135W        W88560  37.548   3.812  10.775
16136W        W88561  13.320  18.294   3.325
16137W        W88562  44.988   1.370  13.430
16138W        W88563  31.923   2.124  14.358
16139W        W88564  23.157  23.945   3.801
16140W        W88565  15.557  12.091  14.359
16141W        W88566   4.221  21.194  14.220
16142W        W88567  16.072  27.576   2.324
16143W        W88568   0.024  39.863  10.756
16144W        W88569  20.491  41.245  10.448
16145W        W88570  31.487  34.172  14.533
16146W        W88571  35.653  20.958  12.364
16147W        W88572  37.522  18.032   1.102
16148W        W88573   5.947  33.553  13.917
16149W        W88574  36.323  17.734   2.203
16150W        W88575  42.822  32.345  13.828
16151W        W88576  12.744   0.140  13.331
16152W        W88577  21.746  27.480  12.016
16153W        W88578  23.712  20.239   1.109
16154W        W88579  36.200  21.079   2.641
16155W        W88580  33.398  26.455  10.682
16156W        W88581  41.725  14.495   2.267
16157W        W88582  27.677  32.480  12.843
16158W        W88583  36.304  36.917   1.185
16159W        W88584  24.984   8.862   3.974
16160W        W88585  33.082  43.422   2.863
16161W        W88586  18.215  30.231  12.523
16162W        W88587  33.547  29.677  11.710
16163W        W88588   6.332  35.601   4.138
16164W        W88589   4.787  20.709  12.212
16165W        W88590  32.248  18.481  12.246
16166W        W88591  11.739  39.070  11.963
16167W        W88592  29.454  32.965  11.613
16168W        W88593  32.721   9.678   0.735
16169W        W88594   4.492  34.433  11.898
16170W        W88595  43.825   6.820  14.806
16171W        W88596  31.532  33.415   3.555
16172W        W88597  32.909  18.821   4.508
16173W        W88598  36.856   0.467   0.759
16174W        W88599   3.821   0.221   2.524
16175W        W88600  11.101  21.698  13.017
16176W        W88601  29.138  13.847   1.134
16177W        W88602  40.946   6.697   3.916
16178W        W88603   8.198   7.893  10.691
16179W        W88604  30.481  32.249   2.136
16180W        W88605  27.450   3.935   2.360
16181W        W88606  32.256   8.461   1.750
16182W        W88607  31.675  11.606   0.009
16183W        W88608   5.376  20.824   2.991
16184W        W88609  34.455  28.778   0.947
16185W        W88610   9.479  32.026  13.324
16186W        W88611  32.402  36.560   0.864
16187W        W88612  28.642  35.711   3.322
16188W        W88613  18.792  18.135   0.688
16189W        W88614  33.610  19.658   1.835
16190W        W88615   1.466   1.472  11.021
16191W        W88616  21.639  27.984   3.387
16192W        W88617  22.022  19.364   1.206
16193W        W88618  30.681   5.266   0.367
16194W        W88619  34.013  22.909  13.419
16195W        W88620   6.015  20.648   1.716
16196W        W88621  10.791  41.476   1.670
16197W        W88622  40.633  39.923  13.126
16198W        W88623  24.918  12.016   0.929
16199W        W88624  31.387   0.861   2.309
16200W        W88625  12.959   1.417   2.289
16201W        W88626  24.600   7.961  10.529
16202W        W88627  22.343   0.794  10.912
16203W        W88628   2.745  33.177  14.867
16204W        W88629  30.499  17.773   2.285
16205W        W88630  34.846  18.011  13.513
16206W        W88631  29.467  14.470   2.532
16207W        W88632   5.281  18.829   1.436
16208W        W88633  31.648  42.364   4.584
16209W        W88634  41.760  38.298   4.666
16210W        W88635  39.488  31.616   2.370
16211W        W88636  41.305   3.685  11.085
16212W        W88637  16.881  24.387  14.926
16213W        W88638  11.534  25.877   0.071
16214W        W88639  27.578  43.553   0.543
16215W        W88640  40.286  23.518   4.283
16216W        W88641  32.835  43.708  13.937
16217W        W88642  21.570   1.958  11.517
16218W        W88643   7.775   1.816  12.463
16219W        W88644   9.807  13.580  12.073
16220W        W88645   1.759   0.452   3.194
16221W        W88646  41.773  31.214  11.145
16222W        W88647  14.088  19.562  12.065
16223W        W88648  20.046  44.107  13.369
16224W        W88649  18.848  26.859   0.795
16225W        W88650  37.873  43.995  12.067
16226W        W88651  43.797  41.430   2.667
16227W        W88652  28.501   2.511  13.396
16228W        W88653  21.592   3.729  11.008
16229W        W88654   4.206  20.083  11.973
16230W        W88655   8.011  10.200  13.375
16231W        W88656  13.382  19.208  13.011
16232W        W88657  38.867   8.350  10.896
16233W        W88658  33.795  32.084  11.628
16234W        W88659  18.520  30.055   4.509
16235W        W88660   7.708  39.585  12.537
16236W        W88661  15.144   4.612   1.781
16237W        W88662  27.100  34.952  10.091
16238W        W88663  33.977  25.088  10.425
16239W        W88664  22.481  27.656   1.936
16240W        W88665  33.146  37.027   2.247
16241W        W88666  16.692  26.066   3.898
16242W        W88667  32.500  20.261   3.198
16243W        W88668  12.722  31.128   4.633
16244W        W88669  35.443  37.404  14.091
16245W        W88670   2.489  29.997  10.562
16246W        W88671  42.882  13.137  10.955
16247W        W88672  14.055  18.799   4.192
16248W        W88673  44.099  27.682   0.901
16249W        W88674  38.651  32.013  11.659
16250W        W88675  25.199  29.005  11.178
16251W        W88676  42.420  24.723  11.325
16252W        W88677  33.557  15.064   1.695
16253W        W88678   6.984  43.510  11.508
16254W        W88679   5.751   2.785   4.708
16255W        W88680  40.623  19.629   5.138
16256W        W88681  31.816  16.318   0.296
16257W        W88682  44.035  35.060  10.588
16258W        W88683  32.709   8.324  13.414
16259W        W88684  11.078  28.436   1.560
16260W        W88685  44.817  38.879  11.543
16261W        W88686  44.413  43.009  11.062
16262W        W88687  44.832   2.920   4.770
16263W        W88688   3.901  40.599  14.826
16264W        W88689  37.178   4.377  13.312
16265W        W88690   9.763  40.762  10.710
16266W        W88691   9.758   2.475   3.743
16267W        W88692  35.596  43.248   1.732
16268W        W88693  39.913  25.175   4.931
16269W        W88694   9.393  15.629  12.828
16270W        W88695  25.586  35.928   2.791
16271W        W88696  29.129  29.158  11.097
16272W        W88697  11.263  28.262  13.985
16273W        W88698  22.051   0.205   1.131
16274W        W88699   3.891  40.042  10.863
16275W        W88700  36.468   1.239   1.327
16276W        W88701  33.566  16.780  13.464
16277W        W88702  28.632  20.876  10.684
16278W        W88703  35.267  31.311   4.166
16279W        W88704   8.374   9.916   1.232
16280W        W88705  44.158   1.337   0.242
16281W        W88706   4.965   8.805   3.182
16282W        W88707  15.864  11.276  13.398
16283W        W88708   2.213  42.425   3.263
16284W        W88709  28.174  10.565   0.422
16285W        W88710  42.825  13.230  13.003
16286W        W88711  20.676  12.455   0.432
16287W        W88712  11.926   2.675  14.433
16288W        W88713  19.698   6.087   2.797
16289W        W88714  14.019  24.977   0.759
16290W        W88715  42.434   7.469   0.544
16291W        W88716  32.368  40.820   2.891
16292W        W88717  44.911  21.982  14.977
16293W        W88718  26.661  23.322  14.619
16294W        W88719  35.762  12.349   3.748
16295W        W88720   2.732  39.957   4.991
16296W        W88721  20.001  44.627  13.421
16297W        W88722  43.947  17.330   0.346
16298W        W88723  20.058  32.171   1.674
16299W        W88724   3.863   7.374  11.142
16300W        W88725  22.878   8.328   1.742
16301W        W88726  14.248   4.282  13.432
16302W        W88727  19.738  23.796  14.442
16303W        W88728  10.697  18.625  12.822
16304W        W88729  31.331   0.958  12.629
16305W        W88730  43.246  32.932   1.371
16306W        W88731  31.906  29.064  14.476
16307W        W88732  40.775  44.670   0.907
16308W        W88733  24.573  13.268  13.038
16309W        W88734   1.772  32.057  13.033
16310W        W88735  33.410   7.238   1.415
16311W        W88736  44.796   5.833  14.998
16312W        W88737  21.585  43.653  12.182
16313W        W88738  32.009  28.390   3.211
16314W        W88739  30.482  20.622   4.174
16315W        W88740  44.580  15.004  12.846
16316W        W88741  31.957  38.970   4.502
16317W        W88742  17.775  28.961  11.495
16318W        W88743  14.979  33.977   2.259
16319W        W88744  41.947  15.612   0.855
16320W        W88745  41.647   7.835   3.702
16321W        W88746   3.735  14.906  10.820
16322W        W88747  29.108  27.122   0.549
16323W        W88748  26.656  15.137   0.828
16324W        W88749  41.052  40.524   3.317
16325W        W88750  26.020  17.622   1.130
16326W        W88751  21.651  23.961  11.960
16327W        W88752  26.287  37.943   1.701
16328W        W88753  22.657   5.438   4.860
16329W        W88754   5.897  21.721   4.017
16330W        W88755   3.945   5.403  12.900
16331W        W88756  19.243  10.445   3.368
16332W        W88757   1.475  41.273  14.963
16333W        W88758   5.910   9.390  12.543
16334W        W88759  36.591  33.872   4.140
16335W        W88760  23.703   9.920  14.754
16336W        W88761  11.726  39.348  11.331
16337W        W88762  24.062  14.214   0.468
16338W        W88763  33.341  30.453  10.607
16339W        W88764  42.019  37.946   3.950
16340W        W88765   2.388  35.397   0.599
16341W        W88766  21.125   1.302  12.121
16342W        W88767  20.955   4.653  10.843
16343W        W88768  28.206   9.190  12.082
16344W        W88769  20.037  21.412  12.894
16345W        W88770  22.724   3.639   4.133
16346W        W88771  11.077  11.576   2.821
16347W        W88772  36.909  31.717  12.469
16348W        W88773  41.865  43.276  12.956
16349W        W88774  39.298  44.030   2.870
16350W        W88775  40.824  34.536   0.648
16351W        W88776  28.640  44.463  13.018
16352W        W88777  38.772  39.628   5.005
16353W        W88778  14.912  37.810  12.331
16354W        W88779  29.495  16.169  14.958
16355W        W88780   9.066  44.849   4.663
16356W        W88781  22.852  11.384   1.983
16357W        W88782  31.163  40.326   0.267
16358W        W88783  13.593  22.906   1.455
16359W        W88784  20.990  37.472  10.143
16360W        W88785  26.478  39.717  13.073
16361W        W88786   8.586  41.233   3.751
16362W        W88787  44.396   3.268  10.524
16363W        W88788  42.768  10.604   3.505
16364W        W88789   1.767  28.686  10.731
16365W        W88790  33.368  39.426  13.900
16366W        W88791  13.672   7.253   2.211
16367W        W88792  29.599  34.969   3.392
16368W        W88793  40.376   3.675  12.536
16369W        W88794  11.321  39.336   2.097
16370W        W88795   8.831  16.318  11.136
16371W        W88796  21.263  34.369  10.665
16372W        W88797   8.478  27.855  11.544
16373W        W88798  31.455   7.263  10.400
16374W        W88799   1.822   3.458   3.005
16375W        W88800  31.582  33.685   2.382
16376W        W88801  17.741  43.005   3.335
16377W        W88802  28.017  22.787   4.678
16378W        W88803  32.125  18.849  11.327
16379W        W88804  25.526   1.221   0.260
16380W        W88805   0.222  28.694   1.865
16381W        W88806  34.518  13.042  12.901
16382W        W88807   1.350  34.632  13.387
16383W        W88808  20.269   8.027   1.263
16384W        W88809  23.746  13.499  12.969
16385W        W88810  29.135  43.810   0.244
16386W        W88811   7.089   3.638  13.949
16387W        W88812  30.606  37.014  13.459
16388W        W88813  15.507  36.207  13.463
16389W        W88814  35.596   1.987   4.508
16390W        W88815  32.629  30.178  12.526
16391W        W88816  41.856  14.588   4.720
16392W        W88817  18.131  22.840   4.273
16393W        W88818  24.633  34.801   4.814
16394W        W88819  19.365  35.427  12.845
16395W        W88820   7.168   1.440   4.770
16396W        W88821  35.098  19.282   3.803
16397W        W88822  29.910   3.015  14.132
16398W        W88823  15.463  16.232  13.787
16399W        W88824  27.012   2.711   0.397
16400W        W88825  34.906  38.140  12.576
16401W        W88826  27.421  12.703  12.419
16402W        W88827  15.669  19.542  11.703
16403W        W88828  43.462  41.320   4.633
16404W        W88829   7.823  39.334   2.772
16405W        W88830  38.431   0.389  13.494
16406W        W88831  15.361  30.492   3.239
16407W        W88832  23.998   5.214   0.856
16408W        W88833  17.630   2.850  12.361
16409W        W88834   1.464   2.501  11.128
16410W        W88835  27.615  34.991  11.983
16411W        W88836  40.425  30.870  13.350
16412W        W88837   6.979  16.672  11.163
16413W        W88838  34.140  22.195   3.421
16414W        W88839  35.287  29.523  14.972
16415W        W88840  42.520  29.466   2.314
16416W        W88841  36.481  42.370   4.636
16417W        W88842  37.612  30.877   1.396
16418W        W88843  25.499  19.058   4.230
16419W        W88844   2.881  33.963  12.523
16420W        W88845  11.404  17.000  12.831
16421W        W88846   4.555   8.967   2.584
16422W        W88847  18.791  12.710  13.070
16423W        W88848  42.829  42.498   3.821
16424W        W88849  39.894  18.843  14.463
16425W        W88850  36.954   5.300  12.813
16426W        W88851  26.172  28.606  10.782
16427W        W88852  28.084  12.651  13.192
16428W        W88853  13.176  39.234   2.176
16429W        W88854  23.868   0.243   1.965
16430W        W88855  13.355  23.918  13.351
16431W        W88856  40.326  42.537  14.307
16432W        W88857  20.068   6.312   0.919
16433W        W88858  23.632   7.930   4.134
16434W        W88859  12.353  34.007   4.859
16435W        W88860  15.360  36.125   1.799
16436W        W88861   4.778  41.010   4.566
16437W        W88862  27.601  12.737   1.441
16438W        W88863  17.216  33.553  11.632
16439W        W88864  19.688  42.298  11.928
16440W        W88865  23.820  10.326   0.110
16441W        W88866   8.575   3.114   1.279
16442W        W88867  23.218   7.440  13.147
16443W        W88868  39.477   7.440   2.687
16444W        W88869   4.150  13.110  11.193
16445W        W88870  31.415  43.775   0.427
16446W        W88871  14.679  15.801  12.440
16447W        W88872   1.254  11.499  13.701
16448W        W88873  44.232   6.400   3.745
16449W        W88874   1.914  17.629  12.956
16450W        W88875  42.095   7.266  10.725
16451W        W88876  28.755  39.798  12.913
16452W        W88877   3.855  34.825   2.694
16453W        W88878  25.478  25.041   5.111
16454W        W88879  22.794  39.181   3.149
16455W        W88880   5.163  20.113   2.675
16456W        W88881  26.093  37.533  14.524
16457W        W88882   6.160  29.456  10.735
16458W        W88883   0.741  41.267  10.560
16459W        W88884  30.584  35.285  10.981
16460W        W88885  35.562  32.626  10.703
16461W        W88886   5.347   8.070   3.376
16462W        W88887  42.750  30.191  14.918
16463W        W88888  44.314  36.039   0.846
16464W        W88889  32.589  29.056   1.374
16465W        W88890   8.834  39.142   0.531
16466W        W88891  13.578   5.756  14.925
16467W        W88892  34.501   4.477   3.384
16468W        W88893  34.305   6.372  10.397
16469W        W88894  25.620  31.409  11.469
16470W        W88895  33.362  31.045  12.969
16471W        W88896   0.964  20.096   0.150
16472W        W88897  30.068   4.834  10.467
16473W        W88898   6.636  21.568  12.530
16474W        W88899   2.193  25.259   0.253
16475W        W88900  30.602  39.385   1.334
16476W        W88901  35.325  31.507   1.844
16477W        W88902  41.923  14.143  12.414
16478W        W88903  13.912  24.277  10.293
16479W        W88904  14.182  42.934   4.627
16480W        W88905  44.554  42.834  12.458
16481W        W88906   4.657   3.866  11.737
16482W        W88907   7.664  23.704   0.320
16483W        W88908  13.680  24.561   0.676
16484W        W88909  39.370   9.943   0.796
16485W        W88910  32.608  28.664   4.886
16486W        W88911  28.756  31.364  11.485
16487W        W88912  40.607  11.379  14.307
16488W        W88913  38.959  40.171   4.879
16489W        W88914  10.217   6.764  11.060
16490W        W88915   0.953   9.682  13.431
16491W        W88916   6.201  36.826  13.688
16492W        W88917  10.348  16.110   5.172
16493W        W88918  20.090  40.999  14.339
16494W        W88919  14.362  15.855  14.743
16495W        W88920   8.893  25.539   3.411
16496W        W88921   5.931  28.990  10.718
16497W        W88922  19.364   1.225   5.752
16498W        W88923  41.299  35.545   0.262
16499W        W88924  23.685  16.226   3.210
16500W        W88925  15.097  42.569   0.698
16501W        W88926  36.171  18.077  13.019
16502W        W88927  25.263   0.235  11.718
16503W        W88928   1.004  37.105   2.378
16504W        W88929   2.333  37.391  14.770
16505W        W88930  30.055  37.661  13.760
16506W        W88931  21.067  43.019  11.086
16507W        W88932  33.600  36.821   1.441
16508W        W88933  15.209  42.318  14.751
16509W        W88934  25.468   7.971   0.144
16510W        W88935  31.725  10.692  13.330
16511W        W88936  20.384   9.502   5.060
16512W        W88937  28.877  18.261   1.169
16513W        W88938   7.912  35.232   1.333
16514W        W88939  44.517  26.563  10.680
16515W        W88940   8.138  30.852  11.100
16516W        W88941  20.908  41.391   2.288
16517W        W88942  22.624  37.997   3.627
16518W        W88943   1.829  33.094  10.469
16519W        W88944   6.661  26.151   1.492
16520W        W88945   3.779  24.917  14.928
16521W        W88946   8.151  35.067  10.593
16522W        W88947  19.930  18.160   4.953
16523W        W88948  20.633  36.823  13.905
16524W        W88949   2.846  20.715   1.235
16525W        W88950  28.695  27.430  14.308
16526W        W88951  30.048  27.972   0.474
16527W        W88952  30.405  15.750   4.500
16528W        W88953  41.573  14.271  14.151
16529W        W88954  23.185  15.546  12.642
16530W        W88955   0.324  32.819   1.214
16531W        W88956  30.141  10.612   1.392
16532W        W88957   2.369  29.162   1.970
16533W        W88958  20.059  25.817  13.093
16534W        W88959  16.426  19.791  12.401
16535W        W88960  32.645  15.119   2.709
16536W        W88961   5.369   4.166  10.659
16537W        W88962   9.439  35.963   0.424
16538W        W88963   2.252  29.095  13.483
16539W        W88964  36.717  31.630   0.068
16540W        W88965  14.794  42.358   4.292
16541W        W88966  17.824  39.648  11.611
16542W        W88967   2.750  18.135   4.742
16543W        W88968  13.724   1.261  14.508
16544W        W88969  12.282  11.817  12.641
16545W        W88970   0.902  30.209   3.177
16546W        W88971  41.770  40.423  13.436
16547W        W88972   9.652  17.581   3.259
16548W        W88973  37.551   9.176   0.402
16549W        W88974   1.483  14.204   3.720
16550W        W88975  35.452  25.701  11.071
16551W        W88976  28.617   1.362   4.122
16552W        W88977  41.852  21.875   4.056
16553W        W88978  22.430   3.954   1.399
16554W        W88979  18.331  24.673  10.996
16555W        W88980  25.154  15.841  11.200
16556W        W88981  17.125  32.097  12.889
16557W        W88982   6.162  12.128   2.663
16558W        W88983  10.229  24.866   5.068
16559W        W88984  41.770  36.384   2.028
16560W        W88985   8.645   3.318   1.764
16561W        W88986  12.033  30.508  10.693
16562W        W88987   8.235  24.481  10.827
16563W        W88988  26.911  31.957  14.020
16564W        W88989   3.505   1.391   1.919
16565W        W88990  29.092  14.354   2.213
16566W        W88991  33.983  30.079   3.200
16567W        W88992  27.647   6.353  11.501
16568W        W88993  21.522  15.818   2.868
16569W        W88994  31.864  15.286  14.390
16570W        W88995  22.360  29.918   0.244
16571W        W88996  17.676  18.903  13.944
16572W        W88997  40.477  16.009  11.042
16573W        W88998   6.609   6.701  12.949
16574W        W88999  29.849  24.439  10.891
16575W        W89000  15.689  28.464   4.299
16576W        W89001  20.880  11.268  13.928
16577W        W89002  20.792   7.439  14.542
16578W        W89003  32.660  18.854  12.868
16579W        W89004  31.025  44.034  13.012
16580W        W89005   2.448  13.376   2.309
16581W        W89006  18.736  26.736   2.098
16582W        W89007  38.267  19.715   0.259
16583W        W89008  30.040  13.568   1.704
16584W        W89009   1.422  37.880  10.689
16585W        W89010  14.148  38.825   1.295
16586W        W89011   7.792  38.736  12.076
16587W        W89012  31.094   5.310   1.323
16588W        W89013   4.913  43.480   4.482
16589W        W89014   7.946   3.900  13.884
16590W        W89015  32.148  40.056   2.300
16591W        W89016  42.231  31.629  14.557
16592W        W89017  32.176  33.323   0.985
16593W        W89018  10.125  25.209  11.696
16594W        W89019   4.784  43.299   1.327
16595W        W89020  29.508  23.389   0.550
16596W        W89021  19.100   3.372  12.818
16597W        W89022   0.020   8.766   1.682
16598W        W89023  19.953   4.159   4.105
16599W        W89024  37.926  33.126   3.299
16600W        W89025  38.967  17.327  13.013
16601W        W89026  36.461  15.698  13.045
16602W        W89027  28.422  29.520   0.784
16603W        W89028  35.623  38.797  12.412
16604W        W89029  40.481  15.800   0.842
16605W        W89030  33.872  43.933  12.060
16606W        W89031  21.162  13.959  11.940
16607W        W89032  14.027   0.276  12.810
16608W        W89033  21.562  19.027  10.483
16609W        W89034   6.646  13.119  14.264
16610W        W89035  14.825  42.211  11.176
16611W        W89036  39.504  35.152   0.897
16612W        W89037  23.230  28.611   2.790
16613W        W89038  24.533  12.517  11.944
16614W        W89039  34.825  19.670   1.971
16615W        W89040  41.041  19.954  13.356
16616W        W89041  26.538  42.302  14.781
16617W        W89042  14.933  44.508  13.302
16618W        W89043  24.689  20.170  12.496
16619W        W89044  33.445  16.098  11.756
16620W        W89045  22.040  41.964  14.505
16621W        W89046   5.786  44.256   2.206
16622W        W89047   1.199  21.188  13.396
16623W        W89048   7.361  22.611   1.092
16624W        W89049  24.158  23.376   3.617
16625W        W89050  33.730  10.221  11.252
16626W        W89051  25.678  19.763  13.960
16627W        W89052  18.399  44.015  10.947
16628W        W89053  20.684  40.182   0.951
16629W        W89054  25.014   5.148   4.704
16630W        W89055  38.418   6.143   1.180
16631W        W89056  14.759   9.504  13.492
16632W        W89057   6.848  13.118   3.723
16633W        W89058   3.983  36.478   0.886
16634W        W89059  36.136  33.995  14.960
16635W        W89060  15.039  29.013   2.879
16636W        W89061   6.347  25.960   4.718
16637W        W89062  40.794   3.706  11.254
16638W        W89063  36.471  34.979   2.895
16639W        W89064  26.217  41.608  14.549
16640W        W89065  13.289   4.771   3.472
16641W        W89066  13.144  33.730   2.712
16642W        W89067  42.445  14.262  12.430
16643W        W89068  16.614   7.895  13.302
16644W        W89069  19.503  12.649   2.347
16645W        W89070  25.617  31.072  14.754
16646W        W89071  32.606  15.583   2.941
16647W        W89072  13.316  26.007  11.189
16648W        W89073  36.126  41.325   1.662
16649W        W89074  11.176  23.249  11.455
16650W        W89075  14.066   1.334   3.166
16651W        W89076   8.843  11.826   4.128
16652W        W89077  23.537  20.711   0.336
16653W        W89078  41.476   4.632   0.733
16654W        W89079  17.132  22.719   3.252
16655W        W89080  36.231  35.350   1.670
16656W        W89081  13.636   1.562   3.347
16657W        W89082  10.395  36.540   1.053
16658W        W89083  17.729  17.807  14.752
16659W        W89084  25.130  33.038  10.629
16660W        W89085  15.719  41.330   2.606
16661W        W89086  22.000  31.665  12.426
16662W        W89087  22.515  26.462   4.630
16663W        W89088  41.408  44.773  11.737
16664W        W89089   3.384  29.147  14.585
16665W        W89090  22.990  17.108  12.362
16666W        W89091  35.036  25.085   5.094
16667W        W89092  22.604  18.830   3.501
16668W        W89093   7.351  17.620   2.708
16669W        W89094   1.479  29.441   4.450
16670W        W89095  11.165   8.609   2.148
16671W        W89096  41.834   7.680  13.415
16672W        W89097  36.910  11.448  11.564
16673W        W89098  28.557  32.996   5.575
16674W        W89099   2.567  35.105  14.767
16675W        W89100  23.575  26.506   0.645
16676W        W89101  12.171  21.613   0.321
16677W        W89102  43.804  13.369  14.510
16678W        W89103  29.161  24.139  14.069
16679W        W89104  32.514  26.121  14.540
16680W        W89105  12.215  14.110   4.169
16681W        W89106  33.369  14.116  13.279
16682W        W89107  31.336   2.871   0.841
16683W        W89108  18.034  31.575  11.996
16684W        W89109  18.975  16.487   1.890
16685W        W89110  33.381  11.641   2.629
16686W        W89111  32.648  13.860  12.945
16687W        W89112  12.647  41.395   1.379
16688W        W89113  43.576  31.016  12.093
16689W        W89114   5.033   7.288  14.710
16690W        W89115  42.652  34.481  13.552
16691W        W89116  37.435   9.452  12.475
16692W        W89117   0.940  17.087  10.651
16693W        W89118  42.002  41.494  13.776
16694W        W89119  20.722  41.300  11.935
16695W        W89120  18.070   6.390   2.390
16696W        W89121  42.104  27.921  13.624
16697W        W89122   5.920  37.597   1.286
16698W        W89123  13.047  33.659  13.370
16699W        W89124  41.274  24.308  13.285
16700W        W89125  32.383   8.525   1.218
16701W        W89126  11.912   7.229  13.534
16702W        W89127  12.139  17.838   3.733
16703W        W89128   6.211  30.469  12.509
16704W        W89129  21.485  12.091  13.042
16705W        W89130  37.045   7.686   1.820
16706W        W89131  22.061  32.155  12.614
16707W        W89132  38.536   5.722   4.718
16708W        W89133   1.414   0.924   4.266
16709W        W89134  44.114  41.503  14.810
16710W        W89135  21.013   2.486   2.587
16711W        W89136  37.365  11.446  10.310
16712W        W89137  29.612  17.101  10.432
16713W        W89138  17.227   5.878   2.411
16714W        W89139  30.007  26.243  13.403
16715W        W89140  24.049  34.039   1.839
16716W        W89141  17.701   9.831   0.038
16717W        W89142  21.947  39.679   1.294
16718W        W89143  38.029  27.364  14.807
16719W        W89144  21.426  12.821   0.978
16720W        W89145  37.736  16.346  11.172
16721W        W89146  11.047   5.249  14.405
16722W        W89147  11.173  12.764  10.577
16723W        W89148  26.104  38.858  12.105
16724W        W89149  19.592  35.499  11.301
16725W        W89150  15.156  31.670   2.781
16726W        W89151  37.613  16.831   2.349
16727W        W89152  10.735  36.159   4.163
16728W        W89153  22.890  35.633   4.893
16729W        W89154  13.553   4.966   2.273
16730W        W89155  35.823   2.694   4.130
16731W        W89156  27.510   1.044   0.937
16732W        W89157  11.425   5.902   1.975
16733W        W89158  30.891  16.837   2.504
16734W        W89159   2.722   7.320  13.388
16735W        W89160   8.447  10.781   4.585
16736W        W89161  17.607   6.433   1.716
16737W        W89162  22.150  11.243   0.202
16738W        W89163  41.751  28.229   2.326
16739W        W89164  12.115  22.597   3.500
16740W        W89165  27.490   5.995   0.273
16741W        W89166  32.371  40.342   2.705
16742W        W89167   8.870  21.513  14.424
16743W        W89168   6.354   4.135  14.927
16744W        W89169  29.672   8.341   4.725
16745W        W89170  24.527   5.025  10.615
16746W        W89171  37.633  28.868   4.526
16747W        W89172   1.286  17.686  13.664
16748W        W89173  11.723  27.020  12.516
16749W        W89174  16.687  37.179  10.773
16750W        W89175  40.635  18.159  13.532
16751W        W89176  24.300   7.153   3.236
16752W        W89177  38.205  10.104   4.258
16753W        W89178  37.744  43.440   4.771
16754W        W89179   6.761   1.030  13.313
16755W        W89180   3.885   4.688   1.378
16756W        W89181   4.812  33.269  12.507
16757W        W89182   7.550  38.295   5.120
16758W        W89183  36.100  31.736   0.660
16759W        W89184  34.961  26.301  10.634
16760W        W89185  37.388   8.344  13.792
16761W        W89186  35.163  18.947  13.907
16762W        W89187  23.399  34.318  13.022
16763W        W89188   7.254  10.345   0.998
16764W        W89189  42.096  16.631  13.017
16765W        W89190  23.244   6.281   3.592
16766W        W89191  23.038  39.923   4.672
16767W        W89192  13.773  12.696   0.031
16768W        W89193  30.408  15.943   4.051
16769W        W89194  43.383   4.645  14.419
16770W        W89195  37.600  21.468  14.808
16771W        W89196   3.843  26.012  14.767
16772W        W89197   5.999  12.398   1.314
16773W        W89198  23.550  21.034   1.676
16774W        W89199  43.525  21.767   1.356
16775W        W89200  28.371  33.424   2.069
16776W        W89201  25.947   1.426   2.844
16777W        W89202  29.159   0.352  12.923
16778W        W89203  36.396  30.241   4.394
16779W        W89204   7.740  27.585  13.406
16780W        W89205  43.462  36.371   4.705
16781W        W89206  43.372   8.236  13.784
16782W        W89207  29.112   0.743   1.644
16783W        W89208  33.583  43.723  13.390
16784W        W89209   3.147  32.969  13.362
16785W        W89210  43.995  34.390  11.913
16786W        W89211   9.733   3.681   1.802
16787W        W89212  37.773  41.491  14.431
16788W        W89213   2.766  38.298  11.531
16789W        W89214  22.512  16.061   4.175
16790W        W89215  30.591  18.774   3.595
16791W        W89216  24.934  35.125   2.835
16792W        W89217   7.676   2.989  13.915
16793W        W89218  14.057  11.684   4.222
16794W        W89219  17.624  24.358  13.460
16795W        W89220  16.174  38.874   3.626
16796W        W89221  27.032  41.483  11.400
16797W        W89222  44.079   6.766   2.371
16798W        W89223  31.162   9.125   2.273
16799W        W89224  22.674  42.303   4.410
16800W        W89225  29.081  42.499  11.669
16801W        W89226  35.376  13.827   0.733
16802W        W89227  36.554  37.836  11.741
16803W        W89228  41.020  33.658  12.458
16804W        W89229  39.436   6.459  13.800
16805W        W89230   2.180  12.224  13.031
16806W        W89231  20.655  11.833  13.822
16807W        W89232  17.659  36.081  13.807
16808W        W89233  29.640   7.485  11.110
16809W        W89234  10.799  34.743  12.436
16810W        W89235  43.756  13.896  14.539
16811W        W89236  35.801  41.049  10.688
16812W        W89237  36.256  18.530  11.664
16813W        W89238  35.115  11.620  12.868
16814W        W89239  15.598  17.874   0.460
16815W        W89240  17.641  36.092  12.816
16816W        W89241  43.692  43.491   0.234
16817W        W89242  33.147   4.378  13.751
16818W        W89243   3.844  38.989  11.592
16819W        W89244   1.856  28.972  11.159
16820W        W89245   7.919  28.852   0.968
16821W        W89246  28.645   2.797   1.718
16822W        W89247  10.339  21.665   2.349
16823W        W89248  14.594   4.004  13.694
16824W        W89249  37.575  11.946  11.112
16825W        W89250  22.753   9.378   4.570
16826W        W89251  35.251   7.083  11.470
16827W        W89252  28.149  25.511   0.901
16828W        W89253  12.580  14.605   0.801
16829W        W89254  24.012   9.597   2.220
16830W        W89255   5.765  22.511  12.001
16831W        W89256  18.971  26.592   0.368
16832W        W89257  38.131  18.973   3.840
16833W        W89258  43.835  13.581  14.967
16834W        W89259   5.688  42.760   3.251
16835W        W89260  40.071   9.962  12.018
16836W        W89261   0.884  38.308   2.801
16837W        W89262  21.665  35.900   2.279
16838W        W89263  31.889  10.562   2.777
16839W        W89264   3.283  40.666  11.276
16840W        W89265  37.970  36.476  11.645
16841W        W89266  11.710   2.314   3.700
16842W        W89267  20.704  10.279  13.756
16843W        W89268  10.374   7.817   3.141
16844W        W89269  29.663   1.289   4.865
16845W        W89270  30.631  18.063  11.621
16846W        W89271   5.279  12.362  10.746
16847W        W89272   2.755  33.823   3.763
16848W        W89273  31.003  35.950  11.584
16849W        W89274  39.170  44.461  14.997
16850W        W89275  28.489  32.013  12.045
16851W        W89276   0.785  30.577  12.444
16852W        W89277  12.404  25.918   0.029
16853W        W89278  30.119  36.516   2.339
16854W        W89279  40.547   4.296  13.440
16855W        W89280   3.070  10.304   0.935
16856W        W89281   3.163  38.482   1.275
16857W        W89282  21.111  12.162   1.122
16858W        W89283  18.322  39.354  13.227
16859W        W89284   9.977  15.342   3.720
16860W        W89285  40.320  22.449   1.829
16861W        W89286  24.249  28.009  12.613
16862W        W89287  39.485   6.635   3.375
16863W        W89288  36.867  31.118   4.899
16864W        W89289   7.495  17.861   2.233
16865W        W89290  36.884  36.781   1.811
16866W        W89291  24.086   2.509   1.038
16867W        W89292  39.312   6.482  11.995
16868W        W89293  35.678  28.647  13.102
16869W        W89294  35.383  42.371  14.285
16870W        W89295  18.530  40.113  14.395
16871W        W89296  22.055  34.869   2.190
16872W        W89297   3.376  40.370   3.383
16873W        W89298  16.651  39.779   4.499
16874W        W89299   8.762  42.708   1.569
16875W        W89300   6.172  14.758  14.546
16876W        W89301  17.623  20.103  13.083
16877W        W89302  25.499  26.972   3.178
16878W        W89303  38.610  24.153   4.527
16879W        W89304  26.280  25.075  11.495
16880W        W89305  29.427  40.526  11.098
16881W        W89306   4.741  18.987   3.100
16882W        W89307   2.552  39.881   4.085
16883W        W89308  44.876  30.733  11.659
16884W        W89309   1.062  19.287   2.681
16885W        W89310  14.094  13.806  12.604
16886W        W89311  35.818  26.141   1.415
16887W        W89312  27.055  20.024   4.482
16888W        W89313  37.063  32.484   0.711
16889W        W89314   9.048  15.234  12.931
16890W        W89315   3.756   1.460   0.020
16891W        W89316  10.580  19.280  12.272
16892W        W89317  41.951  41.064  10.671
16893W        W89318  43.247  12.690   1.700
16894W        W89319   3.788  17.637   2.716
16895W        W89320   6.747  34.996   1.663
16896W        W89321  36.985  14.654  14.459
16897W        W89322  20.822  18.234   3.868
16898W        W89323  39.834  33.839   3.712
16899W        W89324  21.576  29.521  10.716
16900W        W89325  12.278   4.518   1.960
16901W        W89326   6.955  16.380  11.593
16902W        W89327  43.822  41.021  14.568
16903W        W89328  37.844  36.597  14.866
16904W        W89329   5.647  22.174  14.427
16905W        W89330   3.214   1.931  12.597
16906W        W89331  33.841  14.367  12.916
16907W        W89332  43.871   9.212  14.722
16908W        W89333  29.991  43.500   3.211
16909W        W89334   2.435  10.772  10.742
16910W        W89335   8.210  11.991  14.894
16911W        W89336   3.621  25.552  14.883
16912W        W89337   4.309  38.504   2.544
16913W        W89338  36.651  24.134   0.479
16914W        W89339  31.238  16.284  14.453
16915W        W89340  30.443  15.779   1.450
16916W        W89341   0.085   0.504  11.582
16917W        W89342   8.175   4.124  12.648
16918W        W89343  37.824  39.361  12.544
16919W        W89344  14.886  29.036   0.992
16920W        W89345   3.991   3.241  12.093
16921W        W89346   6.980   1.516  13.523
16922W        W89347  36.392  40.885  13.936
16923W        W89348  36.166  36.373   3.612
16924W        W89349  32.445  22.730  14.369
16925W        W89350  13.390  20.713  12.988
16926W        W89351  25.088   5.260  12.776
16927W        W89352  41.374  24.370  12.005
16928W        W89353  13.445  34.027  13.087
16929W        W89354  10.093  33.485   1.878
16930W        W89355  21.522   3.724   2.338
16931W        W89356  44.354   0.553   1.370
16932W        W89357  20.340  17.752   0.854
16933W        W89358   5.854  34.369  11.594
16934W        W89359   1.289   9.392   4.348
16935W        W89360   7.398   4.276  11.654
16936W        W89361  19.064  36.962  10.704
16937W        W89362  16.028  17.124  12.638
16938W        W89363  37.992  27.467  12.503
16939W        W89364  17.692  41.035  12.182
16940W        W89365   7.115   2.783   4.196
16941W        W89366   6.127  41.683  13.966
16942W        W89367  24.913  34.001  12.091
16943W        W89368  41.717  39.693  14.918
16944W        W89369  34.936   9.627   2.926
16945W        W89370  40.678  23.977   5.063
16946W        W89371  40.768  13.074  12.044
16947W        W89372  10.664  11.272   4.646
16948W        W89373  15.118  16.692  14.119
16949W        W89374  20.560   0.312  10.671
16950W        W89375  33.486  36.122   0.284
16951W        W89376  37.026  39.526   3.726
16952W        W89377  12.817  15.305  13.793
16953W        W89378  13.232   8.345  13.923
16954W        W89379  39.455  13.337  11.070
16955W        W89380  15.915  42.840  13.795
16956W        W89381   3.833  21.938  11.157
16957W        W89382  39.995   4.297   2.439
16958W        W89383  10.021  19.267  11.713
16959W        W89384  15.738   9.474  11.081
16960W        W89385  29.071  31.099   2.439
16961W        W89386   9.427  17.716  12.944
16962W        W89387  23.648   8.756   0.680
16963W        W89388  24.555  19.589  14.863
16964W        W89389  34.699  26.663   1.894
16965W        W89390  16.810  21.077   3.359
16966W        W89391  30.234   7.886   5.164
16967W        W89392  19.045  43.433   0.969
16968W        W89393   3.359  35.843   4.613
16969W        W89394  39.821  28.597   4.358
16970W        W89395  17.745   2.229   3.251
16971W        W89396  41.666   0.469   1.561
16972W        W89397  30.085  26.649   4.627
16973W        W89398  10.873  14.731  11.253
16974W        W89399  25.671   4.239   0.193
16975W        W89400  31.064  26.700   3.790
16976W        W89401  25.144   6.440   3.336
16977W        W89402  39.059  15.730  11.619
16978W        W89403  29.395  43.256   1.014
16979W        W89404  43.336   7.581  11.452
16980W        W89405   0.996  25.543   1.701
16981W        W89406   7.921   0.779   2.029
16982W        W89407  25.078  13.577   4.650
16983W        W89408   9.039  31.785  12.559
16984W        W89409  26.395  23.734  12.563
16985W        W89410  20.965   7.355   1.842
16986W        W89411  40.247  24.706   3.659
16987W        W89412  19.138   2.402  13.560
16988W        W89413  17.592  23.815   0.519
16989W        W89414  33.552  25.823  12.428
16990W        W89415  21.401  29.375  13.564
16991W        W89416  40.268  32.618  12.375
16992W        W89417  16.644   9.616  10.641
16993W        W89418  10.289  18.530   1.711
16994W        W89419  37.348   9.742  10.887
16995W        W89420  18.304  42.536  14.485
16996W        W89421   4.346  29.189   1.413
16997W        W89422  39.520  11.452  14.878
16998W        W89423   8.355   1.307   3.332
16999W        W89424  11.369  11.613   0.481
17000W        W89425   7.977  11.940   2.385
17001W        W89426   2.513  18.712  13.839
17002W        W89427  41.348  19.136  12.116
17003W        W89428  33.974   6.079  10.127
17004W        W89429  40.389  26.699  13.084
17005W        W89430  35.043  28.012  14.546
17006W        W89431   5.998   8.275  14.841
17007W        W89432  28.382   1.380   1.729
17008W        W89433   6.477  18.780   4.536
17009W        W89434  18.493  16.354   3.182
17010W        W89435  17.891  13.184  11.463
17011W        W89436  23.422  11.908   0.915
17012W        W89437  38.816  23.543  11.526
17013W        W89438  31.495  31.959  10.204
17014W        W89439  28.019   0.386   3.504
17015W        W89440  32.119  30.139  11.580
17016W        W89441  33.869  34.028   1.228
17017W        W89442  26.651  16.686   0.495
17018W        W89443  11.749  42.593  11.264
17019W        W89444   3.419  39.358  12.469
17020W        W89445  37.811  29.508   0.840
17021W        W89446  44.959  32.503  14.814
17022W        W89447  18.266  36.995  11.180
17023W        W89448  30.115  17.119  11.145
17024W        W89449  24.156   2.373   0.555
17025W        W89450  36.530  29.664   2.190
17026W        W89451  28.927  14.756   0.065
17027W        W89452   2.818  33.150  12.146
17028W        W89453   7.338   2.830  10.957
17029W        W89454  22.759  27.247   1.765
17030W        W89455  42.876   0.728   2.376
17031W        W89456  41.128   7.688   0.363
17032W        W89457  27.453  18.125  13.125
17033W        W89458  15.225   3.632  14.238
17034W        W89459   1.255  42.890  13.524
17035W        W89460   9.865  13.203   2.444
17036W        W89461  39.807  20.330  13.047
17037W        W89462   2.369  38.530  11.264
17038W        W89463   4.318  34.083   1.770
17039W        W89464   2.593  41.146  13.560
17040W        W89465  36.929  44.393  12.073
17041W        W89466  13.877  38.896   4.296
17042W        W89467  13.166  19.049   0.760
17043W        W89468  33.645  35.011  11.599
17044W        W89469  27.509  37.492  14.350
17045W        W89470   0.055  44.339   1.542
17046W        W89471   9.438   4.458  14.790
17047W        W89472  33.690  11.658   2.212
17048W        W89473  25.773  20.210   1.740
17049W        W89474  13.717  27.632  13.097
17050W        W89475   4.908  23.630  12.018
17051W        W89476  13.686  44.538   1.223
17052W        W89477   2.669  24.160   2.859
17053W        W89478  41.187  25.401   3.727
17054W        W89479   6.648   2.303   3.378
17055W        W89480  32.850   5.174   0.886
17056W        W89481  16.205  13.160  10.625
17057W        W89482  14.697   9.395  10.357
17058W        W89483  14.334  12.768   4.653
17059W        W89484  17.987  43.530   4.906
17060W        W89485  22.228  42.960  12.430
17061W        W89486  32.038  17.955   1.162
17062W        W89487  37.929  14.584  10.529
17063W        W89488  23.675   1.887   3.805
17064W        W89489   9.823  28.446  12.282
17065W        W89490  30.191   6.877  12.994
17066W        W89491  23.447  11.453   4.579
17067W        W89492  12.257  10.929   1.225
17068W        W89493  13.895  12.833  10.488
17069W        W89494  34.420  10.700   0.960
17070W        W89495  20.644  26.837   4.417
17071W        W89496  21.667  31.687  13.538
17072W        W89497   9.718  20.739  11.937
17073W        W89498  19.221  10.425   2.000
17074W        W89499   1.726  24.207   2.612
17075W        W89500   3.142   9.711  14.910
17076W        W89501  19.058  31.501  12.569
17077W        W89502  13.939  43.175   3.615
17078W        W89503  38.102  21.524  11.608
17079W        W89504  43.347  23.701  12.584
17080W        W89505  31.534  17.308   0.368
17081W        W89506  17.026   4.990   0.147
17082W        W89507  33.172  23.798  10.288
17083W        W89508  38.341  13.838  12.003
17084W        W89509  11.413  16.323  11.667
17085W        W89510  21.239   1.340  10.754
17086W        W89511  19.051  25.247  11.135
17087W        W89512  16.012  41.383  12.497
17088W        W89513   6.310  36.942   9.477
17089W        W89514  11.994   1.260   0.365
17090W        W89515  18.579  30.470  13.343
17091W        W89516  30.404  30.524  14.981
17092W        W89517   2.432  34.400  14.499
17093W        W89518  36.848   8.442  13.983
17094W        W89519  30.203   4.149  11.217
17095W        W89520  44.004  14.855   0.337
17096W        W89521   4.500  25.639  11.820
17097W        W89522   5.226  29.164   1.471
17098W        W89523  18.424  35.141  12.966
17099W        W89524  12.693   8.688  12.882
17100W        W89525   9.181  38.520  14.764
17101W        W89526  38.965  21.798   1.265
17102W        W89527  35.807  33.979   2.836
17103W        W89528  30.613  31.011   0.043
17104W        W89529   7.512  42.335   3.362
17105W        W89530  36.973   2.368   3.477
17106W        W89531  22.343   5.774   3.701
17107W        W89532   8.975  29.474  12.876
17108W        W89533  19.282  15.715   4.723
17109W        W89534  42.806  20.248   2.708
17110W        W89535  36.552  28.939  14.120
17111W        W89536  28.510  24.478  11.121
17112W        W89537  31.587   7.792   2.430
17113W        W89538  38.766  41.253   1.418
17114W        W89539  10.750  22.457   2.794
17115W        W89540  37.334  44.400   0.039
17116W        W89541   8.625  38.831   2.522
17117W        W89542  37.055  12.176   0.736
17118W        W89543  11.847  43.284   0.435
17119W        W89544   2.716  39.923  14.228
17120W        W89545  34.452  32.499   2.073
17121W        W89546  34.341  11.755   2.949
17122W        W89547  28.572  43.866  14.293
17123W        W89548  12.206  19.780   3.778
17124W        W89549  18.973  29.165  13.938
17125W        W89550  39.061  31.717  11.429
17126W        W89551   0.524  25.187  11.181
17127W        W89552  36.906  27.664   3.808
17128W        W89553  32.022   0.260   2.288
17129W        W89554   2.776  42.297   2.192
17130W        W89555   8.675  28.866   3.342
17131W        W89556  37.099   4.516  10.402
17132W        W89557  26.296  14.094   3.129
17133W        W89558  15.403   8.563  14.417
17134W        W89559  20.025  30.624   3.004
17135W        W89560  12.729   4.475   2.345
17136W        W89561  18.572  27.039  14.405
17137W        W89562  42.570   6.898   1.247
17138W        W89563  12.783   2.674  13.903
17139W        W89564   0.399  10.257  11.138
17140W        W89565  37.850  34.110  14.540
17141W        W89566  30.355  26.672  13.318
17142W        W89567  22.618  30.000   4.109
17143W        W89568   6.736  42.773  13.213
17144W        W89569   7.162   5.717   0.313
17145W        W89570  35.620  44.444   1.208
17146W        W89571  24.684  37.888   3.950
17147W        W89572  25.905  33.839   3.184
17148W        W89573   4.293  29.798  10.858
17149W        W89574  32.630  14.753  14.468
17150W        W89575  11.517  43.336  12.704
17151W        W89576   5.377  29.711  12.941
17152W        W89577  12.629  33.989   2.705
17153W        W89578  31.697  20.291  14.926
17154W        W89579   8.279  44.215   0.223
17155W        W89580  17.155  31.539   1.432
17156W        W89581  23.681  14.625   4.692
17157W        W89582  28.790  29.409  11.516
17158W        W89583  25.148   9.961   4.121
17159W        W89584  29.413   9.337  10.652
17160W        W89585   6.543   5.956   5.135
17161W        W89586  21.010  25.944   2.397
17162W        W89587  14.362  38.851   4.986
17163W        W89588   3.854  24.519   1.136
17164W        W89589  36.084  33.649   0.359
17165W        W89590  33.762   4.159  11.158
17166W        W89591  35.025  28.329   4.354
17167W        W89592  35.536  23.496   4.170
17168W        W89593   8.842  44.777   0.735
17169W        W89594  37.803  23.620  13.146
17170W        W89595  32.957  16.271   0.165
17171W        W89596   8.429   5.298  13.468
17172W        W89597  11.374  39.105   4.615
17173W        W89598  12.115  34.893   2.848
17174W        W89599  40.649  14.310   5.077
17175W        W89600  34.398  35.605  14.256
17176W        W89601  11.819  27.644   3.669
17177W        W89602  39.605  11.695  13.962
17178W        W89603   4.764   5.850   4.782
17179W        W89604  37.311   4.209  13.814
17180W        W89605  18.799   8.845  14.802
17181W        W89606  44.893  20.770  12.479
17182W        W89607  40.999   8.367   2.414
17183W        W89608   7.291  19.619  12.409
17184W        W89609  38.769  35.303  12.926
17185W        W89610   9.975  36.009   0.427
17186W        W89611  17.954  10.717   4.956
17187W        W89612  19.550  41.974   1.926
17188W        W89613  18.605  16.471   4.085
17189W        W89614   9.331  13.565   1.184
17190W        W89615  18.231  25.204  13.381
17191W        W89616  11.390  30.965  11.093
17192W        W89617  14.481  43.023   3.654
17193W        W89618  12.715  44.348  14.881
17194W        W89619  38.808  32.114  11.150
17195W        W89620  43.441  24.130  13.321
17196W        W89621  12.803  21.811  11.078
17197W        W89622  37.483  28.031  14.757
17198W        W89623   0.911  30.491   3.736
17199W        W89624  36.542  15.095   4.221
17200W        W89625  38.424  42.202  10.129
17201W        W89626  17.765  23.945  12.796
17202W        W89627  33.466  43.020   0.225
17203W        W89628  20.753   8.713   2.273
17204W        W89629  21.039  22.720   4.567
17205W        W89630  25.371  31.462   0.088
17206W        W89631  18.705  44.706  10.248
17207W        W89632  31.758  35.568  10.612
17208W        W89633  19.093  35.474   0.570
17209W        W89634  26.658  34.016   3.629
17210W        W89635  42.231   3.421   2.142
17211W        W89636  31.027  25.625  11.129
17212W        W89637   8.253   8.794  13.494
17213W        W89638   1.257  21.315  14.367
17214W        W89639  36.582  19.324  13.819
17215W        W89640   0.239  10.918   2.823
17216W        W89641  35.618   4.779   4.087
17217W        W89642  42.785  15.855   0.486
17218W        W89643   0.337   0.073   3.493
17219W        W89644   3.756  25.605   4.200
17220W        W89645  23.580   7.655   1.395
17221W        W89646  22.220  35.483  12.064
17222W        W89647  22.012   2.408   3.934
17223W        W89648  39.878   2.719   0.026
17224W        W89649  17.832   7.778   4.384
17225W        W89650  40.160  16.628  12.600
17226W        W89651   8.635  43.928   4.905
17227W        W89652   7.374  15.561  11.564
17228W        W89653  14.851  16.280   0.170
17229W        W89654  11.301  41.363  14.477
17230W        W89655  42.096  17.593   4.460
17231W        W89656  31.687  42.526   2.751
17232W        W89657   0.926  23.673  10.716
17233W        W89658  20.032  24.284   5.108
17234W        W89659  41.014  40.740   2.666
17235W        W89660  23.743  41.944   2.242
17236W        W89661   9.287  32.655   2.356
17237W        W89662  36.392  26.986   0.297
17238W        W89663  13.234  17.832   2.821
17239W        W89664  36.997  35.411   1.227
17240W        W89665  16.325  12.313  10.755
17241W        W89666   2.796  25.374  12.645
17242W        W89667  22.961  31.513  11.636
17243W        W89668  14.006   8.166   3.278
17244W        W89669   4.730  16.497  10.183
17245W        W89670  22.178  31.394   0.350
17246W        W89671  29.691   7.613  11.628
17247W        W89672  27.965  24.787   4.602
17248W        W89673  37.549  42.102  13.383
17249W        W89674  13.396  23.750   5.076
17250W        W89675   2.744  10.688  14.367
17251W        W89676   8.684  25.915   2.426
17252W        W89677   5.612  17.967   2.415
17253W        W89678   1.102  12.215   0.220
17254W        W89679  17.606  22.269   2.342
17255W        W89680   5.558  25.401   3.670
17256W        W89681  15.798  35.455   2.915
17257W        W89682  42.303  12.204   2.359
17258W        W89683  20.973  36.630  11.686
17259W        W89684  11.155   4.271  12.517
17260W        W89685  12.237   1.922  14.825
17261W        W89686  17.922  43.137   5.266
17262W        W89687  16.028   4.738   1.245
17263W        W89688  14.831   5.818  13.781
17264W        W89689  18.334  15.303   1.351
17265W        W89690  18.640  10.401   4.428
17266W        W89691  37.936  32.509  12.338
17267W        W89692   9.852  37.142   2.904
17268W        W89693  23.747   0.198  14.502
17269W        W89694  20.025  39.904  11.203
17270W        W89695  26.514  37.085   2.690
17271W        W89696  35.550  20.673   0.989
17272W        W89697  44.869   2.267   2.898
17273W        W89698   9.944  43.889  13.392
17274W        W89699   6.969  25.490  12.592
17275W        W89700  25.574  34.548  12.649
17276W        W89701  31.998  44.343  13.308
17277W        W89702   9.324  21.962   0.817
17278W        W89703  19.106  29.500   4.117
17279W        W89704  12.308   7.972   1.285
17280W        W89705  16.152  42.383  10.700
17281W        W89706  37.166   0.966   4.716
17282W        W89707  20.549  39.716   1.202
17283W        W89708  34.574   8.351  14.446
17284W        W89709  14.792  39.959  11.701
17285W        W89710  26.901  32.446  13.181
17286W        W89711  30.173  29.540  13.917
17287W        W89712   1.767   0.886   2.915
17288W        W89713   0.197  31.483  11.025
17289W        W89714  34.053  34.067   2.934
17290W        W89715  10.495  36.112  11.102
17291W        W89716   0.561   2.794  13.103
17292W        W89717  25.092  36.062   3.637
17293W        W89718  25.730  42.010   3.814
17294W        W89719   6.823  10.401   1.611
17295W        W89720  38.540  16.728  14.934
17296W        W89721  11.941  34.968  11.133
17297W        W89722  20.486  10.584   0.289
17298W        W89723  29.044  43.024  11.653
17299W        W89724  43.504   7.326   2.076
17300W        W89725  16.355   2.515  14.467
17301W        W89726  38.480  38.588   0.374
17302W        W89727  24.915  25.206   4.420
17303W        W89728  14.754  36.907   1.768
17304W        W89729  43.097  19.541   3.041
17305W        W89730  15.328  38.980  11.910
17306W        W89731  28.413   4.297  11.592
17307W        W89732  20.035  11.319   0.754
17308W        W89733  42.351  15.381   3.734
17309W        W89734  33.026   2.251   2.237
17310W        W89735  13.088   2.902  12.072
17311W        W89736  22.084  18.400  13.713
17312W        W89737  43.344   9.161  12.957
17313W        W89738   0.672  38.968   1.927
17314W        W89739  16.122  14.756   2.415
17315W        W89740  26.342  16.699  13.533
17316W        W89741  28.253  29.066  12.112
17317W        W89742  42.243  43.891   1.884
17318W        W89743  16.780   6.671   1.257
17319W        W89744  41.230  27.156   2.875
17320W        W89745  30.984  40.563   1.677
17321W        W89746  11.856   9.867  14.418
17322W        W89747  24.255  43.200  11.908
17323W        W89748  13.288  10.264  13.304
17324W        W89749   3.309  30.446  10.323
17325W        W89750  32.365   0.724   4.899
17326W        W89751  32.996   8.219   3.911
17327W        W89752  23.724  30.625   2.602
17328W        W89753  31.938  24.534   0.952
17329W        W89754   6.754  19.499  12.574
17330W        W89755  19.352  40.797   3.698
17331W        W89756   7.909  22.370   5.000
17332W        W89757  31.946  23.783  13.971
17333W        W89758  10.300   6.406   2.802
17334W        W89759   7.821   8.191   2.243
17335W        W89760  39.352  24.442   0.927
17336W        W89761  11.212  43.977   1.821
17337W        W89762  15.313  16.203  10.654
17338W        W89763   2.856  19.108   1.662
17339W        W89764  38.255   5.787   0.816
17340W        W89765  28.056  32.146   0.755
17341W        W89766  44.308  18.161   3.377
17342W        W89767   8.357  44.422  10.128
17343W        W89768  19.772  30.908  11.605
17344W        W89769  26.776  41.252   1.942
17345W        W89770  22.727  37.034  11.658
17346W        W89771  25.142  23.777  13.996
17347W        W89772  20.569  12.188  12.434
17348W        W89773   4.790  37.016   1.045
17349W        W89774  18.226  11.300   3.322
17350W        W89775   9.415  24.171  12.886
17351W        W89776  37.923  29.314  11.057
17352W        W89777  31.634  13.691  11.961
17353W        W89778   9.776  28.354  14.834
17354W        W89779   7.228  31.982  13.291
17355W        W89780  39.670  19.800   4.196
17356W        W89781  35.309  44.917   2.168
17357W        W89782  12.140  19.411   1.858
17358W        W89783  31.970  30.461   1.090
17359W        W89784  19.200  22.182   3.724
17360W        W89785  27.661  29.118  13.518
17361W        W89786  10.326  38.222  10.571
17362W        W89787  36.294   4.859  13.408
17363W        W89788  25.591  10.146   2.464
17364W        W89789  11.736  29.159   3.624
17365W        W89790   5.711  14.086   0.157
17366W        W89791  15.704  43.437  14.975
17367W        W89792  30.956  36.259   4.098
17368W        W89793  40.684   0.843  14.760
17369W        W89794  27.433   0.746  12.501
17370W        W89795   8.306  14.965  11.125
17371W        W89796   5.776   2.352   3.372
17372W        W89797   6.721  20.961   2.265
17373W        W89798  29.991  26.648   1.285
17374W        W89799   4.521   5.131  12.179
17375W        W89800   3.440  14.245  11.955
17376W        W89801  15.473  16.272  12.876
17377W        W89802  17.669  16.150   4.309
17378W        W89803   0.436   4.740   3.226
17379W        W89804   7.884  13.742  11.674
17380W        W89805   7.279  38.153   0.332
17381W        W89806  22.244  39.263   1.339
17382W        W89807  16.247  34.136   3.239
17383W        W89808  22.548  21.240  10.490
17384W        W89809  37.883  26.246   0.844
17385W        W89810  17.135   0.313  13.731
17386W        W89811  41.296  38.812   4.105
17387W        W89812  27.451  11.912   4.165
17388W        W89813  18.700   0.767  14.258
17389W        W89814   1.391  28.327  12.072
17390W        W89815  17.457  15.057  14.908
17391W        W89816  15.542   0.378   0.307
17392W        W89817  38.578  24.995   3.275
17393W        W89818  13.569  30.634   0.359
17394W        W89819  21.012  34.876   3.269
17395W        W89820  23.287  35.616   3.607
17396W        W89821  15.847  42.998  13.305
17397W        W89822   3.502  14.122   2.369
17398W        W89823  10.225  12.831   3.480
17399W        W89824  20.072  35.044  13.946
17400W        W89825  32.044  43.779  10.285
17401W        W89826  18.540  43.814  14.724
17402W        W89827  21.287  15.660  12.471
17403W        W89828  12.642  30.628  12.560
17404W        W89829  32.091  39.449   4.639
17405W        W89830   1.772  29.160   2.315
17406W        W89831  34.866  20.749   4.152
17407W        W89832  41.455  30.433   4.048
17408W        W89833  27.443  10.180  10.715
17409W        W89834  21.953  33.999  13.944
17410W        W89835  41.895  22.407  13.484
17411W        W89836  25.219  12.561  13.054
17412W        W89837  41.871  34.024   3.352
17413W        W89838   3.368  19.123  14.251
17414W        W89839  22.775  31.492   2.334
17415W        W89840   6.352  36.097  10.182
17416W        W89841  38.450  16.242   2.304
17417W        W89842  17.156  21.611   3.352
17418W        W89843  32.910  41.126  11.957
17419W        W89844  12.429  34.856  11.247
17420W        W89845  13.026   3.080  14.849
17421W        W89846  20.062  27.515  13.035
17422W        W89847  25.152  24.647  13.920
17423W        W89848  34.597  10.268   3.794
17424W        W89849  22.763   4.967   1.801
17425W        W89850  37.329  16.033  11.279
17426W        W89851  38.404  29.430  12.891
17427W        W89852  27.972  18.693   3.735
17428W        W89853  40.888  29.911  11.570
17429W        W89854  11.135  14.555  10.855
17430W        W89855   9.691  40.807  14.698
17431W        W89856  38.986  13.971   3.191
17432W        W89857  26.127  17.637   3.098
17433W        W89858   1.020  29.499  12.058
17434W        W89859   6.087   0.419  11.522
17435W        W89860   4.805  33.925   0.436
17436W        W89861   3.755   5.886   3.663
17437W        W89862  42.617  31.159  11.676
17438W        W89863  27.028  39.302  10.938
17439W        W89864  41.349  24.063  10.637
17440W        W89865   1.479  41.592  13.167
17441W        W89866  32.914  32.817   3.665
17442W        W89867  20.706  31.894  10.384
17443W        W89868  16.891  27.414  14.838
17444W        W89869   2.013   8.135  11.672
17445W        W89870   4.415  15.783   1.956
17446W        W89871  43.285   8.126  10.646
17447W        W89872  29.974  15.774  14.257
17448W        W89873  44.900  39.374   3.840
17449W        W89874  32.380  37.037   2.811
17450W        W89875  10.080   4.769   2.464
17451W        W89876   7.176  19.750  12.891
17452W        W89877  38.862  12.074  11.907
17453W        W89878  44.202  17.647   3.875
17454W        W89879  10.158  32.544  13.371
17455W        W89880   1.980  20.282  13.016
17456W        W89881   5.266  17.209   0.661
17457W        W89882  37.661  24.598  10.382
17458W        W89883  34.592  39.477   0.913
17459W        W89884  36.279  29.530   0.826
17460W        W89885  31.075  28.563   2.813
17461W        W89886  16.740  41.727   4.804
17462W        W89887  24.318  38.328   2.190
17463W        W89888  42.483  33.176   1.014
17464W        W89889  20.548  27.786   3.371
17465W        W89890  37.797  39.316  10.667
17466W        W89891  19.583  38.890  12.665
17467W        W89892  11.400  35.405   3.272
17468W        W89893  12.179   5.683  10.672
17469W        W89894  30.313  31.962  12.965
17470W        W89895  22.610  17.668  11.526
17471W        W89896  11.638   7.077  12.682
17472W        W89897  26.125  18.117   0.947
17473W        W89898  28.695  33.473   3.229
17474W        W89899  23.500  31.639  12.517
17475W        W89900  17.445  14.365  11.144
17476W        W89901  24.518   7.240  13.896
17477W        W89902   4.443  37.261  12.682
17478W        W89903  19.367  12.353  14.957
17479W        W89904   5.802   0.293   2.140
17480W        W89905  33.037  23.256   2.272
17481W        W89906  35.568  25.052   5.020
17482W        W89907  32.994   7.404   2.246
17483W        W89908   6.499   4.797  11.946
17484W        W89909  14.759  36.675  13.399
17485W        W89910  24.179  20.108  13.411
17486W        W89911  23.011  32.778  12.493
17487W        W89912  14.937  24.818  11.261
17488W        W89913  22.442  22.439   1.872
17489W        W89914  32.917  27.708   3.237
17490W        W89915   7.189  37.890   2.481
17491W        W89916   0.028  24.522  14.780
17492W        W89917  21.848  19.153   0.740
17493W        W89918  27.875  36.866   3.710
17494W        W89919  15.704  34.630  10.822
17495W        W89920  14.234  39.135   4.594
17496W        W89921  39.326   0.093   1.141
17497W        W89922  13.798  26.235  10.591
17498W        W89923  19.999   4.438   3.183
17499W        W89924  26.113  15.379   0.250
17500W        W89925  39.632  13.211  12.348
17501W        W89926   9.189  21.646   2.486
17502W        W89927  32.001  33.916   2.768
17503W        W89928  22.165  41.065  11.021
17504W        W89929  18.772  30.972  12.399
17505W        W89930  11.690  21.170   5.103
17506W        W89931  15.887  15.419  12.421
17507W        W89932  35.505   5.179  10.842
17508W        W89933  32.951   4.356  14.828
17509W        W89934   1.471  36.113   3.150
17510W        W89935   6.565  38.628   2.636
17511W        W89936  36.918   2.642  12.875
17512W        W89937  44.425  29.755   2.284
17513W        W89938  39.626  19.511  14.975
17514W        W89939  21.652  36.132  11.889
17515W        W89940  39.901   5.213  14.713
17516W        W89941  13.687  35.975  11.493
17517W        W89942  13.550   1.773  10.293
17518W        W89943  26.633  40.737   0.677
17519W        W89944  19.064   4.232  12.660
17520W        W89945  43.930  29.391  12.412
17521W        W89946   6.165  23.801   0.293
17522W        W89947  11.534  32.663   3.063
17523W        W89948  22.511   5.590   2.988
17524W        W89949  39.619  15.566   4.112
17525W        W89950   3.887  15.699   4.247
17526W        W89951  22.079   0.962   0.827
17527W        W89952  26.631  26.393  12.061
17528W        W89953  15.215  11.126   4.497
17529W        W89954  11.861   9.808   3.642
17530W        W89955  34.042  18.529   4.919
17531W        W89956   0.032  42.272  14.430
17532W        W89957  41.884   8.598   1.722
17533W        W89958  13.780   7.189  13.004
17534W        W89959  41.313  20.630  12.046
17535W        W89960   1.009  34.404   2.145
17536W        W89961  13.808  25.981   3.339
17537W        W89962  24.230   7.770  14.494
17538W        W89963  38.433  31.188   1.733
17539W        W89964  22.957  13.594   4.194
17540W        W89965  32.786  37.362   2.664
17541W        W89966  35.154  28.328  13.827
17542W        W89967  40.347   8.320   3.832
17543W        W89968   0.387  39.122  11.408
17544W        W89969  44.062  38.095  11.060
17545W        W89970  13.750  14.278   3.740
17546W        W89971  13.618   6.671   0.858
17547W        W89972   8.332  21.506  10.355
17548W        W89973  34.468  20.084  11.055
17549W        W89974   2.820  19.677  12.930
17550W        W89975  26.706  25.175   0.733
17551W        W89976   8.175  21.657   2.719
17552W        W89977  33.069  36.810  12.632
17553W        W89978  26.958  33.146  12.948
17554W        W89979   9.679  20.975  11.035
17555W        W89980  35.141   6.939  13.884
17556W        W89981  40.325   0.314  13.008
17557W        W89982   5.203   4.757   4.152
17558W        W89983  17.591   2.477  12.003
17559W        W89984   5.653  33.812   0.023
17560W        W89985   7.931  29.141   4.728
17561W        W89986   2.465  10.888  12.177
17562W        W89987  34.943  43.899   0.339
17563W        W89988  11.766   7.441  13.062
17564W        W89989   9.119  13.102   1.331
17565W        W89990   4.872   3.492   1.847
17566W        W89991  30.269  34.988  11.250
17567W        W89992  44.889  26.154  14.995
17568W        W89993   8.084   8.681  11.178
17569W        W89994   7.160   6.207  12.480
17570W        W89995   0.343  20.997  10.578
17571W        W89996  38.398  44.810   2.367
17572W        W89997  44.346  26.952  11.497
17573W        W89998  33.085   3.319   3.097
17574W        W89999   3.031   2.282  13.411
17575W        W90000  11.130  16.578  11.011
17576W        W90001  37.066  14.629  11.688
17577W        W90002  12.665  19.649   4.557
17578W        W90003  43.910  23.278  11.491
17579W        W90004  25.700   2.006  10.305
17580W        W90005  32.565  38.151  11.166
17581W        W90006  41.641   9.539   3.414
17582W        W90007   9.626  10.428   1.746
17583W        W90008  37.976  42.538  11.593
17584W        W90009  16.228   8.814   2.959
17585W        W90010  35.983  19.294   0.736
17586W        W90011  16.562  41.579   0.852
17587W        W90012  10.345  21.765   3.218
17588W        W90013  31.333  19.738   2.855
17589W        W90014  17.550  34.093  11.016
17590W        W90015   7.830   5.757   4.539
17591W        W90016  24.766  32.620   2.743
17592W        W90017  43.070  16.370  12.877
17593W        W90018  43.224   0.604  13.267
17594W        W90019  16.148  11.394  10.633
17595W        W90020  29.702  30.561   9.754
17596W        W90021  25.588  12.157   4.575
17597W        W90022  35.505  15.231   2.052
17598W        W90023  24.708   8.779   5.042
17599W        W90024  35.875   4.710   3.106
17600W        W90025  36.361   7.562  12.862
17601W        W90026  30.023  39.662  13.600
17602W        W90027  20.293  29.161  11.691
17603W        W90028  38.930  26.229   1.379
17604W        W90029  37.119   7.260   3.263
17605W        W90030  40.970  11.693   0.428
17606W        W90031  23.827  36.499   3.814
17607W        W90032  34.942  19.417  13.728
17608W        W90033  37.893  13.423   4.853
17609W        W90034   4.963  32.541   4.284
17610W        W90035  36.996  28.056  14.395
17611W        W90036  19.753  24.962   0.221
17612W        W90037  13.598  30.949   1.941
17613W        W90038   8.039   6.905   4.339
17614W        W90039  16.305  42.707   2.829
17615W        W90040  27.748  19.204  13.808
17616W        W90041  37.542  23.247  11.027
17617W        W90042  10.339  35.629  10.982
17618W        W90043  29.740  17.234   2.076
17619W        W90044  42.082  44.443   5.002
17620W        W90045  37.603  28.914   2.201
17621W        W90046  30.108   1.466  11.860
17622W        W90047  16.113   7.909   0.813
17623W        W90048  29.457  44.368  12.454
17624W        W90049   3.329  15.208   2.548
17625W        W90050   9.943  17.634  12.931
17626W        W90051  28.151  23.317   3.374
17627W        W90052   2.132   2.362   4.017
17628W        W90053  42.721  17.774   2.165
17629W        W90054  19.597  16.000  14.400
17630W        W90055  38.089  20.720   0.719
17631W        W90056  22.124  27.174  13.365
17632W        W90057  19.062  23.970  12.167
17633W        W90058  34.096  32.541  12.395
17634W        W90059  15.995  39.101   2.653
17635W        W90060  28.492  33.597   4.815
17636W        W90061  44.853  17.765  11.166
17637W        W90062  39.495  31.517   3.203
17638W        W90063  43.554   9.237  11.550
17639W        W90064  17.155  18.533   4.614
17640W        W90065  44.245  36.409   2.737
17641W        W90066  10.765  19.166   2.835
17642W        W90067   4.274  33.342   0.836
17643W        W90068  40.059  30.531   2.955
17644W        W90069  44.806  11.644   3.314
17645W        W90070  43.965  27.190   3.611
17646W        W90071  14.146   8.873   1.623
17647W        W90072  17.698   4.734   2.259
17648W        W90073  10.177   5.900   2.684
17649W        W90074  30.633  31.394   0.418
17650W        W90075   7.654  24.000   3.338
17651W        W90076  36.334  27.370  11.195
17652W        W90077   8.759   8.715  10.531
17653W        W90078  13.753  11.076   2.402
17654W        W90079  10.839  17.633   3.262
17655W        W90080   6.999  32.404   1.814
17656W        W90081   3.505  43.393   0.754
17657W        W90082  41.332  17.109   4.173
17658W        W90083  23.014  11.858   2.758
17659W        W90084   6.292  19.018  13.950
17660W        W90085  20.667  39.662   0.712
17661W        W90086  18.356  15.827   3.880
17662W        W90087  32.691  41.945  13.041
17663W        W90088  26.617   7.442   3.814
17664W        W90089  20.567  23.975   0.523
17665W        W90090  33.541  10.307   4.673
17666W        W90091   5.840  31.013   2.591
17667W        W90092  24.486  33.883   0.397
17668W        W90093  36.934  24.023  11.837
17669W        W90094   8.706  35.329   2.413
17670W        W90095  38.824   6.336   2.367
17671W        W90096   3.190   0.052   3.144
17672W        W90097  42.880  19.291  12.462
17673W        W90098  16.349  10.149   1.202
17674W        W90099  20.958  14.423  10.124
17675W        W90100  13.194  22.525   4.505
17676W        W90101  31.874   1.348  11.133
17677W        W90102  17.684  25.172  12.180
17678W        W90103  36.296  23.011   0.400
17679W        W90104  38.370  38.379  14.357
17680W        W90105  10.758  35.126   4.862
17681W        W90106  27.962   7.129  14.522
17682W        W90107  15.766   2.702  12.584
17683W        W90108   4.493  37.116  10.649
17684W        W90109  36.919  44.549  11.208
17685W        W90110  30.115  16.245   2.497
17686W        W90111  10.831  21.587   4.293
17687W        W90112  15.041   0.938  10.297
17688W        W90113   2.797  29.143   2.735
17689W        W90114  37.573  37.435  13.915
17690W        W90115  36.349   2.694   3.269
17691W        W90116  15.845  22.931  10.600
17692W        W90117  23.775  40.487   2.261
17693W        W90118  42.487  17.545   0.789
17694W        W90119  18.273  24.722   4.151
17695W        W90120   3.723  31.231   1.694
17696W        W90121  21.949  28.049   1.146
17697W        W90122  33.999  12.792   3.236
17698W        W90123   2.736  39.741   0.855
17699W        W90124  43.973  16.780   2.150
17700W        W90125   8.894   9.397   4.552
17701W        W90126  22.272  28.026   0.716
17702W        W90127  14.767  41.901   0.405
17703W        W90128   0.868  21.236   2.708
17704W        W90129   4.797  33.503   0.744
17705W        W90130  15.153  42.955   0.347
17706W        W90131   2.399  31.588   2.249
17707W        W90132  24.138  43.525   1.222
17708W        W90133  44.789  12.706  12.526
17709W        W90134   3.717  35.841   2.648
17710W        W90135  28.135  12.698   2.265
17711W        W90136  26.148  43.015  14.762
17712W        W90137  24.754  22.565  14.538
17713W        W90138  16.887  43.775  13.549
17714W        W90139  42.922  15.161   1.713
17715W        W90140  15.011   4.330   0.030
17716W        W90141  35.168  41.899  12.928
17717W        W90142  10.714  41.514  12.347
17718W        W90143   7.590   5.927   2.745
17719W        W90144  16.291  28.069   3.788
17720W        W90145   6.828   4.497  11.020
17721W        W90146  41.440  16.260  11.147
17722W        W90147  42.851  19.993   0.812
17723W        W90148  44.290   0.920  14.543
17724W        W90149  28.546   8.181  14.046
17725W        W90150  19.651  24.254   3.306
17726W        W90151   2.787  34.275   0.814
17727W        W90152  34.315  33.084   4.683
17728W        W90153   1.711  42.126  14.065
17729W        W90154  18.135  22.205   2.297
17730W        W90155  38.334  17.378   2.960
17731W        W90156   3.753  35.420  14.280
17732W        W90157  25.845   9.913  12.795
17733W        W90158  35.810  25.131  11.535
17734W        W90159   2.762  11.634  13.825
17735W        W90160  32.114   7.341   4.376
17736W        W90161   5.451  23.497  10.686
17737W        W90162   6.335  42.300   4.855
17738W        W90163  35.609  11.569  12.973
17739W        W90164  38.306   9.411   2.828
17740W        W90165  41.150  32.856   1.004
17741W        W90166  18.949  19.244  14.435
17742W        W90167  33.882   9.906  12.562
17743W        W90168  25.009  13.653   2.241
17744W        W90169  39.808  22.794  11.586
17745W        W90170   4.361   4.843  11.639
17746W        W90171  37.425  43.364   3.636
17747W        W90172  34.877   2.848  10.675
17748W        W90173  10.746   1.012   3.673
17749W        W90174  23.114  21.610   3.183
17750W        W90175  35.407   1.932   2.716
17751W        W90176  35.933  10.080  12.660
17752W        W90177  35.924  29.358   3.454
17753W        W90178  39.829  21.792  13.843
17754W        W90179   1.745   5.910   0.955
17755W        W90180  13.904  15.627  13.457
17756W        W90181  25.731  16.092   0.758
17757W        W90182  41.181  41.538  13.360
17758W        W90183  29.193  33.596  13.386
17759W        W90184  36.304  20.849   4.246
17760W        W90185  23.246  38.862   3.161
17761W        W90186  17.507  15.860   1.772
17762W        W90187  22.663  41.194  12.644
17763W        W90188  13.661  12.390   0.797
17764W        W90189  21.799  18.321  12.865
17765W        W90190  43.035  16.117   3.830
17766W        W90191  22.832   7.678  11.479
17767W        W90192   8.878  36.452   0.067
17768W        W90193  21.412   4.946  12.401
17769W        W90194   0.039  23.531   1.030
17770W        W90195  15.979  34.194   1.987
17771W        W90196  21.764  31.558  14.876
17772W        W90197  13.183  13.689  11.661
17773W        W90198  18.597   9.872   4.285
17774W        W90199   2.414   1.992   3.778
17775W        W90200  22.733  11.770   3.948
17776W        W90201   3.901  21.526  13.850
17777W        W90202   1.982  27.384   3.481
17778W        W90203  44.221  35.905  11.604
17779W        W90204  31.658  32.587   3.365
17780W        W90205  38.118  31.069   3.084
17781W        W90206   7.120  12.686   1.851
17782W        W90207  39.135  41.490   0.551
17783W        W90208  22.180   6.238   0.656
17784W        W90209   1.429  21.305  10.638
17785W        W90210  20.593  37.778   0.934
17786W        W90211  27.132  19.032   3.812
17787W        W90212  35.362  26.934   4.141
17788W        W90213   6.692   0.467  10.819
17789W        W90214  16.780  21.499  13.795
17790W        W90215  37.351  41.829  11.473
17791W        W90216  36.127  32.623   0.907
17792W        W90217  35.540  17.005  14.918
17793W        W90218  31.484   0.732   4.771
17794W        W90219   1.852   2.243   2.933
17795W        W90220  12.878  20.936  11.595
17796W        W90221  29.255  29.830  12.565
17797W        W90222   5.276  20.608  13.952
17798W        W90223  39.221  38.827  14.907
17799W        W90224  36.379  38.279  11.582
17800W        W90225  26.305  19.734  14.230
17801W        W90226  20.606  42.193   1.754
17802W        W90227  30.930  12.331  14.924
17803W        W90228  24.720  42.077   3.675
17804W        W90229  38.984  30.109  11.196
17805W        W90230   4.115  43.879  14.140
17806W        W90231  18.697  38.557  13.495
17807W        W90232  28.076  32.813   5.696
17808W        W90233  28.228  18.230   0.942
17809W        W90234   1.012  43.382   2.281
17810W        W90235  13.428   1.719  12.604
17811W        W90236  20.558  12.436   2.909
17812W        W90237  41.254  31.531   2.427
17813W        W90238  19.203   9.645  13.421
17814W        W90239  22.715  42.961  14.981
17815W        W90240   9.388  33.252   1.300
17816W        W90241  17.595   8.211   0.263
17817W        W90242  28.003  37.436  14.673
17818W        W90243  32.565  27.462   0.875
17819W        W90244  38.866  18.020   2.227
17820W        W90245  23.543  27.537   0.186
17821W        W90246  41.895  38.934  10.198
17822W        W90247  15.242   0.628   4.722
17823W        W90248   6.206   4.914  12.783
17824W        W90249  40.030   7.121   3.638
17825W        W90250  17.019  42.773   3.596
17826W        W90251  39.882  42.822  10.619
17827W        W90252  32.131  15.283   3.599
17828W        W90253  22.155  25.232   1.648
17829W        W90254  24.713  27.220   2.695
17830W        W90255  19.128  19.184   4.472
17831W        W90256  33.542  32.787   4.401
17832W        W90257  43.373   3.923   3.926
17833W        W90258   2.151  40.757  12.681
17834W        W90259  14.761  38.519  13.768
17835W        W90260  13.396  24.305   4.365
17836W        W90261   8.643  11.170  11.126
17837W        W90262   9.917  21.754   0.812
17838W        W90263  12.773  43.461  10.440
17839W        W90264  17.122   6.307   4.644
17840W        W90265   2.229  34.037   0.814
17841W        W90266  27.522  42.871  13.599
17842W        W90267  29.196   1.312  11.596
17843W        W90268  22.234   6.732   0.831
17844W        W90269  33.125   0.468  10.989
17845W        W90270  34.568  12.046   2.578
17846W        W90271  38.975  23.299  12.340
17847W        W90272  38.310  20.617   0.240
17848W        W90273   8.034  13.087  12.942
17849W        W90274  44.953  17.279  12.857
17850W        W90275  20.630  35.066   4.967
17851W        W90276  13.344   9.437  11.086
17852W        W90277   8.840   0.054   1.930
17853W        W90278  39.993  34.965  14.583
17854W        W90279   9.457  11.681  12.124
17855W        W90280  41.503  20.653   4.131
17856W        W90281  19.776  13.107   4.081
17857W        W90282  16.682  44.030  12.112
17858W        W90283  23.385  14.326  12.107
17859W        W90284  12.783  33.599   4.058
17860W        W90285  29.782   7.114  11.510
17861W        W90286   7.768  30.072  10.996
17862W        W90287  21.998  13.538  14.565
17863W        W90288   0.511  40.303  12.149
17864W        W90289  36.101  27.099  12.348
17865W        W90290   9.792  20.146  13.664
17866W        W90291  40.395   7.410  14.013
17867W        W90292  35.804   9.360   2.382
17868W        W90293  14.689   2.685   3.864
17869W        W90294   0.379  41.788  12.130
17870W        W90295  39.258  36.099   1.068
17871W        W90296  16.116  42.152  11.159
17872W        W90297  23.940   0.901   1.456
17873W        W90298  21.484  27.266  10.635
17874W        W90299  28.291  27.035   2.296
17875W        W90300  29.395   5.933   3.216
17876W        W90301  11.107  22.133  13.870
17877W        W90302  33.777   5.185   3.832
17878W        W90303  16.355  39.332  13.493
17879W        W90304  17.349   8.346   1.031
17880W        W90305  12.757   5.930   3.745
17881W        W90306  35.049  26.214  14.896
17882W        W90307  18.633  26.014  14.062
17883W        W90308  31.825  33.102   4.574
17884W        W90309  24.033  36.093   2.824
17885W        W90310  22.723  35.559   2.720
17886W        W90311  22.640  40.219   2.688
17887W        W90312  18.552   4.408   3.938
17888W        W90313  19.671  23.458   1.061
17889W        W90314  35.458  43.815   2.810
17890W        W90315  35.725  19.649   4.926
17891W        W90316  23.580  41.399   2.163
17892W        W90317  14.705  42.759   1.023
17893W        W90318  20.039   5.696  12.458
17894W        W90319  13.061  28.407   2.324
17895W        W90320   0.802  41.611  11.903
17896W        W90321  16.871  29.990   1.626
17897W        W90322  15.277  22.651   3.669
17898W        W90323   0.337   7.889   0.362
17899W        W90324   9.589   5.804  13.772
17900W        W90325  36.415  31.179   3.570
17901W        W90326  12.225  39.555  14.936
17902W        W90327   0.503  26.453  12.228
17903W        W90328  15.643  42.370   3.262
17904W        W90329  38.933   1.339   0.685
17905W        W90330  19.597   6.224   1.470
17906W        W90331   1.301  26.545  11.908
17907W        W90332   6.876   6.530  11.449
17908W        W90333  14.823  32.060  12.661
17909W        W90334  31.069  27.603   4.901
17910W        W90335  26.052  35.093   0.276
17911W        W90336   8.647  41.076  12.994
17912W        W90337  43.844  27.708  11.009
17913W        W90338  41.407   7.180  14.012
17914W        W90339  37.546  29.230   3.703
17915W        W90340   1.102  12.793  13.029
17916W        W90341  28.175  38.506  12.749
17917W        W90342   3.243   3.290  14.211
17918W        W90343   0.529  29.534   0.972
17919W        W90344  36.013  20.980  11.985
17920W        W90345  27.601  34.423   4.744
17921W        W90346  17.893  25.806  14.518
17922W        W90347  10.618  23.810   1.690
17923W        W90348   4.406  29.584  12.308
17924W        W90349  35.070  33.191   0.258
17925W        W90350  39.327  25.619   1.449
17926W        W90351  14.179  24.631   1.736
17927W        W90352  19.600   9.153  14.875
17928W        W90353  40.028  26.578  13.876
17929W        W90354  16.798  31.441  11.634
17930W        W90355   5.358   8.754   4.563
17931W        W90356  28.592  30.154  14.724
17932W        W90357  23.760   2.690  12.056
17933W        W90358   1.938  33.572  14.905
17934W        W90359  37.612  31.260   3.298
17935W        W90360  13.315  37.361   1.305
17936W        W90361  40.918  23.670   0.737
17937W        W90362  44.069  30.361  12.182
17938W        W90363  15.564   6.330  11.456
17939W        W90364  42.080  36.811  14.694
17940W        W90365  43.298  33.948   3.672
17941W        W90366  37.419   5.470  12.513
17942W        W90367   7.745  22.808  13.043
17943W        W90368  38.552  44.134   5.298
17944W        W90369   5.833  20.615  12.201
17945W        W90370  15.123  39.014   2.477
17946W        W90371  16.728  33.629  14.265
17947W        W90372   8.755  43.228   2.253
17948W        W90373  31.855  37.515  13.905
17949W        W90374  29.506  22.307   2.840
17950W        W90375  19.009  34.319   2.314
17951W        W90376  37.525   5.691   1.911
17952W        W90377  25.439  35.828   0.441
17953W        W90378  39.855   9.797  14.342
17954W        W90379   5.425  28.401  13.510
17955W        W90380  13.143  19.756   2.445
17956W        W90381  20.359  15.752  11.965
17957W        W90382  38.274  24.047   1.268
17958W        W90383   3.932  16.986  10.434
17959W        W90384  32.691  11.839   1.733
17960W        W90385  39.246  32.932   4.884
17961W        W90386  23.117  42.455   3.425
17962W        W90387  44.564  40.984   1.731
17963W        W90388  41.058  23.820  14.800
17964W        W90389  15.084   1.406   3.037
17965W        W90390  32.047  12.634  11.888
17966W        W90391  29.497   3.790  11.444
17967W        W90392  34.660   0.311   2.273
17968W        W90393  39.588  33.716   2.631
17969W        W90394   4.671  37.513   2.330
17970W        W90395  41.983  44.354   3.153
17971W        W90396  25.115  22.577  12.385
17972W        W90397  26.639  26.636  11.258
17973W        W90398  37.369  17.117   2.729
17974W        W90399  44.929   9.656  11.372
17975W        W90400  23.778  44.281  11.978
17976W        W90401   1.340  21.797   0.974
17977W        W90402  23.012  18.729  12.074
17978W        W90403  20.917  33.930  11.042
17979W        W90404  18.317  31.903   4.680
17980W        W90405  16.626   3.946  10.606
17981W        W90406  38.459  32.063   3.759
17982W        W90407  27.552  28.569  14.935
17983W        W90408  14.100  41.275   0.179
17984W        W90409   3.896   1.512  10.681
17985W        W90410  23.739   7.760   0.917
17986W        W90411   7.812  26.199   2.781
17987W        W90412   2.397  15.805   4.718
17988W        W90413  42.403  44.255   3.986
17989W        W90414  35.305  24.994  11.573
17990W        W90415   1.952  23.249   1.981
17991W        W90416  31.624  29.964   4.787
17992W        W90417   9.893  29.718  12.919
17993W        W90418  19.572   6.130   3.632
17994W        W90419   6.234  13.101  12.576
17995W        W90420  37.352  14.220  10.654
17996W        W90421  41.428   3.390  14.699
17997W        W90422  28.477  39.920   1.670
17998W        W90423  21.249  27.651   4.646
17999W        W90424  20.828  40.593   0.024
18000W        W90425  33.418  10.196   1.164
18001W        W90426  39.472  32.561   4.619
18002W        W90427   9.840  36.177  11.934
18003W        W90428  23.380  41.343  12.861
18004W        W90429  19.715  39.395  11.216
18005W        W90430   5.096   4.429  11.013
18006W        W90431  44.846  17.095   1.188
18007W        W90432   8.735  39.948   2.743
18008W        W90433  15.141  26.875  12.979
18009W        W90434  40.795  41.975  13.839
18010W        W90435  43.493   1.342  13.401
18011W        W90436  33.610   1.721  11.178
18012W        W90437  37.793  37.601   3.252
18013W        W90438   8.807  36.703   1.696
18014W        W90439   7.356  25.753   3.898
18015W        W90440  40.765  29.141   2.110
18016W        W90441  27.977  33.956   2.730
18017W        W90442  34.817  13.893   2.341
18018W        W90443  15.536  27.539   4.019
18019W        W90444   0.647  17.925  10.257
18020W        W90445   5.954   4.295   1.356
18021W        W90446  15.894  38.941   4.358
18022W        W90447  10.229  15.304  13.541
18023W        W90448  10.800  38.380   1.848
18024W        W90449   9.963  17.502   1.834
18025W        W90450  16.222  26.542  10.394
18026W        W90451  41.887   0.835   2.783
18027W        W90452  13.374  37.776  11.088
18028W        W90453  41.366  20.677   0.452
18029W        W90454  14.640  42.334   0.723
18030W        W90455  11.443  42.801  12.677
18031W        W90456  34.649  20.243   1.289
18032W        W90457   7.948  25.469  13.992
18033W        W90458  44.671  16.617   1.259
18034W        W90459   6.814  11.047  12.016
18035W        W90460  39.422  30.467   1.297
18036W        W90461   9.902   1.796  11.865
18037W        W90462  15.139  41.572   0.468
18038W        W90463  32.662  42.813  14.579
18039W        W90464  15.686   4.402  13.323
18040W        W90465  39.109  24.929  12.028
18041W        W90466  12.375  22.383  10.258
18042W        W90467  10.223  12.684   0.262
18043W        W90468  39.359  37.905   0.808
18044W        W90469  38.343  27.539  13.338
18045W        W90470   8.756  12.764  13.840
18046W        W90471  13.060  12.829  13.443
18047W        W90472  20.969  19.312   4.664
18048W        W90473   6.203   4.296   2.246
18049W        W90474   8.671  23.946   3.615
18050W        W90475  15.915  21.586   4.214
18051W        W90476   0.888  18.342  11.046
18052W        W90477  21.090  42.294  10.772
18053W        W90478   2.380   0.932  13.089
18054W        W90479   2.285  30.079   0.438
18055W        W90480  40.046  15.139  13.017
18056W        W90481  19.660  14.294  13.072
18057W        W90482  12.154   0.716  12.290
18058W        W90483  25.746  24.246  14.430
18059W        W90484  11.522  36.118  10.936
18060W        W90485  14.093  34.433  12.568
18061W        W90486  40.273  40.884   0.281
18062W        W90487   2.919  17.344  10.654
18063W        W90488  44.268  40.252  12.539
18064W        W90489   1.094  26.635   3.665
18065W        W90490   2.221   6.170  11.733
18066W        W90491   9.184   4.713  14.392
18067W        W90492  21.753  16.272  11.599
18068W        W90493  29.462  13.444   2.526
18069W        W90494  42.514   6.132  11.147
18070W        W90495   9.799   8.996  14.681
18071W        W90496  27.652   0.016   4.308
18072W        W90497  22.584   2.970   2.162
18073W        W90498  17.090   3.910  13.410
18074W        W90499  42.530  19.085   4.058
18075W        W90500   4.393  26.290   2.353
18076W        W90501  13.864  20.291  11.503
18077W        W90502  12.642  15.666   0.150
18078W        W90503  21.777   9.835   2.745
18079W        W90504  15.217   1.284  14.532
18080W        W90505  13.383   6.809   2.244
18081W        W90506   9.284  19.339   4.736
18082W        W90507  36.453  20.147   2.307
18083W        W90508  39.431  42.230  10.181
18084W        W90509  33.918  35.400   0.667
18085W        W90510  24.389  15.693   0.707
18086W        W90511   1.055  41.363  10.127
18087W        W90512   0.242  42.162  12.459
18088W        W90513  21.675  19.702  11.095
18089W        W90514  13.869   8.150   1.885
18090W        W90515  43.088   2.418   3.570
18091W        W90516  23.293  44.623  10.106
18092W        W90517   4.409  22.963  14.892
18093W        W90518  26.255  32.415  11.876
18094W        W90519   1.851  13.696   1.624
18095W        W90520  29.849  33.466   0.901
18096W        W90521  13.839  42.321   1.884
18097W        W90522   9.956  32.062  11.459
18098W        W90523   5.659  29.112  13.903
18099W        W90524  25.084   6.941   4.212
18100W        W90525  36.519  12.176   3.646
18101W        W90526  14.213  44.422   1.308
18102W        W90527  20.443  35.577   4.206
18103W        W90528  28.082  32.587   3.226
18104W        W90529  35.418  43.529  12.460
18105W        W90530   9.887   9.504  10.200
18106W        W90531  15.673   0.308   0.913
18107W        W90532  26.549  27.684  11.644
18108W        W90533  43.425  17.196   1.593
18109W        W90534  27.008  37.314  14.887
18110W        W90535   8.328   1.455  11.045
18111W        W90536  19.688  40.715  10.810
18112W        W90537   7.801  13.138  14.869
18113W        W90538  26.294  32.963   0.371
18114W        W90539  37.268  16.552  11.149
18115W        W90540  19.317   5.151   0.994
18116W        W90541   7.336  34.323   4.596
18117W        W90542  21.691   8.524   9.885
18118W        W90543  40.341  44.786   5.523
18119W        W90544  43.839  37.261  13.508
18120W        W90545  26.191  16.070  12.821
18121W        W90546  44.433  14.277   3.447
18122W        W90547  19.284  11.859  10.605
18123W        W90548  10.707   7.928   1.937
18124W        W90549  38.447  20.349  11.784
18125W        W90550  34.680  12.378  13.538
18126W        W90551  13.762  30.137  13.552
18127W        W90552  39.737  43.973  10.138
18128W        W90553  36.445  13.841  10.636
18129W        W90554  26.390  14.673  13.032
18130W        W90555   7.183  27.179  12.649
18131W        W90556  37.636  28.586   0.377
18132W        W90557  23.157  40.479  12.313
18133W        W90558  25.597  44.669  10.664
18134W        W90559  10.421  39.752   2.212
18135W        W90560   2.332  18.300  12.388
18136W        W90561  15.357  15.727  14.050
18137W        W90562  38.287  28.116  11.641
18138W        W90563  22.576  10.207  13.991
18139W        W90564  10.166  11.806   3.615
18140W        W90565  34.463  26.080   1.318
18141W        W90566   0.967  29.497   4.553
18142W        W90567  22.296  18.766  14.624
18143W        W90568  16.759  32.420   4.642
18144W        W90569  26.090  44.547   2.255
18145W        W90570  24.243  37.115   2.800
18146W        W90571  29.600   7.387  12.934
18147W        W90572  15.747  44.760   2.279
18148W        W90573  36.526  10.413  11.595
18149W        W90574   4.483  33.396  12.937
18150W        W90575  30.887   5.402   0.823
18151W        W90576  22.627  39.397   2.717
18152W        W90577   0.971   8.846   1.183
18153W        W90578   9.521  34.015   0.813
18154W        W90579  39.837  21.614  12.104
18155W        W90580  15.805  32.606   0.955
18156W        W90581   3.316  18.705  13.383
18157W        W90582  42.036  35.383   3.787
18158W        W90583  25.715  42.784   1.030
18159W        W90584  14.283  12.455   3.839
18160W        W90585  11.081  40.952  14.784
18161W        W90586   7.232  24.760   3.645
18162W        W90587  25.875  14.811  13.009
18163W        W90588  30.594  42.484  11.054
18164W        W90589  27.943  28.671  14.407
18165W        W90590  19.452   3.467   3.795
18166W        W90591  44.297   4.925   3.081
18167W        W90592   9.852  21.721   3.295
18168W        W90593  12.332   2.875  10.632
18169W        W90594   6.167  26.045   2.783
18170W        W90595  11.300  16.564   4.548
18171W        W90596  44.503  32.369  12.948
18172W        W90597  42.231   4.200   2.685
18173W        W90598   2.456  10.291  10.991
18174W        W90599  32.882  15.002   3.213
18175W        W90600  33.624  10.621   1.353
18176W        W90601  10.233  28.990   1.764
18177W        W90602  13.110  10.764  10.542
18178W        W90603  21.027  14.092   1.486
18179W        W90604   9.318  14.206   1.835
18180W        W90605  42.416   5.896  10.712
18181W        W90606  34.392  27.266  12.012
18182W        W90607   4.841  30.201  12.561
18183W        W90608  37.071  41.758   4.201
18184W        W90609  22.698  39.896  12.282
18185W        W90610  16.245   6.962   2.398
18186W        W90611  44.987   2.250  13.324
18187W        W90612  37.998  33.648   0.195
18188W        W90613  29.399   3.614  10.426
18189W        W90614  27.402  33.633  12.887
18190W        W90615   4.353   4.380   2.596
18191W        W90616  14.619  16.822  14.464
18192W        W90617  32.407  35.531   3.914
18193W        W90618   0.278   7.401  14.455
18194W        W90619   7.167  19.354   4.520
18195W        W90620  24.618   4.318   1.280
18196W        W90621  11.099  15.198  11.226
18197W        W90622  21.541   6.105  11.957
18198W        W90623  29.801  17.330  14.082
18199W        W90624  33.896  39.494  12.409
18200W        W90625  18.840  31.223   0.286
18201W        W90626  42.631  28.883  12.520
18202W        W90627  19.236  35.881   1.842
18203W        W90628  37.399  44.215  11.903
18204W        W90629  37.742  13.775  12.355
18205W        W90630  10.651  37.525  11.551
18206W        W90631  39.311  13.432  14.880
18207W        W90632  36.598  12.417  14.252
18208W        W90633   4.826  40.247   4.812
18209W        W90634  27.003  11.984  10.930
18210W        W90635  22.977   9.937   1.050
18211W        W90636  24.744  22.475  12.732
18212W        W90637  19.624  13.680   0.020
18213W        W90638  32.907  16.989   2.783
18214W        W90639  44.670  18.764  13.695
18215W        W90640  39.616  35.052   0.345
18216W        W90641  43.983  14.574   1.236
18217W        W90642   0.576  23.181   4.310
18218W        W90643  20.215  31.010   0.272
18219W        W90644   2.680  19.811   2.360
18220W        W90645  21.006  19.168   2.324
18221W        W90646  34.521   4.183  10.781
18222W        W90647  39.343   1.331   4.250
18223W        W90648  13.794   5.328   4.766
18224W        W90649  40.446  44.345   3.706
18225W        W90650  28.133   2.788   2.808
18226W        W90651  44.361  30.390   1.280
18227W        W90652   2.753  23.751  12.408
18228W        W90653  26.429  34.535  14.910
18229W        W90654   7.766   6.381   3.643
18230W        W90655  14.734  40.427   3.374
18231W        W90656  21.250  21.599  12.906
18232W        W90657   5.310  27.206   3.318
18233W        W90658  33.078   3.439  11.464
18234W        W90659  16.231  30.422   1.260
18235W        W90660  10.238  16.767  13.931
18236W        W90661  29.529  43.732  11.383
18237W        W90662  31.369  24.690   3.701
18238W        W90663   1.985  38.290   4.208
18239W        W90664  32.154  30.402  11.077
18240W        W90665  14.049  11.114  12.739
18241W        W90666  28.056  27.224  12.790
18242W        W90667  18.824  19.366  13.490
18243W        W90668  19.003  15.394  12.583
18244W        W90669  40.503   9.100  10.782
18245W        W90670  24.713  16.696   3.541
18246W        W90671  23.976  34.333  11.040
18247W        W90672  20.002  43.967   4.054
18248W        W90673  28.300  21.904   1.197
18249W        W90674  35.380  24.014  14.759
18250W        W90675  15.768  23.960  13.415
18251W        W90676  37.112  36.341   3.261
18252W        W90677  38.155  33.315  14.338
18253W        W90678   6.491  43.480  11.589
18254W        W90679  12.829  40.096  14.467
18255W        W90680  17.114  25.699   4.204
18256W        W90681  23.134   6.563  12.929
18257W        W90682   6.166  10.625  13.341
18258W        W90683  40.613  24.866  12.296
18259W        W90684  23.228  44.778  10.971
18260W        W90685   9.651  31.585  11.511
18261W        W90686  38.452  30.009  11.214
18262W        W90687   7.796   1.456  11.007
18263W        W90688   7.323  30.403   4.298
18264W        W90689   0.372  29.528  10.972
18265W        W90690  35.470   0.486  14.367
18266W        W90691   1.869  22.287  13.094
18267W        W90692  24.009  24.664  14.419
18268W        W90693  33.702  42.797   1.748
18269W        W90694  34.892  18.415  11.428
18270W        W90695  37.368   7.142   4.536
18271W        W90696  43.562  39.991  14.458
18272W        W90697  16.471  33.311   4.598
18273W        W90698  16.582  11.098  11.031
18274W        W90699  37.253  40.992  14.457
18275W        W90700   7.283   0.655   0.833
18276W        W90701   6.383  11.217  10.682
18277W        W90702  31.977   8.212   1.110
18278W        W90703  25.483  36.690  13.801
18279W        W90704  28.638   6.641   1.319
18280W        W90705  38.761  20.758   4.102
18281W        W90706  34.710  44.262   1.303
18282W        W90707  28.456   7.203  14.346
18283W        W90708  43.330   6.153   4.625
18284W        W90709  29.626   5.554   4.226
18285W        W90710  38.106  10.409  14.028
18286W        W90711  22.656  42.066  10.777
18287W        W90712  44.297  32.858  13.786
18288W        W90713   4.672  15.371  11.534
18289W        W90714  40.292  37.980   1.778
18290W        W90715  10.896  37.074  12.404
18291W        W90716  33.335  19.202  13.419
18292W        W90717  20.555  38.423   4.047
18293W        W90718  39.402  25.862  13.915
18294W        W90719   8.134  35.922  11.562
18295W        W90720  30.991   3.822   2.496
18296W        W90721  44.269   5.298  14.016
18297W        W90722  14.272   6.891  12.022
18298W        W90723  37.288  24.547  14.767
18299W        W90724  25.116  26.885   0.399
18300W        W90725  41.636  35.188   0.458
18301W        W90726  13.641  16.659  12.370
18302W        W90727  19.228  28.569  10.967
18303W        W90728  42.471  38.425  14.486
18304W        W90729   6.307  38.576  11.963
18305W        W90730  26.780  22.087  12.221
18306W        W90731  19.162   0.550  10.640
18307W        W90732  21.772  14.103  13.731
18308W        W90733  29.138  27.168   3.327
18309W        W90734  26.573  17.546  11.357
18310W        W90735  13.082  20.209  11.142
18311W        W90736   2.459  44.901   2.736
18312W        W90737   6.286  24.488   4.604
18313W        W90738  35.063  43.428  12.065
18314W        W90739   2.112  43.917   0.245
18315W        W90740  44.230  10.400  11.199
18316W        W90741  17.360  15.548   1.344
18317W        W90742  41.814  10.563  14.784
18318W        W90743  15.200   2.809   0.895
18319W        W90744  18.987   9.774   4.646
18320W        W90745  18.961  29.750   4.537
18321W        W90746  34.179  28.129   2.455
18322W        W90747  29.381  30.442   0.838
18323W        W90748  30.232  24.699  11.112
18324W        W90749  13.685   8.597  14.004
18325W        W90750  33.779  15.789  13.443
18326W        W90751  15.349  27.933   3.746
18327W        W90752   2.688  34.832  14.352
18328W        W90753  22.489  33.115  10.611
18329W        W90754  21.574   0.780   0.934
18330W        W90755  17.816  26.289  12.416
18331W        W90756  41.103  15.574  14.827
18332W        W90757  44.522  17.655   3.467
18333W        W90758  33.640  13.624   3.830
18334W        W90759  13.593  29.598  13.523
18335W        W90760  15.310  37.337  10.655
18336W        W90761  16.806  10.628   1.896
18337W        W90762  16.357  19.530   1.716
18338W        W90763  25.885  19.636  11.549
18339W        W90764   4.864  10.224  10.700
18340W        W90765  12.665  40.121  10.964
18341W        W90766  40.522  17.813   0.893
18342W        W90767  37.098   2.184  11.308
18343W        W90768  37.870  14.654   0.836
18344W        W90769  22.228  23.272   2.822
18345W        W90770  39.386  40.129  12.468
18346W        W90771  29.982  36.287  14.432
18347W        W90772  27.751  36.384   0.484
18348W        W90773  39.973  38.786   0.859
18349W        W90774  15.906  41.860  11.936
18350W        W90775  30.455  28.595   4.017
18351W        W90776  23.926  14.597   0.964
18352W        W90777  43.869   3.974  13.025
18353W        W90778  38.809   1.317   4.091
18354W        W90779   3.321   3.007   0.945
18355W        W90780  42.535   5.730  14.998
18356W        W90781  29.149  10.675  10.702
18357W        W90782  18.594  39.241   4.891
18358W        W90783  15.150   9.596  14.041
18359W        W90784  21.513  16.103   1.319
18360W        W90785   5.686  14.728   2.692
18361W        W90786  31.526   8.809  12.524
18362W        W90787  10.829  24.005   2.949
18363W        W90788  30.832  31.381   2.477
18364W        W90789   2.342  18.623  10.371
18365W        W90790  35.039  44.607  11.276
18366W        W90791   9.415  10.349   1.255
18367W        W90792  39.947  13.095   1.149
18368W        W90793  44.845  19.584  12.952
18369W        W90794   7.791  20.297  14.712
18370W        W90795   1.231  44.675  12.122
18371W        W90796  41.502   4.456  10.669
18372W        W90797   8.063  34.710   2.156
18373W        W90798  32.925   6.118   1.948
18374W        W90799  22.966  23.231  14.230
18375W        W90800  29.409  33.340   4.045
18376W        W90801   8.353  29.612  11.521
18377W        W90802  34.889  37.964  13.068
18378W        W90803  30.330  39.778   4.501
18379W        W90804  31.949   0.056  12.026
18380W        W90805   2.885   2.343   1.475
18381W        W90806  21.725   4.230   3.723
18382W        W90807  40.037  37.301   2.441
18383W        W90808  35.427   9.070  12.014
18384W        W90809  29.556   1.949   0.455
18385W        W90810  41.954  20.551  11.164
18386W        W90811  38.249  30.454   0.809
18387W        W90812  21.925  36.119  14.841
18388W        W90813  21.201  18.391   0.375
18389W        W90814  41.673  15.868  11.443
18390W        W90815  36.668  10.824  14.468
18391W        W90816  33.346   2.931   2.139
18392W        W90817  22.606  34.478   0.455
18393W        W90818   5.903   9.891  11.500
18394W        W90819   2.034  18.017  10.579
18395W        W90820  35.172  30.904   2.363
18396W        W90821  11.607  16.863  11.928
18397W        W90822  26.241  27.017   2.664
18398W        W90823  41.392   0.512   2.879
18399W        W90824  24.147   6.344   1.002
18400W        W90825  19.107  27.038  12.095
18401W        W90826  14.797  27.276  13.051
18402W        W90827  39.459  39.392   0.755
18403W        W90828  16.226  36.579   1.642
18404W        W90829  25.852   2.343   1.610
18405W        W90830  43.813   0.330   2.318
18406W        W90831  39.000  34.888  14.513
18407W        W90832  28.568  20.736  14.320
18408W        W90833  34.597  44.964   4.846
18409W        W90834  36.927  15.598   3.171
18410W        W90835  19.373  43.875  11.127
18411W        W90836  19.598  18.706   2.820
18412W        W90837   7.899  40.569  14.382
18413W        W90838  27.609   8.629   3.702
18414W        W90839   1.736  29.936   4.228
18415W        W90840  27.072  34.840  11.096
18416W        W90841  27.882  11.690  11.633
18417W        W90842  37.944  13.666   3.819
18418W        W90843  34.682   6.630   0.233
18419W        W90844  31.105  24.148  10.622
18420W        W90845  26.249  42.217   1.829
18421W        W90846  37.353  43.536   5.089
18422W        W90847  40.988  13.881  11.521
18423W        W90848  42.149  14.742   2.131
18424W        W90849  11.109   0.182   3.167
18425W        W90850  13.811  38.882  14.438
18426W        W90851  21.510  38.919  10.303
18427W        W90852  13.510  41.210  12.958
18428W        W90853   6.673  13.053  13.059
18429W        W90854  11.651  23.543   1.339
18430W        W90855  24.551  44.569   3.228
18431W        W90856  26.924  40.385  14.382
18432W        W90857  11.102  43.882  10.698
18433W        W90858  13.451  39.816   4.211
18434W        W90859  34.874   5.756   3.650
18435W        W90860  19.851  35.062  11.130
18436W        W90861   9.190  24.179   4.372
18437W        W90862   8.597  36.977   0.921
18438W        W90863  34.389  14.677  11.644
18439W        W90864  42.377  12.863  12.671
18440W        W90865  27.030  34.396  13.890
18441W        W90866  32.588  31.182  12.552
18442W        W90867  15.285   8.793  11.986
18443W        W90868   0.809  22.632  12.742
18444W        W90869  12.623   1.869   1.063
18445W        W90870  40.496  42.418   4.526
18446W        W90871  23.230   2.744   4.547
18447W        W90872   2.641  14.571   0.773
18448W        W90873  29.112  10.452  14.814
18449W        W90874  32.940  32.919   0.697
18450W        W90875  22.817  17.025   3.266
18451W        W90876  30.457   3.236  13.095
18452W        W90877   2.696   5.392   2.606
18453W        W90878   3.290   0.935  13.181
18454W        W90879  23.667  43.463  11.032
18455W        W90880   5.168   5.734   3.996
18456W        W90881  36.447  30.989   2.745
18457W        W90882  41.855  13.354   0.183
18458W        W90883  43.818  20.147  14.543
18459W        W90884  25.126  10.575  13.092
18460W        W90885  19.218  39.194   0.361
18461W        W90886  22.968   0.395  10.477
18462W        W90887  22.415  43.926  10.712
18463W        W90888   8.539  22.705  11.801
18464W        W90889  25.197  11.348   3.341
18465W        W90890  42.852  18.162   1.822
18466W        W90891   1.865  28.515   4.285
18467W        W90892  37.572  33.091  12.328
18468W        W90893  39.779  22.154   2.702
18469W        W90894  24.704  20.554  11.116
18470W        W90895   3.079  35.981  12.615
18471W        W90896  43.859  41.290  12.033
18472W        W90897   5.943  19.053   1.893
18473W        W90898  28.902  25.218   1.301
18474W        W90899  16.412  21.156  12.854
18475W        W90900  25.833   5.143   3.807
18476W        W90901   5.475  32.478   3.189
18477W        W90902  28.046  15.776  10.006
18478W        W90903  13.157  36.060   2.755
18479W        W90904  36.842   0.367  14.404
18480W        W90905  44.376  27.625  11.051
18481W        W90906  41.989  30.565   4.597
18482W        W90907  18.293  32.501  11.694
18483W        W90908  14.241   4.820   2.803
18484W        W90909  33.695  40.114   2.800
18485W        W90910  19.030  35.784  12.479
18486W        W90911  10.625  42.393  12.359
18487W        W90912   1.268   9.580   2.071
18488W        W90913  10.624  12.835   5.059
18489W        W90914  41.716  33.644  13.443
18490W        W90915  19.313  18.163   0.700
18491W        W90916  27.148   6.338  11.573
18492W        W90917   2.428  39.583   1.872
18493W        W90918  30.645  27.916  14.452
18494W        W90919  44.493  18.556   3.658
18495W        W90920  12.182   8.439  13.594
18496W        W90921  43.688  31.482   1.398
18497W        W90922  23.800  38.549  11.993
18498W        W90923   8.451  25.947  13.922
18499W        W90924  23.210  17.002  10.581
18500W        W90925  18.917   7.263  10.837
18501W        W90926  40.687  24.146  14.947
18502W        W90927  23.155   8.201  10.791
18503W        W90928  42.519  36.629   0.880
18504W        W90929  37.944  24.722  12.142
18505W        W90930  25.142   6.832   1.758
18506W        W90931  12.036  41.763   2.009
18507W        W90932  43.257   8.771  12.182
18508W        W90933   4.909  24.267   1.694
18509W        W90934  19.438   1.060  14.821
18510W        W90935  15.181   8.652   0.049
18511W        W90936  20.051  23.907  12.959
18512W        W90937  25.487   9.373   0.366
18513W        W90938  32.476   6.308   3.170
18514W        W90939   3.476  39.846   1.826
18515W        W90940  29.183  13.240   1.341
18516W        W90941  22.499  11.825   2.155
18517W        W90942  26.713  31.903  10.187
18518W        W90943  42.857   8.338  14.504
18519W        W90944  12.072  13.648  12.563
18520W        W90945  16.870   8.717  11.547
18521W        W90946  34.253  33.063   2.281
18522W        W90947  19.797  21.292  10.541
18523W        W90948  40.166  22.264   1.242
18524W        W90949   3.526   5.992  13.507
18525W        W90950   1.480  13.552   4.189
18526W        W90951  31.105   7.260   4.150
18527W        W90952   1.117  36.320   3.972
18528W        W90953  42.936   7.271   0.584
18529W        W90954  17.128   0.341   4.600
18530W        W90955   6.721  22.169   0.809
18531W        W90956  41.138  44.934   2.760
18532W        W90957  11.264  33.413   2.948
18533W        W90958   5.371   3.479   1.697
18534W        W90959  24.024   3.657   1.449
18535W        W90960  40.810   5.687  14.856
18536W        W90961  33.706   7.319   0.556
18537W        W90962  38.426  24.723   2.781
18538W        W90963   0.717  44.427   2.838
18539W        W90964  25.267  23.011  14.633
18540W        W90965   9.834   5.255   2.221
18541W        W90966   7.115  13.341  14.337
18542W        W90967  36.904  44.021   3.692
18543W        W90968  26.901   7.204   4.336
18544W        W90969   6.428  44.839   1.737
18545W        W90970  27.703  39.274  12.509
18546W        W90971  15.585  12.560  10.276
18547W        W90972   4.563   3.375  13.398
18548W        W90973  11.200  34.365  13.314
18549W        W90974   8.162  25.755  14.834
18550W        W90975  12.179   7.826   3.717
18551W        W90976  23.074   8.109  14.445
18552W        W90977   9.197   7.629  14.316
18553W        W90978  44.304  17.594  10.517
18554W        W90979  42.659  19.605  10.817
18555W        W90980  21.503   5.113   2.213
18556W        W90981  11.330  22.154  12.812
18557W        W90982  14.685  33.890   4.308
18558W        W90983  18.786  15.554   4.590
18559W        W90984  17.780  39.752  11.095
18560W        W90985  21.067  35.509  11.456
18561W        W90986  41.365  26.026  12.345
18562W        W90987  32.990   8.157  14.884
18563W        W90988   0.068  17.252   3.798
18564W        W90989   8.788  41.495  13.269
18565W        W90990  12.769  14.192  10.590
18566W        W90991  13.157  15.817   4.203
18567W        W90992   6.195  35.055  10.700
18568W        W90993   2.351  19.077   0.285
18569W        W90994  36.928  14.210  11.941
18570W        W90995  10.240  13.858  12.021
18571W        W90996  17.692   3.752  12.574
18572W        W90997  13.213  35.551  10.617
18573W        W90998  24.784  11.690   5.093
18574W        W90999  24.481  29.583   1.822
18575W        W91000  21.332  38.487   3.851
18576W        W91001  36.374  29.098   2.811
18577W        W91002  16.816   6.139   3.781
18578W        W91003  13.627  17.886   3.251
18579W        W91004  43.746  35.491  10.622
18580W        W91005   3.304  34.120  14.743
18581W        W91006  28.884  27.129  12.557
18582W        W91007  24.207   4.303   0.315
18583W        W91008   2.233  43.369  12.982
18584W        W91009  34.981  34.561   0.784
18585W        W91010  26.488  42.968  14.380
18586W        W91011   6.680  44.788   2.274
18587W        W91012  22.754  20.752  11.182
18588W        W91013  39.265   9.795  10.426
18589W        W91014  12.876  25.220  10.695
18590W        W91015  40.053  22.453   2.330
18591W        W91016  19.662  35.015   4.594
18592W        W91017  36.511  44.210   4.193
18593W        W91018   2.236  15.286   3.259
18594W        W91019  35.955   3.469   2.307
18595W        W91020  26.099  44.173   1.034
18596W        W91021  40.115  44.761  14.907
18597W        W91022  26.634  33.937   1.639
18598W        W91023  18.596  11.623  13.329
18599W        W91024   9.131  34.393   1.762
18600W        W91025  26.932  26.571  11.658
18601W        W91026   3.888  18.775   2.243
18602W        W91027   1.776   2.409  12.303
18603W        W91028   5.436   5.844  13.974
18604W        W91029  24.343  11.938   4.856
18605W        W91030  18.514  44.728   2.753
18606W        W91031  33.402  21.496  14.929
18607W        W91032  19.132  35.598  12.013
18608W        W91033  22.041  35.301  14.335
18609W        W91034  13.092  28.499   3.420
18610W        W91035   1.416  37.321   1.432
18611W        W91036  25.207  22.742  12.880
18612W        W91037  19.623  40.912  14.625
18613W        W91038  40.969  33.117   4.672
18614W        W91039   1.934  22.000   3.733
18615W        W91040  10.292  21.390   1.671
18616W        W91041  31.094   5.828   0.635
18617W        W91042  26.014  25.734   1.363
18618W        W91043  31.455  24.604  12.936
18619W        W91044  44.756   1.325   3.807
18620W        W91045   4.920  35.042  12.964
18621W        W91046  16.351  30.435   3.094
18622W        W91047  34.454   9.009   1.732
18623W        W91048   6.262  11.272  14.445
18624W        W91049  24.988  12.048   2.813
18625W        W91050  18.131  17.671   0.475
18626W        W91051  25.526  19.830   3.243
18627W        W91052  27.730  20.552   3.163
18628W        W91053  23.543  41.698   3.526
18629W        W91054  32.674  21.621  13.099
18630W        W91055   1.708  10.938  14.355
18631W        W91056  33.226  15.293  11.965
18632W        W91057  34.661   0.848  14.567
18633W        W91058  28.523  41.501   4.746
18634W        W91059  14.780  22.070   2.648
18635W        W91060   4.431  22.180  13.052
18636W        W91061   4.789   5.998   9.942
18637W        W91062  42.985   1.078  14.578
18638W        W91063   8.684  42.715   3.264
18639W        W91064  37.082  14.652  11.180
18640W        W91065  34.453  14.329   0.932
18641W        W91066  22.527  35.563   1.779
18642W        W91067  15.658  34.048   4.914
18643W        W91068  28.727   9.091   1.747
18644W        W91069  21.988  22.294   4.162
18645W        W91070  22.734  10.388   5.052
18646W        W91071  37.511  20.548   4.438
18647W        W91072  42.748  34.979  14.361
18648W        W91073  21.972  13.322  13.309
18649W        W91074  17.240  39.918  13.859
18650W        W91075  35.081  29.080   4.648
18651W        W91076   7.401  24.949  14.888
18652W        W91077   2.009  13.259   3.028
18653W        W91078  10.807  18.387   0.990
18654W        W91079  35.831  36.771  14.832
18655W        W91080  19.844  43.607  11.163
18656W        W91081   7.275  36.610  11.226
18657W        W91082   4.890  13.779  11.894
18658W        W91083  42.248  24.241  13.339
18659W        W91084  38.370  44.454   0.914
18660W        W91085  29.133  14.009   0.623
18661W        W91086  29.010  39.684  14.517
18662W        W91087  15.641  23.139   1.936
18663W        W91088  28.129  32.298   5.110
18664W        W91089  27.750   6.446   0.240
18665W        W91090   4.000  13.881   3.529
18666W        W91091  15.832   1.486   9.552
18667W        W91092  23.527  36.095   3.608
18668W        W91093  34.438  27.677   2.486
18669W        W91094  23.523   4.654  11.472
18670W        W91095  11.018  10.912   0.902
18671W        W91096  10.198   3.111  14.821
18672W        W91097   0.866  26.072   1.741
18673W        W91098   8.120  32.467  12.976
18674W        W91099   2.640  40.042  11.210
18675W        W91100  19.545  21.850  11.562
18676W        W91101  10.282  36.467   0.362
18677W        W91102  20.647  15.196  10.583
18678W        W91103  11.543  10.250  12.813
18679W        W91104  34.373  38.756   4.667
18680W        W91105  30.389  20.474  12.204
18681W        W91106  33.422  41.716  11.729
18682W        W91107  42.327  13.571  11.074
18683W        W91108  27.682   3.460   2.374
18684W        W91109  14.503  10.094  12.379
18685W        W91110  11.397  35.912  13.629
18686W        W91111  37.765  28.837  11.035
18687W        W91112  38.970   0.367  13.368
18688W        W91113  22.027  36.851   4.768
18689W        W91114  16.990   9.146   4.884
18690W        W91115   7.090  38.916  12.445
18691W        W91116   5.337  39.035   1.671
18692W        W91117  17.463  21.778  12.540
18693W        W91118  12.790  25.969  14.647
18694W        W91119   8.218  13.735   1.305
18695W        W91120  44.360   9.824  10.609
18696W        W91121  23.610   3.724   1.738
18697W        W91122   8.775  24.774  12.597
18698W        W91123  32.424  31.481  13.805
18699W        W91124  31.130  10.365   3.473
18700W        W91125  30.243  42.882   4.503
18701W        W91126  13.549  32.917  13.505
18702W        W91127  14.773  33.401  10.299
18703W        W91128  14.196  34.046  13.839
18704W        W91129   7.324  11.684  14.747
18705W        W91130   9.276   3.495   2.802
18706W        W91131  19.995  12.116  12.887
18707W        W91132  10.764   2.783   1.763
18708W        W91133  34.547  23.773   4.167
18709W        W91134  44.962  29.592   1.653
18710W        W91135  20.189  19.749  10.335
18711W        W91136  31.408  41.316  12.565
18712W        W91137  32.032  38.747   4.056
18713W        W91138   4.211  35.494   3.925
18714W        W91139  16.878   0.972   5.010
18715W        W91140   7.706   7.771   3.808
18716W        W91141  40.559  10.053   4.114
18717W        W91142  35.196  18.723  11.720
18718W        W91143  20.954  39.657  12.952
18719W        W91144   6.301  15.927   4.316
18720W        W91145  18.488   8.265   9.727
18721W        W91146  12.011  43.312  12.550
18722W        W91147   4.789  32.097   4.539
18723W        W91148  40.936  20.819  14.439
18724W        W91149  34.577  17.746   2.816
18725W        W91150  14.181  41.961  14.835
18726W        W91151  42.739  12.248   0.913
18727W        W91152   0.062  35.888  12.450
18728W        W91153  39.367  10.866  12.837
18729W        W91154  30.619  19.655   1.411
18730W        W91155  15.112  14.130  10.959
18731W        W91156  10.907  32.612  12.614
18732W        W91157   0.898  44.730  10.767
18733W        W91158   3.269  18.729   4.202
18734W        W91159  17.678   7.838   3.107
18735W        W91160  33.113  14.062   3.169
18736W        W91161  36.740  36.276   1.913
18737W        W91162   9.430  10.070  12.579
18738W        W91163   3.891  41.898  11.115
18739W        W91164  18.542  13.252  10.817
18740W        W91165  39.628  31.622   1.881
18741W        W91166   7.452  11.763   3.102
18742W        W91167  35.288  27.865   4.271
18743W        W91168  24.502  43.509   0.852
18744W        W91169  43.299  18.093  14.498
18745W        W91170  37.574   7.439  13.375
18746W        W91171  38.232  41.864  12.984
18747W        W91172   4.736  27.664  13.784
18748W        W91173  44.915  23.856   2.416
18749W        W91174  19.653  21.300   4.534
18750W        W91175  38.921  17.494  11.215
18751W        W91176  14.111  36.109  14.984
18752W        W91177  16.791   2.213  14.386
18753W        W91178  27.242   9.335  12.011
18754W        W91179  39.800  37.444  11.950
18755W        W91180  20.104  16.875   0.656
18756W        W91181  30.523   9.367   4.379
18757W        W91182  11.351  16.539   3.687
18758W        W91183  33.188   8.228   1.203
18759W        W91184  26.482  35.793   1.077
18760W        W91185  13.119   6.370   1.038
18761W        W91186  19.701  38.043  13.998
18762W        W91187   5.750  20.313   4.576
18763W        W91188  20.603  41.970   2.897
18764W        W91189  14.205  43.522  12.658
18765W        W91190  29.597   9.832   1.993
18766W        W91191  14.785  33.612  14.905
18767W        W91192  29.181  20.666   0.600
18768W        W91193  27.991  12.372   1.389
18769W        W91194  10.411   7.726   0.174
18770W        W91195  26.666  37.436   3.455
18771W        W91196  40.440  20.296   3.686
18772W        W91197  16.311  26.501  11.388
18773W        W91198  10.243  11.809  13.328
18774W        W91199  44.778  20.158  12.354
18775W        W91200  41.472   3.252   3.289
18776W        W91201   4.916   5.407   4.576
18777W        W91202  39.346  16.698   3.660
18778W        W91203  19.744  20.807  12.571
18779W        W91204   2.518  26.249   1.088
18780W        W91205  38.346  36.546   0.809
18781W        W91206   2.085  11.544  11.522
18782W        W91207  30.473  25.414  14.277
18783W        W91208  19.499  26.238   2.143
18784W        W91209  24.303  37.765  11.578
18785W        W91210  26.793  23.692   3.648
18786W        W91211   5.065   4.237  13.198
18787W        W91212   4.282  31.793   0.024
18788W        W91213   9.321  28.583  14.926
18789W        W91214  11.120   9.262  12.968
18790W        W91215  22.062   8.492   0.501
18791W        W91216   6.975   7.304  10.399
18792W        W91217  37.840  34.032   2.172
18793W        W91218   8.839  37.845   2.441
18794W        W91219  26.602   4.534  11.530
18795W        W91220  32.911  13.522   1.248
18796W        W91221  31.823   1.733  10.795
18797W        W91222  38.240  23.459  12.915
18798W        W91223  32.302  17.706  11.993
18799W        W91224  35.063   6.242   3.698
18800W        W91225   0.330  40.425   0.450
18801W        W91226  31.653  28.615  13.757
18802W        W91227  39.091  34.087   1.263
18803W        W91228  42.384  41.141   2.261
18804W        W91229  41.489   0.052   3.116
18805W        W91230  23.131  19.765  13.839
18806W        W91231  27.134  10.919  14.530
18807W        W91232  38.799  26.527   4.572
18808W        W91233   5.203  44.689  10.766
18809W        W91234  17.557   1.929   4.518
18810W        W91235  39.071  16.862  12.196
18811W        W91236  37.072  23.264   0.041
18812W        W91237  33.093  18.070   1.010
18813W        W91238  12.314  20.358   1.676
18814W        W91239  44.933  19.560  12.426
18815W        W91240  30.505  24.955   3.468
18816W        W91241  16.073  22.580   4.121
18817W        W91242  36.481  19.131   0.972
18818W        W91243   3.835  31.011  14.853
18819W        W91244   1.879  17.632   1.269
18820W        W91245  35.229  31.897  11.988
18821W        W91246  16.371  25.195   3.251
18822W        W91247  20.453  43.011  13.955
18823W        W91248  11.786  24.719  13.977
18824W        W91249  34.678  44.156  11.650
18825W        W91250  41.356   7.741  12.617
18826W        W91251   2.931   2.980  11.545
18827W        W91252  37.381  37.348  14.391
18828W        W91253  35.849   2.174   2.819
18829W        W91254  17.098  14.320   3.296
18830W        W91255  40.143  34.155  12.540
18831W        W91256  26.442  32.083  13.862
18832W        W91257  27.544  11.179  12.772
18833W        W91258  28.490  17.653  11.992
18834W        W91259  42.253  30.482   0.758
18835W        W91260  34.644   1.230  10.481
18836W        W91261  11.367  33.038  13.978
18837W        W91262  33.603  18.096  13.846
18838W        W91263  35.981   0.436  14.157
18839W        W91264  17.279  31.223   0.154
18840W        W91265  11.150  21.280   0.339
18841W        W91266  37.891  42.037  13.784
18842W        W91267  11.578  44.080  13.659
18843W        W91268  18.546   4.753   5.244
18844W        W91269  30.669   6.875  11.136
18845W        W91270  36.169   4.926  12.327
18846W        W91271  13.904  33.655  14.284
18847W        W91272  30.141   0.853   1.228
18848W        W91273  16.506   1.939  10.743
18849W        W91274  22.724  11.114  13.000
18850W        W91275  25.130  23.973   2.230
18851W        W91276  34.893   3.415   4.700
18852W        W91277  42.624  40.085  13.948
18853W        W91278  24.464  38.642  13.022
18854W        W91279  24.396   6.951   3.712
18855W        W91280   1.391  24.139  12.361
18856W        W91281  11.233  20.576   2.136
18857W        W91282  30.083  12.634   3.245
18858W        W91283  38.304   9.885  12.678
18859W        W91284  16.834   2.635  13.835
18860W        W91285  12.323  41.944  14.331
18861W        W91286  44.166  19.225   1.254
18862W        W91287  20.769  41.286   3.642
18863W        W91288  28.231  36.975   0.520
18864W        W91289  14.553  12.677   4.198
18865W        W91290   3.308  19.212  13.246
18866W        W91291  35.015  39.399   4.767
18867W        W91292  35.078   3.664  13.871
18868W        W91293  26.708   7.166  12.095
18869W        W91294   2.434  16.123   0.953
18870W        W91295  15.357  21.239  11.721
18871W        W91296  20.203  40.000  12.050
18872W        W91297  22.517  31.432  13.278
18873W        W91298  29.063  44.945  10.466
18874W        W91299  36.545  12.667  12.497
18875W        W91300  42.745  41.742  11.495
18876W        W91301   5.487  38.746   2.512
18877W        W91302  31.539  26.263  11.014
18878W        W91303  18.759   0.295  14.456
18879W        W91304  33.003  10.315   2.403
18880W        W91305  32.561  19.618   1.231
18881W        W91306  16.598  37.215  13.056
18882W        W91307  36.872  24.480  13.882
18883W        W91308  27.299  15.502  13.427
18884W        W91309  41.981   4.332  11.564
18885W        W91310   5.162  34.599  13.010
18886W        W91311  35.940  42.372   3.659
18887W        W91312  26.668  36.407   0.713
18888W        W91313  25.454   2.941   3.286
18889W        W91314  25.748   1.897  14.956
18890W        W91315   6.386  25.555   0.858
18891W        W91316  30.498  29.960  10.711
18892W        W91317  14.019   0.020  14.485
18893W        W91318  41.445  17.181   0.252
18894W        W91319  20.606   1.257  12.027
18895W        W91320   7.655  43.451  12.050
18896W        W91321   1.575   3.292   5.232
18897W        W91322  37.615   5.159   3.131
18898W        W91323  21.070  23.393  14.876
18899W        W91324   7.686  41.065   4.039
18900W        W91325  39.979  43.373   1.388
18901W        W91326   3.653  43.761  14.330
18902W        W91327   2.148  20.132   2.829
18903W        W91328  40.354  14.027   2.846
18904W        W91329   7.282  30.435  11.935
18905W        W91330   4.323   9.849   1.808
18906W        W91331  10.888  43.775   0.367
18907W        W91332  31.928   3.852  14.374
18908W        W91333  42.162  27.199   3.223
18909W        W91334  36.857  39.422   0.231
18910W        W91335   4.644  32.970   2.756
18911W        W91336   3.385   9.510   1.391
18912W        W91337  44.866  31.945   1.121
18913W        W91338  12.422  17.288  13.973
18914W        W91339  14.036  29.969   0.823
18915W        W91340  44.547  31.727   2.594
18916W        W91341  41.535  31.692  14.795
18917W        W91342  17.568  40.937   0.018
18918W        W91343  26.457  15.057  12.453
18919W        W91344  39.038  26.669  10.940
18920W        W91345  11.021  22.032   4.175
18921W        W91346  20.103  43.448  11.635
18922W        W91347  36.049  37.322   1.406
18923W        W91348   1.984  12.430  14.933
18924W        W91349  42.144  20.988   2.417
18925W        W91350  31.362  17.459   4.112
18926W        W91351  32.135   2.443   0.712
18927W        W91352  28.694  22.598   4.296
18928W        W91353  27.696  41.858  14.109
18929W        W91354   5.832  16.382   0.766
18930W        W91355  16.358  40.793  13.510
18931W        W91356  36.994  21.606   2.826
18932W        W91357  44.187  27.548   4.715
18933W        W91358  30.140  17.840   1.329
18934W        W91359  33.944   9.234   1.876
18935W        W91360   7.578  37.599  14.416
18936W        W91361   1.086  11.571  14.419
18937W        W91362  28.987  13.123   0.427
18938W        W91363  11.940  10.686  11.597
18939W        W91364  14.114  22.098   0.259
18940W        W91365  13.834  31.858  14.770
18941W        W91366  14.740  39.784   0.195
18942W        W91367  17.173  24.112   3.676
18943W        W91368  24.352  39.143   0.036
18944W        W91369   5.767   9.907  10.650
18945W        W91370  41.998  22.543   3.073
18946W        W91371  11.141  30.677   4.610
18947W        W91372  25.561  43.855  11.990
18948W        W91373   7.834  17.547   1.437
18949W        W91374  23.954   0.727  13.423
18950W        W91375  10.267  19.726  14.353
18951W        W91376   7.494  37.681   4.166
18952W        W91377  14.733  23.989  14.976
18953W        W91378  25.523  24.963   1.228
18954W        W91379  22.509  34.105   2.066
18955W        W91380  35.943   0.719  13.291
18956W        W91381  44.803  10.596   2.235
18957W        W91382  32.560   4.861  12.399
18958W        W91383  18.548  27.982   0.239
18959W        W91384  43.275   1.508   2.242
18960W        W91385  22.581   1.186   2.894
18961W        W91386  30.916  29.041   2.712
18962W        W91387  36.454  17.336  13.864
18963W        W91388  26.166  28.546   1.513
18964W        W91389  39.078   2.403  13.948
18965W        W91390   7.762   0.865  12.978
18966W        W91391  24.417  24.110  13.621
18967W        W91392  27.557   7.450  13.461
18968W        W91393  23.461  31.511  11.626
18969W        W91394   2.132  13.742  11.093
18970W        W91395   2.447  37.342   2.769
18971W        W91396  43.137  39.206  12.672
18972W        W91397   8.858  13.794  12.977
18973W        W91398  27.192  24.556   2.008
18974W        W91399  44.298  34.744  11.503
18975W        W91400   7.274  12.923   2.861
18976W        W91401  26.667  34.706   2.213
18977W        W91402  20.239  27.666   4.653
18978W        W91403   5.205  20.708   4.006
18979W        W91404   5.707  44.314   3.783
18980W        W91405   6.273  27.102  14.348
18981W        W91406  36.350  24.976  14.928
18982W        W91407   2.518  25.712   3.219
18983W        W91408   0.712  34.965  12.978
18984W        W91409  26.478  38.963  14.752
18985W        W91410  13.663  43.240   0.156
18986W        W91411  27.426  24.050   2.767
18987W        W91412   4.389   8.243   1.591
18988W        W91413  44.009  40.647   3.316
18989W        W91414  36.533  15.609   3.711
18990W        W91415  18.263  38.613   3.269
18991W        W91416  38.557  32.450   0.245
18992W        W91417  30.557  32.774   2.208
18993W        W91418  13.085   5.412   4.150
18994W        W91419  32.496  32.678   0.382
18995W        W91420  43.723  14.090   0.023
18996W        W91421  16.664  17.855   1.334
18997W        W91422  19.250  20.022   3.188
18998W        W91423  17.924  11.214  12.865
18999W        W91424  25.935  31.033   1.627
19000W        W91425  44.966  37.059  11.126
19001W        W91426  23.545   0.625  14.290
19002W        W91427  18.010   1.161  12.225
19003W        W91428  37.494   8.378  11.548
19004W        W91429  42.386  24.806  11.845
19005W        W91430  36.408  25.046   0.762
19006W        W91431  14.340  22.058  14.336
19007W        W91432  25.265  11.659  11.822
19008W        W91433  15.693   5.953  10.163
19009W        W91434  43.247  18.700  11.534
19010W        W91435   0.237   6.182   2.333
19011W        W91436  10.246   4.807  14.919
19012W        W91437   7.966  41.028  14.152
19013W        W91438  37.403   3.588  11.227
19014W        W91439  20.559  31.545   3.176
19015W        W91440  31.572  16.170   9.830
19016W        W91441  10.265  19.937  14.820
19017W        W91442  13.841  36.519   3.168
19018W        W91443  30.518  21.774   4.595
19019W        W91444   7.213  43.584   2.785
19020W        W91445   4.818  38.764  10.580
19021W        W91446  32.125  34.456  12.916
19022W        W91447   4.495  13.187  12.151
19023W        W91448  33.587  36.974   3.290
19024W        W91449  43.116   4.211  14.479
19025W        W91450  16.591  42.832   0.420
19026W        W91451   5.874  26.002   4.097
19027W        W91452  17.992  36.823  11.600
19028W        W91453  42.216  18.041  11.191
19029W        W91454  15.729  16.489  12.136
19030W        W91455   4.626  19.428   5.113
19031W        W91456  40.201   1.680  11.942
19032W        W91457  37.417  34.416  12.017
19033W        W91458  20.693   9.848   1.277
19034W        W91459  33.514  33.351  12.530
19035W        W91460   2.031   9.375  14.421
19036W        W91461   2.866  12.853   4.914
19037W        W91462  36.496  40.967   3.180
19038W        W91463  24.742  17.165   0.767
19039W        W91464   8.249  29.112  11.492
19040W        W91465  22.638  24.693  14.985
19041W        W91466  31.583  34.410   4.890
19042W        W91467   7.278  35.923  13.008
19043W        W91468  30.196  22.395  11.086
19044W        W91469  33.663  14.246  10.298
19045W        W91470  42.117  23.875   3.304
19046W        W91471  11.336  31.665   4.667
19047W        W91472  26.066  12.011   3.359
19048W        W91473  26.560  30.654   2.126
19049W        W91474  10.192   3.362   2.735
19050W        W91475  40.939  25.191   4.897
19051W        W91476  19.728  26.877  11.087
19052W        W91477  39.389  26.985   0.776
19053W        W91478  23.520  29.925  14.846
19054W        W91479   0.896  39.724   2.630
19055W        W91480  39.810  15.024   2.367
19056W        W91481   2.400  21.010  14.110
19057W        W91482   3.463  44.363   2.413
19058W        W91483   2.205  14.246   4.458
19059W        W91484   7.318  12.110   1.439
19060W        W91485   6.391  34.545   2.863
19061W        W91486  26.144  42.203   0.430
19062W        W91487   9.764   6.433   3.565
19063W        W91488  10.917  13.337   4.042
19064W        W91489  37.861   9.039  11.912
19065W        W91490   5.343  43.319   0.635
19066W        W91491  40.187  34.855  11.267
19067W        W91492  11.998  40.470   0.249
19068W        W91493  34.402  29.187  10.453
19069W        W91494  25.147  38.039  11.670
19070W        W91495  12.116  23.484  11.037
19071W        W91496   4.744  39.794   0.631
19072W        W91497  44.142  10.196   5.071
19073W        W91498  36.424  21.712  13.386
19074W        W91499  27.690  24.517   2.174
19075W        W91500  34.630  41.977   0.845
19076W        W91501  24.780  24.938   3.396
19077W        W91502  27.912  33.971   3.258
19078W        W91503  42.018  29.570   2.179
19079W        W91504  28.858   6.760   0.852
19080W        W91505  29.162  19.508   2.297
19081W        W91506   7.943  40.440  10.777
19082W        W91507  32.516  33.167   0.529
19083W        W91508  12.202  30.882   2.556
19084W        W91509  16.582  29.966  10.572
19085W        W91510  26.287   3.201   0.103
19086W        W91511   6.226   1.523   0.837
19087W        W91512  29.979  41.228  14.840
19088W        W91513  22.056  27.451  14.808
19089W        W91514  20.303  20.505  10.691
19090W        W91515   4.808   9.638  12.113
19091W        W91516  41.462  18.647   2.590
19092W        W91517  29.675  11.467  14.412
19093W        W91518  30.354  29.105  14.879
19094W        W91519  40.296  33.445  11.264
19095W        W91520  30.481  36.550   0.009
19096W        W91521  16.554  15.632   1.725
19097W        W91522  25.952  29.912  14.100
19098W        W91523  42.102  40.035  14.019
19099W        W91524  11.719  20.772   4.774
19100W        W91525   2.316  25.117  12.659
19101W        W91526  14.137  43.378   1.025
19102W        W91527   5.867  16.911  13.810
19103W        W91528   4.435  39.367  11.179
19104W        W91529  28.077   4.967   1.730
19105W        W91530  24.152   9.843  12.666
19106W        W91531  41.047  32.007  13.938
19107W        W91532  36.875  25.511  12.106
19108W        W91533  22.735  16.689  11.662
19109W        W91534  44.080  27.567  11.468
19110W        W91535   1.375  19.846  10.538
19111W        W91536   8.846  33.161   1.709
19112W        W91537  35.550  11.571   1.871
19113W        W91538  20.628  12.823   2.285
19114W        W91539  27.189  41.267   0.253
19115W        W91540   0.291  33.217  11.080
19116W        W91541   0.319   7.454   1.925
19117W        W91542  39.584  16.064  11.224
19118W        W91543  40.964  22.193  14.633
19119W        W91544  37.869   3.143   3.754
19120W        W91545  23.636  25.728  14.936
19121W        W91546  23.568  15.824   2.882
19122W        W91547   2.546  44.299   3.215
19123W        W91548  10.678  43.681  12.824
19124W        W91549   7.939  24.933  14.873
19125W        W91550   1.045   0.891  12.115
19126W        W91551  15.457  26.626  11.221
19127W        W91552  29.653  24.232  14.240
19128W        W91553  12.786  22.779   3.284
19129W        W91554   3.312  30.889  14.929
19130W        W91555   1.837  27.660   1.081
19131W        W91556   5.965  39.313  13.038
19132W        W91557   4.265  40.404  10.833
19133W        W91558  36.398   5.757  14.329
19134W        W91559  40.453  35.702   2.080
19135W        W91560  31.460   1.435  13.859
19136W        W91561   2.835  21.700  14.500
19137W        W91562   5.321  38.828  12.643
19138W        W91563  40.491  40.476  14.394
19139W        W91564  10.238  31.993   1.710
19140W        W91565  27.451   2.520   0.878
19141W        W91566  35.009  43.839   1.311
19142W        W91567  23.613  11.631  10.530
19143W        W91568  31.043  20.579   1.462
19144W        W91569  17.269   6.299   2.086
19145W        W91570  18.153  19.998  13.396
19146W        W91571  13.718  25.930   0.219
19147W        W91572  17.663  29.632   2.447
19148W        W91573  41.333   8.724  11.887
19149W        W91574  14.194  37.758  11.462
19150W        W91575  44.723  18.545  14.690
19151W        W91576  34.507  41.950  14.315
19152W        W91577  26.809  18.690  11.359
19153W        W91578   7.147  34.965  10.685
19154W        W91579  30.737  42.840  14.410
19155W        W91580   7.257  33.359  14.331
19156W        W91581  25.482  11.637  10.727
19157W        W91582  36.410  27.504  12.123
19158W        W91583  39.545  29.072   4.938
19159W        W91584  31.420  35.382  14.838
19160W        W91585   6.279   9.835  13.833
19161W        W91586  34.119  25.510  14.314
19162W        W91587   9.172  10.560  10.453
19163W        W91588  35.365  18.739  11.252
19164W        W91589  29.771  27.173   2.687
19165W        W91590  30.423  37.454  11.604
19166W        W91591  42.277  34.988  12.558
19167W        W91592  17.154   5.369   3.634
19168W        W91593   2.470  43.065   0.068
19169W        W91594  36.654   5.870   0.845
19170W        W91595  19.871  41.394   1.778
19171W        W91596  42.451  42.348  14.469
19172W        W91597  18.210  16.804  11.914
19173W        W91598  21.387  30.155   1.289
19174W        W91599  27.673  10.884   2.726
19175W        W91600  23.617   2.625   0.824
19176W        W91601  32.601   5.378  14.412
19177W        W91602  35.135  11.929   1.869
19178W        W91603  12.725  34.372   2.210
19179W        W91604  16.543  33.003  13.810
19180W        W91605  22.237  38.307  11.010
19181W        W91606  33.520  39.993  12.016
19182W        W91607  27.840  23.095   2.999
19183W        W91608  20.571  27.934   0.216
19184W        W91609  19.490  11.947  13.570
19185W        W91610  25.780  36.618   2.159
19186W        W91611  34.445  43.509  13.361
19187W        W91612  19.472  34.601  12.839
19188W        W91613  34.623  20.285   0.321
19189W        W91614   4.680   4.312   3.357
19190W        W91615  39.028   8.265  12.904
19191W        W91616  26.835  38.382  12.603
19192W        W91617  36.373  29.957  14.010
19193W        W91618  22.227  44.827   3.347
19194W        W91619   8.214  41.559   4.705
19195W        W91620   9.545  42.490  13.435
19196W        W91621   9.206   8.419  11.709
19197W        W91622  10.364  14.489   4.374
19198W        W91623  17.031   0.951   1.318
19199W        W91624  36.638   0.845  11.144
19200W        W91625  10.682  41.056   2.430
19201W        W91626   2.700  24.902  13.403
19202W        W91627  18.784   6.459   4.138
19203W        W91628  36.657  39.066  12.550
19204W        W91629   6.906  22.196  10.809
19205W        W91630  33.490   3.200   1.261
19206W        W91631   0.074  31.566   2.879
19207W        W91632  22.506  11.725  10.671
19208W        W91633  41.248   8.156   0.142
19209W        W91634   4.052  37.834   3.706
19210W        W91635   7.432  27.499   2.241
19211W        W91636  13.687  24.157   2.785
19212W        W91637   9.825  40.928  11.596
19213W        W91638   0.145  28.639   4.587
19214W        W91639  29.169  30.690   4.928
19215W        W91640   4.397   9.916  13.960
19216W        W91641  25.437  12.339  13.853
19217W        W91642   2.745  41.294  14.375
19218W        W91643  20.899  40.486   4.220
19219W        W91644  28.923   8.286  13.558
19220W        W91645  41.485  41.074  14.938
19221W        W91646   2.694  28.545  14.746
19222W        W91647  39.338  30.211   4.176
19223W        W91648  14.797  27.576   4.799
19224W        W91649  29.239  24.068  11.444
19225W        W91650  30.647  40.529  14.435
19226W        W91651   7.706  34.540   1.816
19227W        W91652  34.443   1.818  10.762
19228W        W91653  14.299  39.774   2.808
19229W        W91654  23.658  20.936   2.951
19230W        W91655   9.887  32.152  12.449
19231W        W91656  19.026  38.563  12.479
19232W        W91657  21.767  11.281   3.291
19233W        W91658  36.325  30.136  13.080
19234W        W91659  37.983  26.764   0.893
19235W        W91660  34.536  38.264   2.259
19236W        W91661  16.015  10.167   3.599
19237W        W91662  11.872  29.597   1.399
19238W        W91663  42.132  35.220  11.154
19239W        W91664  44.931  36.204   3.679
19240W        W91665  30.647  10.885   2.280
19241W        W91666  38.331  11.563  11.396
19242W        W91667  22.753  25.199   2.692
19243W        W91668  26.008  26.658   1.935
19244W        W91669   2.231  36.507   1.188
19245W        W91670  28.720   6.630  13.064
19246W        W91671   1.326   4.759  12.864
19247W        W91672  33.070  43.258   3.868
19248W        W91673  15.322  29.085   4.227
19249W        W91674  13.623  20.234  11.050
19250W        W91675   1.544   4.806   2.273
19251W        W91676  14.410   3.232  13.525
19252W        W91677  23.728  40.661  11.693
19253W        W91678  32.573  21.024   1.219
19254W        W91679  11.925  42.806   1.862
19255W        W91680  10.651  34.820  11.510
19256W        W91681  44.235   7.514   3.183
19257W        W91682  32.580  22.814  12.668
19258W        W91683  28.439  41.005   3.823
19259W        W91684  37.929  22.257  13.551
19260W        W91685  25.110   2.736  11.834
19261W        W91686  37.365  14.321  14.402
19262W        W91687  14.533  12.779  13.352
19263W        W91688  25.458  27.695  13.932
19264W        W91689  29.522  10.483   5.123
19265W        W91690  43.851  42.250   0.333
19266W        W91691   3.944   5.547   2.175
19267W        W91692  36.375  28.752  14.937
19268W        W91693   7.311  17.853   4.027
19269W        W91694  28.461  42.249   3.083
19270W        W91695  28.786  41.309  14.472
19271W        W91696  44.483  18.036  12.478
19272W        W91697  29.452  23.617   4.759
19273W        W91698  38.533  38.943   0.786
19274W        W91699  41.792   4.870  11.133
19275W        W91700  36.753  44.994  11.654
19276W        W91701  10.577  31.488   5.119
19277W        W91702  28.001   6.209  11.172
19278W        W91703  10.805  27.634  13.465
19279W        W91704  12.883  20.247   3.888
19280W        W91705  13.970  23.550  10.658
19281W        W91706   3.164  42.276  14.989
19282W        W91707   3.468   7.083  14.506
19283W        W91708  41.780  29.603   3.098
19284W        W91709  28.218  10.682  11.205
19285W        W91710  16.838  31.938   1.350
19286W        W91711  24.499  36.936   4.548
19287W        W91712  12.445   3.627  12.626
19288W        W91713   6.135  11.701   0.429
19289W        W91714   6.098   4.621  13.989
19290W        W91715  16.275  27.622  14.528
19291W        W91716  37.381  27.026   4.044
19292W        W91717  19.073  18.729   2.705
19293W        W91718  10.817   4.404  11.130
19294W        W91719  32.799  36.091   4.713
19295W        W91720  21.935  17.100   1.250
19296W        W91721  39.592   1.491  12.956
19297W        W91722  21.267  36.333  13.489
19298W        W91723  39.979  34.013   1.345
19299W        W91724  44.976  33.376  13.512
19300W        W91725  34.842  36.282  13.774
19301W        W91726  16.527  29.994  13.303
19302W        W91727  33.365  31.347  10.794
19303W        W91728  14.801  28.435   3.722
19304W        W91729  36.086  25.695  13.986
19305W        W91730  15.937  12.233   4.324
19306W        W91731  28.510  22.607   0.764
19307W        W91732  30.194  29.365   3.058
19308W        W91733  14.465  16.242  13.877
19309W        W91734  14.437  28.593  10.696
19310W        W91735  14.086  18.228  14.385
19311W        W91736  29.404  38.910  10.638
19312W        W91737  21.567   1.123   0.148
19313W        W91738   0.492  17.210   4.090
19314W        W91739   6.857  23.184  11.395
19315W        W91740  20.707  31.180  12.862
19316W        W91741  38.429   5.133   1.458
19317W        W91742  31.508   7.793  12.188
19318W        W91743  35.992  20.687   0.063
19319W        W91744  20.970  15.476   0.897
19320W        W91745   3.198  16.741   2.738
19321W        W91746  30.427  23.265   4.069
19322W        W91747  36.599  27.125  12.439
19323W        W91748   1.983  44.019   4.505
19324W        W91749   1.346  18.143  12.063
19325W        W91750   7.058  29.528   4.143
19326W        W91751  31.892  16.377  11.528
19327W        W91752  41.404  25.261  11.806
19328W        W91753  36.038  32.145  13.440
19329W        W91754  28.724  11.515  14.926
19330W        W91755  20.990   7.898   1.730
19331W        W91756  23.600  26.238   2.871
19332W        W91757  17.209   2.489  14.533
19333W        W91758  40.671  13.184   2.650
19334W        W91759  14.492  16.071   1.596
19335W        W91760   4.745   0.247   1.619
19336W        W91761  35.105  16.180   2.953
19337W        W91762  27.831   5.101   3.258
19338W        W91763  19.951  36.168  10.975
19339W        W91764  29.473  28.589   4.306
19340W        W91765  28.487  11.794  13.416
19341W        W91766  10.087  25.233   2.863
19342W        W91767  39.541  30.698  13.979
19343W        W91768  33.852  22.417  13.597
19344W        W91769  33.431  26.743   2.294
19345W        W91770  22.029  33.589   1.308
19346W        W91771  38.037   8.849   1.474
19347W        W91772  16.282  41.298  11.575
19348W        W91773  12.166  31.113   1.617
19349W        W91774   0.599  43.187  11.005
19350W        W91775  39.121  40.258   2.779
19351W        W91776   6.247  23.427  11.122
19352W        W91777  41.286   4.716  12.008
19353W        W91778  25.596  24.206   4.901
19354W        W91779  37.515  42.752  13.988
19355W        W91780  15.131  35.524   4.684
19356W        W91781  23.517  19.806  10.906
19357W        W91782   0.741  37.030   1.940
19358W        W91783  34.305  44.751   0.490
19359W        W91784   1.994   1.073   4.975
19360W        W91785  12.892  24.837   5.140
19361W        W91786  16.941  43.864  11.130
19362W        W91787  40.014  37.946   3.397
19363W        W91788  30.342  37.467   1.962
19364W        W91789  43.921  31.191   0.433
19365W        W91790   0.417  14.380  13.347
19366W        W91791  24.815   2.196   2.986
19367W        W91792  30.017  12.198  12.124
19368W        W91793  14.126  39.115  11.683
19369W        W91794  31.519  11.146  13.480
19370W        W91795   4.850  11.577  10.938
19371W        W91796  26.793  19.776  14.437
19372W        W91797  19.228  11.889   1.786
19373W        W91798  14.798  37.034  12.361
19374W        W91799   6.740  12.973   2.704
19375W        W91800  31.642  25.504  14.911
19376W        W91801  38.618  27.688  11.656
19377W        W91802   8.008  19.458   4.192
19378W        W91803  28.989  36.104   0.631
19379W        W91804  17.355  15.847  11.112
19380W        W91805  26.026  32.442   4.198
19381W        W91806  32.984  34.712   1.212
19382W        W91807  37.837   5.291   1.720
19383W        W91808  27.214  13.796  11.058
19384W        W91809  16.140  39.843   1.375
19385W        W91810   1.695  44.418  12.025
19386W        W91811  22.201  30.550   4.611
19387W        W91812  33.499  13.877  12.066
19388W        W91813  17.132  40.770  14.812
19389W        W91814  18.825  25.588  13.802
19390W        W91815  14.096  40.743   0.091
19391W        W91816  11.831  21.695  12.513
19392W        W91817  15.095  39.534   4.214
19393W        W91818  18.698   4.174   4.927
19394W        W91819  35.027  22.246  13.884
19395W        W91820  31.180  14.827   2.787
19396W        W91821  34.617   1.749  14.082
19397W        W91822  22.638  37.972   0.685
19398W        W91823  17.023   3.798   0.983
19399W        W91824   7.461  36.490  14.753
19400W        W91825  25.502  43.464   0.788
19401W        W91826  41.813  21.166   0.698
19402W        W91827  20.325  30.699   2.206
19403W        W91828   6.627  27.657   3.391
19404W        W91829  15.720  21.340  13.319
19405W        W91830  35.390  29.197  10.837
19406W        W91831  29.751  32.107   1.239
19407W        W91832  21.152   4.253   4.625
19408W        W91833  13.809  18.456  12.442
19409W        W91834   4.264  43.433   1.264
19410W        W91835  30.653   4.643   1.732
19411W        W91836  17.803  43.923   2.750
19412W        W91837   1.689  38.400  14.590
19413W        W91838   7.779  37.859  13.151
19414W        W91839  25.209   9.865  14.758
19415W        W91840  27.504  26.949  14.836
19416W        W91841   1.984   6.441  12.106
19417W        W91842  12.250  33.689  14.240
19418W        W91843  16.692   0.528   0.923
19419W        W91844  36.288   9.152  12.957
19420W        W91845   3.447  38.165  12.687
19421W        W91846  21.886  13.806   0.385
19422W        W91847  38.586  43.835   2.325
19423W        W91848  43.422  39.132  13.813
19424W        W91849  26.065  32.452   3.381
19425W        W91850  43.349  15.373   0.886
19426W        W91851  31.388  18.634   2.506
19427W        W91852  42.934  22.264   1.285
19428W        W91853  35.230  34.141   4.548
19429W        W91854  27.663  16.307  10.684
19430W        W91855  19.296   6.329  11.906
19431W        W91856  24.953  14.547   3.795
19432W        W91857  23.132  20.716  12.919
19433W        W91858  33.112  15.610  11.124
19434W        W91859   3.271  16.559   4.150
19435W        W91860  41.583  44.886   1.726
19436W        W91861  13.863   6.451  12.397
19437W        W91862  32.532  32.653   2.701
19438W        W91863  18.607  23.756   0.777
19439W        W91864  38.172  15.676   4.500
19440W        W91865   9.593  28.386   0.761
19441W        W91866  12.404  40.375  14.299
19442W        W91867  19.217  22.270  10.695
19443W        W91868  22.576   9.428   2.247
19444W        W91869  15.955  38.623  10.214
19445W        W91870  22.865  41.543  12.957
19446W        W91871  38.926  42.111  11.436
19447W        W91872  15.055  36.409  12.605
19448W        W91873  30.260  23.757  14.963
19449W        W91874   2.315  44.104  11.433
19450W        W91875  40.591  19.497   1.817
19451W        W91876  30.139  15.613   0.891
19452W        W91877  16.819  34.299  13.684
19453W        W91878   9.688  35.869   1.764
19454W        W91879  18.700  15.774  12.431
19455W        W91880  13.372   1.026  12.926
19456W        W91881  13.894   4.987  13.880
19457W        W91882  20.671  40.894   4.489
19458W        W91883  44.002  19.747  13.782
19459W        W91884  21.656  30.413   2.206
19460W        W91885  10.854  14.609   3.600
19461W        W91886  11.144  34.293   4.110
19462W        W91887  27.033  44.204   1.014
19463W        W91888  23.605  30.333  11.924
19464W        W91889  31.409  16.081  10.693
19465W        W91890   3.885  28.975   1.283
19466W        W91891  11.777  22.147   4.670
19467W        W91892  10.848  32.481   3.759
19468W        W91893  11.222   8.626  10.030
19469W        W91894  29.110  20.561   4.693
19470W        W91895   3.607  13.857  14.283
19471W        W91896  30.192  31.105   0.342
19472W        W91897   3.307  29.139  10.131
19473W        W91898  14.728  23.205   1.471
19474W        W91899  23.183  24.757  12.445
19475W        W91900  25.872  37.638  10.059
19476W        W91901  39.049  43.204   2.870
19477W        W91902  15.496  32.547  11.565
19478W        W91903  42.695  35.360  11.035
19479W        W91904  30.960  43.427  11.143
19480W        W91905  19.879   5.278   1.748
19481W        W91906  19.077   0.238  14.047
19482W        W91907  17.540  38.620  12.108
19483W        W91908  27.624  11.705   0.933
19484W        W91909   7.611  17.751   3.263
19485W        W91910  17.770  43.939   2.197
19486W        W91911  24.185  13.213   0.410
19487W        W91912  12.724  26.482   3.191
19488W        W91913  13.717  26.659   0.753
19489W        W91914  22.211   5.375   3.386
19490W        W91915   8.807  35.740   0.756
19491W        W91916   7.699  13.442   0.294
19492W        W91917  12.028   8.809   3.694
19493W        W91918   2.374  38.936  13.942
19494W        W91919  36.915   5.307   4.141
19495W        W91920   1.176  23.208  10.763
19496W        W91921  10.309  34.328   2.249
19497W        W91922  32.396  18.926  12.447
19498W        W91923  42.561  19.214  14.762
19499W        W91924  44.847  39.589  12.414
19500W        W91925  37.877  23.275   2.137
19501W        W91926   5.951  41.023  12.409
19502W        W91927   2.951  32.398  14.661
19503W        W91928   1.345  23.669   1.011
19504W        W91929  23.228   0.354   0.209
19505W        W91930   0.721   2.136  11.031
19506W        W91931   1.376   4.826   1.018
19507W        W91932  15.580  36.004   1.216
19508W        W91933  14.755  26.561  10.966
19509W        W91934  29.097  42.151  14.383
19510W        W91935   1.743  43.857  14.836
19511W        W91936  26.528  38.384   4.446
19512W        W91937  42.479  43.867  14.843
19513W        W91938  12.767  16.704  12.359
19514W        W91939  18.770  40.232  12.836
19515W        W91940   9.607  14.612   2.455
19516W        W91941  15.154  34.136   1.723
19517W        W91942  19.699   1.785  10.642
19518W        W91943  25.450   6.508   2.861
19519W        W91944  44.380  14.617  12.030
19520W        W91945  19.697  12.147  10.807
19521W        W91946  27.771  24.234   0.890
19522W        W91947  37.803  11.309   2.964
19523W        W91948  21.623   8.787   4.441
19524W        W91949  16.828  27.583   3.580
19525W        W91950   6.475   0.298  12.804
19526W        W91951   3.877  10.194  14.754
19527W        W91952  32.788  30.489  14.823
19528W        W91953  24.394  22.164  12.515
19529W        W91954   1.657  42.988   3.620
19530W        W91955  44.978  14.101  13.309
19531W        W91956  17.648  35.528  11.602
19532W        W91957  22.057  10.647  14.492
19533W        W91958   9.733  13.767   3.607
19534W        W91959   6.786  20.545  12.540
19535W        W91960   2.477   4.388  12.871
19536W        W91961  16.857  35.007   3.294
19537W        W91962  26.859  37.552  13.440
19538W        W91963   5.710  42.753  13.323
19539W        W91964  21.628   0.030   1.930
19540W        W91965  17.849  43.947  12.529
19541W        W91966  41.075  28.144   3.194
19542W        W91967  42.687  41.881   4.419
19543W        W91968  38.364  40.052  12.422
19544W        W91969   8.182  33.879  14.373
19545W        W91970  29.007   8.868   3.123
19546W        W91971  13.236  10.377   3.033
19547W        W91972  38.462  17.651   3.881
19548W        W91973  12.684  14.046   2.884
19549W        W91974  15.369   6.766   1.216
19550W        W91975  41.033  41.147  11.049
19551W        W91976  39.754  29.628   2.819
19552W        W91977   8.057  25.125   0.971
19553W        W91978  17.727  14.376   2.846
19554W        W91979  36.128  36.023   4.956
19555W        W91980  35.141  28.131   0.040
19556W        W91981  26.880   0.502  12.150
19557W        W91982  16.894  10.146   0.964
19558W        W91983  26.608  16.559  11.683
19559W        W91984  32.920  16.310  11.029
19560W        W91985  39.100  26.292   1.931
19561W        W91986  39.704  33.900  14.426
19562W        W91987   5.040   4.939   5.199
19563W        W91988  13.586  21.610   4.606
19564W        W91989  25.687   3.755  13.440
19565W        W91990   6.741  27.155   3.233
19566W        W91991  17.720  19.687  11.559
19567W        W91992   5.316  32.354  14.301
19568W        W91993   3.715  29.389   3.320
19569W        W91994  32.433  11.858  12.978
19570W        W91995   0.825  39.884  13.818
19571W        W91996   4.382  37.604  13.997
19572W        W91997  27.214  39.962  13.021
19573W        W91998  39.375  32.449   0.952
19574W        W91999  21.051  28.504   2.275
19575W        W92000  40.457   6.635   0.138
19576W        W92001  29.179  30.609  11.171
19577W        W92002  19.160   9.398   2.803
19578W        W92003  24.513   6.978  11.692
19579W        W92004   2.498  19.041  14.309
19580W        W92005   0.376  44.710   0.276
19581W        W92006   7.780   8.686   0.051
19582W        W92007   1.432  28.749  13.378
19583W        W92008  36.185   5.556   4.618
19584W        W92009  16.390  33.085   4.141
19585W        W92010  34.068  11.656  12.007
19586W        W92011  41.223  22.289  14.162
19587W        W92012  39.532   0.979  12.874
19588W        W92013   4.454   9.764  12.520
19589W        W92014  23.861  10.499   2.390
19590W        W92015  39.407  31.020  11.834
19591W        W92016  29.509  25.223   1.730
19592W        W92017   8.635  29.180  14.247
19593W        W92018  27.828  26.971  11.078
19594W        W92019  40.363  10.242  12.513
19595W        W92020  28.031  16.235  10.289
19596W        W92021  44.269   6.823   4.142
19597W        W92022  40.615  23.282   4.598
19598W        W92023  42.473  14.538  10.769
19599W        W92024  42.095  33.930  14.270
19600W        W92025  30.477  34.046  14.541
19601W        W92026   2.308  19.805  10.108
19602W        W92027  27.249  24.194   4.056
19603W        W92028  27.137  17.248  13.902
19604W        W92029   3.513  34.436  12.039
19605W        W92030  32.142  18.286  14.893
19606W        W92031  35.639  17.263  13.601
19607W        W92032  26.717  28.084  10.707
19608W        W92033  28.534  21.991  14.928
19609W        W92034  19.999  32.585   2.228
19610W        W92035  19.761  22.618   1.918
19611W        W92036  12.109  22.086   3.369
19612W        W92037  33.433   8.481  12.027
19613W        W92038  21.205   3.965   2.865
19614W        W92039  26.178  10.471   0.146
19615W        W92040  32.623  42.617   1.842
19616W        W92041   2.264  24.543  14.330
19617W        W92042  13.696   7.077  12.075
19618W        W92043  17.146  36.874  13.587
19619W        W92044  27.710  35.751   1.308
19620W        W92045  25.077  16.398  13.082
19621W        W92046   5.173  37.407  12.057
19622W        W92047  44.360  11.116   2.942
19623W        W92048  18.497  13.126   2.737
19624W        W92049  10.149   7.426  13.810
19625W        W92050  23.940   4.506   4.158
19626W        W92051   9.093  22.105   1.236
19627W        W92052  34.421  10.819   0.462
19628W        W92053   3.272  21.225  14.047
19629W        W92054  38.885  40.787  11.570
19630W        W92055  32.703   1.559  12.344
19631W        W92056  44.295  32.053  14.801
19632W        W92057  38.987  20.691   4.571
19633W        W92058   7.846   8.428  13.018
19634W        W92059  31.097  21.219   3.133
19635W        W92060   1.497   7.022  12.977
19636W        W92061  12.571  10.882   3.205
19637W        W92062   4.645  36.145  10.279
19638W        W92063  19.019   6.003   4.085
19639W        W92064  24.983   7.455   0.789
19640W        W92065  37.370  18.941   1.383
19641W        W92066  27.788  37.568  12.504
19642W        W92067   6.889  31.255  11.907
19643W        W92068   8.528  39.922  10.655
19644W        W92069   4.351  29.807  14.570
19645W        W92070  31.192  39.823   1.293
19646W        W92071  23.182  33.924   1.478
19647W        W92072  44.878   5.452   4.229
19648W        W92073  30.902   1.532   2.657
19649W        W92074  12.345   8.151  13.209
19650W        W92075  44.496  37.587   3.331
19651W        W92076  34.493   6.289   3.191
19652W        W92077  23.665  12.827   2.374
19653W        W92078  12.579   3.356   2.658
19654W        W92079  28.022  13.325  11.487
19655W        W92080  34.386  39.380  12.541
19656W        W92081   0.917  32.638   1.958
19657W        W92082  26.612  30.770  12.549
19658W        W92083  33.183  16.941  12.515
19659W        W92084  13.431   8.997  13.774
19660W        W92085   9.178  34.978  10.870
19661W        W92086  35.676  37.933   2.748
19662W        W92087  21.555  26.589  14.615
19663W        W92088  35.743  26.577   1.160
19664W        W92089  38.168  35.145  13.451
19665W        W92090  30.195  30.703  13.373
19666W        W92091  38.304  10.423   2.806
19667W        W92092  21.757  14.279   0.239
19668W        W92093  12.043  44.236  13.878
19669W        W92094  23.259  30.077  14.389
19670W        W92095  19.712  31.823  13.458
19671W        W92096   3.939  30.109  13.765
19672W        W92097   7.920  40.646   0.323
19673W        W92098  10.779   8.598   0.939
19674W        W92099  19.368  41.066  12.257
19675W        W92100  30.475  23.291  14.904
19676W        W92101  18.756  32.185   1.431
19677W        W92102  18.541  30.040  14.081
19678W        W92103  24.573  13.536   3.832
19679W        W92104   1.666  41.358   4.228
19680W        W92105  10.682   9.512   4.230
19681W        W92106   2.270  29.549  10.343
19682W        W92107  14.026  16.204  11.920
19683W        W92108  40.803  43.780   1.603
19684W        W92109  12.098  27.572  14.421
19685W        W92110  26.991   9.299   1.162
19686W        W92111  34.090  17.821   1.780
19687W        W92112  17.626  16.204  11.379
19688W        W92113  44.495  10.002   4.255
19689W        W92114  29.904  38.797  12.049
19690W        W92115  20.379   6.662   1.645
19691W        W92116   5.046  41.763   3.242
19692W        W92117   0.355  22.014  10.635
19693W        W92118  13.150  40.480   1.327
19694W        W92119  42.609  11.757   4.169
19695W        W92120  36.067  37.853  11.399
19696W        W92121   2.266   1.731  12.437
19697W        W92122  30.467  41.317   3.693
19698W        W92123  26.907  33.213   4.754
19699W        W92124   7.657  10.359   2.693
19700W        W92125  15.085  41.348   0.928
19701W        W92126  41.842  11.026   2.676
19702W        W92127  23.130   5.735   2.283
19703W        W92128  16.651   4.489   0.780
19704W        W92129  15.444   2.195   3.300
19705W        W92130  32.169  40.372   0.238
19706W        W92131   9.411  14.607   1.501
19707W        W92132  11.822  11.887  12.400
19708W        W92133  38.754  10.111   1.503
19709W        W92134  27.507  44.690   1.249
19710W        W92135  39.527  11.189  10.935
19711W        W92136  36.858   3.449  12.618
19712W        W92137  14.261   4.237   3.106
19713W        W92138   4.765  16.067   0.501
19714W        W92139   7.602  21.555   4.875
19715W        W92140   6.750  11.945   1.711
19716W        W92141  31.026  37.381  11.127
19717W        W92142  42.482  20.148  13.311
19718W        W92143  29.868  42.147  12.623
19719W        W92144  26.740  40.411   1.408
19720W        W92145  30.532  37.525  13.575
19721W        W92146  41.932  44.780  14.770
19722W        W92147  15.577  42.850  12.887
19723W        W92148  26.896  33.994   4.245
19724W        W92149  41.488   3.403  11.992
19725W        W92150  17.710  42.305   0.695
19726W        W92151  16.553  12.630  13.332
19727W        W92152   4.552  34.690  12.854
19728W        W92153  11.272  42.488   0.766
19729W        W92154  27.550  24.513   4.711
19730W        W92155  43.936  33.675   3.823
19731W        W92156  29.385  19.363  14.888
19732W        W92157  38.176  20.561  11.412
19733W        W92158   5.315  21.396  12.552
19734W        W92159  31.692  22.665  14.758
19735W        W92160  21.702   9.280  14.407
19736W        W92161  23.777  26.670  11.850
19737W        W92162  41.866  27.941   0.295
19738W        W92163  14.744  11.246  11.479
19739W        W92164  16.191  27.080   0.799
19740W        W92165  16.969  18.798   0.605
19741W        W92166   9.267  30.683   4.808
19742W        W92167  20.739  31.063   3.004
19743W        W92168  39.603  13.804   1.339
19744W        W92169  22.141  15.482  11.447
19745W        W92170   0.799   3.087  12.625
19746W        W92171  44.053   9.690   3.147
19747W        W92172  39.046  17.066   2.116
19748W        W92173  36.926   2.765  14.173
19749W        W92174  32.057  21.647  10.400
19750W        W92175  25.610  30.708  12.645
19751W        W92176  17.528   1.248   0.501
19752W        W92177   3.745   7.907  12.677
19753W        W92178  41.378  36.209  10.635
19754W        W92179  18.720  35.320  10.747
19755W        W92180  27.203  29.032   0.433
19756W        W92181  36.630  33.937  14.124
19757W        W92182   2.453  34.643  13.460
19758W        W92183  16.129  17.801  13.816
19759W        W92184  25.121  17.853   1.693
19760W        W92185  16.811   7.791   1.387
19761W        W92186  39.984  37.345  10.637
19762W        W92187   4.610  30.890  13.577
19763W        W92188  14.574  22.983  11.518
19764W        W92189  21.045  44.215  14.843
19765W        W92190  18.187  17.841  14.469
19766W        W92191  41.224  27.579  11.460
19767W        W92192  16.164   5.052  10.901
19768W        W92193  34.543  10.547   4.637
19769W        W92194  30.107  26.578   2.359
19770W        W92195  14.489  14.217   0.201
19771W        W92196  14.119  23.388  13.333
19772W        W92197  23.241  21.780   0.935
19773W        W92198  11.321   4.316   1.632
19774W        W92199  25.175  44.860   3.986
19775W        W92200   8.452  11.298   1.392
19776W        W92201  37.776  10.618  11.145
19777W        W92202  31.012  29.538  14.908
19778W        W92203  23.075  37.915  12.444
19779W        W92204  34.281  40.112  11.370
19780W        W92205  44.498   7.585  12.954
19781W        W92206   2.696   4.916  14.976
19782W        W92207  14.805  32.746   2.928
19783W        W92208   1.380   0.481   2.150
19784W        W92209  42.741   8.211   1.417
19785W        W92210  43.725   9.206   3.723
19786W        W92211  41.222  28.030  11.212
19787W        W92212  24.710   1.324  10.792
19788W        W92213  36.970  30.473   1.299
19789W        W92214  14.184   3.690  13.634
19790W        W92215  32.445   7.268  13.311
19791W        W92216  33.886  44.827  11.505
19792W        W92217  31.900  21.166  14.316
19793W        W92218  44.338  31.164  13.493
19794W        W92219  42.875  13.219   3.797
19795W        W92220  43.225  37.999  12.094
19796W        W92221  22.631  33.200   2.220
19797W        W92222  38.134  16.393  12.409
19798W        W92223  10.807  10.899  12.425
19799W        W92224  11.834  12.589   0.752
19800W        W92225  19.142  14.418   0.509
19801W        W92226  23.706  23.628  12.759
19802W        W92227  10.716  29.932  11.594
19803W        W92228  19.514  16.625   4.892
19804W        W92229  44.914  27.450   2.171
19805W        W92230   9.585  33.870  10.429
19806W        W92231  20.292   2.988  10.575
19807W        W92232  11.894  41.206   0.937
19808W        W92233   9.771  15.136   3.237
19809W        W92234  25.213  41.288  14.287
19810W        W92235   5.339   2.719   0.906
19811W        W92236   5.971  43.818   0.271
19812W        W92237  13.175  41.395  14.441
19813W        W92238  42.493   1.364   4.748
19814W        W92239   5.687  15.634   2.159
19815W        W92240  24.051  18.257   3.068
19816W        W92241   0.418  25.507  10.760
19817W        W92242   9.411   0.727   0.320
19818W        W92243  44.669  17.547   1.382
19819W        W92244  42.875  15.510  14.738
19820W        W92245  11.990  34.693  12.504
19821W        W92246  27.641  33.473  11.355
19822W        W92247  41.207   3.564   4.225
19823W        W92248  28.414  24.835  13.409
19824W        W92249  29.991  29.142   3.738
19825W        W92250  20.662  40.930  13.368
19826W        W92251  41.275  38.962  14.806
19827W        W92252  40.068  34.424  10.920
19828W        W92253  24.667  14.240  12.424
19829W        W92254   5.950  32.356   4.180
19830W        W92255   9.726  30.181  11.119
19831W        W92256  25.052  44.954  14.884
19832W        W92257   5.868  39.839  13.799
19833W        W92258  43.328  34.967   2.840
19834W        W92259  31.794  14.421  12.839
19835W        W92260  34.506  23.072  13.437
19836W        W92261   7.216  37.759  11.541
19837W        W92262  26.860  30.081   1.501
19838W        W92263   0.728  40.785   0.814
19839W        W92264   4.915  39.301   1.830
19840W        W92265  40.795   2.160  11.093
19841W        W92266   4.921  14.898  14.011
19842W        W92267  26.849   8.343   2.191
19843W        W92268  35.158  11.412  11.064
19844W        W92269  33.861  11.518   2.791
19845W        W92270  37.905  38.039  11.234
19846W        W92271  40.338  43.832   3.760
19847W        W92272  22.349  20.095  14.419
19848W        W92273  20.282  30.138   2.170
19849W        W92274   1.787  25.451  13.458
19850W        W92275  43.923  18.686   0.339
19851W        W92276  42.454  38.865  13.451
19852W        W92277  38.772  40.931  11.087
19853W        W92278   9.332  30.123  10.668
19854W        W92279  28.684   6.366   4.116
19855W        W92280  13.014   3.354  12.947
19856W        W92281  41.234  36.809  14.472
19857W        W92282   0.491   9.497  13.592
19858W        W92283  38.046  31.694  11.241
19859W        W92284  22.139  29.162  11.351
19860W        W92285   4.905  31.336  13.513
19861W        W92286  18.053  37.503   1.278
19862W        W92287  15.634  44.960   4.576
19863W        W92288  27.565   3.393   4.375
19864W        W92289  21.193  23.645  14.447
19865W        W92290  25.787  42.515  11.138
19866W        W92291  36.172  25.448   0.477
19867W        W92292  43.329  11.400  13.432
19868W        W92293  38.522  35.797  10.777
19869W        W92294  17.212  27.738  10.901
19870W        W92295  35.149  23.154  11.978
19871W        W92296  33.924  19.696   2.826
19872W        W92297  40.398  39.247   3.210
19873W        W92298  39.483   7.989  13.875
19874W        W92299  33.939  23.855   3.776
19875W        W92300   2.234  22.130  12.006
19876W        W92301  32.884  33.983   3.216
19877W        W92302  17.274  34.060   4.870
19878W        W92303  18.320  15.648   4.375
19879W        W92304  23.726  10.796  14.897
19880W        W92305  28.706  13.587   4.020
19881W        W92306   0.379   6.347  13.945
19882W        W92307  36.072  39.094   2.828
19883W        W92308   7.326  37.923  12.903
19884W        W92309  15.788  40.972   0.038
19885W        W92310   7.399   2.047  14.938
19886W        W92311  12.051  29.045   2.754
19887W        W92312  33.803  32.121   0.741
19888W        W92313  15.052  25.434  11.945
19889W        W92314  16.135  44.842  12.026
19890W        W92315  35.157  32.127   1.712
19891W        W92316   6.096  36.364   1.284
19892W        W92317   4.739  34.562  14.204
19893W        W92318  38.018  16.026   0.731
19894W        W92319  28.175  44.458  13.584
19895W        W92320  17.255   6.462  11.038
19896W        W92321   8.206  21.063   0.693
19897W        W92322  41.016  31.189  11.357
19898W        W92323  38.472  19.806   2.400
19899W        W92324  30.988  44.015  11.857
19900W        W92325  30.395   1.530   0.177
19901W        W92326  30.513   2.324  14.570
19902W        W92327   2.260  24.967  10.161
19903W        W92328  39.920  44.333   1.421
19904W        W92329  34.373  36.954   0.242
19905W        W92330  26.131  44.312  10.712
19906W        W92331  18.701  37.336  11.537
19907W        W92332  39.438   3.614   0.367
19908W        W92333   6.159  32.154  11.037
19909W        W92334  34.395  33.723  12.482
19910W        W92335  33.459  21.461   2.708
19911W        W92336  17.745   9.375  14.255
19912W        W92337  23.552  32.647  11.174
19913W        W92338   7.111  26.989   0.455
19914W        W92339  17.731  18.682   2.295
19915W        W92340   7.750   9.862   2.737
19916W        W92341  23.588  25.014   3.219
19917W        W92342  20.067  10.396  13.137
19918W        W92343  16.850  41.493   3.595
19919W        W92344   5.783  32.466  11.702
19920W        W92345  14.077   2.339  14.840
19921W        W92346   7.984  26.477   1.326
19922W        W92347  21.549  37.321   1.452
19923W        W92348  25.853   9.684   0.621
19924W        W92349  20.513  12.652   4.241
19925W        W92350  18.111  36.092  14.019
19926W        W92351  19.249   2.540  14.385
19927W        W92352   5.211   1.823   2.782
19928W        W92353   5.001  33.408   3.287
19929W        W92354   3.248  41.216   2.175
19930W        W92355  20.649  11.848   3.724
19931W        W92356   6.168   4.922   4.182
19932W        W92357  11.862  25.471  11.567
19933W        W92358  38.063  22.500  11.684
19934W        W92359  26.338   2.412  14.230
19935W        W92360  29.197  40.024  11.676
19936W        W92361   7.696  11.120   3.428
19937W        W92362  32.420  19.324   0.251
19938W        W92363  33.884  39.619   3.664
19939W        W92364  34.555  15.845   3.344
19940W        W92365  22.032  39.863  14.069
19941W        W92366  29.857  43.970   2.804
19942W        W92367  30.388   7.196   3.110
19943W        W92368   3.541  36.008   2.157
19944W        W92369  16.307   2.007  14.442
19945W        W92370  31.594   0.254   3.101
19946W        W92371  43.862  38.076   2.629
19947W        W92372  28.380   0.214   2.274
19948W        W92373  40.449  26.995   4.616
19949W        W92374  28.202  11.248  13.089
19950W        W92375  20.317   0.928   2.576
19951W        W92376  10.733   6.941   1.159
19952W        W92377   0.494  20.054   4.244
19953W        W92378  28.536   6.274   4.615
19954W        W92379   6.184  19.228  11.546
19955W        W92380  18.534   7.846   0.678
19956W        W92381  43.238  31.105  14.005
19957W        W92382  24.437  38.997  11.805
19958W        W92383  32.224  16.981   2.843
19959W        W92384  24.827   9.576   4.149
19960W        W92385  10.643   5.274  12.427
19961W        W92386  31.010  11.703  11.107
19962W        W92387   8.181  36.436  13.739
19963W        W92388  14.157  31.910  14.355
19964W        W92389  31.915  38.076  14.864
19965W        W92390  38.370  30.131   0.429
19966W        W92391   7.785  25.817  12.538
19967W        W92392  22.514  11.330   3.738
19968W        W92393  10.365  22.640   2.161
19969W        W92394  29.479  17.723  13.919
19970W        W92395  31.431  10.750   0.816
19971W        W92396  38.923  38.208  11.161
19972W        W92397   5.743  11.959   3.382
19973W        W92398  25.056  13.786   2.772
19974W        W92399  16.122  17.544   2.769
19975W        W92400  40.561  25.216  14.968
19976W        W92401   6.690  14.071  12.080
19977W        W92402  10.322  13.382   2.266
19978W        W92403  34.105   7.686   0.460
19979W        W92404  36.484  42.557   2.203
19980W        W92405  16.129  15.551   2.388
19981W        W92406  30.875  20.874  13.490
19982W        W92407  20.133   0.947   0.858
19983W        W92408  43.502  25.392   0.879
19984W        W92409  26.366   9.045  13.320
19985W        W92410  29.375  26.022   3.667
19986W        W92411  34.609  43.003  13.378
19987W        W92412  41.481  34.023  11.141
19988W        W92413  10.711  13.277  14.495
19989W        W92414   7.864  19.181   0.762
19990W        W92415  12.620  44.360   0.396
19991W        W92416  18.982  20.318   1.288
19992W        W92417  41.393  32.910   0.263
19993W        W92418   7.329  41.322  12.923
19994W        W92419  13.863  18.776  11.953
19995W        W92420  22.702   7.430  12.984
19996W        W92421  25.609  30.088   4.397
19997W        W92422  27.238   6.400   1.634
19998W        W92423  12.243  15.689  11.956
19999W        W92424  43.241  14.859  12.828
20000W        W92425   1.718  34.935   3.663
20001W        W92426  26.945  13.666   4.682
20002W        W92427  30.250  40.583  10.727
20003W        W92428   4.840  37.882   1.983
20004W        W92429   9.372  27.725   2.847
20005W        W92430   8.338   5.129   0.316
20006W        W92431  27.767  25.649  12.044
20007W        W92432  33.602  24.225  12.415
20008W        W92433  30.648  39.574   0.827
20009W        W92434  25.622  22.490  12.515
20010W        W92435  35.630  32.486  14.799
20011W        W92436  26.668  29.477  12.979
20012W        W92437  29.770  19.684  10.752
20013W        W92438  17.751   5.259   0.216
20014W        W92439  41.099  17.039   3.633
20015W        W92440  13.590  30.145   1.009
20016W        W92441  24.238   7.641  12.447
20017W        W92442   7.333   0.415   4.076
20018W        W92443  28.034  31.374   4.649
20019W        W92444   9.950  39.006  11.135
20020W        W92445   5.953  38.981  13.452
20021W        W92446  21.900  37.505  11.418
20022W        W92447  39.289   3.246  12.352
20023W        W92448  39.381  16.796  14.509
20024W        W92449  37.022  40.830  11.552
20025W        W92450  44.843  13.242   1.485
20026W        W92451  27.897  14.705   3.564
20027W        W92452  24.526   0.996  11.164
20028W        W92453  25.984  18.042  12.573
20029W        W92454   6.625  23.096  14.801
20030W        W92455  30.857  11.952   2.772
20031W        W92456  40.142  43.498  12.553
20032W        W92457  18.202   4.553   4.271
20033W        W92458  19.428  19.392   2.254
20034W        W92459  31.085  19.176   2.186
20035W        W92460   1.803  39.342  11.512
20036W        W92461  15.652  18.637  10.992
20037W        W92462  20.483  39.943  12.908
20038W        W92463  24.222  11.205   4.371
20039W        W92464   7.830  18.099  14.276
20040W        W92465   6.100  18.151   2.378
20041W        W92466   1.224  23.334   0.216
20042W        W92467  18.752  30.442  14.386
20043W        W92468  25.474   2.504   4.185
20044W        W92469  22.710   7.892   3.129
20045W        W92470   5.226  41.012  12.871
20046W        W92471  31.598  22.228  14.997
20047W        W92472  41.981   1.421  10.682
20048W        W92473  33.381  34.091  11.210
20049W        W92474  13.651  13.942   1.914
20050W        W92475   9.687  18.197   4.671
20051W        W92476  23.289  14.307  14.169
20052W        W92477  23.095  22.135   3.181
20053W        W92478  26.587  29.997  12.838
20054W        W92479  27.140  23.949  13.078
20055W        W92480  20.383   9.242  12.679
20056W        W92481  41.004   1.894   2.678
20057W        W92482   3.142  39.862  11.232
20058W        W92483  10.329  14.121  11.538
20059W        W92484   3.647  21.454  11.123
20060W        W92485  28.945  24.481  11.385
20061W        W92486  34.140   4.167   3.730
20062W        W92487  12.752   8.020  12.027
20063W        W92488  42.702  25.699   1.156
20064W        W92489   0.854  15.553  11.489
20065W        W92490   8.180  19.424  13.339
20066W        W92491   3.755  30.784   1.372
20067W        W92492   7.926   9.276   4.233
20068W        W92493  38.109  18.038   3.862
20069W        W92494   0.770   9.801   3.698
20070W        W92495   0.156  34.004   0.764
20071W        W92496   3.963  19.478   4.284
20072W        W92497  31.156  24.218   3.716
20073W        W92498  30.196  34.536  10.592
20074W        W92499  21.831   7.942   4.137
20075W        W92500  12.779   5.240  10.699
20076W        W92501  29.139   3.611   3.193
20077W        W92502  13.825   1.451   4.569
20078W        W92503  42.232  20.098   4.537
20079W        W92504  29.995  37.786  11.096
20080W        W92505  28.637  13.235  12.133
20081W        W92506  25.278  31.949   3.808
20082W        W92507  13.163  44.307   0.391
20083W        W92508  39.323  29.782   3.899
20084W        W92509  44.874  32.561  10.580
20085W        W92510  29.912  43.606   1.916
20086W        W92511   0.685  12.377  14.291
20087W        W92512   9.085  25.980  11.573
20088W        W92513  41.065   4.303  13.457
20089W        W92514   5.327  14.446  14.372
20090W        W92515  20.479  25.825   1.867
20091W        W92516  15.751   8.761  14.804
20092W        W92517  11.870   0.551  12.718
20093W        W92518  42.490  33.874   4.156
20094W        W92519  24.080   3.830   1.934
20095W        W92520   8.279  13.673  10.866
20096W        W92521   9.893   5.830   2.239
20097W        W92522  19.503  44.823  13.379
20098W        W92523   0.226  25.161   2.709
20099W        W92524   9.193  10.828   0.565
20100W        W92525   1.312  32.511  14.426
20101W        W92526  29.437  36.601   3.995
20102W        W92527  37.593  30.783  14.004
20103W        W92528  30.112   9.517   4.100
20104W        W92529  24.926  14.700  14.030
20105W        W92530  10.324  22.952   4.133
20106W        W92531  33.532  10.340  11.691
20107W        W92532  38.263  18.617  13.036
20108W        W92533  17.606   9.922  12.497
20109W        W92534  24.587  32.845   0.722
20110W        W92535   1.433  40.916   4.034
20111W        W92536  12.072   8.281  14.053
20112W        W92537  27.841  14.822  14.017
20113W        W92538   6.392  23.444   4.615
20114W        W92539   9.122   9.892   3.888
20115W        W92540  18.165  32.307  12.145
20116W        W92541  42.353  19.829   0.866
20117W        W92542  36.598   3.353   0.311
20118W        W92543  44.870  12.504  11.138
20119W        W92544  27.952   3.635  12.511
20120W        W92545  10.174  25.498  14.800
20121W        W92546  31.972  10.450   3.379
20122W        W92547  28.439  37.879   0.833
20123W        W92548  18.273  21.255  12.695
20124W        W92549   5.978  27.930  12.648
20125W        W92550  39.242  12.276   0.195
20126W        W92551  28.232  13.733   4.191
20127W        W92552   2.217   2.331  10.616
20128W        W92553  13.084   2.360   3.729
20129W        W92554  23.550  12.811  12.505
20130W        W92555  33.101   2.771  11.826
20131W        W92556  32.865  43.957   2.138
20132W        W92557  23.314  20.138   3.700
20133W        W92558  14.892  32.603  13.432
20134W        W92559  18.243  15.120  10.564
20135W        W92560  36.441  28.993  13.144
20136W        W92561  36.625  18.689  12.032
20137W        W92562   8.051   1.293   1.954
20138W        W92563  44.363  13.150   1.323
20139W        W92564  34.346  13.631   4.156
20140W        W92565  31.496  17.840  13.089
20141W        W92566  30.638  41.461   3.203
20142W        W92567   8.686   6.738   1.838
20143W        W92568  36.836  37.313   4.986
20144W        W92569  15.717  14.038  14.483
20145W        W92570  19.795  41.326  12.462
20146W        W92571  33.525  36.948  12.442
20147W        W92572  37.385  42.868  14.955
20148W        W92573  36.317  33.953   2.717
20149W        W92574  15.164  16.743   4.176
20150W        W92575   1.328  44.022  12.847
20151W        W92576  23.783   0.465  13.001
20152W        W92577  43.009  11.405   4.300
20153W        W92578  17.564  29.541   4.679
20154W        W92579   3.327  24.703  13.860
20155W        W92580   9.892  26.910   2.386
20156W        W92581   7.140  19.226  14.428
20157W        W92582   3.260   4.747   2.791
20158W        W92583  43.504  38.972  10.221
20159W        W92584  21.621  34.576   2.236
20160W        W92585  44.333  34.317   2.134
20161W        W92586   6.491  33.414   4.105
20162W        W92587  13.695   4.466   2.279
20163W        W92588  26.984  30.329  13.999
20164W        W92589   0.263  44.880   1.641
20165W        W92590   4.417  16.253   1.780
20166W        W92591  38.175  34.186   5.012
20167W        W92592  36.910   6.804  11.225
20168W        W92593  31.360   6.382   4.957
20169W        W92594   2.157  24.613  13.488
20170W        W92595  25.109   7.219   2.717
20171W        W92596  39.573  32.052   3.993
20172W        W92597  25.175  30.559  14.524
20173W        W92598  30.443  43.325   1.714
20174W        W92599   3.691   3.825   2.207
20175W        W92600  18.641  10.184   2.486
20176W        W92601  21.908  17.805   3.720
20177W        W92602   2.911  41.936   4.921
20178W        W92603  30.830  24.538   2.737
20179W        W92604   7.614  14.334  11.066
20180W        W92605   4.752   8.112  11.166
20181W        W92606  12.579  29.598   0.731
20182W        W92607  33.553   0.981  11.703
20183W        W92608  33.163  10.576  13.347
20184W        W92609  25.685  43.941   0.252
20185W        W92610  31.700   8.218   0.200
20186W        W92611  39.023  13.824  10.499
20187W        W92612  30.329  14.042  11.648
20188W        W92613  19.509  36.022  12.529
20189W        W92614  43.621  27.601   1.981
20190W        W92615  35.041  30.005   2.627
20191W        W92616   1.751  20.146  10.746
20192W        W92617  24.001   5.730  12.529
20193W        W92618   4.514  31.461   2.201
20194W        W92619  15.036  30.393   2.801
20195W        W92620  31.377  32.740  12.838
20196W        W92621  10.297   0.285  13.481
20197W        W92622   5.800   6.091  10.911
20198W        W92623  29.458  20.029  11.068
20199W        W92624   2.678  43.888  14.474
20200W        W92625  43.932  44.541  10.282
20201W        W92626  40.964  40.377   0.006
20202W        W92627  38.449  32.523   4.367
20203W        W92628  35.090  40.943  12.036
20204W        W92629  24.721  25.233  12.179
20205W        W92630  10.211  10.889  11.224
20206W        W92631   7.421  44.989  11.174
20207W        W92632  41.353   2.354  12.628
20208W        W92633  43.377  31.441   0.697
20209W        W92634   9.801   6.318   4.071
20210W        W92635  18.526  40.050   3.032
20211W        W92636  30.211  44.008  12.465
20212W        W92637  24.018  21.480  10.911
20213W        W92638  26.873  34.259  11.879
20214W        W92639  44.513  16.285   1.635
20215W        W92640  38.697  15.671  13.725
20216W        W92641  10.377  14.082  10.711
20217W        W92642  40.412  19.478  12.069
20218W        W92643  26.986  26.607  10.580
20219W        W92644  11.418   4.975   3.116
20220W        W92645  43.886  19.544   3.759
20221W        W92646   4.696  11.368   0.475
20222W        W92647  41.406  13.645   1.249
20223W        W92648  36.430  34.636   0.881
20224W        W92649  43.954  38.304   3.637
20225W        W92650  19.677  38.056  11.618
20226W        W92651  15.126   6.474   0.823
20227W        W92652   8.885  29.873  10.840
20228W        W92653  44.787  38.361  11.570
20229W        W92654  13.643   4.204  14.998
20230W        W92655  11.729  32.061  12.813
20231W        W92656  33.832  22.732   1.451
20232W        W92657  30.439  36.100   1.984
20233W        W92658   9.173  43.164   4.212
20234W        W92659  23.192  11.936  10.616
20235W        W92660  19.850  15.522  12.554
20236W        W92661  38.859  19.443   3.710
20237W        W92662  22.506  44.738   3.784
20238W        W92663  31.990  31.960   0.271
20239W        W92664   5.897  39.430   1.883
20240W        W92665   1.380   3.124   1.629
20241W        W92666  28.451  34.499   4.540
20242W        W92667   1.738   6.316  13.392
20243W        W92668  21.039  36.526   0.340
20244W        W92669  40.952  13.194   4.648
20245W        W92670  41.623  11.634  14.084
20246W        W92671  40.592  37.221   1.678
20247W        W92672   2.687  39.101  13.557
20248W        W92673  39.071  37.945   4.492
20249W        W92674  25.492  25.643  14.847
20250W        W92675  18.533  14.320   3.233
20251W        W92676  34.301   9.489   1.624
20252W        W92677  32.344  15.936   0.777
20253W        W92678  21.804  42.499   4.180
20254W        W92679  26.905  32.426   1.183
20255W        W92680  37.260  28.833  12.241
20256W        W92681  17.332  30.442   4.528
20257W        W92682  21.146  27.475  10.245
20258W        W92683  16.819  16.397  10.682
20259W        W92684  37.280  43.302   4.608
20260W        W92685  30.222  15.269   1.266
20261W        W92686   5.354  10.511  11.158
20262W        W92687  13.354  12.851  14.763
20263W        W92688  14.227  20.555  12.238
20264W        W92689   0.514  20.983  12.675
20265W        W92690  25.572  20.038   4.132
20266W        W92691  26.558  25.818  13.817
20267W        W92692   9.813  18.821  13.395
20268W        W92693  40.387   0.828  12.847
20269W        W92694  20.071  44.425   2.776
20270W        W92695  19.626  36.026   1.011
20271W        W92696  14.173  14.616   0.315
20272W        W92697  16.758   3.269  12.113
20273W        W92698  14.491   8.249  11.976
20274W        W92699  23.007  22.032  12.568
20275W        W92700  10.145  20.137  12.398
20276W        W92701  26.514  27.086  12.863
20277W        W92702  19.960  38.955  11.730
20278W        W92703  16.778  37.145  10.244
20279W        W92704  35.099  24.019   0.541
20280W        W92705  31.793   8.687   4.603
20281W        W92706   3.892  21.340  12.347
20282W        W92707  21.106  27.212   0.834
20283W        W92708  36.622  34.275   3.843
20284W        W92709  26.276   5.855  14.733
20285W        W92710   7.837  26.905  14.924
20286W        W92711  28.067  12.847   2.839
20287W        W92712  33.985  33.475  12.698
20288W        W92713  23.566  25.150   4.240
20289W        W92714  37.565  16.781  12.021
20290W        W92715  13.628  22.138   0.427
20291W        W92716  25.915  11.334   0.213
20292W        W92717  23.560  36.629   2.673
20293W        W92718   6.958   4.171   1.264
20294W        W92719  13.655  38.953  14.918
20295W        W92720  42.441   4.392   3.331
20296W        W92721  41.950  21.022   1.211
20297W        W92722  12.580  34.456  13.370
20298W        W92723  38.726  27.511   3.218
20299W        W92724  11.643  29.396   2.666
20300W        W92725  13.615  17.142   0.077
20301W        W92726  33.444  30.503   2.666
20302W        W92727  31.568  36.019   1.679
20303W        W92728   8.200  34.034  11.116
20304W        W92729  10.693   1.538  13.688
20305W        W92730  26.001  18.485  14.258
20306W        W92731  25.775   8.978  11.408
20307W        W92732  11.275   0.996   3.827
20308W        W92733  16.683  21.147   2.125
20309W        W92734  12.785  33.538   3.055
20310W        W92735  21.100  12.826  11.577
20311W        W92736  31.475  35.697   2.527
20312W        W92737  35.000  19.020   1.219
20313W        W92738   5.374   6.396   4.230
20314W        W92739   7.128  32.546  11.535
20315W        W92740  15.086  43.790   3.142
20316W        W92741  33.580  29.164   2.595
20317W        W92742  31.393   9.416  11.186
20318W        W92743  37.815  33.612  12.372
20319W        W92744  13.457  19.797  11.274
20320W        W92745  20.097  17.045   3.152
20321W        W92746  34.909  10.591   2.678
20322W        W92747  36.428  11.204  13.423
20323W        W92748  27.387  21.014  11.664
20324W        W92749   4.874  12.412  11.527
20325W        W92750  24.963  37.453   5.086
20326W        W92751  16.294  33.893  12.796
20327W        W92752  10.714  12.852   1.733
20328W        W92753   0.716  11.194   1.594
20329W        W92754  37.559  10.037   9.790
20330W        W92755  31.188   0.330   4.597
20331W        W92756   3.749  26.555   0.561
20332W        W92757  16.810  24.083   3.133
20333W        W92758   6.254  26.453   1.061
20334W        W92759   7.137  21.536  12.593
20335W        W92760  20.565  24.029   3.298
20336W        W92761   5.625  43.359   1.076
20337W        W92762  34.165  19.071   3.479
20338W        W92763  35.827  40.003  11.876
20339W        W92764  27.320  44.844   3.946
20340W        W92765   5.432  22.976   1.877
20341W        W92766  18.309  12.059   3.329
20342W        W92767  44.472  31.451  14.784
20343W        W92768  14.323  17.124  13.823
20344W        W92769  29.988  30.094   2.362
20345W        W92770   2.113  28.109  12.577
20346W        W92771  42.458   8.229  13.504
20347W        W92772  40.603  19.284   3.309
20348W        W92773  28.611  15.269   3.549
20349W        W92774  15.686  43.426   3.649
20350W        W92775  39.237  44.019  10.551
20351W        W92776  28.474  11.836   0.711
20352W        W92777  28.029  15.255  11.423
20353W        W92778  36.625  15.265  14.435
20354W        W92779   4.972  18.565   3.595
20355W        W92780  30.965  32.501  12.623
20356W        W92781   2.006  11.764  13.251
20357W        W92782  36.424   1.944   0.819
20358W        W92783  41.740  23.131  13.906
20359W        W92784  30.500  18.302  10.234
20360W        W92785   8.920  12.115   4.608
20361W        W92786   2.144   9.845   4.592
20362W        W92787  34.660   0.694   1.352
20363W        W92788   5.677  29.654  13.375
20364W        W92789  20.714  11.893   2.765
20365W        W92790  30.767  12.143   1.487
20366W        W92791  26.280  31.587   2.944
20367W        W92792  14.087  28.975   1.433
20368W        W92793  43.723   8.415   4.303
20369W        W92794  18.312  30.499   3.760
20370W        W92795  36.495  34.786   3.797
20371W        W92796   2.858  16.053   2.165
20372W        W92797  26.596   5.674   2.135
20373W        W92798  21.672   5.369  12.554
20374W        W92799  42.909  16.171   1.680
20375W        W92800  44.069  30.017   2.566
20376W        W92801  21.486  25.183   5.012
20377W        W92802  27.184  20.653  12.575
20378W        W92803   2.440   3.023   0.973
20379W        W92804   8.651  38.998   3.013
20380W        W92805  41.741   0.688   0.879
20381W        W92806  14.667  10.600   4.565
20382W        W92807  36.666   9.622   3.289
20383W        W92808  37.635  27.053  14.474
20384W        W92809  14.514  19.649   2.840
20385W        W92810  17.775  35.116  14.845
20386W        W92811  31.484  11.835  10.982
20387W        W92812  15.210   5.392  12.574
20388W        W92813  29.202  34.857   0.754
20389W        W92814  24.252  28.379  13.717
20390W        W92815  37.240   0.025  12.583
20391W        W92816   6.280  43.403   0.282
20392W        W92817  41.946  43.997  14.288
20393W        W92818  33.200  36.379   3.877
20394W        W92819  37.554   5.762   2.413
20395W        W92820   2.450   5.814  12.632
20396W        W92821  27.981  40.784  13.843
20397W        W92822  16.141  37.797  14.481
20398W        W92823  39.174  19.629   9.888
20399W        W92824  36.581   6.132  11.869
20400W        W92825  37.165  42.544  14.314
20401W        W92826  24.374   3.836   0.497
20402W        W92827  15.632   7.687  10.731
20403W        W92828  38.110  26.177   2.765
20404W        W92829  25.153  35.524   0.768
20405W        W92830  41.511  39.640   3.746
20406W        W92831  18.789  37.579  13.401
20407W        W92832  22.592   9.223  10.604
20408W        W92833  36.855  16.979  10.716
20409W        W92834   7.155   5.258   3.118
20410W        W92835  43.465  13.073  14.253
20411W        W92836  44.267   9.418   1.423
20412W        W92837   9.216  25.133   3.323
20413W        W92838  41.494  37.978   0.379
20414W        W92839  22.179  44.892   1.905
20415W        W92840  35.994  44.518   3.659
20416W        W92841  24.049  18.607   3.860
20417W        W92842  15.226  29.889  12.977
20418W        W92843  28.542   8.918   2.894
20419W        W92844   0.808   1.897  10.559
20420W        W92845  43.269   3.384  10.622
20421W        W92846  14.583  22.311  11.056
20422W        W92847   9.781  25.156   0.458
20423W        W92848  35.842  15.082  11.171
20424W        W92849  31.572  39.578  12.467
20425W        W92850  34.020  22.029   0.762
20426W        W92851  34.510  13.594   2.662
20427W        W92852  19.602  43.249   1.435
20428W        W92853  35.833  13.079   4.185
20429W        W92854  41.774   1.029  12.536
20430W        W92855   3.887  39.910  12.009
20431W        W92856  17.041  17.773  11.975
20432W        W92857   9.598   8.675   4.726
20433W        W92858   0.196  36.238  14.245
20434W        W92859   8.481  32.424   4.600
20435W        W92860  34.637  16.873   1.641
20436W        W92861  28.967  26.147  14.511
20437W        W92862  12.244  12.639   3.640
20438W        W92863   8.114  14.482   2.302
20439W        W92864  43.725  11.179  12.092
20440W        W92865   9.718  11.062  11.166
20441W        W92866  29.177  21.129  14.145
20442W        W92867  14.271  36.853  13.847
20443W        W92868  23.531  32.049   2.360
20444W        W92869  17.578  28.517   1.268
20445W        W92870   4.894  41.357  11.570
20446W        W92871  15.637  28.538  11.193
20447W        W92872  30.862  32.519   1.877
20448W        W92873  39.470  13.575  10.613
20449W        W92874  13.749  25.161  10.331
20450W        W92875  44.349  36.914   2.785
20451W        W92876  20.183  39.408  11.473
20452W        W92877  15.343   8.862  10.559
20453W        W92878   7.942  30.134   1.405
20454W        W92879   8.782  24.981   2.177
20455W        W92880  24.405  14.113  12.864
20456W        W92881  41.516   3.812   0.492
20457W        W92882  39.907  10.744   3.255
20458W        W92883  30.844  23.598   0.121
20459W        W92884  42.478  19.619   4.408
20460W        W92885  18.124  22.202   4.885
20461W        W92886  11.366  28.300   0.516
20462W        W92887  30.081  17.942  10.692
20463W        W92888  17.253  24.616   1.935
20464W        W92889  39.349  12.525   3.211
20465W        W92890  24.178  33.633   0.880
20466W        W92891  15.181  10.633  13.841
20467W        W92892  41.998   4.652  10.690
20468W        W92893  39.091  25.156   4.693
20469W        W92894  22.604  35.033   1.481
20470W        W92895  36.433  23.231  11.042
20471W        W92896  31.730   9.648  14.782
20472W        W92897   2.715  16.065   2.662
20473W        W92898  22.678  14.506  14.814
20474W        W92899  31.523  36.192   2.701
20475W        W92900   2.305  21.670  11.109
20476W        W92901   6.896   0.629   3.897
20477W        W92902   4.432  27.387   4.215
20478W        W92903  37.851  16.170  12.033
20479W        W92904  23.242  35.056   1.758
20480W        W92905  25.625   7.212   2.267
20481W        W92906  18.731  20.851   1.290
20482W        W92907  15.035  13.340   1.882
20483W        W92908  12.255  28.771   1.456
20484W        W92909  12.747  16.217  12.710
20485W        W92910  18.202  28.671  11.544
20486W        W92911  32.700  27.491   1.860
20487W        W92912  31.142   4.103  13.964
20488W        W92913  14.810   6.202   1.432
20489W        W92914   7.219   0.233   2.167
20490W        W92915  37.938  22.001  11.884
20491W        W92916  22.638  31.157  14.261
20492W        W92917  42.118   4.578   5.086
20493W        W92918  33.274   6.387   0.531
20494W        W92919   7.806  16.259   4.040
20495W        W92920  23.487   5.372  10.548
20496W        W92921  10.305   5.985   0.438
20497W        W92922  36.125  41.854   3.185
20498W        W92923  17.205  16.037   1.390
20499W        W92924  42.322  23.287  14.849
20500W        W92925  36.819  12.173  13.823
20501W        W92926  25.104  21.111  10.639
20502W        W92927  19.781  11.658  11.866
20503W        W92928  34.960  21.757  13.041
20504W        W92929   9.735  43.547  11.632
20505W        W92930  22.325  14.829   2.100
20506W        W92931  24.571  44.311   0.357
20507W        W92932  32.934  22.272   1.396
20508W        W92933  23.724  37.468  10.634
20509W        W92934  30.814  14.251  11.558
20510W        W92935  13.843  23.092   3.892
20511W        W92936  41.562   8.417  13.141
20512W        W92937  38.999   6.837  13.111
20513W        W92938   6.666  25.496  11.515
20514W        W92939  16.302  29.353   0.221
20515W        W92940  37.536  44.782  12.911
20516W        W92941  37.344  23.647  11.335
20517W        W92942  14.176  23.025   2.070
20518W        W92943  20.412  33.583  14.991
20519W        W92944  44.513  11.757   5.065
20520W        W92945  33.930  30.947   2.749
20521W        W92946  10.995  36.294  14.202
20522W        W92947  10.091  11.164  10.810
20523W        W92948  16.132  18.562   3.772
20524W        W92949  16.045  13.315  14.079
20525W        W92950  24.023  12.707   3.871
20526W        W92951  41.315  13.275   0.905
20527W        W92952  37.978  28.246  13.065
20528W        W92953  16.537   8.698  11.144
20529W        W92954  41.764   9.893  10.709
20530W        W92955   1.546  37.944   4.787
20531W        W92956   5.696  39.363   0.860
20532W        W92957  10.336   9.124   5.489
20533W        W92958  29.490  27.945   2.203
20534W        W92959  15.004  32.676  11.402
20535W        W92960  42.641   8.725   2.410
20536W        W92961  34.622  32.897   0.294
20537W        W92962  22.811  44.567  11.182
20538W        W92963   6.229  40.802  10.777
20539W        W92964  23.711  18.856  10.892
20540W        W92965   0.756  25.809   0.321
20541W        W92966  44.398  26.445  11.564
20542W        W92967  30.982  41.517  10.649
20543W        W92968  31.398  38.906  11.156
20544W        W92969   5.312  12.650   3.775
20545W        W92970  26.758   9.457  12.053
20546W        W92971  44.607  20.215   4.014
20547W        W92972  25.048  42.770   0.509
20548W        W92973  20.183  42.296   0.153
20549W        W92974  24.106  15.163  10.562
20550W        W92975   8.868  33.209  12.480
20551W        W92976   1.710  28.562  14.946
20552W        W92977  22.513  17.626   4.501
20553W        W92978  40.991  14.958   3.770
20554W        W92979  26.281  14.092  11.182
20555W        W92980  40.098  32.003   4.093
20556W        W92981  21.773   8.159   0.831
20557W        W92982  13.289  43.088  12.975
20558W        W92983   1.403  10.836  12.223
20559W        W92984   0.618   1.447  10.767
20560W        W92985  33.470   4.748  11.589
20561W        W92986  21.152   0.477  10.176
20562W        W92987  19.241  14.939   3.588
20563W        W92988  15.241  41.454  13.973
20564W        W92989  12.227  22.793   1.157
20565W        W92990  24.683  10.328  11.072
20566W        W92991  42.852  15.266   0.745
20567W        W92992  41.265   7.918   2.433
20568W        W92993  22.005  40.467   0.755
20569W        W92994  39.938  14.798  14.555
20570W        W92995  33.645  44.297  14.380
20571W        W92996   0.818  20.722   2.730
20572W        W92997  17.905  41.979   1.928
20573W        W92998  16.605   0.285  13.816
20574W        W92999  22.696  41.336  11.214
20575W        W93000  42.848  42.004  13.683
20576W        W93001  35.408  11.147   4.460
20577W        W93002  33.532  40.159   1.977
20578W        W93003  32.379   9.812   1.776
20579W        W93004  17.725  19.532   1.769
20580W        W93005  15.022  21.149   2.431
20581W        W93006  41.977  27.633   4.863
20582W        W93007  42.919  20.056  13.922
20583W        W93008  23.270  31.386   2.152
20584W        W93009  36.109  13.300  10.787
20585W        W93010  11.149  33.673  11.977
20586W        W93011  28.889   5.970   3.086
20587W        W93012  35.801  30.645   4.575
20588W        W93013  14.192  11.912   3.257
20589W        W93014  44.577  43.496  11.104
20590W        W93015   3.808  26.740   1.105
20591W        W93016  15.083  24.980  10.596
20592W        W93017   5.490  31.119   1.756
20593W        W93018   2.851  15.860  10.927
20594W        W93019  13.581  30.551  10.824
20595W        W93020   0.382  19.328  14.966
20596W        W93021  12.658  31.908  12.129
20597W        W93022  23.481  31.072   2.801
20598W        W93023  18.584  44.390   0.434
20599W        W93024   6.853  41.762  14.966
20600W        W93025  23.483  34.445   2.929
20601W        W93026  24.714  21.039   1.292
20602W        W93027  30.504   4.690  10.708
20603W        W93028   7.872  42.076   3.046
20604W        W93029  38.639   3.386  14.836
20605W        W93030  43.549   8.576  10.708
20606W        W93031   7.158  23.684   0.349
20607W        W93032  36.406  29.345   3.265
20608W        W93033  32.694  41.146  11.109
20609W        W93034  34.888   8.140   4.584
20610W        W93035  23.109  18.628   4.921
20611W        W93036  43.471  14.626  13.717
20612W        W93037  32.887  41.441  12.828
20613W        W93038  42.010  38.774   4.616
20614W        W93039  39.598  16.246  12.525
20615W        W93040  32.160  24.512   3.647
20616W        W93041  28.986  10.165   1.824
20617W        W93042  30.626   3.433   4.171
20618W        W93043  38.810  22.042   3.707
20619W        W93044   2.312  14.662   4.137
20620W        W93045   5.775   1.770  13.405
20621W        W93046   6.335  40.888   2.300
20622W        W93047  29.414  42.433   2.236
20623W        W93048   2.971  33.797   0.975
20624W        W93049  39.613  28.032   1.156
20625W        W93050  10.096  43.748   1.841
20626W        W93051  25.205  37.433   1.409
20627W        W93052  39.609  15.301   0.925
20628W        W93053  11.968  18.558   5.316
20629W        W93054   6.782   1.048   3.360
20630W        W93055   0.977  15.770  11.939
20631W        W93056  32.705  15.236   4.608
20632W        W93057  30.734   8.134  14.338
20633W        W93058   6.255  42.580  14.920
20634W        W93059  32.226   3.171  13.911
20635W        W93060  20.605  36.541   1.899
20636W        W93061  23.709  44.774   1.248
20637W        W93062  13.834  29.224  10.433
20638W        W93063  18.738  35.816  10.757
20639W        W93064  12.200  31.347  12.699
20640W        W93065   5.162  32.901   0.076
20641W        W93066   1.335   9.374   4.861
20642W        W93067   3.393  37.746   0.838
20643W        W93068  14.667  40.074  14.768
20644W        W93069  19.205  44.912  10.858
20645W        W93070   4.141   3.030   3.087
20646W        W93071  13.794  31.904  13.999
20647W        W93072  40.615  22.345   2.884
20648W        W93073  37.080  19.226  10.745
20649W        W93074  24.793  35.551  14.830
20650W        W93075  19.236  40.831   2.262
20651W        W93076  30.406  16.767  12.077
20652W        W93077  26.017  13.950  14.447
20653W        W93078  18.059  30.141  13.368
20654W        W93079  32.449   9.056   0.366
20655W        W93080  44.937  15.482   1.522
20656W        W93081   4.954  42.865  12.906
20657W        W93082  22.278  32.281   3.064
20658W        W93083  11.405   7.395   1.492
20659W        W93084  38.737   8.831   3.341
20660W        W93085  15.927  42.177   3.680
20661W        W93086  34.103  19.645  13.456
20662W        W93087  17.611   4.710  13.097
20663W        W93088  19.626   1.318   0.240
20664W        W93089  16.719   4.348  10.907
20665W        W93090  30.894   3.902   1.297
20666W        W93091  39.341  27.572  10.906
20667W        W93092   8.957  28.332  13.832
20668W        W93093  32.038  35.061  11.233
20669W        W93094   0.855  24.201  10.654
20670W        W93095  43.880  23.002  11.958
20671W        W93096  36.788   4.694  13.436
20672W        W93097  16.716  37.441  11.388
20673W        W93098  40.498   5.327   4.389
20674W        W93099  27.423  29.394   0.831
20675W        W93100  13.196   0.575   2.450
20676W        W93101  32.052  38.493  13.783
20677W        W93102   0.475  24.975  12.076
20678W        W93103  41.122  36.034  11.757
20679W        W93104  32.282  31.929   3.691
20680W        W93105  20.967  31.689   3.647
20681W        W93106  35.012   9.782   4.853
20682W        W93107   6.672   8.574  14.101
20683W        W93108  24.138   1.800  14.767
20684W        W93109  21.695   1.361   1.710
20685W        W93110  25.074  40.872   1.626
20686W        W93111  38.640  10.696   0.374
20687W        W93112  21.470  16.583  11.073
20688W        W93113   4.776  26.919   4.948
20689W        W93114  32.956  41.880   4.869
20690W        W93115  36.226  44.132   2.405
20691W        W93116  36.317  36.157  14.945
20692W        W93117  41.507  17.778  14.432
20693W        W93118   7.353  37.908   3.381
20694W        W93119  38.522   4.694  14.875
20695W        W93120   0.522  19.610   1.824
20696W        W93121  13.340  40.038  11.610
20697W        W93122  18.005  26.593   3.255
20698W        W93123  29.907  11.557   4.806
20699W        W93124  26.794   7.466   1.241
20700W        W93125   5.121  44.905   2.833
20701W        W93126  24.982  39.062   4.056
20702W        W93127  41.307  13.192   1.444
20703W        W93128  36.516  30.858  10.781
20704W        W93129   5.336  33.850   2.103
20705W        W93130  26.483  21.050  11.559
20706W        W93131  19.166  40.489  11.494
20707W        W93132   9.326  13.923   3.874
20708W        W93133  35.888   6.767  14.963
20709W        W93134  28.621  43.205  11.421
20710W        W93135  18.171  12.776  11.223
20711W        W93136   3.729   3.341  12.537
20712W        W93137   5.284   1.232  12.844
20713W        W93138  33.441  19.426   2.277
20714W        W93139   4.363  13.872  14.841
20715W        W93140  44.408  42.527  13.817
20716W        W93141  36.125  23.909   4.568
20717W        W93142  20.762  17.658  12.850
20718W        W93143  25.191   1.411   4.696
20719W        W93144  25.582   2.717   3.725
20720W        W93145   5.442  40.849  11.060
20721W        W93146   6.313   5.367  13.092
20722W        W93147  32.621   4.744  13.868
20723W        W93148  20.318  15.261   2.729
20724W        W93149  21.523  29.360   2.214
20725W        W93150  16.587  10.363  12.996
20726W        W93151  25.368  38.925  14.819
20727W        W93152  26.115  19.172  11.691
20728W        W93153  21.099  22.249   4.319
20729W        W93154  44.477   3.735  14.435
20730W        W93155  14.839  22.175   1.709
20731W        W93156   2.784  18.822   1.231
20732W        W93157  32.033  17.363  11.612
20733W        W93158  23.971  20.039  10.786
20734W        W93159  39.289  19.297  13.482
20735W        W93160   7.676  36.474  10.397
20736W        W93161   2.751  23.454   1.605
20737W        W93162   1.534  18.043   0.088
20738W        W93163  35.992  27.453   2.593
20739W        W93164  37.696  43.268   0.201
20740W        W93165  31.471  19.993   1.758
20741W        W93166   0.721  20.773   1.340
20742W        W93167  10.642  16.084   0.884
20743W        W93168  22.399  39.261   2.269
20744W        W93169  28.049  20.586   0.500
20745W        W93170  15.133  10.791  11.920
20746W        W93171  44.157   4.156   0.869
20747W        W93172  42.357  29.220  13.424
20748W        W93173  39.091  20.790  11.892
20749W        W93174   1.576  24.983  11.315
20750W        W93175  35.706  24.510  12.410
20751W        W93176   7.358  12.118  12.497
20752W        W93177  43.711  43.366  11.409
20753W        W93178  22.417  28.499   3.726
20754W        W93179  32.191  43.849  13.431
20755W        W93180  13.927  30.427  12.959
20756W        W93181  24.030  36.321  14.368
20757W        W93182  26.518   8.683  12.968
20758W        W93183  37.744  22.459   0.444
20759W        W93184   2.778   2.701   3.265
20760W        W93185  27.727   6.242   2.828
20761W        W93186  29.084   4.211   4.081
20762W        W93187  22.696  42.762   4.651
20763W        W93188  44.245  14.780  12.502
20764W        W93189  23.995  29.965  11.234
20765W        W93190  40.385  25.214   9.733
20766W        W93191   2.422  17.198  12.074
20767W        W93192   4.311  34.058   1.180
20768W        W93193  22.390  38.836   1.950
20769W        W93194  14.745  23.660  11.563
20770W        W93195  37.505  20.179   3.681
20771W        W93196  16.711  23.454  11.504
20772W        W93197   4.487  27.915   0.056
20773W        W93198  33.526  26.338  12.548
20774W        W93199   1.521  25.152  12.197
20775W        W93200  36.453  32.640  11.393
20776W        W93201  35.089  36.979  14.007
20777W        W93202   5.408  32.847   2.837
20778W        W93203  20.483  27.961  14.283
20779W        W93204  38.541  10.083  13.701
20780W        W93205   4.637  21.476  11.166
20781W        W93206  10.137  32.490   0.948
20782W        W93207  18.642   9.213   2.890
20783W        W93208  35.576  21.681  11.463
20784W        W93209  34.994  30.499  13.985
20785W        W93210  17.426  11.307  12.959
20786W        W93211  12.326   6.766  12.115
20787W        W93212  14.823  24.558  13.825
20788W        W93213  23.028   5.381  14.974
20789W        W93214  35.610  12.292   3.255
20790W        W93215  42.746  36.340   1.681
20791W        W93216   7.250  13.158   3.353
20792W        W93217  44.240  38.558  13.411
20793W        W93218  22.041  25.159  13.505
20794W        W93219  44.263  39.455  14.381
20795W        W93220  13.430  33.446  14.960
20796W        W93221  25.249  31.476  12.089
20797W        W93222  38.138  44.504   5.450
20798W        W93223   0.701  37.443  10.762
20799W        W93224  11.640  43.476   3.620
20800W        W93225  39.148  38.923  11.472
20801W        W93226  25.474  20.638  14.513
20802W        W93227  31.073  31.024  14.772
20803W        W93228  24.451  20.500   4.488
20804W        W93229  25.691  34.851  11.630
20805W        W93230  25.601  28.721   0.358
20806W        W93231   0.959  22.568  10.110
20807W        W93232  24.048  36.545   3.364
20808W        W93233  11.837   0.888   0.026
20809W        W93234   2.992  30.108   2.964
20810W        W93235  21.688   3.386  10.130
20811W        W93236  42.360  29.007   4.440
20812W        W93237  23.486  44.270   0.282
20813W        W93238  13.813   8.887   0.018
20814W        W93239  24.678  15.261   1.786
20815W        W93240  40.778  18.841   4.146
20816W        W93241   7.225  42.318  11.179
20817W        W93242  12.177  36.768  13.009
20818W        W93243  28.710  35.139   1.845
20819W        W93244  28.155  17.363  14.549
20820W        W93245  29.826  12.882   4.707
20821W        W93246  22.975   8.083   2.301
20822W        W93247  43.063  32.471  12.904
20823W        W93248  38.111  36.836   1.441
20824W        W93249  30.517  31.176   1.718
20825W        W93250  27.034  42.403  11.658
20826W        W93251   8.456  15.080   0.833
20827W        W93252   8.717  32.171   2.813
20828W        W93253   7.801  17.488   2.395
20829W        W93254  41.173  43.083   2.750
20830W        W93255   7.059   3.772   0.923
20831W        W93256  33.828  41.428  11.991
20832W        W93257  11.120  44.279   2.234
20833W        W93258  21.525   1.375  11.773
20834W        W93259  42.241  19.136   0.201
20835W        W93260  11.000  28.104  10.404
20836W        W93261   6.973  10.015   1.258
20837W        W93262  32.015  23.736  12.514
20838W        W93263  26.620  32.063  13.396
20839W        W93264  23.242  14.526  12.558
20840W        W93265   4.496   6.727   1.273
20841W        W93266  33.919  43.279   1.889
20842W        W93267  34.472  41.195   4.100
20843W        W93268  29.876  22.036   0.348
20844W        W93269  21.704  16.168   0.324
20845W        W93270  21.517   2.267  12.015
20846W        W93271  18.657  38.532   3.708
20847W        W93272  18.252   8.200   0.996
20848W        W93273  39.894  40.538   1.392
20849W        W93274  18.213  12.357  12.357
20850W        W93275  10.814  21.085  11.729
20851W        W93276  36.359  36.946  11.958
20852W        W93277  23.391  27.572  14.703
20853W        W93278  26.560  44.334   2.251
20854W        W93279  34.998  23.508   0.773
20855W        W93280  21.822  41.838  11.156
20856W        W93281  41.392  23.596   3.872
20857W        W93282  20.624  29.424   0.187
20858W        W93283  30.570  42.912  12.962
20859W        W93284  36.087  39.340   4.605
20860W        W93285  22.660  17.012   1.963
20861W        W93286  12.700  28.492   1.451
20862W        W93287  38.393   7.998   2.724
20863W        W93288  29.991   4.936   3.674
20864W        W93289   3.549  34.571   1.810
20865W        W93290  32.655  16.154   9.852
20866W        W93291  16.533   9.088   0.264
20867W        W93292  40.277  38.911   1.606
20868W        W93293   8.023  26.982  13.080
20869W        W93294  36.092  19.566  13.599
20870W        W93295  42.341  14.361  12.955
20871W        W93296  44.582  30.970  14.994
20872W        W93297  36.897  32.060   3.877
20873W        W93298   7.184  18.799  12.935
20874W        W93299   8.156   8.482   5.474
20875W        W93300  16.595  30.402  12.290
20876W        W93301   0.268  30.982   0.650
20877W        W93302   8.691  18.703  13.094
20878W        W93303  25.977  33.859   4.768
20879W        W93304  44.778  27.589  14.555
20880W        W93305  44.650   8.287   4.073
20881W        W93306  37.012  43.069   1.738
20882W        W93307   5.629   3.491  13.602
20883W        W93308  35.792  44.409   2.362
20884W        W93309  26.077   0.949   3.177
20885W        W93310  34.021  42.542  12.928
20886W        W93311   9.331  44.582   2.477
20887W        W93312  29.738  35.055   4.257
20888W        W93313  27.685  13.758   3.333
20889W        W93314  42.267  36.163   0.859
20890W        W93315  40.353  22.672  11.384
20891W        W93316   4.926  27.320  12.909
20892W        W93317  38.428  32.584  12.178
20893W        W93318  23.472  27.573   4.844
20894W        W93319  34.055  39.053   1.326
20895W        W93320  26.470  16.141   2.888
20896W        W93321   1.344  38.033   1.525
20897W        W93322  23.053   8.690   5.018
20898W        W93323  11.813  38.611   1.840
20899W        W93324   7.813  37.952  10.162
20900W        W93325  30.341   8.266   4.577
20901W        W93326  15.918  33.537  13.562
20902W        W93327  11.394  43.551   0.532
20903W        W93328  16.797  40.586   4.051
20904W        W93329  10.335  41.413  13.505
20905W        W93330   5.682  14.665  12.785
20906W        W93331  38.262  21.397  12.904
20907W        W93332  31.606  16.018  12.350
20908W        W93333  12.282   4.274  10.827
20909W        W93334  18.669  14.229  11.597
20910W        W93335  41.007   5.167  13.123
20911W        W93336  36.944   5.411  12.307
20912W        W93337  21.619  16.540   3.116
20913W        W93338  28.418  32.425  10.275
20914W        W93339   9.341   6.445   4.620
20915W        W93340  31.061  18.384   3.293
20916W        W93341  34.982  32.639  10.692
20917W        W93342   4.203   4.898  12.530
20918W        W93343  37.145  32.346   4.673
20919W        W93344  30.421  13.625  12.406
20920W        W93345  24.050   9.809   3.154
20921W        W93346  25.457   1.111   2.706
20922W        W93347  44.974  12.503   4.156
20923W        W93348   1.272   7.695   4.622
20924W        W93349  35.874  25.692   0.934
20925W        W93350  13.908  25.989   2.314
20926W        W93351  38.387  27.973   1.328
20927W        W93352  36.798  38.248   4.249
20928W        W93353  10.099  15.218  12.171
20929W        W93354  18.021   4.782   1.842
20930W        W93355  40.779  18.856  14.267
20931W        W93356  27.200  27.758  14.731
20932W        W93357   4.508  15.661   2.829
20933W        W93358  26.621   4.775   1.851
20934W        W93359  23.048   7.159   2.465
20935W        W93360   8.406   8.126  12.032
20936W        W93361  12.905  16.498   0.219
20937W        W93362  30.919  33.850   3.529
20938W        W93363  42.495  32.025  13.584
20939W        W93364  23.114  43.398   2.154
20940W        W93365   6.288  22.169   2.151
20941W        W93366  20.084   5.496   2.388
20942W        W93367  38.146   7.912  14.917
20943W        W93368  25.421  14.713   4.561
20944W        W93369   1.884  30.246   4.653
20945W        W93370  26.532  22.412  10.195
20946W        W93371  35.703  26.477  11.936
20947W        W93372  42.900   6.907  10.987
20948W        W93373  17.947  40.023   2.918
20949W        W93374  16.280  14.831  13.537
20950W        W93375  17.530  20.542   0.852
20951W        W93376  12.640  28.970  14.896
20952W        W93377  26.591  26.347  14.728
20953W        W93378  42.974  32.779   2.166
20954W        W93379  12.276   0.687  14.778
20955W        W93380  12.577   2.486   3.787
20956W        W93381   8.157  14.250   2.760
20957W        W93382  22.665  26.619   2.598
20958W        W93383  38.420  23.549   1.458
20959W        W93384   7.242  20.636  13.096
20960W        W93385  42.185  36.252   3.189
20961W        W93386  21.248  26.381   2.248
20962W        W93387  10.939  23.522   3.078
20963W        W93388  40.631  10.636  11.568
20964W        W93389  32.596  44.863   1.689
20965W        W93390   6.862  20.504   1.409
20966W        W93391   9.358  32.066   1.124
20967W        W93392  10.877  26.702   4.639
20968W        W93393  29.651  23.769   2.381
20969W        W93394  24.471   4.331   2.252
20970W        W93395  29.327   1.032   0.843
20971W        W93396  32.368  11.180   4.673
20972W        W93397  20.580  26.442   1.016
20973W        W93398  40.635   6.770   0.879
20974W        W93399   1.714  18.677   1.326
20975W        W93400  24.261  19.186  10.920
20976W        W93401  35.984  14.891  13.101
20977W        W93402  32.921  35.935  11.617
20978W        W93403  28.366  27.051   3.703
20979W        W93404  37.947   5.777   1.642
20980W        W93405  10.478  16.829  13.473
20981W        W93406   2.746  28.468  11.098
20982W        W93407  20.055  41.182   3.334
20983W        W93408  38.133  11.303  14.557
20984W        W93409   1.425  42.485   2.217
20985W        W93410  10.414  17.599   2.640
20986W        W93411  43.482   5.493   0.752
20987W        W93412  24.139  11.204  13.622
20988W        W93413  38.396   4.109   1.620
20989W        W93414  30.915  26.140  13.386
20990W        W93415  37.418  38.874   1.697
20991W        W93416  25.274  19.997   1.400
20992W        W93417  42.799  28.217   3.651
20993W        W93418   0.548  25.971  12.041
20994W        W93419   3.525   6.195  14.710
20995W        W93420  43.950  14.214   3.267
20996W        W93421  22.228  34.373   4.469
20997W        W93422  33.552  13.334  12.972
20998W        W93423  36.282   2.421   4.267
20999W        W93424  39.402  17.492   0.326
21000W        W93425  25.999  39.279   2.641
21001W        W93426  11.955   1.606  11.844
21002W        W93427  26.862  38.179   0.552
21003W        W93428  31.997  41.675   1.429
21004W        W93429   6.392  43.958   9.900
21005W        W93430  14.541  34.972  13.724
21006W        W93431   8.864  20.941   3.665
21007W        W93432  26.739  16.064  11.592
21008W        W93433  34.925   6.752   1.504
21009W        W93434   0.528  32.073   1.745
21010W        W93435   9.801  24.817   2.859
21011W        W93436  25.278   4.160   4.633
21012W        W93437  16.658  28.559  12.861
21013W        W93438  17.823  44.269  13.081
21014W        W93439  20.669   3.392  12.156
21015W        W93440   7.516   8.756   1.458
21016W        W93441  21.281  25.334   4.547
21017W        W93442  28.241  33.252  12.138
21018W        W93443  23.622  18.007  13.523
21019W        W93444  44.751  44.776   1.470
21020W        W93445  43.870  31.351   0.930
21021W        W93446  24.351   9.306  10.114
21022W        W93447  29.003  42.425  13.962
21023W        W93448  21.917   7.892  11.543
21024W        W93449  27.107  40.575  14.920
21025W        W93450  22.743  39.891  11.774
21026W        W93451  27.562  41.479  12.105
21027W        W93452  37.839  37.947   0.509
21028W        W93453  18.397  15.873   3.346
21029W        W93454  13.969  41.414  12.783
21030W        W93455  23.598   8.946   4.211
21031W        W93456  15.854  25.659   0.855
21032W        W93457  36.297  38.107   4.240
21033W        W93458  28.269  14.715   2.603
21034W        W93459  31.415  19.138   3.345
21035W        W93460  29.892  25.217   0.051
21036W        W93461  23.643  40.452  12.140
21037W        W93462  44.335   4.904  14.989
21038W        W93463   5.310  32.862   0.885
21039W        W93464  40.767  27.055   1.461
21040W        W93465   1.707   0.962  13.422
21041W        W93466  38.898  10.195   4.989
21042W        W93467  35.135  39.096  14.924
21043W        W93468   8.410   0.182  12.504
21044W        W93469  16.150  42.580  12.093
21045W        W93470  41.893   5.241   5.000
21046W        W93471  36.492   4.876   1.751
21047W        W93472  36.040  32.143  12.541
21048W        W93473  37.758  22.707   1.736
21049W        W93474  26.727  16.557   2.796
21050W        W93475  15.491  10.826   0.490
21051W        W93476  34.496  16.372   1.737
21052W        W93477  37.494  19.851  13.344
21053W        W93478   3.746   6.920   0.833
21054W        W93479  41.979  19.599   3.656
21055W        W93480  34.533   4.385  13.712
21056W        W93481  27.609  33.503   4.329
21057W        W93482   2.701  28.085   4.172
21058W        W93483  28.088  21.174  14.926
21059W        W93484  29.499   1.289   3.318
21060W        W93485   4.852  41.065   1.839
21061W        W93486  19.200  36.537  14.978
21062W        W93487  43.140  34.595  12.136
21063W        W93488  42.929  11.936   0.279
21064W        W93489   8.405  30.829   0.934
21065W        W93490  37.824  42.291  12.059
21066W        W93491  39.518  38.350  12.400
21067W        W93492  33.140   2.950   4.849
21068W        W93493  29.940  36.025   3.219
21069W        W93494  12.337  34.849   0.549
21070W        W93495  23.149   5.598   0.414
21071W        W93496  10.605  42.677   4.111
21072W        W93497  20.503   6.419  10.999
21073W        W93498  19.061   4.083   3.173
21074W        W93499  38.501  42.880   3.638
21075W        W93500  37.819   8.262  10.482
21076W        W93501  21.206  12.431   0.260
21077W        W93502   8.758  31.979  12.941
21078W        W93503  32.031  11.695   2.209
21079W        W93504  18.043   7.847   1.651
21080W        W93505  20.208  18.729  12.072
21081W        W93506  41.425  36.519  12.306
21082W        W93507  32.083   0.309  13.078
21083W        W93508  12.827  41.141   1.819
21084W        W93509   1.161  26.973   1.981
21085W        W93510  25.079  15.888   0.423
21086W        W93511  33.994  42.361   2.179
21087W        W93512   8.055  29.264  12.788
21088W        W93513  34.583  27.717   4.985
21089W        W93514  41.871  39.503   2.153
21090W        W93515  28.614  18.101   4.705
21091W        W93516  16.328   1.942   5.069
21092W        W93517  33.946  15.177  14.020
21093W        W93518   0.200   5.877   4.588
21094W        W93519  19.610  25.539   4.595
21095W        W93520  26.952  23.364   1.781
21096W        W93521  14.166  15.909   4.134
21097W        W93522  13.973  22.962  13.050
21098W        W93523  37.424  27.890  13.734
21099W        W93524   4.855  10.308   4.083
21100W        W93525  34.825  15.623  12.536
21101W        W93526  12.692  39.283  14.952
21102W        W93527  29.859  21.590   1.198
21103W        W93528  40.040   5.039   3.172
21104W        W93529  18.094  22.446   0.863
21105W        W93530  12.735  22.039   3.790
21106W        W93531  13.725  44.771  14.887
21107W        W93532  33.587  35.349   2.524
21108W        W93533  25.045  40.426  11.222
21109W        W93534   6.830  31.312   4.682
21110W        W93535  14.507  30.492   2.813
21111W        W93536  42.546   8.134   3.699
21112W        W93537  41.437  13.257   4.863
21113W        W93538  37.481   7.586  12.046
21114W        W93539   0.423  13.342   3.734
21115W        W93540  40.122  17.203   3.825
21116W        W93541  10.232  10.446  13.712
21117W        W93542  25.073  19.168  11.686
21118W        W93543  39.820  21.284  13.812
21119W        W93544  28.228   2.282   4.130
21120W        W93545  29.633  26.015   0.341
21121W        W93546  27.064  30.126   1.011
21122W        W93547  30.150  11.120   4.606
21123W        W93548   3.912  32.974   3.484
21124W        W93549  39.842   9.122   0.983
21125W        W93550  15.280  44.840   3.607
21126W        W93551  33.922   4.631   3.981
21127W        W93552  26.126  33.454  10.292
21128W        W93553  19.201  12.060   0.777
21129W        W93554   6.329   6.163  14.769
21130W        W93555  39.574  25.560  11.592
21131W        W93556  40.342   7.835   4.042
21132W        W93557  35.506   7.133   2.144
21133W        W93558  32.141  35.154  14.552
21134W        W93559  27.046  40.778   3.559
21135W        W93560  30.649   6.900   3.961
21136W        W93561  32.447  12.706   3.849
21137W        W93562   8.145  27.497  12.519
21138W        W93563  20.957  16.264   4.166
21139W        W93564  36.274  37.758   0.501
21140W        W93565  12.765  18.375   2.190
21141W        W93566  11.307  25.488  12.579
21142W        W93567  16.243   8.066  12.932
21143W        W93568  36.358   8.853   1.748
21144W        W93569  11.902   1.353  14.778
21145W        W93570   6.326  42.098   1.268
21146W        W93571   6.728   4.013  12.433
21147W        W93572   0.380  11.850  13.409
21148W        W93573  32.132  12.318   1.562
21149W        W93574  22.320  29.065   0.988
21150W        W93575   7.944  29.848  14.649
21151W        W93576  22.296  38.518  11.487
21152W        W93577  35.659  14.613  10.909
21153W        W93578   4.782  24.875   3.418
21154W        W93579  22.499  11.767   1.297
21155W        W93580  39.091  40.564  12.431
21156W        W93581  17.646  17.629  11.926
21157W        W93582   4.692  26.518   3.252
21158W        W93583   1.435  30.458   2.226
21159W        W93584  36.999  42.445   4.619
21160W        W93585   5.949  31.469   0.327
21161W        W93586  39.451   5.748   3.318
21162W        W93587  23.459  14.471  10.480
21163W        W93588  37.096  10.000  13.024
21164W        W93589  33.571  25.610   2.266
21165W        W93590  41.376  12.128   1.389
21166W        W93591  14.595  11.384   0.405
21167W        W93592  15.166   7.264  12.601
21168W        W93593  12.259  18.282   0.845
21169W        W93594  30.356   0.842   2.154
21170W        W93595  36.584   0.043   3.258
21171W        W93596  14.668  28.680   1.288
21172W        W93597  29.347  22.955  12.878
21173W        W93598  24.646  37.797  14.752
21174W        W93599   9.617   9.806  13.108
21175W        W93600  28.070  39.883   1.350
21176W        W93601  32.113  34.798  14.186
21177W        W93602  38.410  27.900   0.387
21178W        W93603  21.057   8.944   1.879
21179W        W93604  40.575  24.992  13.675
21180W        W93605  30.627   2.429   0.062
21181W        W93606  14.671  42.840   0.511
21182W        W93607  27.074  38.020  13.532
21183W        W93608  33.632  37.829  10.682
21184W        W93609  25.748  23.585  10.679
21185W        W93610  33.398   4.632  13.366
21186W        W93611  34.015  20.210   2.112
21187W        W93612  31.039  28.105   1.344
21188W        W93613   6.979  28.566  11.050
21189W        W93614  39.328   2.083   0.183
21190W        W93615  13.570  10.371   1.826
21191W        W93616  17.194   2.730  10.171
21192W        W93617  17.532  18.782  13.462
21193W        W93618  31.470   6.172  13.936
21194W        W93619   8.997  29.429  11.103
21195W        W93620   0.934  39.751  10.584
21196W        W93621   4.813   4.171   2.870
21197W        W93622  14.313  13.888  14.807
21198W        W93623  23.013  37.168  12.963
21199W        W93624   7.231  40.613   1.151
21200W        W93625  12.863  16.614   4.636
21201W        W93626  23.993  31.641  14.232
21202W        W93627  44.836  40.780  10.715
21203W        W93628  17.525  35.001   0.772
21204W        W93629  21.451  16.082   3.331
21205W        W93630  43.123  24.054  12.920
21206W        W93631  15.716  30.932   1.717
21207W        W93632  25.010  10.107   4.634
21208W        W93633  11.079  33.878  11.498
21209W        W93634  44.363  26.519  13.070
21210W        W93635  21.757  17.614  14.080
21211W        W93636  10.624  17.730  11.568
21212W        W93637  35.838  35.413  12.483
21213W        W93638  35.406  20.320  14.494
21214W        W93639  28.622  42.359  14.287
21215W        W93640  28.561  25.417   2.956
21216W        W93641  43.235   1.974  14.777
21217W        W93642  30.904  37.764   0.277
21218W        W93643  40.842  29.133   2.663
21219W        W93644  18.113  28.247   0.244
21220W        W93645  17.480   2.283   5.656
21221W        W93646   0.690  44.447   4.217
21222W        W93647  17.717   8.895  14.482
21223W        W93648  39.467  35.634  13.043
21224W        W93649  44.976  20.028  13.966
21225W        W93650  41.594   1.073  10.629
21226W        W93651  41.012  29.679  12.464
21227W        W93652  42.290  36.991  14.241
21228W        W93653  33.355  42.795  13.014
21229W        W93654  39.853  17.774   0.280
21230W        W93655  16.731  13.494   3.399
21231W        W93656  31.641  33.417   0.919
21232W        W93657   8.662  34.733  14.497
21233W        W93658   4.887   2.139  14.813
21234W        W93659  42.896  13.815  11.684
21235W        W93660  18.365   7.346  14.341
21236W        W93661   6.064  19.261   3.272
21237W        W93662  11.864  25.479   2.866
21238W        W93663   5.445  10.190   3.408
21239W        W93664  10.136  41.023  13.833
21240W        W93665  31.460  24.699   0.935
21241W        W93666  20.987   5.899  12.644
21242W        W93667   5.974  15.627   2.725
21243W        W93668  36.528  33.662   0.678
21244W        W93669  44.741   8.233   3.167
21245W        W93670   5.171   4.854   1.046
21246W        W93671  39.126  35.019  12.481
21247W        W93672  24.309   4.254   1.739
21248W        W93673  10.838  22.821   3.796
21249W        W93674  19.705  28.669  14.375
21250W        W93675  21.212  42.305   0.260
21251W        W93676   8.156  32.123   1.366
21252W        W93677  39.785   5.139  13.817
21253W        W93678  11.472  42.892   5.056
21254W        W93679   5.874  37.065  12.508
21255W        W93680   1.306  32.869   1.286
21256W        W93681   4.795  10.047   2.629
21257W        W93682   1.062  30.140  12.458
21258W        W93683  30.498  41.369  10.430
21259W        W93684  23.526  17.029   0.225
21260W        W93685   9.157  14.689  14.556
21261W        W93686   1.293  13.698   4.661
21262W        W93687  19.554  18.984   1.486
21263W        W93688  25.036   4.262  14.428
21264W        W93689  41.238  21.264  13.817
21265W        W93690  18.252  35.969  10.601
21266W        W93691   6.782  42.341   4.079
21267W        W93692  17.335  24.608   0.017
21268W        W93693  14.751  25.680  13.312
21269W        W93694  10.424   1.931  13.874
21270W        W93695  11.006  28.171  11.569
21271W        W93696  14.173  10.863  14.386
21272W        W93697   7.344   8.556   3.357
21273W        W93698  39.112   6.748   2.259
21274W        W93699  20.104   2.471  12.901
21275W        W93700   9.143  42.911  10.727
21276W        W93701  18.476  26.092  14.548
21277W        W93702  37.132  28.238  13.489
21278W        W93703   8.901  28.510   4.646
21279W        W93704  10.643   3.978  12.042
21280W        W93705  37.029  20.092  10.562
21281W        W93706  42.076  28.027  10.623
21282W        W93707  36.988   1.454  14.345
21283W        W93708  28.152  35.568   0.290
21284W        W93709  24.162  16.102   3.403
21285W        W93710  34.867  32.573   1.742
21286W        W93711   6.986  38.786  11.448
21287W        W93712   2.780  17.271  14.819
21288W        W93713  19.887  33.967   1.363
21289W        W93714  19.636   5.289   2.216
21290W        W93715   4.062  10.279  13.270
21291W        W93716  19.957  14.083  14.466
21292W        W93717  26.706  16.804  14.485
21293W        W93718  22.167  34.884  14.068
21294W        W93719   5.245  10.467  13.992
21295W        W93720  34.837  44.521   3.257
21296W        W93721   1.786   2.521  14.460
21297W        W93722  39.329  14.720   3.300
21298W        W93723  16.777  25.775  12.950
21299W        W93724  39.388  18.483  12.544
21300W        W93725  16.198  10.865  13.361
21301W        W93726  39.937  22.783  12.556
21302W        W93727  10.003  20.011   4.571
21303W        W93728  21.500  40.102  11.091
21304W        W93729   0.266  10.891   4.207
21305W        W93730   1.413  14.887   0.304
21306W        W93731  25.763   5.674   0.395
21307W        W93732   7.390  35.476   5.091
21308W        W93733  14.107   2.081  11.404
21309W        W93734  10.381  14.857  11.238
21310W        W93735   4.902  15.919   0.977
21311W        W93736  39.191  18.322  12.053
21312W        W93737  37.106  21.859   4.505
21313W        W93738  35.420  43.712   0.293
21314W        W93739  13.310  28.547   0.312
21315W        W93740   7.035   1.062  12.308
21316W        W93741  42.336  37.609   3.686
21317W        W93742  34.564  25.736   3.648
21318W        W93743  17.985  40.137  12.390
21319W        W93744  10.729   6.337   2.495
21320W        W93745  36.322  33.887   3.657
21321W        W93746  15.978  42.693   3.833
21322W        W93747  22.966   6.245   2.171
21323W        W93748  15.043  11.584  13.572
21324W        W93749   0.169  18.851   1.440
21325W        W93750  29.063   5.625   4.572
21326W        W93751  27.169  32.891   2.306
21327W        W93752  35.943  36.126  14.164
21328W        W93753  30.995  43.492  13.302
21329W        W93754  17.535  43.004  14.952
21330W        W93755   2.340  27.551  11.675
21331W        W93756  25.202   8.615  12.510
21332W        W93757  36.855  42.225   2.422
21333W        W93758  30.411  38.090  11.001
21334W        W93759  35.079  39.370   2.693
21335W        W93760  15.297  31.057  13.729
21336W        W93761  15.624   2.032  14.862
21337W        W93762  26.522  10.876   4.580
21338W        W93763   3.091  38.383  13.551
21339W        W93764  26.523  33.089   1.581
21340W        W93765  24.161  25.117  11.227
21341W        W93766  18.636  13.644   2.715
21342W        W93767  32.836  22.643  10.353
21343W        W93768  17.760  13.886  12.403
21344W        W93769   4.688  27.817  12.761
21345W        W93770  18.298  28.178   0.710
21346W        W93771   5.354  29.727   4.382
21347W        W93772  16.409  35.648   2.187
21348W        W93773  40.316  39.625  14.827
21349W        W93774  12.667  27.205  13.556
21350W        W93775   6.852   0.395  14.319
21351W        W93776   6.391  41.540   4.127
21352W        W93777  43.909  11.846   3.285
21353W        W93778  16.095   1.828  12.609
21354W        W93779  20.287  20.055  12.941
21355W        W93780  13.342  30.108  10.684
21356W        W93781  21.806  17.677  10.411
21357W        W93782   9.383  22.097   2.633
21358W        W93783  19.850   3.793   3.145
21359W        W93784   4.203  19.771  11.023
21360W        W93785  15.142  28.198   3.283
21361W        W93786  43.952  39.941   1.829
21362W        W93787  26.390  28.731  13.673
21363W        W93788  29.686  34.351  11.485
21364W        W93789  40.295  40.428  11.693
21365W        W93790  41.994  41.068   2.722
21366W        W93791  12.587   3.925  11.251
21367W        W93792  29.420  37.000   1.215
21368W        W93793  42.010  10.784  14.369
21369W        W93794  10.310  11.483  13.942
21370W        W93795  30.675  36.064   1.530
21371W        W93796  28.089  17.494   4.137
21372W        W93797  23.989   2.937   0.663
21373W        W93798   8.214  35.615   3.753
21374W        W93799  31.084  19.050   4.120
21375W        W93800  13.493  21.548  11.513
21376W        W93801   2.279  33.907  14.420
21377W        W93802  10.246  21.701   1.248
21378W        W93803  24.489   4.379  12.002
21379W        W93804  41.771  16.062   3.571
21380W        W93805  34.084  25.124  12.279
21381W        W93806  19.662  17.064   0.383
21382W        W93807  26.516   2.708   3.763
21383W        W93808   9.288  33.641   0.336
21384W        W93809  20.654   8.301   3.563
21385W        W93810  29.919  10.556   1.859
21386W        W93811  25.590   7.428  10.180
21387W        W93812   7.612  20.001   0.571
21388W        W93813  27.474  11.194   3.688
21389W        W93814   4.900  41.025  11.143
21390W        W93815  35.791  21.629   0.500
21391W        W93816  25.163  21.224   0.004
21392W        W93817  12.121  35.908   0.307
21393W        W93818   1.005  11.903  14.817
21394W        W93819  20.561  26.062  11.418
21395W        W93820  11.727  34.522  11.657
21396W        W93821   6.151   9.897  11.941
21397W        W93822  44.819  36.572  11.998
21398W        W93823  34.484   9.397  11.841
21399W        W93824  29.595  36.341  10.528
21400W        W93825  32.082  29.662  13.964
21401W        W93826  13.436  42.802   0.449
21402W        W93827  37.952  17.157   3.322
21403W        W93828  12.899   9.752   3.683
21404W        W93829   3.773   3.310   3.325
21405W        W93830  41.303  38.454   3.279
21406W        W93831  23.902   7.059   3.550
21407W        W93832  11.337  11.830   1.864
21408W        W93833  13.445   3.435  14.774
21409W        W93834  11.598  39.916   3.700
21410W        W93835  31.317  16.278   0.480
21411W        W93836  35.212  15.227   3.893
21412W        W93837   4.675   5.855  13.421
21413W        W93838   6.306  37.884   2.245
21414W        W93839  41.453  31.434   1.168
21415W        W93840  26.786  31.119   2.139
21416W        W93841  26.978   9.437  13.952
21417W        W93842   0.384   1.377   0.064
21418W        W93843  16.177  22.253   2.755
21419W        W93844   6.377  10.292  10.676
21420W        W93845  22.748  44.093  13.026
21421W        W93846  17.064  12.596  10.682
21422W        W93847   3.764  33.537  13.554
21423W        W93848  43.005  22.056   1.778
21424W        W93849  35.860  10.777  13.939
21425W        W93850  26.105  38.938  12.608
21426W        W93851   7.950  25.313  12.462
21427W        W93852  18.047  41.828  11.527
21428W        W93853  39.985  19.182  12.141
21429W        W93854  41.696  35.910   0.910
21430W        W93855  20.594   4.235  11.561
21431W        W93856  32.681  19.029   2.110
21432W        W93857   6.753  26.175  13.649
21433W        W93858  20.569  38.513  11.858
21434W        W93859  26.716  16.165   4.627
21435W        W93860  20.068  18.680   1.851
21436W        W93861  36.762  15.497  11.189
21437W        W93862  25.094  24.711  12.185
21438W        W93863   7.685  44.488   2.352
21439W        W93864   7.819  28.139  14.337
21440W        W93865  37.501   5.355  13.523
21441W        W93866  21.807  10.711   3.736
21442W        W93867  18.151  32.986  13.843
21443W        W93868  19.545  11.630  13.972
21444W        W93869  38.898  34.980  13.303
21445W        W93870   7.826  17.636  14.009
21446W        W93871  15.609  34.747   3.629
21447W        W93872   8.245  20.418  13.227
21448W        W93873  32.361  39.109  10.360
21449W        W93874   8.198  42.593   2.575
21450W        W93875  36.593  42.833   0.838
21451W        W93876  13.330   8.616   4.048
21452W        W93877  11.161  32.970  12.365
21453W        W93878  16.649  21.950   2.237
21454W        W93879   9.734  33.962   4.996
21455W        W93880  11.719  42.692   0.969
21456W        W93881   9.325  23.585   4.165
21457W        W93882  28.113   2.094   1.394
21458W        W93883  19.430  18.269  12.331
21459W        W93884   3.098  17.685  14.858
21460W        W93885  26.437   1.778   2.229
21461W        W93886   3.272  40.288  14.595
21462W        W93887  14.297   0.570   1.832
21463W        W93888  36.211  16.182  12.985
21464W        W93889  32.818  36.760   3.332
21465W        W93890   2.842  22.641   1.271
21466W        W93891  37.363  41.362  14.126
21467W        W93892  44.620  33.573   1.762
21468W        W93893  42.967  15.291  13.838
21469W        W93894   5.848  40.823   2.977
21470W        W93895  16.518  28.495   3.931
21471W        W93896  12.292  14.249   2.270
21472W        W93897  43.588  13.180   4.363
21473W        W93898   9.845  26.052   0.554
21474W        W93899  34.188   6.373  11.891
21475W        W93900  30.190  11.381  14.447
21476W        W93901  34.986  28.684   1.398
21477W        W93902  29.240   7.406   4.636
21478W        W93903  41.553   4.823  13.072
21479W        W93904  32.698  28.851   2.553
21480W        W93905  29.653  16.636   4.121
21481W        W93906  41.050  23.477  13.429
21482W        W93907  16.359  27.872   1.227
21483W        W93908  18.748   8.730  14.300
21484W        W93909   7.051  44.124  11.107
21485W        W93910   2.288  31.387   2.757
21486W        W93911  19.050  22.976   3.293
21487W        W93912  22.433  36.010  14.876
21488W        W93913   6.225  17.659   1.285
21489W        W93914  10.886   0.029  11.443
21490W        W93915  32.341   7.729   4.633
21491W        W93916   0.488  31.601  14.051
21492W        W93917  44.083  11.664  13.966
21493W        W93918  43.268  15.125   1.341
21494W        W93919   3.959   0.381  13.944
21495W        W93920  15.676   2.526   3.951
21496W        W93921  29.900  38.632  13.096
21497W        W93922  17.230  22.746  10.541
21498W        W93923  27.916   1.245   0.500
21499W        W93924  10.776  41.503   2.196
21500W        W93925  13.642  40.793  14.302
21501W        W93926  14.212  20.654  11.599
21502W        W93927  37.420  21.625   4.887
21503W        W93928  20.204  41.010  12.460
21504W        W93929   1.340  40.557   3.320
21505W        W93930  11.199  24.914  14.829
21506W        W93931  32.292  13.521   4.478
21507W        W93932  24.588  13.359   1.206
21508W        W93933  39.476  16.350   1.027
21509W        W93934  39.949  24.848  11.102
21510W        W93935  37.441  41.906   1.542
21511W        W93936  39.523  23.605  14.842
21512W        W93937  36.794  36.166  11.805
21513W        W93938  34.219  32.057   3.514
21514W        W93939  44.322   0.567   4.590
21515W        W93940  12.103  10.379  11.148
21516W        W93941  22.052  15.641  14.247
21517W        W93942  43.203  22.059  13.967
21518W        W93943  41.231  12.647  11.466
21519W        W93944  12.688  42.304   3.173
21520W        W93945  41.979  35.549  13.153
21521W        W93946   3.713  17.318  11.398
21522W        W93947   7.427  38.156  13.368
21523W        W93948   8.725  37.196  10.624
21524W        W93949  23.986  37.578   2.797
21525W        W93950   4.952  24.180  14.236
21526W        W93951   6.951  18.031   4.331
21527W        W93952   5.827  32.917   3.158
21528W        W93953   1.779  15.490   5.260
21529W        W93954  20.217  39.953   0.845
21530W        W93955  22.588  41.890   3.819
21531W        W93956  16.171  22.031  12.375
21532W        W93957  26.131  25.484  12.156
21533W        W93958  38.401  30.259  12.582
21534W        W93959  37.532  35.489  13.390
21535W        W93960  15.332  35.444  12.666
21536W        W93961  13.200  15.811  14.520
21537W        W93962   6.477  17.790   2.374
21538W        W93963  41.473   8.592   4.148
21539W        W93964  19.111  16.476   2.823
21540W        W93965   2.387  26.264  13.984
21541W        W93966  35.048  36.514  13.364
21542W        W93967  25.537  23.260  13.540
21543W        W93968  15.288  43.294  12.951
21544W        W93969  22.624  33.008  11.516
21545W        W93970  40.396   5.384  11.203
21546W        W93971  29.514  35.511   0.262
21547W        W93972   5.036   8.141   5.093
21548W        W93973  21.620  24.520  11.970
21549W        W93974  21.967   5.361   0.885
21550W        W93975  27.427  40.923   3.926
21551W        W93976  12.798  38.404   4.438
21552W        W93977  21.556  33.349   1.343
21553W        W93978   4.416  10.271   4.756
21554W        W93979  27.009  35.965  14.940
21555W        W93980  10.628  27.130   0.396
21556W        W93981  31.629  21.740  14.094
21557W        W93982   6.891  21.462   0.090
21558W        W93983  39.373  43.842   1.411
21559W        W93984   0.880  40.121   0.322
21560W        W93985  28.660  16.196   1.895
21561W        W93986  21.077  41.535   1.318
21562W        W93987   7.121   1.756   1.386
21563W        W93988   2.757  40.993  12.094
21564W        W93989  40.304   4.214  13.946
21565W        W93990  44.461  22.237  14.800
21566W        W93991  28.783  17.735   0.366
21567W        W93992  10.209  21.060   3.853
21568W        W93993   1.300   0.853  10.563
21569W        W93994  38.891  44.524   9.876
21570W        W93995  27.513   0.739  11.441
21571W        W93996   3.708   8.378  14.737
21572W        W93997  10.229   6.718  10.417
21573W        W93998  41.412   1.354  12.358
21574W        W93999  18.966  12.796   3.110
21575W        W94000  35.782  13.980   4.155
21576W        W94001  10.701  16.657  10.702
21577W        W94002  40.348  24.580   1.973
21578W        W94003  34.907  32.351  11.977
21579W        W94004  40.053  15.811   2.813
21580W        W94005   9.647  32.194   2.491
21581W        W94006  27.019  41.859   1.795
21582W        W94007  24.863   9.876   0.743
21583W        W94008  37.007  18.234  13.026
21584W        W94009   6.406   5.402  14.264
21585W        W94010  11.845  34.104   0.527
21586W        W94011  20.237   9.822   3.786
21587W        W94012  42.123  22.485  13.014
21588W        W94013  30.182  30.334  11.070
21589W        W94014  38.498  40.403   0.497
21590W        W94015  33.028  28.176   4.140
21591W        W94016  17.434  27.506   1.545
21592W        W94017  16.537  12.275   1.371
21593W        W94018  17.066   1.390   0.325
21594W        W94019  36.269   7.469   4.628
21595W        W94020   1.503   8.302   2.333
21596W        W94021   7.336  12.318   3.720
21597W        W94022  15.513  10.135  14.846
21598W        W94023  12.332   8.359   1.946
21599W        W94024  25.021  13.126   2.279
21600W        W94025  27.160   1.593  12.907
21601W        W94026  14.853  15.905   4.666
21602W        W94027  13.308  37.542   5.193
21603W        W94028  16.694  15.811  11.537
21604W        W94029  44.660  10.269  13.859
21605W        W94030  29.324  15.699   9.766
21606W        W94031   4.661   7.488   2.766
21607W        W94032  16.633   1.017  12.048
21608W        W94033  44.334  43.550   4.578
21609W        W94034  37.599  43.937  14.910
21610W        W94035   3.168  31.735   3.018
21611W        W94036  31.939  44.841  12.858
21612W        W94037  27.130  10.139  12.693
21613W        W94038  29.414  21.988   0.095
21614W        W94039  21.996  18.810   2.320
21615W        W94040   6.361  42.449   0.406
21616W        W94041  26.439  23.224  11.041
21617W        W94042  33.836  24.117  13.779
21618W        W94043  22.811  28.458   1.494
21619W        W94044  22.289  37.785   4.360
21620W        W94045  25.974  24.132   3.615
21621W        W94046   3.488  28.182   0.960
21622W        W94047  20.668  43.997  11.178
21623W        W94048  31.112   1.433   0.977
21624W        W94049  24.481   7.701   4.021
21625W        W94050  23.690  25.235   2.721
21626W        W94051   0.318  36.490   2.944
21627W        W94052  16.635  11.065   4.630
21628W        W94053   6.818  26.985  12.944
21629W        W94054  17.743  29.023   1.146
21630W        W94055   3.267   6.800   0.916
21631W        W94056  30.924  44.843  10.632
21632W        W94057   8.093  11.277   1.026
21633W        W94058  25.090  30.979   3.387
21634W        W94059   8.724   5.744  13.548
21635W        W94060  30.012  24.081  10.560
21636W        W94061  12.874  44.774   3.230
21637W        W94062  12.630  21.575   2.735
21638W        W94063   3.284  34.028   2.863
21639W        W94064  10.510  31.890  14.275
21640W        W94065  22.498   6.102   2.913
21641W        W94066  10.878  20.210  13.038
21642W        W94067   0.446  29.132   3.729
21643W        W94068  42.949  18.704  11.952
21644W        W94069  15.230  12.610   3.611
21645W        W94070  25.568  34.626  12.107
21646W        W94071  40.733  10.818   3.472
21647W        W94072  26.465  21.030   5.228
21648W        W94073  29.366  43.859  13.954
21649W        W94074  14.897   1.463  11.900
21650W        W94075  21.981  16.494  11.125
21651W        W94076  37.707  29.912   1.141
21652W        W94077   9.181  31.421   0.358
21653W        W94078   7.215  37.652  10.706
21654W        W94079  25.285  29.243   0.355
21655W        W94080   3.121  31.354  11.809
21656W        W94081  44.160  29.719  13.358
21657W        W94082  30.445  23.809   1.349
21658W        W94083  42.272  30.702  10.925
21659W        W94084  42.405  28.519   1.778
21660W        W94085  39.368   1.461  10.959
21661W        W94086   3.371  42.922  14.039
21662W        W94087  36.977  27.813   3.324
21663W        W94088  10.340  37.784   3.367
21664W        W94089  36.004  28.415  14.791
21665W        W94090  27.874  35.531   3.570
21666W        W94091  39.496   9.484   2.652
21667W        W94092  23.820   4.829   2.821
21668W        W94093  13.424  10.303   1.253
21669W        W94094  11.206  23.752  13.394
21670W        W94095   3.988  32.084   0.891
21671W        W94096  21.986  35.587   4.059
21672W        W94097  41.537  40.875   2.477
21673W        W94098  26.532  27.648   3.684
21674W        W94099  18.630  22.295  10.784
21675W        W94100  38.587   6.152  11.488
21676W        W94101  44.563   9.850   1.564
21677W        W94102  14.656  11.155   1.843
21678W        W94103   2.347  16.761  14.599
21679W        W94104   2.133  22.168   4.220
21680W        W94105  20.164  20.294  12.015
21681W        W94106  10.381  15.773  10.617
21682W        W94107  26.063  42.301  10.715
21683W        W94108  36.584  43.944  14.870
21684W        W94109  28.803  11.934  14.628
21685W        W94110  29.010  29.099  13.952
21686W        W94111  39.007   3.913  12.614
21687W        W94112  41.776  29.042  14.136
21688W        W94113  10.754   4.081   4.228
21689W        W94114  40.027  24.925   2.206
21690W        W94115  15.778  12.023  11.946
21691W        W94116  42.208   4.319  12.446
21692W        W94117  11.823  19.499   5.228
21693W        W94118  28.691  31.518   0.291
21694W        W94119  25.382  42.793  13.469
21695W        W94120  22.679  16.136  13.239
21696W        W94121  10.375   2.079  11.991
21697W        W94122  40.246  14.586  14.022
21698W        W94123  30.485   4.964  12.943
21699W        W94124  34.394  39.148  11.154
21700W        W94125  44.504  12.212  10.898
21701W        W94126  17.623   1.855  12.529
21702W        W94127   8.968  35.558  12.816
21703W        W94128  26.152  10.409  11.039
21704W        W94129  32.415  14.242   2.712
21705W        W94130  19.810   2.236  11.577
21706W        W94131   0.370  15.787   0.678
21707W        W94132  21.025  15.768   2.601
21708W        W94133  33.957  28.904  13.592
21709W        W94134  44.569  21.488   3.589
21710W        W94135   9.305  20.878   2.357
21711W        W94136  40.876   3.968  14.313
21712W        W94137  19.622  11.650  10.952
21713W        W94138  18.644  10.605  12.012
21714W        W94139  38.112  28.594  13.428
21715W        W94140  39.911  34.236  13.976
21716W        W94141  13.687   3.615  13.798
21717W        W94142  43.562  16.023   3.698
21718W        W94143   2.432  10.947   2.225
21719W        W94144  27.990  24.651   3.704
21720W        W94145  42.630  28.589  14.549
21721W        W94146  44.857   6.269   4.725
21722W        W94147  41.993  34.510   3.664
21723W        W94148  15.238   2.019   2.471
21724W        W94149  13.297  21.990   4.089
21725W        W94150  15.660  22.572   0.789
21726W        W94151  25.662  29.354   2.030
21727W        W94152   5.378  44.162  14.997
21728W        W94153  29.086  25.528  14.434
21729W        W94154  31.731  25.979  13.914
21730W        W94155  20.565  34.359  12.039
21731W        W94156   7.347  18.916   4.188
21732W        W94157  43.012   9.282   0.503
21733W        W94158  29.535  10.583   3.756
21734W        W94159  19.482  22.041  11.080
21735W        W94160  14.216  32.160  14.971
21736W        W94161  25.291  27.091   3.645
21737W        W94162  12.617  29.858  12.828
21738W        W94163  31.878   8.832  12.960
21739W        W94164  44.211  26.181   3.255
21740W        W94165  35.654  39.449   3.434
21741W        W94166  26.711  37.990   0.092
21742W        W94167  44.072  39.967  14.382
21743W        W94168  33.396  15.745   4.004
21744W        W94169   6.726  22.960   2.313
21745W        W94170  23.680  14.722  12.356
21746W        W94171   3.734   7.312  13.405
21747W        W94172  24.933  43.756  13.968
21748W        W94173  10.226  31.362  12.087
21749W        W94174  28.192  39.032  11.079
21750W        W94175  35.475   7.835   0.804
21751W        W94176  38.145  35.452   3.504
21752W        W94177   4.193  21.523  14.938
21753W        W94178  34.095  28.496   4.588
21754W        W94179  33.356  35.315   0.372
21755W        W94180  21.054  30.582   4.991
21756W        W94181  29.161   6.377   3.865
21757W        W94182  25.856  25.773   0.263
21758W        W94183  39.487  36.850   1.331
21759W        W94184  40.090   1.043  13.490
21760W        W94185  28.644  34.848   3.616
21761W        W94186   3.639  44.825  12.349
21762W        W94187  34.017   8.765  13.009
21763W        W94188  44.013  25.227  14.906
21764W        W94189   4.250  25.202  11.972
21765W        W94190  29.646  30.878   0.726
21766W        W94191   3.897  14.571  13.850
21767W        W94192  33.607  20.587   2.172
21768W        W94193  32.277  44.248   3.997
21769W        W94194  39.562  39.623  13.571
21770W        W94195  35.351  15.009   0.085
21771W        W94196  31.388  29.526   0.263
21772W        W94197  12.738  16.690  12.875
21773W        W94198  41.026  36.458  14.816
21774W        W94199   0.399  28.163   4.671
21775W        W94200  44.419  18.087   2.003
21776W        W94201  23.373  40.531  14.952
21777W        W94202   8.755  10.259   3.593
21778W        W94203  10.396  13.563  10.619
21779W        W94204  37.960  35.076  11.995
21780W        W94205  27.586  43.545   3.613
21781W        W94206  33.857   2.811  13.056
21782W        W94207  27.692   4.534  14.430
21783W        W94208  33.025  33.619  10.638
21784W        W94209  23.446  37.329  14.500
21785W        W94210  27.308  34.518   2.069
21786W        W94211   4.791  23.751  13.983
21787W        W94212   0.046  18.955  14.731
21788W        W94213  42.511  25.118  13.865
21789W        W94214  23.472  35.311   2.459
21790W        W94215  14.821   5.790  10.926
21791W        W94216  38.850  15.583  11.162
21792W        W94217  10.163  44.576  13.120
21793W        W94218   4.814  34.777   0.921
21794W        W94219  27.668   8.586   2.366
21795W        W94220  20.788  13.018  13.910
21796W        W94221  28.699  30.989  12.036
21797W        W94222  25.901  31.134  12.288
21798W        W94223  26.502  10.844  12.043
21799W        W94224   5.935  19.495  14.480
21800W        W94225  12.519  33.601  11.257
21801W        W94226  23.491   5.807   4.107
21802W        W94227  42.043  11.703   0.461
21803W        W94228  41.734  25.645   0.796
21804W        W94229  43.931  11.144   3.656
21805W        W94230   8.758  21.976  12.568
21806W        W94231  43.733  21.490  11.048
21807W        W94232   2.721   7.578  11.599
21808W        W94233  42.893  23.041   4.925
21809W        W94234  21.265  17.852  11.104
21810W        W94235   2.629  26.154   4.948
21811W        W94236  21.076  36.539   3.124
21812W        W94237  37.118  22.077  10.260
21813W        W94238   2.690  41.526   3.505
21814W        W94239  28.007   9.785  13.779
21815W        W94240   5.662  43.279  11.147
21816W        W94241   6.443   9.423  12.569
21817W        W94242  33.937  42.354  11.489
21818W        W94243  28.076  14.535   0.354
21819W        W94244  20.072  31.502   4.149
21820W        W94245  14.354  13.289  13.920
21821W        W94246   7.317  13.274   4.625
21822W        W94247   6.272  10.119  11.184
21823W        W94248   8.759   5.423  10.994
21824W        W94249  11.916  34.964   0.247
21825W        W94250  20.229  16.868  11.499
21826W        W94251  23.452   4.036  14.857
21827W        W94252  29.114  30.980   1.444
21828W        W94253   8.833  40.468   0.707
21829W        W94254  15.600  20.572   0.813
21830W        W94255   7.447  34.641  10.430
21831W        W94256   4.226  26.806  11.143
21832W        W94257  10.578   2.111  12.881
21833W        W94258  14.904  13.797   0.807
21834W        W94259  39.470   6.180  11.542
21835W        W94260  19.310  29.601   5.513
21836W        W94261   5.333   8.129   1.592
21837W        W94262  24.115  19.349   2.315
21838W        W94263  35.863  15.468  10.312
21839W        W94264  25.711  28.032  11.571
21840W        W94265  25.535  18.709  14.013
21841W        W94266  32.967  43.070  13.507
21842W        W94267  11.772  35.140  10.681
21843W        W94268  42.527  44.938  14.866
21844W        W94269  25.663   9.227   2.231
21845W        W94270  25.145  26.534  11.192
21846W        W94271  37.486  27.930  14.251
21847W        W94272   1.366  44.318   1.681
21848W        W94273  23.433  42.960  11.644
21849W        W94274   7.468  16.051   2.764
21850W        W94275   4.815  44.392  14.794
21851W        W94276  23.021  39.794   0.289
21852W        W94277  18.321   0.353   1.263
21853W        W94278  16.585  34.541  14.688
21854W        W94279  38.434  42.314  11.397
21855W        W94280  31.456  38.323   3.275
21856W        W94281  34.962  34.820  11.522
21857W        W94282  18.436  14.627   4.546
21858W        W94283  28.051   5.931   3.117
21859W        W94284  14.185  22.746   1.091
21860W        W94285  19.633  39.354   1.192
21861W        W94286  41.017   2.925   3.955
21862W        W94287  40.020  15.801  13.356
21863W        W94288   2.312  33.625  13.436
21864W        W94289   9.214  10.858   1.088
21865W        W94290  28.612  16.363   4.665
21866W        W94291  30.566  37.281   3.386
21867W        W94292   8.650   1.988   1.056
21868W        W94293   2.691  20.531  14.957
21869W        W94294  22.655  33.055  14.163
21870W        W94295  32.911   7.217   0.765
21871W        W94296  42.866  17.746  10.746
21872W        W94297  13.246  12.646   3.626
21873W        W94298  38.837  39.981  11.132
21874W        W94299  29.314  11.780  13.072
21875W        W94300  11.414  23.587  12.943
21876W        W94301  10.156  42.479  14.088
21877W        W94302  38.032  10.204  10.990
21878W        W94303  12.880  31.868  10.782
21879W        W94304  35.395  30.921  13.810
21880W        W94305  15.349  24.976  13.434
21881W        W94306  40.410  44.745   3.217
21882W        W94307   6.232   1.818   1.595
21883W        W94308  37.100   0.682  14.736
21884W        W94309  19.760  26.931  12.664
21885W        W94310  38.309  37.058   0.438
21886W        W94311  33.928   0.226  12.943
21887W        W94312   3.340  20.074   2.343
21888W        W94313  18.947  35.374   3.105
21889W        W94314  35.269  44.887  12.077
21890W        W94315   4.272  44.778   4.523
21891W        W94316   5.382  22.710   2.314
21892W        W94317  29.152   7.607   2.609
21893W        W94318  24.210   9.371   1.801
21894W        W94319  12.214   0.262  14.468
21895W        W94320  12.191  20.722   3.617
21896W        W94321  44.424   5.777  13.857
21897W        W94322  40.395  14.387  13.569
21898W        W94323  20.237  20.553  11.574
21899W        W94324  18.195  18.610  14.947
21900W        W94325  42.698  10.823  13.581
21901W        W94326   0.507  14.852   4.132
21902W        W94327  29.861  22.112  12.171
21903W        W94328  14.219  27.162   1.838
21904W        W94329   1.229  44.672  13.481
21905W        W94330   7.242  29.643  14.993
21906W        W94331  38.304  10.118  10.566
21907W        W94332  44.298  21.049  13.339
21908W        W94333  37.205  20.091  11.050
21909W        W94334  14.276  28.294  13.888
21910W        W94335  16.071   2.022   5.512
21911W        W94336  26.570   2.182  10.609
21912W        W94337   5.637  44.536  12.892
21913W        W94338  27.927   1.369   1.009
21914W        W94339  25.923   0.870   3.680
21915W        W94340  20.976  36.426  11.211
21916W        W94341  35.790  42.307   3.145
21917W        W94342  39.595  39.734   3.600
21918W        W94343  18.281  22.005   4.440
21919W        W94344  20.775   8.015  13.326
21920W        W94345  14.582   7.116  11.090
21921W        W94346  13.048  24.492  11.977
21922W        W94347   0.240  20.681  11.394
21923W        W94348  16.032  43.943   3.178
21924W        W94349  17.041  29.488   4.697
21925W        W94350  10.512  10.682  12.868
21926W        W94351   9.742  33.088   3.954
21927W        W94352   1.891  33.367   4.378
21928W        W94353  21.082   2.229  13.089
21929W        W94354  15.500   8.992  12.639
21930W        W94355  38.065  26.950   3.461
21931W        W94356  27.711  18.317   0.925
21932W        W94357  22.486  33.870  14.825
21933W        W94358  23.231  12.973  13.836
21934W        W94359  17.056  19.294  14.260
21935W        W94360  12.384   1.928   2.736
21936W        W94361  13.903  34.002   2.198
21937W        W94362  26.651  14.334   3.395
21938W        W94363  32.046   7.027   3.542
21939W        W94364   3.260  22.556  13.036
21940W        W94365  10.836  26.933  13.827
21941W        W94366   4.353   0.882  12.623
21942W        W94367   7.328  28.029   1.471
21943W        W94368  25.929   1.842   3.183
21944W        W94369  41.340  34.619   4.888
21945W        W94370  30.040  40.240   3.952
21946W        W94371  41.959   3.908  14.272
21947W        W94372  13.332  32.896  11.193
21948W        W94373  15.272  24.658  12.513
21949W        W94374  11.769   6.305   2.188
21950W        W94375  42.285  13.531  11.875
21951W        W94376  24.988  26.364   1.708
21952W        W94377   1.526  28.134   3.598
21953W        W94378  21.421  14.151  10.302
21954W        W94379  29.484  27.738  14.724
21955W        W94380  22.904   6.247  12.611
21956W        W94381  26.024  30.230   4.700
21957W        W94382  25.509  40.242  11.377
21958W        W94383  28.457  38.384  13.635
21959W        W94384  36.485  23.751  11.845
21960W        W94385  34.337  39.867  14.281
21961W        W94386  20.080   5.189   4.150
21962W        W94387   9.663  26.701  14.331
21963W        W94388  40.942  39.825   0.017
21964W        W94389  41.544  16.315   4.700
21965W        W94390  11.031  11.219  11.535
21966W        W94391  40.557  17.225  11.861
21967W        W94392  44.431  41.305  12.973
21968W        W94393   5.677   0.829   2.893
21969W        W94394   3.760  23.460   2.093
21970W        W94395  33.395  12.025  14.676
21971W        W94396   2.248  12.085  14.570
21972W        W94397   2.301  18.147  10.140
21973W        W94398   6.854  23.956   1.403
21974W        W94399  40.928   9.881   2.290
21975W        W94400  20.536  41.072   3.177
21976W        W94401  19.795  33.130   3.750
21977W        W94402  27.304   5.472   3.712
21978W        W94403  12.694  28.838  12.201
21979W        W94404  16.751  39.565   2.591
21980W        W94405  38.930  10.456   3.279
21981W        W94406  41.976  39.702   1.436
21982W        W94407  39.953  26.298   2.833
21983W        W94408  14.107  21.588  14.352
21984W        W94409  39.462  40.235   3.607
21985W        W94410  38.391  11.722   1.309
21986W        W94411  33.044  19.207   9.734
21987W        W94412  14.250   9.683  10.760
21988W        W94413  18.551  13.708   0.510
21989W        W94414   5.909  25.052   4.410
21990W        W94415  26.929  40.608   2.709
21991W        W94416  44.826  13.588   2.838
21992W        W94417  18.367   6.254  14.916
21993W        W94418   0.052  40.500  14.304
21994W        W94419   2.528   6.349   4.649
21995W        W94420   9.658  18.753   2.785
21996W        W94421  43.424   2.395   0.048
21997W        W94422   4.129  38.929  12.065
21998W        W94423  12.845  24.169   1.965
21999W        W94424  26.671  35.273  12.064
22000W        W94425  11.775  36.909  11.292
22001W        W94426  33.546   8.373  10.283
22002W        W94427   8.909   7.225  12.959
22003W        W94428  20.146   1.062  14.923
22004W        W94429  34.218  38.401  14.256
22005W        W94430  11.607  37.548   0.375
22006W        W94431  12.728   1.978   3.718
22007W        W94432  15.498  13.108   0.332
22008W        W94433  30.887  32.509   2.922
22009W        W94434   2.198   4.131   1.839
22010W        W94435  27.202   2.969   0.835
22011W        W94436  29.216  23.930  14.980
22012W        W94437  16.690  10.956   2.784
22013W        W94438  38.249  27.663   3.076
22014W        W94439  24.759  27.940  11.648
22015W        W94440  20.147  22.977   1.424
22016W        W94441  41.370  44.478  10.396
22017W        W94442   9.649   7.880  12.080
22018W        W94443  40.976  30.263  11.202
22019W        W94444   5.973  36.189  11.443
22020W        W94445  26.511  40.496   1.920
22021W        W94446  10.004   5.095   1.702
22022W        W94447  30.539   0.342   2.386
22023W        W94448   3.736   1.927  12.565
22024W        W94449  20.265  33.553  14.480
22025W        W94450  27.697  28.597   1.299
22026W        W94451  34.226  35.844   0.742
22027W        W94452  36.868  26.434  12.076
22028W        W94453  22.009   7.695   2.639
22029W        W94454  28.568  31.748   3.208
22030W        W94455   6.243  35.206   1.644
22031W        W94456  33.020  18.320   0.550
22032W        W94457  38.351  35.526  14.948
22033W        W94458   1.140   8.178  13.415
22034W        W94459   6.746   8.785  11.115
22035W        W94460  13.957  34.982  13.466
22036W        W94461  11.578  39.267   2.912
22037W        W94462  34.665  18.830  11.619
22038W        W94463  32.077  16.727  13.348
22039W        W94464   9.707   6.046   1.576
22040W        W94465   5.170  34.387  13.913
22041W        W94466  34.380  12.915  11.539
22042W        W94467  11.360  16.258   4.124
22043W        W94468  27.996  33.976  10.551
22044W        W94469  21.983  20.850   1.310
22045W        W94470   4.918  43.755   2.395
22046W        W94471  44.946  43.294   2.163
22047W        W94472  23.596   8.208  14.369
22048W        W94473  26.475  22.154   0.513
22049W        W94474  38.019  40.467   0.723
22050W        W94475  23.620   0.895  11.694
22051W        W94476  30.958   9.886  11.182
22052W        W94477  39.004   5.840   2.288
22053W        W94478   4.828   1.928  13.482
22054W        W94479   4.511   1.776   0.450
22055W        W94480   4.051  17.788   0.008
22056W        W94481  16.168  26.090   0.981
22057W        W94482  41.369   2.191  11.689
22058W        W94483  14.787   2.792  13.762
22059W        W94484  10.142  34.382   1.763
22060W        W94485  38.350  24.671  13.973
22061W        W94486  16.516  28.707  12.374
22062W        W94487   1.966  24.385  13.898
22063W        W94488  21.727  40.454  11.449
22064W        W94489  37.950  44.957   2.116
22065W        W94490  33.521   6.909  13.000
22066W        W94491  27.456   2.336   2.921
22067W        W94492  27.989   6.257  13.405
22068W        W94493  39.864  27.156   4.116
22069W        W94494   0.768  35.479  12.519
22070W        W94495  12.381   3.418   0.513
22071W        W94496  14.321  22.107   1.725
22072W        W94497  38.533   1.955  11.474
22073W        W94498  19.781  32.628  11.230
22074W        W94499  14.333  14.569  11.175
22075W        W94500  31.848  15.102   0.793
22076W        W94501  40.040  36.737  13.433
22077W        W94502  16.240  10.898   2.496
22078W        W94503  30.104  11.959  13.567
22079W        W94504  10.994   6.334   5.483
22080W        W94505  33.017  36.161  14.349
22081W        W94506  23.532  36.952  12.310
22082W        W94507  40.775  26.187  13.548
22083W        W94508   4.448   5.429  10.985
22084W        W94509  27.111  42.000   1.303
22085W        W94510  15.111  23.961   1.635
22086W        W94511  13.155  44.834  10.693
22087W        W94512  31.903  37.047   1.314
22088W        W94513   4.174   1.940  11.494
22089W        W94514  40.266  35.407  11.970
22090W        W94515  30.266  26.618  14.350
22091W        W94516  31.467  20.242  14.065
22092W        W94517  22.930   6.787  14.003
22093W        W94518  20.299   8.054  12.709
22094W        W94519  23.184  31.965   0.185
22095W        W94520   9.968   0.694   0.531
22096W        W94521  39.140  19.507   3.295
22097W        W94522  25.597  35.688  13.861
22098W        W94523  42.094  19.835   4.110
22099W        W94524  21.005  33.097   4.284
22100W        W94525  44.291   3.879   4.136
22101W        W94526  38.512   1.312   1.001
22102W        W94527  23.699   2.370  12.937
22103W        W94528   6.379  40.080   1.454
22104W        W94529  27.635   4.912  11.856
22105W        W94530   0.763  22.335   2.350
22106W        W94531  21.522  23.558   2.194
22107W        W94532  28.531  17.230   4.151
22108W        W94533   4.622  28.644   0.299
22109W        W94534   7.775  17.020   2.196
22110W        W94535  11.004  36.688  14.541
22111W        W94536   8.751   0.028   4.289
22112W        W94537  26.789  16.605   1.824
22113W        W94538   2.975  41.954  10.680
22114W        W94539  39.145   2.084   1.395
22115W        W94540   6.245  43.022   2.371
22116W        W94541  37.466  28.180  12.833
22117W        W94542   5.899   6.148  14.432
22118W        W94543  42.817  30.521   0.680
22119W        W94544  40.704  27.766   3.131
22120W        W94545   8.308  38.811  12.887
22121W        W94546   8.453  16.295  14.361
22122W        W94547  13.927  17.571   2.260
22123W        W94548  37.597  12.569  14.888
22124W        W94549  42.784  22.949  13.548
22125W        W94550   2.198  20.627  13.415
22126W        W94551  31.188  16.623  14.888
22127W        W94552   8.244   1.993  12.586
22128W        W94553  23.021  27.652   0.062
22129W        W94554  12.709  21.455  14.353
22130W        W94555   9.281  20.078  14.879
22131W        W94556   5.976   8.406  10.717
22132W        W94557  23.140  23.455  12.471
22133W        W94558  44.366  22.590   2.429
22134W        W94559  41.089  21.204  12.877
22135W        W94560   3.363  21.089   4.576
22136W        W94561  17.496  26.988   3.566
22137W        W94562  12.143  37.076   3.766
22138W        W94563  22.557  27.328  10.679
22139W        W94564  35.473  44.009   1.500
22140W        W94565   7.133  35.965   0.954
22141W        W94566  15.652   2.582  13.512
22142W        W94567   8.160  43.214   0.495
22143W        W94568   3.319  44.770  14.210
22144W        W94569  39.599   9.780  11.896
22145W        W94570  29.556  17.225   1.344
22146W        W94571   1.952  32.485  14.952
22147W        W94572   1.222  24.783   3.698
22148W        W94573  34.942  15.700   2.633
22149W        W94574  29.695  20.488  12.935
22150W        W94575  20.064   9.639  13.613
22151W        W94576  37.929   9.582   3.134
22152W        W94577  29.786  41.808  13.368
22153W        W94578  14.796  31.357  10.222
22154W        W94579  17.006  33.013  14.751
22155W        W94580  34.339  37.995  12.860
22156W        W94581  23.542  39.371  12.135
22157W        W94582  30.673  16.093   4.771
22158W        W94583  21.573  30.954  10.638
22159W        W94584  35.078   6.844  10.713
22160W        W94585   5.322  29.059  12.137
22161W        W94586   6.177  33.649  11.930
22162W        W94587  19.949  42.685   4.123
22163W        W94588  15.112  23.547   4.203
22164W        W94589  22.673   1.753   4.598
22165W        W94590  30.296  17.740  11.914
22166W        W94591  15.711  24.185   1.006
22167W        W94592   5.486  42.283   3.252
22168W        W94593  40.880   2.263   1.406
22169W        W94594  31.993  13.899  13.540
22170W        W94595   2.990   2.361   4.390
22171W        W94596  41.349  28.440  12.489
22172W        W94597   6.587  22.257   2.701
22173W        W94598  14.243  34.246  12.104
22174W        W94599  42.782  15.704  12.100
22175W        W94600  25.716  11.921  14.043
22176W        W94601  13.908  21.990   2.715
22177W        W94602  39.290  19.141  14.743
22178W        W94603  32.375  33.909   4.668
22179W        W94604  14.229  16.290  11.466
22180W        W94605  10.488  40.361  13.324
22181W        W94606  29.521  28.508   0.395
22182W        W94607  24.704  40.343  13.893
22183W        W94608   4.904  40.844  13.824
22184W        W94609  32.803   0.458  13.554
22185W        W94610  22.036   8.422  10.322
22186W        W94611  27.663  22.256   4.415
22187W        W94612   1.639   9.447  10.740
22188W        W94613  29.004   2.434   1.646
22189W        W94614   0.219  26.106  11.454
22190W        W94615  10.226   2.735  14.421
22191W        W94616  42.891  29.892  14.396
22192W        W94617  30.720   8.665   3.799
22193W        W94618   6.738  32.582   3.734
22194W        W94619  16.793  31.110  11.071
22195W        W94620  24.886  31.556  13.265
22196W        W94621  18.867  31.573  14.887
22197W        W94622   3.531  15.012   2.082
22198W        W94623  42.038  27.002  13.527
22199W        W94624  34.275  21.348   4.123
22200W        W94625   2.925  41.056   1.428
22201W        W94626  29.689  27.538  12.881
22202W        W94627   3.477   5.210   4.598
22203W        W94628  24.549  38.953   2.810
22204W        W94629  11.612  18.719  12.860
22205W        W94630  43.030  20.624  12.831
22206W        W94631  18.576   3.364   0.342
22207W        W94632  28.870  18.563   4.137
22208W        W94633   5.659  22.786   3.135
22209W        W94634   0.695  27.616   4.653
22210W        W94635  42.627  15.335  12.904
22211W        W94636  11.406  38.330  11.592
22212W        W94637  14.072  41.967   2.284
22213W        W94638  26.582  11.689  12.611
22214W        W94639  28.091   8.188  12.344
22215W        W94640   3.873  32.682  13.785
22216W        W94641  20.653   7.404   0.401
22217W        W94642   7.379   7.687   2.885
22218W        W94643  42.868  11.858  13.644
22219W        W94644  34.232   2.794   3.167
22220W        W94645  26.516  23.960   2.485
22221W        W94646  27.893   3.463  14.263
22222W        W94647  40.785  39.603   4.120
22223W        W94648  14.034   6.060   0.139
22224W        W94649  28.497   4.552  10.756
22225W        W94650  36.153  37.264   3.808
22226W        W94651  35.440  18.034  13.912
22227W        W94652   0.767  32.144  11.911
22228W        W94653   7.999  13.732   1.909
22229W        W94654  14.683  30.134   3.394
22230W        W94655  15.339  16.037   3.650
22231W        W94656   8.184   6.459   0.882
22232W        W94657   7.140  35.021   5.038
22233W        W94658  24.186  44.043   3.633
22234W        W94659  20.201  18.997   3.304
22235W        W94660  23.600  23.534  11.716
22236W        W94661  32.126  10.755   0.525
22237W        W94662  31.608   5.721   0.211
22238W        W94663   5.137  20.924  10.441
22239W        W94664  12.320  22.288   4.669
22240W        W94665  42.158  24.594   5.029
22241W        W94666   2.688  39.050   1.693
22242W        W94667  41.834  32.159  11.287
22243W        W94668  24.594  33.025  11.709
22244W        W94669   3.406  24.548   0.831
22245W        W94670   1.906  27.056  11.197
22246W        W94671  22.669  32.721  12.903
22247W        W94672  41.377  44.846  12.235
22248W        W94673  19.058  30.262  12.090
22249W        W94674  13.548  38.174  13.028
22250W        W94675   9.809  15.273  14.864
22251W        W94676  12.764  18.098   0.857
22252W        W94677  28.114  28.927  10.223
22253W        W94678  34.801  32.040   5.068
22254W        W94679  24.127  10.892   2.205
22255W        W94680  27.526  23.081  10.791
22256W        W94681   2.779  34.468   2.281
22257W        W94682  22.082   8.786   9.530
22258W        W94683  44.904  34.436   4.206
22259W        W94684  40.860  17.604   4.911
22260W        W94685  18.177  42.069  14.686
22261W        W94686  26.288  30.745  12.154
22262W        W94687  10.951  31.168   2.353
22263W        W94688  24.705  34.556  12.160
22264W        W94689  29.709   9.685   2.486
22265W        W94690  24.446  36.563   1.679
22266W        W94691  35.063  24.583  14.952
22267W        W94692   9.237  43.890  14.061
22268W        W94693   1.990  39.308   1.477
22269W        W94694  32.935  22.123  11.153
22270W        W94695  41.397  13.527  14.413
22271W        W94696  22.052  21.709   0.016
22272W        W94697  32.682   5.120   5.029
22273W        W94698  44.890   7.860  12.751
22274W        W94699  23.596  39.881  12.193
22275W        W94700  40.184  38.123   2.930
22276W        W94701  41.994  37.054   4.180
22277W        W94702  24.088  15.772   2.817
22278W        W94703  25.585  40.744   3.227
22279W        W94704  12.619  23.311  10.956
22280W        W94705  16.061  44.394   4.324
22281W        W94706  37.356  33.503  12.590
22282W        W94707   3.341  11.250  13.929
22283W        W94708   1.079  39.014  13.493
22284W        W94709  34.008  15.313  11.269
22285W        W94710  22.845  10.711  11.065
22286W        W94711  11.335  44.419   0.840
22287W        W94712  39.475   4.181  12.539
22288W        W94713  22.559   6.144  11.872
22289W        W94714  10.445  42.824  14.995
22290W        W94715  38.984  29.508   3.333
22291W        W94716  38.070  28.973  10.641
22292W        W94717  30.629  44.794   3.098
22293W        W94718   5.658   6.377  10.490
22294W        W94719  35.135  31.875   1.236
22295W        W94720  16.843  30.937  10.585
22296W        W94721  37.613  17.076  13.350
22297W        W94722   8.214  26.664   0.217
22298W        W94723  26.491  35.951  10.088
22299W        W94724  13.629  14.697  14.953
22300W        W94725  30.613  39.056   3.450
22301W        W94726   1.181  28.057  13.440
22302W        W94727  32.163  42.231   2.423
22303W        W94728  16.032   2.516  13.870
22304W        W94729  42.643  39.272  12.548
22305W        W94730  12.206   4.672   1.463
22306W        W94731  17.245  20.483   2.621
22307W        W94732  24.256  32.742   4.920
22308W        W94733   6.115  11.960   4.208
22309W        W94734   0.213  16.647   0.385
22310W        W94735  25.184  27.673  11.598
22311W        W94736  43.883   5.904   2.861
22312W        W94737  35.475  42.855  11.985
22313W        W94738  41.157  25.921   0.508
22314W        W94739  19.647   9.414  13.438
22315W        W94740   0.441   2.795   2.081
22316W        W94741  18.197  37.741   0.354
22317W        W94742  33.029  36.000  10.641
22318W        W94743  16.143  33.908   2.776
22319W        W94744  14.330  38.421   0.718
22320W        W94745   2.873   4.768  11.527
22321W        W94746   8.986  10.298   4.609
22322W        W94747  40.346  18.563  14.269
22323W        W94748  25.573  42.057  13.954
22324W        W94749   9.376  15.108   1.309
22325W        W94750  26.700  21.247  14.342
22326W        W94751  29.582  24.630   2.365
22327W        W94752  43.576  41.974  12.551
22328W        W94753  20.684  24.420  12.443
22329W        W94754  34.119   7.687  12.950
22330W        W94755  16.869  11.351   3.086
22331W        W94756  15.403  25.954  14.372
22332W        W94757  24.958  29.029  14.356
22333W        W94758  44.755  10.573  11.543
22334W        W94759  24.755  14.594  14.918
22335W        W94760  16.696  34.500   1.208
22336W        W94761  31.476  25.268  13.370
22337W        W94762   9.131  13.594   3.175
22338W        W94763  26.061  22.028   3.130
22339W        W94764  17.839  14.100   0.965
22340W        W94765   4.231  30.306   2.779
22341W        W94766  36.385  43.966  10.625
22342W        W94767  20.673  29.010   3.928
22343W        W94768   9.478   6.772   3.293
22344W        W94769   7.268  17.613  10.756
22345W        W94770   4.527  20.015   4.106
22346W        W94771  36.088  39.644   4.180
22347W        W94772   0.336  38.371   2.817
22348W        W94773  38.155   6.341   3.095
22349W        W94774  38.065  11.669  10.302
22350W        W94775  26.421  13.786   3.516
22351W        W94776  18.363  25.190   3.274
22352W        W94777   3.542  35.077   1.294
22353W        W94778  35.011  19.383   4.300
22354W        W94779  42.295  19.743  11.675
22355W        W94780  31.474  16.775   0.345
22356W        W94781   0.335  15.838  11.276
22357W        W94782  17.261  30.071  10.953
22358W        W94783  41.216  14.714  12.886
22359W        W94784  36.669  44.744  13.868
22360W        W94785  22.199  38.990  12.764
22361W        W94786   1.816   4.467  13.487
22362W        W94787  19.639  28.693  10.667
22363W        W94788  25.504  40.327  12.618
22364W        W94789  27.335  27.994  13.857
22365W        W94790  29.643  31.851  10.071
22366W        W94791  40.696  15.537   4.292
22367W        W94792  38.131  25.771  10.336
22368W        W94793  26.547  15.894   2.454
22369W        W94794  19.999  40.388  13.563
22370W        W94795  25.745   7.253   1.155
22371W        W94796  12.606  37.358  13.979
22372W        W94797   2.006  31.375   3.650
22373W        W94798  29.588   0.954  11.567
22374W        W94799   5.410  26.385  14.058
22375W        W94800   9.841  30.717   3.805
22376W        W94801  29.315  43.307   2.461
22377W        W94802   9.565  17.148   4.530
22378W        W94803  44.364  34.381  12.765
22379W        W94804  29.639  12.073   3.658
22380W        W94805  23.364  29.197   1.309
22381W        W94806  33.099  42.596  14.341
22382W        W94807   6.980  39.833   3.178
22383W        W94808  34.178  37.405  14.493
22384W        W94809  40.655  26.120   1.225
22385W        W94810  19.191  16.844  14.483
22386W        W94811  41.501  29.835  14.608
22387W        W94812   6.927  33.117   0.598
22388W        W94813  22.225   1.260  10.676
22389W        W94814  11.308   1.535  11.110
22390W        W94815  21.008  35.975  14.038
22391W        W94816  44.250  38.936   3.351
22392W        W94817  27.542  42.886   1.805
22393W        W94818  43.425  42.537   3.173
22394W        W94819  24.539   4.220   3.642
22395W        W94820   5.808  29.300  12.047
22396W        W94821  11.341  32.609   4.786
22397W        W94822  40.821   8.852   0.806
22398W        W94823  43.784  38.089   0.402
22399W        W94824  17.219  44.206  10.160
22400W        W94825  19.824  43.942  10.762
22401W        W94826  14.614  38.410   5.037
22402W        W94827   0.737  13.075   1.927
22403W        W94828   3.522  14.051   0.957
22404W        W94829  15.180  25.682   4.173
22405W        W94830  32.630  13.818   2.458
22406W        W94831  16.273  30.451   2.147
22407W        W94832  21.675   3.415   3.278
22408W        W94833  38.007   1.415  11.970
22409W        W94834  33.573  25.957   1.320
22410W        W94835   5.556  22.253   1.426
22411W        W94836   0.872  31.985  12.838
22412W        W94837  35.993   1.675   0.823
22413W        W94838  24.699  34.767   1.891
22414W        W94839  44.795  39.929   0.976
22415W        W94840  30.601  17.594  12.877
22416W        W94841  21.559  22.469  11.590
22417W        W94842  14.560  12.215  14.456
22418W        W94843   8.353  42.927   1.301
22419W        W94844  18.398   6.553  13.385
22420W        W94845   0.452   5.935  10.672
22421W        W94846   6.408  35.513  10.831
22422W        W94847   7.356  14.266  12.058
22423W        W94848  41.206   7.654  14.007
22424W        W94849  12.911  26.257  10.666
22425W        W94850  32.211  14.304  13.779
22426W        W94851  40.689  19.609  14.507
22427W        W94852  39.340  36.975   4.104
22428W        W94853   8.111  38.878   3.861
22429W        W94854  13.299   4.327   0.788
22430W        W94855  37.383  15.010  11.760
22431W        W94856  35.393  22.093   3.413
22432W        W94857  30.926  13.339   0.699
22433W        W94858  17.013  30.523  11.264
22434W        W94859  33.398  14.035   4.083
22435W        W94860   0.305  22.519   2.147
22436W        W94861  44.817   7.016  13.225
22437W        W94862  28.673  10.201  14.157
22438W        W94863  33.138  11.275   4.176
22439W        W94864   7.014  27.113  13.997
22440W        W94865  28.123   8.419  10.578
22441W        W94866  10.698  11.207  13.720
22442W        W94867  24.493  44.828   4.595
22443W        W94868  31.521  18.976   3.848
22444W        W94869  21.958  19.103  12.520
22445W        W94870  15.639  19.024  11.559
22446W        W94871   2.894  34.969   2.525
22447W        W94872   9.897  42.377  10.914
22448W        W94873   5.196  35.636   4.252
22449W        W94874  23.526  41.042  13.515
22450W        W94875   3.495  33.519  11.588
22451W        W94876  29.573  22.104  10.887
22452W        W94877  33.118  14.542   1.396
22453W        W94878  43.059  32.484  14.290
22454W        W94879   5.282  41.352   3.482
22455W        W94880  15.120  33.660   4.500
22456W        W94881  25.090  11.952   0.355
22457W        W94882  20.877   3.277   1.710
22458W        W94883   0.005   3.748  14.450
22459W        W94884   0.230  19.315  14.389
22460W        W94885   9.254   0.846   1.697
22461W        W94886  16.330  35.423  10.634
22462W        W94887  39.110  41.644  13.072
22463W        W94888   7.837  44.769  11.458
22464W        W94889   3.996  40.342  11.766
22465W        W94890  23.327  11.050   5.383
22466W        W94891   5.794  25.086   4.915
22467W        W94892  11.715   5.916   3.872
22468W        W94893  29.737   2.434   0.277
22469W        W94894  25.981  23.354   4.637
22470W        W94895  35.169  13.719  11.207
22471W        W94896  24.088   9.347  13.462
22472W        W94897   7.901  33.869  10.694
22473W        W94898  44.609  34.563  13.207
22474W        W94899  44.034  25.487  11.719
22475W        W94900  15.661  12.721  10.789
22476W        W94901  42.842   6.446   1.175
22477W        W94902   6.282  21.160   0.775
22478W        W94903   9.685   0.974  12.473
22479W        W94904  11.867  32.648   4.056
22480W        W94905  34.180  41.754   1.120
22481W        W94906  17.576  11.637   0.273
22482W        W94907  36.654  37.805   4.550
22483W        W94908  21.714  14.650   3.388
22484W        W94909   5.399  38.622   1.976
22485W        W94910  13.197  19.751  12.896
22486W        W94911   0.001  31.885  13.554
22487W        W94912  33.466  26.137   1.810
22488W        W94913  13.344  40.798   3.209
22489W        W94914  25.207  43.026   4.511
22490W        W94915  26.588   3.684   0.857
22491W        W94916  17.686  11.259  10.696
22492W        W94917  40.892  29.579  11.952
22493W        W94918  29.651  28.236  11.551
22494W        W94919  41.952  22.617  12.050
22495W        W94920  14.200   7.838   2.917
22496W        W94921  32.877  27.776   0.608
22497W        W94922  15.353   3.437  12.098
22498W        W94923  14.715  19.037  11.481
22499W        W94924  14.784  14.259   3.646
22500W        W94925  13.979  22.493   3.632
22501W        W94926  41.903  43.331  11.544
22502W        W94927  17.332  30.137  11.460
22503W        W94928  33.444  42.663  10.874
22504W        W94929   0.231   7.855  10.726
22505W        W94930   8.996  25.214   5.162
22506W        W94931  25.596  43.396   1.738
22507W        W94932  12.768   5.352   4.576
22508W        W94933  12.153  15.262   1.731
22509W        W94934  13.951  14.766   3.805
22510W        W94935  32.995   6.176   2.861
22511W        W94936   6.456  44.287  14.076
22512W        W94937  12.802  37.554  11.657
22513W        W94938   2.885  23.855   1.268
22514W        W94939  25.184   8.124   2.483
22515W        W94940  19.695  19.949  11.898
22516W        W94941  25.350  12.170  14.362
22517W        W94942  32.090  16.034  11.945
22518W        W94943  41.849  15.353   1.373
22519W        W94944  11.392  17.862   1.716
22520W        W94945  17.155  21.509  11.018
22521W        W94946  15.755  20.694   3.828
22522W        W94947  27.043  13.064   4.078
22523W        W94948  24.144   1.811   1.259
22524W        W94949   6.221  19.184   2.307
22525W        W94950   5.273  21.880  14.264
22526W        W94951  29.464  42.992   4.998
22527W        W94952  21.598  23.979   0.933
22528W        W94953   3.754  35.320  12.749
22529W        W94954   4.460  12.321  10.649
22530W        W94955  42.193   5.280  13.757
22531W        W94956  11.054  14.150   3.712
22532W        W94957   2.348  20.649   1.357
22533W        W94958   7.441  38.671  11.628
22534W        W94959  13.305  36.150  11.849
22535W        W94960  43.360   0.983  12.005
22536W        W94961  33.535  11.051  12.749
22537W        W94962  15.276   3.898  11.169
22538W        W94963  27.548   2.063  13.758
22539W        W94964  18.263  43.834   2.095
22540W        W94965   2.876   0.267   0.028
22541W        W94966  20.372  40.577   4.103
22542W        W94967  40.864  44.321  11.181
22543W        W94968  13.182  40.805  13.078
22544W        W94969  25.991  32.660  13.407
22545W        W94970  17.559  44.893   0.835
22546W        W94971   3.912  18.115  11.235
22547W        W94972   5.195  12.222  14.896
22548W        W94973  22.749  16.126   0.704
22549W        W94974  43.140   4.173   2.736
22550W        W94975  36.446  16.298  14.332
22551W        W94976  42.404  29.353  10.930
22552W        W94977  32.392   0.272   1.451
22553W        W94978  42.844  13.657  13.581
22554W        W94979  16.672  27.711  12.620
22555W        W94980  32.915   1.686  14.397
22556W        W94981  23.113  43.809  12.343
22557W        W94982  30.195  24.536  12.395
22558W        W94983  34.151  44.567   0.021
22559W        W94984  16.149  26.068   1.487
22560W        W94985  34.568   8.179   2.836
22561W        W94986   1.848  21.071  12.519
22562W        W94987  14.519  12.827  12.368
22563W        W94988   0.859  11.708   1.502
22564W        W94989  21.233   0.322   4.105
22565W        W94990  25.127   6.494   0.747
22566W        W94991  21.534  19.087   2.414
22567W        W94992  21.157  13.215   1.712
22568W        W94993  43.421  19.793   0.093
22569W        W94994   1.302  44.243   0.641
22570W        W94995   7.783  26.624  12.808
22571W        W94996  19.199  34.929   4.358
22572W        W94997   5.730   4.387   3.347
22573W        W94998   7.656  18.866   2.464
22574W        W94999   8.629  31.289  14.868
22575W        W95000  17.774  22.668   3.683
22576W        W95001  13.841  26.669  12.907
22577W        W95002  30.441  38.806  11.501
22578W        W95003   1.140   9.592  12.616
22579W        W95004  36.562  18.662   0.240
22580W        W95005  27.927  33.273   2.263
22581W        W95006  32.068  36.608  11.253
22582W        W95007  36.058  29.480  13.956
22583W        W95008  29.442  40.716  12.291
22584W        W95009  38.469  10.287  11.843
22585W        W95010   5.931  15.223   3.418
22586W        W95011  43.073  28.712   0.908
22587W        W95012  20.149  42.851   0.663
22588W        W95013   9.620  22.180   3.386
22589W        W95014  17.747  24.713   4.090
22590W        W95015  44.267  21.077   2.187
22591W        W95016  42.287   6.401  11.535
22592W        W95017  19.214   4.854   2.672
22593W        W95018  13.290  37.297  14.494
22594W        W95019  19.818   2.295   4.945
22595W        W95020  42.742  43.400   0.015
22596W        W95021  18.563   9.819  14.219
22597W        W95022  11.735  40.083  12.938
22598W        W95023   8.201  42.360  13.806
22599W        W95024  19.636  40.426  11.290
22600W        W95025  20.657  43.915  13.109
22601W        W95026  27.427  30.233   2.771
22602W        W95027   9.315   6.347   9.729
22603W        W95028  20.556  23.590  11.991
22604W        W95029  24.830  38.366   1.334
22605W        W95030  12.915  10.328   1.215
22606W        W95031   6.435  26.569   2.573
22607W        W95032  43.389  34.833  11.175
22608W        W95033  26.492   3.872   3.162
22609W        W95034  15.617  44.251   1.148
22610W        W95035  44.809  29.697   0.305
22611W        W95036  14.691  33.824   1.856
22612W        W95037   0.838  40.082   1.241
22613W        W95038  22.936   9.634  11.014
22614W        W95039   5.378  13.039  12.235
22615W        W95040  23.097  42.393   4.722
22616W        W95041   4.285  20.376   4.390
22617W        W95042   6.521  32.935   4.847
22618W        W95043  42.329  30.370  13.961
22619W        W95044  14.584  31.108   2.306
22620W        W95045   6.352  36.983   2.996
22621W        W95046  40.788   8.063   0.397
22622W        W95047   9.701  42.845  10.699
22623W        W95048   4.181  15.588   3.668
22624W        W95049  25.987   6.128   2.870
22625W        W95050  17.713  36.646  12.031
22626W        W95051   1.822  19.340   3.711
22627W        W95052  33.714  33.081  14.894
22628W        W95053  38.890  25.847   1.745
22629W        W95054  31.096  20.516  13.834
22630W        W95055  37.036  17.214  11.616
22631W        W95056  43.151  16.607  12.154
22632W        W95057  32.471  29.263  12.321
22633W        W95058  31.387   9.750  13.852
22634W        W95059  43.464  26.880   0.129
22635W        W95060  26.440  26.291   5.055
22636W        W95061  29.155  21.335  11.148
22637W        W95062  23.560   6.000   1.283
22638W        W95063  43.138  30.991  11.144
22639W        W95064  40.284   0.026   5.078
22640W        W95065   7.294  10.118  13.956
22641W        W95066  26.070  24.658   1.355
22642W        W95067   1.977  29.214   3.685
22643W        W95068  30.633   2.678  13.023
22644W        W95069   3.975  21.007   0.550
22645W        W95070  28.406  18.530   0.527
22646W        W95071  34.323  35.039  11.079
22647W        W95072   0.970  41.485  14.473
22648W        W95073  43.571  31.569   3.657
22649W        W95074   7.349   2.413  11.262
22650W        W95075  16.786   3.865   1.970
22651W        W95076  22.662  22.982  13.019
22652W        W95077  42.924   5.956  10.867
22653W        W95078  43.357  28.420   2.822
22654W        W95079  29.968  22.244  13.125
22655W        W95080  21.801  34.127  11.951
22656W        W95081  36.356  19.419   1.386
22657W        W95082  41.337   0.786  10.974
22658W        W95083  13.258  27.526  14.304
22659W        W95084  36.099  11.246   0.742
22660W        W95085  38.788   9.224  13.957
22661W        W95086   0.091  31.216  13.886
22662W        W95087  38.316   6.173  14.130
22663W        W95088  23.054  30.877  12.385
22664W        W95089   7.149  36.506   3.624
22665W        W95090  28.478   9.797  14.406
22666W        W95091  27.599  10.372   2.771
22667W        W95092  13.151  10.170   0.277
22668W        W95093   1.854  29.589  11.725
22669W        W95094  25.981  17.114   2.331
22670W        W95095  38.552  17.339  10.807
22671W        W95096  28.319  17.549  12.466
22672W        W95097  20.708  25.437  12.427
22673W        W95098  13.304  10.664  12.873
22674W        W95099  29.184   2.754  14.829
22675W        W95100   1.436  22.007  12.645
22676W        W95101  42.319  28.457   3.723
22677W        W95102  25.102   2.237  12.024
22678W        W95103   9.849  36.472  10.611
22679W        W95104  32.660  30.325  11.002
22680W        W95105  19.658  33.412  13.483
22681W        W95106  14.242  25.528  10.869
22682W        W95107   9.802   1.684   0.298
22683W        W95108   9.942  18.706   1.356
22684W        W95109  21.072   7.241   4.675
22685W        W95110  28.266   2.616   1.413
22686W        W95111  12.243  13.376   2.415
22687W        W95112   7.168  38.881  10.596
22688W        W95113  16.731  10.403   1.440
22689W        W95114   1.416  33.523  14.255
22690W        W95115  11.225  34.560  13.799
22691W        W95116   9.902  39.910  11.637
22692W        W95117  10.298  27.406  14.184
22693W        W95118   1.912   1.417   3.619
22694W        W95119   2.329   7.329   1.370
22695W        W95120  11.535   9.531  10.981
22696W        W95121  41.833  40.246  14.885
22697W        W95122  38.951  18.302   0.482
22698W        W95123   2.238   4.613   3.759
22699W        W95124  27.217  42.283  12.139
22700W        W95125  28.251  41.254   2.781
22701W        W95126  15.759  27.638   0.424
22702W        W95127  29.214  29.544  13.812
22703W        W95128  12.085  17.320  10.479
22704W        W95129  20.496  25.147  11.095
22705W        W95130  11.694   1.439  13.251
22706W        W95131  43.243  31.391  14.788
22707W        W95132  38.781   6.689   0.607
22708W        W95133  19.739  39.784  12.159
22709W        W95134   7.698  11.762   1.452
22710W        W95135  19.041  42.535   3.391
22711W        W95136  17.269  24.558   0.886
22712W        W95137   3.981  29.069   4.594
22713W        W95138  10.783  19.179   1.008
22714W        W95139  14.266  30.623  12.012
22715W        W95140   8.360  35.552  13.805
22716W        W95141  12.806  38.977   3.074
22717W        W95142  28.064  28.216  12.341
22718W        W95143  33.373  11.226  10.551
22719W        W95144   8.895  12.401  11.081
22720W        W95145  36.541  38.545   0.080
22721W        W95146   4.938  39.436   2.734
22722W        W95147   6.052  26.527   1.726
22723W        W95148  36.072  34.138   2.242
22724W        W95149  25.559  16.479  14.707
22725W        W95150  44.001  30.561  13.014
22726W        W95151  12.145  38.420   2.800
22727W        W95152  34.550  22.089   0.894
22728W        W95153   8.770  31.881  13.431
22729W        W95154  35.022  33.444   4.531
22730W        W95155  17.207   4.280   0.850
22731W        W95156  24.466  28.965   0.216
22732W        W95157  20.348   8.853   9.979
22733W        W95158   5.671  22.934  12.910
22734W        W95159  12.734  31.206   2.255
22735W        W95160  44.381   8.129  13.490
22736W        W95161  37.125  27.623   1.583
22737W        W95162   8.217  32.051   2.702
22738W        W95163  23.494  22.404   1.732
22739W        W95164  33.029   5.211   4.607
22740W        W95165  42.415  32.434   1.291
22741W        W95166   1.023  13.640   3.340
22742W        W95167  38.364  41.002   3.207
22743W        W95168  19.004  27.406   4.119
22744W        W95169  19.833  18.158   0.742
22745W        W95170  15.212  41.402  14.969
22746W        W95171   2.564  23.545  13.462
22747W        W95172  29.690  31.924  12.431
22748W        W95173   7.220   6.963   0.669
22749W        W95174  12.848  13.876   0.311
22750W        W95175  42.522  13.203   1.889
22751W        W95176  13.849   8.905  11.649
22752W        W95177  43.409   3.065  13.813
22753W        W95178  43.920  14.509   4.681
22754W        W95179  11.573  43.386  10.042
22755W        W95180   2.786  15.692   0.785
22756W        W95181   8.779   9.239   5.802
22757W        W95182  40.385   5.432   1.295
22758W        W95183  38.213  13.320  14.825
22759W        W95184  16.657  15.087  14.667
22760W        W95185   3.963  18.051   1.761
22761W        W95186  38.096  20.251   2.812
22762W        W95187  21.238   7.286   2.880
22763W        W95188   7.829   3.934   1.986
22764W        W95189  41.978   4.902   1.423
22765W        W95190  24.195  23.389  14.162
22766W        W95191  12.695  20.778  12.930
22767W        W95192  19.557  12.929   0.745
22768W        W95193  22.361  15.585   5.108
22769W        W95194   0.513  30.893  11.164
22770W        W95195  18.834  38.708  10.409
22771W        W95196  39.938  44.903  14.433
22772W        W95197  36.847   0.548   2.025
22773W        W95198  17.241  26.142  11.161
22774W        W95199  22.319   4.578   3.137
22775W        W95200  40.071   2.252   1.323
22776W        W95201   5.386  25.455   2.813
22777W        W95202   6.459  10.364   4.106
22778W        W95203  23.659  44.531  11.103
22779W        W95204  40.394   8.802   3.233
22780W        W95205  39.887  10.822  13.480
22781W        W95206  12.075   8.804   1.874
22782W        W95207  27.557  36.375   2.917
22783W        W95208  19.633  26.451  11.370
22784W        W95209  18.846  35.482  12.910
22785W        W95210  42.768  40.521  10.554
22786W        W95211  10.077   5.217   0.813
22787W        W95212  41.378  29.675  11.682
22788W        W95213  36.324   8.765   4.727
22789W        W95214  41.754  13.712   3.269
22790W        W95215  42.583  30.974   2.953
22791W        W95216   1.231  19.586   2.297
22792W        W95217  16.161  39.799  11.742
22793W        W95218  29.775   4.449  11.173
22794W        W95219  41.934  35.549  10.295
22795W        W95220  25.478  29.040  13.825
22796W        W95221  31.485  35.537   3.918
22797W        W95222  18.097  30.979  13.084
22798W        W95223  33.583  34.094   0.778
22799W        W95224  11.890  14.083  11.626
22800W        W95225  11.522  39.323   0.866
22801W        W95226  22.515   2.686   2.600
22802W        W95227  11.087  18.127  12.073
22803W        W95228  14.770  44.695  11.589
22804W        W95229  12.825  22.306  10.961
22805W        W95230  40.885   6.419  12.460
22806W        W95231  42.499  23.942   3.735
22807W        W95232  19.463  15.831  11.728
22808W        W95233   3.772  33.480  10.173
22809W        W95234  19.648  37.283  14.445
22810W        W95235  44.339  16.189   3.318
22811W        W95236  14.836  23.590   3.206
22812W        W95237   0.928  23.119   3.922
22813W        W95238  36.374  19.829  12.634
22814W        W95239   7.925  22.368  13.546
22815W        W95240  11.057   0.519  11.240
22816W        W95241  25.171  42.817  11.574
22817W        W95242  25.591  12.427  11.311
22818W        W95243  31.351   4.777  14.562
22819W        W95244  16.561  39.440  13.022
22820W        W95245  14.618   2.588   2.935
22821W        W95246  34.462  19.395   1.202
22822W        W95247  32.265  26.281  12.010
22823W        W95248  34.560  14.435   0.346
22824W        W95249  40.729   7.800  13.987
22825W        W95250   8.263  28.573   3.202
22826W        W95251   7.754  13.344   3.305
22827W        W95252   4.143  22.019  12.099
22828W        W95253   2.941  36.160  13.103
22829W        W95254  10.621  32.997  12.392
22830W        W95255  43.580   8.251   1.977
22831W        W95256  16.666  29.524   1.512
22832W        W95257   4.001   4.654   4.132
22833W        W95258   6.882  42.932   0.792
22834W        W95259  29.403  43.273   0.462
22835W        W95260  42.775  43.288  11.704
22836W        W95261  23.218   7.296   1.550
22837W        W95262  19.842  35.929  11.454
22838W        W95263  25.610  21.088  10.378
22839W        W95264   8.660  10.656  14.982
22840W        W95265   0.248  15.413  11.549
22841W        W95266  37.467  25.195  13.025
22842W        W95267   0.961  35.420   1.433
22843W        W95268   5.375  29.630   3.883
22844W        W95269   5.328  41.227  10.744
22845W        W95270  23.627  25.817   1.909
22846W        W95271  28.435  43.055   2.825
22847W        W95272  23.997  43.710  11.359
22848W        W95273   4.934  31.447   3.305
22849W        W95274   7.165  31.034  13.970
22850W        W95275   1.970  17.102  13.013
22851W        W95276   5.534  22.985  10.559
22852W        W95277  12.457  38.039   4.623
22853W        W95278   8.734  10.659  13.989
22854W        W95279   8.805  36.657   3.736
22855W        W95280  13.686  39.024   0.410
22856W        W95281  18.832  28.265  13.884
22857W        W95282  23.937  19.246   1.428
22858W        W95283  36.603  39.432  13.411
22859W        W95284  34.693  37.877   1.236
22860W        W95285  42.830  35.823  14.574
22861W        W95286   6.685  10.343  14.383
22862W        W95287  33.586  41.611   0.415
22863W        W95288  34.035  15.384   4.040
22864W        W95289  42.381  15.612  10.717
22865W        W95290   7.275  19.746  13.770
22866W        W95291  10.109  40.904   1.763
22867W        W95292   1.423  30.093  10.623
22868W        W95293  30.457  18.485   0.729
22869W        W95294   1.449  11.269  11.923
22870W        W95295  10.695   9.181  11.012
22871W        W95296   8.807   2.730   0.370
22872W        W95297  29.496  25.788   0.849
22873W        W95298  38.126  16.755  10.744
22874W        W95299   7.849  27.884   0.772
22875W        W95300  20.838  26.285  10.452
22876W        W95301   7.884  27.546  11.128
22877W        W95302  12.658  17.026  11.115
22878W        W95303  16.043  38.974   0.294
22879W        W95304   9.965  39.959   2.329
22880W        W95305  32.071   8.823   0.890
22881W        W95306  42.690  24.447  13.558
22882W        W95307  40.236  28.101  12.975
22883W        W95308  26.013  12.520   3.203
22884W        W95309   2.835  21.263  13.253
22885W        W95310  34.627  43.733  11.989
22886W        W95311   0.424  27.864   2.650
22887W        W95312  25.581   9.191  12.467
22888W        W95313  34.540  34.374  13.278
22889W        W95314  16.033  14.967   3.285
22890W        W95315   4.397  41.466  12.865
22891W        W95316  29.862  14.309  14.473
22892W        W95317  29.711  35.963   2.693
22893W        W95318  11.529  20.650   0.719
22894W        W95319  18.356  29.786  10.744
22895W        W95320  16.625  19.986  11.540
22896W        W95321   9.257  26.658  13.991
22897W        W95322  17.840  29.470  11.591
22898W        W95323  40.822   2.126  14.299
22899W        W95324  40.849  18.317   4.108
22900W        W95325  30.557  44.713   1.684
22901W        W95326  23.461   6.147  13.321
22902W        W95327   2.230   6.274   2.299
22903W        W95328  44.469  14.669   0.452
22904W        W95329   3.266  33.072  11.419
22905W        W95330  44.402  28.883   0.254
22906W        W95331   5.839  23.626   3.716
22907W        W95332  13.747  17.378   3.187
22908W        W95333  21.923  36.021   5.021
22909W        W95334  43.026  17.507  11.166
22910W        W95335  18.618  26.577   2.572
22911W        W95336   1.465  29.680  14.427
22912W        W95337  13.368   3.020  14.431
22913W        W95338   2.711  11.041   3.813
22914W        W95339  13.821   3.723  13.281
22915W        W95340  35.500  37.911  14.258
22916W        W95341   1.259  42.403   4.495
22917W        W95342  33.646   7.857   1.750
22918W        W95343   3.792  39.592  14.914
22919W        W95344  39.366  34.536   0.340
22920W        W95345  26.960  21.098   3.213
22921W        W95346  15.233  44.716  11.988
22922W        W95347   2.191  44.804  14.399
22923W        W95348  33.105   3.297   0.892
22924W        W95349  29.518  32.489   1.493
22925W        W95350  35.007  21.477   3.220
22926W        W95351  29.869  18.279  11.007
22927W        W95352  29.951   4.900  13.892
22928W        W95353  24.162  19.592  10.629
22929W        W95354  31.494  25.940  11.998
22930W        W95355   7.834  22.881  13.571
22931W        W95356   5.662  32.456  13.894
22932W        W95357  37.947  40.746  11.665
22933W        W95358   2.671   8.729   2.793
22934W        W95359   5.763   1.414   0.633
22935W        W95360  20.990  32.527  13.973
22936W        W95361  33.847  36.979  12.010
22937W        W95362  26.192  19.518   3.627
22938W        W95363   7.302  23.392  12.569
22939W        W95364  26.759  12.165   0.707
22940W        W95365   8.025  13.249   1.299
22941W        W95366  19.723  44.258  10.343
22942W        W95367  40.430  41.092   4.836
22943W        W95368  24.427   1.504  10.381
22944W        W95369  17.718  16.522   2.393
22945W        W95370  43.932  42.938   1.909
22946W        W95371  10.125  38.529  14.330
22947W        W95372   8.882  37.895  11.913
22948W        W95373   0.649  10.860   4.562
22949W        W95374  42.702  38.629  11.506
22950W        W95375  28.117  42.331  10.705
22951W        W95376  18.397   2.245   5.432
22952W        W95377   2.998   8.132   4.889
22953W        W95378  10.297  37.023  14.324
22954W        W95379  42.989  44.007  13.122
22955W        W95380   8.730  22.617   3.778
22956W        W95381   4.354  35.950   4.188
22957W        W95382  17.093  23.091  12.446
22958W        W95383   9.088  26.995  12.268
22959W        W95384  15.239  38.617  13.942
22960W        W95385  16.616  21.619   1.839
22961W        W95386  35.003   8.392   0.784
22962W        W95387  19.166  40.344   3.160
22963W        W95388  43.069   2.187  11.206
22964W        W95389  23.524   9.828   0.256
22965W        W95390  15.499   9.044   5.031
22966W        W95391  38.569  32.080  12.166
22967W        W95392  34.472  14.359   1.471
22968W        W95393  42.287  19.698   4.882
22969W        W95394  44.061  12.395  11.068
22970W        W95395  21.485  38.134   3.157
22971W        W95396   7.599  22.782   2.839
22972W        W95397  14.237  11.785  14.479
22973W        W95398  10.786  11.767   4.497
22974W        W95399  34.595  28.984   3.857
22975W        W95400   2.255  32.190   0.876
22976W        W95401  32.887  23.753   4.886
22977W        W95402  44.837  16.677  13.361
22978W        W95403  31.453  17.129  11.521
22979W        W95404  25.056  24.398   1.313
22980W        W95405  24.129  40.447   0.726
22981W        W95406  34.305  20.563  10.927
22982W        W95407   8.785  23.468   4.389
22983W        W95408  27.021   0.775  10.886
22984W        W95409  27.102  41.892   0.782
22985W        W95410  19.113   2.292   3.803
22986W        W95411  14.080   4.787  10.695
22987W        W95412  12.763  44.037   1.297
22988W        W95413  29.730  39.990  12.318
22989W        W95414  18.100   0.301  12.262
22990W        W95415  28.980  16.185   0.769
22991W        W95416  42.010  41.730  13.045
22992W        W95417   0.605   3.046  11.018
22993W        W95418  15.857   7.479   0.885
22994W        W95419  30.592  21.474  12.464
22995W        W95420  26.633  20.267   3.046
22996W        W95421   4.961  32.034   0.839
22997W        W95422  15.315  35.135   4.983
22998W        W95423  36.655  33.706   3.018
22999W        W95424  39.796  21.049  10.870
23000W        W95425  42.781  31.111   1.777
23001W        W95426   9.744  27.584   4.616
23002W        W95427  35.043   0.777   0.759
23003W        W95428   1.962  13.243  12.514
23004W        W95429   9.364  34.121  14.419
23005W        W95430  20.414  35.154  11.913
23006W        W95431   8.978  26.578  11.053
23007W        W95432   9.798   0.725  13.869
23008W        W95433  12.680  29.688   3.034
23009W        W95434   6.729  38.005   4.060
23010W        W95435  32.525  39.028   4.016
23011W        W95436  37.862  13.703  14.752
23012W        W95437   0.581  39.790  12.010
23013W        W95438   7.771  31.644   4.545
23014W        W95439  11.032   4.253   3.620
23015W        W95440  42.592   9.685  12.953
23016W        W95441  34.003  18.850  11.083
23017W        W95442  42.556  43.197  14.406
23018W        W95443  36.981  22.388   2.806
23019W        W95444  44.027  15.560   1.320
23020W        W95445  19.504  25.918  13.602
23021W        W95446  28.387  40.126  10.689
23022W        W95447   7.034  38.208   1.386
23023W        W95448  32.472  37.122  11.946
23024W        W95449  36.811  35.021  12.934
23025W        W95450  23.452  44.344  11.524
23026W        W95451  11.159  31.879  11.141
23027W        W95452   5.122  26.326  13.016
23028W        W95453  24.435   7.727  11.938
23029W        W95454  30.519  33.005  11.444
23030W        W95455  25.836   4.284  11.779
23031W        W95456   0.374  42.935  11.557
23032W        W95457  32.040  34.204   1.234
23033W        W95458  31.032  25.645   3.928
23034W        W95459   9.112  39.265  12.601
23035W        W95460  40.640  15.053  11.173
23036W        W95461   8.913   8.513   9.721
23037W        W95462  17.102   2.846   3.616
23038W        W95463   4.476  18.646   3.483
23039W        W95464   9.133  26.086   2.638
23040W        W95465  25.509  33.117  12.788
23041W        W95466   3.489  14.871  12.989
23042W        W95467   1.915  31.522  12.343
23043W        W95468  26.934   9.232  11.162
23044W        W95469  23.956  33.331   3.308
23045W        W95470  19.873  33.275   2.720
23046W        W95471   9.335  32.513   4.484
23047W        W95472   7.753  30.834  14.841
23048W        W95473  18.804  17.310   1.814
23049W        W95474  19.687  15.673   0.331
23050W        W95475  30.393  36.904   0.665
23051W        W95476  38.942  30.993   3.312
23052W        W95477  17.589   4.041   3.761
23053W        W95478  29.866  24.398   1.714
23054W        W95479  25.314  19.712  14.338
23055W        W95480  38.921  14.403   0.489
23056W        W95481  37.387  44.737  14.001
23057W        W95482   1.500  12.908   3.359
23058W        W95483  38.558  38.945   2.280
23059W        W95484  35.787  34.422  12.538
23060W        W95485  39.590  34.395   4.072
23061W        W95486  10.311  18.806   2.159
23062W        W95487  26.500  26.148   0.951
23063W        W95488  35.123  35.798   4.165
23064W        W95489  17.246   0.270   0.056
23065W        W95490  42.298  40.902  12.943
23066W        W95491  27.590  25.693  13.003
23067W        W95492  19.463  16.610  11.702
23068W        W95493  22.510  43.594   0.990
23069W        W95494  42.255  22.615   1.565
23070W        W95495  18.102  43.930  12.073
23071W        W95496  17.569  25.274  12.676
23072W        W95497   1.800  42.801   3.173
23073W        W95498   2.971  44.023  11.160
23074W        W95499   8.707  16.766   4.124
23075W        W95500  19.639  33.535   0.763
23076W        W95501  17.078  21.133   4.277
23077W        W95502  30.072  13.177  10.699
23078W        W95503  40.601  41.778  10.549
23079W        W95504   2.160  44.968  12.707
23080W        W95505  40.611  43.259  12.474
23081W        W95506  25.455  43.932  11.103
23082W        W95507   7.769  19.632  11.620
23083W        W95508  23.041  19.748   0.184
23084W        W95509  42.771  22.181  14.237
23085W        W95510  40.867  30.911  11.788
23086W        W95511  18.623  33.973  12.683
23087W        W95512  23.290  42.012  11.315
23088W        W95513  31.188  10.419   0.331
23089W        W95514  34.692  23.529  10.264
23090W        W95515  43.031  43.823  14.885
23091W        W95516  13.327  11.336   1.229
23092W        W95517  33.368  17.293  13.495
23093W        W95518  25.630   1.971  13.044
23094W        W95519  13.659  34.792   3.215
23095W        W95520  14.383  30.135  10.766
23096W        W95521  31.323  28.408   4.649
23097W        W95522  12.869  14.649   2.087
23098W        W95523  41.470  38.351   1.694
23099W        W95524  33.914  41.443  10.619
23100W        W95525  33.381   0.613  12.056
23101W        W95526  14.741  22.790  14.009
23102W        W95527   9.107  37.625  14.233
23103W        W95528   0.405  32.500  14.531
23104W        W95529  28.052  21.861  13.969
23105W        W95530  17.245  40.073   0.868
23106W        W95531  31.397  21.405   0.779
23107W        W95532  12.843  22.202   1.268
23108W        W95533  10.706  28.057   4.098
23109W        W95534  24.179  10.318   4.377
23110W        W95535  12.039  18.097   2.285
23111W        W95536  29.830  20.063   2.713
23112W        W95537  37.364  17.565  13.353
23113W        W95538  10.119  39.984  13.011
23114W        W95539   2.510   7.663   3.212
23115W        W95540   4.505  32.362  14.778
23116W        W95541  24.878  39.690  11.686
23117W        W95542  41.154  40.874   4.205
23118W        W95543   3.421  16.369  14.056
23119W        W95544  12.314   1.144  14.508
23120W        W95545  34.575  31.640   4.797
23121W        W95546  25.206  41.169   3.593
23122W        W95547  15.291  32.537  14.190
23123W        W95548  28.035  16.740   1.568
23124W        W95549  17.433  28.130  12.664
23125W        W95550  34.880  29.128   1.156
23126W        W95551  34.035  38.866  14.068
23127W        W95552   0.899  30.439   1.774
23128W        W95553   5.186  40.072  10.779
23129W        W95554  24.481  23.782  11.175
23130W        W95555   5.599  21.744  11.096
23131W        W95556  17.696  12.369  10.651
23132W        W95557  41.744  30.970  11.613
23133W        W95558  17.651   3.018  10.886
23134W        W95559  27.215   0.789  11.866
23135W        W95560  16.332   0.299  14.809
23136W        W95561  39.965  37.784   2.599
23137W        W95562  37.781  10.398   3.582
23138W        W95563  23.452  44.188   4.747
23139W        W95564  21.654  15.913  13.981
23140W        W95565  10.174  16.170   2.617
23141W        W95566  43.918  43.545  10.601
23142W        W95567  42.396   7.424   0.029
23143W        W95568   6.904  40.765  12.658
23144W        W95569  12.015  22.352   5.083
23145W        W95570  26.096  18.448   3.690
23146W        W95571   1.343  18.092   3.691
23147W        W95572  44.816  39.962  11.638
23148W        W95573  32.993  26.140  13.873
23149W        W95574  34.587   8.842   0.316
23150W        W95575  11.933   7.509   0.022
23151W        W95576  19.740  23.431   1.665
23152W        W95577  40.858  28.542  10.646
23153W        W95578  24.023  17.291   5.177
23154W        W95579  19.139   2.292   2.258
23155W        W95580  18.088  33.405   0.197
23156W        W95581   6.998  16.352  14.823
23157W        W95582  39.844   7.822   4.224
23158W        W95583  14.632   2.796  11.853
23159W        W95584  25.193  39.081  12.133
23160W        W95585  32.608  25.134  14.631
23161W        W95586  42.972  10.137   0.842
23162W        W95587  24.067  19.697   0.728
23163W        W95588  22.688   8.301   3.860
23164W        W95589  39.296  14.039   0.511
23165W        W95590   4.973  11.913  13.077
23166W        W95591  14.495  21.186   5.095
23167W        W95592  17.721  37.157  11.855
23168W        W95593   4.195  13.049   0.113
23169W        W95594  29.165  10.596  13.510
23170W        W95595  36.622  35.911   4.726
23171W        W95596  27.217  24.641   4.351
23172W        W95597   6.999  26.507   1.315
23173W        W95598  19.136  11.624  14.377
23174W        W95599  19.578  10.261  13.032
23175W        W95600   2.941   6.953  12.999
23176W        W95601  22.747  35.932   4.082
23177W        W95602  10.830  29.141   3.750
23178W        W95603  42.274  36.035  12.539
23179W        W95604  25.689  28.534  14.434
23180W        W95605  43.398  34.281   1.487
23181W        W95606  34.858  36.154  11.060
23182W        W95607  26.961  19.252   3.199
23183W        W95608  13.730  23.986  11.113
23184W        W95609   4.056  24.576  12.493
23185W        W95610  42.436  19.671   1.366
23186W        W95611  11.110   2.155  11.883
23187W        W95612   3.441  21.170  14.996
23188W        W95613  12.103  20.674   2.581
23189W        W95614  21.102  27.591  10.748
23190W        W95615  41.991   3.401  11.970
23191W        W95616  43.377  28.356  11.684
23192W        W95617  22.971  26.062  11.370
23193W        W95618   9.670  23.094   3.328
23194W        W95619  17.573  11.774  13.401
23195W        W95620  36.352  18.178   2.887
23196W        W95621   8.776  29.324  11.566
23197W        W95622  29.409  31.531  12.278
23198W        W95623  35.016  43.324  14.492
23199W        W95624  37.630  11.869   0.616
23200W        W95625  17.211  30.521   2.181
23201W        W95626  40.095  14.891   3.478
23202W        W95627   1.684  27.921   0.339
23203W        W95628   2.843  38.939   3.532
23204W        W95629  10.251  31.869   4.258
23205W        W95630  14.258   2.263   2.772
23206W        W95631   1.674  43.906  11.839
23207W        W95632  27.448   3.178  14.261
23208W        W95633  29.021  20.229  13.310
23209W        W95634  23.076   6.730  12.435
23210W        W95635  32.123  24.375   4.588
23211W        W95636   7.011  35.525   0.712
23212W        W95637  31.334  18.103  14.592
23213W        W95638  21.661  30.931   2.220
23214W        W95639  10.224   5.357   1.293
23215W        W95640  16.124  12.761   3.557
23216W        W95641  26.571  37.496   4.472
23217W        W95642  40.012  41.395   2.878
23218W        W95643  19.673  24.691  11.622
23219W        W95644  37.594  14.558  11.955
23220W        W95645  31.077   4.264  14.466
23221W        W95646  17.198  38.847   3.831
23222W        W95647  25.986  19.980  13.585
23223W        W95648   9.728   8.191   2.829
23224W        W95649  16.495  31.909   4.416
23225W        W95650  17.034  38.134  10.138
23226W        W95651  10.071  22.866   1.749
23227W        W95652  10.599   8.278  11.429
23228W        W95653  27.217   8.150  11.552
23229W        W95654  18.758   1.958   1.222
23230W        W95655  43.936  18.901   0.884
23231W        W95656  22.124   8.130   2.327
23232W        W95657  44.813  39.402   0.177
23233W        W95658  36.710  36.101   2.760
23234W        W95659  37.915   0.255  13.474
23235W        W95660  35.463  26.144   1.007
23236W        W95661  16.787  14.108   2.820
23237W        W95662  12.412  38.709   4.596
23238W        W95663   9.233  43.371  13.907
23239W        W95664  26.605  24.033   1.241
23240W        W95665  10.369  30.534  12.439
23241W        W95666  21.825  17.622  13.425
23242W        W95667   1.365   1.431   2.163
23243W        W95668  12.314  32.624   4.594
23244W        W95669   8.273  43.036   3.355
23245W        W95670   2.485  34.344   2.853
23246W        W95671   7.731  42.688   4.265
23247W        W95672   3.207  23.585   4.948
23248W        W95673   4.341  31.964   4.288
23249W        W95674  25.428  17.019   1.470
23250W        W95675  39.924   4.493  12.617
23251W        W95676  13.603  38.863  12.468
23252W        W95677  35.031   7.788  11.074
23253W        W95678  43.235   6.165   3.638
23254W        W95679  12.253  22.153  13.580
23255W        W95680  14.355  18.388   4.213
23256W        W95681  14.318   6.916   3.886
23257W        W95682  41.584  19.139   4.255
23258W        W95683  13.913  31.447   4.420
23259W        W95684  36.931  19.515  11.660
23260W        W95685  15.117  23.784  14.642
23261W        W95686  34.575   4.822  10.522
23262W        W95687  12.801  31.857  11.631
23263W        W95688  12.863  39.109   1.779
23264W        W95689  21.125  24.638  11.938
23265W        W95690  37.260  40.079   4.907
23266W        W95691   7.282  22.546   1.603
23267W        W95692  39.790  25.094  10.684
23268W        W95693  33.162  18.551  10.235
23269W        W95694  19.194   2.865  12.299
23270W        W95695   1.756  27.147   2.683
23271W        W95696  27.062  32.341   4.517
23272W        W95697  37.973  10.613  13.015
23273W        W95698   9.683  22.462   2.877
23274W        W95699  34.696  35.636   0.870
23275W        W95700  17.718  40.511   4.145
23276W        W95701  44.554   3.815   4.979
23277W        W95702  20.869  37.166   4.992
23278W        W95703  44.245  18.250  12.038
23279W        W95704   9.599   8.159  14.865
23280W        W95705  28.465  21.271   4.628
23281W        W95706  37.815   0.848  12.779
23282W        W95707  31.983  33.970  14.762
23283W        W95708  39.817   0.483   4.245
23284W        W95709  40.446   0.245   2.481
23285W        W95710   6.314  27.917   1.692
23286W        W95711  14.848  30.374   4.158
23287W        W95712  12.371  43.802  13.841
23288W        W95713  11.399  35.933   3.732
23289W        W95714  21.612  10.710  12.549
23290W        W95715  28.209  28.171  13.882
23291W        W95716  29.232  10.319   3.402
23292W        W95717  21.142   4.266  11.652
23293W        W95718  22.805  17.989  12.720
23294W        W95719  43.944  38.056   4.097
23295W        W95720   8.162  19.897  12.410
23296W        W95721  22.221   2.294  11.091
23297W        W95722  41.003  12.906  12.908
23298W        W95723  25.630   4.662   1.227
23299W        W95724   4.831  18.159   3.867
23300W        W95725  41.357  29.566  14.202
23301W        W95726   2.818  32.053   3.397
23302W        W95727  27.337  23.969   0.857
23303W        W95728  25.574   5.992   1.354
23304W        W95729   0.241  36.353   0.146
23305W        W95730  40.303  27.183   2.853
23306W        W95731  17.855  40.835   4.527
23307W        W95732  33.541  41.542   2.363
23308W        W95733  10.152  37.941   5.045
23309W        W95734  23.829  11.428   3.157
23310W        W95735  17.128  38.078  11.086
23311W        W95736   8.608  13.817  12.466
23312W        W95737  37.855   4.358  14.368
23313W        W95738  36.940  43.332  13.617
23314W        W95739  38.800  33.079   0.167
23315W        W95740  31.559  22.933   1.043
23316W        W95741  12.370   1.943  12.848
23317W        W95742  23.011  44.535  10.553
23318W        W95743  16.675  28.211   2.775
23319W        W95744  22.655  18.899  13.869
23320W        W95745  10.806  26.461  10.969
23321W        W95746   2.595  24.929   0.268
23322W        W95747  34.166   8.199  11.728
23323W        W95748  31.193  17.079  11.080
23324W        W95749  44.773  38.889   1.650
23325W        W95750  34.161   5.447  12.888
23326W        W95751   4.818  37.792  14.304
23327W        W95752   1.971   0.501   4.256
23328W        W95753  23.100  24.450  10.375
23329W        W95754   8.922  25.557  11.980
23330W        W95755  37.051  11.918  13.413
23331W        W95756  42.871  23.731  14.028
23332W        W95757  25.407  23.506   1.301
23333W        W95758  28.364  17.611  13.404
23334W        W95759  30.164   2.182   2.359
23335W        W95760  22.167  33.834   2.367
23336W        W95761   1.204  16.612  12.090
23337W        W95762  21.071  31.643   1.392
23338W        W95763  22.247  11.210  11.969
23339W        W95764  10.628  35.947   5.224
23340W        W95765  28.112  27.410   4.221
23341W        W95766   2.565   7.345   3.842
23342W        W95767  35.466  25.737   1.323
23343W        W95768  43.639  20.649   1.465
23344W        W95769  25.927  10.790   1.793
23345W        W95770   1.727  38.317   2.335
23346W        W95771  28.893   3.450   1.850
23347W        W95772  33.153  39.463  13.425
23348W        W95773   0.727   5.838  14.876
23349W        W95774  34.086  36.787   3.112
23350W        W95775  15.605  24.984  10.577
23351W        W95776  24.637  41.892  12.215
23352W        W95777  44.548   5.896   3.802
23353W        W95778  32.634  32.523  11.144
23354W        W95779   9.161  35.473   4.092
23355W        W95780  11.296   7.770  11.408
23356W        W95781  32.587  40.446   2.242
23357W        W95782  25.534  42.884  14.357
23358W        W95783  43.829  44.562  13.851
23359W        W95784  15.281  35.363  12.167
23360W        W95785   0.598  41.378  12.947
23361W        W95786  39.630   1.172   2.805
23362W        W95787   1.428  17.707   5.046
23363W        W95788  30.668  17.627   0.325
23364W        W95789  42.374   1.889   3.040
23365W        W95790  42.460  40.366   2.333
23366W        W95791   3.003  40.293  11.500
23367W        W95792  33.021   9.474  12.056
23368W        W95793  28.535   8.518   3.754
23369W        W95794  20.175  24.440  11.529
23370W        W95795  29.682  35.859  12.977
23371W        W95796  26.029  13.590   4.775
23372W        W95797  37.848  15.279   4.642
23373W        W95798  34.059   4.409  10.806
23374W        W95799  31.387  14.160   2.771
23375W        W95800  12.757  37.719  13.121
23376W        W95801  38.791  26.077  12.793
23377W        W95802  19.777  41.746   5.118
23378W        W95803  13.113  30.548  13.372
23379W        W95804  12.923  39.964   4.224
23380W        W95805  16.968  31.672   4.137
23381W        W95806  25.163  11.665   2.329
23382W        W95807   1.817  16.672   2.264
23383W        W95808  43.808   8.693   3.635
23384W        W95809  42.360  14.764  11.582
23385W        W95810  34.391   8.511  14.956
23386W        W95811   7.574   8.684  14.558
23387W        W95812   5.993  31.688  12.115
23388W        W95813  14.055  37.481   3.814
23389W        W95814   3.930  43.531   4.446
23390W        W95815  42.703  21.463  12.121
23391W        W95816  15.335  44.735   4.947
23392W        W95817   3.824  30.494   3.486
23393W        W95818  12.386  25.784  13.363
23394W        W95819  35.639  33.398   0.899
23395W        W95820  42.521   0.689   0.278
23396W        W95821   0.201  15.534  12.071
23397W        W95822  27.829  24.070   2.404
23398W        W95823  17.651  16.301  12.341
23399W        W95824   6.432  44.537   0.859
23400W        W95825  34.488   1.239   1.383
23401W        W95826  13.724  14.656   2.380
23402W        W95827  34.391   0.364  12.809
23403W        W95828  26.053  29.919  12.461
23404W        W95829  25.219  25.176  12.364
23405W        W95830  33.306  36.004   4.706
23406W        W95831  23.176   9.656   3.219
23407W        W95832  23.748  35.503  12.023
23408W        W95833  15.663  18.378   0.266
23409W        W95834  27.375  36.353  12.503
23410W        W95835  36.951  25.106   3.094
23411W        W95836   4.387  20.617   0.292
23412W        W95837  23.014  29.570  12.053
23413W        W95838   4.150   8.160  12.434
23414W        W95839   0.989  27.144  11.574
23415W        W95840   1.993  33.538  12.537
23416W        W95841  13.057   4.353   3.710
23417W        W95842  21.506  14.171   5.162
23418W        W95843   1.965  39.995   1.977
23419W        W95844  37.987  36.563   4.913
23420W        W95845  29.521   6.649   4.987
23421W        W95846  35.061  24.512  12.398
23422W        W95847  19.720  41.356  11.449
23423W        W95848  39.906  22.745   1.359
23424W        W95849  36.573   3.663  10.704
23425W        W95850  18.001   5.338  11.545
23426W        W95851  18.118  33.859   2.906
23427W        W95852   0.780  13.603   2.452
23428W        W95853  19.078   3.259   1.614
23429W        W95854  15.217  23.051   2.254
23430W        W95855  14.304  24.575  13.892
23431W        W95856  28.819  35.825   2.455
23432W        W95857  42.970  27.920  10.657
23433W        W95858  12.091  33.572   2.360
23434W        W95859  22.088  41.896  10.717
23435W        W95860  23.984  31.504   3.577
23436W        W95861   4.314   0.183   0.784
23437W        W95862  28.899  15.221   0.803
23438W        W95863   1.947   9.907   1.811
23439W        W95864   7.321   6.731   2.617
23440W        W95865  26.330  30.670  14.351
23441W        W95866   9.128  31.052   2.606
23442W        W95867  42.309  42.467   1.783
23443W        W95868  30.788  29.109  13.605
23444W        W95869  11.288  34.886   0.951
23445W        W95870  40.792  22.656   1.806
23446W        W95871  16.699  27.470   4.062
23447W        W95872  25.516  26.632  14.297
23448W        W95873  13.926  19.956   3.710
23449W        W95874  24.205   7.792   4.904
23450W        W95875  40.440  35.934   2.960
23451W        W95876   3.284  30.492   0.312
23452W        W95877  27.090  36.406   2.626
23453W        W95878   6.637  42.224   1.757
23454W        W95879  44.954  28.577   3.220
23455W        W95880  17.552  17.143  12.412
23456W        W95881  26.456  18.571  13.967
23457W        W95882   1.019  30.758   2.235
23458W        W95883  23.369  42.426   2.899
23459W        W95884  23.727  33.917   0.957
23460W        W95885  39.431  24.671   2.349
23461W        W95886  31.479  25.027   4.333
23462W        W95887  33.092  37.777   0.685
23463W        W95888  13.695   2.835   1.221
23464W        W95889  32.843  27.115  10.725
23465W        W95890  42.811   6.674   1.793
23466W        W95891   1.974  42.959  14.270
23467W        W95892  16.524  31.471   0.660
23468W        W95893   0.309  10.731   0.733
23469W        W95894  31.146  12.371   2.917
23470W        W95895  28.171   9.152   4.082
23471W        W95896  39.435  44.878  10.160
23472W        W95897  39.781  42.900  13.011
23473W        W95898   7.287   4.796  11.580
23474W        W95899   0.790  14.833  12.079
23475W        W95900  21.107  41.930  12.666
23476W        W95901  14.720  10.440  13.765
23477W        W95902  35.048  17.462   3.778
23478W        W95903  16.172  31.425  10.908
23479W        W95904  13.773   5.852   4.668
23480W        W95905  43.084  21.693  12.408
23481W        W95906   7.260  19.010  13.395
23482W        W95907  34.450  19.566   0.718
23483W        W95908  25.570   9.435  14.851
23484W        W95909   7.290  37.450   3.161
23485W        W95910   3.421   7.246  12.934
23486W        W95911  26.081  29.955   0.484
23487W        W95912  38.223  30.439  11.656
23488W        W95913  36.779  34.059  13.635
23489W        W95914   0.396  34.904   3.673
23490W        W95915  28.121  15.074   4.391
23491W        W95916   6.158  33.302   3.096
23492W        W95917  11.626  30.991  13.412
23493W        W95918  10.341   8.607   5.445
23494W        W95919  19.243  20.104   4.221
23495W        W95920   6.752  17.511   0.156
23496W        W95921  26.617  39.236  13.217
23497W        W95922  43.821  26.019   4.317
23498W        W95923  28.912  22.562   1.193
23499W        W95924   2.877  35.469   1.753
23500W        W95925  27.501  14.961   1.714
23501W        W95926  23.716  41.122  14.590
23502W        W95927   1.959  13.282  14.826
23503W        W95928  14.127  42.454   0.629
23504W        W95929  10.371  33.473  10.413
23505W        W95930  21.089  21.458  13.848
23506W        W95931   8.830  20.942   4.559
23507W        W95932  13.625  17.800   4.110
23508W        W95933  15.386  14.712   1.826
23509W        W95934  22.265   1.706  14.409
23510W        W95935  13.276  12.327  14.653
23511W        W95936  38.317  33.788   0.912
23512W        W95937  34.859  18.546  14.252
23513W        W95938  15.587  20.442  12.221
23514W        W95939  44.967  39.563   1.888
23515W        W95940   8.174   4.845  10.003
23516W        W95941  37.991  14.686  14.400
23517W        W95942   9.033  27.253   1.344
23518W        W95943  39.052  36.119   4.273
23519W        W95944  38.614  37.491  13.840
23520W        W95945  43.563  29.966   2.649
23521W        W95946  27.677   1.424  10.695
23522W        W95947  40.368  41.550   5.097
23523W        W95948  28.730  12.093  13.809
23524W        W95949   8.849  34.224  14.473
23525W        W95950   6.835  26.264   2.428
23526W        W95951   2.961  13.325  12.096
23527W        W95952   4.637  31.982  13.044
23528W        W95953  27.540  23.186   4.008
23529W        W95954  17.767  21.794   2.194
23530W        W95955  21.633   9.802   1.726
23531W        W95956  34.359  25.907  14.902
23532W        W95957   2.041  15.074  13.936
23533W        W95958  24.169  29.578  11.545
23534W        W95959  20.936  13.805   0.303
23535W        W95960  17.732   9.379  14.784
23536W        W95961  39.315  38.147   2.686
23537W        W95962   8.244  44.247  12.483
23538W        W95963   3.255  24.043   1.574
23539W        W95964   7.071   4.217   2.125
23540W        W95965  26.146  32.515  10.071
23541W        W95966  31.346   7.339  14.396
23542W        W95967  17.497  40.340  12.571
23543W        W95968  37.002  32.628  14.337
23544W        W95969  18.162   2.004  12.444
23545W        W95970  44.345  17.197   1.159
23546W        W95971  32.656  37.079   3.728
23547W        W95972  30.910  17.690  14.861
23548W        W95973   8.352   0.915   2.728
23549W        W95974  35.499  31.059   2.024
23550W        W95975  28.931  43.135   2.820
23551W        W95976  29.219   0.836   3.321
23552W        W95977  13.113  44.990   0.706
23553W        W95978  30.196  38.041   1.973
23554W        W95979   9.099  15.582  14.940
23555W        W95980  39.544  16.228   4.567
23556W        W95981  26.088  24.898   4.566
23557W        W95982   1.683   1.447   1.732
23558W        W95983  18.773   6.829  13.587
23559W        W95984   2.849  16.988  12.434
23560W        W95985   7.745  19.657   0.940
23561W        W95986  39.336  14.278   3.756
23562W        W95987  43.960   4.160  14.996
23563W        W95988  19.551  14.393  11.099
23564W        W95989  20.471  10.618   1.925
23565W        W95990  15.101  39.144  12.370
23566W        W95991  40.334  16.881   2.263
23567W        W95992   8.332  13.024  13.921
23568W        W95993  38.582  33.865   3.191
23569W        W95994  20.040   8.270   4.222
23570W        W95995  20.175  12.638   2.472
23571W        W95996   7.447  38.576  12.569
23572W        W95997  27.683  22.616  12.155
23573W        W95998   9.442  10.142  13.489
23574W        W95999  26.446   4.908   3.138
23575W        W96000  26.998  29.597  12.606
23576W        W96001  33.986  21.547  12.945
23577W        W96002   8.202  27.746   3.781
23578W        W96003   7.918  34.385   3.770
23579W        W96004  16.316  42.054   0.980
23580W        W96005   6.878  26.536   1.821
23581W        W96006   7.310   8.789  13.766
23582W        W96007   4.699  28.987  13.864
23583W        W96008  29.951   5.265  14.843
23584W        W96009  33.592  31.383   3.861
23585W        W96010  33.064  10.378  10.552
23586W        W96011  29.443   9.325   4.263
23587W        W96012  29.143  14.193   4.671
23588W        W96013  24.911  30.530  11.924
23589W        W96014  44.368  32.606  10.697
23590W        W96015  31.014  30.525   5.252
23591W        W96016   8.158  37.950   0.452
23592W        W96017  18.189   1.281  13.049
23593W        W96018  26.512  36.868  12.414
23594W        W96019  34.437  30.327   3.192
23595W        W96020  36.784  11.160   2.485
23596W        W96021  24.210  34.931   3.182
23597W        W96022  19.625  24.264  10.523
23598W        W96023  11.618  26.967  11.148
23599W        W96024  32.015  44.316  13.817
23600W        W96025  40.358   1.540   4.243
23601W        W96026  43.812   2.292  14.236
23602W        W96027  34.516   7.373  11.845
23603W        W96028   2.776  24.623  10.632
23604W        W96029   7.135  26.437  14.552
23605W        W96030  16.891   8.862  14.460
23606W        W96031  39.487  37.847  13.851
23607W        W96032  22.053  23.672   2.123
23608W        W96033  15.894  28.862   2.739
23609W        W96034  18.677  29.191   1.677
23610W        W96035   2.454  28.991  14.872
23611W        W96036   8.541  41.465  12.688
23612W        W96037  44.440  30.359   2.593
23613W        W96038  25.289  21.519  13.065
23614W        W96039  39.325   2.680  11.485
23615W        W96040  15.261  12.059  13.708
23616W        W96041   7.304   1.512  10.882
23617W        W96042   0.288  11.306  11.348
23618W        W96043  24.397  12.160   0.878
23619W        W96044  30.097  26.225   2.795
23620W        W96045  36.657  42.816   4.118
23621W        W96046  21.723   3.061   0.539
23622W        W96047  39.430  22.996   0.694
23623W        W96048  23.648  12.118  10.365
23624W        W96049  21.980  29.993  13.835
23625W        W96050  37.356  38.716  11.087
23626W        W96051  38.699  33.892  13.485
23627W        W96052  27.495   2.981   4.019
23628W        W96053   9.277  23.077   0.914
23629W        W96054  22.201  24.634   2.384
23630W        W96055  33.077  29.093  11.244
23631W        W96056   7.705  14.849  12.405
23632W        W96057  37.979  29.651  13.068
23633W        W96058  17.497  18.117   0.293
23634W        W96059  12.714   1.867   2.292
23635W        W96060   7.617  31.011  10.303
23636W        W96061  30.105   9.653  10.884
23637W        W96062  18.354  29.996   1.953
23638W        W96063  10.179   4.620   1.903
23639W        W96064  37.004   5.007  10.543
23640W        W96065   6.663   4.212   0.352
23641W        W96066  27.950  15.216  14.335
23642W        W96067   6.428  12.836   3.670
23643W        W96068  42.491  25.015   1.801
23644W        W96069  16.273  24.400   2.318
23645W        W96070  26.188  30.160   2.153
23646W        W96071  25.101  15.231   0.548
23647W        W96072  14.448  38.531   2.534
23648W        W96073   9.065  27.276  13.925
23649W        W96074  14.022   5.083   4.057
23650W        W96075  22.266  12.156  10.502
23651W        W96076   4.442  37.246   4.290
23652W        W96077   3.470  36.071   0.378
23653W        W96078   9.806  20.305  13.175
23654W        W96079  23.943  17.200  12.490
23655W        W96080  41.128  16.119  13.438
23656W        W96081   8.261  24.861   3.008
23657W        W96082  15.320  29.937  14.438
23658W        W96083  13.531   8.459   2.838
23659W        W96084  18.820  18.255   2.611
23660W        W96085  16.298  13.767  10.928
23661W        W96086  13.618   2.856  11.984
23662W        W96087  26.616  24.584  12.111
23663W        W96088   1.241  14.273  13.033
23664W        W96089  15.201   1.467   0.459
23665W        W96090  21.477  29.101  14.024
23666W        W96091  30.635  27.151  13.249
23667W        W96092  20.227  24.270   0.792
23668W        W96093  28.028  26.682   3.605
23669W        W96094  31.615  10.200  13.998
23670W        W96095  22.208  39.457  14.780
23671W        W96096   0.001  19.055   0.243
23672W        W96097   9.699  12.225   2.237
23673W        W96098   7.299  35.898   3.929
23674W        W96099  43.092  27.993  14.789
23675W        W96100  41.827  24.127  14.384
23676W        W96101   3.385  26.024   1.409
23677W        W96102   5.697   8.253  12.505
23678W        W96103   1.326  32.837  12.125
23679W        W96104  39.565  21.517  12.559
23680W        W96105  40.430  18.822   0.787
23681W        W96106   7.223  44.687  10.810
23682W        W96107  32.001  43.997  14.829
23683W        W96108  17.987  41.696  14.385
23684W        W96109  17.050   0.794  11.850
23685W        W96110  15.691   5.848   1.749
23686W        W96111  22.045  30.679   0.926
23687W        W96112   5.273  28.202  13.981
23688W        W96113  42.857  11.887  14.502
23689W        W96114  14.879  12.103   0.769
23690W        W96115  15.614  21.696  14.862
23691W        W96116   2.200  26.856   2.865
23692W        W96117  29.128  20.729  13.810
23693W        W96118  13.847   5.422   1.273
23694W        W96119  33.583  36.267   2.280
23695W        W96120  17.375  20.862  12.580
23696W        W96121  16.323  16.022  13.982
23697W        W96122   6.832  38.464   3.065
23698W        W96123   8.641  30.890  13.399
23699W        W96124  35.457   5.120  10.327
23700W        W96125  17.597   1.068  11.033
23701W        W96126  17.217  19.300   1.886
23702W        W96127  40.491   5.956   1.276
23703W        W96128  28.427  39.987  12.553
23704W        W96129  29.458  42.264  11.413
23705W        W96130  19.800  27.329  12.326
23706W        W96131  22.111   0.302   3.179
23707W        W96132  34.311  19.822  12.554
23708W        W96133   9.220  33.726   3.760
23709W        W96134  14.215   7.643   3.402
23710W        W96135  31.920  13.023   2.385
23711W        W96136  40.261  42.935  11.586
23712W        W96137  10.245  42.090   0.439
23713W        W96138  19.249  42.007  11.927
23714W        W96139  24.845  30.277   4.370
23715W        W96140  44.137   5.852   9.964
23716W        W96141   0.797   7.368   1.348
23717W        W96142  32.991  40.974  10.701
23718W        W96143  18.593  19.602   1.793
23719W        W96144   1.776  18.614  12.573
23720W        W96145  12.982  42.857  11.573
23721W        W96146  33.874  22.652   2.823
23722W        W96147  30.844  38.936  11.186
23723W        W96148  39.558  25.424   1.882
23724W        W96149   9.789  23.134  13.341
23725W        W96150  24.758  41.096   0.858
23726W        W96151  14.259  39.794   3.872
23727W        W96152  30.366  21.751  11.537
23728W        W96153   8.423   9.222  10.225
23729W        W96154  30.985   5.996  13.839
23730W        W96155  43.598  44.907   2.555
23731W        W96156  36.671   2.741   3.686
23732W        W96157  38.619  16.157  13.540
23733W        W96158   6.672  33.566  12.095
23734W        W96159  40.053  33.100   1.750
23735W        W96160   6.284  13.294   4.489
23736W        W96161  10.710  16.105   2.705
23737W        W96162  35.619  20.855   2.804
23738W        W96163  10.337  28.188   2.215
23739W        W96164  10.178  39.308   2.106
23740W        W96165  33.100  29.482  10.379
23741W        W96166  35.552  25.601  10.561
23742W        W96167   3.857  16.064   0.263
23743W        W96168  13.561  22.364   1.659
23744W        W96169  30.136  38.548   2.790
23745W        W96170   5.446  31.598   0.371
23746W        W96171  41.755  32.412  12.901
23747W        W96172  42.408  24.569   2.973
23748W        W96173  37.296  25.051   2.722
23749W        W96174  37.473   3.976   0.003
23750W        W96175   2.788  31.105   4.710
23751W        W96176   3.312  42.808   2.754
23752W        W96177  35.022   1.438   5.143
23753W        W96178  39.178   2.281   0.930
23754W        W96179  12.322  44.384  14.303
23755W        W96180  12.752  23.591  12.150
23756W        W96181  18.758  16.776   0.291
23757W        W96182   3.307  12.826  13.862
23758W        W96183  29.747  44.994  12.554
23759W        W96184  39.405   9.856   3.563
23760W        W96185  29.450  37.254  11.577
23761W        W96186  29.240  32.833   3.795
23762W        W96187   4.447  43.764  14.535
23763W        W96188  27.979  11.798  14.290
23764W        W96189   3.525   2.307  13.498
23765W        W96190   9.565  40.485  11.599
23766W        W96191  20.742   0.969  12.441
23767W        W96192  12.105  39.596   1.673
23768W        W96193  31.982  25.254   3.313
23769W        W96194   3.025   1.803   0.353
23770W        W96195   1.261   9.860  11.397
23771W        W96196   9.773  18.268  11.546
23772W        W96197  19.528  22.648  12.537
23773W        W96198  30.506  32.498  11.530
23774W        W96199  20.736   1.750   0.828
23775W        W96200  44.804  24.238   1.612
23776W        W96201  35.560   5.278  12.275
23777W        W96202   1.939  36.815  13.883
23778W        W96203  22.122   6.996   0.397
23779W        W96204  34.702  42.946   0.840
23780W        W96205  13.748   5.927   1.305
23781W        W96206  10.695  38.879   1.892
23782W        W96207  38.813  29.122  12.004
23783W        W96208  17.767  29.963  12.508
23784W        W96209   4.218  42.489   3.974
23785W        W96210  28.723   5.823  12.082
23786W        W96211  17.663  30.473   4.125
23787W        W96212  26.039  38.096  14.337
23788W        W96213  13.189  31.894  12.939
23789W        W96214  15.185  36.633   4.319
23790W        W96215  16.844  39.227  12.515
23791W        W96216  33.271  18.663  12.128
23792W        W96217  41.877  29.494  14.378
23793W        W96218  26.900  33.045   3.337
23794W        W96219   1.815  17.232  14.935
23795W        W96220  28.594  33.158   5.092
23796W        W96221  25.477  21.509  10.669
23797W        W96222  20.105  11.182   4.581
23798W        W96223  15.730  41.854  11.001
23799W        W96224  21.270  31.074  14.056
23800W        W96225  30.475  13.411   0.448
23801W        W96226  32.397  36.234  13.745
23802W        W96227  43.299  18.207   3.248
23803W        W96228  23.178  41.943   1.355
23804W        W96229  24.911   1.660   3.280
23805W        W96230  25.988  17.721   0.630
23806W        W96231  44.402  26.483   3.715
23807W        W96232  30.105   4.230   3.901
23808W        W96233  31.917  34.363  13.401
23809W        W96234  32.298   0.310  13.561
23810W        W96235  23.256   7.612   2.349
23811W        W96236  12.430  23.045   3.591
23812W        W96237   3.462  28.589  11.496
23813W        W96238  17.774  37.069  12.339
23814W        W96239  29.582  24.208   2.639
23815W        W96240   7.910  35.301   4.069
23816W        W96241  10.851  15.610   0.843
23817W        W96242  28.006  23.985   1.267
23818W        W96243  11.107  31.034   0.575
23819W        W96244  12.470  41.960  10.792
23820W        W96245   4.433   2.127   0.827
23821W        W96246   4.332  11.402  10.716
23822W        W96247  16.182  10.321  11.214
23823W        W96248  40.385  38.977   2.592
23824W        W96249  21.613  44.048   3.295
23825W        W96250   7.454   8.562   5.027
23826W        W96251  17.817  11.196   0.344
23827W        W96252  29.241  14.506  11.073
23828W        W96253  25.669  21.056   4.034
23829W        W96254  39.532  37.850   2.292
23830W        W96255  42.333   6.724  13.782
23831W        W96256  10.746  26.313   0.129
23832W        W96257   9.140  15.039  14.011
23833W        W96258  27.228   1.447   4.346
23834W        W96259  43.182  44.378   3.642
23835W        W96260   3.203  37.844  11.536
23836W        W96261  29.645   1.110   1.245
23837W        W96262  36.975  25.591   9.770
23838W        W96263  25.214  20.556  14.024
23839W        W96264  28.550  32.627   4.434
23840W        W96265  13.705  17.036   0.962
23841W        W96266  23.725  27.417   4.430
23842W        W96267   3.383  11.408   2.756
23843W        W96268  32.513   9.185  13.577
23844W        W96269  26.450  41.617  14.081
23845W        W96270  34.870  39.502  12.493
23846W        W96271  34.483   9.391   0.178
23847W        W96272   8.126  44.892  10.618
23848W        W96273   7.181  20.543   2.393
23849W        W96274  40.830   6.224   0.339
23850W        W96275   1.844  36.580  11.934
23851W        W96276  39.451  38.141  11.210
23852W        W96277  16.328  24.787  13.457
23853W        W96278   8.823  43.095  12.967
23854W        W96279  16.576  42.484  11.562
23855W        W96280  44.953  33.341   0.800
23856W        W96281   5.906  36.843   4.222
23857W        W96282   9.887  43.670  14.234
23858W        W96283   8.959   3.973  11.099
23859W        W96284   2.966  11.586   0.822
23860W        W96285  10.139  16.782   1.426
23861W        W96286   2.221  39.385  12.246
23862W        W96287  16.209   3.278  11.007
23863W        W96288  33.445  30.133  11.402
23864W        W96289  29.162  12.379  10.871
23865W        W96290  15.239  20.297  11.439
23866W        W96291  15.172  22.638  10.631
23867W        W96292  37.863   8.902   4.562
23868W        W96293   7.812  34.975  14.986
23869W        W96294  33.017  29.912   0.340
23870W        W96295  34.626   3.478   3.382
23871W        W96296   1.964   1.232  14.343
23872W        W96297  28.089  38.430   9.992
23873W        W96298   9.790  29.893  10.648
23874W        W96299  42.424  14.344   3.674
23875W        W96300  14.347  28.422  12.999
23876W        W96301  12.422   1.321  10.639
23877W        W96302  26.217   0.981   1.131
23878W        W96303  14.177   8.243   2.319
23879W        W96304  36.306  34.801  12.953
23880W        W96305  30.083  42.885  13.082
23881W        W96306  33.977  36.666  12.415
23882W        W96307  38.243  28.962  12.015
23883W        W96308  10.859  24.167  11.860
23884W        W96309  43.330   7.295  13.491
23885W        W96310  30.972   9.152  14.193
23886W        W96311   0.321  38.220  14.950
23887W        W96312  11.801  17.894  11.987
23888W        W96313  25.265  21.313   2.423
23889W        W96314  11.286  23.659  10.504
23890W        W96315  18.660  38.330  14.865
23891W        W96316  43.499  40.879   1.744
23892W        W96317  35.096   2.676  12.561
23893W        W96318  33.373   7.161  10.497
23894W        W96319   0.810  34.423   2.632
23895W        W96320  43.507  38.436  14.093
23896W        W96321  13.822  24.181  11.605
23897W        W96322  12.211  38.002  14.793
23898W        W96323  42.229  22.010  11.010
23899W        W96324  22.771  36.465  12.435
23900W        W96325  25.523  18.071  10.537
23901W        W96326   9.978   1.739  13.301
23902W        W96327  21.555  30.530  14.673
23903W        W96328  44.885  44.064  11.652
23904W        W96329  34.874  24.710  12.894
23905W        W96330  37.791  11.814   4.505
23906W        W96331   5.743  38.515   4.654
23907W        W96332   8.234  32.886  12.017
23908W        W96333  18.664  32.802   2.418
23909W        W96334  36.587  23.463   4.066
23910W        W96335  28.655  38.090  14.877
23911W        W96336  24.457  36.738  13.905
23912W        W96337  32.116   2.467   1.265
23913W        W96338  13.816   3.869  12.795
23914W        W96339  17.051  37.882   1.410
23915W        W96340  33.025  16.584   0.985
23916W        W96341   4.243   0.775   1.840
23917W        W96342  13.140   8.703  13.461
23918W        W96343  27.091  39.856   4.892
23919W        W96344  27.556  11.781   0.399
23920W        W96345  29.624  22.336   2.344
23921W        W96346  36.565  21.397   3.445
23922W        W96347  34.922  40.510   0.324
23923W        W96348  13.406  44.460   4.155
23924W        W96349  29.051  11.564   1.448
23925W        W96350   4.306   4.373   0.979
23926W        W96351   8.181  28.277  13.499
23927W        W96352   7.263  39.072   1.241
23928W        W96353   5.267  38.335  12.612
23929W        W96354  10.629  41.928  14.822
23930W        W96355  27.919  41.170  12.357
23931W        W96356  32.498  40.872   4.279
23932W        W96357  18.692  19.711   9.942
23933W        W96358  38.867  14.562  14.420
23934W        W96359  42.872  10.405  10.681
23935W        W96360   7.338   4.227  13.241
23936W        W96361  21.653  34.558  14.601
23937W        W96362   0.824  23.184  13.909
23938W        W96363  22.789  12.695   1.933
23939W        W96364  35.011   7.515   3.524
23940W        W96365  12.667  39.434  11.470
23941W        W96366  31.665  32.075  10.695
23942W        W96367   6.186  19.056   1.434
23943W        W96368  44.724  40.275  10.626
23944W        W96369  28.192  13.370  11.004
23945W        W96370   1.958   5.827   2.307
23946W        W96371  17.183  19.635  10.540
23947W        W96372  35.190  36.622   3.883
23948W        W96373   0.684  27.749  10.740
23949W        W96374  24.980  26.950   3.225
23950W        W96375  41.828  28.916  11.393
23951W        W96376   9.662  21.573  14.595
23952W        W96377  26.485  39.537  12.210
23953W        W96378  39.973  42.594   3.750
23954W        W96379  29.549  41.509   3.819
23955W        W96380  33.103   4.641   2.680
23956W        W96381  33.918  34.086  11.145
23957W        W96382  36.545  28.792   1.973
23958W        W96383  14.661  44.802   2.952
23959W        W96384  43.308   4.419   1.700
23960W        W96385  14.599  14.092  14.308
23961W        W96386  34.085  29.082   2.766
23962W        W96387   0.822  22.510   3.289
23963W        W96388  29.964   2.998   3.000
23964W        W96389   4.630  18.834   0.472
23965W        W96390  22.599  18.488   3.088
23966W        W96391   8.800  38.405  11.996
23967W        W96392   1.888  17.131   1.020
23968W        W96393  27.158  25.518   1.820
23969W        W96394  23.666  26.077  13.137
23970W        W96395  39.865  33.705  11.459
23971W        W96396  11.367  41.017   1.153
23972W        W96397  35.101  35.012  14.463
23973W        W96398  35.727  28.450   2.451
23974W        W96399  38.031   9.647   4.012
23975W        W96400  27.620   1.977  10.757
23976W        W96401   6.179  27.015   2.700
23977W        W96402  24.670  36.348   0.720
23978W        W96403  41.763  20.079  10.495
23979W        W96404  30.436  38.118   3.613
23980W        W96405  13.385  16.708  13.479
23981W        W96406  39.616  26.451   2.013
23982W        W96407  23.006  14.912  14.948
23983W        W96408  29.789  30.967  14.456
23984W        W96409  42.635  27.066   5.119
23985W        W96410   3.288  43.343  12.709
23986W        W96411   7.172  11.631  13.882
23987W        W96412   5.873  13.732  12.863
23988W        W96413   6.994  44.254   1.553
23989W        W96414  43.315  27.509  11.898
23990W        W96415  25.722   8.672  12.473
23991W        W96416  32.979  41.486  13.317
23992W        W96417  20.645  42.558  11.647
23993W        W96418  32.189  11.529  10.300
23994W        W96419   3.471   5.239  14.759
23995W        W96420  22.692  29.180   2.802
23996W        W96421  13.853   8.176   0.429
23997W        W96422  44.322  10.571  12.967
23998W        W96423  21.885  23.738   4.159
23999W        W96424  29.432  35.874   3.110
24000W        W96425  17.842  24.829  13.337
24001W        W96426   8.785  22.937   0.837
24002W        W96427   6.686   1.188  13.804
24003W        W96428   8.157  25.991   1.449
24004W        W96429  37.847   9.050   3.213
24005W        W96430   1.941  21.547  10.387
24006W        W96431  24.618  37.895   1.468
24007W        W96432  26.368  35.467   3.963
24008W        W96433  44.938   8.469   2.753
24009W        W96434  10.697  43.798   3.830
24010W        W96435  18.765  28.736  14.944
24011W        W96436  17.132  38.066   4.129
24012W        W96437  42.424  29.095   1.390
24013W        W96438  14.639   9.008   1.720
24014W        W96439  12.124   0.342   0.420
24015W        W96440   4.981  29.690  14.062
24016W        W96441   4.292  15.853   1.445
24017W        W96442  16.620   8.866  13.510
24018W        W96443  26.870  14.146   1.369
24019W        W96444   5.365   0.367   1.284
24020W        W96445   0.974  20.600   1.764
24021W        W96446  30.884  39.730  11.034
24022W        W96447   0.605   9.616  12.583
24023W        W96448   1.400  17.549  14.935
24024W        W96449  41.110  13.682   2.397
24025W        W96450  18.455  25.124  11.237
24026W        W96451   9.789   7.819  10.238
24027W        W96452   1.432  23.540   3.246
24028W        W96453  38.861  18.279   1.302
24029W        W96454   6.578   8.320   2.785
24030W        W96455   7.883  42.520  12.853
24031W        W96456  28.624  40.479  13.931
24032W        W96457   3.796  44.752   2.305
24033W        W96458  10.422   7.839  14.033
24034W        W96459   0.400  41.207  13.813
24035W        W96460   8.809   8.772   2.044
24036W        W96461   8.221  42.833   4.220
24037W        W96462  13.844  37.000   3.356
24038W        W96463   9.654  35.932   3.712
24039W        W96464  34.084   2.335  14.446
24040W        W96465  41.364  30.941  13.508
24041W        W96466  39.538  25.970  11.899
24042W        W96467  41.731  35.410  10.765
24043W        W96468  11.077  36.085   1.423
24044W        W96469  12.159  10.625  13.882
24045W        W96470  44.478  10.298  12.519
24046W        W96471   9.282  41.379   4.512
24047W        W96472   4.602   0.848  10.398
24048W        W96473  44.771  38.303  14.372
24049W        W96474  35.351  42.385   2.791
24050W        W96475  37.868  15.387   1.294
24051W        W96476  21.405  11.688  14.527
24052W        W96477   2.793  33.279   2.831
24053W        W96478   3.351  32.083  13.370
24054W        W96479  17.749   8.767  11.439
24055W        W96480  34.550  27.717  14.409
24056W        W96481  32.673  22.382   4.833
24057W        W96482  35.447  18.668   1.387
24058W        W96483  33.984  29.027  12.218
24059W        W96484  27.021  42.925   0.878
24060W        W96485  22.784  42.993  12.858
24061W        W96486  29.196  13.415   2.059
24062W        W96487  37.613   9.183  12.865
24063W        W96488   3.702   5.030   2.895
24064W        W96489  21.255  15.151   2.315
24065W        W96490  29.944   8.433  14.309
24066W        W96491  22.032  34.610  11.866
24067W        W96492  15.470  18.082  11.583
24068W        W96493  30.465   9.359  13.042
24069W        W96494  31.168  15.117   0.166
24070W        W96495   8.300  18.199  13.190
24071W        W96496  17.138   0.667   2.248
24072W        W96497  37.831  26.041  14.950
24073W        W96498   6.772  28.021   4.827
24074W        W96499  27.642  26.448  14.847
24075W        W96500  39.434  34.107   0.854
24076W        W96501  42.435  24.443   3.831
24077W        W96502  15.144  22.182  10.354
24078W        W96503  23.971  42.223   2.714
24079W        W96504   8.130  18.571   5.138
24080W        W96505  11.274   4.795   4.839
24081W        W96506  37.097   7.852   2.923
24082W        W96507  32.134  18.289  11.082
24083W        W96508  20.715  29.700  10.832
24084W        W96509   1.240  35.580  13.437
24085W        W96510  43.978   9.720  14.812
24086W        W96511  44.102  13.620   1.314
24087W        W96512  32.818   6.721  11.086
24088W        W96513  33.048  31.676   4.680
24089W        W96514  38.988  40.741   3.020
24090W        W96515  17.161  34.188   1.343
24091W        W96516  17.423  14.598  11.610
24092W        W96517  21.659  39.453  10.514
24093W        W96518  11.816  10.282  10.046
24094W        W96519   6.674  21.146   4.064
24095W        W96520  23.946  14.366   2.904
24096W        W96521  19.428   5.709  13.922
24097W        W96522   2.287  32.708  11.262
24098W        W96523   5.416  38.513   1.463
24099W        W96524  41.773   6.340  12.073
24100W        W96525  34.471  34.119   2.634
24101W        W96526  43.353   5.249   3.207
24102W        W96527  15.201   2.938   2.289
24103W        W96528  15.845  37.962   0.389
24104W        W96529  17.967  18.658   1.804
24105W        W96530  39.843  38.335  14.912
24106W        W96531  23.672  30.965  13.204
24107W        W96532  36.630  25.130   5.160
24108W        W96533  39.948   7.736  13.836
24109W        W96534  40.508  35.966   5.342
24110W        W96535  22.942  40.711   2.194
24111W        W96536  13.958  22.525   4.997
24112W        W96537  25.948  25.681   2.606
24113W        W96538   5.430  25.993  11.107
24114W        W96539  12.410  35.727   3.933
24115W        W96540  39.431  13.280  12.804
24116W        W96541  36.554   9.705   2.756
24117W        W96542  38.805   0.295   4.211
24118W        W96543  29.485  17.506   3.838
24119W        W96544   0.859   4.929   0.895
24120W        W96545  42.010   0.514   0.259
24121W        W96546   3.873  31.202  13.821
24122W        W96547  24.176  32.557   0.044
24123W        W96548   3.783  33.062  14.789
24124W        W96549   3.832  34.189  12.372
24125W        W96550  43.215  15.249  10.654
24126W        W96551   8.913  42.932  10.272
24127W        W96552   0.453  14.288   4.093
24128W        W96553  12.093   2.680   3.878
24129W        W96554  43.074  24.925   1.003
24130W        W96555  19.170  23.073  12.509
24131W        W96556  37.032   9.440  13.022
24132W        W96557  11.564  41.136  12.130
24133W        W96558  43.203   1.456   0.355
24134W        W96559   8.183  22.138   1.670
24135W        W96560  44.563  16.276   2.630
24136W        W96561  41.536  28.160   1.350
24137W        W96562  14.648  11.466  11.951
24138W        W96563  26.612  43.570   0.382
24139W        W96564  18.666  28.507   0.900
24140W        W96565  41.860  39.431  11.528
24141W        W96566   8.872  40.483  13.244
24142W        W96567  15.552  34.863  13.993
24143W        W96568  10.677   0.466  14.700
24144W        W96569  31.094  35.085   1.235
24145W        W96570  39.725  31.478   3.645
24146W        W96571  21.983  12.857   0.416
24147W        W96572  16.306  19.367   0.333
24148W        W96573  24.508  15.046  14.311
24149W        W96574  23.673  32.903   0.810
24150W        W96575   5.212  21.199   3.323
24151W        W96576  20.091  21.292  14.337
24152W        W96577  14.233  33.135  11.885
24153W        W96578  39.568  16.750   1.364
24154W        W96579   9.799  29.541   1.480
24155W        W96580  25.210  11.860  13.953
24156W        W96581  34.810  40.799  10.688
24157W        W96582  16.631   0.007  12.048
24158W        W96583  13.522   9.655   1.379
24159W        W96584  30.105   6.608   0.404
24160W        W96585  10.708  39.566  14.947
24161W        W96586  13.037  25.545  14.480
24162W        W96587  29.637  43.780   2.372
24163W        W96588  13.650  17.818   1.289
24164W        W96589   8.354  10.265   4.219
24165W        W96590  14.037  12.059   2.409
24166W        W96591  41.876  24.280   4.743
24167W        W96592  31.132  14.608   0.232
24168W        W96593  27.210  10.277  12.191
24169W        W96594  29.600  22.680   4.986
24170W        W96595   1.727  29.504  13.950
24171W        W96596  21.754  11.791   2.659
24172W        W96597  22.702  36.105   0.872
24173W        W96598  43.442  17.693  13.687
24174W        W96599   9.521  18.039   4.189
24175W        W96600   2.383   4.233  11.412
24176W        W96601  39.436  35.236  10.710
24177W        W96602  37.996   5.015   2.779
24178W        W96603  15.009  30.371  13.101
24179W        W96604  20.941  29.842   0.286
24180W        W96605  13.658   8.836   1.475
24181W        W96606  14.545  40.169   2.605
24182W        W96607  43.277  23.586   2.707
24183W        W96608  39.344  38.436  11.618
24184W        W96609  38.566  38.475   2.557
24185W        W96610  20.307  38.933  10.261
24186W        W96611  32.542   8.142   3.708
24187W        W96612  16.139  35.405  12.045
24188W        W96613  31.110   0.234  12.398
24189W        W96614  36.339  34.863  13.735
24190W        W96615  42.607   2.365   3.839
24191W        W96616   7.548  13.088  11.625
24192W        W96617   0.451  15.106   3.693
24193W        W96618  37.451  18.871  11.593
24194W        W96619  27.614   0.559   4.264
24195W        W96620  22.085  36.400   3.438
24196W        W96621   6.883   7.278  10.909
24197W        W96622   2.309  29.049   2.465
24198W        W96623  43.121  26.039  12.000
24199W        W96624  21.189  35.848  14.524
24200W        W96625   8.748  20.608   1.053
24201W        W96626  32.693  27.025   2.631
24202W        W96627  15.042   8.138   2.619
24203W        W96628   8.027  10.820  11.025
24204W        W96629   1.961  26.247  10.552
24205W        W96630   2.873  13.757   3.399
24206W        W96631  20.073  25.183   4.163
24207W        W96632  12.535  29.220   2.678
24208W        W96633  27.927  14.748  10.629
24209W        W96634  36.479   3.392   4.272
24210W        W96635  30.682  13.922  11.189
24211W        W96636   2.577  38.608  13.473
24212W        W96637  10.235  39.665   9.908
24213W        W96638  14.565  14.693   4.562
24214W        W96639  17.520   0.385  11.609
24215W        W96640  23.620  33.141  11.279
24216W        W96641  32.449  42.902  13.427
24217W        W96642  17.255  43.817   1.053
24218W        W96643  16.249  37.338   1.099
24219W        W96644  13.366  24.934   2.774
24220W        W96645  40.942   3.178   4.792
24221W        W96646  27.046   0.539  11.360
24222W        W96647  33.014  22.601  12.412
24223W        W96648  35.038  42.446  10.753
24224W        W96649  16.368  20.185  10.687
24225W        W96650   9.673  19.595   2.477
24226W        W96651  12.262   5.370   0.800
24227W        W96652  42.042  20.446  13.433
24228W        W96653  43.100   7.937  12.051
24229W        W96654  33.575  26.985  11.409
24230W        W96655  33.537  26.006   2.639
24231W        W96656  40.764  35.436  11.898
24232W        W96657  43.448  28.874  11.465
24233W        W96658  10.922  32.094  10.728
24234W        W96659  31.702   0.272   4.514
24235W        W96660  30.657  11.737   1.806
24236W        W96661  32.336  17.817   2.627
24237W        W96662   2.453  11.361  12.021
24238W        W96663  30.824  33.098  11.017
24239W        W96664  36.899  11.830   1.847
24240W        W96665   1.261  19.187   0.909
24241W        W96666  15.212  13.561  11.626
24242W        W96667  27.161  29.555  10.709
24243W        W96668  44.292  28.566   4.294
24244W        W96669   6.268  19.619   4.454
24245W        W96670  13.577  38.097   0.957
24246W        W96671  17.080  13.864  13.013
24247W        W96672   5.405  40.472   4.209
24248W        W96673   3.715  32.586   3.823
24249W        W96674  16.076  20.352  11.538
24250W        W96675  15.570  19.731   0.962
24251W        W96676  43.140  43.222  12.501
24252W        W96677  10.288  15.620   0.296
24253W        W96678  35.937   8.818  10.829
24254W        W96679  23.587  38.563  14.519
24255W        W96680   4.850  23.553   0.971
24256W        W96681  30.144  28.558  10.871
24257W        W96682  12.228   3.748   2.744
24258W        W96683   9.643  42.533  11.392
24259W        W96684  16.607  31.997   1.812
24260W        W96685   4.760  38.446   1.199
24261W        W96686  35.113   6.412   4.588
24262W        W96687   6.170   7.704  13.970
24263W        W96688  43.338  18.556  14.266
24264W        W96689   2.463  22.172  12.935
24265W        W96690   6.744  37.854   5.386
24266W        W96691  18.320  26.957   3.418
24267W        W96692  19.715  32.117  13.032
24268W        W96693  42.915  38.962   2.430
24269W        W96694  11.787   2.057  10.762
24270W        W96695  26.228  35.478  14.964
24271W        W96696  27.923  32.152  13.927
24272W        W96697  35.120  19.659  10.699
24273W        W96698   6.705  34.933  11.560
24274W        W96699   4.343   8.625   4.315
24275W        W96700  25.711   8.528   5.019
24276W        W96701  33.302   2.807  10.673
24277W        W96702   4.387  21.231   2.783
24278W        W96703   2.356  19.422  11.647
24279W        W96704   8.376  10.986  10.699
24280W        W96705   0.729  43.942  12.029
24281W        W96706  20.698   6.898   0.304
24282W        W96707  24.649  32.982  13.334
24283W        W96708  30.148  15.338  10.633
24284W        W96709  38.791   7.176   2.185
24285W        W96710  15.698  25.679   2.801
24286W        W96711  40.864  33.671   4.876
24287W        W96712  42.783  31.584  12.010
24288W        W96713  29.763  18.737  13.001
24289W        W96714  43.204  22.983  10.333
24290W        W96715   0.894  17.771   1.457
24291W        W96716  19.086  31.680  10.648
24292W        W96717  20.191  18.262  11.210
24293W        W96718  24.093  15.096   1.908
24294W        W96719  11.616   9.378  12.776
24295W        W96720  16.985  42.318  11.984
24296W        W96721  30.665  22.156  11.625
24297W        W96722  33.358  44.490  10.717
24298W        W96723  30.635   9.781  12.139
24299W        W96724  12.078  39.527  14.302
24300W        W96725  42.294  32.098  11.526
24301W        W96726   3.678  15.209  14.243
24302W        W96727  21.417  34.794  13.614
24303W        W96728  36.108   1.991   4.588
24304W        W96729  35.205  44.976   3.325
24305W        W96730  21.382  44.809  13.284
24306W        W96731  19.924  14.123  14.991
24307W        W96732  26.420  18.788  13.497
24308W        W96733  16.158  12.564   0.622
24309W        W96734  31.122   7.566   2.477
24310W        W96735   3.703   3.839  12.431
24311W        W96736  11.394  16.217   3.285
24312W        W96737  14.495  16.201  11.008
24313W        W96738  27.957  42.048   2.200
24314W        W96739  10.140  32.362   2.474
24315W        W96740   6.412   9.472   1.336
24316W        W96741  27.677  42.761   1.306
24317W        W96742  28.525  20.146  13.062
24318W        W96743  12.711  38.259  10.827
24319W        W96744  38.593  34.947   1.378
24320W        W96745  36.989  33.531   4.184
24321W        W96746  31.879  37.550   3.551
24322W        W96747  37.847   9.108  14.151
24323W        W96748  13.606  11.317   4.706
24324W        W96749  13.801   6.820   3.831
24325W        W96750   6.223  38.928  12.790
24326W        W96751  42.314  25.130  12.567
24327W        W96752  37.043  15.157   4.221
24328W        W96753   3.735  21.164  13.465
24329W        W96754  29.205  11.925  10.621
24330W        W96755  39.984  16.767  11.741
24331W        W96756  35.556  35.071  12.080
24332W        W96757  44.975  37.080   3.606
24333W        W96758  25.508  16.557   4.278
24334W        W96759   3.059  11.644  12.360
24335W        W96760  24.035  22.424  12.222
24336W        W96761  18.261   5.016   4.035
24337W        W96762  42.419   4.038   3.844
24338W        W96763  44.910   8.389   3.639
24339W        W96764  43.291  18.213   4.730
24340W        W96765   1.866  11.405   3.786
24341W        W96766  24.228   4.853   2.465
24342W        W96767   0.472  32.916   0.266
24343W        W96768  18.127  13.872   4.200
24344W        W96769  14.287  38.298  14.844
24345W        W96770  37.343  33.484  10.992
24346W        W96771  13.049  26.158   4.909
24347W        W96772   6.312  33.333   3.605
24348W        W96773  40.517   2.751  11.640
24349W        W96774  30.728  19.274   5.154
24350W        W96775  17.139   5.713   4.466
24351W        W96776  39.569  42.631  12.453
24352W        W96777  29.740   5.991   2.771
24353W        W96778  20.101   4.693  14.317
24354W        W96779  23.402  17.622   4.779
24355W        W96780  40.384  23.604  13.820
24356W        W96781   7.732   0.926   1.046
24357W        W96782  21.564   2.259  11.089
24358W        W96783  21.092  18.825  11.132
24359W        W96784   0.460  26.953  12.366
24360W        W96785  28.060  26.148   2.438
24361W        W96786  15.377   1.296  12.873
24362W        W96787  36.320   6.723   1.112
24363W        W96788  43.290  19.119   3.630
24364W        W96789  29.521  35.816  11.716
24365W        W96790   4.670  33.997  12.404
24366W        W96791  36.572  40.495   3.844
24367W        W96792  25.151  27.894  10.732
24368W        W96793  44.207   9.391  13.885
24369W        W96794  34.956  11.647   0.070
24370W        W96795  17.609  20.336   4.604
24371W        W96796  16.729  32.934   1.329
24372W        W96797   8.460  33.570   2.739
24373W        W96798  11.204  18.303   3.658
24374W        W96799  12.353  38.910   0.921
24375W        W96800  17.805  33.162   3.581
24376W        W96801  20.206  11.751  12.557
24377W        W96802  18.824  36.931   3.744
24378W        W96803  41.529   3.654   2.334
24379W        W96804  26.081   6.666   4.628
24380W        W96805  41.988  25.618   4.077
24381W        W96806  35.432   2.237  11.158
24382W        W96807   6.272  29.092  12.003
24383W        W96808  13.584   3.959   2.118
24384W        W96809  22.071  30.446   1.844
24385W        W96810  43.626  15.608   3.344
24386W        W96811  22.205  27.231   2.047
24387W        W96812  43.089   9.734  11.099
24388W        W96813   9.490  15.099   0.261
24389W        W96814  20.111  18.812   3.761
24390W        W96815  43.378  12.771   4.586
24391W        W96816  19.324  42.908   4.753
24392W        W96817  40.798  28.924  13.081
24393W        W96818  31.168  31.451  11.390
24394W        W96819  27.205  17.325  12.474
24395W        W96820  25.942   0.943   2.663
24396W        W96821   9.834  26.446  11.354
24397W        W96822  33.459   4.333   0.920
24398W        W96823  15.529  24.787  12.970
24399W        W96824  39.261   8.717  11.835
24400W        W96825  11.613  11.345  14.639
24401W        W96826  28.859  31.382   2.811
24402W        W96827  17.772  36.021  11.520
24403W        W96828  17.110  41.826   2.345
24404W        W96829  12.695  40.627  11.057
24405W        W96830   4.639   7.649   3.690
24406W        W96831  12.787  39.356   4.640
24407W        W96832   3.720  41.793  12.152
24408W        W96833  15.138  28.987   0.468
24409W        W96834  14.793  21.707  13.410
24410W        W96835  10.364  43.342  11.985
24411W        W96836  34.784  38.298   0.357
24412W        W96837  23.976   9.823  13.736
24413W        W96838  29.605  25.497   0.418
24414W        W96839  12.281  37.504  11.590
24415W        W96840  19.723  24.739   2.378
24416W        W96841  16.767  24.298  11.884
24417W        W96842   5.909  15.543   1.219
24418W        W96843  22.496  19.169  14.345
24419W        W96844   3.754  40.611  10.812
24420W        W96845  43.675  10.598   3.649
24421W        W96846  31.958  14.610   0.790
24422W        W96847  40.006  12.747  14.357
24423W        W96848  12.644  13.900  11.959
24424W        W96849  24.490   8.162  13.790
24425W        W96850  27.526   1.523   0.722
24426W        W96851  16.189  20.403   1.668
24427W        W96852  31.404   5.754  11.649
24428W        W96853  27.159  23.997  14.010
24429W        W96854   3.010  16.239  13.122
24430W        W96855  28.993  25.672  13.525
24431W        W96856  18.263  35.633   1.014
24432W        W96857   7.010  14.737   2.213
24433W        W96858  33.544   7.065   3.684
24434W        W96859  14.567  28.005   1.470
24435W        W96860  31.183   5.431   0.319
24436W        W96861  40.938   4.873   0.429
24437W        W96862  28.072  25.584   0.015
24438W        W96863  28.631  24.970   3.230
24439W        W96864  21.128   1.918   0.490
24440W        W96865   5.027  28.501  13.172
24441W        W96866  23.910  43.368  14.168
24442W        W96867  39.589   9.201  13.613
24443W        W96868  17.813  29.003  12.193
24444W        W96869  11.753  44.039  14.997
24445W        W96870  25.527   5.642  14.314
24446W        W96871   5.924   6.854  12.393
24447W        W96872  40.069  16.057   0.517
24448W        W96873  36.372  21.370  10.762
24449W        W96874  32.302  37.490  11.644
24450W        W96875  44.651  28.409  13.013
24451W        W96876  34.514  33.066   2.802
24452W        W96877  29.430  18.860  14.907
24453W        W96878  17.015  16.079   0.036
24454W        W96879   8.284  27.584   0.724
24455W        W96880  36.935  28.494   2.158
24456W        W96881  24.371  11.624   0.817
24457W        W96882  34.654  35.959  14.511
24458W        W96883  10.003  34.409  11.022
24459W        W96884  37.636  21.683   1.784
24460W        W96885   0.909  18.195   2.727
24461W        W96886  10.164  11.682  10.745
24462W        W96887  13.870  35.012  14.563
24463W        W96888  29.449  34.105  12.753
24464W        W96889  42.803   4.380   3.701
24465W        W96890  29.918  15.868   0.485
24466W        W96891  37.177   4.255   3.358
24467W        W96892   6.842  19.126   2.717
24468W        W96893  41.406  19.697   0.460
24469W        W96894  31.366  29.530  13.033
24470W        W96895   5.348  12.592   2.826
24471W        W96896  23.574  39.074   0.450
24472W        W96897   8.883  26.221  13.780
24473W        W96898  33.658  44.423   0.059
24474W        W96899  36.034   5.829  13.118
24475W        W96900  43.055   8.440  11.237
24476W        W96901   0.677  35.468  13.106
24477W        W96902   2.102  12.109   0.312
24478W        W96903  35.441  14.108   0.021
24479W        W96904  16.885   1.470  12.955
24480W        W96905  14.076  28.650  11.519
24481W        W96906  28.357  12.309  13.546
24482W        W96907  33.018  15.810   0.372
24483W        W96908   6.834  35.852  12.377
24484W        W96909   5.428  32.107  13.497
24485W        W96910  37.409  42.373   0.184
24486W        W96911  26.720  25.086  12.416
24487W        W96912   6.912  30.019   4.140
24488W        W96913   1.840  37.807  13.163
24489W        W96914  22.220  29.124  13.739
24490W        W96915  20.211  28.406  14.171
24491W        W96916  42.741  18.128   2.585
24492W        W96917   5.578  12.538   4.186
24493W        W96918   1.265   8.926   4.598
24494W        W96919  43.904  24.816   2.015
24495W        W96920  26.281  23.041  14.900
24496W        W96921  39.291  39.923  13.232
24497W        W96922  19.865  40.025  14.881
24498W        W96923   7.903  18.286  11.853
24499W        W96924  17.708  16.217  10.369
24500W        W96925  43.082  27.423   1.997
24501W        W96926  44.018  31.060  11.573
24502W        W96927  25.123   7.013  14.299
24503W        W96928  44.906  21.708   0.849
24504W        W96929  43.871   0.992  13.406
24505W        W96930  40.567  10.248  13.517
24506W        W96931   2.882  21.217  11.564
24507W        W96932  37.427   9.706   4.680
24508W        W96933  22.965   4.194  11.833
24509W        W96934   8.676  21.521   2.580
24510W        W96935   1.265  33.458   3.266
24511W        W96936  21.764   4.990   4.529
24512W        W96937   1.517  23.636  11.485
24513W        W96938  27.557   6.083  10.272
24514W        W96939  41.643   6.155   5.013
24515W        W96940  41.538  39.315  11.154
24516W        W96941  20.916  32.147   4.243
24517W        W96942  27.970  38.551   4.992
24518W        W96943   8.719  40.762   1.892
24519W        W96944  10.618  26.183   3.896
24520W        W96945  44.205  44.787   2.411
24521W        W96946  24.021  17.624  10.651
24522W        W96947  25.063  27.949   4.140
24523W        W96948  41.960   6.648   4.261
24524W        W96949  32.867  36.736  13.487
24525W        W96950  18.097  19.192  13.955
24526W        W96951   6.364  23.221  11.601
24527W        W96952  27.154   9.914   2.328
24528W        W96953   3.227  27.464  14.712
24529W        W96954  27.664  24.925  14.013
24530W        W96955  30.661   7.780   2.357
24531W        W96956  43.910  30.475  13.900
24532W        W96957  42.996  20.784  10.663
24533W        W96958  11.840  11.779  11.876
24534W        W96959  21.109  11.508  12.019
24535W        W96960  11.249  22.596   0.916
24536W        W96961   1.967  42.882  12.287
24537W        W96962  25.551  17.713  13.049
24538W        W96963  29.081  40.028   4.653
24539W        W96964  43.487  33.182  13.013
24540W        W96965  17.601   8.884   1.877
24541W        W96966  30.590  27.224   2.161
24542W        W96967  40.765  42.399   1.837
24543W        W96968  14.886  14.210  12.589
24544W        W96969  24.128  42.724  13.322
24545W        W96970  16.209  37.353  11.528
24546W        W96971  41.436  31.266   1.653
24547W        W96972  13.787  18.134   0.178
24548W        W96973  13.181  19.817  13.798
24549W        W96974  29.472  19.144  12.839
24550W        W96975  12.305  10.712  14.815
24551W        W96976  11.227   2.269  13.923
24552W        W96977  35.606  27.047   1.297
24553W        W96978   3.152  22.762   0.875
24554W        W96979   7.257  11.341  12.051
24555W        W96980  18.182  44.405   3.825
24556W        W96981  27.292  17.147  10.798
24557W        W96982   2.967  34.428  14.490
24558W        W96983  13.926  42.044  11.084
24559W        W96984  26.191   6.738  11.176
24560W        W96985   4.199  24.205   0.511
24561W        W96986  43.319  44.107  12.640
24562W        W96987  38.588  26.703  14.764
24563W        W96988  20.718   7.701   1.326
24564W        W96989   5.003  27.617  11.140
24565W        W96990  37.440   8.871  12.472
24566W        W96991  30.657  15.357   3.659
24567W        W96992  24.622   7.270  10.681
24568W        W96993  29.000  24.906  11.655
24569W        W96994  31.805  12.612  14.828
24570W        W96995   0.492  40.742  14.077
24571W        W96996  15.183  34.060   3.047
24572W        W96997  24.982  34.951   3.635
24573W        W96998  32.388   9.748  12.513
24574W        W96999  11.172   5.534  13.886
24575W        W97000  31.683   3.665   1.411
24576W        W97001   5.134  41.530  14.450
24577W        W97002  16.322   5.552   4.879
24578W        W97003  17.785  43.488  13.959
24579W        W97004   3.805  42.245   1.147
24580W        W97005  17.241  20.085   0.876
24581W        W97006  23.504  19.652   3.709
24582W        W97007  20.201  26.699   0.007
24583W        W97008   9.333  27.704   3.585
24584W        W97009  37.643  38.404  13.852
24585W        W97010  11.395  21.684   1.279
24586W        W97011  34.152  44.343   2.693
24587W        W97012  32.921  19.316   4.338
24588W        W97013  37.447  32.643  12.095
24589W        W97014  14.198  44.368   2.379
24590W        W97015  15.249  36.006  14.376
24591W        W97016  30.082   8.744   3.405
24592W        W97017  28.951  26.484  14.921
24593W        W97018  18.440  42.614  12.017
24594W        W97019  43.806  16.628   3.151
24595W        W97020   4.908   8.134  12.158
24596W        W97021  43.735  36.088  14.279
24597W        W97022   9.677  28.023  13.418
24598W        W97023  19.613  16.720  14.956
24599W        W97024  30.053   2.356  12.407
24600W        W97025   6.751  37.340   9.789
24601W        W97026  42.982   7.392   3.968
24602W        W97027  38.973  31.415  13.650
24603W        W97028   7.122   0.466   1.715
24604W        W97029  43.882  42.851   3.610
24605W        W97030  24.173   6.242   4.586
24606W        W97031  31.498  23.947  13.734
24607W        W97032  30.021  17.339  13.187
24608W        W97033  15.381  25.382   4.551
24609W        W97034   3.326   9.414   1.894
24610W        W97035  18.678   5.299   0.351
24611W        W97036  12.078   5.126   2.675
24612W        W97037  24.004  29.827   5.030
24613W        W97038   9.178  12.663   3.404
24614W        W97039   4.723  26.755   2.354
24615W        W97040   6.750  29.706   0.161
24616W        W97041  21.276  10.886  13.920
24617W        W97042  28.065  20.857  13.037
24618W        W97043  36.609  34.616  13.352
24619W        W97044  13.180   3.865   4.958
24620W        W97045  32.229  44.476  11.512
24621W        W97046  42.508  36.559  14.557
24622W        W97047  15.746   8.770   0.835
24623W        W97048  22.263  44.069   0.922
24624W        W97049  15.395  43.215   4.406
24625W        W97050   3.890   9.264  14.295
24626W        W97051  37.237  29.123   3.283
24627W        W97052  33.333  25.006   3.620
24628W        W97053   6.370  18.277  10.794
24629W        W97054  44.631  15.051  11.958
24630W        W97055  24.216  30.848  12.372
24631W        W97056   9.692  17.296  14.407
24632W        W97057  27.437  19.056   2.296
24633W        W97058  13.135  24.950  12.898
24634W        W97059  13.105  30.912   3.168
24635W        W97060  31.133  10.833  12.452
24636W        W97061  32.131  37.320  10.933
24637W        W97062  34.799   1.743  12.755
24638W        W97063  20.056  31.162   2.365
24639W        W97064  26.089  39.582  11.014
24640W        W97065  41.833  42.315   3.675
24641W        W97066  43.943   5.467   0.418
24642W        W97067  21.141  13.058  11.115
24643W        W97068  20.688  43.584   2.709
24644W        W97069  38.710  39.069   5.058
24645W        W97070   1.251  10.664   2.792
24646W        W97071   8.725   2.233   0.300
24647W        W97072   7.966   3.459  12.456
24648W        W97073  39.948   6.401   4.195
24649W        W97074  23.601   9.208   0.974
24650W        W97075  15.128  22.618   0.892
24651W        W97076  31.027  19.436  13.903
24652W        W97077  34.905   4.323   0.187
24653W        W97078   5.874  37.537   0.326
24654W        W97079  38.650  26.530  12.410
24655W        W97080  21.495  31.650   2.912
24656W        W97081  42.214  24.669  13.643
24657W        W97082  37.588  42.265  14.166
24658W        W97083  40.934  40.293  12.887
24659W        W97084  16.750  26.674  11.143
24660W        W97085  15.248  32.296  12.388
24661W        W97086  20.059  40.898   0.658
24662W        W97087   2.499   4.794   3.299
24663W        W97088  29.712  30.640  12.043
24664W        W97089   3.326  27.221   2.584
24665W        W97090  10.543  10.790  12.013
24666W        W97091  16.274  19.249  13.559
24667W        W97092   9.360  36.341   2.851
24668W        W97093  22.448  12.126   0.895
24669W        W97094  12.691   2.572   5.065
24670W        W97095  10.381  42.458  11.055
24671W        W97096   9.859  17.763  14.977
24672W        W97097  14.604  30.940   1.638
24673W        W97098  32.167   5.838   2.995
24674W        W97099  26.503   5.481  12.868
24675W        W97100  38.204  22.043   2.845
24676W        W97101  43.513   1.730   1.829
24677W        W97102  35.677  27.222  12.078
24678W        W97103   0.363  44.072  11.438
24679W        W97104  14.380  38.262  14.015
24680W        W97105  23.585  43.764  12.138
24681W        W97106  19.984  31.229  10.820
24682W        W97107  43.451  11.689   1.278
24683W        W97108   3.174   2.215   2.766
24684W        W97109  21.064  37.528  11.207
24685W        W97110  18.228  29.199   1.343
24686W        W97111   9.668  38.167  11.619
24687W        W97112   0.466   3.543  13.964
24688W        W97113  44.203  29.419   1.339
24689W        W97114  26.728  42.398  12.118
24690W        W97115  18.354  26.958  13.961
24691W        W97116  44.280  23.417   4.501
24692W        W97117  19.705   6.148   4.517
24693W        W97118  37.356   1.181  11.919
24694W        W97119  19.752  12.773  10.994
24695W        W97120  30.497   5.613   2.802
24696W        W97121  28.339   3.019  14.136
24697W        W97122  15.022  23.532   2.320
24698W        W97123  39.944  42.947   4.750
24699W        W97124  11.518  29.956  13.693
24700W        W97125  10.566  21.584  11.623
24701W        W97126  26.913   3.306   5.161
24702W        W97127  29.701  16.326   4.754
24703W        W97128  43.347  11.715  14.371
24704W        W97129  23.066  33.993   0.638
24705W        W97130  26.103  10.722  13.590
24706W        W97131  26.076  31.091  14.541
24707W        W97132  33.859  16.777  14.260
24708W        W97133  29.149  19.648   3.830
24709W        W97134   2.197  21.214   3.084
24710W        W97135  17.705  17.285  14.864
24711W        W97136   5.498  31.435   1.316
24712W        W97137  20.246  43.215   0.304
24713W        W97138   8.748  23.304  12.182
24714W        W97139  13.704   8.662   0.465
24715W        W97140  34.751  31.987   2.697
24716W        W97141  41.848  11.414   3.577
24717W        W97142  32.329  27.063  14.481
24718W        W97143  25.249  43.019   0.987
24719W        W97144   4.016  26.403  10.765
24720W        W97145  34.480  41.399   0.156
24721W        W97146  43.360  35.594  11.867
24722W        W97147   3.697  17.298   1.437
24723W        W97148   9.749  20.243  12.674
24724W        W97149  25.432  14.599  10.721
24725W        W97150  39.504  24.915   1.900
24726W        W97151  23.896  13.773  14.518
24727W        W97152   9.133  42.399  11.341
24728W        W97153   7.956  36.629  12.445
24729W        W97154  22.724  26.111  12.207
24730W        W97155   7.939  24.028   2.435
24731W        W97156  44.299   3.689  12.988
24732W        W97157  24.874  33.406   3.422
24733W        W97158  21.234  11.317   4.172
24734W        W97159  19.188  16.746  13.549
24735W        W97160  31.193  18.060  14.091
24736W        W97161   9.867   6.242   4.587
24737W        W97162  44.392   3.196  13.053
24738W        W97163  29.512   7.676   2.986
24739W        W97164  18.265  43.912   4.670
24740W        W97165  27.889  42.442  13.124
24741W        W97166   1.968   2.283   1.998
24742W        W97167  13.779  21.148  14.956
24743W        W97168  24.993  24.462  11.701
24744W        W97169  32.977   8.360   3.421
24745W        W97170  24.471  39.874  11.935
24746W        W97171   5.242  39.990   2.109
24747W        W97172  23.246  33.174  13.338
24748W        W97173   3.248   1.824  11.177
24749W        W97174   6.464   0.073   0.856
24750W        W97175  20.838   4.820  14.741
24751W        W97176  15.609  31.824   0.952
24752W        W97177  25.088  31.078   3.907
24753W        W97178  26.129  29.171   0.886
24754W        W97179  42.981  36.573   2.320
24755W        W97180  29.095  18.675   2.849
24756W        W97181  44.857  13.190   2.443
24757W        W97182  42.407  27.531   1.474
24758W        W97183  27.649  32.243  11.517
24759W        W97184  32.248  35.428  10.528
24760W        W97185  33.554  16.929   0.329
24761W        W97186  30.713  35.454   0.871
24762W        W97187  31.079  27.698  11.082
24763W        W97188  15.761   1.869  10.147
24764W        W97189   3.216  19.358  12.751
24765W        W97190  13.245  22.550  12.863
24766W        W97191  12.112   1.646  10.892
24767W        W97192  25.046   5.855  11.125
24768W        W97193  13.380  21.068  11.490
24769W        W97194   0.749  34.130  14.604
24770W        W97195  23.834  14.023  12.969
24771W        W97196  17.375  37.542  13.192
24772W        W97197   9.560  38.057  14.864
24773W        W97198  14.898  34.088  12.975
24774W        W97199  35.989  40.827   3.236
24775W        W97200  22.776  14.613   3.173
24776W        W97201  33.866  23.955   3.272
24777W        W97202  36.651   1.868  13.846
24778W        W97203  33.605  18.835   4.952
24779W        W97204  44.862  29.083   1.887
24780W        W97205   4.483  25.614  13.230
24781W        W97206  44.521  33.311   2.263
24782W        W97207  14.742   1.529  11.126
24783W        W97208  13.299  30.828  11.187
24784W        W97209   0.767   1.716   0.729
24785W        W97210  23.126  20.586   3.294
24786W        W97211  31.378  21.341  11.528
24787W        W97212  23.928  39.019   4.174
24788W        W97213  38.195  38.274   0.709
24789W        W97214  30.951  16.049   2.230
24790W        W97215   0.398  27.413   2.919
24791W        W97216   0.846  34.084  12.997
24792W        W97217  31.471  11.231   2.667
24793W        W97218  19.245  22.781  10.757
24794W        W97219  14.371  32.413   2.910
24795W        W97220  26.005  17.023  12.905
24796W        W97221  25.843  26.158   1.883
24797W        W97222  24.732  32.878   3.789
24798W        W97223  27.154   7.932  11.093
24799W        W97224  41.394  33.544   4.157
24800W        W97225  15.332  27.574   4.918
24801W        W97226  25.160   7.307  12.837
24802W        W97227  32.077  36.333  12.737
24803W        W97228  29.976  29.420   4.199
24804W        W97229  39.374   9.391   3.784
24805W        W97230  21.973   4.085  11.072
24806W        W97231  44.507  36.565   1.914
24807W        W97232  17.145  31.188  14.300
24808W        W97233  29.675  34.501  12.979
24809W        W97234  35.188  40.900  12.533
24810W        W97235  20.209  32.576   2.699
24811W        W97236  13.120  43.766  14.014
24812W        W97237  11.628  15.908   4.454
24813W        W97238  30.738  18.562   0.288
24814W        W97239  15.125  41.325  14.453
24815W        W97240  41.849  14.858   1.238
24816W        W97241   1.845  36.836   1.991
24817W        W97242   4.729  38.404  14.826
24818W        W97243  28.692   7.192  10.637
24819W        W97244  21.264  28.492  13.004
24820W        W97245   2.264  12.795   3.766
24821W        W97246   2.322  33.176   0.628
24822W        W97247  26.254   1.863   4.919
24823W        W97248  11.321  42.994   0.688
24824W        W97249   5.908  42.809  11.152
24825W        W97250  24.618  31.375   4.794
24826W        W97251  31.881  39.991   3.681
24827W        W97252  35.983  32.308  14.256
24828W        W97253  40.242  11.187   2.245
24829W        W97254  22.018   3.232  12.816
24830W        W97255  17.731   5.943  14.510
24831W        W97256  33.466  25.259   3.179
24832W        W97257  25.096  41.871  11.936
24833W        W97258   3.815  15.276  11.820
24834W        W97259  35.146  37.630   2.259
24835W        W97260  13.277  36.631   2.313
24836W        W97261  37.578  26.867   3.603
24837W        W97262  17.221  14.606   3.728
24838W        W97263   7.409  28.743  11.520
24839W        W97264  42.706  10.994  12.917
24840W        W97265  28.497  42.624  10.498
24841W        W97266  39.981  36.611   1.194
24842W        W97267  11.864  17.346  11.022
24843W        W97268  23.126  38.030  11.046
24844W        W97269  11.451  10.122  14.607
24845W        W97270  13.415  25.219   4.278
24846W        W97271  24.707  12.409  12.855
24847W        W97272  39.277  18.030  13.920
24848W        W97273  20.352  22.613   2.889
24849W        W97274   1.030  15.579   3.183
24850W        W97275   8.609  14.186   4.638
24851W        W97276  13.170  42.753   3.509
24852W        W97277  15.399  28.627   2.822
24853W        W97278  21.608  44.205  14.879
24854W        W97279  38.661  19.083   4.566
24855W        W97280  41.867  40.250  12.473
24856W        W97281   4.697   6.462  10.186
24857W        W97282  25.611  32.957  13.592
24858W        W97283   6.656   7.622  13.877
24859W        W97284  18.118  21.027   1.059
24860W        W97285  43.939   3.818  14.489
24861W        W97286   4.306  21.018   0.947
24862W        W97287   4.781  14.252  11.620
24863W        W97288  30.888  32.184  11.634
24864W        W97289   8.242  10.209   3.690
24865W        W97290   7.831  30.042   1.940
24866W        W97291  13.144  44.679   2.755
24867W        W97292  28.137  22.131   4.617
24868W        W97293  37.050   8.213   4.789
24869W        W97294  37.042  15.710   3.662
24870W        W97295  19.107  36.654   1.335
24871W        W97296  23.567  39.303  14.975
24872W        W97297  26.990  29.728  14.855
24873W        W97298  21.896  23.066  11.197
24874W        W97299  14.616  37.310  12.993
24875W        W97300  33.130   4.316   3.250
24876W        W97301  42.469   4.264   4.317
24877W        W97302   3.607  25.377   0.743
24878W        W97303  31.997   1.802  12.840
24879W        W97304  43.432  28.336   3.703
24880W        W97305  29.953  17.931  11.518
24881W        W97306  11.107  36.955   2.789
24882W        W97307  27.869  43.038   4.257
24883W        W97308  26.608   7.640  11.905
24884W        W97309   7.147  28.458  11.939
24885W        W97310  16.671   0.452   2.792
24886W        W97311  19.519  30.534   3.053
24887W        W97312  30.958  30.917   2.250
24888W        W97313  33.472  32.080   4.627
24889W        W97314  39.372  32.551   4.101
24890W        W97315   0.713   6.820  12.064
24891W        W97316  34.152  24.583  11.190
24892W        W97317  23.019  15.303  12.098
24893W        W97318  23.291  14.058   4.249
24894W        W97319  13.272  34.316  14.022
24895W        W97320  37.343   9.212   1.835
24896W        W97321  42.749  16.107   2.194
24897W        W97322   9.071  39.071   1.427
24898W        W97323  13.739  27.483  11.110
24899W        W97324  30.125  43.750   0.748
24900W        W97325  17.033  18.835   1.615
24901W        W97326  16.575  11.418   1.340
24902W        W97327   5.690   7.103  14.195
24903W        W97328  15.265  40.857   4.803
24904W        W97329   7.822  42.168  11.128
24905W        W97330  13.235  25.238  11.481
24906W        W97331   8.651  19.811  13.976
24907W        W97332   9.737  15.088   1.929
24908W        W97333   3.273   5.668  14.511
24909W        W97334   8.586  33.481  13.897
24910W        W97335  24.487  43.472   2.466
24911W        W97336  43.394   2.394  14.519
24912W        W97337   5.661   4.341  13.879
24913W        W97338   7.403  38.569   1.322
24914W        W97339  16.695   5.665  13.572
24915W        W97340  16.799  27.277   1.731
24916W        W97341  36.568  19.719   3.623
24917W        W97342   0.981  40.334   0.798
24918W        W97343   0.239  38.576  11.508
24919W        W97344  43.974  39.463  11.516
24920W        W97345   0.837   8.691  11.625
24921W        W97346   7.715   0.505  12.025
24922W        W97347  20.804  16.598   2.385
24923W        W97348  28.695  36.119  12.113
24924W        W97349  12.541  27.657  13.390
24925W        W97350  25.177  43.327   3.875
24926W        W97351  18.051  22.321  10.950
24927W        W97352  22.278  37.798  14.735
24928W        W97353  38.326   2.664   0.816
24929W        W97354  36.916  37.850  12.133
24930W        W97355   5.362  40.840   2.744
24931W        W97356  38.306  37.249  11.156
24932W        W97357  21.019  10.213   2.351
24933W        W97358  12.401  40.375  11.947
24934W        W97359   1.558   2.005  14.386
24935W        W97360  25.190  16.788   3.715
24936W        W97361  25.250  13.778   0.852
24937W        W97362   1.247  36.306   1.324
24938W        W97363  44.580  25.742  12.000
24939W        W97364   6.081  34.082   2.798
24940W        W97365  10.656  16.831   1.382
24941W        W97366  12.252  24.755  12.651
24942W        W97367  22.283   4.839  12.102
24943W        W97368   9.962  11.552  12.987
24944W        W97369  11.498   3.843  10.428
24945W        W97370  42.019  17.540   2.635
24946W        W97371  36.909  16.434  10.804
24947W        W97372   5.905  28.660  13.400
24948W        W97373  33.258  38.131  14.503
24949W        W97374  30.605  30.510   3.904
24950W        W97375  25.272  37.173  12.926
24951W        W97376  44.334   0.498   3.727
24952W        W97377   7.418  15.460   3.768
24953W        W97378  32.454  16.089   4.128
24954W        W97379  37.081   1.252   4.268
24955W        W97380  17.033  26.083  14.412
24956W        W97381  10.784  38.172   1.353
24957W        W97382  37.552  36.933  13.302
24958W        W97383  37.506  35.407   1.445
24959W        W97384  34.855  23.594   4.982
24960W        W97385   9.668  36.880  10.335
24961W        W97386   3.413   3.489   0.765
24962W        W97387  37.597  44.795  14.796
24963W        W97388  15.861  39.986   1.790
24964W        W97389  34.786  14.020  11.931
24965W        W97390   9.379  22.817   3.740
24966W        W97391  36.438   8.907  14.815
24967W        W97392   7.301  10.796  10.977
24968W        W97393  35.049  22.326  12.043
24969W        W97394  32.346  36.135   1.234
24970W        W97395  42.636  12.175  14.869
24971W        W97396  38.771   3.851  14.510
24972W        W97397  34.855  25.182  14.997
24973W        W97398   0.322   9.086  10.943
24974W        W97399  27.066   4.797  11.694
24975W        W97400  19.321   6.246  14.559
24976W        W97401   0.770  43.235  12.903
24977W        W97402  39.944  13.656  13.604
24978W        W97403  18.839  41.505   5.404
24979W        W97404  23.543   5.020  12.862
24980W        W97405  33.373  16.220   3.373
24981W        W97406   7.086  39.955  13.622
24982W        W97407   6.227  11.344   3.776
24983W        W97408  25.141  29.018   2.302
24984W        W97409  34.920  33.394   2.799
24985W        W97410  43.973   9.915   4.227
24986W        W97411  42.491  17.365  12.468
24987W        W97412  15.246   3.948  12.064
24988W        W97413   8.627  40.607  11.821
24989W        W97414  43.347  29.242   2.406
24990W        W97415  40.458   7.462   3.655
24991W        W97416  20.310   4.016   3.186
24992W        W97417  10.175   3.812   4.930
24993W        W97418  28.479  44.223   1.262
24994W        W97419  14.253  20.797  12.714
24995W        W97420  33.221  37.993  10.419
24996W        W97421   4.137  37.015   0.880
24997W        W97422   3.262  23.063  14.599
24998W        W97423  36.533  38.257   1.054
24999W        W97424  27.120   6.177  13.835
25000W        W97425  31.523  42.539  14.252
25001W        W97426   2.262   6.399  13.428
25002W        W97427  20.493  23.711   2.249
25003W        W97428  11.122  24.569   0.460
25004W        W97429  35.529  20.671   5.095
25005W        W97430  31.077   1.363  12.866
25006W        W97431  41.538  40.406   3.283
25007W        W97432   5.142  43.371  11.208
25008W        W97433  42.329  35.079  12.069
25009W        W97434  39.894   9.599   2.339
25010W        W97435  26.214  33.917  10.536
25011W        W97436  40.691   9.846  14.783
25012W        W97437  44.034  33.128   0.873
25013W        W97438  16.355  21.516   2.269
25014W        W97439  26.019  16.527   0.732
25015W        W97440  23.121  26.297  10.516
25016W        W97441  15.824   8.365   4.951
25017W        W97442   5.881  31.313  12.491
25018W        W97443  11.554  18.269   2.160
25019W        W97444   8.829  19.366   3.562
25020W        W97445   1.244  16.660  10.758
25021W        W97446   5.792  36.400  11.025
25022W        W97447  16.469  30.897   1.344
25023W        W97448  34.375  29.677   2.153
25024W        W97449  40.305  20.007  13.868
25025W        W97450  23.453  40.090   0.242
25026W        W97451  38.092  16.740  12.033
25027W        W97452  17.134  15.735  14.223
25028W        W97453  28.733  11.698  10.496
25029W        W97454   9.035  18.660  14.831
25030W        W97455  21.827  23.787  12.450
25031W        W97456  14.630   9.337  11.470
25032W        W97457  21.501  18.679  14.999
25033W        W97458  43.449  37.854   2.396
25034W        W97459  26.028  39.734   1.766
25035W        W97460  34.966  42.877   3.165
25036W        W97461   4.284   3.401   0.042
25037W        W97462  24.037  24.804  12.078
25038W        W97463  18.530  37.569  11.971
25039W        W97464  29.111   4.781  10.646
25040W        W97465  31.506  17.486  12.379
25041W        W97466  37.958  30.628   4.595
25042W        W97467   1.906  32.333   4.546
25043W        W97468  34.133  40.573   2.035
25044W        W97469  11.804  15.060  11.588
25045W        W97470  39.293  11.162  10.467
25046W        W97471   0.874  31.612  10.667
25047W        W97472   6.122  22.775  10.786
25048W        W97473  25.351  29.905   1.285
25049W        W97474   6.323  39.293   3.668
25050W        W97475  34.139   1.485   1.860
25051W        W97476  13.893  14.094   3.280
25052W        W97477   1.482  22.202   1.412
25053W        W97478  27.954  41.835  10.697
25054W        W97479  24.834  38.456  11.027
25055W        W97480  31.142   7.016   0.259
25056W        W97481  34.976  34.814  12.937
25057W        W97482  40.866  22.749   3.133
25058W        W97483  30.147  33.407  12.612
25059W        W97484  41.566   2.903   0.436
25060W        W97485  40.851  31.612  11.053
25061W        W97486  19.076  30.191  10.227
25062W        W97487   4.369  39.286  12.637
25063W        W97488  28.088  33.613   0.558
25064W        W97489  19.149  35.918   0.824
25065W        W97490  10.630  35.816  12.451
25066W        W97491  15.875   9.316  14.831
25067W        W97492  29.105   0.643  14.883
25068W        W97493  41.409  31.392  12.311
25069W        W97494  29.718  34.920   0.702
25070W        W97495  13.192  33.232   2.861
25071W        W97496   8.886  25.052   0.745
25072W        W97497   8.069   7.942  12.390
25073W        W97498   8.349   2.336  14.933
25074W        W97499  41.043  43.884  13.091
25075W        W97500  42.589  41.351  11.181
25076W        W97501   3.714  13.904   4.538
25077W        W97502  16.768  31.413  12.523
25078W        W97503  21.289  22.481  10.915
25079W        W97504  36.991  32.048  14.899
25080W        W97505  28.298   8.905  14.129
25081W        W97506  38.385  22.267  12.018
25082W        W97507  41.236  22.129   0.060
25083W        W97508  13.411  44.830  13.453
25084W        W97509  29.192  29.666  11.175
25085W        W97510  10.624  19.664  12.990
25086W        W97511  18.879   5.358  14.254
25087W        W97512   1.300  43.003  12.955
25088W        W97513  40.981  35.340   1.959
25089W        W97514  14.691  19.324   5.094
25090W        W97515  28.571  33.145  11.269
25091W        W97516  10.137  40.117   4.543
25092W        W97517  15.791  42.828  14.307
25093W        W97518  38.172  18.445   4.577
25094W        W97519  35.727  10.876   1.485
25095W        W97520  35.098   4.921   4.125
25096W        W97521   1.861  33.859   4.556
25097W        W97522   1.088   2.319   2.390
25098W        W97523  44.176  33.458   5.100
25099W        W97524   0.911  22.661  13.734
25100W        W97525   2.207  25.723   4.220
25101W        W97526  38.878  22.993   2.274
25102W        W97527  22.459  35.374   4.015
25103W        W97528  26.977   6.810  12.987
25104W        W97529  19.731  11.531   2.868
25105W        W97530  21.788  14.078   4.145
25106W        W97531  13.661  35.798  10.601
25107W        W97532   3.185  12.809  12.065
25108W        W97533  43.400  12.950   2.139
25109W        W97534  23.230  44.842   1.463
25110W        W97535  35.935   9.676   2.787
25111W        W97536  42.596  22.180   4.631
25112W        W97537  18.803  36.453   1.913
25113W        W97538   0.403  36.516   0.748
25114W        W97539  32.346  44.422   1.508
25115W        W97540   6.375  22.043  12.493
25116W        W97541  39.061  42.210  10.585
25117W        W97542  18.290  23.041  14.047
25118W        W97543  25.746  35.970   4.177
25119W        W97544  10.864  22.545   2.281
25120W        W97545  34.831  30.864  11.105
25121W        W97546  37.540  38.912   0.821
25122W        W97547   8.359  16.615  14.957
25123W        W97548   0.779  27.697   2.115
25124W        W97549  12.688   3.252   0.879
25125W        W97550   4.191  11.303  12.665
25126W        W97551  20.237  31.754  12.367
25127W        W97552  20.489  24.862  10.116
25128W        W97553  17.601  33.988   2.098
25129W        W97554  17.287   0.955   1.790
25130W        W97555  24.127   3.076  12.067
25131W        W97556  24.279   7.654   3.154
25132W        W97557  28.012  14.661   1.320
25133W        W97558  12.819   6.383  14.565
25134W        W97559  37.137   7.848   1.318
25135W        W97560  10.412  37.840   4.052
25136W        W97561  27.059  31.011   4.678
25137W        W97562  23.526  42.438   4.398
25138W        W97563  12.301   8.302  12.720
25139W        W97564  19.109   1.445  13.371
25140W        W97565  23.908  13.190  14.921
25141W        W97566  16.191  43.858  12.006
25142W        W97567  20.861  14.575   4.151
25143W        W97568  27.932  42.354   0.897
25144W        W97569  22.303  41.462  14.519
25145W        W97570  42.414  35.518  14.474
25146W        W97571  43.792  38.732   1.296
25147W        W97572   7.459  44.976   3.608
25148W        W97573   1.649  27.559   4.652
25149W        W97574   9.115   5.025  12.948
25150W        W97575  38.800  24.525  12.064
25151W        W97576  19.190  41.697   0.395
25152W        W97577   4.805  34.031  10.861
25153W        W97578  27.577  37.888  13.527
25154W        W97579  40.282  30.672  12.509
25155W        W97580  31.692  35.548   1.498
25156W        W97581  27.732  40.936   4.386
25157W        W97582  12.317   2.963   4.783
25158W        W97583  38.046  39.402  13.014
25159W        W97584  21.771   3.919   3.299
25160W        W97585   6.694  17.639  12.043
25161W        W97586  25.136   4.494   1.330
25162W        W97587  40.811   5.400  14.391
25163W        W97588  32.921  27.743   1.137
25164W        W97589  40.874  28.177   0.870
25165W        W97590  36.384  21.610   1.415
25166W        W97591  13.122   3.826   1.975
25167W        W97592  34.364   9.011  14.853
25168W        W97593  10.780   3.381  14.550
25169W        W97594  41.565  13.009  11.660
25170W        W97595  32.502  42.340  13.322
25171W        W97596  36.315  24.476   4.181
25172W        W97597  35.330  10.711   0.800
25173W        W97598   9.183  22.677  14.039
25174W        W97599  19.199  41.835   2.299
25175W        W97600   7.018  37.027  11.087
25176W        W97601  33.975  31.023   0.034
25177W        W97602  17.951  41.169  10.952
25178W        W97603  18.676  33.415   4.808
25179W        W97604  35.741   0.045  11.806
25180W        W97605  15.340  13.728  13.685
25181W        W97606  31.791  13.356   4.539
25182W        W97607  18.004  32.561   2.242
25183W        W97608  37.449  17.799   4.277
25184W        W97609  23.894   7.199  10.620
25185W        W97610  11.425   6.488  14.836
25186W        W97611  27.029  35.783  10.698
25187W        W97612  42.059  25.930   1.911
25188W        W97613  17.305  21.163  10.671
25189W        W97614  14.785  28.093   2.520
25190W        W97615  10.861  12.012  12.423
25191W        W97616  22.790  16.795   3.732
25192W        W97617  25.789  12.417  10.324
25193W        W97618  43.397  15.632   2.865
25194W        W97619  15.628  41.979  14.786
25195W        W97620  36.981  16.704  11.657
25196W        W97621  34.139  32.672  13.332
25197W        W97622   3.740  36.683  12.195
25198W        W97623  24.776   3.398   3.182
25199W        W97624   2.164  21.404  12.805
25200W        W97625  11.648  15.673   4.918
25201W        W97626  22.621  32.596  11.203
25202W        W97627  43.332   7.394   0.237
25203W        W97628  44.055   2.435   3.835
25204W        W97629  43.847   7.764  14.347
25205W        W97630  21.710  37.567  10.727
25206W        W97631  18.512  32.379   4.623
25207W        W97632   7.342  25.494   0.679
25208W        W97633  25.610  39.215  11.137
25209W        W97634  19.773   8.688  14.726
25210W        W97635   1.538  21.315   1.348
25211W        W97636   2.685  37.715  14.600
25212W        W97637   0.427  17.038   4.580
25213W        W97638  20.265  15.638   4.196
25214W        W97639  24.938  10.744  13.556
25215W        W97640  33.435   8.451   4.016
25216W        W97641  22.731   9.318  14.103
25217W        W97642  29.414  12.446   3.366
25218W        W97643  20.820  22.017  12.051
25219W        W97644  37.383  41.385  14.758
25220W        W97645  34.890   8.451   1.285
25221W        W97646  15.527  31.925   1.865
25222W        W97647  10.724   7.543   0.939
25223W        W97648  34.405  40.891   0.946
25224W        W97649  27.533  38.319   1.556
25225W        W97650  27.096  17.760   1.942
25226W        W97651  11.769  43.312  10.746
25227W        W97652  31.388   7.412  12.642
25228W        W97653  35.209   4.279  14.346
25229W        W97654  30.715   3.843  12.439
25230W        W97655  37.867  43.977   1.840
25231W        W97656  25.254  15.154  11.881
25232W        W97657  20.857  36.038  10.885
25233W        W97658   4.841  34.531  14.709
25234W        W97659  42.970  38.311  14.341
25235W        W97660  29.256  36.661  13.933
25236W        W97661  27.995   0.834  13.819
25237W        W97662   8.645  36.565  11.978
25238W        W97663   3.380  17.356  14.061
25239W        W97664   1.721  23.728   1.863
25240W        W97665   2.975   5.940   4.116
25241W        W97666  30.857  24.670   3.742
25242W        W97667  21.716  10.351   2.848
25243W        W97668   8.187  27.070  12.025
25244W        W97669  36.814   2.871   2.341
25245W        W97670  33.079  39.088   2.519
25246W        W97671  32.039  36.342  12.225
25247W        W97672   6.606  27.653   4.003
25248W        W97673  43.065   4.824  13.879
25249W        W97674  35.304  15.969  10.988
25250W        W97675  13.099   6.219   3.504
25251W        W97676   2.776  29.051   0.313
25252W        W97677  36.330   2.047  11.451
25253W        W97678  28.072   2.604  14.297
25254W        W97679  15.711   9.298   4.573
25255W        W97680   2.671  41.996   2.808
25256W        W97681  24.686   4.784  13.011
25257W        W97682  24.764  31.342  11.211
25258W        W97683  23.032  27.909  12.069
25259W        W97684  33.839  23.555  14.267
25260W        W97685  21.412  29.366   3.862
25261W        W97686  34.581   0.976   0.922
25262W        W97687  10.681   6.364   5.039
25263W        W97688  14.995   5.292   4.187
25264W        W97689  44.326  25.749  13.467
25265W        W97690   0.457   4.397  14.907
25266W        W97691   6.199   9.859  12.822
25267W        W97692   6.182  16.661  13.329
25268W        W97693   1.840  37.289  13.081
25269W        W97694  23.283  13.616   1.273
25270W        W97695  14.373  20.637   0.382
25271W        W97696   3.017  30.390   1.607
25272W        W97697  39.463  13.504   1.990
25273W        W97698  23.072  11.096   4.556
25274W        W97699  28.000  32.589  12.474
25275W        W97700  31.156   4.956   0.864
25276W        W97701  13.291  42.154  13.504
25277W        W97702  33.898   9.918   4.661
25278W        W97703   7.748  34.119  14.547
25279W        W97704  38.033  22.481  14.040
25280W        W97705  33.422   0.478   2.457
25281W        W97706  32.012  27.413   4.105
25282W        W97707  27.450   0.322  14.929
25283W        W97708   6.216  34.177  11.055
25284W        W97709   0.872  27.023   3.374
25285W        W97710   3.276   5.435   3.324
25286W        W97711  17.224  26.872   2.891
25287W        W97712  34.023   2.464   1.333
25288W        W97713  19.335  20.919   2.317
25289W        W97714  42.266  31.193   3.352
25290W        W97715  33.373  34.367  14.471
25291W        W97716  13.464  26.406   2.742
25292W        W97717  42.495  25.957   0.716
25293W        W97718   7.454  32.365  14.244
25294W        W97719  34.469  44.945  13.087
25295W        W97720   3.216  24.128  12.368
25296W        W97721   6.292  40.558  11.612
25297W        W97722  31.988  36.800   1.749
25298W        W97723   7.143  13.840   2.877
25299W        W97724   5.294  28.352  12.755
25300W        W97725  33.063   2.015   4.512
25301W        W97726  31.750  10.241  10.183
25302W        W97727   9.315  16.728   3.695
25303W        W97728  39.994  20.950   2.581
25304W        W97729  33.492  18.040   5.440
25305W        W97730   0.714  17.734   2.832
25306W        W97731  35.930  22.622  13.510
25307W        W97732  26.731  33.501   2.334
25308W        W97733  23.118  29.970   4.241
25309W        W97734  44.945  28.468   2.246
25310W        W97735  18.105  43.487  12.453
25311W        W97736  35.973  38.519  12.649
25312W        W97737   9.729   0.411   3.135
25313W        W97738  36.052  33.875  14.460
25314W        W97739   8.917  23.163  13.414
25315W        W97740  43.556  27.232  11.074
25316W        W97741  27.978   9.873   0.739
25317W        W97742  27.648  33.859  14.848
25318W        W97743  38.447   5.310   0.979
25319W        W97744  27.133  26.264   2.190
25320W        W97745  42.468   3.796   2.432
25321W        W97746   5.219  41.755  13.980
25322W        W97747  19.661   6.569  11.124
25323W        W97748  41.347  25.528  11.127
25324W        W97749  15.605   6.235  12.936
25325W        W97750  44.266   8.699   0.906
25326W        W97751  40.459  43.165   4.235
25327W        W97752  42.492  38.481  13.106
25328W        W97753  11.955   2.595  11.549
25329W        W97754  39.276   6.320   0.337
25330W        W97755   2.917   4.442  14.783
25331W        W97756   4.542   1.792  13.905
25332W        W97757  30.158  34.113   4.935
25333W        W97758  21.763  37.254   4.595
25334W        W97759  36.444  11.876  14.560
25335W        W97760  44.504  32.522  14.558
25336W        W97761  39.054  13.293  10.508
25337W        W97762  36.561  25.582  12.524
25338W        W97763  37.653   0.841   4.549
25339W        W97764  26.154  37.889  11.347
25340W        W97765  35.185  25.433   0.290
25341W        W97766   0.796  24.765   4.667
25342W        W97767  39.378  39.384   3.258
25343W        W97768  30.000   0.390  13.117
25344W        W97769  12.275  17.837  11.674
25345W        W97770  12.858  12.398  12.506
25346W        W97771  15.312  25.444  10.598
25347W        W97772  16.695  43.180  14.740
25348W        W97773  35.372  39.016   3.463
25349W        W97774  43.094  11.452   0.355
25350W        W97775  31.847  29.440  13.532
25351W        W97776  35.546   5.292   2.343
25352W        W97777  44.978  23.499  13.529
25353W        W97778  40.423   0.724   2.309
25354W        W97779  25.676   7.378  12.952
25355W        W97780  43.060   9.548  13.112
25356W        W97781  15.560   2.489  10.899
25357W        W97782  19.591  11.294  12.556
25358W        W97783   9.142   8.435  13.975
25359W        W97784  18.707  44.933  10.695
25360W        W97785  16.232   8.966  14.870
25361W        W97786  44.928  14.621   4.591
25362W        W97787  37.369  28.533  14.920
25363W        W97788  29.647   7.670   2.483
25364W        W97789  33.597   0.382   0.790
25365W        W97790  30.544  37.833  10.591
25366W        W97791  21.401  24.659  12.966
25367W        W97792   0.693  24.199   3.933
25368W        W97793  41.499  21.338   1.947
25369W        W97794  19.779  34.987   2.591
25370W        W97795  33.465  16.184   4.297
25371W        W97796  15.122  37.414  13.097
25372W        W97797  32.569  14.452  12.001
25373W        W97798  15.531  25.105  12.452
25374W        W97799  44.840  31.550   4.759
25375W        W97800   0.333  41.062  13.322
25376W        W97801  29.467  21.997  14.562
25377W        W97802  15.673   0.951   5.504
25378W        W97803  10.393   0.548  13.927
25379W        W97804  31.369   2.325   1.718
25380W        W97805   2.743   4.895   1.827
25381W        W97806   1.251  29.266  10.320
25382W        W97807   5.906  39.820  12.920
25383W        W97808  44.681  12.233  11.824
25384W        W97809  42.311  20.554  12.995
25385W        W97810  24.769  40.170  11.599
25386W        W97811   0.992  25.126   1.343
25387W        W97812  42.109   5.420   2.418
25388W        W97813  37.655  29.613  12.679
25389W        W97814  12.484  11.858   0.336
25390W        W97815  40.235  11.521   3.612
25391W        W97816  23.920  24.070  13.822
25392W        W97817  24.202   8.865   2.789
25393W        W97818  11.175  10.234  13.633
25394W        W97819  33.886   4.378   2.258
25395W        W97820  15.192  41.929   0.088
25396W        W97821  35.078   1.263  14.558
25397W        W97822  35.900   3.975  14.624
25398W        W97823  33.729  17.407   0.275
25399W        W97824  35.487  10.131   4.743
25400W        W97825  17.660  43.970  14.861
25401W        W97826   0.790  20.092  10.749
25402W        W97827  16.313   4.206   4.096
25403W        W97828  44.269  38.816  10.586
25404W        W97829  21.083  34.366  11.992
25405W        W97830  36.101  18.205  11.018
25406W        W97831  24.654  35.907   2.238
25407W        W97832   9.203  35.113  10.376
25408W        W97833  22.765  40.026  10.760
25409W        W97834  15.438  14.380  12.454
25410W        W97835  17.304  33.398   1.904
25411W        W97836  38.952   0.397   0.928
25412W        W97837   8.757   6.361  14.417
25413W        W97838  42.747   0.865   0.857
25414W        W97839  34.071   3.020   4.052
25415W        W97840   3.671  28.904   3.167
25416W        W97841  14.731   6.825  13.256
25417W        W97842  24.114  12.310  10.557
25418W        W97843  37.456   7.323  11.608
25419W        W97844  11.354  36.938  10.443
25420W        W97845   2.301  36.510  11.655
25421W        W97846  14.899  19.055   4.238
25422W        W97847  43.122  33.155  11.626
25423W        W97848  36.042  23.218   1.830
25424W        W97849   1.770  24.812  10.596
25425W        W97850  10.404  11.190   1.149
25426W        W97851  39.596  11.578   4.146
25427W        W97852  37.360   0.916   2.827
25428W        W97853  36.130  16.102  12.355
25429W        W97854  37.743  26.519  12.210
25430W        W97855  38.835  25.044   2.844
25431W        W97856   3.760  26.417  12.601
25432W        W97857  19.647  29.183  12.375
25433W        W97858  21.541  34.869   3.746
25434W        W97859  29.211  23.163  11.448
25435W        W97860  26.779  39.069   2.337
25436W        W97861  27.180  10.788   2.573
25437W        W97862   8.208   4.140   4.159
25438W        W97863   1.751   4.436   3.780
25439W        W97864  38.843  33.903  12.086
25440W        W97865  19.671   0.087   0.788
25441W        W97866   3.172   5.008   3.614
25442W        W97867  23.593  16.616   1.018
25443W        W97868  13.415   2.938   3.569
25444W        W97869  21.782  21.555   1.854
25445W        W97870   2.069  42.156   2.840
25446W        W97871  18.321  21.910   0.815
25447W        W97872  13.178  36.822  11.060
25448W        W97873  14.870  24.004   0.834
25449W        W97874   7.990  23.944  13.866
25450W        W97875  31.178  34.921   4.345
25451W        W97876  35.063  10.371  13.385
25452W        W97877  25.647  12.569   1.026
25453W        W97878  36.870  26.063   4.951
25454W        W97879   2.826  25.025  11.336
25455W        W97880  43.343  20.108  11.044
25456W        W97881  38.105   9.943  11.884
25457W        W97882  25.896  35.020  14.368
25458W        W97883  19.502  22.811   4.179
25459W        W97884  18.907  20.149  12.557
25460W        W97885   3.885  20.047   2.273
25461W        W97886  15.114  31.575   1.908
25462W        W97887  21.133  43.545  11.008
25463W        W97888  19.783  36.000   4.599
25464W        W97889  31.762  29.544  14.358
25465W        W97890   4.628  31.831  12.093
25466W        W97891  25.196   4.852  13.113
25467W        W97892  41.919  25.054  14.939
25468W        W97893  33.609  42.261   2.851
25469W        W97894   9.669   0.000   2.802
25470W        W97895   6.397  14.629  12.513
25471W        W97896  39.159  23.162  12.791
25472W        W97897  17.007   5.259  11.509
25473W        W97898   6.850   6.730   2.261
25474W        W97899   0.872  12.281  13.793
25475W        W97900  18.003  42.067  12.360
25476W        W97901  17.769  29.446  12.510
25477W        W97902   6.640   6.406   1.886
25478W        W97903  10.328   7.218  13.335
25479W        W97904  41.351   7.855  13.551
25480W        W97905   5.979   1.950  11.034
25481W        W97906   1.394  13.825  13.730
25482W        W97907   6.792  32.850  13.622
25483W        W97908  37.463  44.431   4.120
25484W        W97909   1.371   3.406   3.263
25485W        W97910  10.858  41.492  13.514
25486W        W97911  29.972   6.438   1.889
25487W        W97912  28.648  13.450   3.472
25488W        W97913  15.785  24.724   0.996
25489W        W97914  11.657   2.814  12.342
25490W        W97915  23.471   9.430   1.422
25491W        W97916  16.081   4.602  11.189
25492W        W97917   5.523   2.752  14.917
25493W        W97918  43.390  25.687  14.304
25494W        W97919  31.318  25.390   3.322
25495W        W97920  41.024  17.789  10.653
25496W        W97921  27.125  34.487   4.241
25497W        W97922  18.081  29.592  13.339
25498W        W97923   4.361  41.373   3.944
25499W        W97924  43.428   1.534   1.341
25500W        W97925  41.561  16.072  14.457
25501W        W97926  14.507   5.836   2.485
25502W        W97927  44.323  31.167  10.585
25503W        W97928   8.271  15.862   2.573
25504W        W97929  27.188  26.420  12.075
25505W        W97930  29.927  27.790   2.403
25506W        W97931  41.778  25.621  13.590
25507W        W97932  26.522  18.923   3.282
25508W        W97933  12.874  41.734   0.778
25509W        W97934  40.889  23.707  13.876
25510W        W97935   0.194  16.601  12.119
25511W        W97936  29.591   8.718   3.904
25512W        W97937   3.233  19.850  12.651
25513W        W97938  34.065  11.815  14.922
25514W        W97939  26.526  15.168   1.743
25515W        W97940  19.829  30.133  11.547
25516W        W97941  35.572  44.745   1.726
25517W        W97942  27.368  16.678   2.369
25518W        W97943   9.339  18.146  12.333
25519W        W97944  26.400  14.644   3.731
25520W        W97945  25.877  11.856   0.935
25521W        W97946  17.532  29.602   3.288
25522W        W97947  34.422  29.330   3.098
25523W        W97948  13.165  34.316   1.183
25524W        W97949  15.894   4.827  10.485
25525W        W97950  11.793  10.821  14.596
25526W        W97951  30.035  35.334  11.577
25527W        W97952  21.573  28.126   3.878
25528W        W97953   2.195  14.975   3.691
25529W        W97954   7.905  32.830  10.520
25530W        W97955   1.687   2.469   4.732
25531W        W97956  41.063   4.434   0.218
25532W        W97957   0.851  29.976   3.664
25533W        W97958  41.087   7.580   2.812
25534W        W97959  13.446  31.346  11.193
25535W        W97960  12.383  30.347   4.230
25536W        W97961   3.225  30.489   2.700
25537W        W97962  36.890  32.364  11.507
25538W        W97963  31.215  37.006   4.126
25539W        W97964   4.752  15.889  12.898
25540W        W97965  23.020  11.821   3.306
25541W        W97966  11.922  17.339   2.166
25542W        W97967  32.598  38.510   3.827
25543W        W97968  24.310  39.100   5.117
25544W        W97969  24.264  21.195   2.131
25545W        W97970   1.161  33.153  12.499
25546W        W97971  40.658  29.561  11.250
25547W        W97972  29.669   2.856  10.295
25548W        W97973  25.198   1.728   1.241
25549W        W97974  28.351   1.386   0.237
25550W        W97975  38.481  26.443   3.302
25551W        W97976  33.146  16.839  14.999
25552W        W97977  18.054  20.537   0.905
25553W        W97978  37.459  34.449  11.019
25554W        W97979   8.125  12.468   2.336
25555W        W97980  34.472  29.884   3.753
25556W        W97981  20.147  10.974   0.367
25557W        W97982   3.494  18.632   4.720
25558W        W97983  17.359  22.546   4.624
25559W        W97984  25.500   9.629  13.393
25560W        W97985  44.728  20.044   1.394
25561W        W97986   4.461   3.391   2.914
25562W        W97987  15.276  42.638   4.200
25563W        W97988   3.214  21.741   3.609
25564W        W97989  18.746   2.780  12.565
25565W        W97990  30.099  35.927   3.730
25566W        W97991   6.997   7.645   3.296
25567W        W97992  38.359  12.568  14.008
25568W        W97993  24.937  25.077   1.962
25569W        W97994   7.626  26.201   3.835
25570W        W97995  43.527  26.446   2.736
25571W        W97996  43.896  22.119   1.276
25572W        W97997   2.254  14.832  12.526
25573W        W97998  30.519  13.119  12.395
25574W        W97999  34.387  37.145   3.599
25575W        W98000  30.908   9.184  14.804
25576W        W98001   8.276  32.885   0.892
25577W        W98002   9.328  26.986  13.531
25578W        W98003  11.929  22.260  10.034
25579W        W98004  31.402   5.421   0.832
25580W        W98005  20.859   6.821   1.844
25581W        W98006   7.834   8.705   0.575
25582W        W98007  40.526  25.807  14.319
25583W        W98008  38.337  27.901  12.970
25584W        W98009  15.102  25.710   3.312
25585W        W98010  19.706  37.114   3.729
25586W        W98011  33.098   0.454  13.972
25587W        W98012  23.786  10.684   3.693
25588W        W98013  36.390  38.937   4.613
25589W        W98014  27.961  15.698  11.720
25590W        W98015  44.312  39.368   0.312
25591W        W98016  37.279   1.678  13.037
25592W        W98017  24.503   2.621  12.579
25593W        W98018   0.740  41.608   2.804
25594W        W98019  43.831  13.052  14.959
25595W        W98020   2.383  39.976   3.118
25596W        W98021  23.650   6.388  14.276
25597W        W98022  41.276  23.273  14.409
25598W        W98023  20.546  24.141  14.425
25599W        W98024  12.130  21.265  11.187
25600W        W98025   2.324  23.729   0.034
25601W        W98026  13.871   1.897  13.745
25602W        W98027  11.813  44.728   4.164
25603W        W98028  11.204   6.915  10.120
25604W        W98029   7.941  12.033  11.095
25605W        W98030   9.345  42.419  14.586
25606W        W98031  43.327  11.928   0.841
25607W        W98032   5.827  39.765   2.858
25608W        W98033   8.665  19.466  14.926
25609W        W98034  25.467  14.407   3.616
25610W        W98035  33.608  34.552   1.809
25611W        W98036   6.431  20.447  11.088
25612W        W98037  30.042  18.999  13.336
25613W        W98038  10.279  17.669   3.543
25614W        W98039  34.433  42.412   3.825
25615W        W98040  21.674  31.017  14.807
25616W        W98041  41.475  17.356   3.729
25617W        W98042  29.705  39.845  11.801
25618W        W98043  26.068   7.747  10.992
25619W        W98044   1.308  17.047  14.231
25620W        W98045   4.447  32.195  10.752
25621W        W98046  24.200  38.687  10.756
25622W        W98047  28.010  23.951   5.110
25623W        W98048   4.212  22.571   3.704
25624W        W98049   9.582  31.235   2.217
25625W        W98050  19.607   7.456  14.272
25626W        W98051  27.951   9.826  14.322
25627W        W98052   6.774  44.465  14.537
25628W        W98053  25.352  37.117   5.086
25629W        W98054   7.656  13.681   3.885
25630W        W98055  42.812  28.736   1.378
25631W        W98056  23.694  26.824   1.894
25632W        W98057  15.197   5.848  14.574
25633W        W98058  16.276  26.630  12.456
25634W        W98059  40.511  42.599   5.572
25635W        W98060  13.057  13.368   1.423
25636W        W98061  14.378  13.810   0.940
25637W        W98062  10.107  11.282   3.625
25638W        W98063  25.209  41.391   4.049
25639W        W98064  10.932  37.834   0.478
25640W        W98065  14.589  26.688   9.898
25641W        W98066   5.464  27.446  11.019
25642W        W98067  11.360  44.789  11.587
25643W        W98068  35.952  23.507  14.616
25644W        W98069  12.152  11.140  13.860
25645W        W98070  10.450  32.715  12.816
25646W        W98071  26.101  36.960   1.385
25647W        W98072   9.357  30.868  14.029
25648W        W98073  26.148  31.968   3.568
25649W        W98074   4.208   3.885  12.563
25650W        W98075  10.663   6.944   3.877
25651W        W98076  40.073   2.236   4.576
25652W        W98077  15.776  27.106   2.814
25653W        W98078  18.586  33.865   2.151
25654W        W98079  30.496  43.406  10.854
25655W        W98080   0.746   7.898  13.547
25656W        W98081  19.580  35.572   3.889
25657W        W98082  16.573   0.334  14.348
25658W        W98083  40.078  32.957   2.677
25659W        W98084  31.120  16.443   9.784
25660W        W98085  32.075  40.764   3.306
25661W        W98086  18.702  19.198  11.542
25662W        W98087  43.011  34.143  14.209
25663W        W98088   4.914  18.588   1.726
25664W        W98089  15.325  41.948   3.050
25665W        W98090   0.741  43.769   4.451
25666W        W98091   8.216  13.140   1.890
25667W        W98092  36.417  28.233   4.937
25668W        W98093   8.449  21.404  13.379
25669W        W98094  43.914  39.592   2.721
25670W        W98095  33.353   7.742  11.597
25671W        W98096  31.491  37.559   0.537
25672W        W98097   4.638  42.687   3.250
25673W        W98098   3.279  41.862  13.329
25674W        W98099  14.089  28.238  12.558
25675W        W98100  15.596   3.950  11.574
25676W        W98101  26.604  38.834  12.820
25677W        W98102  32.071  28.513   0.673
25678W        W98103  39.502   1.872  10.628
25679W        W98104  21.044  38.856  14.289
25680W        W98105  17.555  38.932   1.449
25681W        W98106  11.373   9.857   3.801
25682W        W98107   9.238  25.245  14.937
25683W        W98108  11.964  35.844   3.687
25684W        W98109  38.353  18.298  11.580
25685W        W98110  27.639  18.376  14.015
25686W        W98111   8.153  20.626   2.583
25687W        W98112   6.400  10.238   0.513
25688W        W98113   6.767  27.201  14.488
25689W        W98114   2.856   4.418   2.668
25690W        W98115  36.140   5.573  13.604
25691W        W98116  22.971   4.461   1.868
25692W        W98117  12.648  13.224   0.556
25693W        W98118  36.836  22.960   0.436
25694W        W98119  26.858   5.372  13.991
25695W        W98120  37.298  22.155   1.107
25696W        W98121  43.616  41.687   4.318
25697W        W98122  28.925  20.468  11.118
25698W        W98123  17.087  31.722  13.388
25699W        W98124  15.058  37.361   0.336
25700W        W98125  18.106  10.896  13.964
25701W        W98126   5.565  35.273   4.323
25702W        W98127  30.473  43.745   0.321
25703W        W98128  22.781  42.528  10.576
25704W        W98129  35.094  16.759   0.718
25705W        W98130  17.789   1.901  10.204
25706W        W98131  11.159  42.289   4.684
25707W        W98132   1.628  32.658   2.730
25708W        W98133  32.413  24.336   3.199
25709W        W98134  30.654   4.320   0.450
25710W        W98135  41.009  10.712   0.368
25711W        W98136  25.699   2.932  12.131
25712W        W98137  40.092  41.922  10.581
25713W        W98138  30.981  42.509  10.682
25714W        W98139  14.379   1.438   1.102
25715W        W98140  10.682  32.807  14.427
25716W        W98141  22.202  10.178  14.344
25717W        W98142  38.086   1.713  11.564
25718W        W98143  21.358   5.597  11.957
25719W        W98144   4.359  13.667   0.782
25720W        W98145   9.567  14.510  11.626
25721W        W98146  13.167  24.485   1.414
25722W        W98147  34.331   6.430   1.882
25723W        W98148  44.344  31.658  10.392
25724W        W98149  43.902  44.214  11.464
25725W        W98150   0.596  36.746   2.355
25726W        W98151  11.733  39.412   3.705
25727W        W98152  25.943  12.123  12.175
25728W        W98153   3.557  12.520   3.371
25729W        W98154  18.772   4.887   3.869
25730W        W98155  26.073  39.979  12.898
25731W        W98156   6.695   8.667   4.128
25732W        W98157   4.785  14.583   2.936
25733W        W98158  38.613  32.337   2.384
25734W        W98159  37.602  42.610  13.497
25735W        W98160  25.569   2.674   1.268
25736W        W98161   3.815  34.197   3.302
25737W        W98162   8.745  31.700  14.412
25738W        W98163   4.259  37.458  13.520
25739W        W98164  36.006  35.481   2.486
25740W        W98165   8.672  28.861  11.347
25741W        W98166  33.583  12.173   1.486
25742W        W98167   5.402  15.850   2.910
25743W        W98168   5.193  23.673  11.092
25744W        W98169  30.466   5.000   4.055
25745W        W98170  31.949   4.406  12.249
25746W        W98171  24.681  31.733  14.577
25747W        W98172   9.298  20.120   1.426
25748W        W98173   4.509  38.462   2.061
25749W        W98174  29.120  30.635   2.210
25750W        W98175   9.172  10.757   1.585
25751W        W98176  11.778  34.219  12.586
25752W        W98177  33.170  44.069  13.350
25753W        W98178   1.159  42.026   2.859
25754W        W98179  21.943  34.203  12.947
25755W        W98180  44.590  16.344  14.798
25756W        W98181  10.289  39.575   3.648
25757W        W98182  37.360   1.959  14.254
25758W        W98183  32.656  36.965   2.362
25759W        W98184  24.608  17.229  12.307
25760W        W98185   5.938  40.884   3.459
25761W        W98186  11.498  44.349   4.684
25762W        W98187  21.805  16.783   0.124
25763W        W98188  16.073  18.758   0.191
25764W        W98189  17.996  16.336   1.012
25765W        W98190   9.200   8.253   0.464
25766W        W98191  37.589  34.811  11.666
25767W        W98192  12.609  26.150   1.996
25768W        W98193  29.414   2.224   3.301
25769W        W98194  31.814  38.163  10.806
25770W        W98195  26.655  24.684  10.803
25771W        W98196  42.214  10.668   2.757
25772W        W98197  12.100  29.637  10.824
25773W        W98198  35.032  43.774  11.674
25774W        W98199   6.212  11.623  10.975
25775W        W98200  16.111  44.533   2.860
25776W        W98201  14.180  24.141   4.857
25777W        W98202  21.179  37.442  14.178
25778W        W98203  42.336  26.198  11.634
25779W        W98204  15.023  15.915   0.491
25780W        W98205   6.746  35.153  12.035
25781W        W98206  22.972  26.593  11.287
25782W        W98207  24.962   6.113  12.563
25783W        W98208  33.606  41.495  10.193
25784W        W98209  41.770  16.381   1.158
25785W        W98210   4.471  28.106   1.384
25786W        W98211  17.170  27.885   0.751
25787W        W98212  12.292  33.581   2.897
25788W        W98213  13.831  22.183  11.020
25789W        W98214   3.140  23.967   2.060
25790W        W98215  32.512  19.132  11.520
25791W        W98216  25.544  26.127   3.891
25792W        W98217   0.780   0.313  11.000
25793W        W98218   9.743  41.522  12.068
25794W        W98219  42.606   3.156  11.180
25795W        W98220  29.017  38.827   1.698
25796W        W98221   0.027  38.468  13.951
25797W        W98222  29.097   2.450   1.138
25798W        W98223  30.768   3.415   2.755
25799W        W98224  38.577  11.438   0.942
25800W        W98225  37.460  13.834  14.408
25801W        W98226  31.808  25.734   3.308
25802W        W98227  10.300  42.241   3.163
25803W        W98228  31.901  30.622  11.467
25804W        W98229  23.104  35.878  13.966
25805W        W98230  18.171  19.279   1.911
25806W        W98231  37.520  20.621   3.386
25807W        W98232  36.795  10.853   1.786
25808W        W98233  26.270  22.738  11.135
25809W        W98234  32.224   7.931  13.836
25810W        W98235  28.099  15.662   2.802
25811W        W98236  37.332  21.511   2.362
25812W        W98237  36.941  23.648  10.037
25813W        W98238  25.575  17.522   1.441
25814W        W98239  10.555   1.476   3.827
25815W        W98240  27.561  11.395   4.157
25816W        W98241  14.419  10.914   3.280
25817W        W98242  18.396  17.674   1.896
25818W        W98243  20.948   8.419  13.582
25819W        W98244  30.347  36.072   0.224
25820W        W98245  38.840   4.137  12.148
25821W        W98246  35.941   7.196  13.405
25822W        W98247  40.922  23.215   1.732
25823W        W98248   6.365  31.665  14.397
25824W        W98249  25.758  10.857   3.620
25825W        W98250  13.454  23.228   0.581
25826W        W98251  15.110  19.600  14.807
25827W        W98252  20.506  37.083   0.253
25828W        W98253   8.838  37.568  12.783
25829W        W98254  19.624   0.816  11.216
25830W        W98255  23.636  22.919   1.589
25831W        W98256  10.321  44.084  12.984
25832W        W98257  16.215  11.386   2.658
25833W        W98258  17.062   4.849  13.297
25834W        W98259   8.164  16.114   2.115
25835W        W98260  37.080  30.594  14.377
25836W        W98261  23.031  40.930   3.679
25837W        W98262  43.410  39.432   0.991
25838W        W98263  20.505   7.675   1.804
25839W        W98264  25.156  27.211  12.545
25840W        W98265  20.541  14.521  12.685
25841W        W98266  36.363  26.636   4.971
25842W        W98267  23.958  25.524  13.152
25843W        W98268  37.779  38.948  12.870
25844W        W98269  41.360  31.154  10.536
25845W        W98270  33.628   9.475  13.811
25846W        W98271  22.290  16.610  10.696
25847W        W98272  42.909   5.918  14.265
25848W        W98273   0.727  44.971   4.208
25849W        W98274  13.898  30.346   0.033
25850W        W98275   7.062  25.173  14.438
25851W        W98276  31.112  16.062  11.870
25852W        W98277  30.088  21.030  14.458
25853W        W98278  32.459  22.602  12.214
25854W        W98279  34.866  22.266  12.966
25855W        W98280  43.839  11.283  13.584
25856W        W98281  19.279  39.756  11.922
25857W        W98282  27.701  31.493  13.892
25858W        W98283  25.642  43.264   1.233
25859W        W98284  40.089   2.167   2.746
25860W        W98285  28.884  11.864  12.073
25861W        W98286   6.237   4.793  11.488
25862W        W98287  35.565  27.712   2.402
25863W        W98288  14.454  23.017  13.245
25864W        W98289  21.601   0.879  13.598
25865W        W98290  40.094  31.663   0.815
25866W        W98291   7.040   7.016  12.026
25867W        W98292  14.658  41.314   1.193
25868W        W98293  10.312   2.322  12.483
25869W        W98294  31.123   2.207  11.028
25870W        W98295  32.180  41.913  13.025
25871W        W98296  23.233   1.245   1.266
25872W        W98297  20.141  17.998   3.258
25873W        W98298  22.196  40.970   4.280
25874W        W98299  35.277  30.168  11.580
25875W        W98300   9.111  39.086   4.167
25876W        W98301  29.046  35.879   4.862
25877W        W98302  44.197  23.714   1.372
25878W        W98303   6.907  44.844   0.946
25879W        W98304   9.080  31.939   3.140
25880W        W98305  12.192   8.644  14.975
25881W        W98306  23.494  20.054  13.560
25882W        W98307  11.972  22.027   0.860
25883W        W98308  34.770  33.822  12.956
25884W        W98309  39.646  44.767   5.492
25885W        W98310  27.187  28.674  12.527
25886W        W98311  22.393  16.594  14.993
25887W        W98312  31.493  43.554   0.922
25888W        W98313  27.140  33.540   5.089
25889W        W98314  21.520  35.359  11.253
25890W        W98315  21.771  22.627  12.888
25891W        W98316  19.128  19.182  13.952
25892W        W98317  40.764  25.558   2.793
25893W        W98318  25.660  36.563  12.511
25894W        W98319  20.210  26.673   4.814
25895W        W98320  29.184  34.426   3.098
25896W        W98321   0.846   5.932   4.938
25897W        W98322  10.913  34.078   3.692
25898W        W98323  16.492   5.276  11.289
25899W        W98324   2.775  24.348  11.093
25900W        W98325  19.294  22.044  13.212
25901W        W98326  21.608  30.918  11.554
25902W        W98327   3.137  38.855   5.056
25903W        W98328   2.817  34.626   4.400
25904W        W98329  41.280  18.715   4.145
25905W        W98330  29.426  34.601   2.661
25906W        W98331  24.014  35.555  12.488
25907W        W98332  22.063  15.315  13.388
25908W        W98333   7.181  13.001  12.596
25909W        W98334   1.462  34.099  13.599
25910W        W98335  12.104  16.090  12.304
25911W        W98336  23.689  19.102   1.887
25912W        W98337   1.495   6.769   0.421
25913W        W98338  42.292  26.646  13.945
25914W        W98339  34.178  31.031   3.234
25915W        W98340  30.364  21.573   4.137
25916W        W98341  33.970   1.015   3.214
25917W        W98342   2.040   0.999  11.902
25918W        W98343  11.394  20.344   3.676
25919W        W98344  34.353  35.050  14.779
25920W        W98345  41.746  16.590  11.940
25921W        W98346  14.758  44.878  13.873
25922W        W98347  11.785  35.092   1.846
25923W        W98348  31.500  35.636  11.971
25924W        W98349  23.109  23.378   0.081
25925W        W98350   7.586  30.150   4.856
25926W        W98351  44.406  29.609  12.465
25927W        W98352  36.900  42.318   1.317
25928W        W98353  21.853  18.362   4.640
25929W        W98354  38.105  17.835  12.601
25930W        W98355  26.376  34.951   0.646
25931W        W98356  31.651   2.224  12.985
25932W        W98357  12.813  13.087  13.071
25933W        W98358   3.751  13.210  14.925
25934W        W98359  31.448  27.501  10.525
25935W        W98360  29.559  32.170  13.549
25936W        W98361  10.112  33.326  13.580
25937W        W98362  32.665   4.368   0.286
25938W        W98363  16.225  20.559  14.884
25939W        W98364  34.295  30.122  11.995
25940W        W98365  43.492  10.262   0.818
25941W        W98366  27.494  26.742   4.192
25942W        W98367  29.151  19.995   2.137
25943W        W98368  34.283   4.892   4.708
25944W        W98369  13.419  18.951  14.932
25945W        W98370  32.072  37.271   3.946
25946W        W98371  17.483   5.390   4.650
25947W        W98372   1.992   7.240  11.766
25948W        W98373  32.675  24.698   1.458
25949W        W98374  21.553   7.468  14.029
25950W        W98375  40.452  22.935   0.913
25951W        W98376  14.805  14.569  14.462
25952W        W98377  27.504  24.656  11.150
25953W        W98378   0.058  40.782   3.728
25954W        W98379  39.484   4.664   0.817
25955W        W98380  21.657  44.317   3.748
25956W        W98381   0.285  31.470  12.431
25957W        W98382   7.563  42.496  11.529
25958W        W98383   9.994   7.312  11.059
25959W        W98384  11.130  27.071   3.634
25960W        W98385  11.294  31.596  13.989
25961W        W98386  18.556  29.993  11.152
25962W        W98387   3.749  25.755  11.555
25963W        W98388   3.346  16.851  14.235
25964W        W98389  19.227   7.215   2.042
25965W        W98390  39.569  23.550  13.416
25966W        W98391  30.475   4.287  13.358
25967W        W98392  35.541  42.178   0.216
25968W        W98393  25.705  13.293   3.691
25969W        W98394  24.843  39.040  14.941
25970W        W98395  26.432  34.797   1.726
25971W        W98396  26.044  20.108  11.150
25972W        W98397   4.636  19.486   2.227
25973W        W98398  32.023  37.926  11.691
25974W        W98399  23.723  31.962  11.635
25975W        W98400  28.231  28.050  13.364
25976W        W98401  39.326  16.732   4.502
25977W        W98402  38.233  21.207   2.947
25978W        W98403  31.018  10.353  14.837
25979W        W98404  44.279  34.982   2.813
25980W        W98405  28.596   4.709  14.446
25981W        W98406  32.045  22.996  10.742
25982W        W98407  13.181  22.053  13.085
25983W        W98408  20.258  23.405   1.660
25984W        W98409  36.816  37.925   0.295
25985W        W98410   1.563   3.670  10.583
25986W        W98411  16.421  36.129  13.792
25987W        W98412  38.501  44.363   9.562
25988W        W98413  23.567  25.467   0.388
25989W        W98414  38.809  43.976   1.874
25990W        W98415   8.480   3.647  11.893
25991W        W98416   1.115  16.770  11.272
25992W        W98417  30.556  20.508   3.225
25993W        W98418   4.162  10.579   1.398
25994W        W98419  24.475  36.014  13.391
25995W        W98420  32.634  22.007  14.011
25996W        W98421  35.065   7.268  11.031
25997W        W98422  22.639  19.674   0.488
25998W        W98423  27.257   7.202  11.483
25999W        W98424  28.234  26.793  13.035
26000W        W98425  32.622  14.798  12.381
26001W        W98426  27.066   8.929  13.797
26002W        W98427  40.450   7.645  13.564
26003W        W98428  41.941  42.728   1.475
26004W        W98429  37.479  29.008  10.195
26005W        W98430  43.194  42.433  11.416
26006W        W98431  17.353  43.295   2.130
26007W        W98432  44.959  25.592   2.624
26008W        W98433  40.420  21.467   0.990
26009W        W98434  25.816  41.007  11.066
26010W        W98435   9.141  42.220   0.830
26011W        W98436  16.318  13.517   0.724
26012W        W98437  37.937  27.635   2.181
26013W        W98438   5.327  44.512   3.164
26014W        W98439  41.279   2.641  12.081
26015W        W98440  35.343  44.234   0.220
26016W        W98441  22.750   3.877  10.399
26017W        W98442   2.830  37.090  11.220
26018W        W98443  35.363  18.812  14.381
26019W        W98444   6.166  39.557  10.720
26020W        W98445  11.669  36.821   3.691
26021W        W98446   1.288   8.505   4.260
26022W        W98447  44.417  28.395   1.288
26023W        W98448  22.147  40.817  10.572
26024W        W98449  38.504  13.031   0.173
26025W        W98450  11.168  37.922  14.999
26026W        W98451  12.325   0.826   0.292
26027W        W98452  28.966   4.166   2.337
26028W        W98453   6.201  12.053   3.177
26029W        W98454  26.019  33.129  11.464
26030W        W98455  30.937  40.604  14.867
26031W        W98456   0.318  34.770   1.368
26032W        W98457   6.974  38.028  11.014
26033W        W98458   1.410  41.286  12.615
26034W        W98459  37.099  38.955  11.479
26035W        W98460   7.887  42.956  12.065
26036W        W98461  36.710   2.388   2.504
26037W        W98462  26.810   9.259  13.482
26038W        W98463  26.112  14.995  11.162
26039W        W98464  38.093  36.603  10.717
26040W        W98465  40.974   3.795   3.793
26041W        W98466  32.372  16.157  10.288
26042W        W98467  42.522  10.772  11.797
26043W        W98468  44.346  24.033   1.745
26044W        W98469  40.790  15.916  11.581
26045W        W98470  10.072  28.481  11.582
26046W        W98471   7.699  37.817   0.231
26047W        W98472  19.810  24.537  11.141
26048W        W98473  13.884  26.749  13.424
26049W        W98474   7.030  32.061  14.864
26050W        W98475  15.863  21.238   4.828
26051W        W98476  43.826  26.230   0.822
26052W        W98477  37.959  15.710  14.502
26053W        W98478   5.364   5.312  14.736
26054W        W98479   8.272  36.060   3.467
26055W        W98480  38.513  39.817  10.580
26056W        W98481   8.901  19.888   3.550
26057W        W98482  37.268  21.186  13.431
26058W        W98483  25.367  41.264   1.445
26059W        W98484  39.670  37.364   4.226
26060W        W98485  10.245   9.845  10.627
26061W        W98486  10.821   4.935   3.090
26062W        W98487  15.219   9.888   2.414
26063W        W98488   9.055  42.447  10.498
26064W        W98489  42.278   1.446  14.096
26065W        W98490  23.914  13.106  13.661
26066W        W98491  27.541  27.927  10.996
26067W        W98492  18.298  31.105   0.941
26068W        W98493   8.191  17.593  14.999
26069W        W98494  19.228   3.538  14.850
26070W        W98495  38.376  33.472   4.486
26071W        W98496  15.603  12.165  11.475
26072W        W98497  26.204  40.362  12.586
26073W        W98498  37.779  44.346  11.151
26074W        W98499  23.682   7.825  14.754
26075W        W98500  35.364  38.360  12.466
26076W        W98501  37.843  44.554   2.811
26077W        W98502  12.158  16.629   3.240
26078W        W98503   8.747  35.487   4.991
26079W        W98504   3.472  22.944   2.770
26080W        W98505   2.839   3.471  14.504
26081W        W98506  29.194   1.670  11.123
26082W        W98507  40.839  26.610  12.822
26083W        W98508  24.785   8.260  11.379
26084W        W98509  35.892  34.826   0.886
26085W        W98510  40.992  36.767  12.141
26086W        W98511  41.814   1.579  14.318
26087W        W98512  17.119  36.444   2.104
26088W        W98513  27.637  22.982  12.541
26089W        W98514  28.532   9.874  13.771
26090W        W98515  10.951  28.027  13.072
26091W        W98516   2.217  14.880   1.713
26092W        W98517  33.143   4.254   4.345
26093W        W98518  14.787  40.916   1.943
26094W        W98519  25.931  14.584  14.007
26095W        W98520  14.801  17.274  11.935
26096W        W98521   1.341  29.472  11.653
26097W        W98522   0.669  29.067  11.163
26098W        W98523   5.898  40.307   1.337
26099W        W98524  36.905  34.643   4.084
26100W        W98525  24.714  22.280   0.239
26101W        W98526  39.252   0.857  14.968
26102W        W98527   5.917  44.215   4.249
26103W        W98528  15.539  38.534  11.154
26104W        W98529  14.139  27.126  11.584
26105W        W98530  27.033  21.209  13.834
26106W        W98531   2.698   1.952  12.586
26107W        W98532  29.423  36.908  10.665
26108W        W98533  32.276  44.262  10.271
26109W        W98534  40.072  19.627  12.459
26110W        W98535  34.522   9.742  11.010
26111W        W98536  29.572  13.175  12.877
26112W        W98537   1.946   0.008   0.394
26113W        W98538  34.569   3.682  12.592
26114W        W98539   3.206  41.929   2.719
26115W        W98540  11.229  26.869  10.695
26116W        W98541  32.753   6.395  10.615
26117W        W98542  26.537  29.438  14.972
26118W        W98543   7.861  44.249  10.160
26119W        W98544   1.267  25.698   0.309
26120W        W98545  27.885  18.850   2.066
26121W        W98546   8.694   2.013   4.120
26122W        W98547  24.200  39.519   1.666
26123W        W98548   8.973  11.268   1.359
26124W        W98549  41.022   0.263   4.737
26125W        W98550  38.175  44.730  10.644
26126W        W98551  41.480   6.694  13.767
26127W        W98552  44.300  35.531   2.857
26128W        W98553  26.944  36.019   0.960
26129W        W98554  30.767  36.735   4.134
26130W        W98555  41.197  37.842   1.837
26131W        W98556  17.999  37.438   4.557
26132W        W98557  42.735  24.022  14.459
26133W        W98558   9.328   3.686  13.348
26134W        W98559  23.974  18.329   0.841
26135W        W98560   9.089   8.388  14.997
26136W        W98561  11.246   8.352  12.935
26137W        W98562  30.431  24.211  11.250
26138W        W98563  36.116  22.541   0.533
26139W        W98564  17.266  12.598   0.885
26140W        W98565  31.595  34.434   2.924
26141W        W98566   2.178  20.122  12.341
26142W        W98567   1.161  12.263  12.390
26143W        W98568  13.382   9.054  14.727
26144W        W98569  40.096  35.094   0.524
26145W        W98570  35.113  17.954   1.802
26146W        W98571   3.874  38.507  13.818
26147W        W98572  21.043   9.078  14.569
26148W        W98573   3.730   9.599  12.046
26149W        W98574   2.290  23.414   3.202
26150W        W98575   9.245  16.619  11.130
26151W        W98576  26.636  38.166   1.397
26152W        W98577  41.347   1.019  13.150
26153W        W98578   0.439  16.907  14.968
26154W        W98579  21.067  22.737   2.205
26155W        W98580  23.116  17.735  11.976
26156W        W98581  17.448  22.996  13.434
26157W        W98582   3.351   2.802   0.473
26158W        W98583  19.672  38.356  10.660
26159W        W98584  37.056   8.355  11.251
26160W        W98585  24.053  33.169   2.660
26161W        W98586  30.655  22.222   2.347
26162W        W98587  23.448  10.893  13.430
26163W        W98588   5.616  10.954   2.371
26164W        W98589  23.176  37.522  13.905
26165W        W98590  10.199  14.056  14.230
26166W        W98591  29.949  42.576   1.438
26167W        W98592   3.736  30.352   3.974
26168W        W98593   4.440  40.959   3.084
26169W        W98594  37.425  19.241   0.456
26170W        W98595   4.436  40.351  14.753
26171W        W98596   2.961   1.867   4.201
26172W        W98597  36.947  33.141  14.179
26173W        W98598  19.544   3.694  12.905
26174W        W98599  14.582  42.523  12.155
26175W        W98600  32.690  25.102   2.210
26176W        W98601  32.426  34.967  10.696
26177W        W98602  37.754  13.799   2.944
26178W        W98603  33.816  31.152   1.534
26179W        W98604   5.831   2.748  10.587
26180W        W98605  29.728  24.421   0.376
26181W        W98606  34.037  36.282  11.467
26182W        W98607  24.627   7.740   0.541
26183W        W98608   0.022  12.771   1.257
26184W        W98609  37.904  11.826  11.532
26185W        W98610  17.586  31.717  12.256
26186W        W98611  43.341  27.189  10.624
26187W        W98612  34.836  30.436   2.838
26188W        W98613  23.681  19.835  11.900
26189W        W98614  28.909   4.231  11.613
26190W        W98615  19.167   6.960  12.197
26191W        W98616  21.787  26.148  14.385
26192W        W98617  41.224   9.316  14.527
26193W        W98618   9.507  20.429   2.225
26194W        W98619  15.211   1.728   3.476
26195W        W98620  32.600   0.438  11.605
26196W        W98621  43.251  25.137  11.538
26197W        W98622  42.540  11.095   3.632
26198W        W98623  43.288  28.366   0.096
26199W        W98624   9.818  35.287   0.906
26200W        W98625  10.922   0.840   1.510
26201W        W98626  10.180  17.799   2.229
26202W        W98627  27.531  21.750  11.990
26203W        W98628  10.818  22.661   3.298
26204W        W98629   8.595   8.286   1.263
26205W        W98630  20.125  21.916  12.822
26206W        W98631  23.264  39.870   4.204
26207W        W98632   7.784   8.696   4.670
26208W        W98633   8.451  37.381   1.274
26209W        W98634  37.591  22.763   4.311
26210W        W98635  18.522  11.287  11.215
26211W        W98636  32.636   2.896  13.468
26212W        W98637   5.879  41.007   0.013
26213W        W98638  18.871  17.761  11.025
26214W        W98639  17.791  11.701  13.861
26215W        W98640  34.792  38.081   4.121
26216W        W98641  41.339  17.259   1.266
26217W        W98642  37.887  32.166  10.613
26218W        W98643  17.035  36.258   4.563
26219W        W98644  32.157  24.934   0.717
26220W        W98645  20.065   7.368  14.041
26221W        W98646  21.199   0.933   5.146
26222W        W98647  39.261  41.490   3.285
26223W        W98648  37.330  15.570  13.612
26224W        W98649   1.306  15.649  10.048
26225W        W98650  35.862  39.182  11.173
26226W        W98651  15.182  28.566   4.194
26227W        W98652   4.009  36.472   4.759
26228W        W98653   9.634  19.661  12.865
26229W        W98654  26.608  21.895   3.120
26230W        W98655  30.472  21.008  12.285
26231W        W98656  21.087  39.003   2.695
26232W        W98657  17.293  19.023   0.223
26233W        W98658  27.550  29.181   1.755
26234W        W98659  32.222  11.391  12.970
26235W        W98660  10.003   2.010   0.647
26236W        W98661  14.469  27.022   4.121
26237W        W98662  18.122  30.767   4.173
26238W        W98663  32.967  20.069   3.187
26239W        W98664  41.980  13.311  10.507
26240W        W98665   5.243  43.867  11.256
26241W        W98666  24.308  40.346  11.731
26242W        W98667  11.715  37.112   1.687
26243W        W98668  37.352  34.846   3.702
26244W        W98669   9.891  29.166   2.697
26245W        W98670  17.481   3.984  14.787
26246W        W98671  14.165  10.111  14.585
26247W        W98672   2.798  19.287   2.160
26248W        W98673  27.784   5.166  14.780
26249W        W98674  38.873  20.132   0.935
26250W        W98675  15.151   0.127   4.606
26251W        W98676  22.693  22.593   2.793
26252W        W98677  31.270   8.759   4.660
26253W        W98678  20.328  17.698  13.767
26254W        W98679  24.084  31.105   0.813
26255W        W98680  36.353  10.333   5.022
26256W        W98681   5.342  40.724  14.688
26257W        W98682   5.977  39.263   0.446
26258W        W98683   5.956  42.576   4.632
26259W        W98684  10.864  37.520  14.761
26260W        W98685  30.930  39.063   2.769
26261W        W98686   7.991  42.023   4.854
26262W        W98687   4.139  22.453   0.760
26263W        W98688  15.605  27.421   3.201
26264W        W98689   6.123  44.780   0.416
26265W        W98690  29.587  22.198   1.461
26266W        W98691  28.461  28.301  14.376
26267W        W98692  28.327   5.785  11.233
26268W        W98693  25.200   4.854   5.108
26269W        W98694  20.243  13.608  12.293
26270W        W98695  33.460  10.248   1.692
26271W        W98696  32.617  39.577   4.722
26272W        W98697  32.685  15.162  12.734
26273W        W98698  18.247   8.908  14.361
26274W        W98699  11.696  21.602   0.884
26275W        W98700  41.032   5.465  13.574
26276W        W98701  10.864  26.462  12.499
26277W        W98702  18.805  37.024  11.157
26278W        W98703  36.461  19.484  14.311
26279W        W98704  19.998  28.602   2.303
26280W        W98705  33.041  33.919  11.999
26281W        W98706   5.241  16.311   0.373
26282W        W98707  23.050  39.439   4.926
26283W        W98708   6.390  29.874   3.472
26284W        W98709  15.245  11.097  10.718
26285W        W98710  11.616   5.317   2.773
26286W        W98711  15.086  15.608   0.886
26287W        W98712  24.471  17.582   0.944
26288W        W98713  23.255  13.801   3.820
26289W        W98714  15.740   9.408   3.188
26290W        W98715  25.418  41.667  12.331
26291W        W98716  19.808   3.431  14.939
26292W        W98717  25.851  35.476   4.091
26293W        W98718   9.261   0.796  13.771
26294W        W98719   0.256   7.183   4.569
26295W        W98720  40.042  25.944  14.303
26296W        W98721   8.316  14.198  10.716
26297W        W98722  10.587  39.609  11.448
26298W        W98723  19.266  22.040  11.936
26299W        W98724  10.213  35.104   4.815
26300W        W98725  20.147  41.539  11.714
26301W        W98726  28.702  19.731   2.500
26302W        W98727  18.753  16.584  14.297
26303W        W98728  15.162  35.427   1.212
26304W        W98729   2.159  11.745   1.134
26305W        W98730  11.278  26.571  11.118
26306W        W98731  17.014  31.201   3.334
26307W        W98732  33.657  32.312  12.493
26308W        W98733   6.811   2.773  14.943
26309W        W98734   1.865  14.092   4.836
26310W        W98735  38.746  41.134  14.341
26311W        W98736  10.350  31.573   4.653
26312W        W98737  20.756  32.554  12.635
26313W        W98738  28.694  43.498   2.538
26314W        W98739  34.400  40.938   0.410
26315W        W98740  29.201  36.965   1.724
26316W        W98741   3.922   9.371   3.615
26317W        W98742  30.168   3.855  10.677
26318W        W98743  24.466  34.099  10.856
26319W        W98744  16.145  41.391  13.563
26320W        W98745  18.727  29.682   1.760
26321W        W98746  22.092   9.794   4.535
26322W        W98747  25.155  15.188   1.582
26323W        W98748  19.336  34.000   1.443
26324W        W98749   3.680  15.621  12.559
26325W        W98750   8.690   3.820  14.452
26326W        W98751  28.119   0.035  10.353
26327W        W98752  24.270  38.763   3.283
26328W        W98753  12.634  44.519  13.912
26329W        W98754  10.451  19.089   3.850
26330W        W98755  41.525  41.270   2.829
26331W        W98756  33.191  44.940   4.534
26332W        W98757  23.094  18.042  10.675
26333W        W98758  43.283  30.375   0.926
26334W        W98759  36.360  33.800  12.030
26335W        W98760  33.500  17.209  14.847
26336W        W98761   0.029   6.801  11.516
26337W        W98762  27.637  17.549  14.541
26338W        W98763  19.133  27.931   3.315
26339W        W98764  33.015  37.784   4.157
26340W        W98765  12.457  30.235  11.947
26341W        W98766  25.089  24.183   4.996
26342W        W98767  29.542  12.900   2.483
26343W        W98768   1.999   1.723  14.456
26344W        W98769  24.145   6.474  13.559
26345W        W98770  43.036  11.760  12.668
26346W        W98771   3.197  28.567  11.933
26347W        W98772   0.294  23.632   2.101
26348W        W98773  11.870  32.888  14.012
26349W        W98774  39.011   3.659  12.149
26350W        W98775  17.217  35.876  11.600
26351W        W98776   8.497  19.442   4.342
26352W        W98777  34.438  17.678  12.894
26353W        W98778   3.404  12.602  13.386
26354W        W98779  26.698  10.801   0.206
26355W        W98780   6.261  17.315   3.158
26356W        W98781  31.646  34.825   4.125
26357W        W98782  35.658  13.525   3.971
26358W        W98783   1.700  38.729  10.436
26359W        W98784  13.151  21.529   1.795
26360W        W98785  11.432  14.838  12.106
26361W        W98786  31.676  29.956   2.352
26362W        W98787  40.330  25.513   1.704
26363W        W98788  40.072  10.268   4.670
26364W        W98789  27.198  27.670   4.768
26365W        W98790   0.678  34.079   0.896
26366W        W98791  42.740   8.948  10.527
26367W        W98792  24.780  37.547  11.498
26368W        W98793  10.383  31.831  12.926
26369W        W98794  24.444  31.346  13.413
26370W        W98795  35.462  42.675   3.360
26371W        W98796  30.839  18.076  14.508
26372W        W98797   5.819  41.658   4.706
26373W        W98798   2.939  30.638  13.043
26374W        W98799   5.709  21.024   3.371
26375W        W98800   9.287   1.568   2.039
26376W        W98801   2.793  16.789   1.349
26377W        W98802  43.107  15.802   0.084
26378W        W98803  42.282   1.890  13.454
26379W        W98804   8.307  22.313  12.427
26380W        W98805  31.409  14.979   4.121
26381W        W98806  35.961   6.234  13.440
26382W        W98807  17.321  21.325  12.779
26383W        W98808   0.481   4.708   1.203
26384W        W98809  44.737  15.660  12.610
26385W        W98810   4.527  30.098  14.963
26386W        W98811   8.476  23.591   3.096
26387W        W98812  39.152  11.099  14.511
26388W        W98813  16.525   1.596   3.749
26389W        W98814  40.901   0.393   4.236
26390W        W98815  39.531   6.275   1.969
26391W        W98816  10.763  23.648   0.207
26392W        W98817  33.064   4.403  10.603
26393W        W98818  19.661  19.420  11.961
26394W        W98819   9.143   0.064   3.674
26395W        W98820  38.847  33.975  14.733
26396W        W98821  14.627  21.269   0.228
26397W        W98822  16.090  10.452  13.977
26398W        W98823   2.668   8.223  13.411
26399W        W98824  19.637  21.467   0.280
26400W        W98825  11.762  43.759   2.766
26401W        W98826  15.755  23.480  11.543
26402W        W98827   6.930   7.380   0.728
26403W        W98828  20.554  29.496  12.393
26404W        W98829  14.456   7.209  14.283
26405W        W98830  27.204  16.293   4.908
26406W        W98831  21.818   7.381  12.671
26407W        W98832   8.447   8.963  11.638
26408W        W98833  25.274  16.024   4.285
26409W        W98834   6.442   8.431   2.304
26410W        W98835   5.298   3.584   1.195
26411W        W98836  26.388  31.502  10.129
26412W        W98837  39.563   4.125   0.324
26413W        W98838  18.172  30.460  12.981
26414W        W98839  22.639  12.473  12.059
26415W        W98840   9.740  18.739   0.424
26416W        W98841  22.723   6.307   4.310
26417W        W98842  12.296  31.844  12.522
26418W        W98843  14.856  14.559  11.168
26419W        W98844   8.124  37.244   1.705
26420W        W98845  29.641   3.025   2.139
26421W        W98846  27.136  31.333   3.284
26422W        W98847  31.372  36.575  12.944
26423W        W98848  43.826  36.627   4.434
26424W        W98849  31.514   9.461   1.380
26425W        W98850  22.101   7.733  13.605
26426W        W98851  29.617   9.799  10.856
26427W        W98852  14.764  24.665  10.823
26428W        W98853  31.150  28.549  12.417
26429W        W98854  26.634  35.203   4.348
26430W        W98855  23.052  24.466  12.013
26431W        W98856   9.779  14.269  14.003
26432W        W98857  13.288  38.582  14.828
26433W        W98858  23.054  10.436  11.433
26434W        W98859   8.955  33.966  11.638
26435W        W98860   6.473  21.660   0.934
26436W        W98861  41.967  25.081   5.039
26437W        W98862  12.530  41.892  11.654
26438W        W98863  26.068   4.658   2.877
26439W        W98864  37.318   6.303   4.981
26440W        W98865  18.656  21.333  11.895
26441W        W98866  37.602   2.378  14.506
26442W        W98867  10.955   8.882   2.861
26443W        W98868  40.397  13.864  13.512
26444W        W98869   1.220   1.822   1.883
26445W        W98870  31.874   8.628   1.404
26446W        W98871   8.876  32.484  13.890
26447W        W98872   0.861   9.713  11.786
26448W        W98873  18.647  38.039  11.709
26449W        W98874  13.350  33.132  11.658
26450W        W98875   3.289   0.959  12.647
26451W        W98876  28.822  15.201   2.156
26452W        W98877  25.494  10.284  12.881
26453W        W98878  20.024  39.388   4.602
26454W        W98879   9.419  44.367   1.504
26455W        W98880  27.031   7.943  11.995
26456W        W98881  22.955  21.708  14.940
26457W        W98882   1.537  32.002  14.368
26458W        W98883   4.185  14.319   1.111
26459W        W98884   7.957  36.104  12.040
26460W        W98885   5.748  13.767   2.718
26461W        W98886  42.714  37.365  10.771
26462W        W98887  32.430   9.591   0.325
26463W        W98888  43.754  12.757   1.788
26464W        W98889  11.028  16.035   0.546
26465W        W98890  10.103   5.761  13.698
26466W        W98891   4.254   2.916   0.345
26467W        W98892  14.798  15.246  11.609
26468W        W98893  41.433  31.873   0.348
26469W        W98894  28.196  30.512   9.557
26470W        W98895  32.366  42.305  11.884
26471W        W98896  15.005  40.830  14.394
26472W        W98897  26.669  22.781  11.447
26473W        W98898  11.887  38.871   2.732
26474W        W98899  19.713  25.954   4.873
26475W        W98900  33.519  11.714   4.059
26476W        W98901  28.017  14.110  14.985
26477W        W98902  44.565  36.481   1.006
26478W        W98903   9.272   1.271  13.542
26479W        W98904  22.546  38.320   1.583
26480W        W98905  41.696  18.337   3.341
26481W        W98906  42.403  32.054   4.337
26482W        W98907   5.869  21.747   2.996
26483W        W98908  15.487  13.913   2.731
26484W        W98909  15.642  32.503   3.260
26485W        W98910  21.978  16.601  14.648
26486W        W98911  44.203  21.771   3.358
26487W        W98912   7.328  44.996   1.719
26488W        W98913  19.174  44.734  13.938
26489W        W98914  44.952  19.618   3.163
26490W        W98915  32.887  39.416   4.203
26491W        W98916  39.042   0.859  13.057
26492W        W98917  32.206  27.146   2.482
26493W        W98918  33.168   5.272  12.908
26494W        W98919  10.375  22.037  11.164
26495W        W98920  44.828  15.521   0.011
26496W        W98921  36.745  20.163   3.321
26497W        W98922  30.522  19.282   3.767
26498W        W98923  28.114  16.698   3.508
26499W        W98924  13.296  20.224  10.649
26500W        W98925  31.361  12.769   1.284
26501W        W98926  37.841   7.512   2.346
26502W        W98927  11.159  25.048  10.922
26503W        W98928  15.466  37.393  14.973
26504W        W98929  31.639  21.506   0.328
26505W        W98930   0.877  14.330  14.220
26506W        W98931   1.664  11.269  13.909
26507W        W98932   4.313  44.279  14.460
26508W        W98933  27.878  37.246   4.574
26509W        W98934  42.546   8.243  11.172
26510W        W98935  19.864  35.047  13.469
26511W        W98936  34.892  16.935   4.127
26512W        W98937  26.971  20.020  13.737
26513W        W98938  37.887  19.728  14.282
26514W        W98939  29.846  25.675   1.242
26515W        W98940  39.865  23.064  12.019
26516W        W98941  33.161   0.041  13.582
26517W        W98942   0.496  12.550   4.087
26518W        W98943  32.525  12.386  12.079
26519W        W98944  23.482  21.309   4.486
26520W        W98945  13.804   9.694  11.995
26521W        W98946   2.610   8.764  11.995
26522W        W98947  38.793  32.640   1.431
26523W        W98948   8.297  20.271  11.519
26524W        W98949  33.388   7.102   0.915
26525W        W98950  30.946  42.436   0.971
26526W        W98951  24.439  22.239  13.717
26527W        W98952   0.748  28.647  14.792
26528W        W98953  19.014  12.859  12.416
26529W        W98954  17.390   0.991  10.581
26530W        W98955  18.819  36.780   3.230
26531W        W98956  30.803  18.046  12.658
26532W        W98957  21.233  35.479  10.441
26533W        W98958  10.093  16.700   3.966
26534W        W98959  18.452  43.333   1.922
26535W        W98960  44.811   8.790  10.827
26536W        W98961  33.980  43.707   0.455
26537W        W98962  29.137   6.293   0.854
26538W        W98963  27.600  44.458  10.039
26539W        W98964  23.246  36.457  11.924
26540W        W98965  16.930  12.316  14.268
26541W        W98966   7.211   3.750  12.457
26542W        W98967  36.540   1.765  12.421
26543W        W98968  35.099   6.390  11.432
26544W        W98969   0.295   7.372   0.414
26545W        W98970  18.697  26.166  13.460
26546W        W98971  15.414  15.331  10.808
26547W        W98972  30.464  10.897  13.823
26548W        W98973  41.340  36.857   3.985
26549W        W98974   9.045  34.595   4.021
26550W        W98975  39.585  27.494  12.640
26551W        W98976  39.858  43.420  12.975
26552W        W98977  26.421  17.141  11.072
26553W        W98978   3.524  17.210   0.966
26554W        W98979  28.602  43.446  11.881
26555W        W98980  43.492   2.853   2.811
26556W        W98981   8.235  21.554  12.917
26557W        W98982  20.302  30.358   2.645
26558W        W98983  18.308  31.182  10.496
26559W        W98984  23.024  41.014  13.602
26560W        W98985   5.150  41.057  13.409
26561W        W98986   8.707  44.561  13.879
26562W        W98987   9.112  30.908   0.415
26563W        W98988  30.527  44.570   5.118
26564W        W98989  28.210  36.671   4.060
26565W        W98990  19.418  18.929  14.300
26566W        W98991  20.990   9.266   5.076
26567W        W98992  33.181  12.615   0.904
26568W        W98993   0.484  44.270   1.269
26569W        W98994  21.387  16.656  13.901
26570W        W98995   0.455  42.250   0.807
26571W        W98996  34.650  29.492  13.751
26572W        W98997   0.343   1.958  13.667
26573W        W98998  10.040  21.461   5.103
26574W        W98999   9.995  44.246  11.127
26575W        W99000  22.687  28.638   2.817
26576W        W99001  40.710   3.357   0.851
26577W        W99002  41.654  15.282   4.204
26578W        W99003  40.347  28.136   2.943
26579W        W99004  31.594  34.865  11.083
26580W        W99005  37.332  14.942  12.949
26581W        W99006  20.610  38.662   5.053
26582W        W99007   3.899  43.741  10.936
26583W        W99008   7.752  41.603  13.004
26584W        W99009  35.877  12.543  13.746
26585W        W99010   8.906   9.796   2.934
26586W        W99011  16.102  34.408  14.507
26587W        W99012  28.423  24.995  14.823
26588W        W99013  10.630  24.363   3.279
26589W        W99014  41.238  14.749   4.631
26590W        W99015  40.237  28.962  13.225
26591W        W99016  20.153  21.181   1.155
26592W        W99017  35.505   1.483  14.373
26593W        W99018  41.319  43.156  10.737
26594W        W99019  15.392  18.185  11.079
26595W        W99020   5.864  34.104  13.470
26596W        W99021   0.221  10.395  12.995
26597W        W99022  43.304  19.599  12.163
26598W        W99023   4.386  30.703   1.705
26599W        W99024  25.550  15.318  14.454
26600W        W99025   8.155  37.341   3.068
26601W        W99026   7.783  10.721  14.878
26602W        W99027  18.696  28.942   1.232
26603W        W99028   2.779  14.813  12.528
26604W        W99029  38.428  17.762  13.515
26605W        W99030  43.828  33.447   4.286
26606W        W99031  22.307  12.067   3.820
26607W        W99032  34.873  12.891   2.053
26608W        W99033  40.714  43.429   0.851
26609W        W99034  17.592  12.772   4.790
26610W        W99035  16.595  25.966   1.248
26611W        W99036  25.703  16.843  14.277
26612W        W99037   1.387  34.980   4.071
26613W        W99038  19.746  31.192   0.872
26614W        W99039  37.956  34.531  11.903
26615W        W99040   1.015  40.515   3.739
26616W        W99041  38.571  13.891  13.409
26617W        W99042  37.399   3.420  12.584
26618W        W99043  22.340  44.176  12.273
26619W        W99044  16.584  31.350  12.998
26620W        W99045  25.046   7.833  11.242
26621W        W99046  43.365  44.042  10.899
26622W        W99047  42.434  40.027  11.911
26623W        W99048  18.114  12.783  12.627
26624W        W99049  10.392   0.902  11.634
26625W        W99050  32.169   6.885  14.483
26626W        W99051  13.619  28.089   1.043
26627W        W99052   3.365  38.493  13.985
26628W        W99053  29.389  35.084   2.428
26629W        W99054  19.228  24.446   0.042
26630W        W99055   3.197  39.202   3.771
26631W        W99056  40.837  10.759  11.092
26632W        W99057   3.469  35.069  10.461
26633W        W99058   2.386   0.911   4.649
26634W        W99059   1.829  42.883   2.318
26635W        W99060  41.714   9.731  13.938
26636W        W99061  11.248  14.476   1.418
26637W        W99062   5.688  20.898  10.521
26638W        W99063  23.130  25.205   2.297
26639W        W99064  29.820   0.490  11.489
26640W        W99065   9.367   2.943   4.770
26641W        W99066  28.627  15.511  11.124
26642W        W99067  26.050  37.014   3.421
26643W        W99068   4.486  14.559  13.920
26644W        W99069  19.156   9.090  13.334
26645W        W99070  27.477  21.853   0.607
26646W        W99071  14.415  22.497   0.120
26647W        W99072  32.618  13.919  12.093
26648W        W99073   5.771  11.213  11.462
26649W        W99074   4.777  42.017   2.735
26650W        W99075   9.930  16.666   0.943
26651W        W99076  17.610  37.623  10.643
26652W        W99077  10.620  37.085   1.461
26653W        W99078  25.719  23.448  13.060
26654W        W99079   4.433  21.130   2.264
26655W        W99080   3.345  32.467  10.688
26656W        W99081  26.006  29.687   1.815
26657W        W99082  35.094  12.145  13.781
26658W        W99083  23.977   7.355   0.716
26659W        W99084  27.166  28.394  10.718
26660W        W99085   9.001  19.646   1.252
26661W        W99086  14.168  25.010  11.027
26662W        W99087  44.534  32.510   3.529
26663W        W99088  44.879  26.648   1.686
26664W        W99089   7.117  34.512   2.319
26665W        W99090  17.188  34.151   2.401
26666W        W99091  13.095   1.160   2.744
26667W        W99092  39.245  42.284   1.569
26668W        W99093   5.383   0.375   2.885
26669W        W99094  22.541  42.679   3.065
26670W        W99095  36.510   4.320  14.085
26671W        W99096   5.471  15.597  11.979
26672W        W99097  18.888  29.178   5.468
26673W        W99098  22.135  42.938   0.740
26674W        W99099  24.621  12.281  11.494
26675W        W99100   3.008  38.058   0.935
26676W        W99101  32.231  42.578  11.466
26677W        W99102  19.624  22.350  13.461
26678W        W99103   5.563  32.003   5.062
26679W        W99104  13.385  14.266   3.375
26680W        W99105  41.092  37.122   3.205
26681W        W99106  32.786  36.229  13.402
26682W        W99107  27.658  33.009   0.284
26683W        W99108  21.327  12.226  11.413
26684W        W99109  39.879  25.575   0.558
26685W        W99110  33.102   5.156   2.580
26686W        W99111  43.837  44.561  12.446
26687W        W99112  22.009  37.347  14.820
26688W        W99113  37.625  11.746   3.171
26689W        W99114  33.056  18.372   9.744
26690W        W99115  12.118  23.328   1.188
26691W        W99116  38.754  17.075  11.515
26692W        W99117  20.043  17.241  13.821
26693W        W99118   2.268  36.520   4.347
26694W        W99119  10.004  22.394  11.396
26695W        W99120  31.668  24.956  12.486
26696W        W99121  13.599  21.218   4.951
26697W        W99122  25.134  25.414  11.918
26698W        W99123   2.235   0.879   2.728
26699W        W99124  33.663  27.367  12.390
26700W        W99125  31.931   7.685  12.526
26701W        W99126  26.763  14.167  11.688
26702W        W99127  19.762  32.630   0.827
26703W        W99128  36.656   6.972  13.501
26704W        W99129  25.178  30.967  12.080
26705W        W99130   8.114  35.588  13.333
26706W        W99131  24.972  21.614  10.713
26707W        W99132  10.464  32.512  12.321
26708W        W99133  13.401  40.600   5.131
26709W        W99134  16.108  24.130   4.799
26710W        W99135   5.436  16.237  11.758
26711W        W99136   1.312   4.287  11.071
26712W        W99137   8.157  38.975   2.363
26713W        W99138  25.375   4.082  11.167
26714W        W99139  13.085  11.300  11.225
26715W        W99140  15.317  31.496   4.746
26716W        W99141  31.899   9.251  11.282
26717W        W99142   2.323  37.754  10.776
26718W        W99143  16.362  28.419   0.300
26719W        W99144  34.076   0.569   0.349
26720W        W99145  44.324  39.989  11.895
26721W        W99146   7.872  35.093   4.529
26722W        W99147   4.181  19.058  11.991
26723W        W99148   8.226   1.833   4.077
26724W        W99149  31.745  36.478   3.636
26725W        W99150  23.956   1.433  12.940
26726W        W99151   4.235  41.594  14.230
26727W        W99152  31.627  44.042   0.849
26728W        W99153  13.339  26.126   3.433
26729W        W99154  20.747   2.682  10.589
26730W        W99155  33.960  17.600  12.652
26731W        W99156  16.619   5.389   0.856
26732W        W99157  44.976  33.626  12.027
26733W        W99158   8.902  33.444   9.978
26734W        W99159  40.494   2.937   3.902
26735W        W99160  39.587  39.152   2.739
26736W        W99161   6.027  34.434  13.825
26737W        W99162  23.034  30.016   2.719
26738W        W99163   0.797  42.363  12.563
26739W        W99164  42.869   9.653  12.508
26740W        W99165  17.733  38.395   0.281
26741W        W99166   4.494  37.969  11.179
26742W        W99167  44.261  41.871  14.474
26743W        W99168   2.988   7.126  11.539
26744W        W99169  17.095  32.555   4.271
26745W        W99170  33.502  28.857  14.929
26746W        W99171  23.593  17.926   0.092
26747W        W99172  22.302  38.426   2.900
26748W        W99173  41.295  14.317  13.246
26749W        W99174  38.207  32.748  14.989
26750W        W99175  32.217  16.598  14.797
26751W        W99176  29.598  13.846   0.876
26752W        W99177   4.953  17.936  11.053
26753W        W99178   1.763   7.796   4.308
26754W        W99179  22.227  10.147   0.289
26755W        W99180  38.878  42.912  12.112
26756W        W99181   6.682  43.472   3.693
26757W        W99182  21.103  24.745  11.457
26758W        W99183  35.347  23.025   3.926
26759W        W99184  38.995  30.219   3.789
26760W        W99185  33.964   6.958   3.079
26761W        W99186   1.793  27.301  13.362
26762W        W99187   4.794  34.033  11.901
26763W        W99188  27.950   6.367   2.373
26764W        W99189  22.596  42.150  12.293
26765W        W99190   3.733  21.482  12.862
26766W        W99191   0.954   6.316  14.804
26767W        W99192  20.983  16.975   1.522
26768W        W99193  10.364   2.412   3.856
26769W        W99194  11.186  36.396  12.175
26770W        W99195  10.325  43.852  11.062
26771W        W99196  10.609  33.852  10.675
26772W        W99197   6.222  21.961   1.321
26773W        W99198   5.825  18.068   1.953
26774W        W99199  42.531  36.593   3.686
26775W        W99200  15.746  23.131   0.147
26776W        W99201  25.774  12.117  10.747
26777W        W99202  13.816   6.481   2.649
26778W        W99203  32.150  34.345   1.708
26779W        W99204  43.984  23.924   4.589
26780W        W99205  33.129  12.552  13.964
26781W        W99206   9.812  34.624  13.594
26782W        W99207  12.202  43.388  14.105
26783W        W99208  14.401  26.673  13.546
26784W        W99209  15.913  38.153   3.156
26785W        W99210  39.263  17.523   3.213
26786W        W99211  22.199  19.227  14.811
26787W        W99212  13.030  22.444   4.034
26788W        W99213  10.119  34.073  14.715
26789W        W99214  11.424  33.908  12.370
26790W        W99215   6.786   4.514   4.872
26791W        W99216  10.383   5.649   4.616
26792W        W99217  12.172  44.012   1.771
26793W        W99218   0.652  13.124  12.528
26794W        W99219  41.249  32.195  11.999
26795W        W99220  20.275  27.863  13.812
26796W        W99221  41.311   1.509   3.804
26797W        W99222  40.978  25.663  12.453
26798W        W99223  31.088   5.661   3.589
26799W        W99224  29.434  36.011   0.388
26800W        W99225  15.606   0.579   9.851
26801W        W99226  43.571  32.137   2.403
26802W        W99227   4.124  20.215   1.307
26803W        W99228  25.960  16.189   1.216
26804W        W99229  28.126  44.301  12.250
26805W        W99230  18.531  30.904  10.086
26806W        W99231   2.311  25.094  10.662
26807W        W99232   2.031  30.676   0.833
26808W        W99233  15.013  44.064  11.665
26809W        W99234  29.594  39.344  11.673
26810W        W99235  27.797   5.525   3.843
26811W        W99236  35.663  12.082  11.494
26812W        W99237   3.902  15.719  12.102
26813W        W99238  44.708  34.081   0.498
26814W        W99239   8.931  19.089   4.014
26815W        W99240  17.271   4.127   2.898
26816W        W99241  33.319  41.870   1.953
26817W        W99242  15.881  23.243  12.025
26818W        W99243  38.899  44.434  12.761
26819W        W99244  40.384  40.423   3.724
26820W        W99245  12.780  20.112  13.097
26821W        W99246   7.684  30.571  11.174
26822W        W99247  10.172  17.438  11.575
26823W        W99248  30.353   2.234   2.854
26824W        W99249  14.233  19.040   3.659
26825W        W99250  27.929  29.742   5.131
26826W        W99251   1.270  26.200  14.862
26827W        W99252  27.917  44.694   0.898
26828W        W99253  10.397   7.312   1.284
26829W        W99254   5.253  40.462   1.868
26830W        W99255  11.883  29.211  13.182
26831W        W99256  11.330  11.714  11.649
26832W        W99257  36.325  29.480  11.100
26833W        W99258   2.973   6.331  11.938
26834W        W99259  42.672  44.858   4.069
26835W        W99260   7.748   3.516   4.620
26836W        W99261  37.436   9.934  12.638
26837W        W99262  14.107  26.395   3.769
26838W        W99263  32.635   2.276  10.575
26839W        W99264  13.443   3.892   3.504
26840W        W99265  25.119  37.827   3.251
26841W        W99266  22.670  27.577  14.037
26842W        W99267  19.572  27.475  12.763
26843W        W99268  39.300  15.767   3.748
26844W        W99269  42.530  12.837   0.323
26845W        W99270   8.860  13.132   0.887
26846W        W99271  28.985   2.718   4.094
26847W        W99272  38.869   8.629  12.180
26848W        W99273   0.545   1.736  12.822
26849W        W99274  43.338  24.398   2.924
26850W        W99275  28.864  16.087   2.700
26851W        W99276  32.107  19.265  10.278
26852W        W99277  42.593  14.277   0.364
26853W        W99278  28.964  24.171   1.287
26854W        W99279  18.571  30.466   4.209
26855W        W99280  44.540  12.229   4.101
26856W        W99281  14.602  14.117  11.140
26857W        W99282  40.449  33.062  10.938
26858W        W99283   9.081  19.208  11.891
26859W        W99284   6.579  33.840   0.789
26860W        W99285   4.141   0.436  11.058
26861W        W99286  41.016   4.937  10.617
26862W        W99287  35.797  44.403   0.068
26863W        W99288  18.072  29.805  13.819
26864W        W99289  35.538   1.547  10.527
26865W        W99290  13.876   1.328   1.369
26866W        W99291  37.881  28.948  12.410
26867W        W99292  41.844  40.590   2.835
26868W        W99293  20.167  22.452  12.857
26869W        W99294   5.291  32.875  11.683
26870W        W99295  39.012  24.652   4.079
26871W        W99296   9.735  23.752   1.723
26872W        W99297   8.792  10.728   3.388
26873W        W99298  12.311   5.157  13.397
26874W        W99299   3.820  13.047   3.338
26875W        W99300  42.338  18.560   0.846
26876W        W99301   7.613  35.311   0.365
26877W        W99302  25.225  15.986   4.807
26878W        W99303   6.021  40.494   2.277
26879W        W99304   4.791  34.910  10.336
26880W        W99305   5.848  23.694  13.493
26881W        W99306  18.117  16.047  12.195
26882W        W99307   0.297   2.863  13.557
26883W        W99308  11.312  29.605   2.340
26884W        W99309  38.561  26.237   1.885
26885W        W99310   1.178   8.235  14.989
26886W        W99311  14.610  20.538   2.120
26887W        W99312  30.661   7.347   4.589
26888W        W99313  10.457  27.132  14.567
26889W        W99314  39.624  10.220   4.400
26890W        W99315  11.140  29.986   1.719
26891W        W99316  42.086  33.063   2.527
26892W        W99317  28.585  18.621   4.608
26893W        W99318  10.313   4.339   1.418
26894W        W99319  11.053  17.472   0.505
26895W        W99320  22.970   1.271  14.234
26896W        W99321   7.810   8.864  13.953
26897W        W99322  38.381  16.325   1.325
26898W        W99323  37.761   8.792  13.179
26899W        W99324   4.022  17.675   4.369
26900W        W99325  21.864  16.263  13.011
26901W        W99326  40.829   1.743   3.148
26902W        W99327  41.536   7.343   0.353
26903W        W99328  32.203  32.103   1.789
26904W        W99329  42.950  20.237  14.443
26905W        W99330   7.232  40.832  14.843
26906W        W99331  34.509   9.661  13.932
26907W        W99332  28.001   9.313  14.023
26908W        W99333  24.142  37.902   4.598
26909W        W99334  29.104  36.537   3.598
26910W        W99335   5.939  39.272   2.892
26911W        W99336  18.163  37.900  12.840
26912W        W99337  10.313  26.932   2.727
26913W        W99338  23.538  44.246   3.155
26914W        W99339  41.697   2.425   0.816
26915W        W99340  17.259  17.570  10.718
26916W        W99341  23.732  11.821  13.476
26917W        W99342  15.540  11.682  13.490
26918W        W99343  38.009  34.898   1.678
26919W        W99344  20.590   5.218  11.502
26920W        W99345  13.594  16.148  10.697
26921W        W99346  40.422  15.089  10.714
26922W        W99347  40.760  26.949   2.874
26923W        W99348  16.827  10.146  14.361
26924W        W99349  29.201  35.106  11.228
26925W        W99350  32.482  44.504   0.549
26926W        W99351  14.895  29.525  12.906
26927W        W99352  32.870  34.067  11.549
26928W        W99353   4.899  20.113   0.892
26929W        W99354  17.225  25.461   1.348
26930W        W99355  25.624  14.145  13.084
26931W        W99356  27.070  30.595  10.276
26932W        W99357   5.392  42.080   1.291
26933W        W99358  24.261   1.163   0.709
26934W        W99359  27.136   4.947   3.760
26935W        W99360  36.549  22.546  11.438
26936W        W99361  43.972  24.242  13.772
26937W        W99362   5.910  23.193   1.767
26938W        W99363  31.279  13.619   2.379
26939W        W99364  18.649  12.894  14.318
26940W        W99365  20.687   0.990   0.276
26941W        W99366  12.041   3.317   0.156
26942W        W99367  41.773  26.476  13.146
26943W        W99368  41.033  25.480  11.532
26944W        W99369   0.460   6.131   3.219
26945W        W99370   4.830  17.220   4.551
26946W        W99371  41.933  19.081   1.769
26947W        W99372  36.314  42.337  12.027
26948W        W99373  11.080  43.166  10.108
26949W        W99374  11.718  29.155  12.158
26950W        W99375  26.230  44.661  11.135
26951W        W99376  35.919  28.187   0.311
26952W        W99377   3.690  32.194  12.871
26953W        W99378   7.305  39.555   1.813
26954W        W99379  40.076  21.224   4.121
26955W        W99380  28.824  19.024   4.361
26956W        W99381  29.550   9.873   3.398
26957W        W99382  27.421   9.044  14.828
26958W        W99383  13.129  40.627  10.761
26959W        W99384  33.989  37.963  11.535
26960W        W99385  40.418   7.710  12.198
26961W        W99386   9.202  15.325  10.704
26962W        W99387  21.216  18.153  11.558
26963W        W99388  10.725  34.583  13.516
26964W        W99389  36.582  12.731   2.341
26965W        W99390  31.960  14.250  14.359
26966W        W99391  36.585   8.403   2.828
26967W        W99392  26.967  13.519  13.393
26968W        W99393  41.888  18.350   0.992
26969W        W99394  15.374  20.921  12.138
26970W        W99395  14.726   4.746  11.984
26971W        W99396   8.690   8.655   3.643
26972W        W99397  34.116  14.084   3.339
26973W        W99398  12.204  30.655   2.079
26974W        W99399  13.298  18.561  14.375
26975W        W99400  29.980  10.188   5.070
26976W        W99401  26.188  29.467   1.357
26977W        W99402  36.634  37.468  10.690
26978W        W99403  24.945  19.094   1.409
26979W        W99404  11.139  35.347  14.295
26980W        W99405  13.306  22.643  12.339
26981W        W99406  37.469   8.750  14.119
26982W        W99407  23.728  34.136  13.466
26983W        W99408  39.832   8.222  10.697
26984W        W99409  37.586   1.579  11.633
26985W        W99410  35.860  40.078   4.411
26986W        W99411  25.267  34.913  12.445
26987W        W99412  22.524  41.933  13.780
26988W        W99413  41.914  11.909   1.284
26989W        W99414  27.488   1.680  13.328
26990W        W99415  44.521  20.102  14.316
26991W        W99416  16.221  17.580   4.547
26992W        W99417   8.110   5.200   2.279
26993W        W99418   4.275   7.197   2.479
26994W        W99419  31.048  41.548   0.852
26995W        W99420   7.901   0.293   0.320
26996W        W99421  36.483  34.169   0.584
26997W        W99422  22.700  36.851  14.359
26998W        W99423  30.205  40.036   1.277
26999W        W99424  39.234   4.391   3.090
27000W        W99425   6.732  33.626   2.404
27001W        W99426  40.806   5.498   2.943
27002W        W99427  27.535  42.302   1.496
27003W        W99428  34.514  19.303   2.192
27004W        W99429  28.591  44.599   4.587
27005W        W99430  27.700  15.845   1.893
27006W        W99431  33.232  15.952  14.875
27007W        W99432  32.130  42.843  14.653
27008W        W99433  31.074  22.750  12.527
27009W        W99434  14.664   8.998   4.632
27010W        W99435  18.982  33.328  14.772
27011W        W99436  33.375  26.357   4.063
27012W        W99437  16.617  20.492   1.360
27013W        W99438  29.466  39.681  11.304
27014W        W99439  35.767  31.457   4.138
27015W        W99440   0.521  29.131   2.817
27016W        W99441  15.600  22.656   1.742
27017W        W99442  25.710  22.189   2.762
27018W        W99443  30.046  44.053   1.689
27019W        W99444  11.346  33.626  12.792
27020W        W99445  14.702  21.737  12.907
27021W        W99446  25.100  20.002  11.513
27022W        W99447   9.261  35.009   3.822
27023W        W99448  16.701  22.947  10.591
27024W        W99449   4.859  14.884  11.584
27025W        W99450  19.091  38.962  12.816
27026W        W99451  33.197   5.733  14.344
27027W        W99452   9.079  16.051  12.320
27028W        W99453  30.107  28.674  12.584
27029W        W99454  21.653  31.695   2.003
27030W        W99455  16.699  25.748  11.645
27031W        W99456  26.182  12.620  13.993
27032W        W99457  40.401  31.431  10.679
27033W        W99458  16.431   5.796   3.968
27034W        W99459  21.721  44.290  11.124
27035W        W99460  18.211  36.120   2.328
27036W        W99461  17.030  30.046   2.112
27037W        W99462  18.456  37.261  12.402
27038W        W99463  33.980  43.732   1.226
27039W        W99464  32.345  37.104   1.976
27040W        W99465   4.374  13.150   2.093
27041W        W99466  35.489  36.373  14.322
27042W        W99467  28.424  31.122   2.791
27043W        W99468  28.652  44.536   1.633
27044W        W99469  29.155  40.073  11.155
27045W        W99470   8.270  37.977   2.393
27046W        W99471   6.257  40.951   1.784
27047W        W99472  40.919  27.456  13.839
27048W        W99473   4.112  25.095   3.693
27049W        W99474   5.635  35.961  12.801
27050W        W99475   1.359  22.482  14.946
27051W        W99476  16.678  37.988   1.055
27052W        W99477   4.629  15.902  11.535
27053W        W99478  41.825  40.826  11.107
27054W        W99479  43.768  30.734  12.494
27055W        W99480  43.818  40.979  11.581
27056W        W99481  41.776  29.789  12.941
27057W        W99482  31.751  29.053  10.707
27058W        W99483  22.029  36.106  13.048
27059W        W99484  43.526  39.812   0.678
27060W        W99485  30.142  37.345   3.686
27061W        W99486  39.966   7.227  12.980
27062W        W99487   3.205  27.440  10.459
27063W        W99488  11.525  22.159   4.194
27064W        W99489   1.661  30.293  11.807
27065W        W99490  38.011  20.758   2.809
27066W        W99491  44.876  29.530   2.159
27067W        W99492  35.578  11.826  10.624
27068W        W99493   5.424  25.675  12.363
27069W        W99494   0.470   5.410  10.687
27070W        W99495  29.518  40.992  14.968
27071W        W99496  34.011  35.894  13.098
27072W        W99497  10.518  28.477   2.872
27073W        W99498   7.770  30.578   0.322
27074W        W99499  23.270   5.846  14.956
27075W        W99500  13.236  39.811  12.177
27076W        W99501  37.039  36.141   3.731
27077W        W99502  12.696  24.625   1.170
27078W        W99503  18.993  39.101   3.284
27079W        W99504  15.671   7.845  14.901
27080W        W99505  34.378   3.350   4.870
27081W        W99506  34.326  36.008  11.931
27082W        W99507   7.284  20.593   2.899
27083W        W99508  14.775  29.930   0.059
27084W        W99509  14.005   0.783  14.812
27085W        W99510  40.452  17.787   4.534
27086W        W99511  34.337  41.009   2.260
27087W        W99512  39.759  22.236  13.010
27088W        W99513   8.275   0.193   4.116
27089W        W99514   4.674  29.167  14.828
27090W        W99515  36.255  42.517  13.882
27091W        W99516  18.019  18.235  10.689
27092W        W99517  12.618  32.824  12.093
27093W        W99518  30.109  34.902   3.292
27094W        W99519  18.117  14.073   3.063
27095W        W99520  39.967   3.989  12.695
27096W        W99521  39.624  12.250   1.925
27097W        W99522  43.905  35.998  10.615
27098W        W99523  41.393  37.904   0.893
27099W        W99524  31.528  13.986   4.252
27100W        W99525  39.305  40.601  11.802
27101W        W99526  22.282   3.939  14.573
27102W        W99527   8.180  11.674   4.327
27103W        W99528  21.131  38.806   5.080
27104W        W99529  42.972   4.816   0.993
27105W        W99530   5.793  42.510  10.730
27106W        W99531  28.405   0.930  13.421
27107W        W99532  16.723   7.773  14.555
27108W        W99533  32.818   0.702   4.021
27109W        W99534   6.825  39.002   0.294
27110W        W99535  36.011  11.176  11.188
27111W        W99536  30.966  25.194  13.583
27112W        W99537  15.149   9.378   3.628
27113W        W99538  21.445  24.000   4.551
27114W        W99539   3.318  17.769   0.389
27115W        W99540   4.368  29.728   1.336
27116W        W99541  31.182   0.031   3.720
27117W        W99542  23.130  22.229  12.052
27118W        W99543  14.133  17.714   3.181
27119W        W99544  24.081  42.388  11.126
27120W        W99545   3.665  25.995   3.830
27121W        W99546  43.205   2.524  13.127
27122W        W99547  44.445  39.387  12.871
27123W        W99548   5.371  16.306   3.832
27124W        W99549   6.184  14.002  12.085
27125W        W99550  26.496  29.729   1.968
27126W        W99551  29.386  33.670   0.661
27127W        W99552  31.234   8.271  14.285
27128W        W99553  28.880   5.171  14.849
27129W        W99554  39.467  39.578   1.249
27130W        W99555   4.969   0.765  14.977
27131W        W99556  22.686  43.671   2.797
27132W        W99557  34.338  30.669  10.341
27133W        W99558  10.357  18.370   3.215
27134W        W99559  38.989  33.846   0.809
27135W        W99560   1.593  39.086  13.405
27136W        W99561  29.527   0.483  13.257
27137W        W99562  39.816  30.498  11.088
27138W        W99563  18.210  17.082  11.470
27139W        W99564  28.906  24.047  11.822
27140W        W99565  40.547   2.489  12.066
27141W        W99566  33.574   3.355  12.969
27142W        W99567  12.103   7.658  12.473
27143W        W99568  38.051  40.296   3.370
27144W        W99569  24.213   0.824   5.023
27145W        W99570  37.222  14.431  10.181
27146W        W99571   1.861  30.159   2.193
27147W        W99572  18.672  15.989   4.837
27148W        W99573   5.889   5.141  12.384
27149W        W99574  36.344  23.099  14.571
27150W        W99575  24.894  26.746   2.518
27151W        W99576   9.624   9.841   1.287
27152W        W99577   6.985  43.748  11.954
27153W        W99578  38.058   5.678  14.381
27154W        W99579  12.753  30.907  14.738
27155W        W99580   7.863  35.243   5.039
27156W        W99581  34.578  16.824   3.201
27157W        W99582   6.357   6.229  13.056
27158W        W99583   1.099  41.247  13.053
27159W        W99584  40.400  29.556  12.076
27160W        W99585  28.381   0.810  14.242
27161W        W99586  26.540   1.018  13.033
27162W        W99587  29.547  30.172   3.950
27163W        W99588   2.185  28.098   0.312
27164W        W99589  41.791  16.734   0.236
27165W        W99590  21.247  38.447   0.791
27166W        W99591  18.295  43.420   2.394
27167W        W99592  10.131  19.171   4.885
27168W        W99593  33.394   1.574  12.838
27169W        W99594  16.067  33.611   4.424
27170W        W99595  17.795  24.799   0.123
27171W        W99596   4.259  34.994  12.095
27172W        W99597  24.788  11.626  11.645
27173W        W99598  13.287  27.960  10.109
27174W        W99599  22.919   7.295   5.079
27175W        W99600   8.771  28.903   2.425
27176W        W99601   3.212  23.572  12.579
27177W        W99602  14.309   1.824  14.030
27178W        W99603  33.612  38.563   3.651
27179W        W99604  26.421  24.512  13.516
27180W        W99605   6.250   8.723  14.718
27181W        W99606   5.992  31.050   1.608
27182W        W99607  20.605  40.929  14.339
27183W        W99608  10.455  17.633   1.837
27184W        W99609  22.469   8.352   0.210
27185W        W99610  21.794  25.636   2.857
27186W        W99611  29.602  40.945  11.373
27187W        W99612   9.295  23.595  11.154
27188W        W99613   2.347  40.360   1.222
27189W        W99614   4.998  42.719  11.969
27190W        W99615  17.128  13.160  10.761
27191W        W99616  31.568  28.573   0.804
27192W        W99617  16.773  26.576  13.340
27193W        W99618   9.765  20.610   0.897
27194W        W99619  20.222  44.417   0.962
27195W        W99620  13.809  29.905  11.552
27196W        W99621  34.534  26.636  14.288
27197W        W99622   4.620  16.779  12.660
27198W        W99623  40.848  14.080  12.530
27199W        W99624   7.985  32.496   4.699
27200W        W99625  17.672  10.318  13.258
27201W        W99626  23.702   1.058   4.145
27202W        W99627   9.357   0.468   2.783
27203W        W99628  29.212  24.682   0.428
27204W        W99629  26.017  44.500   5.004
27205W        W99630  21.613  15.070  13.526
27206W        W99631  32.668   7.317  12.272
27207W        W99632   3.350  17.067  12.309
27208W        W99633  16.697  28.398  14.275
27209W        W99634  14.780  26.918   2.709
27210W        W99635  32.915   4.275  12.776
27211W        W99636  39.369   1.543  14.337
27212W        W99637  13.765   1.299  11.177
27213W        W99638   9.337   9.571  10.525
27214W        W99639   5.954   0.001   0.861
27215W        W99640  25.162  26.261  14.166
27216W        W99641   9.721  32.566  11.599
27217W        W99642  11.664  16.625  13.846
27218W        W99643   8.869  12.639   4.640
27219W        W99644   7.706  15.775  13.830
27220W        W99645  37.492  10.175   0.343
27221W        W99646  32.716   2.796  12.184
27222W        W99647  29.384  22.993   0.893
27223W        W99648   7.526  10.057  13.486
27224W        W99649  28.329  21.314  10.661
27225W        W99650  32.548  32.907  10.750
27226W        W99651  19.722  12.666  12.344
27227W        W99652  17.158  22.736   1.733
27228W        W99653   4.333   4.892  13.549
27229W        W99654  21.136   8.711   2.714
27230W        W99655  26.545   9.640  11.619
27231W        W99656  38.797  41.765   1.506
27232W        W99657   1.268  28.900   2.313
27233W        W99658  39.531  35.577   0.264
27234W        W99659  20.045  10.380   1.567
27235W        W99660   9.633  25.581  14.833
27236W        W99661  11.475  18.042   0.374
27237W        W99662  14.969  29.906   4.370
27238W        W99663  16.796  41.014   0.810
27239W        W99664  23.783   5.095  11.476
27240W        W99665  24.124  28.391  14.208
27241W        W99666  32.698  33.610   0.693
27242W        W99667  28.096  44.000   4.095
27243W        W99668  26.338  17.988   3.687
27244W        W99669   7.779  29.223   1.310
27245W        W99670  25.248   1.961  14.767
27246W        W99671  21.576  29.513  14.372
27247W        W99672  10.293  14.371   1.945
27248W        W99673   5.357  29.896  14.361
27249W        W99674  44.222  38.747   4.131
27250W        W99675  34.837   5.429   1.747
27251W        W99676  18.333  10.818  11.086
27252W        W99677  24.128  25.620   1.920
27253W        W99678  40.470  10.718   1.197
27254W        W99679   9.397  42.881  13.771
27255W        W99680  12.127   4.234   1.208
27256W        W99681  41.657   2.989   1.473
27257W        W99682  34.434  12.149  12.698
27258W        W99683   5.803  38.514  12.072
27259W        W99684  28.425  31.571  14.295
27260W        W99685  37.822   0.915  14.262
27261W        W99686  24.706  28.025   0.357
27262W        W99687  43.979  12.892  14.492
27263W        W99688  14.083   6.515  14.817
27264W        W99689  43.761  40.071   2.835
27265W        W99690   4.802  15.175   3.749
27266W        W99691  10.338  42.060   2.673
27267W        W99692  17.691  41.673  13.967
27268W        W99693  34.779  33.159   2.345
27269W        W99694  25.726   8.263  14.381
27270W        W99695  22.304  16.259   0.928
27271W        W99696  23.868   0.274   2.812
27272W        W99697  29.994   0.173  14.511
27273W        W99698  20.595  21.928  12.522
27274W        W99699  40.333  42.052   3.152
27275W        W99700  42.638  27.953   2.381
27276W        W99701   7.204  32.867   1.842
27277W        W99702  22.495  17.376  14.007
27278W        W99703  12.079  17.824   4.690
27279W        W99704  10.530  22.746  13.712
27280W        W99705  21.650  29.381  11.576
27281W        W99706  29.956  23.824   3.200
27282W        W99707  37.151   1.339   0.812
27283W        W99708  16.040  15.285   4.295
27284W        W99709  29.308  34.075   0.348
27285W        W99710   6.442   9.375  13.572
27286W        W99711  12.782   1.414  12.256
27287W        W99712  39.109  21.627  11.609
27288W        W99713  22.020  25.438  10.731
27289W        W99714  24.513  30.371   0.101
27290W        W99715   6.732  36.826   3.345
27291W        W99716  30.450  15.576   3.236
27292W        W99717  12.224  43.176   1.560
27293W        W99718  38.224  28.168  10.309
27294W        W99719  35.337   2.179  13.931
27295W        W99720  40.226  34.535  12.145
27296W        W99721   1.276  10.998  13.640
27297W        W99722  41.009  30.126   2.837
27298W        W99723  33.674  41.328  13.431
27299W        W99724   8.968  14.803   4.155
27300W        W99725  15.236  10.238  12.324
27301W        W99726  39.576  25.125   4.538
27302W        W99727  20.794  24.733  14.852
27303W        W99728  11.577   3.207   0.359
27304W        W99729  33.823  23.632   4.568
27305W        W99730  40.575  10.231   2.113
27306W        W99731  31.047  19.308  14.418
27307W        W99732  39.337  20.119  12.344
27308W        W99733  18.432  27.585   1.415
27309W        W99734  22.015   6.771  13.930
27310W        W99735  34.907  16.762   1.216
27311W        W99736  36.730  16.065  14.698
27312W        W99737  20.950  18.160   1.632
27313W        W99738   2.390   8.946  12.421
27314W        W99739  19.749  27.596   0.481
27315W        W99740   7.482  12.062   0.212
27316W        W99741  37.381  24.294  13.609
27317W        W99742  15.884  26.857   1.806
27318W        W99743  26.977  27.057  14.280
27319W        W99744   3.534  12.344  12.908
27320W        W99745  27.686   5.589  13.010
27321W        W99746  32.438  28.639   3.385
27322W        W99747  24.630  41.237   0.356
27323W        W99748  13.432  30.946   1.449
27324W        W99749  32.394  24.458   1.870
27325W        W99750   9.896  23.785  10.479
27326W        W99751  35.630  38.960  14.911
27327W        W99752  14.849  12.703  11.379
27328W        W99753  24.485  33.844   4.123
27329W        W99754  21.668  39.616   1.790
27330W        W99755  18.088  34.841   2.733
27331W        W99756  39.770  30.167   2.208
27332W        W99757   1.284  40.965   2.190
27333W        W99758  29.962  38.062  10.672
27334W        W99759  30.593   2.915   4.434
27335W        W99760  30.193  17.288   4.967
27336W        W99761   6.801  11.317   0.340
27337W        W99762  36.480  15.565   2.820
27338W        W99763  16.050   4.170  11.490
27339W        W99764  23.235   2.123   2.382
27340W        W99765  22.973  24.193  13.548
27341W        W99766  16.882  44.298  13.569
27342W        W99767  37.900  19.616  11.633
27343W        W99768  41.211  32.547  14.294
27344W        W99769  24.042  27.426   3.140
27345W        W99770  14.606  29.678  14.346
27346W        W99771  20.092   4.905  10.768
27347W        W99772  36.144  44.261   3.231
27348W        W99773   1.876  23.453   3.845
27349W        W99774  44.819   1.876  10.695
27350W        W99775  24.553  12.498  13.329
27351W        W99776  19.193  33.682   0.972
27352W        W99777  32.005  21.618  11.411
27353W        W99778  44.896   0.243  13.996
27354W        W99779  41.112  20.448  13.369
27355W        W99780  21.568  44.020  10.734
27356W        W99781  31.372  42.679  12.844
27357W        W99782  43.152  27.962   2.771
27358W        W99783   3.648   6.960   0.057
27359W        W99784  27.241  43.533   3.235
27360W        W99785  37.632  16.613  10.739
27361W        W99786  11.919  42.360  12.937
27362W        W99787  25.073  30.169  13.500
27363W        W99788  21.184  33.365  10.399
27364W        W99789   1.428  39.321  12.884
27365W        W99790  32.194  11.711   0.081
27366W        W99791  43.235   4.853   1.942
27367W        W99792  18.095  33.992   1.896
27368W        W99793  17.261  43.395  14.720
27369W        W99794   6.632   0.654  13.763
27370W        W99795  23.908   6.750   1.783
27371W        W99796  13.837  20.685  14.419
27372W        W99797  27.264  44.085   4.716
27373W        W99798  25.893   0.574   1.222
27374W        W99799  11.704   0.452   1.838
27375W        W99800  24.466  20.910  11.433
27376W        W99801  34.574   7.306   0.335
27377W        W99802   0.875  36.522  13.399
27378W        W99803   7.179  31.375  14.517
27379W        W99804  36.238  33.855   1.417
27380W        W99805   2.500   7.130   0.676
27381W        W99806  32.726  37.861  13.137
27382W        W99807  34.465  34.345  14.193
27383W        W99808  18.617  17.570  11.707
27384W        W99809  36.037  42.036  13.956
27385W        W99810  28.879  30.419   0.884
27386W        W99811  20.032  15.303   3.580
27387W        W99812  34.130  40.797  13.126
27388W        W99813  38.564  39.568  11.033
27389W        W99814   6.542  25.559   3.644
27390W        W99815  37.363  44.894   0.251
27391W        W99816  10.082  11.905  11.493
27392W        W99817  14.720   6.307  12.335
27393W        W99818   2.204  10.636  13.509
27394W        W99819   9.034  10.386  12.440
27395W        W99820  15.716  27.947  13.567
27396W        W99821  38.332  39.749   4.291
27397W        W99822  37.760  21.497   0.295
27398W        W99823  18.713  29.876   4.959
27399W        W99824  20.659  13.290  14.365
27400W        W99825  22.268  42.382  10.673
27401W        W99826  28.453  44.376   2.704
27402W        W99827  43.444   4.978   0.767
27403W        W99828  12.276  40.998   3.156
27404W        W99829  30.487  25.483   1.805
27405W        W99830   7.458  18.856  14.315
27406W        W99831  11.786   0.033  11.323
27407W        W99832   8.067  32.874   3.781
27408W        W99833   4.256  28.223   4.213
27409W        W99834  43.830  24.955  12.358
27410W        W99835   8.243  10.292   0.908
27411W        W99836  10.699  23.595   4.788
27412W        W99837  34.358   3.082   0.312
27413W        W99838  19.968  13.333  14.354
27414W        W99839  13.869  30.458   3.385
27415W        W99840  38.218   3.622   4.959
27416W        W99841   9.704  17.817  12.505
27417W        W99842  28.071  17.330   0.864
27418W        W99843   0.862  14.302  10.755
27419W        W99844  24.498  17.540  13.062
27420W        W99845  21.731  39.896   3.461
27421W        W99846   3.474  18.317   1.723
27422W        W99847   0.809  12.797   0.847
27423W        W99848  43.547  14.834  11.845
27424W        W99849  24.944  18.181   2.316
27425W        W99850  21.162  12.557  11.051
27426W        W99851  31.940  42.064   2.868
27427W        W99852  31.097  25.090   4.700
27428W        W99853  11.809  41.326  10.686
27429W        W99854   4.639  25.964  12.370
27430W        W99855  27.524  18.026  11.269
27431W        W99856   4.439  22.609   1.178
27432W        W99857  42.628   5.204   1.079
27433W        W99858  32.792  37.011  13.944
27434W        W99859  36.953  24.140  10.822
27435W        W99860   7.473  26.140   0.279
27436W        W99861  22.582   5.475  12.566
27437W        W99862  40.940  36.937  13.717
27438W        W99863  38.015  27.162   4.346
27439W        W99864  33.417  12.663  11.140
27440W        W99865  24.843  30.651   0.445
27441W        W99866  36.941  33.833  12.609
27442W        W99867  19.074  31.502   4.738
27443W        W99868  26.362  39.757   3.403
27444W        W99869  29.070  44.011  14.355
27445W        W99870  44.012   7.295   2.276
27446W        W99871   5.200  24.301  12.268
27447W        W99872  26.772  24.466   4.202
27448W        W99873   9.833  14.724   0.357
27449W        W99874   6.802  37.475  13.421
27450W        W99875  13.322  24.772   2.288
27451W        W99876  16.216   9.046  12.158
27452W        W99877  11.873  34.586   1.827
27453W        W99878  41.612  23.049   4.579
27454W        W99879  34.812  26.030  14.015
27455W        W99880  43.062  29.722   1.220
27456W        W99881  36.547  37.381   1.247
27457W        W99882  41.804  27.201   2.239
27458W        W99883  37.291  12.699  12.108
27459W        W99884  18.109  15.129  12.570
27460W        W99885  18.456   3.822  10.724
27461W        W99886  10.084  13.089   1.758
27462W        W99887  42.915  10.113   3.721
27463W        W99888  22.218  32.186   3.561
27464W        W99889  37.021  28.214  12.047
27465W        W99890  10.830  33.739   2.767
27466W        W99891   0.476  31.972   0.284
27467W        W99892   8.439  31.832   1.824
27468W        W99893  31.613  15.113   2.726
27469W        W99894  28.615  27.143   0.412
27470W        W99895  27.127   2.882   2.865
27471W        W99896  16.962  44.165   3.252
27472W        W99897  19.424  25.607  11.286
27473W        W99898  35.112  14.549  14.948
27474W        W99899  17.300  36.473  12.783
27475W        W99900  42.428  44.676   3.203
27476W        W99901  31.025  28.778  10.208
27477W        W99902  44.708  15.690   4.565
27478W        W99903  30.408   0.431   1.384
27479W        W99904   7.794  10.543  14.355
27480W        W99905  44.014   5.736  13.507
27481W        W99906  31.334  24.635   2.749
27482W        W99907   5.242   7.674   1.852
27483W        W99908  19.298  34.300  12.371
27484W        W99909  22.846  18.482  14.827
27485W        W99910  32.307  36.435  10.622
27486W        W99911  10.518  13.120   3.802
27487W        W99912   6.967  12.205   0.280
27488W        W99913  39.852  30.049   1.498
27489W        W99914  16.494  30.525  11.401
27490W        W99915  32.282  35.729  13.793
27491W        W99916  22.309  12.285  12.416
27492W        W99917   2.328  37.117   0.206
27493W        W99918  44.143  10.288   4.559
27494W        W99919  11.901  23.164   4.919
27495W        W99920  44.855  43.170  14.389
27496W        W99921   9.439  20.985   0.764
27497W        W99922  24.979  41.865  12.608
27498W        W99923   3.537   1.893  10.710
27499W        W99924   1.798  17.198  14.019
27500W        W99925  10.581  22.305   4.989
27501W        W99926  30.574  32.175  11.091
27502W        W99927   2.277  33.660   4.073
27503W        W99928  26.673  11.261   4.898
27504W        W99929   8.330  20.586  11.084
27505W        W99930  11.149  35.939  12.460
27506W        W99931  10.934  35.008  13.824
27507W        W99932   5.292  43.152   1.429
27508W        W99933  35.831  15.077  14.871
27509W        W99934  25.467  27.642   0.695
27510W        W99935  28.017  14.055  12.538
27511W        W99936  13.060  39.925   3.342
27512W        W99937  14.342  33.056  10.848
27513W        W99938   0.844  29.168  14.869
27514W        W99939   0.667   3.737  11.550
27515W        W99940   2.532   9.589  13.934
27516W        W99941  24.328  10.980   5.090
27517W        W99942  28.995  29.397   2.825
27518W        W99943  27.402   2.445   4.787
27519W        W99944  35.757  31.075  14.231
27520W        W99945  19.648   1.699  12.991
27521W        W99946  11.866  36.808   0.196
27522W        W99947  27.015  26.448   3.636
27523W        W99948  27.802   8.271  12.950
27524W        W99949  15.026  35.715   1.860
27525W        W99950  19.605  42.360   3.909
27526W        W99951  36.286  28.595   0.767
27527W        W99952  37.051  43.384  12.028
27528W        W99953  26.270  21.154   0.477
27529W        W99954  27.620  30.947  14.059
27530W        W99955  21.473  34.620   3.258
27531W        W99956  17.635  22.963   0.357
27532W        W99957   9.952   4.405  14.802
27533W        W99958   0.500  34.158  13.411
27534W        W99959  29.847  12.404  13.478
27535W        W99960  42.818  24.893  11.575
27536W        W99961  30.027  30.623   4.692
27537W        W99962   7.904  21.938  12.757
27538W        W99963  34.599  29.164   2.414
27539W        W99964   9.158  27.567  10.608
27540W        W99965  28.213   3.383   2.411
27541W        W99966  19.477  44.572  14.333
27542W        W99967  39.767  12.700   0.255
27543W        W99968  18.377  26.690  12.597
27544W        W99969  23.971  25.052  10.092
27545W        W99970  20.269  26.126   3.128
27546W        W99971  15.090  10.705  10.384
27547W        W99972  29.679  30.440   0.422
27548W        W99973  21.639  44.243  10.286
27549W        W99974  32.179   1.371  10.685
27550W        W99975  12.214   9.202  14.017
27551W        W99976   0.202  35.076  12.931
27552W        W99977  29.301  13.638  11.630
27553W        W99978  37.653  43.563   1.470
27554W        W99979  33.417  15.044  14.800
27555W        W99980   4.657  17.245  12.875
27556W        W99981  23.288  41.246  11.523
27557W        W99982  16.665  29.929  14.652
27558W        W99983  24.972   1.216  12.088
27559W        W99984  32.411  44.731   4.139
27560W        W99985  17.851  43.994  10.976
27561W        W99986  38.084   2.464  13.770
27562W        W99987  15.365   6.282   0.383
27563W        W99988   8.494  18.477  13.600
27564W        W99989  18.489  12.012  12.619
27565W        W99990  23.132   1.426   3.724
27566W        W99991  18.155  27.839  14.932
27567W        W99992  14.567  41.781   1.420
27568W        W99993  34.656  29.294  13.035
27569W        W99994  35.100  40.251  10.730
27570W        W99995  38.102   8.653   1.965
27571W        W99996  33.550  41.328  14.917
27572W        W99997   4.922   9.214   2.865
27573W        W99998  36.546  27.352   2.287
27574W        W99999  16.598  41.253   4.650
27575W        W    0  38.539  24.534   1.758
27576W        W    1  37.996  25.469   3.449
27577W        W    2  31.869   5.474  13.888
27578W        W    3  21.687   1.366   1.172
27579W        W    4   5.898  19.126  11.084
27580W        W    5  18.445   8.143   3.608
27581W        W    6  30.617  27.126   0.184
27582W        W    7   8.793  23.734  14.598
27583W        W    8  44.730  27.503   1.319
27584W        W    9  28.090   5.906   2.603
27585W        W   10  15.894  26.140  10.495
27586W        W   11  10.880   7.234   1.570
27587W        W   12  41.120  23.809   1.753
27588W        W   13  11.797  39.533   1.260
27589W        W   14   6.274  30.266  12.025
27590W        W   15  17.765  32.432   0.793
27591W        W   16  25.141  38.574  14.112
27592W        W   17  37.941  19.305  13.981
27593W        W   18  21.636   5.458  14.017
27594W        W   19   7.218  26.625  14.014
27595W        W   20  27.717   8.337  11.603
27596W        W   21  43.510  26.090   1.236
27597W        W   22   1.937  19.564   4.161
27598W        W   23  21.177  14.775  13.589
27599W        W   24   2.918  24.454  14.021
27600W        W   25  38.430  13.125   4.167
27601W        W   26  23.616   9.426  13.678
27602W        W   27  39.108   4.203   2.386
27603W        W   28  22.142  29.457   2.037
27604W        W   29  35.443  40.006   2.251
27605W        W   30  38.769  37.023  12.470
27606W        W   31  25.203  43.510   3.334
27607W        W   32  34.095  32.144   1.213
27608W        W   33  20.048   9.364   3.404
27609W        W   34  27.884   7.106   0.957
27610W        W   35  31.872  32.938  13.358
27611W        W   36  42.471   7.411   2.907
27612W        W   37   5.320  32.473  12.044
27613W        W   38   5.109  32.075  13.906
27614W        W   39  38.057  12.087   3.835
27615W        W   40  12.121  12.638  11.187
27616W        W   41   0.807  42.398  14.809
27617W        W   42  18.393  32.511  13.830
27618W        W   43   1.417  23.846   0.020
27619W        W   44  21.002  40.223  13.703
27620W        W   45  36.059   5.912  12.584
27621W        W   46  28.478   5.651   2.391
27622W        W   47  18.161  22.136   1.272
27623W        W   48  37.821  35.050   0.755
27624W        W   49  25.154  11.368  14.119
27625W        W   50   2.946  33.861   0.461
27626W        W   51  18.990  38.824  13.854
27627W        W   52  33.079  33.360   0.418
27628W        W   53  26.971   3.701   2.363
27629W        W   54   3.939  40.835   1.801
27630W        W   55  28.223  42.446   1.862
27631W        W   56  36.409  15.738  14.449
27632W        W   57   1.388  29.172   3.603
27633W        W   58  38.340  26.972  13.795
27634W        W   59   7.672  15.309   3.158
27635W        W   60  42.938  43.215  13.552
27636W        W   61   8.666  23.407   1.458
27637W        W   62  30.134  44.527   3.401
27638W        W   63   3.961  41.597  12.567
27639W        W   64  43.862  10.790  12.875
27640W        W   65  24.987  12.222  11.962
27641W        W   66  12.923  27.443  12.103
27642W        W   67  25.071   2.430  10.998
27643W        W   68  24.131  19.749  14.184
27644W        W   69  12.125   7.413  10.933
27645W        W   70  38.961  17.058  10.920
27646W        W   71  17.534   7.325  13.201
27647W        W   72  41.272  24.109   2.631
27648W        W   73  30.518  17.099  12.490
27649W        W   74  22.773  11.837   1.725
27650W        W   75  27.488  19.318   4.119
27651W        W   76  37.525  38.575  13.139
27652W        W   77  30.137  10.961  13.406
27653W        W   78   2.247  18.189  11.021
27654W        W   79   3.831  19.290  14.416
27655W        W   80  13.792   6.640  13.084
27656W        W   81   3.443  44.073   3.322
27657W        W   82  20.796  25.170   0.171
27658W        W   83   4.216  35.778   1.509
27659W        W   84  22.292  14.516  11.725
27660W        W   85  17.976  33.402  14.685
27661W        W   86  23.264   5.468  11.025
27662W        W   87   2.298  15.222   2.384
27663W        W   88  31.397   8.336  12.409
27664W        W   89  31.024  41.838   2.797
27665W        W   90  12.359  20.230   0.198
27666W        W   91  31.902  14.120   1.814
27667W        W   92  30.587  35.701  14.886
27668W        W   93  42.965  19.786   4.233
27669W        W   94  11.617  37.003  14.787
27670W        W   95  29.746  42.866  14.785
27671W        W   96  22.248   4.359   2.340
27672W        W   97  38.942  21.530   3.784
27673W        W   98  14.349  42.507  12.681
27674W        W   99  27.742  14.831   2.599
27675W        W  100  37.577  23.258   4.505
27676W        W  101  44.511  42.090   1.948
27677W        W  102  19.698  34.969  14.359
27678W        W  103   3.656  22.139   1.891
27679W        W  104  30.499  14.860  10.740
27680W        W  105  35.597  11.993   0.916
27681W        W  106   7.442  11.684   0.568
27682W        W  107  24.027  41.835   1.778
27683W        W  108  14.690  28.589  11.140
27684W        W  109  28.078   4.964   4.579
27685W        W  110  32.176  11.722   0.928
27686W        W  111  41.887  32.124   0.444
27687W        W  112  25.999  32.602  14.372
27688W        W  113  31.581  40.474  14.316
27689W        W  114   5.792  30.146  11.197
27690W        W  115  27.623  13.837  13.893
27691W        W  116  22.823  27.132  12.421
27692W        W  117  26.215  19.187   0.383
27693W        W  118  21.044  33.891  13.664
27694W        W  119  27.436  28.920  13.087
27695W        W  120  30.440  43.283  14.429
27696W        W  121  26.240  22.544   2.259
27697W        W  122  20.153   5.733  13.424
27698W        W  123  29.048  39.586  10.417
27699W        W  124  15.194  33.946  14.348
27700W        W  125  31.013  13.035   0.284
27701W        W  126   0.276   3.376   3.348
27702W        W  127   3.252  28.605  11.023
27703W        W  128  33.184   1.404   1.823
27704W        W  129  25.961   2.868   3.353
27705W        W  130  33.415  11.273   1.415
27706W        W  131   0.956   2.853   0.855
27707W        W  132   5.267   8.580   2.359
27708W        W  133  36.788  29.313   2.529
27709W        W  134   1.351  34.616   4.857
27710W        W  135  39.960   8.134  14.836
27711W        W  136  31.939  39.880  14.306
27712W        W  137  31.145  31.076   0.763
27713W        W  138  38.143   6.078  12.660
27714W        W  139  16.999  18.986  10.417
27715W        W  140  10.650  17.153  10.853
27716W        W  141  25.632  35.487  14.350
27717W        W  142  19.944   1.755  13.416
27718W        W  143  24.191  44.929   1.088
27719W        W  144  12.231  12.695   3.072
27720W        W  145  13.215  21.426  10.634
27721W        W  146  38.010  31.564   3.162
27722W        W  147   9.593   1.441  11.622
27723W        W  148  15.738  35.986  14.112
27724W        W  149  11.140  40.147   3.718
27725W        W  150  29.709  11.285   4.394
27726W        W  151  31.479   8.799  11.989
27727W        W  152  19.504  11.998   1.322
27728W        W  153  37.835  15.182   3.166
27729W        W  154  15.159   2.707  14.750
27730W        W  155  37.818   1.033   5.008
27731W        W  156  16.778  30.425  10.458
27732W        W  157  23.401   2.731   3.255
27733W        W  158  20.290  31.858  13.761
27734W        W  159  38.826  26.371   4.073
27735W        W  160   1.778  41.450  12.258
27736W        W  161  10.103  27.963   1.803
27737W        W  162  21.814   8.728  12.416
27738W        W  163  24.535  30.527  11.527
27739W        W  164  40.006  22.968  11.133
27740W        W  165  44.781  33.066   2.655
27741W        W  166  28.695  43.602  10.543
27742W        W  167   2.841  33.652   4.815
27743W        W  168  25.477  14.799  11.583
27744W        W  169  33.523  22.695  13.305
27745W        W  170   3.030  22.177  11.302
27746W        W  171  25.718  26.451   2.325
27747W        W  172  38.043  14.681  11.632
27748W        W  173  26.380   0.344   2.169
27749W        W  174  18.218  16.460   2.264
27750W        W  175  33.619  33.579   0.813
27751W        W  176  11.873  40.085   1.218
27752W        W  177  19.946  12.415   3.716
27753W        W  178  13.307  28.189  13.668
27754W        W  179  20.508  28.408   0.439
27755W        W  180  35.822  37.577  12.527
27756W        W  181   6.248  23.733  11.671
27757W        W  182  22.217  20.008   3.442
27758W        W  183  32.984  41.287   3.328
27759W        W  184   1.483  36.353  11.624
27760W        W  185  21.216   0.817  12.388
27761W        W  186  43.045  35.763   1.343
27762W        W  187   6.251  32.406   0.545
27763W        W  188  22.135  15.274   2.302
27764W        W  189  26.173  40.212   3.537
27765W        W  190  37.835  24.240  11.877
27766W        W  191   7.905  23.202   2.719
27767W        W  192  20.619   9.205   1.842
27768W        W  193  11.771  21.517  13.962
27769W        W  194  42.675  19.142  11.990
27770W        W  195  12.377  11.599  13.964
27771W        W  196  36.273  27.951   4.530
27772W        W  197  20.596  28.002  10.554
27773W        W  198  30.021  29.378  13.065
27774W        W  199  23.671   2.989  14.877
27775W        W  200  18.661   0.173   1.678
27776W        W  201  33.899  43.805   2.093
27777W        W  202  39.917  31.625  12.548
27778W        W  203   7.287   1.082  11.176
27779W        W  204  22.562  27.570  12.653
27780W        W  205  31.664   7.636   3.677
27781W        W  206  14.274   1.272  11.156
27782W        W  207  11.393  30.407   0.041
27783W        W  208  12.023  19.633  14.449
27784W        W  209   7.299  28.953  11.075
27785W        W  210  17.193  12.754   1.742
27786W        W  211  16.421  38.333   0.291
27787W        W  212  36.120  31.915  12.989
27788W        W  213  42.436   5.800   2.289
27789W        W  214  44.164  37.394   5.209
27790W        W  215  42.249  14.302   4.522
27791W        W  216  24.981  34.977  12.023
27792W        W  217   0.829  28.098   2.439
27793W        W  218  20.675  27.726  10.997
27794W        W  219  25.189  26.675   1.336
27795W        W  220  31.556  29.147  12.015
27796W        W  221  26.652   9.853  13.856
27797W        W  222   6.979  37.872   3.013
27798W        W  223   8.451  38.084  10.982
27799W        W  224  37.049  27.036  14.505
27800W        W  225  43.299  31.447   4.641
27801W        W  226  23.207  21.513  12.609
27802W        W  227   2.235   0.064   4.213
27803W        W  228   8.265  20.275  14.917
27804W        W  229  35.667  40.535   4.563
27805W        W  230   9.445  17.412   4.082
27806W        W  231  43.430   4.894   2.405
27807W        W  232  13.169  28.032  12.126
27808W        W  233  43.732   5.717   4.046
27809W        W  234  30.374  40.900   1.062
27810W        W  235   2.239   8.114   3.148
27811W        W  236  41.597  21.076  11.959
27812W        W  237   7.747  31.131  12.336
27813W        W  238   8.392  19.294   3.840
27814W        W  239   2.719  42.270  14.699
27815W        W  240  41.265   3.845  12.974
27816W        W  241  39.274  14.650  13.007
27817W        W  242  31.701  19.573   3.249
27818W        W  243  12.163   5.393  12.945
27819W        W  244  37.038  28.465  10.728
27820W        W  245  36.170  10.340   2.176
27821W        W  246  25.734  23.662   3.737
27822W        W  247  10.794  25.367   3.296
27823W        W  248   0.756  16.913   4.979
27824W        W  249   1.846   2.476   0.404
27825W        W  250  21.019  27.155   2.632
27826W        W  251  31.531  11.619  13.902
27827W        W  252   0.481  39.586  12.856
27828W        W  253   3.477  24.319  14.167
27829W        W  254  13.488  35.285  10.961
27830W        W  255  25.193   2.013  10.707
27831W        W  256   3.402  18.262   4.019
27832W        W  257  12.577  44.536   1.267
27833W        W  258  27.056  15.493  12.944
27834W        W  259  36.760   3.138   0.949
27835W        W  260  29.454  10.358   1.940
27836W        W  261  18.842   5.348  11.972
27837W        W  262  10.049   8.661   3.786
27838W        W  263  41.815   4.349  12.112
27839W        W  264  32.090  41.775   0.414
27840W        W  265  19.865  44.248  14.215
27841W        W  266   2.903  15.941   0.293
27842W        W  267  35.083  32.058  12.733
27843W        W  268  38.206   5.181   2.303
27844W        W  269   5.337  13.543  12.545
27845W        W  270  28.312   3.389  11.153
27846W        W  271  35.601  31.554   0.755
27847W        W  272   2.344  34.374  13.953
27848W        W  273  34.976   5.283  14.304
27849W        W  274  24.532  35.357   3.088
27850W        W  275  29.020  44.620  14.994
27851W        W  276  38.877  38.350  13.431
27852W        W  277   5.038  27.516  11.790
27853W        W  278   2.284  33.026  11.659
27854W        W  279  10.246  34.279  13.364
27855W        W  280   6.958  37.889   9.799
27856W        W  281  21.876  10.911   4.982
27857W        W  282  18.980  16.576  11.149
27858W        W  283   6.079  35.922   1.025
27859W        W  284  34.152  20.134  13.303
27860W        W  285  39.602  29.770   1.905
27861W        W  286  43.410  29.531   4.168
27862W        W  287  33.407  17.527   4.729
27863W        W  288  21.960  44.428   3.164
27864W        W  289  38.100  38.970  11.535
27865W        W  290  25.654   2.848  11.601
27866W        W  291  13.038  40.437  14.049
27867W        W  292  18.123  11.294   2.275
27868W        W  293  41.047  25.200  13.662
27869W        W  294   3.981  41.057   3.275
27870W        W  295  33.859   5.017  13.636
27871W        W  296  12.734  24.606   1.687
27872W        W  297  20.993  38.213  10.475
27873W        W  298  17.484   6.941   1.680
27874W        W  299  41.586   1.841  13.954
27875W        W  300  32.321   8.339   0.715
27876W        W  301  42.096  25.151  13.489
27877W        W  302  32.176  29.172   3.779
27878W        W  303  10.871  20.446   4.226
27879W        W  304  32.146  34.070  12.110
27880W        W  305  35.919  26.804  10.653
27881W        W  306  28.211  23.994   0.742
27882W        W  307  24.990  35.550  10.749
27883W        W  308   1.631  39.577   2.645
27884W        W  309   8.818  44.321   5.226
27885W        W  310  32.329  33.426  12.871
27886W        W  311  28.588   2.492  10.962
27887W        W  312  21.007  23.113  11.197
27888W        W  313  16.522  22.541  11.524
27889W        W  314  38.419  13.903   3.785
27890W        W  315   3.463  27.589  13.467
27891W        W  316  38.429   5.802   2.768
27892W        W  317  21.225  21.285   3.092
27893W        W  318  15.222  41.836  14.515
27894W        W  319  15.477  18.207  14.057
27895W        W  320  21.723  34.056  14.436
27896W        W  321  11.669  28.463   2.113
27897W        W  322   8.212  30.648   0.049
27898W        W  323   0.266   4.738   0.220
27899W        W  324   0.299  13.862  13.004
27900W        W  325   2.027  30.245   1.187
27901W        W  326  39.600  38.906   3.211
27902W        W  327  12.678  14.108  11.107
27903W        W  328   3.061  16.556   3.209
27904W        W  329  17.660  44.945   2.395
27905W        W  330  27.509  22.659   2.765
27906W        W  331   7.293  15.030  11.588
27907W        W  332  31.306   9.327  10.675
27908W        W  333   9.335  31.425   1.670
27909W        W  334   7.326  15.081   0.068
27910W        W  335  29.231  35.525  10.694
27911W        W  336  35.076  13.737  14.412
27912W        W  337   5.364  40.960   1.714
27913W        W  338  21.507  21.073   0.886
27914W        W  339  43.319  10.372   0.322
27915W        W  340   2.320  33.113  13.397
27916W        W  341  11.432  32.433   4.290
27917W        W  342  42.805  37.882  11.109
27918W        W  343   2.072  21.343  13.870
27919W        W  344  35.133  30.442  11.133
27920W        W  345  37.369   1.509   1.317
27921W        W  346  31.902  38.397  11.915
27922W        W  347  11.609  37.652  10.630
27923W        W  348  12.334  24.028   0.748
27924W        W  349  10.460  25.525  11.200
27925W        W  350  11.327  11.545  11.182
27926W        W  351  28.913  36.947   1.199
27927W        W  352  29.347  12.417  13.372
27928W        W  353  42.525  41.860   4.924
27929W        W  354  40.431  40.619   4.564
27930W        W  355  35.680  33.643   5.144
27931W        W  356  15.316   8.591   2.690
27932W        W  357  23.016  14.099  14.613
27933W        W  358  24.566  25.613   2.238
27934W        W  359  10.142  24.491  12.356
27935W        W  360  32.921  24.431   4.286
27936W        W  361  37.364  26.106   0.882
27937W        W  362  13.378  43.297   1.345
27938W        W  363   5.194  19.080  11.596
27939W        W  364  41.360  37.356  14.332
27940W        W  365  16.766  29.058   4.576
27941W        W  366  25.072  19.703   0.788
27942W        W  367  41.012  20.685  13.820
27943W        W  368  26.902  37.937  14.034
27944W        W  369  10.889  36.080   2.191
27945W        W  370   5.154  12.416  13.751
27946W        W  371   9.266   3.351  10.600
27947W        W  372   5.701  22.240   2.878
27948W        W  373  40.473  17.712   3.621
27949W        W  374  23.976   6.424  11.574
27950W        W  375   0.744  14.884  13.521
27951W        W  376  13.291  13.558   1.860
27952W        W  377   8.281  14.071   3.229
27953W        W  378   6.730  28.930   1.209
27954W        W  379  40.473   5.926  12.060
27955W        W  380  14.482   7.068  13.749
27956W        W  381   7.516  39.598  13.536
27957W        W  382  35.051   0.724  13.262
27958W        W  383   0.824  34.660  12.093
27959W        W  384  39.325  44.807   5.063
27960W        W  385  30.006  25.866  11.558
27961W        W  386  37.010  39.451  14.749
27962W        W  387   6.127  44.515   3.603
27963W        W  388  21.351  12.742   1.860
27964W        W  389  31.204  42.562   1.916
27965W        W  390  23.585  28.013   0.923
27966W        W  391  39.885  26.855   2.780
27967W        W  392  40.721  25.532  11.954
27968W        W  393  18.367  10.741   2.691
27969W        W  394  23.429  22.008   1.395
27970W        W  395  43.145  40.655  13.549
27971W        W  396  28.773  10.667   1.235
27972W        W  397  32.156  36.612   1.300
27973W        W  398  33.493  38.040  12.541
27974W        W  399  12.242  38.195  11.117
27975W        W  400  39.548  44.521   3.169
27976W        W  401  26.312  42.113  14.338
27977W        W  402  19.043  28.082  14.346
27978W        W  403  41.235  23.188   2.390
27979W        W  404  35.817  11.550   1.262
27980W        W  405   1.910  21.416   4.991
27981W        W  406  33.838  44.366  12.679
27982W        W  407  27.099  37.377   3.783
27983W        W  408  21.462  42.813   5.010
27984W        W  409   5.282   3.102  13.708
27985W        W  410  10.228  25.119   0.174
27986W        W  411   9.220  38.066  13.891
27987W        W  412   1.475  41.823   4.138
27988W        W  413  39.650  29.598   0.404
27989W        W  414  37.146  39.761  12.144
27990W        W  415  39.566  30.613   0.818
27991W        W  416  44.855  35.642   2.755
27992W        W  417  23.103  38.106   3.758
27993W        W  418  28.750  42.004   0.423
27994W        W  419   7.376  29.531   1.455
27995W        W  420  30.497   9.918  14.030
27996W        W  421  42.971  35.574   0.862
27997W        W  422  33.864  30.528  14.884
27998W        W  423  30.536  27.719  13.974
27999W        W  424   5.187  18.751   0.423
28000W        W  425  28.420  34.523  11.118
28001W        W  426   0.908  28.801  12.616
28002W        W  427  17.618  39.815  14.245
28003W        W  428  38.483  21.020  13.960
28004W        W  429  12.959  26.927  13.845
28005W        W  430  30.630   8.292  11.013
28006W        W  431  19.821   9.298  12.563
28007W        W  432   8.845  35.356  14.863
28008W        W  433  28.194  26.877   0.324
28009W        W  434  12.342   0.759   2.430
28010W        W  435   2.527  44.823  11.970
28011W        W  436   2.287  18.438   0.479
28012W        W  437   9.042  17.242   2.027
28013W        W  438  44.361  35.918   0.355
28014W        W  439  18.244  44.373  13.883
28015W        W  440  37.136  22.552   5.106
28016W        W  441  34.441  27.365  12.861
28017W        W  442  41.238  11.175   1.275
28018W        W  443  37.281   8.303  12.762
28019W        W  444   4.834  11.878   0.475
28020W        W  445  18.171  15.092   0.422
28021W        W  446   6.916   7.937   2.864
28022W        W  447  20.542   7.767   2.711
28023W        W  448  40.895  32.906  13.023
28024W        W  449   6.902   2.361   4.518
28025W        W  450  22.262  28.872  12.248
28026W        W  451  32.031  44.005   3.301
28027W        W  452  44.645  23.787   0.079
28028W        W  453  15.786  43.105  12.453
28029W        W  454  19.557  25.186   4.185
28030W        W  455  12.137  28.668   2.384
28031W        W  456  25.528  21.715  13.483
28032W        W  457   0.130  39.959  13.003
28033W        W  458  22.534  39.447  12.044
28034W        W  459  41.758  36.915  14.258
28035W        W  460  16.908  36.617  14.409
28036W        W  461  27.119  28.161  12.372
28037W        W  462  24.084  25.960  12.876
28038W        W  463  43.021  33.953  12.015
28039W        W  464  12.319  36.171   0.759
28040W        W  465  41.418  18.044  13.951
28041W        W  466  17.149  23.448  12.068
28042W        W  467  15.368  11.970   2.686
28043W        W  468  41.111  26.115   0.998
28044W        W  469  38.911   9.806  11.211
28045W        W  470  32.643  35.398  13.966
28046W        W  471  19.269  34.304   4.018
28047W        W  472  41.199   8.926   5.213
28048W        W  473   4.860  26.531  13.427
28049W        W  474  16.175  41.069  14.326
28050W        W  475  37.496  30.933   2.327
28051W        W  476   7.399   9.276  11.490
28052W        W  477   3.482   5.896   3.212
28053W        W  478  24.935  24.985  14.573
28054W        W  479  41.407  17.651   4.191
28055W        W  480  25.020  32.968  14.726
28056W        W  481  40.403  19.972   1.764
28057W        W  482  18.035  39.279   0.377
28058W        W  483  29.880  37.618   1.826
28059W        W  484  26.021  20.128  14.072
28060W        W  485  22.184  19.107   3.638
28061W        W  486  44.775  21.192  13.193
28062W        W  487  25.098  21.146   4.739
28063W        W  488  36.626  28.798   2.478
28064W        W  489  23.931  20.559   1.493
28065W        W  490  44.267  12.682   1.957
28066W        W  491  16.670  34.474  13.222
28067W        W  492  25.100  13.862   3.284
28068W        W  493   2.803  18.306   0.331
28069W        W  494  32.512  16.349  12.725
28070W        W  495  20.206  18.346   2.213
28071W        W  496  28.651  35.497   2.818
28072W        W  497  12.618  41.107   4.037
28073W        W  498  12.751   5.548   2.396
28074W        W  499  24.100   0.081  11.565
28075W        W  500  29.823  23.727   0.798
28076W        W  501   8.505   9.745  14.285
28077W        W  502  20.064  34.406   0.460
28078W        W  503  36.464  14.800   3.284
28079W        W  504  15.813  28.330  10.742
28080W        W  505  40.851  11.888   2.895
28081W        W  506  23.932   6.739  13.959
28082W        W  507   5.541   1.323  12.374
28083W        W  508  18.812   8.547   3.677
28084W        W  509  36.798  11.704   0.340
28085W        W  510   5.365  26.235   3.439
28086W        W  511  38.792  13.594   0.355
28087W        W  512   4.230  42.330   4.936
28088W        W  513  44.816  22.569   1.338
28089W        W  514  15.134   3.959  12.583
28090W        W  515   0.834  34.946   0.165
28091W        W  516  39.578  20.324  14.362
28092W        W  517  22.242  28.055  11.529
28093W        W  518   8.152  36.103   0.037
28094W        W  519  18.993   8.185   4.997
28095W        W  520  17.012  20.820   2.937
28096W        W  521  41.038  24.883   0.670
28097W        W  522  35.839  42.313  11.202
28098W        W  523  21.192  14.596   0.020
28099W        W  524  10.976   7.904  12.935
28100W        W  525  11.086   4.487   4.097
28101W        W  526  32.383  20.293  13.011
28102W        W  527  38.728  14.554  10.551
28103W        W  528  40.418  39.385   2.285
28104W        W  529   9.248  44.656   0.413
28105W        W  530  35.299  37.476   3.254
28106W        W  531  16.338  31.671  12.601
28107W        W  532  19.918  28.683  11.509
28108W        W  533   7.368  37.409  11.145
28109W        W  534  21.565  42.725   0.980
28110W        W  535   8.273   7.933  13.747
28111W        W  536  37.108   8.390   1.272
28112W        W  537  40.438   6.904   4.495
28113W        W  538  29.106  38.936   2.209
28114W        W  539  38.491  12.351   0.929
28115W        W  540  16.426  26.749  13.003
28116W        W  541  31.488  41.604  10.735
28117W        W  542  39.290  30.501   4.613
28118W        W  543  34.550  31.365   1.394
28119W        W  544  25.516  41.610   5.298
28120W        W  545  27.425  39.389   5.024
28121W        W  546  27.999  14.395   0.896
28122W        W  547  17.047  35.397   4.618
28123W        W  548   9.071   1.960   1.787
28124W        W  549   1.434   8.114   3.741
28125W        W  550  27.558   3.271  13.735
28126W        W  551  43.847   6.340  14.389
28127W        W  552   5.038  18.586  12.457
28128W        W  553  37.875   0.031   2.620
28129W        W  554   5.736  12.078  13.035
28130W        W  555   3.739   3.180   4.763
28131W        W  556  11.827  36.720  12.608
28132W        W  557  39.281  43.756  10.997
28133W        W  558  32.023  31.130   3.576
28134W        W  559  39.920  27.689  11.102
28135W        W  560  19.889  20.284   3.776
28136W        W  561  18.312  26.719  11.660
28137W        W  562  37.421  23.155  13.759
28138W        W  563  37.907  11.863   1.792
28139W        W  564  33.818   6.324  14.829
28140W        W  565   9.818  30.553   1.888
28141W        W  566  23.770  43.867   0.484
28142W        W  567   6.826  37.380   5.563
28143W        W  568  35.582  26.038  11.672
28144W        W  569  27.410   4.394   1.260
28145W        W  570  26.283   3.453  13.763
28146W        W  571  32.114  17.911   3.266
28147W        W  572  24.835   6.865   2.450
28148W        W  573  35.788  16.099  11.101
28149W        W  574  22.102  30.192   2.341
28150W        W  575  10.321  41.461  14.982
28151W        W  576   0.268  32.986   3.180
28152W        W  577   2.774  25.997   1.981
28153W        W  578  10.692  16.044  11.537
28154W        W  579  12.194  27.249   1.524
28155W        W  580  16.385  44.412  13.576
28156W        W  581  36.072  27.431  13.629
28157W        W  582  18.952   7.995   3.640
28158W        W  583  27.613  39.513  14.057
28159W        W  584  20.458   0.298   0.394
28160W        W  585  24.703   1.235   3.659
28161W        W  586  11.638   7.932   0.008
28162W        W  587  17.936  13.169  14.273
28163W        W  588  36.120  16.569   3.460
28164W        W  589  12.983  42.807   2.217
28165W        W  590  37.552   8.255  14.313
28166W        W  591   9.872   5.663   4.583
28167W        W  592   9.281  27.816  11.935
28168W        W  593  11.247   2.735   4.047
28169W        W  594  43.906  23.021  12.927
28170W        W  595  44.244  14.358  10.876
28171W        W  596  27.791  14.321  11.823
28172W        W  597  13.453  11.186  10.864
28173W        W  598  21.475  12.188   2.157
28174W        W  599  23.019  25.794  10.670
28175W        W  600  27.557  27.759   3.123
28176W        W  601  21.036  28.631   1.143
28177W        W  602  11.296  25.068   1.699
28178W        W  603  41.528   0.460   0.056
28179W        W  604  39.387  33.869   2.165
28180W        W  605  10.021  32.020  14.200
28181W        W  606  25.116   3.292  10.193
28182W        W  607   7.687  35.578   4.676
28183W        W  608   3.466  25.631  14.011
28184W        W  609  16.156  43.175   4.590
28185W        W  610   4.735  19.677  11.162
28186W        W  611  16.021   5.922  12.746
28187W        W  612  12.583   8.576  11.110
28188W        W  613  20.271  23.808  14.938
28189W        W  614   1.391  13.276   2.625
28190W        W  615  22.081  14.869  12.080
28191W        W  616  14.496  29.507   5.248
28192W        W  617  25.864  31.948   1.836
28193W        W  618   1.431   8.635  14.784
28194W        W  619  39.529  22.699  13.864
28195W        W  620  17.401  34.025   0.899
28196W        W  621  37.441  41.835  13.874
28197W        W  622  33.265  36.825  13.867
28198W        W  623  17.152  20.764  10.355
28199W        W  624  16.621   6.412   2.891
28200W        W  625  44.010   8.213   2.294
28201W        W  626  12.145  16.725   0.099
28202W        W  627  26.254  14.831   0.687
28203W        W  628  13.156  28.065   3.185
28204W        W  629  35.830  35.431  11.622
28205W        W  630  13.776  21.112   3.890
28206W        W  631   8.142  41.953   1.298
28207W        W  632  14.946  42.474  13.930
28208W        W  633  42.505  15.646   0.865
28209W        W  634   5.682  39.821  10.756
28210W        W  635   2.030   0.562   4.800
28211W        W  636  37.557   5.515  14.983
28212W        W  637   2.202  24.312  11.403
28213W        W  638   9.367  27.586  11.078
28214W        W  639  14.867  12.379   0.314
28215W        W  640  41.346  40.377  12.535
28216W        W  641  34.468  26.542  10.591
28217W        W  642  14.542  18.144   5.163
28218W        W  643  21.558  18.721  11.421
28219W        W  644  31.463  15.013  14.201
28220W        W  645  32.978  13.754  10.636
28221W        W  646  20.062   7.729   5.056
28222W        W  647  38.978   6.204   0.720
28223W        W  648  43.443  24.463  12.919
28224W        W  649  39.448  10.411  12.609
28225W        W  650  15.796   6.823  14.446
28226W        W  651  21.137  30.910  13.540
28227W        W  652   6.250   6.647  13.874
28228W        W  653  16.175   2.496   5.285
28229W        W  654  34.057  35.265  11.453
28230W        W  655  13.845  23.048  12.151
28231W        W  656  38.514  42.601   0.272
28232W        W  657   6.711   9.634  12.053
28233W        W  658  40.005  31.640   3.194
28234W        W  659  20.170  18.897   2.311
28235W        W  660  28.350   6.957   0.738
28236W        W  661  44.222   7.408   1.312
28237W        W  662   8.669  42.474   2.797
28238W        W  663   4.993  43.870  13.098
28239W        W  664  42.916  32.120  12.232
28240W        W  665   9.368  44.935  11.533
28241W        W  666  36.518  15.694  14.996
28242W        W  667  41.112  26.716  11.999
28243W        W  668  20.333  19.743   5.166
28244W        W  669   2.748  25.093  10.330
28245W        W  670   3.278  25.532  11.519
28246W        W  671  15.073  35.002  13.823
28247W        W  672  12.566  39.551   4.208
28248W        W  673  21.561   1.406   4.095
28249W        W  674  12.298  22.840   1.682
28250W        W  675  17.645  28.684   0.770
28251W        W  676  37.010  23.458   2.734
28252W        W  677  43.680  21.823   0.160
28253W        W  678  16.940  32.510   0.060
28254W        W  679   3.628  16.621  12.458
28255W        W  680  43.565  29.452   0.127
28256W        W  681  43.781  10.710  14.302
28257W        W  682  11.664  20.840  12.828
28258W        W  683   2.677   7.653  14.010
28259W        W  684  33.135  38.515  14.832
28260W        W  685  11.657  40.847   4.200
28261W        W  686  34.901  44.484   9.896
28262W        W  687  13.164  35.642   0.710
28263W        W  688  38.568  33.043   2.746
28264W        W  689  40.355  41.922  10.109
28265W        W  690   9.676  43.028   3.324
28266W        W  691  11.843  43.305   1.884
28267W        W  692  41.957  30.647  11.964
28268W        W  693   8.193  34.682  14.750
28269W        W  694  23.250  33.649  10.701
28270W        W  695   2.431  24.614  12.585
28271W        W  696   8.418  42.404   1.322
28272W        W  697   2.732  12.606  13.858
28273W        W  698  33.113  39.529   0.329
28274W        W  699  19.647  27.241   2.838
28275W        W  700   7.715  29.630  10.732
28276W        W  701  15.248   1.011  12.471
28277W        W  702  30.444  16.338  14.824
28278W        W  703  36.115   8.234   2.803
28279W        W  704   5.181  39.701  13.271
28280W        W  705   4.655  25.530   1.169
28281W        W  706  37.941  25.628   2.474
28282W        W  707  30.784   9.765   4.641
28283W        W  708  15.721  37.455  12.049
28284W        W  709  31.096   8.928  10.951
28285W        W  710  27.582  20.641  12.933
28286W        W  711  39.501  27.454  12.126
28287W        W  712  31.486  30.483  12.515
28288W        W  713  32.673  19.557  13.797
28289W        W  714  40.070  11.921  13.088
28290W        W  715  37.010   2.974  12.490
28291W        W  716  32.443  15.431   0.905
28292W        W  717  11.111  26.036  13.300
28293W        W  718  15.829  37.673   3.299
28294W        W  719  15.793  13.339   4.082
28295W        W  720  21.831   1.519  11.385
28296W        W  721   2.286  36.958   4.637
28297W        W  722   6.901  15.361   0.006
28298W        W  723  27.210  19.549  10.107
28299W        W  724  43.877   8.739  14.466
28300W        W  725   7.202  17.279  14.996
28301W        W  726  38.120  43.967   5.529
28302W        W  727  41.733   0.568  11.219
28303W        W  728   2.787  40.580   3.711
28304W        W  729  20.219  34.379  14.072
28305W        W  730  10.164  32.293  12.916
28306W        W  731  13.558  30.499   1.700
28307W        W  732  17.803  28.248   1.919
28308W        W  733  34.274  17.121  13.728
28309W        W  734   7.748  25.473   4.674
28310W        W  735  24.083   0.227   4.262
28311W        W  736  36.899  33.252  12.547
28312W        W  737  10.324  16.955  12.445
28313W        W  738  12.823  18.203  10.647
28314W        W  739  37.548  34.375   2.429
28315W        W  740  13.100  35.407  13.461
28316W        W  741  44.957   9.776   0.308
28317W        W  742  29.995  25.249   3.892
28318W        W  743  17.380   0.718  12.817
28319W        W  744   2.732   7.625   2.175
28320W        W  745  33.901   0.917  12.777
28321W        W  746  16.427  30.592  14.553
28322W        W  747  36.777  11.873   4.475
28323W        W  748  40.073  20.687   0.924
28324W        W  749  22.081  23.433  13.371
28325W        W  750  16.584  19.239  14.887
28326W        W  751  36.439   7.606  14.320
28327W        W  752  10.705  27.869  14.965
28328W        W  753  41.463  24.860  12.099
28329W        W  754  22.722  12.192   3.102
28330W        W  755  26.982  35.040   1.296
28331W        W  756  28.559   3.943  13.851
28332W        W  757   9.196  31.556   2.400
28333W        W  758  21.962  12.213  13.502
28334W        W  759  36.028   9.393  11.056
28335W        W  760  15.073  27.208  14.836
28336W        W  761   9.230  40.322   4.896
28337W        W  762  26.519   7.907   2.902
28338W        W  763  30.041  28.993  11.225
28339W        W  764  28.457  44.599  10.407
28340W        W  765  14.882  31.344  13.917
28341W        W  766  32.645  31.449  11.853
28342W        W  767   0.503  14.597   1.383
28343W        W  768   9.862  42.332   3.876
28344W        W  769  13.431  11.134  10.340
28345W        W  770  15.384   6.873   2.120
28346W        W  771  27.949   7.765  12.998
28347W        W  772  33.058  19.573   1.341
28348W        W  773  19.928  10.532   1.074
28349W        W  774  23.026  17.795   4.463
28350W        W  775  42.343   6.883  12.776
28351W        W  776  43.572  28.461  14.291
28352W        W  777  34.045   5.028  14.470
28353W        W  778  35.905  40.146   0.151
28354W        W  779  10.803   1.767  11.698
28355W        W  780  22.644  10.855   1.233
28356W        W  781  15.459  17.756   4.615
28357W        W  782  13.318  40.319   4.211
28358W        W  783  36.060  10.252  14.891
28359W        W  784  11.266  35.082   3.718
28360W        W  785  35.748   1.431   4.500
28361W        W  786  40.887  28.380  11.528
28362W        W  787  25.931   6.870  13.960
28363W        W  788  15.144  33.949  13.839
28364W        W  789   9.775  25.196  13.667
28365W        W  790  38.799  19.745   0.223
28366W        W  791  13.888  34.301   2.870
28367W        W  792  40.251  27.583   2.207
28368W        W  793  34.930   6.786  11.185
28369W        W  794  27.634  10.862   4.090
28370W        W  795  44.866   8.325  13.569
28371W        W  796  14.038  15.168  14.446
28372W        W  797   6.291  37.325  14.996
28373W        W  798  25.301  41.088  11.026
28374W        W  799   4.205  34.795   0.496
28375W        W  800  30.072  21.070   2.284
28376W        W  801  30.528  39.353   0.071
28377W        W  802  33.415   9.311   3.668
28378W        W  803  32.614  18.839   0.241
28379W        W  804  42.509  32.056   0.020
28380W        W  805  24.104  15.249   2.931
28381W        W  806  31.422   4.783   0.440
28382W        W  807  13.181   5.940  12.897
28383W        W  808   3.723  44.069  12.721
28384W        W  809  21.087  32.995  11.216
28385W        W  810   3.830   6.935  12.594
28386W        W  811  29.946  15.669   4.183
28387W        W  812   0.717   4.508  10.864
28388W        W  813  37.205  41.507   4.678
28389W        W  814   3.215   1.420   1.409
28390W        W  815  30.141  42.606   1.904
28391W        W  816   9.487  27.591  13.830
28392W        W  817  10.377  44.703   4.153
28393W        W  818  33.365  29.223   0.263
28394W        W  819  36.879  34.901  11.116
28395W        W  820  25.457  12.206   2.888
28396W        W  821   7.220  28.453  12.479
28397W        W  822  33.631   0.312   0.278
28398W        W  823  10.917  40.282  12.999
28399W        W  824  28.572   5.213  14.276
28400W        W  825  12.848  27.606   0.830
28401W        W  826  34.918  11.050  10.074
28402W        W  827  28.381  41.487  14.757
28403W        W  828  35.602   9.196  14.725
28404W        W  829  20.627   8.208   0.019
28405W        W  830  39.491  22.413   4.419
28406W        W  831  18.340   6.868  12.042
28407W        W  832  25.082  16.487  12.102
28408W        W  833  17.742  21.225  14.591
28409W        W  834  43.036  10.896   2.181
28410W        W  835  43.769   8.525  13.591
28411W        W  836  29.101   8.968   4.129
28412W        W  837  31.932  13.398  13.690
28413W        W  838  20.134   8.469   1.881
28414W        W  839  37.806  27.539  14.379
28415W        W  840   3.248  16.576  11.050
28416W        W  841  35.108  38.858   2.798
28417W        W  842  30.353  20.750  10.613
28418W        W  843  31.590  38.730   1.868
28419W        W  844  15.125   0.425   1.441
28420W        W  845   0.526  10.977  13.456
28421W        W  846  15.164   7.119   4.880
28422W        W  847  29.477  18.550  14.496
28423W        W  848  14.891  26.344   4.129
28424W        W  849  16.771  19.660   4.980
28425W        W  850  25.757  13.549   0.771
28426W        W  851  37.387   6.625  12.919
28427W        W  852   2.785  14.895  13.386
28428W        W  853  16.102  25.672   0.376
28429W        W  854   4.673   7.258  12.407
28430W        W  855  31.412   3.280   1.973
28431W        W  856  16.991   9.127   1.545
28432W        W  857   5.282  38.563   0.879
28433W        W  858   7.780  25.201   0.495
28434W        W  859  38.951  29.597   4.645
28435W        W  860  25.418  42.936  10.730
28436W        W  861  31.040  26.748  10.613
28437W        W  862  32.165  25.738   1.270
28438W        W  863   1.993  36.286   2.160
28439W        W  864  17.925  25.544   0.723
28440W        W  865  18.751  44.306  12.567
28441W        W  866  22.755  37.662   3.271
28442W        W  867  39.039  20.103   1.602
28443W        W  868  40.157   6.641   0.672
28444W        W  869   8.420  35.322   2.859
28445W        W  870  13.362  24.489  12.862
28446W        W  871  44.118  35.472   0.246
28447W        W  872  30.499  30.110   3.100
28448W        W  873  25.520  20.038  14.741
28449W        W  874  40.073  21.164   2.131
28450W        W  875  22.171   1.371  13.068
28451W        W  876  43.431   6.937  12.237
28452W        W  877   9.731  43.993  11.911
28453W        W  878   7.299  35.881  13.949
28454W        W  879  16.002   8.878  12.607
28455W        W  880  20.706  42.653   2.002
28456W        W  881   2.331  15.317  13.148
28457W        W  882  15.243  13.770  12.539
28458W        W  883  34.492  38.361   1.359
28459W        W  884   9.328  31.850  11.939
28460W        W  885   7.742  44.924   1.232
28461W        W  886  36.133  19.081  13.795
28462W        W  887   4.973  17.442   1.142
28463W        W  888   4.750  33.180  11.980
28464W        W  889  20.284  43.975   3.617
28465W        W  890  33.673  23.672  11.081
28466W        W  891   9.918  30.990  13.127
28467W        W  892  12.790  23.170  14.935
28468W        W  893  13.940  10.310   4.177
28469W        W  894  33.906   8.290  13.974
28470W        W  895  37.972   2.388   4.519
28471W        W  896   7.103  36.413   1.230
28472W        W  897   5.379   2.071   3.207
28473W        W  898  29.159  25.235  10.751
28474W        W  899  38.396  24.549   1.241
28475W        W  900  28.587  20.292   4.251
28476W        W  901  19.023  11.241  11.395
28477W        W  902  42.911  16.551  10.719
28478W        W  903  22.197  11.180  11.088
28479W        W  904  39.378   9.325  12.606
28480W        W  905  10.758   6.713   1.634
28481W        W  906  40.864  27.403  14.336
28482W        W  907  34.436  37.745  10.764
28483W        W  908   4.324  15.517  12.911
28484W        W  909  35.882  32.267   2.421
28485W        W  910   7.355  17.148   3.607
28486W        W  911  36.026   2.794   1.997
28487W        W  912   4.742  41.780   0.920
28488W        W  913  40.851  38.607   2.284
28489W        W  914  22.477  36.623  11.557
28490W        W  915  27.094  28.918   1.790
28491W        W  916   4.738   7.296   2.286
28492W        W  917  19.464   7.192   4.687
28493W        W  918   2.078   5.764   4.185
28494W        W  919  40.967   9.900   0.865
28495W        W  920   2.680  18.978  11.622
28496W        W  921  41.898  28.498  10.572
28497W        W  922  43.259   7.639   0.751
28498W        W  923  23.459   7.267   1.077
28499W        W  924  42.840  19.972   3.134
28500W        W  925  18.371  11.938  12.109
28501W        W  926  43.848  32.850   3.454
28502W        W  927  23.210  34.901   3.202
28503W        W  928   0.725  27.618   1.360
28504W        W  929  40.543   3.491  10.299
28505W        W  930  23.052  33.870  11.126
28506W        W  931  35.895  32.914   4.681
28507W        W  932  25.519  35.713   3.727
28508W        W  933  18.915  32.482   3.783
28509W        W  934  39.788  31.102  12.790
28510W        W  935  25.359   3.291  11.549
28511W        W  936   2.502  11.611   4.065
28512W        W  937  22.649  17.259  10.604
28513W        W  938   6.357   0.300   3.346
28514W        W  939  27.721  35.220   1.443
28515W        W  940  10.705  42.532   3.316
28516W        W  941  30.430  36.298   4.106
28517W        W  942  34.122  21.532  11.552
28518W        W  943  33.357  15.591  10.480
28519W        W  944   9.280  10.530   3.218
28520W        W  945  36.453  44.784   3.694
28521W        W  946  10.039   3.663  14.482
28522W        W  947  25.815  35.745  14.770
28523W        W  948  33.342  36.992  11.968
28524W        W  949  28.151  42.880   1.096
28525W        W  950  38.840  16.312   0.385
28526W        W  951  23.136   2.221  14.317
28527W        W  952  30.996  43.022   0.278
28528W        W  953   7.793  34.008   5.463
28529W        W  954  24.273   9.897   1.842
28530W        W  955  18.235   9.343  14.690
28531W        W  956  17.213  11.113  14.544
28532W        W  957  35.609  20.074  12.002
28533W        W  958   3.365   9.214   4.505
28534W        W  959  25.081  33.158   1.061
28535W        W  960  28.578   3.398  10.709
28536W        W  961  25.555  24.456  12.265
28537W        W  962  27.035  42.232   2.744
28538W        W  963  41.744  23.418   4.241
28539W        W  964  35.377   6.278   1.721
28540W        W  965   5.522   0.569   3.330
28541W        W  966  37.103  17.671  11.399
28542W        W  967  24.987  32.952   4.251
28543W        W  968   3.465   6.879  13.324
28544W        W  969   3.169   9.313   0.923
28545W        W  970   7.581   8.894   4.249
28546W        W  971  20.012  15.765  10.777
28547W        W  972   5.945   6.453   3.481
28548W        W  973   4.266  23.118  11.587
28549W        W  974  14.085  36.376  13.892
28550W        W  975   4.961  13.692   1.468
28551W        W  976  39.483  29.508   3.481
28552W        W  977  17.192  42.900   5.152
28553W        W  978  28.967  29.971  10.779
28554W        W  979  33.154  44.354   0.205
28555W        W  980   3.277  17.065   2.310
28556W        W  981  18.671  24.491   3.190
28557W        W  982   6.116  28.900  12.437
28558W        W  983  16.131  23.468   4.302
28559W        W  984  15.877   6.583  13.934
28560W        W  985  33.472  24.756  12.921
28561W        W  986  44.304  33.660  10.818
28562W        W  987  37.143  19.839   1.589
28563W        W  988   1.934   3.799  13.860
28564W        W  989  40.532  33.328   3.536
28565W        W  990  35.347   3.159  11.652
28566W        W  991  38.576   0.229  12.655
28567W        W  992  27.892  30.623   1.945
28568W        W  993  35.666  39.398  10.713
28569W        W  994  35.549  12.205  14.092
28570W        W  995  40.969  19.813  14.094
28571W        W  996  12.572  17.766  13.459
28572W        W  997  17.659  42.771   2.878
28573W        W  998  31.471  13.768   4.712
28574W        W  999   5.144  14.720   4.301
28575W        W 1000  35.642  10.875   3.186
28576W        W 1001   3.165  30.452  13.481
28577W        W 1002  11.733  16.543   0.799
28578W        W 1003  39.596  43.645  10.540
28579W        W 1004  11.728  44.510  14.781
28580W        W 1005  42.319   4.532   3.838
28581W        W 1006  28.652  12.589  11.028
28582W        W 1007  33.918   0.230   3.670
28583W        W 1008  29.550  31.573  10.490
28584W        W 1009  29.932  20.653  10.909
28585W        W 1010  30.072  36.477  10.660
28586W        W 1011  24.758  33.050   2.423
28587W        W 1012  29.982  29.706  13.458
28588W        W 1013  37.334   5.230   1.763
28589W        W 1014  15.520  36.889   1.169
28590W        W 1015  39.169  12.034   3.333
28591W        W 1016  24.580  43.085  10.491
28592W        W 1017  27.677   5.158   0.557
28593W        W 1018  24.964   3.344  11.211
28594W        W 1019  38.016  34.611   3.335
28595W        W 1020  42.705  24.386  11.618
28596W        W 1021  33.657  37.322  10.723
28597W        W 1022  24.117   0.182   0.247
28598W        W 1023  24.263   7.688  13.956
28599W        W 1024   2.033  24.598   1.920
28600W        W 1025  40.313  25.203  10.778
28601W        W 1026  14.142  21.992  13.027
28602W        W 1027   2.870  27.255  11.639
28603W        W 1028   7.473  40.834  14.017
28604W        W 1029  22.697  24.696  10.162
28605W        W 1030  27.365  10.738   4.527
28606W        W 1031  37.858  32.773   3.746
28607W        W 1032  42.415  39.445   3.305
28608W        W 1033  29.149   9.739  11.210
28609W        W 1034  43.519  33.959  14.328
28610W        W 1035  34.314   6.328  14.163
28611W        W 1036  29.561  39.972  14.713
28612W        W 1037   6.631  14.332  10.449
28613W        W 1038  21.484  43.291   0.022
28614W        W 1039  39.063  44.724   1.385
28615W        W 1040   6.001   0.188  11.993
28616W        W 1041  27.265   8.242   4.854
28617W        W 1042   4.487  23.279  13.846
28618W        W 1043   8.263   7.367  10.677
28619W        W 1044  12.978  16.052  14.964
28620W        W 1045  24.623   8.976  10.681
28621W        W 1046   3.277  35.585  14.421
28622W        W 1047   1.777  20.553   1.251
28623W        W 1048  13.055  25.425  11.938
28624W        W 1049  27.167  22.831   4.486
28625W        W 1050  27.130  30.667  12.517
28626W        W 1051   9.836   9.700   2.849
28627W        W 1052  44.412   3.666  12.159
28628W        W 1053   2.744   1.636   5.203
28629W        W 1054  30.692  22.530   1.790
28630W        W 1055   6.240  12.611  12.434
28631W        W 1056   6.183   3.276   2.341
28632W        W 1057  29.931  34.973   3.779
28633W        W 1058  20.761  36.119   3.200
28634W        W 1059  28.953  20.774   1.885
28635W        W 1060   4.247   3.584  13.026
28636W        W 1061   2.557  36.006  12.569
28637W        W 1062  15.741  16.066  14.430
28638W        W 1063   3.371  29.603   4.584
28639W        W 1064  10.866  31.233   1.396
28640W        W 1065  43.010  44.247   0.955
28641W        W 1066  28.857  37.496   0.000
28642W        W 1067  33.680  23.556   1.200
28643W        W 1068  33.055   0.025  14.249
28644W        W 1069  42.909  20.394   2.225
28645W        W 1070  27.257  14.354  11.090
28646W        W 1071  44.346  33.849   2.766
28647W        W 1072  36.563  40.948  14.857
28648W        W 1073  35.527   3.281  14.044
28649W        W 1074  34.660   1.340  11.916
28650W        W 1075  42.749   6.821  11.492
28651W        W 1076  35.031  28.985   2.615
28652W        W 1077  37.021  37.606   0.638
28653W        W 1078   4.763  37.650   0.223
28654W        W 1079  42.070  10.096  14.838
28655W        W 1080  24.007   5.395   4.531
28656W        W 1081   4.193  43.880   0.904
28657W        W 1082  11.124  20.078  12.563
28658W        W 1083   3.194  40.160  11.947
28659W        W 1084  12.406  14.179   3.296
28660W        W 1085   0.301  39.197   3.529
28661W        W 1086  11.090  19.680  14.324
28662W        W 1087   7.272   8.240   4.668
28663W        W 1088  42.469   7.330  13.040
28664W        W 1089   2.116  23.881   0.795
28665W        W 1090  35.880  35.005   0.007
28666W        W 1091  31.646  36.139  11.908
28667W        W 1092  19.586  37.495   5.036
28668W        W 1093  25.497  10.284  10.164
28669W        W 1094  33.611   1.740   2.660
28670W        W 1095  34.507  13.393   1.017
28671W        W 1096   9.550  21.658   2.854
28672W        W 1097  17.066  14.066  10.987
28673W        W 1098  38.980  20.590  10.941
28674W        W 1099   9.294  27.812   4.502
28675W        W 1100   0.676  18.313  14.945
28676W        W 1101  34.132  20.495   3.675
28677W        W 1102  11.596  38.524  12.876
28678W        W 1103  15.468  28.817  11.596
28679W        W 1104  35.442  38.486   4.604
28680W        W 1105  34.530  15.234   1.407
28681W        W 1106  20.107  16.194  14.440
28682W        W 1107  13.651  35.847  13.390
28683W        W 1108  28.645  36.890   4.339
28684W        W 1109  11.416  17.700   2.736
28685W        W 1110   9.589  19.559  10.989
28686W        W 1111  13.754   2.191   2.722
28687W        W 1112  33.927  40.106   4.600
28688W        W 1113  29.839  18.200  14.419
28689W        W 1114  23.320  25.583   1.292
28690W        W 1115  15.143  34.547   0.301
28691W        W 1116  12.553  26.211   4.834
28692W        W 1117  33.140   0.337   4.218
28693W        W 1118  10.312  41.084   0.410
28694W        W 1119   3.008   4.359  12.893
28695W        W 1120  16.299  14.823   4.336
28696W        W 1121  24.043  19.664  11.600
28697W        W 1122  18.937  16.086  14.855
28698W        W 1123  22.869  14.307  12.127
28699W        W 1124  37.372  14.134  12.180
28700W        W 1125   7.750   6.500   1.882
28701W        W 1126  20.038  14.086   3.248
28702W        W 1127  22.766  18.183   2.707
28703W        W 1128  10.733  17.663   4.365
28704W        W 1129  19.504   5.304   3.788
28705W        W 1130  44.939   0.314   3.124
28706W        W 1131  26.729  24.052  13.408
28707W        W 1132  24.603   4.630   0.283
28708W        W 1133  16.352  43.312   0.544
28709W        W 1134  36.468  15.653  10.809
28710W        W 1135  29.615  43.448  14.134
28711W        W 1136  15.146  36.420  13.142
28712W        W 1137   4.918  39.426  12.912
28713W        W 1138  29.386  10.194   0.829
28714W        W 1139  33.575  34.554   4.751
28715W        W 1140  37.765  17.117  10.586
28716W        W 1141  32.608   6.859  13.020
28717W        W 1142  41.525  35.904   4.413
28718W        W 1143  21.739  10.430   1.145
28719W        W 1144   2.409   3.492  11.861
28720W        W 1145  38.863  44.519  13.788
28721W        W 1146  20.515  19.180   1.269
28722W        W 1147  37.545  21.108   4.723
28723W        W 1148  22.349  16.094  10.369
28724W        W 1149  34.568  34.021   4.076
28725W        W 1150  43.941  15.098   2.059
28726W        W 1151  16.484  42.190  12.097
28727W        W 1152  19.143  29.420   1.530
28728W        W 1153  15.192  12.092  10.638
28729W        W 1154  42.422  41.272   3.855
28730W        W 1155   8.398  35.025   0.590
28731W        W 1156  42.529  44.927  13.007
28732W        W 1157  44.662  34.099   2.440
28733W        W 1158  32.687  34.358   1.906
28734W        W 1159  12.157   5.454   3.245
28735W        W 1160  30.109  22.284   3.257
28736W        W 1161  34.473  24.541  10.753
28737W        W 1162  20.740  27.851   4.716
28738W        W 1163  21.135  11.845   4.115
28739W        W 1164  19.135  22.048   0.707
28740W        W 1165  14.260  41.820  13.630
28741W        W 1166  27.980  31.940   0.215
28742W        W 1167  26.503  42.085  10.464
28743W        W 1168  12.841  33.115   4.190
28744W        W 1169  40.362  22.676  10.874
28745W        W 1170  22.739  34.400   3.741
28746W        W 1171   9.671  34.012  10.920
28747W        W 1172  36.940   1.185  13.884
28748W        W 1173  44.572   0.218   1.706
28749W        W 1174   0.972  22.188   3.654
28750W        W 1175  21.700  40.055   4.289
28751W        W 1176  30.031  10.930   2.781
28752W        W 1177  32.034  13.839   1.342
28753W        W 1178   7.391   3.654   1.853
28754W        W 1179   0.179   6.256  14.440
28755W        W 1180  17.409  34.940   4.575
28756W        W 1181  40.923   5.189   3.510
28757W        W 1182  11.263  15.312   1.023
28758W        W 1183  23.058  40.091  13.989
28759W        W 1184  25.296  24.965  13.118
28760W        W 1185  38.598  30.313   9.680
28761W        W 1186   8.411  16.832   3.705
28762W        W 1187  36.465  43.919  13.072
28763W        W 1188  43.029   9.408  11.502
28764W        W 1189  40.735  43.736  13.669
28765W        W 1190   5.507   4.206  12.349
28766W        W 1191  30.444  35.791  12.393
28767W        W 1192  16.635  24.819  13.874
28768W        W 1193  39.965  33.227  11.643
28769W        W 1194  44.185   8.852  13.489
28770W        W 1195  19.286  26.312   1.351
28771W        W 1196   4.437   6.961  13.012
28772W        W 1197  18.638  27.212  11.400
28773W        W 1198  35.015   3.455  12.884
28774W        W 1199  22.233  41.865   2.488
28775W        W 1200  24.433  33.680  12.923
28776W        W 1201  23.937  37.547  12.787
28777W        W 1202   2.870  30.956   1.975
28778W        W 1203  29.624   7.862   0.755
28779W        W 1204  40.017  18.746  13.377
28780W        W 1205  12.129   6.212   4.690
28781W        W 1206  43.355  40.868  12.083
28782W        W 1207  23.462  21.935  12.876
28783W        W 1208  33.160  25.649   1.254
28784W        W 1209  44.292   5.121  14.517
28785W        W 1210  25.869  40.839  14.821
28786W        W 1211  20.555  19.613   3.694
28787W        W 1212  44.773  16.311  11.930
28788W        W 1213  25.560  13.611   4.057
28789W        W 1214  40.138   3.736  14.097
28790W        W 1215  29.384  24.185  12.458
28791W        W 1216  41.053  32.068   2.859
28792W        W 1217   8.596  16.762  12.091
28793W        W 1218  36.472  11.318  10.482
28794W        W 1219   9.498   1.762  13.485
28795W        W 1220  13.933  17.679   4.533
28796W        W 1221   1.729   2.206   4.295
28797W        W 1222  44.534  11.309  10.793
28798W        W 1223  23.647   8.648  11.705
28799W        W 1224  13.372  12.735  11.638
28800W        W 1225  43.875  14.850  13.985
28801W        W 1226  13.790  13.712   0.539
28802W        W 1227  14.986  29.487  13.736
28803W        W 1228  26.565  44.852   2.423
28804W        W 1229  42.704  39.289  11.195
28805W        W 1230  21.405  28.518   4.170
28806W        W 1231  42.325  39.934  10.883
28807W        W 1232  11.869  36.501  14.779
28808W        W 1233   2.305   1.228  12.283
28809W        W 1234  35.957  30.146   2.238
28810W        W 1235  10.664  36.976   0.956
28811W        W 1236  13.725   5.678  12.899
28812W        W 1237  21.083  42.966  12.396
28813W        W 1238  30.950   5.918  12.875
28814W        W 1239  16.254   0.853  13.315
28815W        W 1240   7.218  36.900  14.931
28816W        W 1241   9.794  43.954  12.404
28817W        W 1242  32.690  26.558   0.904
28818W        W 1243  23.252  42.316  14.249
28819W        W 1244  39.405  15.815  10.789
28820W        W 1245  11.657  14.635   0.706
28821W        W 1246  38.895  27.533   4.526
28822W        W 1247  10.371   8.229   2.249
28823W        W 1248  14.508  28.709  14.690
28824W        W 1249  34.038  30.514   4.429
28825W        W 1250   5.677  11.387   1.869
28826W        W 1251   7.070  12.528  12.400
28827W        W 1252  21.649  20.701  10.991
28828W        W 1253  15.554  12.574   4.289
28829W        W 1254  22.266  36.456   0.103
28830W        W 1255   9.341  42.359   3.201
28831W        W 1256  40.076  19.785  14.843
28832W        W 1257  19.440  40.894  11.264
28833W        W 1258  13.780  36.340  13.470
28834W        W 1259  16.179   4.829  14.871
28835W        W 1260  11.250   1.926   3.546
28836W        W 1261  20.475  10.718   1.431
28837W        W 1262  25.953  21.741  14.807
28838W        W 1263  37.900  10.307   1.402
28839W        W 1264  12.177   7.190   3.064
28840W        W 1265  43.941   9.803   4.728
28841W        W 1266  22.738  27.113   0.214
28842W        W 1267  36.534  26.591  12.457
28843W        W 1268  39.551  23.445   2.833
28844W        W 1269  33.649  33.436  14.477
28845W        W 1270  12.750  22.593  14.314
28846W        W 1271   9.848  33.530   3.183
28847W        W 1272   4.781  18.181  10.634
28848W        W 1273  28.581  31.504  11.950
28849W        W 1274  40.902  40.312   3.765
28850W        W 1275   1.442   5.178   1.956
28851W        W 1276  34.105  33.702  14.458
28852W        W 1277  26.343  21.666   0.308
28853W        W 1278  13.249  14.402   2.848
28854W        W 1279   3.870  28.116   2.257
28855W        W 1280  21.221  21.161   4.892
28856W        W 1281  34.463  38.494   3.896
28857W        W 1282  18.067  32.627   4.174
28858W        W 1283   6.720  33.498  12.603
28859W        W 1284  28.012   2.453   0.989
28860W        W 1285   4.879  11.849   2.352
28861W        W 1286  42.509   0.382   1.015
28862W        W 1287   8.587  16.333   0.328
28863W        W 1288   3.760  32.771  12.168
28864W        W 1289  15.223   0.284  14.892
28865W        W 1290  34.099  28.098  11.137
28866W        W 1291  17.926   6.387   3.895
28867W        W 1292  39.479  35.419   4.130
28868W        W 1293  42.089  14.264  13.451
28869W        W 1294  25.644  13.248  14.232
28870W        W 1295  42.994  28.948  14.389
28871W        W 1296  22.652  44.515   0.836
28872W        W 1297  39.617  17.470  12.562
28873W        W 1298  17.986  37.839   1.838
28874W        W 1299  33.862  27.170   3.645
28875W        W 1300  21.477  18.183   1.599
28876W        W 1301  22.820   7.741   4.307
28877W        W 1302  22.199  35.879   0.469
28878W        W 1303  13.427  34.861  13.464
28879W        W 1304   5.816  15.842   0.780
28880W        W 1305  36.334   3.884  11.110
28881W        W 1306  36.016   3.200  14.826
28882W        W 1307  32.532   7.435   2.948
28883W        W 1308  10.436  30.903  12.117
28884W        W 1309  20.146  32.158  13.332
28885W        W 1310  20.675  30.471  11.525
28886W        W 1311  40.954  39.308   4.496
28887W        W 1312  17.988  26.956   3.832
28888W        W 1313   7.462  20.636  14.991
28889W        W 1314  22.531  40.850   0.364
28890W        W 1315   0.270  21.234   0.314
28891W        W 1316  14.851  32.157  13.164
28892W        W 1317  23.781  41.147  11.550
28893W        W 1318  35.321   2.851   3.920
28894W        W 1319  41.528  38.344  12.266
28895W        W 1320  11.406  28.788  14.011
28896W        W 1321  26.134   6.424  10.702
28897W        W 1322  36.548  21.629   4.809
28898W        W 1323  34.061  27.716   1.303
28899W        W 1324  39.333  20.792  10.631
28900W        W 1325  12.835  41.502  12.402
28901W        W 1326  15.232  16.620  10.360
28902W        W 1327  41.433  10.166   0.684
28903W        W 1328  26.672  36.573   3.461
28904W        W 1329   9.861  16.719   2.763
28905W        W 1330   7.725  40.459   1.291
28906W        W 1331  34.548  23.238  14.482
28907W        W 1332  31.883   8.705   2.806
28908W        W 1333  29.592  40.619   1.510
28909W        W 1334  39.133  24.041   3.796
28910W        W 1335  38.524  28.201   4.672
28911W        W 1336  23.618  23.635   3.776
28912W        W 1337  20.020  35.820   0.370
28913W        W 1338  29.659  18.625   4.522
28914W        W 1339  43.843  42.945  13.025
28915W        W 1340  43.558  36.147   3.087
28916W        W 1341  44.948  29.569   3.176
28917W        W 1342  16.380   3.041   0.496
28918W        W 1343  18.322  25.673  14.272
28919W        W 1344  26.726  19.156   4.618
28920W        W 1345  11.420  31.327   1.480
28921W        W 1346   7.470  16.645   3.639
28922W        W 1347  31.007  33.199  13.005
28923W        W 1348  27.216  23.723  12.054
28924W        W 1349  36.871  43.829  13.841
28925W        W 1350  44.438   6.908  12.398
28926W        W 1351  41.368  17.305   3.222
28927W        W 1352  31.102  13.333   2.786
28928W        W 1353  25.956  21.344  10.690
28929W        W 1354  20.240  30.951  11.887
28930W        W 1355  43.845  27.899  13.103
28931W        W 1356  40.060  10.753   1.998
28932W        W 1357  42.900   3.756  14.380
28933W        W 1358  43.707  10.309   1.288
28934W        W 1359   2.218  19.682   1.408
28935W        W 1360  35.849  33.075  10.688
28936W        W 1361  14.193  33.239  14.202
28937W        W 1362  29.523  28.447  12.882
28938W        W 1363  34.298  43.011  14.923
28939W        W 1364  42.344  27.551  10.736
28940W        W 1365   6.705  36.656   3.862
28941W        W 1366   6.814   3.764   2.203
28942W        W 1367  34.644  42.294  14.974
28943W        W 1368  18.976  18.698  14.377
28944W        W 1369   2.224  13.911   2.300
28945W        W 1370  31.348   4.351  14.924
28946W        W 1371  37.116  25.184   5.389
28947W        W 1372  34.579  18.111  11.084
28948W        W 1373   5.804   6.687   1.152
28949W        W 1374  36.213   8.099  10.677
28950W        W 1375  39.858   1.507  10.710
28951W        W 1376  17.704   4.442   2.831
28952W        W 1377  38.042  13.122  10.438
28953W        W 1378  20.232  23.643  13.930
28954W        W 1379   6.802  11.759   1.230
28955W        W 1380  18.757  28.043  11.068
28956W        W 1381   4.263  43.553  12.478
28957W        W 1382   7.323  40.528   1.668
28958W        W 1383  28.165  42.117  13.524
28959W        W 1384  38.011  41.737  14.868
28960W        W 1385  43.292  28.099   3.267
28961W        W 1386   5.296  35.369   2.228
28962W        W 1387  36.099   7.228   3.277
28963W        W 1388  21.513  41.034  14.532
28964W        W 1389  20.982  36.963   4.499
28965W        W 1390  36.405  18.084  11.410
28966W        W 1391  34.517  12.837  14.353
28967W        W 1392  29.943  35.792  12.506
28968W        W 1393  34.514  13.400  11.423
28969W        W 1394  27.283  29.098   4.406
28970W        W 1395  32.066   3.204   2.229
28971W        W 1396  33.974  22.008   3.906
28972W        W 1397  41.745  34.351  11.748
28973W        W 1398  44.221   8.480   4.258
28974W        W 1399  21.171  43.983  13.920
28975W        W 1400  23.243  44.478   4.376
28976W        W 1401  35.471  24.608   1.325
28977W        W 1402  29.647  20.645   1.436
28978W        W 1403   6.005   8.750   3.235
28979W        W 1404   3.758  10.712  13.101
28980W        W 1405   9.877  33.916  12.938
28981W        W 1406   4.947  43.881  12.078
28982W        W 1407  20.650  13.375   0.378
28983W        W 1408  40.030  29.495   3.775
28984W        W 1409  19.100  10.400   4.222
28985W        W 1410  22.714  10.980  11.986
28986W        W 1411   3.764   2.437  13.991
28987W        W 1412  10.698   2.894  13.277
28988W        W 1413  24.689  17.689   2.404
28989W        W 1414   9.201   2.703   3.601
28990W        W 1415   8.078  11.205  13.825
28991W        W 1416  40.975  29.038   4.650
28992W        W 1417   0.504  22.578  10.468
28993W        W 1418   6.412  21.127  12.678
28994W        W 1419  33.517   6.863   4.167
28995W        W 1420   8.258  33.531   0.324
28996W        W 1421  33.435   1.567  11.650
28997W        W 1422  19.108  31.923  13.940
28998W        W 1423  20.813  26.049   1.539
28999W        W 1424  39.585  13.165   0.217
29000W        W 1425  33.081  16.876  13.329
29001W        W 1426  44.931  18.173  14.411
29002W        W 1427   5.855   0.215   1.323
29003W        W 1428  41.434  18.208   2.925
29004W        W 1429  34.831  17.674  12.130
29005W        W 1430   6.666  31.522  14.813
29006W        W 1431  29.656  19.468   0.773
29007W        W 1432  13.375   1.804  13.886
29008W        W 1433  39.108  37.484   0.969
29009W        W 1434   6.611  15.329  10.761
29010W        W 1435  36.415  31.600  12.636
29011W        W 1436  19.484  10.912   4.277
29012W        W 1437  40.728  32.638  11.051
29013W        W 1438  21.334  24.470   4.380
29014W        W 1439  27.390  37.772   2.803
29015W        W 1440  44.922  37.086  12.966
29016W        W 1441  16.130   1.283   3.724
29017W        W 1442  10.974   3.873   0.249
29018W        W 1443  27.035   4.547  14.978
29019W        W 1444   3.352   9.969  14.507
29020W        W 1445   8.152   1.979  13.873
29021W        W 1446  30.993  42.818  11.085
29022W        W 1447  29.966  17.431  10.703
29023W        W 1448  30.141  12.227   3.583
29024W        W 1449  19.136  20.150  10.758
29025W        W 1450   3.611  44.535  12.920
29026W        W 1451  29.164  16.884  11.627
29027W        W 1452  14.842  12.625   0.781
29028W        W 1453   8.425   9.337   4.376
29029W        W 1454  38.823  38.159   1.390
29030W        W 1455  16.355  28.075  13.842
29031W        W 1456  37.375  39.817  14.865
29032W        W 1457   1.926  19.509   0.967
29033W        W 1458  38.971  35.477  10.717
29034W        W 1459  20.170   3.653  11.135
29035W        W 1460  21.521   5.821  11.506
29036W        W 1461  16.021  18.048   2.824
29037W        W 1462  36.678  36.999  11.570
29038W        W 1463  22.078  43.965   3.902
29039W        W 1464  12.107   3.760   3.711
29040W        W 1465   4.891  24.618  14.956
29041W        W 1466  26.549  21.917  11.110
29042W        W 1467  13.364  30.049  14.404
29043W        W 1468  35.094   9.843   2.162
29044W        W 1469  43.330  39.492   1.510
29045W        W 1470  36.673  34.149   3.321
29046W        W 1471   3.491  37.944  14.412
29047W        W 1472  33.459  23.541  14.815
29048W        W 1473  13.555  20.473  13.408
29049W        W 1474  15.538  10.652  12.207
29050W        W 1475  23.954  42.834   4.272
29051W        W 1476  25.458  20.735   3.675
29052W        W 1477  30.972  35.007  12.497
29053W        W 1478  42.039   6.196  12.509
29054W        W 1479  20.167   9.910   1.362
29055W        W 1480  36.443   9.761   1.888
29056W        W 1481   5.446  26.255   2.264
29057W        W 1482  10.007  38.647   4.733
29058W        W 1483   7.413  27.000   4.543
29059W        W 1484   4.418   0.049   3.146
29060W        W 1485  31.381  24.567  10.747
29061W        W 1486  31.528   7.144  10.905
29062W        W 1487  39.853  38.796  12.429
29063W        W 1488   4.482  21.217   3.849
29064W        W 1489  35.660  44.010   3.261
29065W        W 1490  15.340  35.383  14.036
29066W        W 1491  30.528  19.157   3.259
29067W        W 1492  18.144  14.524  13.882
29068W        W 1493  29.534  12.876   0.505
29069W        W 1494  32.126  41.125  14.894
29070W        W 1495  31.182  43.991  13.503
29071W        W 1496  10.557  33.394  12.997
29072W        W 1497  38.834  29.730   3.763
29073W        W 1498  41.473  23.576   4.839
29074W        W 1499   7.589   1.482  10.406
29075W        W 1500   8.189  44.479  13.915
29076W        W 1501  13.647  28.106  12.892
29077W        W 1502  39.336   1.347   1.882
29078W        W 1503  26.059  30.488  13.940
29079W        W 1504   3.257  17.329  13.076
29080W        W 1505   1.868  30.998  14.144
29081W        W 1506  14.369   2.696   3.387
29082W        W 1507  22.516  20.363  11.454
29083W        W 1508  25.838  38.457  14.686
29084W        W 1509   2.286  37.278   5.160
29085W        W 1510  13.385  28.857   4.614
29086W        W 1511  31.961  42.467   0.964
29087W        W 1512   9.243  34.971  11.388
29088W        W 1513  16.806  20.242   2.774
29089W        W 1514  23.575  11.137   1.240
29090W        W 1515  42.930   1.292  11.052
29091W        W 1516  41.166  15.854   0.285
29092W        W 1517  33.554  12.153  11.388
29093W        W 1518  39.883  40.886   3.110
29094W        W 1519   4.693  34.500  13.700
29095W        W 1520  18.950  36.393   0.927
29096W        W 1521  23.609  26.501  10.702
29097W        W 1522  25.274   8.583  14.294
29098W        W 1523   0.565  23.804   9.982
29099W        W 1524  20.256  17.754  11.201
29100W        W 1525  13.722  18.192   1.687
29101W        W 1526  14.575  10.384   3.290
29102W        W 1527  15.642  34.313   0.375
29103W        W 1528   4.266   2.944  11.059
29104W        W 1529   0.713  21.458   4.151
29105W        W 1530  24.303  14.597   0.178
29106W        W 1531  42.626  30.231  13.522
29107W        W 1532   1.856  26.137   2.456
29108W        W 1533  38.996   5.960  12.446
29109W        W 1534  34.127  11.656  14.401
29110W        W 1535   7.493   6.242   2.316
29111W        W 1536  22.710  41.418  13.525
29112W        W 1537   8.259   1.817   0.741
29113W        W 1538  14.514   1.793  11.530
29114W        W 1539  32.802  23.758  14.410
29115W        W 1540  21.716  26.689  11.557
29116W        W 1541  38.956  32.469  13.356
29117W        W 1542  44.024   7.844   2.674
29118W        W 1543  24.634  26.509   4.741
29119W        W 1544  38.314  38.399   4.511
29120W        W 1545   7.967   9.215  11.460
29121W        W 1546   5.983  24.900  14.987
29122W        W 1547  37.391  36.566   4.555
29123W        W 1548  12.790   9.577   0.795
29124W        W 1549   4.721  42.549   0.230
29125W        W 1550  10.308  30.023  14.495
29126W        W 1551  18.330  29.514   0.785
29127W        W 1552  31.557  24.191   2.417
29128W        W 1553   6.813  44.263   4.204
29129W        W 1554  20.049   7.693   3.620
29130W        W 1555  43.965  12.287  13.414
29131W        W 1556  34.367  21.049  10.761
29132W        W 1557  18.577  21.023   2.799
29133W        W 1558  20.256  32.398   3.660
29134W        W 1559  15.779  18.049  14.508
29135W        W 1560   8.206   6.978  14.780
29136W        W 1561  21.040  13.568  11.061
29137W        W 1562   2.387  31.132  12.444
29138W        W 1563  15.099  33.799  13.355
29139W        W 1564  12.037  36.870   2.862
29140W        W 1565  21.140  43.490  12.394
29141W        W 1566  41.732  20.942  14.857
29142W        W 1567   4.970   9.591  14.797
29143W        W 1568  32.580  19.112   9.521
29144W        W 1569  28.489  36.081   0.764
29145W        W 1570  41.590  40.053  13.969
29146W        W 1571  34.501  32.044  14.522
29147W        W 1572  18.053  36.349  11.783
29148W        W 1573   0.912  15.638  10.456
29149W        W 1574  20.981  29.591   5.014
29150W        W 1575  14.047  42.314   3.204
29151W        W 1576  30.531   1.159  10.527
29152W        W 1577  36.140  23.056  12.883
29153W        W 1578  37.971   5.278  14.733
29154W        W 1579  38.724  23.031  11.489
29155W        W 1580   6.012  38.032  14.610
29156W        W 1581  32.177  17.074  12.038
29157W        W 1582   2.208  28.537  12.877
29158W        W 1583   0.527   7.361   0.893
29159W        W 1584  11.321  10.594   4.777
29160W        W 1585   7.916  26.569   4.070
29161W        W 1586  18.492  28.670   4.029
29162W        W 1587   2.439   4.146   1.377
29163W        W 1588  24.102  33.514   2.285
29164W        W 1589  24.571  24.814   4.285
29165W        W 1590  31.962  16.738   4.549
29166W        W 1591   9.622   6.517   0.721
29167W        W 1592  15.809  40.541   2.158
29168W        W 1593   4.014   1.265   1.899
29169W        W 1594  42.085  19.334   4.120
29170W        W 1595  38.549  20.953  13.025
29171W        W 1596  27.012  17.767  11.595
29172W        W 1597  34.657   5.950  14.978
29173W        W 1598  26.561  13.270  10.950
29174W        W 1599  30.375  25.712   2.250
29175W        W 1600   4.335  23.465  14.813
29176W        W 1601   9.377  10.802  10.867
29177W        W 1602   4.439  12.577  14.350
29178W        W 1603  28.402   0.890  10.658
29179W        W 1604  25.084  12.518  11.559
29180W        W 1605  10.767  38.044   3.712
29181W        W 1606  25.997  30.643  11.707
29182W        W 1607  33.391  11.147  12.282
29183W        W 1608  42.801  39.532   4.634
29184W        W 1609   4.340  20.786   3.558
29185W        W 1610  15.712  42.919   3.450
29186W        W 1611   9.180  39.093   0.927
29187W        W 1612  30.990  34.471   2.561
29188W        W 1613  33.569  21.252   2.255
29189W        W 1614  23.141  27.342   0.477
29190W        W 1615  10.858  14.146  11.605
29191W        W 1616  12.194  27.788   1.485
29192W        W 1617  25.535   0.242   1.437
29193W        W 1618  12.118   2.151  11.145
29194W        W 1619   5.619  21.085  13.923
29195W        W 1620  19.649   0.810   4.534
29196W        W 1621  30.029   7.589  13.563
29197W        W 1622  39.579  12.783   3.828
29198W        W 1623  21.244  26.924  13.036
29199W        W 1624  31.350   5.429   4.896
29200W        W 1625  38.072  12.790  11.242
29201W        W 1626  41.024  33.557   1.740
29202W        W 1627   0.260  35.390  14.398
29203W        W 1628   4.368   2.716   0.834
29204W        W 1629  37.838  36.493  13.328
29205W        W 1630  29.548   3.744  11.965
29206W        W 1631  23.337   9.745   2.731
29207W        W 1632  42.710  13.227   1.388
29208W        W 1633  32.157  22.561   0.768
29209W        W 1634  35.385  22.263  12.892
29210W        W 1635   8.859  17.035   2.828
29211W        W 1636  18.747   9.294  13.936
29212W        W 1637  40.525  43.543  10.074
29213W        W 1638   9.132  27.020  11.279
29214W        W 1639  25.308  35.909   1.682
29215W        W 1640  35.063  18.802  12.942
29216W        W 1641  19.867  38.089   4.716
29217W        W 1642  18.899  16.575  10.630
29218W        W 1643  23.430  16.573   0.003
29219W        W 1644   7.358   6.360   1.293
29220W        W 1645  25.006  43.912  12.045
29221W        W 1646  21.654  27.650  13.961
29222W        W 1647  24.660  21.508   0.828
29223W        W 1648  13.308  25.123   0.374
29224W        W 1649   0.320  25.248   0.749
29225W        W 1650  34.453  30.667  13.793
29226W        W 1651  31.136  11.818  12.453
29227W        W 1652  25.711  21.071  11.972
29228W        W 1653  27.448  41.475  13.850
29229W        W 1654  16.059  24.052  10.696
29230W        W 1655   6.382  15.841  11.605
29231W        W 1656  10.692  25.070   0.962
29232W        W 1657  38.914  27.925  12.501
29233W        W 1658   5.472   6.792   2.420
29234W        W 1659  18.751   2.018   3.568
29235W        W 1660  20.970  33.353   5.043
29236W        W 1661  18.667  39.608  14.343
29237W        W 1662  24.193  31.836  13.354
29238W        W 1663  18.573  31.456   4.555
29239W        W 1664   8.129  11.668   1.758
29240W        W 1665   7.149   0.899   2.634
29241W        W 1666  19.981  16.335  14.923
29242W        W 1667  44.916  43.014   2.899
29243W        W 1668   8.948  11.793  12.122
29244W        W 1669   1.976  14.607  10.558
29245W        W 1670   8.294   6.796  13.422
29246W        W 1671   3.748  40.455   0.500
29247W        W 1672   1.865   4.476  14.893
29248W        W 1673  43.962   0.649  13.818
29249W        W 1674  42.189  25.493  14.456
29250W        W 1675  43.224  41.945   4.612
29251W        W 1676  30.383   4.480   2.162
29252W        W 1677  37.967  38.413   4.879
29253W        W 1678  26.147  39.323   3.591
29254W        W 1679  33.996  16.651  13.757
29255W        W 1680  42.982  31.809  11.253
29256W        W 1681  10.529   6.616  14.424
29257W        W 1682  18.978  25.762  11.085
29258W        W 1683  27.182  14.498   1.766
29259W        W 1684   0.299  23.462  11.537
29260W        W 1685  15.361  17.049   0.004
29261W        W 1686  39.800  10.128   1.044
29262W        W 1687  12.883   8.500   9.754
29263W        W 1688   1.688  35.843  13.430
29264W        W 1689  15.360  39.932   2.910
29265W        W 1690  14.879  23.182  11.871
29266W        W 1691  18.029  18.726  13.400
29267W        W 1692  20.233  43.910   4.533
29268W        W 1693  12.096  33.050   4.826
29269W        W 1694  39.992  36.502   0.665
29270W        W 1695  38.025  42.316  13.384
29271W        W 1696  16.511  29.885   3.209
29272W        W 1697   4.541  10.930   2.797
29273W        W 1698  13.016   9.228  12.285
29274W        W 1699  12.783   9.816   0.313
29275W        W 1700  12.844  41.436  11.629
29276W        W 1701  18.070  33.239   4.094
29277W        W 1702  14.791  25.616  10.655
29278W        W 1703  24.416  19.500  11.305
29279W        W 1704  17.334  27.097  13.830
29280W        W 1705   2.765  25.730   4.154
29281W        W 1706  26.552  29.054   4.576
29282W        W 1707   3.277   4.954  12.532
29283W        W 1708  31.864  31.127  11.332
29284W        W 1709   3.960   7.690   0.031
29285W        W 1710  35.142  23.103  11.458
29286W        W 1711  35.746  36.032   1.899
29287W        W 1712   1.876  34.872   3.182
29288W        W 1713  42.277  26.550  13.426
29289W        W 1714   8.762   8.154  11.645
29290W        W 1715  32.761  21.149   2.288
29291W        W 1716  32.991  44.760   0.852
29292W        W 1717  19.241   6.909   0.336
29293W        W 1718   9.716   4.632   4.549
29294W        W 1719  43.997  37.266   0.750
29295W        W 1720  39.949  23.506   0.262
29296W        W 1721   3.844  26.027  12.920
29297W        W 1722   9.816  36.041   4.918
29298W        W 1723  43.575  20.439  13.881
29299W        W 1724  22.873   7.228   4.202
29300W        W 1725  15.579  39.414  12.640
29301W        W 1726  12.476  25.528  14.700
29302W        W 1727  23.767  36.553  12.675
29303W        W 1728  16.020  16.013   2.156
29304W        W 1729  23.634   6.444  12.930
29305W        W 1730  13.547  26.616  14.388
29306W        W 1731   7.637  30.628   4.670
29307W        W 1732  42.956  19.551   1.724
29308W        W 1733   1.848  13.842  12.415
29309W        W 1734   0.274   3.841  10.606
29310W        W 1735   7.185  33.382   4.719
29311W        W 1736  10.671  11.904   3.469
29312W        W 1737  25.651   3.201  10.116
29313W        W 1738   3.675   4.307  11.039
29314W        W 1739   1.946  36.939   4.164
29315W        W 1740  24.656  30.427  13.714
29316W        W 1741  32.879  27.216   1.235
29317W        W 1742  18.764   1.750   4.605
29318W        W 1743  23.987  27.174   4.043
29319W        W 1744   1.774  41.393   0.377
29320W        W 1745  16.614   8.679  10.619
29321W        W 1746  14.126  10.673   2.374
29322W        W 1747   6.683  22.111  14.417
29323W        W 1748   8.145  29.599   2.810
29324W        W 1749  42.456   1.901  10.460
29325W        W 1750  30.090  33.870  13.404
29326W        W 1751  18.178  35.064  10.735
29327W        W 1752   7.844  32.627   4.230
29328W        W 1753  29.937  37.007  10.622
29329W        W 1754  16.001  13.177   0.954
29330W        W 1755  29.774  14.544  11.087
29331W        W 1756   6.651   5.652   3.089
29332W        W 1757  21.072  11.579   4.603
29333W        W 1758  29.609  37.271   2.129
29334W        W 1759   2.687  10.571   3.605
29335W        W 1760  29.512  26.664  13.876
29336W        W 1761  42.983  30.185   1.416
29337W        W 1762  19.114   0.996   1.834
29338W        W 1763   1.254  39.619   3.032
29339W        W 1764  36.861  29.913   1.165
29340W        W 1765  35.785  42.978  11.596
29341W        W 1766  23.064  14.391   4.562
29342W        W 1767  29.721  21.825   2.299
29343W        W 1768  21.146  15.587  14.372
29344W        W 1769  30.698   1.052  13.807
29345W        W 1770  12.815  31.148  13.268
29346W        W 1771   2.328  16.261  14.399
29347W        W 1772  28.152  24.182   1.751
29348W        W 1773  15.844  43.984   1.827
29349W        W 1774  33.996  16.597  10.726
29350W        W 1775  30.114  23.049  14.422
29351W        W 1776  19.568  21.237  12.813
29352W        W 1777  24.021  39.801   2.072
29353W        W 1778   0.269  31.494   0.419
29354W        W 1779  42.963  28.711   3.603
29355W        W 1780  33.382  36.200   2.778
29356W        W 1781  41.992   7.705  11.409
29357W        W 1782  30.181  43.962  10.749
29358W        W 1783  33.016  32.647   1.427
29359W        W 1784  15.566  39.063   4.775
29360W        W 1785  37.927  32.414   4.125
29361W        W 1786  28.023  32.182  14.746
29362W        W 1787  12.379   0.623  12.746
29363W        W 1788  21.800  22.418   2.821
29364W        W 1789  18.483  28.477  12.346
29365W        W 1790  41.415  32.003   3.820
29366W        W 1791  17.812   3.390   2.893
29367W        W 1792  39.983  30.084   2.720
29368W        W 1793   7.920  22.565  11.539
29369W        W 1794   5.916  36.843  14.425
29370W        W 1795   8.821  30.100  14.061
29371W        W 1796  31.011  31.049   4.081
29372W        W 1797  24.217  34.518  10.610
29373W        W 1798  18.874  10.696   5.151
29374W        W 1799  28.088  40.066  10.210
29375W        W 1800   9.825  38.260  10.450
29376W        W 1801  40.641  38.979  14.016
29377W        W 1802  25.472  23.135   0.949
29378W        W 1803  22.526  39.813   3.781
29379W        W 1804  22.735   8.756   0.405
29380W        W 1805  39.769  43.488  12.157
29381W        W 1806   1.871   4.812   4.115
29382W        W 1807   5.746  30.349  14.447
29383W        W 1808   7.673  31.631  11.436
29384W        W 1809   5.928  22.814  13.315
29385W        W 1810  37.024  17.709   3.111
29386W        W 1811   4.149  37.504   2.447
29387W        W 1812   3.879   9.766  13.092
29388W        W 1813  33.317   2.898  14.339
29389W        W 1814  41.876  29.103   4.213
29390W        W 1815  40.836  43.211   2.322
29391W        W 1816  44.789  32.094   1.754
29392W        W 1817  13.567  28.563  13.428
29393W        W 1818  40.842  23.952  10.701
29394W        W 1819  43.155  17.726  12.666
29395W        W 1820  13.300  34.618   0.771
29396W        W 1821  43.487  15.671   4.065
29397W        W 1822  23.193   4.740   2.372
29398W        W 1823  15.012  42.987   2.226
29399W        W 1824  32.457  19.604   4.378
29400W        W 1825   5.494  21.593   4.309
29401W        W 1826   5.323  36.111   3.395
29402W        W 1827  36.360  28.364   3.317
29403W        W 1828  40.001  21.050   3.647
29404W        W 1829  13.161  17.307   1.877
29405W        W 1830  40.201  30.105   3.216
29406W        W 1831  26.267  43.914  14.338
29407W        W 1832  33.321  22.559  10.512
29408W        W 1833  33.196  24.577  12.477
29409W        W 1834   9.854   0.876   0.033
29410W        W 1835  38.987  33.272   3.687
29411W        W 1836  36.937  10.770  14.904
29412W        W 1837  39.506   5.406   4.592
29413W        W 1838  42.424  41.780   3.054
29414W        W 1839  40.623  22.845   2.681
29415W        W 1840   3.436   5.749  13.027
29416W        W 1841  35.577  43.366  11.995
29417W        W 1842   2.820  26.640  13.812
29418W        W 1843  15.635  10.419   3.253
29419W        W 1844  16.912  16.296  12.321
29420W        W 1845  23.653  19.653  14.360
29421W        W 1846  31.956  26.302   2.624
29422W        W 1847  11.587  20.175   4.646
29423W        W 1848  21.383  39.100  10.770
29424W        W 1849  42.653  22.199  13.753
29425W        W 1850  17.390  14.654   1.694
29426W        W 1851  43.285   8.075  11.587
29427W        W 1852  29.389  25.721  10.726
29428W        W 1853  13.690  19.718  14.543
29429W        W 1854   4.838  38.531  12.839
29430W        W 1855  39.585  39.137  11.691
29431W        W 1856  33.486  38.950   3.977
29432W        W 1857  17.317   2.542   1.878
29433W        W 1858  32.856  21.982   2.841
29434W        W 1859  11.543   2.345  14.519
29435W        W 1860   3.649  22.241   0.859
29436W        W 1861  16.213  30.132  14.473
29437W        W 1862   1.853  16.164   2.143
29438W        W 1863  23.076  35.040  13.668
29439W        W 1864  30.608  20.050  13.114
29440W        W 1865  29.007  21.751  14.893
29441W        W 1866  38.105   5.576  11.025
29442W        W 1867  16.360   4.325   1.333
29443W        W 1868  39.643   4.309   3.430
29444W        W 1869   5.741  39.127  12.605
29445W        W 1870  37.779  25.232   2.786
29446W        W 1871  14.063  26.605  14.279
29447W        W 1872   8.184  34.906  12.036
29448W        W 1873   3.836   7.411   2.663
29449W        W 1874   2.430   9.798   0.324
29450W        W 1875  30.558  34.569  14.559
29451W        W 1876  32.401  11.472  10.938
29452W        W 1877  41.519  11.672   0.452
29453W        W 1878  11.645  26.198  12.892
29454W        W 1879  36.068  24.966   2.574
29455W        W 1880  21.189  18.603  13.822
29456W        W 1881   6.958  15.710   3.659
29457W        W 1882  12.083  10.222  10.626
29458W        W 1883  35.522  24.972   0.309
29459W        W 1884  22.273  41.257   1.263
29460W        W 1885   2.474  23.129   1.947
29461W        W 1886   0.155  21.726   0.387
29462W        W 1887   9.347  37.102   2.104
29463W        W 1888  44.419  15.225   2.231
29464W        W 1889  14.783  27.550   1.314
29465W        W 1890   5.344  17.259   2.098
29466W        W 1891   3.141   5.836  11.945
29467W        W 1892   7.801  41.968  12.179
29468W        W 1893   5.406  15.559  14.880
29469W        W 1894  10.633  37.853   4.859
29470W        W 1895   1.647  18.095   3.246
29471W        W 1896  24.069  29.401  14.405
29472W        W 1897  26.128  37.729   0.810
29473W        W 1898   1.372   7.208  10.691
29474W        W 1899  18.303   5.222   1.847
29475W        W 1900  39.766  15.576  12.910
29476W        W 1901  32.437   1.860  11.603
29477W        W 1902  41.577  42.447  11.449
29478W        W 1903  17.337  39.357  12.463
29479W        W 1904   8.352  42.289  12.864
29480W        W 1905   8.716  17.292   2.423
29481W        W 1906  34.947  39.023   5.479
29482W        W 1907   0.262   1.078  14.253
29483W        W 1908  29.248   3.778   4.772
29484W        W 1909  25.613  11.220   1.840
29485W        W 1910  11.736   9.285  13.819
29486W        W 1911  19.074  39.611   4.180
29487W        W 1912  13.408  14.700  13.289
29488W        W 1913  35.870  38.963   3.305
29489W        W 1914  17.908  19.243  11.391
29490W        W 1915   3.313  28.233   0.285
29491W        W 1916  40.482  18.307   4.495
29492W        W 1917  32.650   8.345  12.914
29493W        W 1918  13.967  31.570   0.483
29494W        W 1919  14.781  26.087   0.255
29495W        W 1920  11.910  33.737  12.468
29496W        W 1921  31.383   0.487   0.333
29497W        W 1922  25.628  22.531   0.283
29498W        W 1923  10.401  26.902   0.005
29499W        W 1924   8.064   7.611   1.869
29500W        W 1925  12.799   3.444   2.209
29501W        W 1926  31.587  26.429   1.148
29502W        W 1927   3.970   7.747  13.666
29503W        W 1928  10.850  41.104  14.341
29504W        W 1929   1.487   9.346  14.496
29505W        W 1930  27.557  20.288   2.723
29506W        W 1931  41.843  11.678   1.791
29507W        W 1932  13.878  32.477   0.938
29508W        W 1933  13.221  26.697   0.440
29509W        W 1934  27.964   5.266  12.060
29510W        W 1935  19.785  31.468   1.319
29511W        W 1936  20.524  37.475   2.260
29512W        W 1937  28.065   9.877   1.871
29513W        W 1938  31.636   0.746   3.256
29514W        W 1939  12.723  43.291   1.745
29515W        W 1940  31.511   6.886   4.127
29516W        W 1941  30.727   2.299   3.771
29517W        W 1942  41.452  12.188   0.455
29518W        W 1943  26.863  44.537   0.087
29519W        W 1944   7.590  19.434   1.417
29520W        W 1945   6.331  25.768  12.902
29521W        W 1946  28.761   5.380   4.112
29522W        W 1947  10.654   7.393  13.928
29523W        W 1948  21.210   8.741  10.564
29524W        W 1949  31.623  22.158  10.953
29525W        W 1950  27.253  33.571   1.613
29526W        W 1951  12.381  28.417  14.024
29527W        W 1952   8.353  39.805   5.032
29528W        W 1953   7.430  34.820   0.371
29529W        W 1954  37.380  13.593  13.056
29530W        W 1955  12.586  18.675  10.749
29531W        W 1956  25.770  27.225  12.052
29532W        W 1957  44.495  29.912   2.879
29533W        W 1958  14.696   3.662   1.003
29534W        W 1959   6.342  14.036   0.678
29535W        W 1960  38.056  39.510  11.089
29536W        W 1961  34.857   6.403  14.802
29537W        W 1962  12.265   8.161   2.407
29538W        W 1963  18.637  18.567   4.434
29539W        W 1964   0.440  36.023   3.453
29540W        W 1965  33.751  28.166   2.183
29541W        W 1966   7.804   5.629   1.029
29542W        W 1967  15.090   4.326   3.539
29543W        W 1968   6.835  19.042   0.349
29544W        W 1969  14.571  38.340   4.480
29545W        W 1970  11.766  23.710  13.314
29546W        W 1971  43.543  32.326  13.361
29547W        W 1972  33.773  25.675  12.915
29548W        W 1973  34.402  20.723   0.500
29549W        W 1974   0.458  35.847  14.523
29550W        W 1975  42.332  25.274  13.053
29551W        W 1976  30.592  29.614   4.857
29552W        W 1977  19.765  37.863   1.364
29553W        W 1978  17.104  30.464  12.188
29554W        W 1979  37.645  34.993  13.446
29555W        W 1980  39.102  16.157   1.984
29556W        W 1981  34.631   2.838   1.756
29557W        W 1982   6.849   3.209   0.223
29558W        W 1983  16.719  35.574  14.959
29559W        W 1984  35.924  41.467   2.678
29560W        W 1985  14.838  36.329   3.091
29561W        W 1986  20.277   6.328   3.236
29562W        W 1987  18.055  13.603  10.582
29563W        W 1988  32.653  10.649  12.673
29564W        W 1989   7.619   3.448  14.784
29565W        W 1990  39.355  42.355   1.054
29566W        W 1991   5.841  41.440  14.705
29567W        W 1992  14.307   9.107   0.788
29568W        W 1993  24.309  36.989  11.147
29569W        W 1994  11.245  18.732   3.965
29570W        W 1995  34.997  36.336   0.278
29571W        W 1996  36.395  10.258   0.328
29572W        W 1997  35.035  16.049  14.041
29573W        W 1998  31.432  25.257  11.088
29574W        W 1999   3.427  22.390   2.907
29575W        W 2000  37.542  10.392  12.828
29576W        W 2001  42.068  16.196  13.319
29577W        W 2002   8.720  10.201  10.602
29578W        W 2003  27.894  15.596   2.294
29579W        W 2004  23.732  12.139   1.441
29580W        W 2005  27.602   1.922  12.873
29581W        W 2006  26.265  16.072   0.755
29582W        W 2007  24.154  12.077  11.559
29583W        W 2008  25.638  25.422  11.997
29584W        W 2009  44.262  16.768   3.440
29585W        W 2010  15.026  41.844   2.441
29586W        W 2011  30.711  40.554   0.824
29587W        W 2012  39.846   5.394  10.687
29588W        W 2013   7.221  38.805  13.813
29589W        W 2014  40.472   2.280   0.565
29590W        W 2015  41.086  21.179   5.106
29591W        W 2016  19.651  17.370  12.008
29592W        W 2017  44.273   6.718   2.850
29593W        W 2018  22.118  10.296   3.702
29594W        W 2019  12.079   0.571   3.354
29595W        W 2020  27.480  41.915   2.852
29596W        W 2021  30.060   0.938  10.653
29597W        W 2022  36.972   7.677  13.560
29598W        W 2023  14.694  27.743  14.495
29599W        W 2024  23.987  30.369  11.572
29600W        W 2025  11.121  39.328   4.221
29601W        W 2026  20.851  35.184  11.105
29602W        W 2027  11.815  44.969   0.003
29603W        W 2028  10.175  20.266  14.308
29604W        W 2029  14.107   7.971   3.803
29605W        W 2030  14.728  20.198   4.070
29606W        W 2031  25.283  41.038   0.612
29607W        W 2032  38.608   0.818   0.853
29608W        W 2033  24.655  36.989   1.439
29609W        W 2034  35.350  18.683  10.753
29610W        W 2035  15.950  41.197   4.588
29611W        W 2036  44.547   8.954  12.159
29612W        W 2037  15.703  44.338  13.936
29613W        W 2038  29.494   5.682  12.628
29614W        W 2039  12.277  17.318   1.784
29615W        W 2040  30.572   4.166  10.828
29616W        W 2041  23.252  11.445  10.825
29617W        W 2042  26.769  30.406  14.497
29618W        W 2043  32.905  41.619  11.841
29619W        W 2044  32.524   3.498   2.318
29620W        W 2045  10.653   1.480   2.137
29621W        W 2046   0.827  36.879  12.881
29622W        W 2047  34.985   5.221   0.159
29623W        W 2048  23.000  25.186  11.347
29624W        W 2049  22.068   2.799   2.304
29625W        W 2050  30.744   4.754  13.362
29626W        W 2051  33.824  31.411   4.331
29627W        W 2052  29.314  12.780  12.244
29628W        W 2053   9.662  13.297   1.991
29629W        W 2054   4.995  37.169  12.481
29630W        W 2055  27.184  21.225   1.851
29631W        W 2056  32.179  26.029  10.684
29632W        W 2057   6.360   7.600   0.276
29633W        W 2058  29.952  12.616  13.929
29634W        W 2059  43.843   1.941   3.707
29635W        W 2060   6.186  28.128  13.926
29636W        W 2061   3.282   6.762   3.633
29637W        W 2062  39.132   3.959   4.645
29638W        W 2063  36.628  34.899  10.650
29639W        W 2064  28.823   4.924   1.267
29640W        W 2065  32.982   7.751  13.054
29641W        W 2066  41.274  35.874  13.426
29642W        W 2067   0.187  32.044  14.863
29643W        W 2068  18.151  41.797  10.665
29644W        W 2069  35.554   2.827  12.401
29645W        W 2070  32.924   7.418  10.615
29646W        W 2071  20.801  28.921   0.291
29647W        W 2072  27.571  32.533   9.518
29648W        W 2073  15.007  26.505   0.740
29649W        W 2074  25.317  36.727   2.316
29650W        W 2075   5.282  40.104  11.611
29651W        W 2076  29.291  16.769  12.963
29652W        W 2077  15.754   6.712  12.041
29653W        W 2078  33.309  20.016  13.216
29654W        W 2079   6.769  37.268   4.714
29655W        W 2080   5.968  10.014   4.095
29656W        W 2081  30.051  27.136   1.028
29657W        W 2082  18.223  15.447   3.543
29658W        W 2083  20.226  32.212  10.597
29659W        W 2084   3.181  15.667  12.566
29660W        W 2085  43.983   2.687   2.965
29661W        W 2086  36.117  22.597   0.031
29662W        W 2087  12.889  40.618   0.449
29663W        W 2088  24.408  34.527   2.917
29664W        W 2089  10.844  36.671   0.086
29665W        W 2090  19.289  39.448  12.921
29666W        W 2091  39.310   7.485  11.060
29667W        W 2092   4.971  41.990   0.200
29668W        W 2093  44.914  16.696   2.267
29669W        W 2094   3.229  42.522  12.056
29670W        W 2095  28.065  24.296  14.004
29671W        W 2096   6.123  24.281  11.542
29672W        W 2097   0.074   0.491  14.891
29673W        W 2098  12.634  10.202   3.668
29674W        W 2099  10.081  21.481   4.155
29675W        W 2100  42.340  37.748  11.287
29676W        W 2101  14.412  24.313  10.268
29677W        W 2102  18.714  14.117  10.097
29678W        W 2103   5.240  21.247   2.005
29679W        W 2104  32.681  20.017  14.743
29680W        W 2105  25.474  42.740   2.249
29681W        W 2106  15.675  14.228   0.730
29682W        W 2107  38.870  35.687  11.171
29683W        W 2108  23.035  11.812   2.206
29684W        W 2109  43.274  29.492   1.635
29685W        W 2110   0.450  22.660   4.477
29686W        W 2111  12.916  24.670  11.031
29687W        W 2112  13.463  16.246   4.250
29688W        W 2113   1.346  31.643   2.879
29689W        W 2114  37.479  19.771   3.350
29690W        W 2115   4.847  31.703  10.239
29691W        W 2116  24.552  11.027  13.356
29692W        W 2117  21.918  12.787  12.531
29693W        W 2118  33.923  26.387  10.698
29694W        W 2119   0.313  38.293   3.684
29695W        W 2120  14.684  39.460   3.894
29696W        W 2121  35.436   7.600  13.101
29697W        W 2122  16.999  19.608  11.556
29698W        W 2123  33.553  37.593   1.699
29699W        W 2124  41.957  25.478   2.319
29700W        W 2125   3.462  10.791   4.020
29701W        W 2126  29.587  31.760  14.848
29702W        W 2127  44.521  16.185  14.293
29703W        W 2128  33.689  43.752  10.176
29704W        W 2129  29.984   0.697  12.362
29705W        W 2130   9.085   9.056   0.802
29706W        W 2131  43.207  42.033   3.670
29707W        W 2132  29.070  31.870   3.907
29708W        W 2133  42.339  14.597   4.110
29709W        W 2134  33.368  18.021   4.598
29710W        W 2135  19.692   2.729   4.138
29711W        W 2136  25.503   3.226   2.741
29712W        W 2137  23.758  22.265  10.475
29713W        W 2138   2.190  31.917   3.631
29714W        W 2139   3.233  16.533   1.464
29715W        W 2140  16.646   6.776   1.817
29716W        W 2141  11.789  17.127  11.514
29717W        W 2142  40.463  10.780  13.399
29718W        W 2143  13.612  22.907  12.670
29719W        W 2144  11.076  29.413  10.661
29720W        W 2145   3.354   7.076   2.312
29721W        W 2146   5.374  35.479  13.845
29722W        W 2147  35.115   0.815  14.824
29723W        W 2148  22.548  40.956   3.789
29724W        W 2149   5.622  16.803  12.439
29725W        W 2150  18.799   8.884  11.987
29726W        W 2151  15.626  33.888  14.023
29727W        W 2152  35.946  23.038  10.264
29728W        W 2153  37.783  39.174   0.462
29729W        W 2154  23.676  42.193   3.580
29730W        W 2155  15.833   3.335   4.100
29731W        W 2156  19.290  41.036  10.756
29732W        W 2157  42.149  44.392  10.365
29733W        W 2158  23.523  14.106  14.750
29734W        W 2159   3.429   5.231  13.009
29735W        W 2160   8.596  38.582  11.076
29736W        W 2161  15.587  32.948   4.062
29737W        W 2162  42.245  15.219   1.048
29738W        W 2163  30.201  26.212  10.761
29739W        W 2164  23.739  24.542  13.982
29740W        W 2165   6.521  20.804   1.722
29741W        W 2166  15.100  20.593  11.857
29742W        W 2167  30.666  32.179  14.355
29743W        W 2168   9.720  44.424  12.222
29744W        W 2169  39.383  30.280  12.445
29745W        W 2170   9.906  22.728  11.022
29746W        W 2171  11.719  37.952   1.190
29747W        W 2172  27.280   3.531  11.090
29748W        W 2173  30.443  11.380  12.563
29749W        W 2174  28.914   5.283  13.303
29750W        W 2175  16.093  40.508  13.156
29751W        W 2176  38.956   5.334   0.853
29752W        W 2177  17.996  23.042  14.978
29753W        W 2178  43.884  35.007   1.393
29754W        W 2179  41.758   6.401   2.385
29755W        W 2180  13.832  42.863  14.809
29756W        W 2181  14.699   8.128  13.911
29757W        W 2182  27.478  26.502   3.218
29758W        W 2183  10.954  38.947  14.776
29759W        W 2184  37.971  27.997  14.536
29760W        W 2185   8.447  25.324   0.700
29761W        W 2186  14.061  13.666   2.399
29762W        W 2187  18.963   3.274   3.787
29763W        W 2188  10.693  21.986   0.475
29764W        W 2189  40.564  36.022  13.855
29765W        W 2190  19.525  43.508  10.762
29766W        W 2191  23.286   5.234  11.489
29767W        W 2192  43.510   8.652   0.874
29768W        W 2193  29.149  29.119   2.416
29769W        W 2194   5.680  28.592   0.209
29770W        W 2195  35.565  26.524  13.948
29771W        W 2196  25.551  35.827  11.556
29772W        W 2197  21.562   8.771  14.326
29773W        W 2198  35.065  39.332  13.431
29774W        W 2199   6.766  44.319   0.502
29775W        W 2200  13.577  43.414   2.705
29776W        W 2201   7.179   7.055  11.522
29777W        W 2202   7.708  37.879   3.736
29778W        W 2203  41.287  18.927  11.179
29779W        W 2204   3.885   2.873   3.875
29780W        W 2205  11.053  24.213  11.278
29781W        W 2206  27.219  26.045  13.120
29782W        W 2207  30.482   5.898  13.098
29783W        W 2208  40.153  38.289  13.669
29784W        W 2209  25.994  13.374  11.566
29785W        W 2210  38.501  33.074   1.369
29786W        W 2211  32.220  26.864  14.026
29787W        W 2212  23.028  14.090   3.105
29788W        W 2213  35.654  13.069  14.326
29789W        W 2214  17.801  26.812   2.324
29790W        W 2215  38.145  35.789   2.212
29791W        W 2216  17.300  14.508   4.526
29792W        W 2217   1.891   0.955   4.476
29793W        W 2218  43.105  13.603   2.098
29794W        W 2219   8.724  15.315  10.478
29795W        W 2220   1.529  44.037   4.151
29796W        W 2221  34.061  25.182  12.789
29797W        W 2222  33.163  39.840   4.104
29798W        W 2223   9.084   8.356   3.747
29799W        W 2224  41.288   0.428  14.290
29800W        W 2225  14.733  27.817  12.131
29801W        W 2226   7.721  21.766   4.238
29802W        W 2227   8.834  43.464   1.797
29803W        W 2228  15.202  24.147   1.178
29804W        W 2229  32.573  13.902  13.778
29805W        W 2230  11.898   4.141  12.974
29806W        W 2231  25.057  31.152   4.958
29807W        W 2232  39.944  27.964  12.486
29808W        W 2233   5.787  19.943   2.325
29809W        W 2234  19.439   5.897   0.719
29810W        W 2235  38.740   5.983  14.861
29811W        W 2236  12.818  25.409   0.519
29812W        W 2237  11.145  33.819  10.714
29813W        W 2238  10.329  13.235   0.914
29814W        W 2239  16.686  39.057  12.057
29815W        W 2240  28.916  32.687   5.364
29816W        W 2241  18.202  41.592   4.428
29817W        W 2242  25.658  17.985   1.194
29818W        W 2243  29.038   0.383  11.949
29819W        W 2244  29.435  35.563   5.027
29820W        W 2245  13.619  30.115   0.466
29821W        W 2246   7.573  13.180   3.762
29822W        W 2247  32.669  10.061   0.394
29823W        W 2248   6.860  21.488   3.660
29824W        W 2249  15.243  35.909  10.869
29825W        W 2250  28.716  14.583  11.117
29826W        W 2251  18.277  43.845  13.595
29827W        W 2252  40.134  26.115   1.313
29828W        W 2253  26.839  11.876  11.855
29829W        W 2254   0.457  40.875   4.266
29830W        W 2255  18.381  14.148   2.619
29831W        W 2256  13.645  25.655  12.068
29832W        W 2257  10.101  42.333   2.290
29833W        W 2258  36.074   4.010  12.369
29834W        W 2259  38.480  29.368   0.075
29835W        W 2260  42.589  41.996   0.541
29836W        W 2261  14.275  28.569   3.731
29837W        W 2262  14.688  25.567  11.157
29838W        W 2263  19.689  13.667   1.869
29839W        W 2264  17.572  39.583  12.051
29840W        W 2265  14.836  13.203   2.369
29841W        W 2266  28.271   5.325   0.662
29842W        W 2267  44.811  18.581   0.196
29843W        W 2268  26.462  34.212   4.091
29844W        W 2269  38.367  41.139   4.650
29845W        W 2270  10.432  40.347  12.806
29846W        W 2271   8.977  38.906   0.077
29847W        W 2272  31.189  29.933   2.216
29848W        W 2273  27.635  42.956  12.867
29849W        W 2274  35.999   3.608  13.775
29850W        W 2275  38.401  29.725   2.182
29851W        W 2276  15.031  12.809  13.392
29852W        W 2277   0.231   8.120   3.331
29853W        W 2278  39.287  13.738   2.841
29854W        W 2279  24.198  13.627   4.613
29855W        W 2280  21.020  12.304   2.722
29856W        W 2281  26.565  41.306   2.401
29857W        W 2282   4.393  19.721   0.549
29858W        W 2283  28.080   6.143  10.292
29859W        W 2284  21.250  30.199   4.456
29860W        W 2285  10.082  11.624   1.202
29861W        W 2286  26.410   0.228  14.010
29862W        W 2287  36.983  38.615  13.252
29863W        W 2288  16.780  11.630  13.993
29864W        W 2289  39.420  22.493  11.423
29865W        W 2290  20.521  35.484   1.864
29866W        W 2291   6.628   5.943   3.517
29867W        W 2292  13.745  22.750   1.927
29868W        W 2293   7.464   8.804   1.976
29869W        W 2294  30.137  26.507   3.711
29870W        W 2295  11.223   6.618   1.833
29871W        W 2296  40.233   5.472  12.033
29872W        W 2297  20.548  17.796   0.269
29873W        W 2298  40.352  41.372  13.537
29874W        W 2299  12.852  39.373  12.792
29875W        W 2300  23.507   3.000   2.184
29876W        W 2301  37.848  19.703   1.250
29877W        W 2302  13.551  34.559  14.387
29878W        W 2303  13.503  36.547   2.760
29879W        W 2304  22.599   4.972   3.527
29880W        W 2305   6.464  15.530   4.037
29881W        W 2306  34.945   7.469   4.032
29882W        W 2307  27.754   2.319  11.136
29883W        W 2308  21.749   7.223  10.388
29884W        W 2309  28.177   1.349  10.735
29885W        W 2310  13.783  20.590  10.708
29886W        W 2311  14.711  42.042  14.860
29887W        W 2312  27.099  32.667  10.228
29888W        W 2313  35.077  25.729   3.779
29889W        W 2314  25.054  36.030   0.707
29890W        W 2315  16.811  12.134  10.831
29891W        W 2316  37.346   7.139  12.986
29892W        W 2317  41.926  23.145  11.135
29893W        W 2318  22.560  16.847  10.299
29894W        W 2319  43.480  35.514  12.902
29895W        W 2320   8.944   2.655   4.866
29896W        W 2321  31.842  30.460  14.328
29897W        W 2322  35.551  44.249   3.765
29898W        W 2323  39.106  18.089  11.516
29899W        W 2324  25.651  14.603   0.775
29900W        W 2325  16.689   8.907   4.534
29901W        W 2326   4.864   7.828   0.308
29902W        W 2327  44.843  28.661   2.715
29903W        W 2328  25.734   6.237   0.933
29904W        W 2329  41.601  10.392  11.983
29905W        W 2330  38.556  18.836   2.893
29906W        W 2331  31.136  38.129  11.375
29907W        W 2332  15.673   3.815   1.459
29908W        W 2333   6.400  12.345  14.398
29909W        W 2334  44.783   0.281   1.235
29910W        W 2335  27.033  10.109   0.938
29911W        W 2336  34.589  28.664  11.618
29912W        W 2337  34.055  41.284   0.925
29913W        W 2338  33.101  13.729   2.695
29914W        W 2339  16.731   6.413  10.947
29915W        W 2340  25.046  44.787  11.872
29916W        W 2341  26.493  30.492  12.971
29917W        W 2342  39.853  16.681  13.548
29918W        W 2343   3.794  38.011   1.015
29919W        W 2344  37.569  25.513  10.188
29920W        W 2345  40.890  34.702  11.450
29921W        W 2346  13.739  29.703   1.256
29922W        W 2347  33.263  29.061   4.748
29923W        W 2348   0.308   4.336   2.939
29924W        W 2349   4.667  10.599   1.430
29925W        W 2350   7.266  36.049  12.124
29926W        W 2351   3.704   7.925   4.144
29927W        W 2352   8.500  11.842   0.310
29928W        W 2353  21.160  17.660  13.238
29929W        W 2354  17.194   7.304   4.620
29930W        W 2355   2.587  13.836   1.905
29931W        W 2356  18.407  31.218   4.148
29932W        W 2357   1.891  24.535  14.758
29933W        W 2358   9.886   7.415  13.160
29934W        W 2359  35.878   9.320   3.145
29935W        W 2360  39.673  40.191  13.465
29936W        W 2361  13.568  20.029  14.092
29937W        W 2362  14.897  39.397  10.538
29938W        W 2363   6.695  36.267  10.717
29939W        W 2364  37.372  44.612  12.254
29940W        W 2365  10.954   7.674  10.637
29941W        W 2366  44.406  33.876   3.667
29942W        W 2367   8.428   9.646  11.975
29943W        W 2368  18.188  31.846   5.171
29944W        W 2369  21.201  28.460  11.130
29945W        W 2370  19.649   1.985  11.145
29946W        W 2371  14.733  26.036  10.961
29947W        W 2372  21.856   5.663  12.036
29948W        W 2373   4.177  43.372  14.261
29949W        W 2374  10.202  40.594   1.340
29950W        W 2375  20.090  10.065   0.837
29951W        W 2376  21.284  17.244   1.922
29952W        W 2377  34.460  24.651   1.167
29953W        W 2378   2.974  12.311  13.493
29954W        W 2379  16.765   3.883   4.130
29955W        W 2380  43.437  34.108   0.150
29956W        W 2381  14.325  42.743   3.100
29957W        W 2382  29.590   8.287   4.205
29958W        W 2383  22.921  30.189  11.433
29959W        W 2384  13.175  24.544   4.790
29960W        W 2385  34.451  40.486   3.426
29961W        W 2386   0.604  18.570   0.929
29962W        W 2387  31.099  34.599  13.223
29963W        W 2388  16.136  28.900   0.355
29964W        W 2389  32.813  17.426  14.061
29965W        W 2390  11.101  13.879  14.062
29966W        W 2391  14.253  35.949  13.098
29967W        W 2392  42.012  36.190  11.112
29968W        W 2393  18.037  37.437   3.611
29969W        W 2394  36.475  26.322  10.767
29970W        W 2395   9.066  14.899  10.439
29971W        W 2396  10.527   3.795  14.302
29972W        W 2397  38.295  37.704   3.271
29973W        W 2398  28.679   2.862  10.589
29974W        W 2399  35.513   7.139   3.262
29975W        W 2400   2.964   8.651   4.091
29976W        W 2401  42.411  38.913   3.289
29977W        W 2402  29.084  20.784   0.077
29978W        W 2403  13.713  37.548   0.313
29979W        W 2404  26.507  43.711  12.547
29980W        W 2405  11.812   0.439  14.758
29981W        W 2406  32.422  33.574   0.236
29982W        W 2407  28.010  27.825   3.890
29983W        W 2408  41.909  38.826   1.188
29984W        W 2409  19.020   6.630   0.954
29985W        W 2410  40.078  16.611   1.217
29986W        W 2411  27.978  19.790   1.822
29987W        W 2412  28.412   1.431  13.912
29988W        W 2413  24.795  25.390   3.640
29989W        W 2414  43.942   6.004   0.455
29990W        W 2415  29.861  25.594   2.197
29991W        W 2416  13.993  13.623  10.459
29992W        W 2417  10.664  12.322   0.814
29993W        W 2418  35.428  39.838   3.168
29994W        W 2419   7.809  24.178  13.420
29995W        W 2420  40.965  18.069   0.813
29996W        W 2421  23.391  24.328   1.901
29997W        W 2422  24.586   9.786  10.131
29998W        W 2423  14.676  20.054   3.129
29999W        W 2424  39.560  35.345   1.398
30000W        W 2425  15.267  32.596   1.823
30001W        W 2426  35.590   5.751   1.807
30002W        W 2427  35.560  19.171  11.530
30003W        W 2428  29.025  10.192   1.307
30004W        W 2429  30.374   4.194   1.724
30005W        W 2430  38.331  16.568   1.859
30006W        W 2431  36.429  22.823   5.009
30007W        W 2432  25.118  21.219   0.894
30008W        W 2433  44.998   3.379  12.503
30009W        W 2434   3.143   4.345   0.681
30010W        W 2435   5.827  14.875  13.246
30011W        W 2436  40.696  10.917  14.049
30012W        W 2437  20.994  12.528  12.396
30013W        W 2438   7.728  32.624  13.294
30014W        W 2439  28.802  24.469   3.034
30015W        W 2440  40.132   9.700   2.770
30016W        W 2441  31.229  25.014  10.524
30017W        W 2442  42.417   8.633  11.976
30018W        W 2443   5.884  24.721  14.285
30019W        W 2444  19.954   5.016   3.680
30020W        W 2445   1.320  20.121   3.175
30021W        W 2446  13.347  37.037   1.720
30022W        W 2447   9.595  16.658  10.732
30023W        W 2448  10.620  35.636   1.331
30024W        W 2449  16.944  34.930   1.798
30025W        W 2450   0.624  15.300  11.889
30026W        W 2451   7.915  37.966   4.201
30027W        W 2452  14.701   1.938   1.697
30028W        W 2453  43.966   5.130   0.819
30029W        W 2454  31.216  35.897  13.150
30030W        W 2455  35.314  13.725   4.358
30031W        W 2456  31.505   5.415   4.403
30032W        W 2457  15.616  37.525  13.054
30033W        W 2458  43.835  29.423  13.635
30034W        W 2459  39.976  38.108   2.176
30035W        W 2460  13.099  43.838  11.578
30036W        W 2461  40.431   2.040   3.272
30037W        W 2462   9.845   0.808   3.503
30038W        W 2463  44.489   3.246  13.910
30039W        W 2464  22.596  36.188  13.411
30040W        W 2465  39.576  29.526   1.445
30041W        W 2466  38.885  43.108  13.113
30042W        W 2467  36.602  43.294  12.812
30043W        W 2468  38.005  23.214  14.961
30044W        W 2469  13.100  18.225  14.021
30045W        W 2470   4.977   0.266  12.838
30046W        W 2471  38.956  25.162  10.285
30047W        W 2472  25.999  16.706   1.210
30048W        W 2473  10.105  31.537  14.452
30049W        W 2474  18.252  32.652  12.532
30050W        W 2475  23.836  37.925   0.689
30051W        W 2476  17.183  43.142   4.481
30052W        W 2477  42.278   5.853   3.695
30053W        W 2478  24.683  26.219   4.304
30054W        W 2479  43.824   9.469  12.410
30055W        W 2480  41.979  33.850   4.222
30056W        W 2481  24.529  33.151   1.137
30057W        W 2482  19.945  43.053  11.928
30058W        W 2483  33.328  31.187  13.768
30059W        W 2484  42.820  37.964   0.437
30060W        W 2485  14.121  24.546  14.381
30061W        W 2486  15.685   6.576  14.889
30062W        W 2487  16.728  15.078   0.658
30063W        W 2488  13.769  39.419  13.739
30064W        W 2489  22.557  26.560  12.483
30065W        W 2490   9.257  41.353  11.195
30066W        W 2491  27.265  38.267   2.658
30067W        W 2492  31.145  15.114  10.599
30068W        W 2493  15.856  13.164   2.360
30069W        W 2494  28.964  16.539   2.939
30070W        W 2495  28.474  24.943   3.775
30071W        W 2496  44.805   1.825  13.565
30072W        W 2497  26.940  25.698   1.388
30073W        W 2498  29.991  17.288   4.487
30074W        W 2499  14.062   8.691  11.212
30075W        W 2500  25.047  30.673  11.464
30076W        W 2501  40.547  43.759  12.352
30077W        W 2502  32.491   5.295  13.661
30078W        W 2503  19.830  19.115   4.068
30079W        W 2504  10.079  30.965  12.629
30080W        W 2505  43.487  37.506   3.243
30081W        W 2506  10.931  13.300  14.961
30082W        W 2507  35.859   2.193   4.110
30083W        W 2508   5.484  25.400  12.794
30084W        W 2509  15.253  17.596  10.637
30085W        W 2510  23.151  25.758  12.527
30086W        W 2511  22.740  18.713   1.640
30087W        W 2512  42.797   2.900   2.267
30088W        W 2513   9.334   3.740  11.987
30089W        W 2514   9.080   5.885   0.957
30090W        W 2515  39.769  40.452   2.337
30091W        W 2516   7.754  25.045  11.272
30092W        W 2517  21.721  34.307   0.046
30093W        W 2518  39.140   1.851   1.864
30094W        W 2519  39.396   3.970   1.297
30095W        W 2520  24.115  36.481  11.077
30096W        W 2521  22.644  39.475  10.731
30097W        W 2522  24.546   0.851   2.686
30098W        W 2523  18.693  39.046  14.420
30099W        W 2524  18.213   3.534   4.196
30100W        W 2525  24.670  17.771   2.908
30101W        W 2526   9.758  20.453  14.548
30102W        W 2527   0.247  11.529  12.049
30103W        W 2528   6.881  36.089   2.356
30104W        W 2529  30.489   7.915   1.458
30105W        W 2530   6.152  10.342  12.190
30106W        W 2531  20.094  21.664   1.859
30107W        W 2532  20.962  11.572   0.458
30108W        W 2533  32.578  30.801   2.389
30109W        W 2534  32.310  24.585   2.738
30110W        W 2535  35.594  40.832  12.837
30111W        W 2536  25.490  27.981  11.126
30112W        W 2537   9.638  35.146  11.084
30113W        W 2538  30.032  22.518   0.402
30114W        W 2539  20.544  30.929  14.459
30115W        W 2540  10.996  20.573  13.440
30116W        W 2541   7.367  15.752  12.909
30117W        W 2542  22.798  43.749   0.091
30118W        W 2543  28.391  30.637   1.872
30119W        W 2544   6.309  26.910  13.361
30120W        W 2545   5.657  44.021   2.838
30121W        W 2546  13.245   0.738   2.986
30122W        W 2547  35.944  13.670  10.431
30123W        W 2548  35.953  37.223   4.817
30124W        W 2549   1.410  15.663   4.092
30125W        W 2550  42.961   5.934   4.302
30126W        W 2551  37.748  16.001  11.563
30127W        W 2552  26.167  40.744   3.590
30128W        W 2553   0.797  39.824  12.472
30129W        W 2554   8.846   1.443   3.386
30130W        W 2555  22.950  33.292  12.449
30131W        W 2556   0.347  28.713  12.112
30132W        W 2557  41.722  44.865   3.755
30133W        W 2558  23.717  16.246   1.697
30134W        W 2559   2.443  34.868   2.785
30135W        W 2560  11.761   2.190   4.654
30136W        W 2561  40.011  35.587   0.426
30137W        W 2562  19.749  20.507   2.818
30138W        W 2563  20.617  33.917  12.367
30139W        W 2564  20.667  12.653   1.253
30140W        W 2565  27.247  37.598  13.829
30141W        W 2566  26.219  35.613  13.194
30142W        W 2567  20.795  14.689  13.229
30143W        W 2568  12.613  37.376   0.388
30144W        W 2569  26.372  31.436  14.829
30145W        W 2570  29.644  24.975   0.467
30146W        W 2571   0.810  31.623   1.755
30147W        W 2572  25.910  25.237  13.731
30148W        W 2573  25.641  20.502  11.036
30149W        W 2574   4.801   6.674  13.859
30150W        W 2575  27.668  42.337  14.388
30151W        W 2576  22.974  38.832  10.706
30152W        W 2577  19.160   6.161  10.644
30153W        W 2578   2.711  10.499  13.465
30154W        W 2579  44.859  11.195   3.648
30155W        W 2580   9.971   7.222   1.820
30156W        W 2581   6.794  42.919  10.727
30157W        W 2582  10.746   9.237  13.801
30158W        W 2583  30.530  37.378   0.398
30159W        W 2584  32.372  26.716   4.147
30160W        W 2585  44.758  11.405   2.693
30161W        W 2586  26.292  24.490   0.914
30162W        W 2587  18.127   3.465  12.426
30163W        W 2588  11.269  14.293   1.921
30164W        W 2589  28.507  36.178  14.912
30165W        W 2590  12.781  35.143  13.922
30166W        W 2591   1.298  26.913   3.073
30167W        W 2592  40.971  22.938  12.117
30168W        W 2593  36.511  31.270   0.861
30169W        W 2594  10.857  28.992  14.106
30170W        W 2595  36.655  33.001   4.180
30171W        W 2596  42.178  14.192   2.934
30172W        W 2597  33.375  44.175  10.121
30173W        W 2598  10.188  19.553   0.282
30174W        W 2599   0.595  26.488  14.099
30175W        W 2600  22.165  44.467   2.183
30176W        W 2601  10.357   2.247   0.958
30177W        W 2602  19.274  23.730  12.584
30178W        W 2603  10.304   6.139  10.587
30179W        W 2604  33.621  14.876   4.570
30180W        W 2605  32.934   0.680   2.306
30181W        W 2606   1.245  16.856  12.549
30182W        W 2607  38.803   5.434   4.041
30183W        W 2608   9.930  21.220   0.820
30184W        W 2609  30.327  38.937   5.138
30185W        W 2610  19.643  21.986   3.908
30186W        W 2611  23.110   4.717  12.835
30187W        W 2612  42.104   3.938   1.470
30188W        W 2613  14.060   3.228   1.916
30189W        W 2614  19.548  29.029   1.556
30190W        W 2615  42.279  12.281   1.182
30191W        W 2616  30.111  16.183  13.403
30192W        W 2617   4.433  11.283  14.884
30193W        W 2618   1.396   3.869   0.512
30194W        W 2619  40.338  10.870   4.276
30195W        W 2620  20.293  32.750  12.459
30196W        W 2621  42.899   0.039   4.761
30197W        W 2622  23.354  11.907   3.701
30198W        W 2623  35.592  37.874   3.822
30199W        W 2624   1.780   2.744   4.281
30200W        W 2625  34.504  27.986   1.159
30201W        W 2626  20.134   0.466   2.768
30202W        W 2627  31.970  40.253   4.178
30203W        W 2628  23.776  25.780  13.557
30204W        W 2629  35.047  13.619   2.779
30205W        W 2630   3.987   3.749  10.434
30206W        W 2631  16.242   8.748   2.440
30207W        W 2632  14.254   4.500  14.386
30208W        W 2633  25.382   0.715   0.241
30209W        W 2634  44.756  30.357  12.380
30210W        W 2635  40.016  44.278  13.438
30211W        W 2636   1.096  32.140  11.501
30212W        W 2637  13.196  11.238   2.872
30213W        W 2638  34.224  12.513   4.622
30214W        W 2639  39.441  43.496  12.563
30215W        W 2640   4.947  31.146   0.825
30216W        W 2641  39.338   8.398   0.866
30217W        W 2642  42.405   8.757   2.881
30218W        W 2643  13.545  36.515  12.162
30219W        W 2644  13.775  41.393  10.616
30220W        W 2645  21.150  39.803  13.973
30221W        W 2646  19.742  25.132  11.960
30222W        W 2647  25.124  33.100  11.591
30223W        W 2648  14.227  41.458   4.907
30224W        W 2649  18.307  27.973   4.620
30225W        W 2650  20.576  18.826   4.516
30226W        W 2651   7.703  12.102  14.729
30227W        W 2652  31.268  18.208   3.722
30228W        W 2653   2.707  22.267   2.401
30229W        W 2654   0.989  37.291   0.555
30230W        W 2655  31.550   5.904   1.903
30231W        W 2656  32.233  29.012   2.366
30232W        W 2657   0.956  10.572   3.228
30233W        W 2658  15.662  14.129  13.621
30234W        W 2659  12.113  39.388   4.042
30235W        W 2660   3.500  26.840  12.950
30236W        W 2661  41.932   1.222   1.982
30237W        W 2662  40.038  30.397  12.075
30238W        W 2663  43.850  22.153  14.793
30239W        W 2664  33.752  11.132   0.401
30240W        W 2665  40.991  34.671  13.715
30241W        W 2666  21.598  26.265   1.413
30242W        W 2667  11.190   7.437  13.846
30243W        W 2668  39.410  28.965   0.018
30244W        W 2669  39.446  26.952   3.422
30245W        W 2670   5.681  18.498   3.149
30246W        W 2671  20.383   3.493  10.679
30247W        W 2672  30.971  41.975   4.006
30248W        W 2673  12.314  43.911  11.119
30249W        W 2674   4.710   9.140  13.875
30250W        W 2675  17.766  24.323  12.446
30251W        W 2676  27.080  18.687   2.109
30252W        W 2677  16.769  25.305  13.837
30253W        W 2678  37.247  23.297  10.564
30254W        W 2679   8.901  40.447   1.225
30255W        W 2680   8.196   1.421   0.017
30256W        W 2681  11.066  22.066   1.376
30257W        W 2682   0.949  21.526   1.848
30258W        W 2683  30.148   0.284   0.894
30259W        W 2684  31.786  18.345  12.424
30260W        W 2685  26.618   3.464  14.162
30261W        W 2686  26.587  31.464   2.544
30262W        W 2687   0.869  10.035   3.253
30263W        W 2688  26.375  22.800   5.164
30264W        W 2689   2.490  43.257   3.504
30265W        W 2690  26.064  16.563  11.038
30266W        W 2691   9.770   3.986  12.201
30267W        W 2692  41.123  37.255  11.491
30268W        W 2693  16.210  25.736  12.513
30269W        W 2694   3.404  44.944   0.216
30270W        W 2695  26.480   9.813  12.565
30271W        W 2696  43.857   6.955  13.098
30272W        W 2697  12.686  10.717   1.907
30273W        W 2698  24.548   9.101  13.331
30274W        W 2699  29.453  42.472  14.232
30275W        W 2700  41.268  10.640  12.307
30276W        W 2701  15.809   7.784   1.316
30277W        W 2702  44.840  42.340  14.953
30278W        W 2703  12.678  27.915  10.801
30279W        W 2704  29.041  21.762   1.793
30280W        W 2705  24.010  43.982  12.340
30281W        W 2706  19.311  25.239  12.525
30282W        W 2707  30.442  19.487  12.497
30283W        W 2708   8.637   8.652   0.037
30284W        W 2709  44.813  32.722  13.815
30285W        W 2710  17.162   1.313  10.249
30286W        W 2711  42.833  13.729   0.923
30287W        W 2712  24.922   2.732   0.299
30288W        W 2713  10.729  36.953  13.721
30289W        W 2714  21.718   3.506   0.128
30290W        W 2715   2.451   6.378   0.689
30291W        W 2716   3.887  20.466  12.925
30292W        W 2717  37.060  29.449   1.362
30293W        W 2718  31.891  42.494  11.939
30294W        W 2719   4.327  12.826  13.497
30295W        W 2720   0.668  44.064   3.705
30296W        W 2721  22.127  22.523   3.347
30297W        W 2722  27.554  31.036  10.727
30298W        W 2723  37.098  23.965   2.724
30299W        W 2724   7.592   0.808  13.479
30300W        W 2725  44.946   4.343   2.572
30301W        W 2726  19.741  29.000   4.370
30302W        W 2727  37.657  25.465   1.633
30303W        W 2728   2.596  33.452   1.389
30304W        W 2729  22.479  33.491  12.370
30305W        W 2730   8.237  43.749   0.506
30306W        W 2731   7.538  23.234  14.489
30307W        W 2732  26.936  13.162   3.233
30308W        W 2733  29.997   0.464   3.341
30309W        W 2734  12.264  32.939  10.401
30310W        W 2735   5.665  34.253  12.130
30311W        W 2736  40.321  21.350  11.494
30312W        W 2737  41.398  32.989  12.997
30313W        W 2738   9.785  18.112  12.960
30314W        W 2739  44.472  14.535  14.557
30315W        W 2740  16.850  42.400   4.218
30316W        W 2741  30.751  23.695  13.536
30317W        W 2742  42.221  30.507  14.804
30318W        W 2743  19.636   2.768   3.270
30319W        W 2744  44.408  36.243   4.260
30320W        W 2745  21.491  14.182  12.327
30321W        W 2746   2.869  38.729  13.894
30322W        W 2747  27.434  12.929  10.511
30323W        W 2748  28.059  12.216  13.977
30324W        W 2749   8.430  29.981   1.306
30325W        W 2750  42.500   4.334  13.345
30326W        W 2751  19.156  25.063  12.034
30327W        W 2752  22.090  15.988  11.323
30328W        W 2753  30.371  20.051   0.389
30329W        W 2754  40.947  13.946  14.835
30330W        W 2755  42.519  26.083  13.342
30331W        W 2756  43.806  12.199   0.256
30332W        W 2757  30.372  10.860  12.944
30333W        W 2758  42.040  39.388   2.784
30334W        W 2759  36.534  27.627  11.626
30335W        W 2760   4.022  10.857  12.424
30336W        W 2761  39.509  32.111   2.207
30337W        W 2762  22.607  36.571   0.492
30338W        W 2763  29.069  25.013  14.370
30339W        W 2764  37.424  31.536  14.432
30340W        W 2765   8.399  32.845  11.483
30341W        W 2766  43.356   9.905  13.498
30342W        W 2767   0.554  39.703   0.248
30343W        W 2768   7.427  18.079  11.963
30344W        W 2769  32.920  15.528   3.338
30345W        W 2770   5.731  43.771  13.408
30346W        W 2771  13.375  10.771  13.373
30347W        W 2772  35.430  33.151   2.830
30348W        W 2773  14.599  26.155   4.559
30349W        W 2774  25.691   3.433   2.299
30350W        W 2775  35.003  36.536   0.759
30351W        W 2776  29.902  42.776   4.116
30352W        W 2777  44.937  11.347  10.485
30353W        W 2778   3.881  16.995  12.201
30354W        W 2779  12.425  16.065   1.281
30355W        W 2780  11.126  37.987   4.733
30356W        W 2781  41.579  34.520  11.187
30357W        W 2782  20.676  39.821  13.758
30358W        W 2783  30.897   1.860  14.390
30359W        W 2784  24.480  23.312   1.232
30360W        W 2785  14.278  38.469  13.547
30361W        W 2786  18.252  18.785  12.135
30362W        W 2787  19.642  26.109   4.331
30363W        W 2788  22.743  44.496  13.344
30364W        W 2789  20.910  43.481   1.211
30365W        W 2790  41.428   9.663   0.991
30366W        W 2791  14.645  40.289   0.797
30367W        W 2792   7.606   5.689   3.209
30368W        W 2793  23.744  13.627   1.491
30369W        W 2794   8.263   8.165  11.148
30370W        W 2795  28.784  30.042   1.847
30371W        W 2796   6.449  13.337   3.472
30372W        W 2797  37.376  15.156   1.953
30373W        W 2798  33.646  20.643  13.934
30374W        W 2799   5.098   5.181  13.879
30375W        W 2800  27.651  32.652   2.868
30376W        W 2801  14.259   1.876   1.419
30377W        W 2802  16.077   8.895  13.914
30378W        W 2803  16.062   7.668   3.929
30379W        W 2804  29.590   6.671   0.374
30380W        W 2805  23.162  31.843  10.885
30381W        W 2806   9.903  41.556   1.297
30382W        W 2807   2.848  26.758   1.660
30383W        W 2808  40.415  32.106   2.253
30384W        W 2809   3.052  31.022  10.986
30385W        W 2810   4.939  36.501  11.654
30386W        W 2811  41.766   9.013  11.007
30387W        W 2812  11.457   9.097  14.472
30388W        W 2813  41.811   2.102  14.365
30389W        W 2814  39.200  15.703  13.735
30390W        W 2815  18.996   5.353   1.371
30391W        W 2816   2.969  36.926  13.833
30392W        W 2817   5.811   0.923   4.895
30393W        W 2818   5.408  17.738  12.978
30394W        W 2819  11.378   0.776   2.363
30395W        W 2820  15.677  22.630  13.407
30396W        W 2821  33.023  43.976  14.793
30397W        W 2822  26.118   8.101   0.826
30398W        W 2823  42.793  11.306   2.361
30399W        W 2824  42.509  42.856   0.707
30400W        W 2825   2.842  27.468   3.339
30401W        W 2826   1.756  11.128  11.518
30402W        W 2827  21.009   7.251  13.107
30403W        W 2828  44.519  29.531  13.023
30404W        W 2829   2.889   2.783  12.887
30405W        W 2830  30.930  28.505   4.317
30406W        W 2831  25.162  15.220  11.226
30407W        W 2832  43.536  40.956  11.122
30408W        W 2833  41.251  29.686  12.989
30409W        W 2834  14.213  26.150   0.370
30410W        W 2835  17.257  25.465  14.021
30411W        W 2836  21.679  30.512   4.561
30412W        W 2837  13.661  38.380   3.426
30413W        W 2838  37.612   8.755   1.757
30414W        W 2839  23.938  19.567  11.101
30415W        W 2840  39.898  15.315   2.855
30416W        W 2841  18.341  15.582  11.113
30417W        W 2842  20.108  36.632  13.923
30418W        W 2843  30.191  18.525   5.464
30419W        W 2844  38.910   7.784  13.109
30420W        W 2845  10.258  15.059  13.053
30421W        W 2846  36.815  16.731  14.050
30422W        W 2847   6.310  13.720   3.894
30423W        W 2848   0.250  39.953  12.460
30424W        W 2849  10.510  40.594  10.734
30425W        W 2850  37.525   0.752   3.659
30426W        W 2851  35.836   6.281   2.715
30427W        W 2852  11.395   0.781  13.879
30428W        W 2853  40.109   7.035  10.573
30429W        W 2854  18.543  18.203  12.864
30430W        W 2855  33.565  32.301  10.803
30431W        W 2856  34.507   9.525   4.796
30432W        W 2857  34.696  13.253  13.374
30433W        W 2858   8.893  11.639  11.224
30434W        W 2859  39.853  25.646   1.505
30435W        W 2860  26.888  31.582  10.908
30436W        W 2861  32.413  44.763  11.897
30437W        W 2862  37.106   2.299  10.808
30438W        W 2863  21.625   1.240   0.667
30439W        W 2864  43.363  43.507  13.449
30440W        W 2865  36.175  18.087   3.925
30441W        W 2866  36.058   1.916  12.237
30442W        W 2867  15.362  10.345  14.240
30443W        W 2868  41.523  42.114  10.659
30444W        W 2869  19.058  29.355  12.128
30445W        W 2870  44.357  20.119  10.564
30446W        W 2871   1.506  34.530  12.873
30447W        W 2872   3.344   3.235  10.647
30448W        W 2873  36.660  19.663   4.623
30449W        W 2874  17.867  40.007   2.409
30450W        W 2875  40.373  23.018  12.382
30451W        W 2876  23.041  23.687   3.100
30452W        W 2877  16.682  18.479  14.344
30453W        W 2878  28.927  24.608  14.078
30454W        W 2879   4.610  40.808  10.708
30455W        W 2880  23.822  12.682  12.948
30456W        W 2881  43.834  42.780   4.626
30457W        W 2882  28.618   4.782  12.612
30458W        W 2883  10.775   2.889   4.223
30459W        W 2884  43.944  44.501  11.895
30460W        W 2885   3.777  34.412  11.595
30461W        W 2886  10.230  32.929   0.675
30462W        W 2887  11.128   1.326   0.443
30463W        W 2888  34.394   4.992   3.204
30464W        W 2889  43.972   9.662   1.801
30465W        W 2890  19.816   4.809  14.788
30466W        W 2891  32.442  38.250   4.709
30467W        W 2892  23.907  21.114  14.312
30468W        W 2893  25.912  12.689   5.064
30469W        W 2894  19.150   5.147   3.100
30470W        W 2895   7.786  10.471   3.570
30471W        W 2896  20.617  17.186  13.026
30472W        W 2897   3.272  43.862   1.871
30473W        W 2898  24.386  40.707  13.494
30474W        W 2899  31.967  44.466  11.972
30475W        W 2900  36.561  34.554   5.167
30476W        W 2901   3.723  32.271  11.197
30477W        W 2902  43.903  33.376   3.380
30478W        W 2903  23.741   1.873  13.290
30479W        W 2904  38.560  31.691  11.266
30480W        W 2905  27.202   0.364   1.719
30481W        W 2906  16.559   2.124   4.637
30482W        W 2907  32.531  31.347   0.798
30483W        W 2908  10.349  41.919  14.298
30484W        W 2909   1.418  19.449  11.486
30485W        W 2910   4.007  18.290  13.465
30486W        W 2911  28.231  12.857  10.981
30487W        W 2912  12.101  25.924  11.612
30488W        W 2913  15.599  27.956   3.271
30489W        W 2914  23.534  27.060  11.595
30490W        W 2915  23.745  26.827  13.922
30491W        W 2916  23.086  12.099  12.891
30492W        W 2917  16.558   6.932   2.792
30493W        W 2918  31.519   8.863   4.202
30494W        W 2919  29.964   0.481   4.333
30495W        W 2920  24.081  19.799  14.707
30496W        W 2921  31.480  39.728   0.875
30497W        W 2922  29.348   6.494  14.728
30498W        W 2923  36.665  41.278   3.874
30499W        W 2924  11.348  44.505   4.194
30500W        W 2925  18.498  39.890  12.481
30501W        W 2926  16.052  21.710  14.553
30502W        W 2927   8.676  15.356  11.876
30503W        W 2928  15.611  15.059  14.243
30504W        W 2929   8.805  40.369  14.764
30505W        W 2930  10.145   4.877  11.203
30506W        W 2931  23.851  41.939   3.151
30507W        W 2932  38.412  13.154  11.607
30508W        W 2933   6.631  39.298  10.640
30509W        W 2934   4.659   1.372   1.261
30510W        W 2935   9.846  32.614   1.705
30511W        W 2936   9.547  40.509   3.182
30512W        W 2937  33.916   3.005  11.569
30513W        W 2938  38.253  44.971  12.340
30514W        W 2939  43.897  22.319   1.765
30515W        W 2940  24.593   9.489  10.560
30516W        W 2941  10.818  33.669  10.119
30517W        W 2942  37.335  25.934  10.365
30518W        W 2943  19.785  13.236  14.824
30519W        W 2944  28.214   3.869   3.561
30520W        W 2945  12.200  19.479   4.734
30521W        W 2946   6.944  12.324  14.372
30522W        W 2947  33.025   9.501  14.412
30523W        W 2948  25.912  18.686  13.362
30524W        W 2949  30.455   9.793  14.526
30525W        W 2950  11.223   0.963  12.640
30526W        W 2951  40.686  40.236  13.525
30527W        W 2952   7.449  15.629   4.558
30528W        W 2953  39.978  26.013  11.051
30529W        W 2954  11.264  18.319   3.105
30530W        W 2955  26.666  11.349  14.036
30531W        W 2956  15.066  25.888  13.992
30532W        W 2957  33.082   0.354  11.495
30533W        W 2958  14.886  34.508   2.942
30534W        W 2959  14.301  19.074   2.691
30535W        W 2960   9.917  15.310   2.373
30536W        W 2961  38.379  17.742  11.782
30537W        W 2962  19.110  38.320  10.697
30538W        W 2963  13.796  43.671   3.710
30539W        W 2964  28.405  24.977   2.719
30540W        W 2965  32.811   3.246   2.684
30541W        W 2966  42.914   2.792  14.324
30542W        W 2967  43.687  29.512  11.954
30543W        W 2968  31.596  27.706   4.190
30544W        W 2969   5.948  29.034   0.399
30545W        W 2970  23.226   8.535   1.382
30546W        W 2971   7.261  21.756   0.272
30547W        W 2972  30.641   4.975   2.154
30548W        W 2973  40.883  38.796   4.486
30549W        W 2974  37.444  23.639  14.958
30550W        W 2975  37.891  25.644  11.985
30551W        W 2976  24.757  15.588   1.370
30552W        W 2977   8.057  23.552  11.058
30553W        W 2978  41.209  28.020  11.739
30554W        W 2979  38.527  22.684   3.890
30555W        W 2980   8.184  21.221  14.872
30556W        W 2981  27.125  10.824  12.987
30557W        W 2982  31.475  33.899   2.833
30558W        W 2983   7.518  13.136   1.214
30559W        W 2984   4.346  11.579   4.203
30560W        W 2985   0.729  23.684  12.919
30561W        W 2986  42.392  28.502   4.658
30562W        W 2987  19.035   6.872   4.875
30563W        W 2988  21.780  32.238  11.203
30564W        W 2989  19.996   2.515  11.985
30565W        W 2990   2.305  34.223   2.033
30566W        W 2991  19.045  14.452  14.972
30567W        W 2992  44.829  19.416   4.991
30568W        W 2993  25.886  35.857   4.693
30569W        W 2994  37.364  42.781   1.987
30570W        W 2995   2.915  22.244   2.900
30571W        W 2996  24.016  39.589  12.021
30572W        W 2997  22.733  13.848  10.605
30573W        W 2998  17.318  44.879   4.565
30574W        W 2999  25.378  33.435   1.426
30575W        W 3000  33.874  33.074   1.518
30576W        W 3001   0.059   3.924   5.017
30577W        W 3002   4.364  10.927  13.856
30578W        W 3003   7.940  17.405   5.198
30579W        W 3004  17.219   0.360   3.716
30580W        W 3005   5.855  23.402  11.717
30581W        W 3006  10.712  37.871  13.409
30582W        W 3007  43.522   4.296  14.776
30583W        W 3008  36.172  31.129   1.251
30584W        W 3009  34.960  29.120   3.121
30585W        W 3010  19.278  16.278  10.859
30586W        W 3011  42.308  43.628  14.291
30587W        W 3012  11.086  37.536  14.279
30588W        W 3013  29.565  44.072   1.417
30589W        W 3014  21.307  39.344  13.774
30590W        W 3015  26.276  22.142  14.783
30591W        W 3016  12.134  22.743  11.772
30592W        W 3017   2.724  13.881  14.294
30593W        W 3018  43.036   3.085   2.698
30594W        W 3019  15.293  18.688   4.566
30595W        W 3020   5.213  36.900   1.390
30596W        W 3021  31.262   4.175   2.221
30597W        W 3022   9.420  22.569   2.426
30598W        W 3023  17.281  15.369  12.084
30599W        W 3024  27.512  26.711  13.514
30600W        W 3025  34.929  36.360  11.973
30601W        W 3026  34.708  30.682   2.332
30602W        W 3027  11.849   3.906  11.475
30603W        W 3028  26.255  26.689  14.947
30604W        W 3029  40.570  42.879   1.829
30605W        W 3030  22.578  22.748   4.592
30606W        W 3031  37.933  16.419   1.069
30607W        W 3032   4.817  27.963   0.540
30608W        W 3033  38.580  10.300   2.380
30609W        W 3034   3.279  22.554   1.795
30610W        W 3035  25.579  11.130  10.606
30611W        W 3036  33.899  40.369   0.074
30612W        W 3037  12.262   0.784   1.381
30613W        W 3038   2.414  26.184  11.578
30614W        W 3039  16.196   8.098   0.292
30615W        W 3040  37.513  43.047   5.019
30616W        W 3041  14.423  20.506  13.129
30617W        W 3042  30.676  16.888  13.963
30618W        W 3043  30.612  19.760  11.529
30619W        W 3044   5.708   8.231   3.040
30620W        W 3045  41.044  41.918  14.887
30621W        W 3046  22.624  39.575  14.350
30622W        W 3047  13.177  16.393  13.105
30623W        W 3048  10.383   4.447  12.945
30624W        W 3049   3.180   0.775   3.639
30625W        W 3050   1.675  37.305   3.155
30626W        W 3051   5.784   3.959   0.520
30627W        W 3052  33.027   6.692   4.236
30628W        W 3053  17.803  22.042  10.590
30629W        W 3054  43.820  43.291   4.508
30630W        W 3055  16.805  18.689  13.894
30631W        W 3056  15.849   9.883  10.139
30632W        W 3057  10.618   4.462   0.480
30633W        W 3058  17.865  22.511   2.759
30634W        W 3059  10.681  39.346  13.316
30635W        W 3060  15.920  29.481   0.527
30636W        W 3061   2.775  32.690  13.072
30637W        W 3062  16.085  35.881   0.454
30638W        W 3063   4.957  13.392  13.043
30639W        W 3064  37.138  18.230  13.935
30640W        W 3065  42.547  17.741  11.495
30641W        W 3066  16.120  34.481  11.637
30642W        W 3067  15.113   4.310   0.534
30643W        W 3068  20.702  29.143  12.008
30644W        W 3069  11.901  26.131  14.802
30645W        W 3070  15.897  17.657   2.124
30646W        W 3071  30.844  16.566  11.003
30647W        W 3072   7.583  15.925   0.131
30648W        W 3073  23.140  24.787  14.142
30649W        W 3074  28.580   3.442  13.956
30650W        W 3075  31.532  20.042  11.677
30651W        W 3076   3.409  31.409  13.588
30652W        W 3077  34.360   6.370  14.667
30653W        W 3078  42.758  21.807   3.688
30654W        W 3079  10.118  43.294  12.456
30655W        W 3080  11.246   5.330   4.861
30656W        W 3081  37.951  37.849  13.535
30657W        W 3082  37.846   7.046  13.840
30658W        W 3083  38.970  12.493   4.706
30659W        W 3084  10.264  33.847   1.124
30660W        W 3085  30.132   9.229   4.747
30661W        W 3086  34.895  39.029  12.101
30662W        W 3087  27.860  14.583  14.861
30663W        W 3088  40.877  42.480  10.478
30664W        W 3089  11.900   4.888   2.178
30665W        W 3090  20.961   4.286   4.156
30666W        W 3091  24.034  34.600  14.997
30667W        W 3092   1.241  11.334  10.658
30668W        W 3093  40.124  19.659  13.382
30669W        W 3094  14.757  19.563  11.541
30670W        W 3095  26.236  32.111  14.337
30671W        W 3096  13.051  10.581  13.730
30672W        W 3097  27.162   3.310   3.132
30673W        W 3098  35.556  18.477  12.057
30674W        W 3099  32.673   3.927  14.979
30675W        W 3100   0.480  15.222  13.841
30676W        W 3101  28.582  25.495  14.913
30677W        W 3102  40.922   2.649  14.944
30678W        W 3103  33.405   4.942  11.110
30679W        W 3104   6.387  14.542   1.847
30680W        W 3105  34.148  36.917  14.353
30681W        W 3106  30.943  12.092   4.085
30682W        W 3107  42.908  13.581  12.621
30683W        W 3108  21.467  14.295  10.812
30684W        W 3109  27.535   2.752  11.426
30685W        W 3110  12.306  18.990   0.080
30686W        W 3111  25.700  36.049  11.103
30687W        W 3112   6.392  33.667   2.819
30688W        W 3113  17.825  35.349   1.022
30689W        W 3114  30.029  32.400   0.887
30690W        W 3115  42.031  23.244  11.989
30691W        W 3116  34.299  14.950   2.318
30692W        W 3117  19.500   7.619   2.475
30693W        W 3118  15.656  19.355  12.434
30694W        W 3119  19.743  15.337   2.629
30695W        W 3120   1.012   0.250  11.451
30696W        W 3121   7.165  22.195   2.003
30697W        W 3122  38.460  23.591  13.989
30698W        W 3123   0.182  12.923   3.922
30699W        W 3124  38.064   4.513   2.785
30700W        W 3125   1.474  24.936  13.047
30701W        W 3126  38.144  20.854   3.765
30702W        W 3127  34.757  10.631  13.976
30703W        W 3128   1.335  30.702   0.354
30704W        W 3129  22.686   8.052  14.800
30705W        W 3130  36.476   5.696   0.360
30706W        W 3131  12.380  40.792   2.179
30707W        W 3132  15.075   0.010  14.461
30708W        W 3133  41.571  42.758   3.609
30709W        W 3134  39.437  15.126  11.560
30710W        W 3135  24.997   6.908  11.949
30711W        W 3136   9.280  21.264  13.117
30712W        W 3137   2.464  36.027  11.596
30713W        W 3138  41.395  10.848  13.576
30714W        W 3139  38.287   3.750  14.827
30715W        W 3140  11.556  11.249  11.573
30716W        W 3141  26.809   5.923   2.870
30717W        W 3142  17.722   4.375  10.733
30718W        W 3143  17.270  14.839  11.185
30719W        W 3144   5.601  30.357  10.748
30720W        W 3145  16.007   4.376  12.920
30721W        W 3146  40.762  25.759   0.832
30722W        W 3147  17.521  26.184  12.832
30723W        W 3148   6.606  41.267   3.745
30724W        W 3149  22.834  10.425  12.630
30725W        W 3150  18.643  37.284   3.186
30726W        W 3151  20.587  41.426   4.149
30727W        W 3152   7.642   5.096   4.192
30728W        W 3153  28.954  32.030  10.681
30729W        W 3154  18.868  17.090  14.860
30730W        W 3155  36.419  10.706  13.629
30731W        W 3156  38.466   4.631   1.570
30732W        W 3157  38.044   7.219  13.390
30733W        W 3158   2.963  39.310  11.510
30734W        W 3159  38.347  24.918  13.489
30735W        W 3160  21.259  35.811  13.517
30736W        W 3161  37.469   3.328   0.901
30737W        W 3162   5.486   4.503  13.374
30738W        W 3163  10.382   1.426   1.516
30739W        W 3164  26.626  28.742   1.688
30740W        W 3165  36.063   5.406   2.392
30741W        W 3166  29.594  15.807   4.563
30742W        W 3167  31.062  44.180  12.362
30743W        W 3168   6.799  23.210   0.733
30744W        W 3169   3.479  25.833   2.471
30745W        W 3170  43.806   6.337   4.612
30746W        W 3171   2.808  39.258  13.046
30747W        W 3172  42.696  33.088   0.524
30748W        W 3173  21.174  42.908   1.843
30749W        W 3174   8.888  16.422  14.649
30750W        W 3175   5.735  23.073  14.309
30751W        W 3176  40.604  34.900  14.177
30752W        W 3177  36.520  32.909  13.266
30753W        W 3178  27.429  30.071   1.414
30754W        W 3179  38.391  12.576   0.461
30755W        W 3180  10.943  16.668  13.319
30756W        W 3181  41.833  13.670  13.520
30757W        W 3182  39.759   9.629  12.378
30758W        W 3183  15.708  11.259  12.859
30759W        W 3184  28.663  36.174   2.119
30760W        W 3185  39.495  20.609  12.173
30761W        W 3186  35.318  12.491   0.754
30762W        W 3187  13.253  27.735  12.911
30763W        W 3188  24.239  38.088  14.892
30764W        W 3189  39.508  12.880   2.671
30765W        W 3190  36.079  23.341   1.329
30766W        W 3191  30.075  14.107  14.915
30767W        W 3192  32.544  31.655   3.180
30768W        W 3193  40.425  11.079  11.954
30769W        W 3194   4.477  17.438   4.243
30770W        W 3195  10.136  28.086  12.097
30771W        W 3196  38.939   6.774  14.529
30772W        W 3197   1.973   3.226   4.379
30773W        W 3198  16.287  22.105   4.161
30774W        W 3199   5.086  36.806   0.656
30775W        W 3200  31.690  24.267   3.792
30776W        W 3201   7.611  34.786   4.991
30777W        W 3202  16.043  16.787   4.098
30778W        W 3203  24.215  26.978  11.972
30779W        W 3204  41.722  27.491   3.351
30780W        W 3205  23.649   9.610   3.442
30781W        W 3206  30.095  32.171   0.366
30782W        W 3207   0.245   6.670   0.921
30783W        W 3208  29.035  43.622  12.993
30784W        W 3209   7.261  33.138   1.039
30785W        W 3210  22.096   6.907   4.159
30786W        W 3211   8.872  30.424  12.725
30787W        W 3212  32.382  34.972  11.623
30788W        W 3213  20.777  26.993   3.067
30789W        W 3214  28.517   9.389  10.698
30790W        W 3215   2.009   6.855  13.564
30791W        W 3216   3.277  43.515   4.181
30792W        W 3217  30.612  31.182   0.977
30793W        W 3218  27.979  42.024   1.662
30794W        W 3219  38.041  38.068  10.739
30795W        W 3220  35.146   8.711  10.243
30796W        W 3221  10.758  14.166   0.928
30797W        W 3222  24.033  43.349   2.173
30798W        W 3223  29.892  19.995  13.247
30799W        W 3224  34.643  44.418   2.750
30800W        W 3225   8.610  20.795   4.107
30801W        W 3226  23.035  23.893   0.046
30802W        W 3227  44.354  21.690  13.910
30803W        W 3228  35.315  19.173  10.980
30804W        W 3229   6.638  40.003  10.779
30805W        W 3230  43.865   5.129   3.317
30806W        W 3231  41.511   0.088   1.242
30807W        W 3232  18.668  29.482   1.234
30808W        W 3233  10.807  40.303  11.187
30809W        W 3234  21.794  27.198  11.043
30810W        W 3235  41.251  18.091  11.008
30811W        W 3236  20.183  41.296  11.255
30812W        W 3237  10.335  14.563  12.919
30813W        W 3238  16.684  19.206   4.725
30814W        W 3239  25.159  31.199  11.600
30815W        W 3240  15.848   4.929  11.578
30816W        W 3241  21.360  25.729   4.182
30817W        W 3242  20.559   9.719   4.635
30818W        W 3243  14.081  26.364  11.056
30819W        W 3244  41.553  38.816  11.095
30820W        W 3245  14.616  37.243  14.268
30821W        W 3246   1.259   9.093   0.792
30822W        W 3247   2.333   7.868  14.360
30823W        W 3248  19.816  32.587  12.243
30824W        W 3249  26.513  17.094   4.586
30825W        W 3250  21.647   2.208   2.599
30826W        W 3251   2.467  41.927   0.431
30827W        W 3252  14.270  20.160   4.531
30828W        W 3253  42.628  32.139   0.918
30829W        W 3254  22.668   3.621  14.430
30830W        W 3255  16.805  26.204  10.882
30831W        W 3256   1.917  17.633  11.470
30832W        W 3257  41.797  38.402   4.162
30833W        W 3258  37.111  10.880   1.364
30834W        W 3259   3.896  14.516   1.495
30835W        W 3260  19.081   4.806   1.712
30836W        W 3261   6.923  20.301   3.618
30837W        W 3262  36.050  27.485   4.684
30838W        W 3263   9.404  16.182   0.009
30839W        W 3264  16.301  14.168   3.020
30840W        W 3265  40.665  33.636   0.774
30841W        W 3266   9.697   7.518  12.698
30842W        W 3267   8.700   7.167  13.863
30843W        W 3268  40.833  38.810   2.764
30844W        W 3269  17.680   0.274   2.870
30845W        W 3270  27.823  36.111  11.658
30846W        W 3271  41.095   8.843   1.320
30847W        W 3272   5.668  36.388  14.454
30848W        W 3273  35.305  16.464  11.101
30849W        W 3274  24.100  24.928  13.906
30850W        W 3275  27.686  29.111  14.494
30851W        W 3276  40.404  11.509   1.843
30852W        W 3277  14.933  32.310   0.848
30853W        W 3278  15.767  14.833   2.839
30854W        W 3279  29.521  13.574  13.971
30855W        W 3280   9.953  29.203   5.097
30856W        W 3281   6.249   1.361   1.848
30857W        W 3282  24.890  41.569  13.013
30858W        W 3283  18.098  39.116   3.270
30859W        W 3284  28.050  40.074  11.602
30860W        W 3285  21.225   3.750  13.488
30861W        W 3286   8.945  40.765   2.355
30862W        W 3287  27.516  18.253  12.620
30863W        W 3288   0.319  36.766  12.957
30864W        W 3289  32.346   1.932  13.598
30865W        W 3290  31.652  39.076  12.412
30866W        W 3291  39.497  33.914  13.951
30867W        W 3292  33.502   5.266  11.621
30868W        W 3293  34.933  19.506   0.992
30869W        W 3294   4.616  30.428  11.535
30870W        W 3295  31.596  13.228  10.636
30871W        W 3296  20.857   9.226   4.280
30872W        W 3297  37.587  43.496   2.336
30873W        W 3298  17.081  19.727   3.180
30874W        W 3299  12.729  37.408  12.693
30875W        W 3300   6.401  37.256   2.561
30876W        W 3301  11.725  42.028   2.351
30877W        W 3302  32.489   8.620   0.074
30878W        W 3303   3.133  32.694   0.992
30879W        W 3304  14.669  39.445  12.506
30880W        W 3305  16.315  38.357  12.445
30881W        W 3306  40.991   1.235   4.665
30882W        W 3307  32.532  23.848   3.369
30883W        W 3308   4.647  28.149  13.169
30884W        W 3309  11.301  43.079   3.703
30885W        W 3310  25.742  21.131   0.436
30886W        W 3311  33.776  14.686  14.955
30887W        W 3312  35.390  16.832   4.108
30888W        W 3313  27.755  26.478  13.972
30889W        W 3314   2.488  14.657   4.655
30890W        W 3315  36.542  33.818   2.244
30891W        W 3316  22.902   2.407  13.352
30892W        W 3317  40.885   6.669   2.905
30893W        W 3318  42.923  23.942   1.351
30894W        W 3319  43.768  26.783  10.978
30895W        W 3320  13.545  27.098   4.130
30896W        W 3321  29.670  37.024   2.616
30897W        W 3322  15.271   1.735  11.102
30898W        W 3323  12.803  39.261  12.295
30899W        W 3324  42.439   1.138   0.492
30900W        W 3325  13.123  23.772   2.315
30901W        W 3326  12.883  11.534  13.923
30902W        W 3327  42.123  36.307  11.608
30903W        W 3328  11.002  42.459  13.345
30904W        W 3329  17.755   8.898   0.002
30905W        W 3330  26.097  39.470   3.088
30906W        W 3331  21.310  43.001   4.517
30907W        W 3332  21.536  42.065   1.755
30908W        W 3333  12.429  16.833   2.741
30909W        W 3334  22.532   5.297  14.962
30910W        W 3335  37.958   5.016   0.823
30911W        W 3336   3.397   7.746   3.298
30912W        W 3337  27.417  14.731   2.194
30913W        W 3338  29.746  14.247  13.627
30914W        W 3339   3.891  10.509  10.489
30915W        W 3340  44.743  12.657  10.646
30916W        W 3341   9.226   8.245  13.043
30917W        W 3342  21.600  24.629  11.479
30918W        W 3343  20.008  20.145  13.370
30919W        W 3344   5.013   9.108   4.680
30920W        W 3345   7.243  27.262  13.198
30921W        W 3346  44.129  28.374  12.917
30922W        W 3347  10.947  16.492  11.502
30923W        W 3348  15.568  15.863   2.851
30924W        W 3349   6.686  20.021   1.323
30925W        W 3350  10.908   0.594  13.846
30926W        W 3351  21.617  24.482   0.793
30927W        W 3352  37.459  32.166   0.756
30928W        W 3353  32.397   4.765   3.796
30929W        W 3354  25.516   6.111   4.124
30930W        W 3355  27.970  22.210   1.421
30931W        W 3356   3.827   6.818  11.674
30932W        W 3357  16.230   6.693  12.977
30933W        W 3358  25.957  41.271   1.800
30934W        W 3359  20.209  16.706   2.752
30935W        W 3360  22.258  17.830   4.098
30936W        W 3361  14.268  26.019  10.702
30937W        W 3362  40.370  22.234  11.660
30938W        W 3363  29.920  20.482  13.426
30939W        W 3364  27.856  33.873  13.785
30940W        W 3365  37.584  42.799   0.441
30941W        W 3366   2.991  36.706  14.918
30942W        W 3367  42.434  32.131  10.637
30943W        W 3368  34.535  10.250  14.770
30944W        W 3369   5.546  30.474   0.341
30945W        W 3370  29.230  18.124  11.906
30946W        W 3371  22.757  40.298  12.598
30947W        W 3372   1.850  25.666   4.596
30948W        W 3373  36.105  24.606  11.642
30949W        W 3374  10.236  21.114   2.879
30950W        W 3375  41.354   5.669  14.846
30951W        W 3376  28.042  32.886   1.272
30952W        W 3377  40.674  18.537   2.239
30953W        W 3378  30.794  34.915   2.773
30954W        W 3379   9.271  16.152  11.320
30955W        W 3380  17.278  41.492   4.076
30956W        W 3381   3.272  33.189   2.230
30957W        W 3382  33.569  42.068   2.373
30958W        W 3383  22.720  40.157  14.436
30959W        W 3384  40.041  37.611   2.027
30960W        W 3385  30.112  14.160   4.156
30961W        W 3386  11.355   3.197  11.278
30962W        W 3387  11.873  28.595  14.736
30963W        W 3388  30.975  37.801  14.760
30964W        W 3389  23.642   4.506   3.663
30965W        W 3390   6.302   2.349  12.398
30966W        W 3391  24.689  29.679  12.444
30967W        W 3392  10.813  35.308  11.588
30968W        W 3393  39.802  20.618   2.230
30969W        W 3394   2.232   6.316  14.320
30970W        W 3395   1.995   2.518  11.021
30971W        W 3396  31.011  39.816  14.383
30972W        W 3397  15.596  40.749   0.485
30973W        W 3398  34.777  24.937   4.676
30974W        W 3399   7.849  39.250   1.878
30975W        W 3400  29.197  17.057  12.506
30976W        W 3401  20.768  13.289   3.996
30977W        W 3402  10.837   8.799  10.676
30978W        W 3403  25.836  39.545   2.206
30979W        W 3404  13.995  13.066  12.099
30980W        W 3405  33.442   1.013   3.162
30981W        W 3406  17.862  26.151  11.931
30982W        W 3407  22.409  37.499   0.965
30983W        W 3408  33.305  10.162   2.794
30984W        W 3409   7.794  10.597  11.926
30985W        W 3410   7.437   2.767  13.524
30986W        W 3411  44.016  14.563   2.801
30987W        W 3412  19.211  21.518   4.378
30988W        W 3413   6.245  43.971   2.026
30989W        W 3414   3.732  22.721  10.806
30990W        W 3415   9.296  15.870  10.144
30991W        W 3416   4.158   0.827  13.749
30992W        W 3417  21.577   9.794  14.326
30993W        W 3418  14.238  14.865   1.274
30994W        W 3419   8.201  42.654   1.727
30995W        W 3420  32.422  23.114  10.374
30996W        W 3421  38.028  20.159  14.041
30997W        W 3422  20.125  20.743   3.835
30998W        W 3423  14.276  44.948   4.259
30999W        W 3424  24.608  14.543   2.693
31000W        W 3425  23.498  11.758  14.547
31001W        W 3426  22.613  10.653  11.622
31002W        W 3427   5.659  27.847  14.428
31003W        W 3428  23.885  31.442  13.254
31004W        W 3429  43.554  14.096   0.528
31005W        W 3430  17.755  15.854  12.540
31006W        W 3431  35.002  12.827   4.292
31007W        W 3432  39.381  13.102  11.542
31008W        W 3433  20.033  10.856   1.759
31009W        W 3434  42.439  40.113   0.254
31010W        W 3435  38.555  14.906  12.049
31011W        W 3436   6.445  26.357  14.054
31012W        W 3437  32.895  15.597  12.927
31013W        W 3438  20.160  44.394  12.427
31014W        W 3439  38.001  41.137   0.466
31015W        W 3440  36.543  40.468   1.904
31016W        W 3441  23.928  26.940  13.081
31017W        W 3442   8.750  30.170   0.864
31018W        W 3443  33.438   2.924   0.793
31019W        W 3444  28.729  23.631  12.074
31020W        W 3445  20.083  21.034  14.785
31021W        W 3446   6.252  42.607   1.291
31022W        W 3447  12.617   8.779   1.852
31023W        W 3448  35.816  44.855   0.368
31024W        W 3449  41.148  27.109  11.666
31025W        W 3450  27.148  35.441  12.509
31026W        W 3451   9.923  10.742   3.745
31027W        W 3452   6.904  38.731   1.463
31028W        W 3453  33.566  32.640   1.846
31029W        W 3454  41.447  34.975  10.635
31030W        W 3455  17.609  34.012   1.582
31031W        W 3456  43.005  22.565  10.580
31032W        W 3457  22.797  40.784   0.810
31033W        W 3458  40.548  44.716  13.333
31034W        W 3459   2.494  36.933  10.645
31035W        W 3460  10.430  24.569  12.758
31036W        W 3461   0.081  25.419   2.176
31037W        W 3462  35.073  27.047  13.241
31038W        W 3463  37.053  26.514   4.769
31039W        W 3464  21.396  19.237  10.943
31040W        W 3465  25.049  32.466   1.670
31041W        W 3466  16.759  37.299   1.789
31042W        W 3467   4.544  14.034  13.074
31043W        W 3468  25.995  32.939  10.985
31044W        W 3469   0.240  37.551   2.442
31045W        W 3470  14.240  41.925   4.687
31046W        W 3471  41.873  27.735   1.492
31047W        W 3472   7.482  25.651   3.352
31048W        W 3473  42.768  29.954   2.410
31049W        W 3474  38.661  39.867  12.032
31050W        W 3475  11.130  41.627   0.533
31051W        W 3476   2.995   7.501   3.069
31052W        W 3477  23.829  31.006  12.707
31053W        W 3478   7.353   3.868   1.344
31054W        W 3479  18.592  30.753   0.277
31055W        W 3480   7.413   6.770  12.483
31056W        W 3481  14.573  43.418  14.839
31057W        W 3482  41.432   5.340   3.656
31058W        W 3483  36.879   7.835  11.274
31059W        W 3484  44.915  38.887   0.704
31060W        W 3485  19.331  29.497  14.490
31061W        W 3486  23.221  15.698   3.257
31062W        W 3487   1.456   2.736  12.596
31063W        W 3488  30.527  24.668   0.032
31064W        W 3489   8.804  23.890   1.322
31065W        W 3490  44.733   2.889  14.850
31066W        W 3491  21.195  10.370  13.922
31067W        W 3492   9.392   0.681  12.105
31068W        W 3493   6.830  21.799   2.727
31069W        W 3494  24.973  31.313   0.907
31070W        W 3495  13.416  43.256   3.539
31071W        W 3496  29.680  39.041  13.329
31072W        W 3497  12.331   4.352   0.195
31073W        W 3498   0.651  38.516   2.384
31074W        W 3499  20.198  15.577   0.253
31075W        W 3500  31.485  15.596  12.628
31076W        W 3501   3.831  30.032   0.661
31077W        W 3502  41.867  42.110   2.339
31078W        W 3503   2.476  44.313  14.263
31079W        W 3504  22.099  26.629   0.647
31080W        W 3505  10.187   2.831   5.288
31081W        W 3506  18.561  18.056  12.369
31082W        W 3507  14.216  31.484   0.943
31083W        W 3508  38.581   7.905  11.450
31084W        W 3509  44.042   6.447  13.934
31085W        W 3510  17.207   9.638   1.311
31086W        W 3511  40.694   9.373  14.490
31087W        W 3512  44.024  24.585  10.944
31088W        W 3513  18.275  16.126  11.268
31089W        W 3514  41.715  18.622  12.575
31090W        W 3515  23.988  14.884   1.428
31091W        W 3516  28.395   9.694  12.351
31092W        W 3517  29.291   8.936  11.169
31093W        W 3518  23.638  17.489   0.408
31094W        W 3519  15.342  32.361  13.262
31095W        W 3520  37.637  28.433   2.807
31096W        W 3521  26.225   0.710  13.984
31097W        W 3522  23.566   2.889  13.054
31098W        W 3523  35.478   8.028   1.894
31099W        W 3524  11.163   2.743   1.411
31100W        W 3525  21.200  20.834   4.451
31101W        W 3526  44.888  25.073   1.410
31102W        W 3527  15.490  23.837  12.952
31103W        W 3528   4.790  37.482  14.727
31104W        W 3529  34.801  31.337  14.290
31105W        W 3530  19.051  37.528   3.440
31106W        W 3531  42.035  44.446   2.624
31107W        W 3532  24.753  26.716   4.248
31108W        W 3533  33.066  17.490  10.275
31109W        W 3534  22.136  28.777  14.533
31110W        W 3535   0.019  38.129   1.221
31111W        W 3536  16.486  16.841   0.516
31112W        W 3537  30.655   7.817   3.840
31113W        W 3538  25.605  38.023   3.266
31114W        W 3539  38.963  22.297  12.652
31115W        W 3540  31.216  42.033   0.805
31116W        W 3541  24.944  21.169  14.522
31117W        W 3542   3.253  41.364   4.321
31118W        W 3543  32.825  12.463  10.739
31119W        W 3544  38.917  36.226   0.301
31120W        W 3545  33.825  10.303  12.108
31121W        W 3546   7.492  19.416   4.117
31122W        W 3547  23.978  11.916  14.353
31123W        W 3548  23.480  24.815  12.025
31124W        W 3549  16.893   4.422  14.482
31125W        W 3550   1.998  24.814  12.307
31126W        W 3551  29.838  20.164   1.326
31127W        W 3552  14.249  12.169  10.738
31128W        W 3553  36.492  25.568   1.436
31129W        W 3554  24.102  24.345  11.364
31130W        W 3555  16.530  10.552  12.125
31131W        W 3556  18.232   0.334  14.883
31132W        W 3557  30.496   0.836   3.588
31133W        W 3558  20.730   6.282  14.005
31134W        W 3559  27.370  14.091   1.452
31135W        W 3560   5.252  16.267   2.316
31136W        W 3561  39.108  19.305   4.720
31137W        W 3562   3.307   6.642  14.869
31138W        W 3563  39.963  11.745  10.674
31139W        W 3564  22.096   8.807  11.989
31140W        W 3565  27.269  14.967   2.846
31141W        W 3566   3.775  40.593  13.515
31142W        W 3567  25.607  38.848  12.442
31143W        W 3568   6.488  40.438  10.542
31144W        W 3569  31.892  25.915   0.873
31145W        W 3570   1.982  37.006  10.520
31146W        W 3571   8.862  19.201   2.729
31147W        W 3572  34.887  30.395   4.327
31148W        W 3573  19.260   1.302   3.398
31149W        W 3574  16.569  31.802   3.834
31150W        W 3575  36.518  44.267   2.818
31151W        W 3576  29.964  42.804  11.886
31152W        W 3577  25.405  26.180   0.867
31153W        W 3578   4.842  40.861   2.310
31154W        W 3579  10.370  10.184   0.373
31155W        W 3580  40.544  28.705  12.280
31156W        W 3581   7.602  17.012   0.301
31157W        W 3582  22.899  41.316   4.619
31158W        W 3583  14.627  31.272  11.203
31159W        W 3584   3.930  12.701  12.865
31160W        W 3585   7.961  30.452  12.975
31161W        W 3586  20.592  10.807  12.418
31162W        W 3587  38.999  27.020   4.655
31163W        W 3588  10.759  26.677   3.645
31164W        W 3589   6.927   9.506   1.264
31165W        W 3590  21.594  40.328   4.763
31166W        W 3591  13.107  32.543  13.714
31167W        W 3592  21.099   3.377  11.695
31168W        W 3593  37.669  22.432   2.273
31169W        W 3594   2.329  21.100   0.505
31170W        W 3595  29.867  43.945  13.959
31171W        W 3596  30.213  31.582   4.227
31172W        W 3597  31.459  43.470   2.825
31173W        W 3598  42.569   9.842   4.134
31174W        W 3599  10.240  22.391   1.706
31175W        W 3600  42.253  30.513   2.703
31176W        W 3601  28.659  12.899   1.687
31177W        W 3602  17.243  10.293   4.249
31178W        W 3603   3.456   6.525  14.276
31179W        W 3604  21.100   7.307   1.285
31180W        W 3605   2.258  26.654   0.729
31181W        W 3606   1.785  32.052  12.154
31182W        W 3607  44.596  31.928   4.530
31183W        W 3608  29.079  35.499  14.927
31184W        W 3609  21.164  20.074   2.380
31185W        W 3610  38.065  35.466  12.409
31186W        W 3611  17.965  36.543   0.035
31187W        W 3612  21.760  18.041   1.180
31188W        W 3613  26.526  10.855  11.091
31189W        W 3614  26.041  11.652  13.383
31190W        W 3615  24.268   1.912   0.368
31191W        W 3616   9.284  12.677  13.345
31192W        W 3617  25.602  18.213  12.853
31193W        W 3618  11.770  31.444  14.125
31194W        W 3619   9.596  18.279   1.264
31195W        W 3620  22.578   6.993   3.226
31196W        W 3621   5.732   1.705   2.705
31197W        W 3622  43.792  13.422  12.108
31198W        W 3623  17.175  32.448   5.703
31199W        W 3624  21.341  31.510   0.494
31200W        W 3625  25.100  10.797   9.702
31201W        W 3626  12.903  11.577   0.996
31202W        W 3627  14.807  17.523  12.954
31203W        W 3628  25.717  20.207   4.608
31204W        W 3629  24.644  38.488   0.823
31205W        W 3630  36.051  13.732  13.526
31206W        W 3631   2.284   7.890   0.477
31207W        W 3632  20.452  19.991  11.645
31208W        W 3633  12.573  34.886  14.492
31209W        W 3634  16.771   3.508  14.277
31210W        W 3635  13.534  10.069   2.242
31211W        W 3636  25.669   4.755  12.915
31212W        W 3637  29.435   2.897   0.384
31213W        W 3638  44.369  11.827  13.542
31214W        W 3639  35.941  11.418   0.243
31215W        W 3640  20.160  41.918   4.622
31216W        W 3641   1.727  22.202  14.354
31217W        W 3642  12.837   2.442  14.384
31218W        W 3643  44.733   6.255   1.902
31219W        W 3644  32.555  38.814   1.674
31220W        W 3645   0.943   5.196   0.463
31221W        W 3646  37.269  30.017   4.775
31222W        W 3647   4.196  28.820  11.143
31223W        W 3648   9.643  13.490  12.575
31224W        W 3649  14.242  31.437   4.843
31225W        W 3650  30.957  29.870  12.950
31226W        W 3651   1.035   7.290  12.906
31227W        W 3652  20.504  11.263   0.911
31228W        W 3653   8.723  27.963  11.110
31229W        W 3654  20.746   2.534  12.496
31230W        W 3655  32.059  31.402  14.307
31231W        W 3656  27.739   5.790  14.857
31232W        W 3657   4.108  28.651   0.499
31233W        W 3658  13.075  39.063  10.670
31234W        W 3659  41.593  28.615  12.942
31235W        W 3660  29.376   1.364   0.447
31236W        W 3661  42.194  38.353   2.312
31237W        W 3662  28.998  28.095   1.537
31238W        W 3663   4.341   1.626   0.931
31239W        W 3664  20.689  38.423   2.093
31240W        W 3665  35.528  41.357   4.166
31241W        W 3666  12.187  44.253  14.779
31242W        W 3667  13.254  42.616  12.755
31243W        W 3668  26.687   7.284   0.381
31244W        W 3669   6.524  34.874  14.869
31245W        W 3670  26.595   0.928  11.133
31246W        W 3671  22.983  40.484  11.044
31247W        W 3672  27.910  26.234   3.343
31248W        W 3673  25.781  19.132  13.120
31249W        W 3674  42.511  17.295   2.707
31250W        W 3675   4.471  35.730  11.630
31251W        W 3676   8.629  37.693  10.670
31252W        W 3677   4.198  27.966  12.048
31253W        W 3678  10.432  44.382  10.887
31254W        W 3679  20.319   5.950  10.606
31255W        W 3680   0.211  34.260  13.868
31256W        W 3681  41.539   8.267  12.025
31257W        W 3682   3.002  22.607  13.516
31258W        W 3683  26.088  22.941   0.386
31259W        W 3684  34.192   9.392  12.809
31260W        W 3685  43.362   9.690  11.749
31261W        W 3686  18.301  20.435  12.441
31262W        W 3687  35.163   8.785   0.418
31263W        W 3688  22.748  33.225  11.968
31264W        W 3689  27.932  41.275  11.380
31265W        W 3690  14.653   2.833  10.560
31266W        W 3691  31.371  39.706   1.765
31267W        W 3692  28.348  33.602   2.563
31268W        W 3693  10.227  29.173  12.338
31269W        W 3694   2.478  29.118   3.690
31270W        W 3695  29.117   6.463  14.268
31271W        W 3696  38.049  44.870   4.646
31272W        W 3697  32.295  40.839   2.388
31273W        W 3698  41.032  19.526  14.898
31274W        W 3699   4.714  25.774   2.437
31275W        W 3700  17.489   8.773  12.418
31276W        W 3701   4.325  11.796   2.295
31277W        W 3702   7.787  29.663   4.905
31278W        W 3703   7.648  30.195   2.872
31279W        W 3704  35.617  44.268   4.420
31280W        W 3705  11.735   3.355   1.383
31281W        W 3706   2.351  24.789  13.055
31282W        W 3707  34.912  29.407  14.562
31283W        W 3708   8.133  12.996   2.403
31284W        W 3709  16.389  25.649  13.957
31285W        W 3710   0.716  21.825   2.331
31286W        W 3711  29.669   6.357   0.793
31287W        W 3712  30.859  42.823  13.397
31288W        W 3713  31.042  39.274   3.219
31289W        W 3714  37.123   8.017  14.099
31290W        W 3715   1.957  13.333   4.084
31291W        W 3716  42.050  43.726  13.841
31292W        W 3717   0.910  39.335   0.881
31293W        W 3718  11.834   9.715   2.159
31294W        W 3719  21.230  19.816   4.653
31295W        W 3720  20.382  27.065  10.511
31296W        W 3721  19.676  39.755  12.673
31297W        W 3722  41.322  31.409  10.984
31298W        W 3723   4.346  43.298  14.737
31299W        W 3724  12.625  15.802   4.212
31300W        W 3725   6.844   8.461  10.726
31301W        W 3726  22.077  36.397   4.439
31302W        W 3727   9.626   1.738   3.032
31303W        W 3728   5.673  13.246   3.845
31304W        W 3729   3.461   1.235   2.819
31305W        W 3730  10.306  44.283   1.995
31306W        W 3731   6.354  20.044   2.776
31307W        W 3732  15.650  44.690   4.123
31308W        W 3733  16.149  17.288  13.124
31309W        W 3734  40.376  24.262   0.354
31310W        W 3735  33.430   0.063   3.580
31311W        W 3736  17.139   7.482  11.086
31312W        W 3737  38.507  33.580   3.964
31313W        W 3738  12.677  29.168   4.570
31314W        W 3739  33.094  32.654  13.333
31315W        W 3740  40.301  41.427  10.312
31316W        W 3741  12.575  13.646  13.472
31317W        W 3742  30.807  27.514   0.511
31318W        W 3743  13.939  24.537  11.156
31319W        W 3744   5.783  44.332  14.404
31320W        W 3745  31.704  42.596   1.774
31321W        W 3746  43.636   1.910   3.186
31322W        W 3747  26.524  36.476  13.763
31323W        W 3748  39.651   7.364   4.240
31324W        W 3749  23.114  30.578   2.399
31325W        W 3750   5.779   2.175   2.890
31326W        W 3751   6.898  33.841   0.313
31327W        W 3752   4.780  23.254  14.630
31328W        W 3753  20.073   7.949   1.759
31329W        W 3754  18.611  28.213   3.192
31330W        W 3755  16.096  38.899  13.609
31331W        W 3756  44.085  19.687   0.298
31332W        W 3757  17.188   3.509   1.392
31333W        W 3758  24.557  21.593   0.297
31334W        W 3759  36.186  43.946  11.532
31335W        W 3760  22.829   5.861  14.662
31336W        W 3761  44.935  10.568  11.076
31337W        W 3762  37.828  10.940  12.024
31338W        W 3763  30.465  42.820   1.523
31339W        W 3764  44.320  33.361   3.687
31340W        W 3765  28.027  19.258   4.922
31341W        W 3766  24.782  19.119   2.678
31342W        W 3767  30.354  44.943   1.250
31343W        W 3768   6.072  39.902   1.056
31344W        W 3769  42.749   6.796  14.091
31345W        W 3770  14.074   6.343  11.491
31346W        W 3771  27.941  32.691  14.812
31347W        W 3772   4.827  36.992  12.928
31348W        W 3773  14.554  24.613   0.456
31349W        W 3774  31.178  22.689  14.914
31350W        W 3775   2.454   9.911   3.157
31351W        W 3776  33.139  31.959  12.895
31352W        W 3777   6.234  12.125   1.684
31353W        W 3778  13.267  39.523   3.660
31354W        W 3779  30.876   0.219  14.455
31355W        W 3780  17.032   3.572  11.781
31356W        W 3781  11.345  25.288   3.243
31357W        W 3782  39.474  32.600   2.402
31358W        W 3783  14.834   6.265   0.459
31359W        W 3784  35.101  32.073   3.146
31360W        W 3785  26.503  22.967   4.110
31361W        W 3786  11.940   7.631   3.263
31362W        W 3787   2.829  14.840   0.334
31363W        W 3788  26.638  22.179  13.588
31364W        W 3789  25.512   1.453  11.989
31365W        W 3790  44.997  36.156   2.690
31366W        W 3791  38.810  13.796  14.420
31367W        W 3792  38.592  26.275  11.906
31368W        W 3793  16.090   7.229   3.656
31369W        W 3794  12.854  10.670   3.649
31370W        W 3795   7.812  14.685   4.757
31371W        W 3796  14.537  28.050  11.201
31372W        W 3797  41.292  12.640   1.588
31373W        W 3798  10.822  37.535   2.326
31374W        W 3799  19.667   5.876  14.370
31375W        W 3800  40.570  36.666  10.720
31376W        W 3801  41.515   5.469   4.150
31377W        W 3802  32.617  30.952  14.404
31378W        W 3803   6.389  15.745  12.587
31379W        W 3804  24.453  35.433   4.271
31380W        W 3805  44.078  22.583  14.937
31381W        W 3806  11.603  26.971  13.380
31382W        W 3807  13.347   0.764   1.453
31383W        W 3808  17.333  30.928  13.898
31384W        W 3809  21.183   7.749  12.001
31385W        W 3810  12.841  29.095   0.935
31386W        W 3811  41.785  15.694   2.195
31387W        W 3812  15.071   6.332   4.631
31388W        W 3813  31.153   6.475  14.931
31389W        W 3814  19.744  38.946   2.439
31390W        W 3815   0.580  28.016   1.739
31391W        W 3816   7.676  42.572  12.371
31392W        W 3817  11.381   4.815  14.398
31393W        W 3818  40.994  10.629   1.781
31394W        W 3819   7.324  15.674   0.523
31395W        W 3820  38.940   1.255  14.359
31396W        W 3821  16.842  13.435   4.010
31397W        W 3822   6.070  21.941  11.169
31398W        W 3823  28.685  34.841   1.401
31399W        W 3824  36.497  14.022   3.663
31400W        W 3825  19.146  17.112  12.974
31401W        W 3826  32.972  31.409  12.845
31402W        W 3827  19.636  33.743   1.793
31403W        W 3828  12.371   9.304  14.522
31404W        W 3829   6.800  43.454  10.682
31405W        W 3830  41.498   0.068  12.677
31406W        W 3831   0.717   5.865   4.442
31407W        W 3832  26.678   4.227  11.120
31408W        W 3833  43.449   2.322  12.429
31409W        W 3834   9.338  41.068  11.628
31410W        W 3835  40.918   7.526   2.241
31411W        W 3836   9.242  29.596   3.238
31412W        W 3837  21.367   9.552   2.859
31413W        W 3838  32.079   8.288   4.256
31414W        W 3839  34.999  23.592   9.850
31415W        W 3840  20.854  16.358   1.737
31416W        W 3841  38.608  10.693  12.476
31417W        W 3842  24.509  31.579  11.591
31418W        W 3843  37.156  33.697  13.484
31419W        W 3844  33.637  12.884   0.973
31420W        W 3845  21.693  16.787  11.490
31421W        W 3846  17.128  16.532  14.790
31422W        W 3847  34.478  39.788   4.759
31423W        W 3848   5.794  30.503  12.841
31424W        W 3849  19.465   9.234   1.710
31425W        W 3850  15.398  42.365  14.263
31426W        W 3851   9.921   6.674  12.598
31427W        W 3852   4.673  25.967   0.353
31428W        W 3853   1.310  20.838   1.272
31429W        W 3854  14.195  43.038   2.688
31430W        W 3855  11.201  13.303  13.617
31431W        W 3856   0.847  40.715   3.231
31432W        W 3857  44.701  29.197  10.982
31433W        W 3858   1.254   4.351   3.163
31434W        W 3859  11.599  44.476   0.298
31435W        W 3860  22.000  29.484   1.022
31436W        W 3861  15.490   6.080  11.953
31437W        W 3862  12.143   2.725  11.096
31438W        W 3863  21.836  39.961  11.638
31439W        W 3864  11.819  37.147  10.490
31440W        W 3865   3.565  10.481   0.895
31441W        W 3866  38.833  24.998   3.737
31442W        W 3867  23.576  38.413   3.166
31443W        W 3868  39.980  26.043   4.687
31444W        W 3869   5.708  41.583   3.707
31445W        W 3870  12.882  22.069   2.699
31446W        W 3871   6.620  41.766  11.633
31447W        W 3872  32.008   7.190   1.545
31448W        W 3873  30.715  29.024  10.556
31449W        W 3874  41.617  19.142  13.094
31450W        W 3875  22.741  38.678   3.052
31451W        W 3876  38.933  19.317   4.208
31452W        W 3877  30.533   5.786   4.775
31453W        W 3878  42.595  40.057   3.946
31454W        W 3879  21.142   6.842  10.991
31455W        W 3880  12.533  17.811  10.443
31456W        W 3881  17.470  12.775  14.947
31457W        W 3882  44.758  28.192  10.480
31458W        W 3883  35.404  39.634  12.542
31459W        W 3884   3.449  44.718  13.442
31460W        W 3885   1.450  29.080  13.946
31461W        W 3886  37.926  35.703  14.165
31462W        W 3887  15.078  34.456  14.510
31463W        W 3888  23.517  18.672   3.919
31464W        W 3889  30.064  21.507  10.323
31465W        W 3890   4.540  16.377   3.379
31466W        W 3891  41.325  29.260   1.686
31467W        W 3892  30.378  34.985   0.719
31468W        W 3893  16.181   9.426  13.980
31469W        W 3894  23.023  17.069   4.547
31470W        W 3895  29.140  18.711   0.287
31471W        W 3896  25.284  13.675  11.105
31472W        W 3897  18.299  25.531  12.949
31473W        W 3898  27.926   9.711  12.559
31474W        W 3899  10.354  31.161   1.260
31475W        W 3900  13.596  18.074   4.577
31476W        W 3901  44.573  24.707  12.967
31477W        W 3902  12.352   7.305  13.255
31478W        W 3903  32.995  33.088   3.247
31479W        W 3904  33.411   7.625  10.714
31480W        W 3905  33.432  11.114  14.606
31481W        W 3906  21.405  33.061  11.607
31482W        W 3907   5.368  17.820   1.929
31483W        W 3908  42.043   8.750  12.827
31484W        W 3909  12.764  29.622  11.487
31485W        W 3910  41.249   5.187  13.959
31486W        W 3911  26.859  10.424   1.326
31487W        W 3912  10.922   8.919   4.969
31488W        W 3913  35.651  23.623   1.398
31489W        W 3914  40.643  27.963   4.881
31490W        W 3915  30.681  22.809   4.139
31491W        W 3916  18.200  21.114  10.124
31492W        W 3917  37.027  43.735   4.503
31493W        W 3918   5.377  41.299  13.808
31494W        W 3919  42.197  39.996  13.101
31495W        W 3920  35.101  44.739   2.858
31496W        W 3921   9.427  37.171   2.603
31497W        W 3922  43.967  44.440   0.311
31498W        W 3923  42.481  16.798   3.720
31499W        W 3924  41.777  18.105  10.941
31500W        W 3925   5.745  39.835   4.272
31501W        W 3926   6.136  26.140   0.343
31502W        W 3927  28.049   5.930  12.878
31503W        W 3928  36.892  27.231  10.797
31504W        W 3929   9.048  33.885   0.710
31505W        W 3930  43.340  39.192  11.473
31506W        W 3931  35.381   7.909  10.717
31507W        W 3932  34.213  13.256  13.565
31508W        W 3933  20.454  43.245   2.403
31509W        W 3934  32.108  21.606  14.496
31510W        W 3935  43.871  27.449  14.994
31511W        W 3936  33.453  13.420   0.872
31512W        W 3937  39.995  11.893   1.916
31513W        W 3938   0.886  28.110  12.081
31514W        W 3939   7.952  25.623  11.195
31515W        W 3940  13.096  35.586  14.753
31516W        W 3941   5.338  36.815  11.740
31517W        W 3942  31.662  16.813  11.135
31518W        W 3943   7.906  15.749   3.337
31519W        W 3944  29.212  32.395   5.059
31520W        W 3945  10.051  14.846  10.856
31521W        W 3946  35.573  11.812  11.946
31522W        W 3947  14.849   0.484  12.500
31523W        W 3948  15.872  38.584  12.566
31524W        W 3949  33.452  37.973   1.344
31525W        W 3950  42.756   3.536  14.811
31526W        W 3951  44.360  35.501   2.031
31527W        W 3952  32.082   3.638  11.448
31528W        W 3953  12.805   5.761  12.574
31529W        W 3954  13.167  17.579   1.410
31530W        W 3955  36.875  10.840   3.601
31531W        W 3956   8.269  12.661   4.594
31532W        W 3957  29.423  13.853  13.555
31533W        W 3958  44.117   0.563  13.328
31534W        W 3959  35.548  16.742  13.520
31535W        W 3960  38.443  26.754   1.912
31536W        W 3961   0.846  12.654   4.992
31537W        W 3962  28.201  10.334  11.586
31538W        W 3963  41.043   6.227   3.694
31539W        W 3964  19.607  42.866   0.515
31540W        W 3965  24.657   1.313   2.420
31541W        W 3966  39.643  16.232  13.401
31542W        W 3967  22.970   4.912   3.155
31543W        W 3968   4.836   7.779   2.153
31544W        W 3969  15.354  22.055   5.123
31545W        W 3970  11.065  44.938   2.525
31546W        W 3971  36.035  22.591   4.218
31547W        W 3972  14.431  14.870  13.811
31548W        W 3973  40.086  44.325  12.002
31549W        W 3974   3.331  16.255  13.514
31550W        W 3975  24.624  25.266   3.005
31551W        W 3976  24.050  42.819   2.269
31552W        W 3977  12.433  41.975   4.395
31553W        W 3978   2.838  11.800   0.355
31554W        W 3979  17.712  27.476   0.644
31555W        W 3980  16.798  17.610   0.887
31556W        W 3981   3.853  33.858   0.437
31557W        W 3982  24.464  26.938  11.489
31558W        W 3983  10.809  37.076  14.231
31559W        W 3984  35.345   6.205   2.834
31560W        W 3985  14.164  19.126  13.451
31561W        W 3986  43.791  40.814   2.180
31562W        W 3987  41.625  39.086  13.896
31563W        W 3988  43.339  42.704  11.869
31564W        W 3989  21.184   2.439  10.753
31565W        W 3990  42.748  42.499  12.093
31566W        W 3991  21.778  16.136   0.860
31567W        W 3992  32.035  29.036  12.457
31568W        W 3993  18.435  27.463   0.158
31569W        W 3994  21.718   0.587  14.393
31570W        W 3995  25.243   8.173   3.833
31571W        W 3996   7.177  40.046   0.292
31572W        W 3997  44.078   7.806   3.593
31573W        W 3998  21.835  35.074  13.446
31574W        W 3999  22.704  28.610   4.576
31575W        W 4000  14.514  20.702   4.901
31576W        W 4001   0.195  24.171   3.838
31577W        W 4002  32.900  25.824  14.326
31578W        W 4003   0.291  38.705   3.347
31579W        W 4004   3.425  12.032  12.477
31580W        W 4005  26.949  40.291   0.370
31581W        W 4006  17.297  42.382   3.816
31582W        W 4007  35.349  29.711   2.895
31583W        W 4008   3.556   6.374  11.504
31584W        W 4009  37.582  42.027  12.450
31585W        W 4010  27.854   8.171   0.765
31586W        W 4011  42.378  30.375  12.637
31587W        W 4012  13.803  26.735  10.629
31588W        W 4013  40.829   1.528   3.644
31589W        W 4014  31.599  10.771  11.491
31590W        W 4015  44.989  14.525   1.409
31591W        W 4016  11.618  36.846  13.955
31592W        W 4017  35.082  12.133  11.476
31593W        W 4018  22.019  13.428   3.226
31594W        W 4019  34.684  31.464  12.014
31595W        W 4020  33.420  42.419   3.325
31596W        W 4021  31.115  13.427   3.507
31597W        W 4022  12.329  36.140   2.206
31598W        W 4023   7.780  31.668  12.961
31599W        W 4024  21.966  11.238   0.736
31600W        W 4025  23.422  23.407  14.387
31601W        W 4026   9.819  27.477   3.592
31602W        W 4027  35.614  42.494  11.621
31603W        W 4028  14.159  11.127  14.824
31604W        W 4029  18.173  38.837  14.419
31605W        W 4030  13.430   4.808  14.022
31606W        W 4031  30.433  13.559  11.522
31607W        W 4032   6.857  17.254   4.655
31608W        W 4033   0.927  21.497   3.271
31609W        W 4034  39.411   8.914   0.792
31610W        W 4035   8.204  28.045  13.020
31611W        W 4036  35.975   3.014  11.966
31612W        W 4037  31.356  25.223   0.257
31613W        W 4038  20.618  27.060   0.683
31614W        W 4039  27.247   2.897  13.520
31615W        W 4040  24.015  43.458  12.325
31616W        W 4041  43.018  13.765   2.601
31617W        W 4042   5.571  42.279   1.745
31618W        W 4043  15.163   7.399   3.910
31619W        W 4044   4.622   0.600  11.911
31620W        W 4045  31.711  18.673  12.839
31621W        W 4046  21.186   1.406   1.892
31622W        W 4047  15.279   5.159  13.393
31623W        W 4048  30.514  24.754   0.659
31624W        W 4049  37.132  42.398  10.651
31625W        W 4050   9.738  29.894  12.458
31626W        W 4051  44.825  26.436   1.201
31627W        W 4052   4.606  43.100   0.420
31628W        W 4053  14.861  25.545   3.771
31629W        W 4054  23.579  43.515   2.370
31630W        W 4055  10.745  42.260   2.883
31631W        W 4056  28.167  19.771  14.356
31632W        W 4057  11.539   4.320   3.654
31633W        W 4058  26.604  44.760  14.012
31634W        W 4059  13.551   0.328   3.322
31635W        W 4060  28.933   3.206   0.936
31636W        W 4061  43.762  34.555  11.478
31637W        W 4062  35.574   1.311  12.380
31638W        W 4063  17.071  21.348   2.891
31639W        W 4064  28.669  12.134   3.121
31640W        W 4065  33.141   0.859  14.306
31641W        W 4066  41.580  14.159   3.886
31642W        W 4067  12.372  25.461  11.466
31643W        W 4068  29.349  35.351   0.734
31644W        W 4069  43.681  22.103  13.004
31645W        W 4070  32.717   4.491   3.497
31646W        W 4071  34.890   4.912   1.364
31647W        W 4072  14.052  38.837  10.778
31648W        W 4073  29.165  11.078  11.507
31649W        W 4074  11.188   2.452  13.428
31650W        W 4075  20.853  25.084   2.189
31651W        W 4076  25.181   0.296  12.660
31652W        W 4077  34.082  31.023  11.625
31653W        W 4078  30.045  29.476  11.025
31654W        W 4079  36.864  40.775  13.380
31655W        W 4080  40.796  32.616   4.481
31656W        W 4081   3.896  12.841  10.714
31657W        W 4082  30.676  34.092   0.549
31658W        W 4083  19.529  25.671   1.343
31659W        W 4084  41.954  18.076  13.246
31660W        W 4085  22.727  34.750   3.349
31661W        W 4086  33.216   6.167   0.981
31662W        W 4087  31.393  32.182   3.140
31663W        W 4088  34.978  31.937  14.722
31664W        W 4089  34.429  16.587  11.909
31665W        W 4090  10.623  29.025  12.057
31666W        W 4091  26.621  35.071  13.338
31667W        W 4092  22.764  32.675  12.055
31668W        W 4093  12.612  21.019  13.469
31669W        W 4094  28.659  36.523   1.340
31670W        W 4095   9.424  42.752  12.006
31671W        W 4096  23.725  41.448  13.266
31672W        W 4097  29.625  11.293  11.635
31673W        W 4098  13.573  33.355   2.514
31674W        W 4099   0.993  24.982  14.316
31675W        W 4100  42.198  16.342   4.940
31676W        W 4101   6.886   0.424   2.921
31677W        W 4102  42.253  15.700   3.301
31678W        W 4103  18.768  35.905  14.323
31679W        W 4104  43.003  16.570  11.234
31680W        W 4105  41.825  18.169  12.327
31681W        W 4106   0.466  18.507  13.045
31682W        W 4107   0.339  11.233  10.830
31683W        W 4108  30.861   3.611  11.956
31684W        W 4109   7.343  28.294   2.785
31685W        W 4110  10.257  10.105  14.088
31686W        W 4111  17.872  29.484  14.394
31687W        W 4112  14.463  24.593  12.118
31688W        W 4113  14.672  39.964   3.598
31689W        W 4114  34.024  11.032   2.916
31690W        W 4115  25.743  42.816   3.211
31691W        W 4116  23.900   4.943  13.926
31692W        W 4117   7.117  38.912   0.736
31693W        W 4118  24.000  19.833  12.872
31694W        W 4119  24.455  28.565   2.336
31695W        W 4120  43.784  32.877  13.871
31696W        W 4121  30.531  12.644   3.584
31697W        W 4122  14.345   9.820   1.816
31698W        W 4123  22.680  31.686  12.846
31699W        W 4124  31.724  29.070   2.286
31700W        W 4125  18.567  28.587   2.287
31701W        W 4126   8.215   8.962  14.919
31702W        W 4127  31.883  30.124   4.356
31703W        W 4128  35.369  31.017  12.965
31704W        W 4129  19.602  44.329   0.245
31705W        W 4130  13.358   3.327  13.463
31706W        W 4131  27.228  12.073   2.580
31707W        W 4132  23.217   7.058  13.582
31708W        W 4133  13.192  17.011   0.850
31709W        W 4134  33.352   2.783   0.289
31710W        W 4135   0.191   5.158   3.401
31711W        W 4136  13.205   8.684   0.644
31712W        W 4137  30.156  13.678  11.961
31713W        W 4138   5.266  34.630  10.303
31714W        W 4139  35.364  25.685  12.029
31715W        W 4140   3.799  10.097  12.041
31716W        W 4141  27.433   4.966   2.263
31717W        W 4142  25.868   0.014  13.456
31718W        W 4143   2.999  40.798   2.431
31719W        W 4144  42.285  31.625  13.312
31720W        W 4145  16.241  35.333  12.544
31721W        W 4146  28.713  11.170   3.143
31722W        W 4147  34.509  30.700   4.155
31723W        W 4148  15.616  35.055  11.110
31724W        W 4149  42.305  20.801   4.553
31725W        W 4150  21.153  31.608  12.866
31726W        W 4151  39.334  38.330  14.856
31727W        W 4152  37.851  22.888   1.260
31728W        W 4153  37.885   9.767  13.362
31729W        W 4154  15.867  43.923  14.838
31730W        W 4155  42.053  11.145  14.726
31731W        W 4156  15.562  29.656  12.003
31732W        W 4157  29.631  23.575   4.248
31733W        W 4158  17.367  31.978   2.293
31734W        W 4159  22.041   6.785  14.789
31735W        W 4160   5.784  20.951  11.021
31736W        W 4161  12.016  36.390  14.002
31737W        W 4162  25.692  12.800  13.961
31738W        W 4163   8.871  44.807  13.451
31739W        W 4164  15.627  15.605   2.116
31740W        W 4165   6.955  20.167   4.111
31741W        W 4166  12.407   4.807  12.074
31742W        W 4167  24.971  35.079  10.526
31743W        W 4168  43.175  31.886   2.840
31744W        W 4169  17.406  41.074   1.584
31745W        W 4170  42.239   8.961  10.697
31746W        W 4171   4.654  38.990  13.011
31747W        W 4172  21.565   7.626   1.709
31748W        W 4173  10.937  12.366  13.470
31749W        W 4174  20.158  14.860  12.083
31750W        W 4175  40.132  38.272   0.810
31751W        W 4176   9.950  26.574  12.863
31752W        W 4177  13.199  21.479  14.575
31753W        W 4178  26.562   5.858   0.468
31754W        W 4179  34.153  35.757  12.603
31755W        W 4180  17.467   6.748  11.624
31756W        W 4181  32.636  30.525   4.569
31757W        W 4182  34.956  20.948   3.242
31758W        W 4183  35.791  14.312  14.215
31759W        W 4184  16.159  35.842  12.377
31760W        W 4185  44.254  24.294  12.882
31761W        W 4186  29.425  23.988  11.972
31762W        W 4187   8.651  40.755  12.333
31763W        W 4188  43.707  12.436   0.727
31764W        W 4189  28.170  29.069   0.818
31765W        W 4190   4.531  41.891   1.391
31766W        W 4191  29.951  40.709  14.827
31767W        W 4192  14.312   9.428   0.326
31768W        W 4193  18.626  42.454   4.629
31769W        W 4194  29.869  29.215   1.835
31770W        W 4195  41.354  44.338  11.451
31771W        W 4196  17.539  27.676   4.643
31772W        W 4197  33.388  41.797   4.550
31773W        W 4198   0.400   9.797  11.555
31774W        W 4199  43.844  28.273   2.698
31775W        W 4200  21.249   7.689   2.114
31776W        W 4201  18.857  38.367  13.017
31777W        W 4202  21.042  37.018   3.958
31778W        W 4203  18.820  28.664  13.575
31779W        W 4204  30.064  34.355  14.359
31780W        W 4205  40.269  26.461   0.535
31781W        W 4206  35.337  44.959   1.309
31782W        W 4207   6.824   0.268  13.446
31783W        W 4208  21.594  13.727  12.027
31784W        W 4209  15.376  14.081  14.076
31785W        W 4210  19.723  10.943  13.509
31786W        W 4211  22.994  40.488   3.426
31787W        W 4212  31.689  22.420   0.922
31788W        W 4213  27.525  37.956  11.768
31789W        W 4214  12.933  16.675   2.762
31790W        W 4215   9.401   7.025   2.295
31791W        W 4216  32.037  34.534  10.893
31792W        W 4217  25.549  43.020  13.030
31793W        W 4218  36.470   0.306   3.687
31794W        W 4219  14.273  10.703  13.039
31795W        W 4220  19.034  29.014  11.174
31796W        W 4221  43.525   4.296   1.248
31797W        W 4222  37.276  39.142   0.379
31798W        W 4223  13.133  44.021  14.959
31799W        W 4224  15.451  32.340   2.311
31800W        W 4225  42.109  27.127  11.635
31801W        W 4226  40.167  41.010   2.148
31802W        W 4227   4.736  15.094   0.316
31803W        W 4228  22.121  13.382   3.742
31804W        W 4229   2.576  22.558   4.952
31805W        W 4230  42.576  39.211   5.106
31806W        W 4231  13.018  22.194  14.160
31807W        W 4232  15.266   9.085   4.074
31808W        W 4233   7.326  21.522  14.790
31809W        W 4234   8.583  32.414   1.209
31810W        W 4235  10.661   3.250  12.491
31811W        W 4236  44.796  37.845  11.628
31812W        W 4237  12.107  29.726  14.213
31813W        W 4238  24.119  16.659  11.218
31814W        W 4239  24.183  35.031  12.506
31815W        W 4240  30.426  38.119   2.646
31816W        W 4241  36.487  31.088   2.251
31817W        W 4242   0.765  19.367   2.240
31818W        W 4243  35.703  38.175  11.145
31819W        W 4244   2.930  38.529  14.779
31820W        W 4245   4.922  12.791   1.479
31821W        W 4246  44.427  41.596   3.874
31822W        W 4247  22.510   6.240  14.835
31823W        W 4248  33.056  36.459  13.029
31824W        W 4249  22.762  17.990  11.094
31825W        W 4250  16.064  16.658   2.793
31826W        W 4251  37.514  40.814  14.032
31827W        W 4252  37.777  34.064   0.929
31828W        W 4253  12.774   7.912  14.573
31829W        W 4254  27.533  11.641  11.274
31830W        W 4255  40.032  15.719   1.927
31831W        W 4256  18.095  10.400   3.689
31832W        W 4257  12.268  29.467   3.732
31833W        W 4258   8.499  17.276  12.019
31834W        W 4259  20.088  44.029   3.140
31835W        W 4260   4.089  43.799   0.398
31836W        W 4261  17.788  26.139   3.265
31837W        W 4262  13.338  25.828   0.817
31838W        W 4263  43.887  18.805  14.819
31839W        W 4264  10.104  39.406  12.360
31840W        W 4265  11.189  36.030   0.582
31841W        W 4266  25.986  10.163   4.089
31842W        W 4267  33.587   6.405  13.030
31843W        W 4268  27.470   9.745  11.651
31844W        W 4269  13.648  21.247   3.168
31845W        W 4270  39.781  34.508  10.305
31846W        W 4271  35.508  21.753  14.642
31847W        W 4272  14.580  29.557   4.227
31848W        W 4273  34.346  30.888   1.372
31849W        W 4274  41.753   5.271   2.771
31850W        W 4275  10.086  30.117   1.995
31851W        W 4276   6.232  18.523  10.344
31852W        W 4277  37.296   2.842   0.850
31853W        W 4278  13.639  13.784  11.357
31854W        W 4279  13.163  37.624   3.701
31855W        W 4280  36.141   4.689  10.533
31856W        W 4281   7.862  27.617  14.371
31857W        W 4282  32.836  36.506  10.643
31858W        W 4283  35.485  28.694   2.836
31859W        W 4284  21.261  30.022   4.942
31860W        W 4285  10.789  42.295   3.818
31861W        W 4286  29.978  38.277  13.469
31862W        W 4287  42.354  42.978  12.800
31863W        W 4288  13.648  24.692  11.638
31864W        W 4289  26.218   2.965  11.996
31865W        W 4290  27.623  26.011   4.666
31866W        W 4291  31.449  18.618   0.991
31867W        W 4292   0.035  13.736  12.417
31868W        W 4293  38.399  41.844   1.882
31869W        W 4294  42.114  29.596   4.109
31870W        W 4295   6.281   5.396   4.419
31871W        W 4296  42.990  23.726  11.169
31872W        W 4297  11.106  33.897   0.844
31873W        W 4298  34.387  39.574   0.475
31874W        W 4299  26.217   1.867  14.256
31875W        W 4300   2.525   5.899   0.492
31876W        W 4301  18.476  23.425  11.072
31877W        W 4302  26.571  21.813  14.336
31878W        W 4303  15.204  41.023  13.364
31879W        W 4304  39.059  32.170  12.315
31880W        W 4305   5.721  37.073  14.003
31881W        W 4306  28.603  28.065   3.209
31882W        W 4307  32.028  26.757  13.186
31883W        W 4308  22.046  31.013   2.711
31884W        W 4309  37.925   4.294  11.057
31885W        W 4310  14.605   6.239  10.895
31886W        W 4311  24.008  40.613  12.682
31887W        W 4312   3.465   2.550   4.519
31888W        W 4313  16.157  16.529  11.870
31889W        W 4314  15.198  18.607  12.703
31890W        W 4315   7.613  25.558  10.346
31891W        W 4316  11.327  31.623   1.888
31892W        W 4317   0.697  10.569  11.550
31893W        W 4318  12.527   6.946   3.630
31894W        W 4319  28.263  36.344  13.783
31895W        W 4320  13.207  16.879  12.984
31896W        W 4321  14.127  29.170   0.396
31897W        W 4322  33.558   3.268  10.635
31898W        W 4323   0.304  28.712  14.528
31899W        W 4324  19.168  37.135   2.352
31900W        W 4325  38.828  12.372   3.153
31901W        W 4326  38.910  38.044   4.028
31902W        W 4327  21.733  17.529   2.010
31903W        W 4328  36.774  40.257   2.432
31904W        W 4329  18.644  33.855  10.654
31905W        W 4330  21.458  42.571  13.332
31906W        W 4331  25.049  41.618   1.165
31907W        W 4332  19.040  43.090   4.154
31908W        W 4333   7.529  22.293  12.926
31909W        W 4334  37.324   9.628   1.362
31910W        W 4335  14.429  24.041   0.448
31911W        W 4336  39.409  11.162   3.104
31912W        W 4337  36.561  42.817   1.731
31913W        W 4338  18.257  41.209   4.075
31914W        W 4339  44.951  23.573   0.508
31915W        W 4340  42.451  10.284  11.888
31916W        W 4341  13.197  44.326   4.634
31917W        W 4342  22.646  12.692  13.027
31918W        W 4343  26.183  24.225   0.477
31919W        W 4344  44.831  31.660   0.172
31920W        W 4345   0.774   7.664   0.512
31921W        W 4346  30.478   9.120  12.488
31922W        W 4347  36.655  37.628   2.180
31923W        W 4348  29.847   5.409   0.834
31924W        W 4349  15.728  30.153  13.836
31925W        W 4350   6.953  17.685  13.028
31926W        W 4351  29.209  21.036   2.247
31927W        W 4352  24.296   5.835   0.888
31928W        W 4353  28.081  33.068  10.541
31929W        W 4354  32.548  26.085   1.386
31930W        W 4355  35.290  42.892  14.777
31931W        W 4356  37.086  11.726  10.956
31932W        W 4357   8.348  39.361   2.716
31933W        W 4358   5.483  44.803   0.780
31934W        W 4359  44.736   3.881  13.402
31935W        W 4360  24.613   6.589  13.367
31936W        W 4361  27.429  21.660  10.683
31937W        W 4362  30.385  22.105   0.342
31938W        W 4363  29.991   5.876  10.424
31939W        W 4364  18.130   4.886  11.964
31940W        W 4365  14.310  44.590   0.382
31941W        W 4366  25.296  19.175   2.701
31942W        W 4367  16.415  39.383   4.751
31943W        W 4368  24.620  41.435  14.854
31944W        W 4369  14.459  33.649  14.056
31945W        W 4370  11.263  26.982   1.718
31946W        W 4371  19.426  41.246   0.517
31947W        W 4372   2.670  35.808   0.799
31948W        W 4373  41.560  26.983   0.987
31949W        W 4374  33.974   2.224   3.662
31950W        W 4375  42.289  21.515   3.830
31951W        W 4376  19.162   1.453   0.041
31952W        W 4377  16.315  16.650  12.819
31953W        W 4378  23.251  12.510  14.153
31954W        W 4379  37.347  10.098   1.823
31955W        W 4380  32.309  19.586  11.431
31956W        W 4381  26.822  22.627  13.799
31957W        W 4382   5.262  22.085   4.252
31958W        W 4383  29.405  12.688  12.892
31959W        W 4384  32.066  38.924   1.858
31960W        W 4385  19.784   7.197   2.760
31961W        W 4386  42.163  30.016   3.795
31962W        W 4387  25.012   3.343  10.701
31963W        W 4388  43.017  25.504   4.202
31964W        W 4389  28.397  37.780   4.158
31965W        W 4390   5.909  13.004   4.265
31966W        W 4391  42.550   7.441  10.664
31967W        W 4392  33.686  28.580   1.834
31968W        W 4393  17.176  42.854  10.299
31969W        W 4394  40.744   9.657  10.729
31970W        W 4395  21.138  43.394   0.766
31971W        W 4396  26.076  31.233   4.664
31972W        W 4397   8.191  34.868   3.086
31973W        W 4398   2.296   1.766   2.869
31974W        W 4399   3.965  20.578  11.661
31975W        W 4400  23.462  19.570   2.795
31976W        W 4401  28.333  14.523  13.030
31977W        W 4402   4.013  33.116  13.054
31978W        W 4403  39.138  15.115  11.104
31979W        W 4404   9.212  21.780  13.926
31980W        W 4405  32.178   3.882  10.598
31981W        W 4406  44.435  41.739  10.643
31982W        W 4407  22.745   3.251   1.735
31983W        W 4408  37.922  16.817  11.216
31984W        W 4409  29.125   3.901   3.636
31985W        W 4410  10.726   9.749   4.696
31986W        W 4411   5.876  17.554  12.852
31987W        W 4412  43.984   9.768  10.953
31988W        W 4413   7.022  34.470  10.706
31989W        W 4414  19.493   2.560  12.015
31990W        W 4415  15.273  34.366  13.563
31991W        W 4416   9.250  33.702  10.777
31992W        W 4417  27.611  31.751  12.457
31993W        W 4418   9.969   4.735   3.313
31994W        W 4419   3.730  17.255   4.524
31995W        W 4420  18.023   4.836   0.378
31996W        W 4421  33.810  34.473   4.279
31997W        W 4422  24.899  15.670   0.864
31998W        W 4423  20.600   0.292  14.886
31999W        W 4424  31.006  40.895   3.874
32000W        W 4425   4.872  31.929  10.717
32001W        W 4426   3.584   6.269   4.890
32002W        W 4427  34.418  26.761   1.460
32003W        W 4428  33.479  31.860   2.320
32004W        W 4429  12.112  14.640   1.964
32005W        W 4430  39.510  15.706  12.473
32006W        W 4431  28.953  30.382  11.696
32007W        W 4432   9.752  24.200   1.966
32008W        W 4433   6.244  28.023  12.125
32009W        W 4434   6.790  39.869   4.265
32010W        W 4435  38.924   3.701  14.035
32011W        W 4436  20.492  40.291   3.255
32012W        W 4437  43.731   6.178   0.894
32013W        W 4438   8.415  37.550  11.129
32014W        W 4439  19.186  31.480   3.809
32015W        W 4440  26.018  27.526   3.846
32016W        W 4441  20.163  38.748   4.055
32017W        W 4442   6.739  26.063  13.136
32018W        W 4443  42.542  30.137   2.862
32019W        W 4444   1.840  22.585   2.556
32020W        W 4445  36.423  40.401   0.866
32021W        W 4446  24.910   2.843  14.031
32022W        W 4447   6.649   7.882  11.601
32023W        W 4448  10.712  15.784  11.100
32024W        W 4449  30.537   1.299  12.111
32025W        W 4450  36.929  11.994  14.343
32026W        W 4451  29.481  42.304  11.948
32027W        W 4452  32.789  36.591   4.875
32028W        W 4453  37.409  20.589  10.954
32029W        W 4454  24.989  10.894  14.457
32030W        W 4455  28.081  36.387  14.691
32031W        W 4456  13.800  22.425  10.039
32032W        W 4457  33.289  24.683   0.416
32033W        W 4458  32.591  33.468  10.894
32034W        W 4459  19.190  20.111  13.911
32035W        W 4460  20.836  32.199  13.005
32036W        W 4461   0.706  32.690   3.321
32037W        W 4462  22.884   5.171   2.264
32038W        W 4463   0.224   9.868  12.899
32039W        W 4464  42.454  40.905   4.970
32040W        W 4465   9.881  28.432  13.939
32041W        W 4466   3.551  42.914  10.355
32042W        W 4467  26.050  23.081  10.578
32043W        W 4468  44.628  30.658   4.953
32044W        W 4469  22.747  16.687   2.885
32045W        W 4470   1.206  38.969  12.004
32046W        W 4471  29.078  28.920  10.644
32047W        W 4472  11.723  30.981  14.354
32048W        W 4473   9.621   7.716  14.580
32049W        W 4474   6.200  23.061  14.496
32050W        W 4475  38.854  40.783   0.370
32051W        W 4476  39.579  15.792  11.660
32052W        W 4477  25.437   8.564  12.047
32053W        W 4478  44.290   6.308   0.193
32054W        W 4479  34.406   9.127  13.240
32055W        W 4480   6.776  33.728   1.348
32056W        W 4481  35.411  38.088   2.307
32057W        W 4482  36.940  40.631  14.624
32058W        W 4483  40.654   7.739   4.833
32059W        W 4484  38.690  15.995   2.880
32060W        W 4485  39.665   4.943   0.113
32061W        W 4486  25.669  24.946   0.430
32062W        W 4487   6.412  30.537   2.739
32063W        W 4488  18.554  23.488  13.027
32064W        W 4489  44.282  24.068   0.278
32065W        W 4490  32.515  43.432   4.650
32066W        W 4491  40.082  42.714  11.137
32067W        W 4492  20.091  36.881   4.643
32068W        W 4493  18.105  12.640  13.545
32069W        W 4494  21.253  31.750  11.868
32070W        W 4495  36.220  40.551  14.903
32071W        W 4496  18.788  26.322  11.582
32072W        W 4497  24.162  16.417  12.979
32073W        W 4498   9.945  12.078  11.010
32074W        W 4499  12.864  26.902  12.175
32075W        W 4500  38.177  18.732  11.117
32076W        W 4501   3.278  30.049  14.277
32077W        W 4502  17.257  28.665  10.680
32078W        W 4503   5.196  10.896   4.553
32079W        W 4504  24.877   5.946  11.617
32080W        W 4505   5.389   5.317   2.717
32081W        W 4506   4.320  35.163  14.373
32082W        W 4507  24.215   4.639  10.744
32083W        W 4508  26.409  32.161   9.796
32084W        W 4509  20.652  31.498  12.470
32085W        W 4510  28.692   5.703   1.346
32086W        W 4511  21.778   6.005   1.845
32087W        W 4512  27.526  24.600   1.176
32088W        W 4513  20.670   8.056   0.928
32089W        W 4514   7.140  32.091  10.336
32090W        W 4515   9.682  24.630   0.158
32091W        W 4516  14.089   6.909  11.528
32092W        W 4517  16.065  13.000  13.101
32093W        W 4518  18.300  17.381   1.281
32094W        W 4519  11.255  20.602   4.549
32095W        W 4520  26.412  19.763   0.444
32096W        W 4521  40.590  39.385   3.680
32097W        W 4522  13.602  38.272   2.891
32098W        W 4523  41.845  32.623  11.018
32099W        W 4524  21.467  23.052  11.467
32100W        W 4525  23.312  10.284   0.197
32101W        W 4526  27.583  32.261  12.377
32102W        W 4527  22.669  31.832   2.730
32103W        W 4528  28.078  21.471   4.080
32104W        W 4529   6.852  38.720   4.825
32105W        W 4530  37.861  12.225   2.166
32106W        W 4531  38.583   2.599   3.714
32107W        W 4532  13.198  43.511   0.007
32108W        W 4533  10.798   8.195   4.698
32109W        W 4534   5.904  30.346   1.321
32110W        W 4535  44.054  16.156  11.056
32111W        W 4536   1.157  38.683   0.243
32112W        W 4537  16.291  11.777  11.889
32113W        W 4538  38.850  41.908  13.691
32114W        W 4539  12.625  18.331  11.124
32115W        W 4540  15.602  21.594  10.359
32116W        W 4541  42.277  42.320  11.139
32117W        W 4542  21.158  42.095   1.367
32118W        W 4543  16.310  42.926   4.169
32119W        W 4544  23.154   2.386   1.929
32120W        W 4545   8.428  23.027   3.651
32121W        W 4546   7.939  16.763  10.808
32122W        W 4547  32.380  10.290   2.603
32123W        W 4548  41.515   5.872  12.117
32124W        W 4549  28.326  32.508  13.856
32125W        W 4550  38.334  31.045  12.960
32126W        W 4551  22.019  33.315   4.213
32127W        W 4552  31.067  40.523   4.647
32128W        W 4553  15.593  37.792   0.837
32129W        W 4554  17.240  35.900   3.354
32130W        W 4555   1.898  21.150   2.596
32131W        W 4556  33.561  10.252   2.326
32132W        W 4557   4.257  34.728  14.019
32133W        W 4558  36.478  44.336  12.373
32134W        W 4559  34.062  21.943  14.273
32135W        W 4560  37.257  20.777  12.610
32136W        W 4561  13.522  22.734   3.636
32137W        W 4562  19.531  44.736  10.455
32138W        W 4563   7.996   1.306  14.549
32139W        W 4564  39.413   3.320   4.682
32140W        W 4565   4.723  12.756   4.665
32141W        W 4566  10.202   1.293   0.530
32142W        W 4567   3.537  18.321  13.680
32143W        W 4568  22.007  40.131  11.176
32144W        W 4569   7.836  44.907   1.759
32145W        W 4570  43.378  14.803  14.856
32146W        W 4571  33.187  43.765  10.963
32147W        W 4572  16.701  43.198   3.236
32148W        W 4573   5.234  39.539   4.341
32149W        W 4574   8.351  34.546  10.990
32150W        W 4575   2.184   9.331   4.237
32151W        W 4576  18.095   3.265  14.352
32152W        W 4577  35.508  10.133  13.481
32153W        W 4578  35.038  14.161   0.933
32154W        W 4579  39.345   6.909  13.535
32155W        W 4580  21.808   5.767   1.359
32156W        W 4581  25.672  42.081   1.214
32157W        W 4582  22.459  11.631  13.035
32158W        W 4583   9.583   6.624  13.502
32159W        W 4584  14.780  15.622   1.696
32160W        W 4585  33.466  20.283   0.472
32161W        W 4586  14.462  33.619   1.434
32162W        W 4587  12.756  21.876  12.422
32163W        W 4588  17.201   0.557  13.292
32164W        W 4589   6.795  23.534   3.712
32165W        W 4590  19.217  32.804  12.865
32166W        W 4591  16.374  30.129   1.704
32167W        W 4592  28.099  30.785  14.256
32168W        W 4593  27.853   0.289  13.751
32169W        W 4594  38.770  27.359   4.061
32170W        W 4595  23.739  13.281  12.441
32171W        W 4596   8.593  33.711  11.934
32172W        W 4597  35.963  18.997   3.917
32173W        W 4598  18.155  26.454   3.747
32174W        W 4599  23.179  29.101   2.657
32175W        W 4600  37.270  17.060   1.390
32176W        W 4601   5.703  42.104  12.720
32177W        W 4602  21.714  44.239   0.840
32178W        W 4603  43.882  14.752   4.236
32179W        W 4604  22.559  25.666   4.161
32180W        W 4605  43.047  38.324  11.245
32181W        W 4606  38.630   3.354  11.592
32182W        W 4607   2.754   4.923   2.824
32183W        W 4608  21.470  44.552   3.306
32184W        W 4609  44.026  16.324  14.252
32185W        W 4610  23.523   6.707   3.602
32186W        W 4611  20.700  29.650  14.718
32187W        W 4612  38.568  19.272   0.327
32188W        W 4613  25.110   5.153  12.267
32189W        W 4614  25.186   8.971   2.313
32190W        W 4615  33.983  43.744   3.739
32191W        W 4616  32.352   8.023   1.471
32192W        W 4617  25.706  33.425  14.540
32193W        W 4618   7.392   0.669   1.333
32194W        W 4619   7.554  41.444   0.584
32195W        W 4620   3.346  18.562   1.121
32196W        W 4621  23.988  14.271  14.920
32197W        W 4622  12.844   2.203  10.701
32198W        W 4623  43.930  17.596   4.319
32199W        W 4624  41.294  19.722  14.504
32200W        W 4625  26.612  31.165   0.238
32201W        W 4626  42.111   0.807  13.415
32202W        W 4627  39.235  43.897  11.775
32203W        W 4628  16.113  31.488   2.483
32204W        W 4629   1.821  26.590  14.479
32205W        W 4630  14.805   5.882   4.644
32206W        W 4631  25.206  28.693   3.589
32207W        W 4632  29.553  39.538  12.180
32208W        W 4633  24.045  38.802   2.813
32209W        W 4634  11.726   0.809   4.049
32210W        W 4635  22.917  34.894  11.968
32211W        W 4636  34.064   9.734   2.095
32212W        W 4637  27.222   0.412   0.390
32213W        W 4638  10.310   0.965   3.314
32214W        W 4639  26.279   1.404   1.453
32215W        W 4640  25.496  25.897  12.917
32216W        W 4641  27.588  22.243  11.791
32217W        W 4642   8.274  28.004   1.075
32218W        W 4643  24.188  19.015  13.746
32219W        W 4644  28.487  39.467  13.785
32220W        W 4645  42.773   7.621   4.712
32221W        W 4646  39.839  38.890   1.890
32222W        W 4647  28.514  36.594   4.871
32223W        W 4648  25.374  24.011   1.129
32224W        W 4649   5.898  26.253  13.853
32225W        W 4650   5.400  21.159   2.489
32226W        W 4651  16.338  22.295   0.780
32227W        W 4652   3.334  27.231   3.226
32228W        W 4653  13.293   2.924   0.294
32229W        W 4654  26.962   8.161   1.696
32230W        W 4655  39.755  16.275   1.477
32231W        W 4656  27.568  37.381  13.420
32232W        W 4657   1.268  17.629   0.423
32233W        W 4658  10.069  28.441   2.576
32234W        W 4659  44.252  25.966  11.673
32235W        W 4660  34.080  14.520   3.633
32236W        W 4661  33.417  23.209  14.382
32237W        W 4662  19.526  33.307   4.165
32238W        W 4663  41.845  36.962  10.733
32239W        W 4664   6.974  30.149  11.619
32240W        W 4665  39.859   0.549   1.805
32241W        W 4666  14.047  30.939   1.656
32242W        W 4667  17.604  23.061  10.668
32243W        W 4668   1.248  27.566  12.739
32244W        W 4669  34.379  43.736  10.980
32245W        W 4670  11.800  24.209  11.431
32246W        W 4671  38.773  43.485   0.729
32247W        W 4672  14.933   0.291  11.179
32248W        W 4673  24.692  19.697  12.277
32249W        W 4674  18.624   5.794   2.932
32250W        W 4675  26.103   5.284   1.363
32251W        W 4676  29.954  26.570  10.459
32252W        W 4677  12.359  29.098   0.751
32253W        W 4678   6.819  42.556   3.229
32254W        W 4679  12.761  29.701   2.528
32255W        W 4680   1.237  36.107  13.447
32256W        W 4681  37.041  27.134   1.364
32257W        W 4682  14.317  13.668   4.601
32258W        W 4683  18.323  30.617   5.108
32259W        W 4684  36.829   1.834  10.896
32260W        W 4685  32.841  19.284   1.708
32261W        W 4686  16.832  33.930   4.581
32262W        W 4687  34.550  37.586  13.083
32263W        W 4688  11.792  11.137  12.577
32264W        W 4689  11.878  18.691  11.523
32265W        W 4690  39.423  26.692   4.825
32266W        W 4691  10.192  23.816   0.330
32267W        W 4692  23.578   3.947  13.008
32268W        W 4693  40.253  39.813   5.022
32269W        W 4694   2.718  28.515  12.890
32270W        W 4695  40.242   1.457  11.078
32271W        W 4696  18.625  28.185   1.833
32272W        W 4697  10.341  38.904  12.924
32273W        W 4698   9.952  16.304   1.449
32274W        W 4699   6.285  20.999   0.272
32275W        W 4700  41.513  25.355   4.131
32276W        W 4701  21.608  33.815  12.915
32277W        W 4702  28.139  23.386   3.885
32278W        W 4703   9.649  33.195   4.439
32279W        W 4704  37.245   4.157   3.855
32280W        W 4705  15.175  21.006   1.435
32281W        W 4706   3.935  37.099  11.918
32282W        W 4707   8.199   6.744   1.701
32283W        W 4708  37.334   6.565  10.947
32284W        W 4709   2.417  28.793   2.911
32285W        W 4710  36.977  31.038  10.615
32286W        W 4711  23.780  11.693  11.501
32287W        W 4712   1.089  14.359  12.044
32288W        W 4713  43.708  16.684   0.661
32289W        W 4714  19.108  10.828   1.382
32290W        W 4715  23.694  36.366  11.641
32291W        W 4716   3.919   2.577   2.873
32292W        W 4717  12.315  24.703   3.793
32293W        W 4718  20.259  13.310  12.720
32294W        W 4719  40.419  13.419   0.979
32295W        W 4720   8.817  44.257   0.855
32296W        W 4721  21.455  40.099  12.550
32297W        W 4722  35.121   4.265  12.374
32298W        W 4723  25.596  44.679  12.523
32299W        W 4724  22.512   6.645   3.629
32300W        W 4725  44.420  27.129   4.522
32301W        W 4726  30.945  41.163  10.229
32302W        W 4727   9.866  31.145  14.839
32303W        W 4728  13.644   1.459  13.000
32304W        W 4729   8.253  16.361  11.999
32305W        W 4730  28.048  30.192  10.792
32306W        W 4731  18.672  44.886   4.323
32307W        W 4732  11.390  19.363  12.750
32308W        W 4733   6.356   4.659   1.273
32309W        W 4734  25.057  26.067  11.537
32310W        W 4735   9.621  22.170   2.167
32311W        W 4736   8.820  38.386  10.665
32312W        W 4737  33.043  30.434   1.240
32313W        W 4738  19.765   3.656   2.631
32314W        W 4739  11.308  39.050  10.823
32315W        W 4740  12.181  33.191  14.306
32316W        W 4741  24.524  14.612  12.889
32317W        W 4742  10.274  38.481  12.092
32318W        W 4743  10.809   2.691   0.175
32319W        W 4744  27.228  40.816  14.468
32320W        W 4745   2.742  19.185   3.701
32321W        W 4746  22.370   7.968   4.129
32322W        W 4747  37.975  30.107   4.646
32323W        W 4748   7.712   2.715   1.883
32324W        W 4749  40.483  27.354   1.782
32325W        W 4750  23.286  11.820  10.107
32326W        W 4751  34.618   7.823  14.392
32327W        W 4752  16.819  14.239   4.588
32328W        W 4753  34.544   1.727   0.036
32329W        W 4754  23.179  39.440   2.848
32330W        W 4755  29.562  15.295   3.898
32331W        W 4756  25.273  14.551  14.948
32332W        W 4757   6.275  33.538   1.302
32333W        W 4758   2.021  32.865   2.469
32334W        W 4759   8.824  20.053   2.688
32335W        W 4760   9.325  34.806   2.763
32336W        W 4761   0.241  11.127  13.892
32337W        W 4762   3.670  30.517  14.956
32338W        W 4763  24.665  13.141  10.929
32339W        W 4764   4.400  15.650   4.129
32340W        W 4765  11.128   6.457  13.915
32341W        W 4766   7.942  44.964  12.487
32342W        W 4767   8.058  11.136  14.680
32343W        W 4768  26.255  39.078   2.258
32344W        W 4769  19.319  19.203  12.409
32345W        W 4770  28.573  39.265   4.570
32346W        W 4771  16.129  40.433  14.941
32347W        W 4772  40.902  42.328   5.847
32348W        W 4773  35.131  42.457   0.067
32349W        W 4774  36.548  14.550  11.953
32350W        W 4775  39.029  42.284   2.409
32351W        W 4776  10.127   5.240  10.536
32352W        W 4777   0.040  12.224  14.946
32353W        W 4778  26.526  13.462   4.958
32354W        W 4779  22.243  18.626  10.704
32355W        W 4780   0.742   9.926  10.950
32356W        W 4781  14.303  27.671  11.466
32357W        W 4782  21.600  30.524  10.287
32358W        W 4783  13.626  24.722   1.596
32359W        W 4784   7.374  17.211   1.382
32360W        W 4785   5.995  25.111  12.012
32361W        W 4786  28.471  36.701  14.783
32362W        W 4787   0.850   3.818  10.604
32363W        W 4788  29.487  24.715   1.830
32364W        W 4789  11.746   9.805  11.978
32365W        W 4790  15.319  11.292  12.198
32366W        W 4791   7.687  19.747  13.077
32367W        W 4792  39.206   0.370   3.309
32368W        W 4793  34.033  25.739   3.722
32369W        W 4794  20.476  39.913   3.679
32370W        W 4795   1.857   9.436  12.040
32371W        W 4796  44.808  21.072  10.731
32372W        W 4797  10.286  18.243  12.995
32373W        W 4798  44.304  21.480  11.514
32374W        W 4799  13.751   0.345   4.255
32375W        W 4800  10.722   9.662  13.005
32376W        W 4801   7.630  39.076  10.703
32377W        W 4802   0.254  19.650   2.260
32378W        W 4803  40.382  32.616  14.902
32379W        W 4804  40.535  43.791  14.224
32380W        W 4805  40.024  34.869   2.239
32381W        W 4806   3.000  11.469   1.451
32382W        W 4807  29.233  15.716   2.718
32383W        W 4808  24.534  37.784  13.819
32384W        W 4809  34.585  16.892  14.571
32385W        W 4810  44.298  20.998   1.673
32386W        W 4811  26.285   5.896   2.505
32387W        W 4812  30.424  34.946   3.694
32388W        W 4813  26.565   9.875   4.810
32389W        W 4814  23.955  19.760   0.213
32390W        W 4815  30.501  35.948   4.649
32391W        W 4816  37.353  43.497  10.764
32392W        W 4817  24.318  44.939   3.734
32393W        W 4818  37.328  28.024   2.631
32394W        W 4819  40.342  21.011  13.214
32395W        W 4820  10.897   1.743  14.538
32396W        W 4821  14.088   6.478   3.545
32397W        W 4822   7.195  34.095  11.020
32398W        W 4823  18.566  34.556   2.789
32399W        W 4824  21.482  18.816   0.505
32400W        W 4825  31.506  43.414  10.439
32401W        W 4826   0.833  41.399   1.679
32402W        W 4827  27.615  18.292   3.882
32403W        W 4828   0.323  41.251   1.436
32404W        W 4829  29.401   3.511   0.899
32405W        W 4830  32.366  30.533  10.628
32406W        W 4831   9.473  19.716   4.394
32407W        W 4832  24.543   7.114  12.553
32408W        W 4833  32.647   0.925   0.408
32409W        W 4834  36.944  41.076   1.861
32410W        W 4835   3.727   9.181  10.586
32411W        W 4836   5.298  18.980   4.585
32412W        W 4837  24.059  29.878  13.405
32413W        W 4838  40.431  11.901   0.789
32414W        W 4839  39.534   9.410  10.714
32415W        W 4840  17.420  24.281   4.122
32416W        W 4841  21.644  42.757   2.829
32417W        W 4842  30.869  40.451   3.647
32418W        W 4843   5.043  34.347   0.693
32419W        W 4844  17.475  37.446  12.564
32420W        W 4845  35.997   5.426   0.435
32421W        W 4846  35.074   8.954   2.358
32422W        W 4847  16.637  15.522   0.872
32423W        W 4848  15.132  20.515  14.925
32424W        W 4849   5.484  23.227   3.773
32425W        W 4850   0.063  27.748   3.196
32426W        W 4851  20.483  38.149   3.353
32427W        W 4852  38.965  33.656  13.913
32428W        W 4853  14.815  22.481   3.281
32429W        W 4854   7.115  14.624   3.624
32430W        W 4855  23.166  40.517  12.821
32431W        W 4856  41.264  32.463  13.784
32432W        W 4857   2.641  37.609   4.189
32433W        W 4858  20.350  36.877   2.634
32434W        W 4859  16.771  16.306   1.317
32435W        W 4860  29.406  34.120  11.045
32436W        W 4861  16.773   3.135  13.921
32437W        W 4862  10.042  27.737   3.088
32438W        W 4863  27.488   5.423  12.368
32439W        W 4864  13.118  32.922  12.088
32440W        W 4865  27.690  21.128   1.671
32441W        W 4866   9.925  19.652  13.615
32442W        W 4867   8.199  40.269   1.466
32443W        W 4868  37.787  12.674  13.057
32444W        W 4869  38.036   2.275  10.422
32445W        W 4870  12.313  26.552   0.946
32446W        W 4871  39.972   6.232  13.073
32447W        W 4872  23.118   2.639   1.460
32448W        W 4873   6.409   5.274   2.797
32449W        W 4874   0.402  31.907   1.244
32450W        W 4875  23.425  28.109   2.815
32451W        W 4876   0.789  24.748   4.041
32452W        W 4877   8.425   6.923  12.411
32453W        W 4878  40.100  39.381   2.787
32454W        W 4879  27.582  31.010   1.702
32455W        W 4880  27.184   7.123   0.356
32456W        W 4881   3.962  37.052  10.608
32457W        W 4882   9.454  38.856  12.534
32458W        W 4883  17.724  19.148  10.934
32459W        W 4884   1.983  36.017   1.337
32460W        W 4885  36.151  31.405  13.029
32461W        W 4886  38.550  12.340  12.636
32462W        W 4887  19.088  10.886   0.206
32463W        W 4888  33.387  29.144   9.885
32464W        W 4889  27.239  44.023  14.307
32465W        W 4890  31.904  22.493   0.314
32466W        W 4891  30.046  15.148   1.746
32467W        W 4892  20.285  21.818   4.614
32468W        W 4893  17.308  27.658  14.414
32469W        W 4894   9.876  36.445  11.491
32470W        W 4895  42.497  12.381   1.903
32471W        W 4896  27.545  31.260   2.653
32472W        W 4897   4.826  44.791  13.025
32473W        W 4898   7.317  43.949  13.954
32474W        W 4899  15.840   7.247   0.413
32475W        W 4900   9.984  11.189   1.447
32476W        W 4901   4.593   3.093  10.224
32477W        W 4902  27.017  40.235   3.624
32478W        W 4903  44.940  42.348   2.140
32479W        W 4904  41.472  36.476   0.705
32480W        W 4905  11.285  34.951  12.356
32481W        W 4906  10.928  19.712   0.718
32482W        W 4907  28.582  15.856   4.720
32483W        W 4908  19.844  38.964   4.857
32484W        W 4909  37.430  41.604  13.266
32485W        W 4910  18.180  31.688   4.239
32486W        W 4911  11.822  42.752   2.888
32487W        W 4912   3.166  26.200   2.304
32488W        W 4913  36.087   3.372   0.344
32489W        W 4914  41.525  32.169   1.899
32490W        W 4915  23.109  36.069  13.468
32491W        W 4916   5.151   0.759  13.001
32492W        W 4917  43.163  25.687   2.118
32493W        W 4918  38.332  37.004   3.821
32494W        W 4919  44.536  20.665  14.860
32495W        W 4920  33.373   2.507   4.756
32496W        W 4921  22.364   7.365   4.192
32497W        W 4922   2.774  20.776  13.532
32498W        W 4923  38.910  20.942  14.750
32499W        W 4924  30.846  38.395  11.060
32500W        W 4925  43.736  17.661   2.268
32501W        W 4926   3.877   7.872  11.251
32502W        W 4927   1.408  33.139   2.754
32503W        W 4928  40.485  11.072  14.714
32504W        W 4929  33.201  35.590   5.103
32505W        W 4930  43.804  37.640   2.873
32506W        W 4931  40.503  32.373  13.557
32507W        W 4932  13.923  16.217  13.930
32508W        W 4933   4.640   9.031  12.948
32509W        W 4934   2.855  35.496   3.784
32510W        W 4935  24.265  30.068  14.728
32511W        W 4936  22.054  40.058   3.855
32512W        W 4937   2.648   7.195  12.438
32513W        W 4938  14.623  26.774   0.920
32514W        W 4939   1.859  23.881  13.911
32515W        W 4940   1.306   4.370  11.607
32516W        W 4941   6.992  29.050  10.664
32517W        W 4942   5.416  40.902   3.264
32518W        W 4943  37.043  12.371   2.898
32519W        W 4944  19.171  33.508   4.923
32520W        W 4945  19.063  44.819  12.143
32521W        W 4946  18.980  21.314  13.456
32522W        W 4947  37.384   8.881   3.123
32523W        W 4948  30.858  24.166   1.446
32524W        W 4949  26.648  29.580   2.885
32525W        W 4950   8.805  32.354   3.764
32526W        W 4951  42.898  27.629  14.505
32527W        W 4952   1.537  29.025  11.561
32528W        W 4953  10.214  21.079  12.420
32529W        W 4954  29.824   8.613  13.496
32530W        W 4955  34.613  18.644  12.099
32531W        W 4956  28.043  36.164   4.156
32532W        W 4957  10.257  25.977   0.866
32533W        W 4958   8.053  26.962  13.983
32534W        W 4959  43.370  43.560   4.589
32535W        W 4960  33.500   4.165  12.461
32536W        W 4961  27.135  33.740  10.211
32537W        W 4962  34.653  24.011   4.683
32538W        W 4963  20.667  39.426  11.069
32539W        W 4964  28.179  16.557   4.434
32540W        W 4965   1.441  27.458  12.247
32541W        W 4966  37.382  16.379  11.640
32542W        W 4967  44.920   0.710  11.155
32543W        W 4968  11.340  44.057   2.753
32544W        W 4969  20.229  28.341  13.644
32545W        W 4970   0.399  35.985  13.104
32546W        W 4971   8.874  32.974   2.253
32547W        W 4972  25.271  10.908   5.040
32548W        W 4973  19.049   5.464  12.436
32549W        W 4974  25.733  20.664  13.997
32550W        W 4975  23.544   6.421  14.793
32551W        W 4976  16.194  29.623   1.725
32552W        W 4977  14.065  24.161  12.121
32553W        W 4978  18.600   4.788  13.457
32554W        W 4979  34.317  42.252  11.878
32555W        W 4980   0.423  33.137   1.800
32556W        W 4981   0.021  23.479  14.979
32557W        W 4982  34.022  27.249  11.575
32558W        W 4983  25.501  31.335   4.706
32559W        W 4984  36.064  20.568   2.778
32560W        W 4985  11.662  30.694   4.644
32561W        W 4986   1.637  16.226   0.188
32562W        W 4987  26.324  11.112  13.352
32563W        W 4988  28.846   9.153  14.839
32564W        W 4989  24.203  41.549   0.398
32565W        W 4990  40.404  15.122  11.627
32566W        W 4991  28.755  25.078  12.929
32567W        W 4992   0.626  30.449  13.869
32568W        W 4993  13.747   8.361  11.560
32569W        W 4994  44.198  28.410   1.796
32570W        W 4995   3.579   7.825   0.941
32571W        W 4996  17.861  34.022  13.417
32572W        W 4997  26.975  24.601  11.244
32573W        W 4998  17.674   4.203  13.109
32574W        W 4999   1.650   5.337  14.388
32575W        W 5000   1.231  22.235  14.489
32576W        W 5001  32.951  24.630   4.816
32577W        W 5002  30.469  37.101  14.840
32578W        W 5003  19.968   8.585  13.556
32579W        W 5004  29.080  11.866  12.549
32580W        W 5005   9.063  27.943   3.226
32581W        W 5006  25.727  37.866   1.498
32582W        W 5007  39.342  39.931   0.824
32583W        W 5008   2.717  42.338  12.857
32584W        W 5009  32.362  17.816   2.114
32585W        W 5010  21.201  23.026  12.946
32586W        W 5011  34.645   0.481  12.409
32587W        W 5012  11.453   7.576   5.009
32588W        W 5013  20.845  17.840   1.065
32589W        W 5014  35.397  31.738  12.495
32590W        W 5015   3.806   7.401   3.205
32591W        W 5016   1.245   4.763   0.539
32592W        W 5017   8.581   0.993   3.690
32593W        W 5018  32.899   2.190  14.414
32594W        W 5019  31.461   2.639   4.896
32595W        W 5020  39.833   5.369   2.162
32596W        W 5021   2.913   7.873  10.804
32597W        W 5022  27.482   9.849   0.451
32598W        W 5023  35.463  28.927   2.346
32599W        W 5024  17.291  23.110   1.075
32600W        W 5025  41.818  32.442   3.244
32601W        W 5026  36.513  23.725  12.884
32602W        W 5027  30.881  33.368  12.156
32603W        W 5028  39.993  33.472  14.477
32604W        W 5029  35.558   5.731  14.048
32605W        W 5030  33.530  27.750   4.501
32606W        W 5031   7.249  32.419  13.001
32607W        W 5032   3.331  16.047  11.055
32608W        W 5033  16.005  20.881  14.079
32609W        W 5034   9.803  11.458  13.561
32610W        W 5035  16.259   9.590  13.033
32611W        W 5036  40.496  34.423   1.907
32612W        W 5037  30.082  22.878  11.201
32613W        W 5038  35.091   7.296  11.901
32614W        W 5039  29.941  32.639  13.892
32615W        W 5040  25.538  39.909   1.870
32616W        W 5041  23.491  36.126   2.740
32617W        W 5042  31.940  23.077   4.741
32618W        W 5043  15.038  34.101  11.388
32619W        W 5044  24.644  44.948   2.738
32620W        W 5045  26.967   9.768  12.396
32621W        W 5046  14.670   2.384  12.584
32622W        W 5047   6.372  33.991   2.371
32623W        W 5048  34.615  28.554   4.631
32624W        W 5049  32.875  41.502  12.332
32625W        W 5050  10.844  41.961   1.922
32626W        W 5051  35.453  20.631  13.827
32627W        W 5052   0.937  20.592   0.509
32628W        W 5053  28.008  24.207   3.433
32629W        W 5054  22.003  15.800   2.654
32630W        W 5055  19.427  20.470   5.059
32631W        W 5056  23.141  19.415   1.043
32632W        W 5057  41.828  15.166  12.506
32633W        W 5058  24.521  43.510   1.822
32634W        W 5059   8.976   8.055   2.173
32635W        W 5060   6.458  20.230   0.880
32636W        W 5061  35.919   4.379   0.459
32637W        W 5062  14.526   9.722   1.239
32638W        W 5063  32.795  12.570   1.262
32639W        W 5064  38.459  35.779  12.980
32640W        W 5065  38.357  25.100   5.052
32641W        W 5066  31.078  16.415   1.351
32642W        W 5067  28.909   3.714   0.811
32643W        W 5068   7.892  31.449   1.368
32644W        W 5069  13.608  22.633  13.942
32645W        W 5070   9.713  40.077  11.184
32646W        W 5071  21.743  42.500   3.311
32647W        W 5072  40.899  20.059   4.637
32648W        W 5073  28.564  17.228  10.481
32649W        W 5074  40.847  13.696   1.956
32650W        W 5075  30.150   8.288   1.354
32651W        W 5076  32.349  36.547  13.313
32652W        W 5077  31.610  29.658  12.113
32653W        W 5078  41.524  25.004   3.695
32654W        W 5079  33.170  38.457  12.520
32655W        W 5080   1.403   1.611   4.817
32656W        W 5081  41.835   7.563   4.133
32657W        W 5082  24.706  27.049  14.870
32658W        W 5083  20.695  39.145  12.994
32659W        W 5084  29.411  37.154   4.646
32660W        W 5085  39.655  19.589   3.074
32661W        W 5086  27.158   3.000  11.145
32662W        W 5087  37.365  14.137   1.666
32663W        W 5088  23.995  31.517  12.766
32664W        W 5089  11.541   8.367   1.292
32665W        W 5090  29.750   3.034   3.668
32666W        W 5091  11.202  11.684   4.163
32667W        W 5092  40.956   7.114   2.619
32668W        W 5093  42.111  12.711  12.152
32669W        W 5094  37.069  22.639  11.438
32670W        W 5095  29.560  14.181  10.793
32671W        W 5096  44.277  16.737   0.922
32672W        W 5097  25.344  29.184   3.747
32673W        W 5098  38.106  15.844   2.206
32674W        W 5099  42.806  13.331  10.394
32675W        W 5100  28.562   1.804   1.964
32676W        W 5101  31.949   9.200   2.679
32677W        W 5102  19.924   6.972   4.518
32678W        W 5103  42.319  13.309   0.395
32679W        W 5104  26.733  12.297   3.239
32680W        W 5105  34.384  11.153   1.255
32681W        W 5106  20.066  13.716   1.394
32682W        W 5107  36.677  41.635  11.377
32683W        W 5108  32.070  33.714   5.109
32684W        W 5109   6.852  13.586  13.928
32685W        W 5110   3.966  27.254   4.381
32686W        W 5111  33.671  38.604  12.475
32687W        W 5112  34.179  19.581   3.742
32688W        W 5113  10.465   6.334   5.495
32689W        W 5114  13.220  19.934  14.721
32690W        W 5115  15.930  20.835   1.761
32691W        W 5116   4.287   3.857   3.715
32692W        W 5117  37.912   6.994   2.294
32693W        W 5118  14.159  37.941   1.411
32694W        W 5119  34.611  39.543  13.553
32695W        W 5120  22.128  18.905  13.600
32696W        W 5121  12.775  16.596  11.388
32697W        W 5122  16.281  34.464   2.841
32698W        W 5123  25.396   6.942  10.722
32699W        W 5124  40.356   3.855  13.595
32700W        W 5125  30.181   6.867   3.582
32701W        W 5126   9.849  32.531  14.196
32702W        W 5127  10.834  22.774  14.887
32703W        W 5128  12.698   7.170   3.195
32704W        W 5129   6.415  12.112  13.513
32705W        W 5130  35.565  29.831   4.277
32706W        W 5131   4.811  28.018  14.157
32707W        W 5132  21.392  23.526  12.940
32708W        W 5133  34.512  32.962   1.779
32709W        W 5134  41.184  22.081  10.807
32710W        W 5135  30.755  40.518  10.797
32711W        W 5136  20.195  39.467   3.713
32712W        W 5137  27.441  21.736   2.790
32713W        W 5138  43.411  15.410  13.517
32714W        W 5139  43.937   9.831   1.312
32715W        W 5140  11.605  27.933   3.284
32716W        W 5141   0.836   1.858  11.439
32717W        W 5142  29.006  44.030  10.559
32718W        W 5143  43.943  41.459   0.872
32719W        W 5144  16.327  39.690  13.895
32720W        W 5145   1.304  44.326  10.797
32721W        W 5146   7.677  12.226  13.933
32722W        W 5147  17.999   4.843   2.727
32723W        W 5148  42.940   1.916   3.878
32724W        W 5149  41.106  16.851  12.854
32725W        W 5150  43.758  28.954  12.594
32726W        W 5151   0.491  14.650  10.636
32727W        W 5152  32.639  39.347  10.744
32728W        W 5153  39.531  14.738   2.810
32729W        W 5154  11.724  34.287   2.767
32730W        W 5155   1.400   8.713   2.007
32731W        W 5156   8.848  26.859   2.838
32732W        W 5157  38.768  29.880  10.798
32733W        W 5158  22.234  34.882   3.221
32734W        W 5159  36.538  16.376   0.577
32735W        W 5160   0.484  36.522   4.949
32736W        W 5161   8.475  38.428  12.446
32737W        W 5162   8.262   3.990   3.538
32738W        W 5163  33.395  26.075  14.502
32739W        W 5164  35.873  18.694  11.104
32740W        W 5165   7.745  33.458   0.290
32741W        W 5166  32.594  42.637  11.097
32742W        W 5167  38.999  32.352  14.463
32743W        W 5168  13.255  37.884   2.388
32744W        W 5169  19.252  42.494  11.719
32745W        W 5170  15.322  38.908  12.791
32746W        W 5171  29.959  38.172   2.422
32747W        W 5172   5.244  38.124   3.223
32748W        W 5173  10.149  41.407  11.057
32749W        W 5174  38.750  12.418   2.217
32750W        W 5175   8.653  13.817  10.560
32751W        W 5176  15.287  19.065   0.951
32752W        W 5177  40.392  31.406  11.582
32753W        W 5178  29.949  13.908   3.278
32754W        W 5179   5.361   4.264   4.154
32755W        W 5180   4.704  37.970  11.650
32756W        W 5181  38.359   4.866   3.125
32757W        W 5182  29.980  21.558   2.677
32758W        W 5183  37.955   3.794  11.131
32759W        W 5184  38.876  42.035   1.954
32760W        W 5185  25.987  20.046   2.198
32761W        W 5186  42.816  44.007   3.692
32762W        W 5187  13.742  16.146  12.357
32763W        W 5188  26.153  21.306   3.559
32764W        W 5189  24.727  19.057  11.216
32765W        W 5190  18.653  37.899  13.000
32766W        W 5191  36.493  16.854   2.259
32767W        W 5192  39.613   3.507   1.870
32768W        W 5193   4.452  11.603  14.454
32769W        W 5194  24.107  30.874   1.297
32770W        W 5195  22.984   4.881  12.362
32771W        W 5196  30.181   3.377   3.863
32772W        W 5197  18.346  10.645   0.785
32773W        W 5198   7.038  29.562   1.879
32774W        W 5199  40.518   1.804  14.827
32775W        W 5200  11.953  27.485   1.143
32776W        W 5201  34.378  14.896  11.132
32777W        W 5202  27.437   3.892   1.455
32778W        W 5203   0.703  34.475   0.421
32779W        W 5204  21.967   4.837  10.563
32780W        W 5205  22.204  11.791  12.442
32781W        W 5206   3.176   8.212  13.350
32782W        W 5207  43.461  40.829  10.625
32783W        W 5208  44.984   1.767   2.785
32784W        W 5209  28.893  12.076   4.132
32785W        W 5210   6.382   5.132   3.751
32786W        W 5211  43.862   3.211   2.958
32787W        W 5212  39.849  26.937   0.307
32788W        W 5213  33.114  16.425  14.692
32789W        W 5214  14.716  32.668   1.215
32790W        W 5215  40.652  16.279  13.534
32791W        W 5216  38.095  39.383   3.743
32792W        W 5217  19.984  43.704   0.442
32793W        W 5218  24.722  27.623  14.423
32794W        W 5219   2.300   3.899  12.800
32795W        W 5220  24.053   9.518  14.557
32796W        W 5221  42.775   6.329  11.693
32797W        W 5222  38.457   4.796   2.604
32798W        W 5223  25.512  14.040   2.712
32799W        W 5224  28.219  20.861  13.903
32800W        W 5225  25.554   0.828   3.209
32801W        W 5226  19.971  21.395  11.919
32802W        W 5227  38.850  42.555  13.010
32803W        W 5228  23.749   5.480  11.861
32804W        W 5229  31.703  38.456   2.790
32805W        W 5230   1.217  24.007   3.231
32806W        W 5231  44.397  44.391  11.605
32807W        W 5232   1.109  27.098  12.086
32808W        W 5233  29.016  12.289  11.813
32809W        W 5234   7.533  14.642  10.668
32810W        W 5235  37.454  36.717  12.392
32811W        W 5236   1.055  25.695  12.952
32812W        W 5237   4.897  11.987   5.008
32813W        W 5238  30.264  33.500  10.404
32814W        W 5239   6.132   2.238   0.380
32815W        W 5240  33.586  39.719   4.600
32816W        W 5241  14.567  40.025  13.477
32817W        W 5242  17.618  15.736  14.893
32818W        W 5243  23.559  13.164   1.313
32819W        W 5244  14.822  26.243   2.225
32820W        W 5245  21.495  42.410  14.812
32821W        W 5246  44.931  31.350   3.324
32822W        W 5247  30.643   6.829  13.962
32823W        W 5248  23.613  16.313   2.690
32824W        W 5249   4.010   2.826  11.510
32825W        W 5250  43.188  19.126  12.091
32826W        W 5251   5.747  16.834  11.073
32827W        W 5252  43.074  23.060  11.224
32828W        W 5253  18.337  30.070   0.941
32829W        W 5254   6.852  19.167  11.032
32830W        W 5255  32.168  40.044  13.252
32831W        W 5256   9.102   6.364   5.079
32832W        W 5257  38.098   5.705  13.362
32833W        W 5258   8.471  44.276  13.495
32834W        W 5259  10.327  21.888   1.757
32835W        W 5260  21.154  26.373  14.878
32836W        W 5261  33.290  26.818   4.844
32837W        W 5262   0.303  41.677   2.199
32838W        W 5263  43.532   3.004  13.037
32839W        W 5264  29.073   5.496  14.474
32840W        W 5265  43.360  22.097   0.487
32841W        W 5266   0.867   4.429   3.660
32842W        W 5267  30.883  21.250  13.136
32843W        W 5268  38.970  40.314   4.363
32844W        W 5269  20.008  12.648   4.199
32845W        W 5270   8.898  26.973   4.619
32846W        W 5271  42.888  28.010   5.010
32847W        W 5272  42.361  12.767   4.603
32848W        W 5273  39.570   0.357   2.648
32849W        W 5274  10.334  22.929  12.540
32850W        W 5275  30.060   8.628   2.224
32851W        W 5276   7.105  38.537   5.231
32852W        W 5277  43.316  31.182   3.376
32853W        W 5278  23.770  13.092  10.805
32854W        W 5279  14.910  21.300  13.106
32855W        W 5280  33.956   5.318   2.260
32856W        W 5281   6.130   4.843   2.662
32857W        W 5282  39.467   4.580   4.040
32858W        W 5283  17.334  37.147   0.043
32859W        W 5284  24.667   9.351  11.994
32860W        W 5285   9.700  36.610   4.871
32861W        W 5286  31.406  13.754  13.749
32862W        W 5287   7.822   4.470  11.436
32863W        W 5288  14.807  14.601  13.496
32864W        W 5289  38.717  32.034  13.189
32865W        W 5290  26.736  25.691   3.760
32866W        W 5291  31.415  34.401   4.397
32867W        W 5292  44.234   5.933  12.391
32868W        W 5293  27.606  32.700   4.055
32869W        W 5294  16.254  34.369   1.529
32870W        W 5295  42.395  14.209   1.229
32871W        W 5296  42.210  40.735  13.437
32872W        W 5297  41.263  14.554   3.158
32873W        W 5298  31.847  35.966   1.239
32874W        W 5299  26.984  19.549  13.508
32875W        W 5300  13.593  40.008  13.069
32876W        W 5301   8.313   8.868   0.405
32877W        W 5302  30.326  33.251   0.871
32878W        W 5303  21.093  41.025   4.790
32879W        W 5304  14.412  32.391   0.905
32880W        W 5305  12.674  43.581  11.450
32881W        W 5306  29.084  29.057  12.428
32882W        W 5307  25.015   8.863  13.338
32883W        W 5308   2.944  17.259  11.989
32884W        W 5309  20.112  18.157  13.857
32885W        W 5310   3.908  38.959  12.562
32886W        W 5311  39.995  30.999   4.226
32887W        W 5312  42.701  18.121   4.098
32888W        W 5313   3.790  24.830  10.529
32889W        W 5314  16.109   7.896  10.786
32890W        W 5315  37.705  20.197  11.120
32891W        W 5316  11.854  18.145  11.525
32892W        W 5317  12.653   9.227  12.704
32893W        W 5318  20.706  30.988   4.375
32894W        W 5319  21.270  24.096   5.048
32895W        W 5320  30.020   7.298  10.786
32896W        W 5321  37.581   3.952  13.432
32897W        W 5322  15.798  42.762   2.943
32898W        W 5323  20.544  40.324  11.801
32899W        W 5324   0.890  15.260   1.900
32900W        W 5325  40.916  11.079  13.436
32901W        W 5326  29.984  19.700  12.444
32902W        W 5327  19.076   7.039  13.973
32903W        W 5328  32.604  41.492  10.724
32904W        W 5329  43.454  39.566  12.458
32905W        W 5330  30.452  20.853  14.824
32906W        W 5331  43.568  19.250   0.914
32907W        W 5332  31.398  24.062   4.211
32908W        W 5333  31.080  33.182  10.577
32909W        W 5334  29.673  17.188  11.809
32910W        W 5335   2.043  20.336   3.679
32911W        W 5336   8.925  18.530  12.562
32912W        W 5337  28.981   9.806   2.820
32913W        W 5338  37.975  20.617  10.940
32914W        W 5339  18.858  41.181  10.999
32915W        W 5340   7.394  25.491  14.170
32916W        W 5341   0.309   2.943  11.775
32917W        W 5342  10.853  10.292   4.741
32918W        W 5343   4.213  33.986  12.641
32919W        W 5344  14.353  37.956  13.587
32920W        W 5345   4.842   7.489   1.239
32921W        W 5346  40.494  14.637  11.414
32922W        W 5347  40.980   6.805  10.767
32923W        W 5348   6.718   0.052  11.599
32924W        W 5349  16.615   2.809  10.423
32925W        W 5350  30.089  21.263  11.981
32926W        W 5351  16.323  14.051   2.542
32927W        W 5352  44.379  28.210   2.278
32928W        W 5353  29.070  37.591  11.604
32929W        W 5354  20.466  33.395   4.316
32930W        W 5355  26.010  42.599   2.308
32931W        W 5356   0.508  15.868   2.168
32932W        W 5357  10.666  28.384  14.907
32933W        W 5358  32.365  29.018   1.849
32934W        W 5359  44.388  36.416   0.509
32935W        W 5360  21.671   7.002   1.651
32936W        W 5361  13.956  32.760   1.813
32937W        W 5362  14.220   2.707  10.810
32938W        W 5363  37.044  24.463  12.623
32939W        W 5364  44.954  37.293   4.892
32940W        W 5365  40.385  41.684   3.525
32941W        W 5366  20.794  10.758  13.920
32942W        W 5367  35.022  13.804  13.468
32943W        W 5368  28.070   3.456   1.922
32944W        W 5369  10.186   5.872   1.350
32945W        W 5370  36.333  40.109   2.746
32946W        W 5371  11.138  10.322   3.619
32947W        W 5372  42.111  25.230   3.272
32948W        W 5373  43.141  18.873   1.422
32949W        W 5374  31.079  24.458  11.993
32950W        W 5375  30.592  21.879   0.772
32951W        W 5376  35.405  10.463   2.867
32952W        W 5377  16.180   0.594  13.764
32953W        W 5378  27.545   0.231  11.475
32954W        W 5379   2.772  31.686  12.906
32955W        W 5380  10.703  36.919   2.446
32956W        W 5381  24.370   6.558   1.863
32957W        W 5382  12.775  17.169  13.068
32958W        W 5383  25.602  12.689  14.488
32959W        W 5384  40.418   5.821   2.626
32960W        W 5385  40.336   5.641  10.758
32961W        W 5386  18.102  24.069  14.829
32962W        W 5387  10.773  21.265  10.774
32963W        W 5388  36.548  30.302  13.638
32964W        W 5389  38.926  19.152   1.282
32965W        W 5390  12.733  32.373   2.824
32966W        W 5391  22.690  26.391  11.671
32967W        W 5392  33.483  39.922   3.619
32968W        W 5393  27.387  24.719  14.407
32969W        W 5394  20.334  24.632   4.195
32970W        W 5395   1.379  18.023  14.064
32971W        W 5396  33.954  29.482  10.437
32972W        W 5397  40.227  19.697  14.303
32973W        W 5398  17.304  33.419  14.065
32974W        W 5399  39.417  43.933   1.905
32975W        W 5400  37.552   4.726   4.469
32976W        W 5401   1.226  31.917   0.710
32977W        W 5402  23.300  30.925  12.835
32978W        W 5403  16.205  22.525  13.534
32979W        W 5404  30.980  25.024   4.173
32980W        W 5405   5.705  10.683  13.921
32981W        W 5406   1.269  35.892  11.692
32982W        W 5407  24.288  17.579  12.577
32983W        W 5408  16.919  17.650   1.752
32984W        W 5409  36.578  35.908  10.589
32985W        W 5410  38.950  15.802  13.248
32986W        W 5411  16.779  16.812  13.010
32987W        W 5412   6.777  15.135   4.724
32988W        W 5413  12.960  12.172  11.115
32989W        W 5414  30.943   8.205   3.666
32990W        W 5415  22.186  43.519   2.673
32991W        W 5416  29.521  16.366  11.247
32992W        W 5417  35.300  24.499   0.411
32993W        W 5418  14.835  44.406   4.709
32994W        W 5419  12.632  23.737  10.693
32995W        W 5420   1.959  14.109   3.558
32996W        W 5421  35.001  20.793  14.082
32997W        W 5422  24.676  43.906  11.619
32998W        W 5423   1.192  36.439   0.472
32999W        W 5424  15.775  27.099   0.470
33000W        W 5425  36.368  31.507   2.755
33001W        W 5426  30.616  29.072  13.125
33002W        W 5427  40.877  41.318   4.995
33003W        W 5428   5.153  33.854  13.988
33004W        W 5429  11.241   4.298  10.312
33005W        W 5430   4.973  13.754   3.962
33006W        W 5431  25.549  16.452   2.823
33007W        W 5432   3.317  38.823   1.933
33008W        W 5433  14.858  14.787   1.852
33009W        W 5434  21.013  38.521  12.101
33010W        W 5435   5.738   2.879   3.180
33011W        W 5436  36.173   5.771   0.791
33012W        W 5437  29.891   5.247  10.724
33013W        W 5438  30.705  37.757   4.282
33014W        W 5439  36.922  39.516  11.267
33015W        W 5440  32.655  19.723  14.305
33016W        W 5441   7.899  35.955   1.663
33017W        W 5442   5.999  21.648   1.666
33018W        W 5443  38.492  21.053   0.501
33019W        W 5444  31.197  33.584   3.926
33020W        W 5445  24.525  18.705   2.912
33021W        W 5446  18.295  22.731  10.733
33022W        W 5447  28.559  40.988   0.390
33023W        W 5448  31.935  35.325   3.730
33024W        W 5449  35.096  17.549   3.242
33025W        W 5450  35.859  20.215  14.792
33026W        W 5451  27.674  33.510   1.885
33027W        W 5452  34.474   1.373  12.918
33028W        W 5453  34.146  38.533  10.381
33029W        W 5454  24.269  28.631   3.648
33030W        W 5455   5.839   0.363   2.644
33031W        W 5456  22.707  31.678  13.940
33032W        W 5457  34.540  42.555  13.626
33033W        W 5458   0.942   1.846   4.868
33034W        W 5459  19.629  21.593   1.690
33035W        W 5460  18.581  36.484  13.515
33036W        W 5461  44.777  32.097   4.073
33037W        W 5462   3.590  43.650   0.283
33038W        W 5463  40.976  17.047   0.811
33039W        W 5464  23.136  42.894  10.383
33040W        W 5465  22.279  21.684  12.082
33041W        W 5466  15.839   1.881   1.172
33042W        W 5467   8.801  28.589   1.984
33043W        W 5468  34.032  23.012   3.658
33044W        W 5469   0.833  30.720  10.735
33045W        W 5470  34.064  11.298  13.480
33046W        W 5471  35.348  13.843   1.251
33047W        W 5472   5.239   5.861  12.877
33048W        W 5473  39.302  38.017   1.827
33049W        W 5474  29.941   3.481  13.847
33050W        W 5475  27.173   5.234   0.514
33051W        W 5476  38.469  13.490  11.169
33052W        W 5477  40.870  41.277   4.473
33053W        W 5478  30.653  44.797  11.072
33054W        W 5479  11.289  19.845   3.827
33055W        W 5480   8.640  18.687  12.117
33056W        W 5481   2.798  13.342  12.575
33057W        W 5482   2.862  31.575  10.613
33058W        W 5483   0.075  27.519  14.981
33059W        W 5484  27.523  44.127   1.243
33060W        W 5485  25.781  22.479   3.205
33061W        W 5486  20.344  30.805  13.966
33062W        W 5487  30.007  18.691   1.705
33063W        W 5488   5.665  33.118   1.701
33064W        W 5489  42.436  17.769  14.876
33065W        W 5490   0.211  21.821   2.898
33066W        W 5491  24.515  42.777   0.483
33067W        W 5492  40.181  35.194  12.455
33068W        W 5493  28.012  41.433   0.916
33069W        W 5494  27.802  25.179  12.224
33070W        W 5495  30.562   2.408  13.588
33071W        W 5496  34.986  39.319  11.657
33072W        W 5497  34.408  40.990   4.645
33073W        W 5498  27.136  38.155  11.188
33074W        W 5499  37.996  34.501  12.860
33075W        W 5500  36.081   7.776   5.030
33076W        W 5501  23.879   1.012  14.357
33077W        W 5502  39.017   1.727  10.649
33078W        W 5503  30.036   4.951  14.414
33079W        W 5504   7.441  23.229   3.636
33080W        W 5505  37.473  43.318  14.705
33081W        W 5506  27.222  21.107   0.210
33082W        W 5507  33.073  41.386  11.440
33083W        W 5508   6.735  15.829   2.231
33084W        W 5509   0.305  17.206  14.423
33085W        W 5510  41.982  22.183   3.426
33086W        W 5511   2.825   8.376  10.581
33087W        W 5512  13.262  11.843   4.573
33088W        W 5513  15.716  17.555  14.544
33089W        W 5514  37.539  24.638   3.922
33090W        W 5515  44.031   3.489   4.321
33091W        W 5516  22.134  35.033   3.732
33092W        W 5517   6.347  42.864  14.069
33093W        W 5518  35.091  31.088   0.088
33094W        W 5519   1.348   0.023  13.133
33095W        W 5520  32.438  23.617  14.816
33096W        W 5521  18.909  26.249  14.793
33097W        W 5522   7.478  20.037  10.464
33098W        W 5523   1.776  44.504   0.524
33099W        W 5524   3.823  38.795  10.656
33100W        W 5525  15.478  20.686   2.657
33101W        W 5526  17.221   2.667  12.674
33102W        W 5527   0.753  16.585  10.571
33103W        W 5528  16.004  20.348   0.321
33104W        W 5529   6.768  28.561   0.333
33105W        W 5530  31.935   9.457   1.727
33106W        W 5531   7.360   3.361   1.411
33107W        W 5532   5.425  43.407  11.638
33108W        W 5533  23.712   3.207   1.726
33109W        W 5534  20.760  26.101   0.076
33110W        W 5535  35.345  42.724   4.656
33111W        W 5536   3.662   7.841  11.721
33112W        W 5537  31.056   1.805   0.190
33113W        W 5538  43.376  13.871   4.132
33114W        W 5539  18.296  41.609  11.928
33115W        W 5540  23.512  19.761  12.910
33116W        W 5541  21.818  37.016   1.776
33117W        W 5542  30.529  42.393  14.977
33118W        W 5543  15.778  35.447   3.453
33119W        W 5544   5.770  29.155  13.393
33120W        W 5545  41.453  22.948  11.273
33121W        W 5546   6.467  32.476  12.354
33122W        W 5547  16.677  35.797  11.546
33123W        W 5548  36.943  22.490   0.604
33124W        W 5549  41.556  40.365  11.154
33125W        W 5550  42.404  29.631  14.384
33126W        W 5551  36.981  18.323  12.138
33127W        W 5552   8.227  31.765   4.200
33128W        W 5553  41.609   3.971  11.404
33129W        W 5554  23.685  13.315  11.252
33130W        W 5555   1.934   4.376   2.348
33131W        W 5556   6.701   5.618   2.227
33132W        W 5557  26.500   2.792   3.257
33133W        W 5558  37.898  15.862  14.006
33134W        W 5559  19.178  19.754   3.620
33135W        W 5560  15.920  16.351  14.012
33136W        W 5561  35.671  23.411  10.520
33137W        W 5562  41.605  12.506  14.447
33138W        W 5563  20.089  24.904   2.729
33139W        W 5564  35.666  14.130  12.813
33140W        W 5565  30.167  10.265   3.075
33141W        W 5566  44.972  28.804   0.851
33142W        W 5567   0.774  37.419   1.002
33143W        W 5568  11.732  32.648   3.555
33144W        W 5569  37.362   3.149   0.437
33145W        W 5570  20.697  44.036   2.292
33146W        W 5571  26.315  21.681   4.778
33147W        W 5572  44.833  13.077  11.963
33148W        W 5573  42.694  41.264   0.383
33149W        W 5574  35.291   8.939  11.527
33150W        W 5575   8.994  17.652   1.689
33151W        W 5576  18.509  15.923   2.378
33152W        W 5577  35.317  37.857  12.377
33153W        W 5578  21.318  39.051  12.950
33154W        W 5579  15.761  12.162  13.458
33155W        W 5580  29.197  32.552  11.762
33156W        W 5581   2.368  24.750   1.545
33157W        W 5582   7.043  36.370   3.130
33158W        W 5583   6.967   7.231  14.001
33159W        W 5584   9.241   1.312   1.420
33160W        W 5585  26.367  33.648   0.398
33161W        W 5586  29.432  32.574  13.871
33162W        W 5587  43.482  25.084  10.210
33163W        W 5588  34.851  36.862  12.025
33164W        W 5589  34.574  29.242   0.769
33165W        W 5590  41.517  42.779   9.935
33166W        W 5591  39.253  12.569   4.191
33167W        W 5592  30.344  24.571   3.783
33168W        W 5593  12.663   3.679   1.773
33169W        W 5594   5.879   9.694  14.765
33170W        W 5595   5.178   9.654  13.490
33171W        W 5596  24.790  29.431   3.282
33172W        W 5597  11.805  39.881  10.648
33173W        W 5598   1.407  31.703  13.943
33174W        W 5599  22.619  34.644  11.140
33175W        W 5600  20.577  21.927  14.905
33176W        W 5601   4.786  14.561  14.386
33177W        W 5602  37.921  27.559   4.704
33178W        W 5603  34.892   3.872  14.456
33179W        W 5604  30.430   2.986   2.205
33180W        W 5605  11.635  21.466   0.399
33181W        W 5606  29.935   6.294   4.883
33182W        W 5607   0.930  20.460   4.200
33183W        W 5608  12.372  17.612   3.295
33184W        W 5609  28.566  35.106  14.156
33185W        W 5610  42.853  19.742  14.496
33186W        W 5611  32.004   9.509  12.248
33187W        W 5612  12.748  19.521  10.686
33188W        W 5613  22.525  25.625   0.898
33189W        W 5614   7.214  16.687   1.755
33190W        W 5615  27.137  11.128   1.741
33191W        W 5616  38.358  26.284  14.543
33192W        W 5617  40.133   5.472   4.053
33193W        W 5618  30.839   0.810   4.796
33194W        W 5619  12.817   1.241   4.554
33195W        W 5620   8.581   2.928   0.793
33196W        W 5621  16.594  11.903  14.404
33197W        W 5622  22.489  40.787   1.326
33198W        W 5623  40.097  16.232   3.684
33199W        W 5624  34.298   1.726  12.591
33200W        W 5625   9.022  42.871   4.596
33201W        W 5626  24.629  18.298   0.368
33202W        W 5627  31.909  29.457   0.337
33203W        W 5628  27.797  12.163  10.621
33204W        W 5629  35.055  37.483  12.889
33205W        W 5630  16.676  14.158  14.376
33206W        W 5631   3.113  29.721   2.225
33207W        W 5632  13.355  39.986   2.882
33208W        W 5633  43.731   5.744  13.076
33209W        W 5634  11.727  43.037   1.419
33210W        W 5635  34.173  11.810   1.753
33211W        W 5636  18.551  26.758  12.135
33212W        W 5637  44.527  17.126  12.325
33213W        W 5638  11.261  15.815   1.903
33214W        W 5639   7.376   4.464   1.327
33215W        W 5640  19.276   4.003   4.202
33216W        W 5641  25.265   1.462  12.471
33217W        W 5642  43.224  14.791   4.089
33218W        W 5643  15.314  42.122  11.130
33219W        W 5644  36.571   4.816  11.508
33220W        W 5645  37.360  24.202   0.276
33221W        W 5646  24.900  25.954   0.153
33222W        W 5647  40.344   8.364   1.865
33223W        W 5648  40.338  25.778  12.180
33224W        W 5649  18.041  31.617   0.298
33225W        W 5650   9.389   7.860   1.362
33226W        W 5651  32.985  43.351   0.784
33227W        W 5652  23.010  25.721   3.202
33228W        W 5653  15.548  21.214   0.544
33229W        W 5654  19.091  21.603   3.892
33230W        W 5655   3.395  39.218  13.300
33231W        W 5656  14.174  25.616   0.026
33232W        W 5657   2.670  15.207   4.057
33233W        W 5658  23.471  19.213   0.130
33234W        W 5659  18.176  37.937   0.874
33235W        W 5660  40.907  32.176   0.439
33236W        W 5661   4.032  43.366   1.842
33237W        W 5662  23.767  23.131   4.632
33238W        W 5663  38.216   2.170  12.541
33239W        W 5664   5.330  35.532   0.743
33240W        W 5665  33.043   2.907   1.331
33241W        W 5666   3.026   8.331   1.873
33242W        W 5667  19.183  39.365  10.603
33243W        W 5668  25.066   0.246   1.725
33244W        W 5669  35.327   9.705   0.942
33245W        W 5670   0.324  32.523  14.015
33246W        W 5671   9.440  24.197  11.973
33247W        W 5672  44.163  10.146   1.700
33248W        W 5673  15.744  19.209  13.818
33249W        W 5674  29.673  14.712  12.545
33250W        W 5675   7.283  41.802  12.106
33251W        W 5676  20.229  41.976  12.539
33252W        W 5677  43.508  10.130   3.848
33253W        W 5678  16.114  19.560  13.929
33254W        W 5679   7.949   6.943  10.666
33255W        W 5680  26.129  39.987   4.964
33256W        W 5681  10.402  33.984  10.220
33257W        W 5682  24.056  25.806  11.899
33258W        W 5683   8.383  39.868  12.365
33259W        W 5684  22.944   8.336   9.854
33260W        W 5685  24.021   8.189   2.322
33261W        W 5686   7.717  31.261  13.343
33262W        W 5687  18.432  41.018  13.815
33263W        W 5688  36.963  28.995  11.420
33264W        W 5689   8.820   5.916   0.480
33265W        W 5690  38.013  39.784  10.642
33266W        W 5691  16.298  33.108   1.665
33267W        W 5692  38.381   4.973  12.930
33268W        W 5693  38.079  31.913   4.115
33269W        W 5694   5.306   3.115  10.863
33270W        W 5695   2.908  29.147   0.819
33271W        W 5696  38.370  25.516  12.102
33272W        W 5697   8.893   1.419  12.078
33273W        W 5698  43.054  34.458   4.521
33274W        W 5699  24.380  12.588   4.839
33275W        W 5700  32.385  24.493   0.503
33276W        W 5701   0.767  22.010   1.846
33277W        W 5702  24.429  17.169   1.265
33278W        W 5703  31.641   3.299   4.158
33279W        W 5704  42.242  41.791  11.256
33280W        W 5705  39.934  20.323   0.551
33281W        W 5706  10.885  27.691  10.757
33282W        W 5707  31.318  38.353   1.007
33283W        W 5708  39.919  11.163   4.531
33284W        W 5709  10.754  13.846  12.001
33285W        W 5710  33.990  44.724   3.778
33286W        W 5711   6.511   2.500  11.576
33287W        W 5712  43.037   8.821   0.808
33288W        W 5713  44.859  20.048  11.839
33289W        W 5714  19.715  33.409  12.581
33290W        W 5715  34.986  38.464  13.985
33291W        W 5716   3.857   9.859  12.496
33292W        W 5717  11.369  18.965  14.754
33293W        W 5718  17.509  20.283   1.323
33294W        W 5719   5.903  16.669  12.896
33295W        W 5720   7.117  23.680  11.227
33296W        W 5721   1.674  31.630   0.719
33297W        W 5722  12.876  25.255   4.376
33298W        W 5723  26.137   4.399  10.431
33299W        W 5724  26.641  21.782  12.649
33300W        W 5725  32.314  28.627   2.870
33301W        W 5726   3.259  44.533   1.442
33302W        W 5727  40.433   2.422   1.645
33303W        W 5728  27.457  39.865  14.768
33304W        W 5729   0.748  24.811  11.625
33305W        W 5730  31.531   2.538   0.429
33306W        W 5731  28.695  22.686  11.157
33307W        W 5732  35.015  41.462  14.413
33308W        W 5733  44.783  29.179  13.945
33309W        W 5734   5.264  37.839  12.521
33310W        W 5735  40.943  26.754   3.341
33311W        W 5736  26.019  20.194   0.456
33312W        W 5737   6.355  30.702  11.109
33313W        W 5738  24.447  39.249   3.238
33314W        W 5739  36.998  17.538   4.173
33315W        W 5740  13.358   3.426   3.694
33316W        W 5741  35.387  34.512  12.223
33317W        W 5742  19.176  29.147   2.443
33318W        W 5743  36.860   1.689   1.326
33319W        W 5744  21.078  27.528   4.186
33320W        W 5745  23.696   4.452   0.394
33321W        W 5746  39.187  33.811  14.377
33322W        W 5747  12.329   7.711  12.930
33323W        W 5748  24.084   5.418  13.828
33324W        W 5749  24.591  11.959  13.144
33325W        W 5750  28.046  38.001  12.646
33326W        W 5751   0.796  10.135   5.052
33327W        W 5752  11.838  23.462  11.904
33328W        W 5753  22.775  37.826   4.101
33329W        W 5754  35.151  22.138  10.646
33330W        W 5755   7.790  35.926   3.683
33331W        W 5756  22.496  14.833   2.704
33332W        W 5757  19.627  31.299  13.402
33333W        W 5758  12.369  25.446   0.248
33334W        W 5759  12.421  43.927  12.048
33335W        W 5760  20.436  25.108  14.785
33336W        W 5761   2.720   9.861  11.156
33337W        W 5762   4.345  39.445   1.403
33338W        W 5763  33.702  19.694   4.256
33339W        W 5764   9.227  15.620   4.911
33340W        W 5765   2.136  14.669   0.826
33341W        W 5766  20.019  14.592  12.515
33342W        W 5767  36.814   2.426   1.687
33343W        W 5768  18.322  18.613  10.480
33344W        W 5769  18.565  10.149  14.909
33345W        W 5770  44.822   4.422  12.138
33346W        W 5771  23.146   1.175  11.145
33347W        W 5772  30.184  12.805  12.608
33348W        W 5773  19.476  39.853   3.930
33349W        W 5774   3.423  36.302  12.920
33350W        W 5775  42.464   5.351   2.022
33351W        W 5776  21.449  25.492  12.922
33352W        W 5777  21.057  21.041   1.157
33353W        W 5778  33.775   7.758   0.865
33354W        W 5779  43.899  17.513  12.817
33355W        W 5780  34.831   4.580  11.381
33356W        W 5781   8.611   0.869   0.929
33357W        W 5782   4.764  10.456   3.575
33358W        W 5783  18.626  36.979  12.828
33359W        W 5784  29.412   1.154   1.763
33360W        W 5785  17.013  37.385  12.331
33361W        W 5786  11.177  36.839   0.886
33362W        W 5787  23.323  27.111   0.900
33363W        W 5788  20.002  28.546   4.336
33364W        W 5789  39.828  10.483  12.090
33365W        W 5790  13.636  22.030  11.461
33366W        W 5791   2.302   8.632  13.867
33367W        W 5792  32.548  27.671   4.116
33368W        W 5793  32.825  40.914   2.394
33369W        W 5794  10.684  42.363   0.164
33370W        W 5795  13.642  19.540  14.013
33371W        W 5796  38.103  44.018  12.542
33372W        W 5797  15.719  41.762   0.322
33373W        W 5798  20.722  25.640  13.776
33374W        W 5799  27.934  44.047  10.591
33375W        W 5800  19.085  16.293   4.202
33376W        W 5801  16.245  37.841  12.614
33377W        W 5802  33.395  32.587   3.713
33378W        W 5803   3.009  42.843  10.479
33379W        W 5804  44.001  33.146  13.457
33380W        W 5805  44.032  17.578   2.701
33381W        W 5806  24.635   9.808  11.041
33382W        W 5807  17.162  10.137  11.583
33383W        W 5808  41.247   9.822  10.664
33384W        W 5809  18.563   7.692  11.628
33385W        W 5810   9.641  33.086  10.425
33386W        W 5811  35.427  33.174  12.218
33387W        W 5812   6.371  42.457   3.027
33388W        W 5813  33.638  24.687  14.304
33389W        W 5814  12.967   3.628   3.369
33390W        W 5815  35.395  26.608  11.541
33391W        W 5816  28.149  33.709  13.394
33392W        W 5817  23.638  18.523   4.791
33393W        W 5818  34.803   9.790  12.283
33394W        W 5819   2.899  16.343  11.752
33395W        W 5820   3.438  43.338  13.730
33396W        W 5821   7.809  40.121  12.521
33397W        W 5822  20.049  42.482   4.603
33398W        W 5823  37.279   5.598  11.922
33399W        W 5824  22.762  17.338  11.920
33400W        W 5825   3.738  35.448   1.635
33401W        W 5826  12.621  40.794   0.881
33402W        W 5827  44.009   7.979   1.810
33403W        W 5828   1.691  22.873  14.026
33404W        W 5829   7.534   9.567   3.157
33405W        W 5830   0.587  25.986  13.929
33406W        W 5831  14.889  21.675   1.412
33407W        W 5832  28.001  24.600  10.910
33408W        W 5833  33.998  15.128   1.952
33409W        W 5834   2.435  28.604  14.272
33410W        W 5835  22.123  41.264  11.901
33411W        W 5836  41.728   2.788   3.316
33412W        W 5837  43.014  11.298   3.709
33413W        W 5838  41.965  43.873   4.115
33414W        W 5839  29.213  23.700  12.583
33415W        W 5840  20.369  39.877  11.579
33416W        W 5841  18.349   0.877   1.369
33417W        W 5842  15.636  33.789   0.395
33418W        W 5843   6.347  29.392   2.740
33419W        W 5844  22.044   0.968   1.781
33420W        W 5845   4.679   8.191  14.928
33421W        W 5846  28.290   8.262  12.799
33422W        W 5847  34.855  42.105  11.129
33423W        W 5848  37.121   4.334   2.175
33424W        W 5849  30.573   7.790  14.916
33425W        W 5850   3.254  11.492   4.952
33426W        W 5851  35.612  36.960  11.543
33427W        W 5852   5.171  25.789   3.758
33428W        W 5853  32.909  29.483   1.430
33429W        W 5854   5.899  28.148  13.455
33430W        W 5855  38.235   9.850   1.624
33431W        W 5856  20.447  43.041  11.767
33432W        W 5857   4.828  17.562   1.630
33433W        W 5858  26.097  31.494   1.801
33434W        W 5859  29.633   8.359  12.935
33435W        W 5860  41.911   6.728   3.752
33436W        W 5861  35.852  26.966  13.821
33437W        W 5862  13.837  14.251  12.619
33438W        W 5863  39.558  21.332   3.701
33439W        W 5864  15.694  30.519   4.782
33440W        W 5865   6.909  24.518   3.245
33441W        W 5866  30.149  32.568  12.955
33442W        W 5867  36.153  22.538  13.045
33443W        W 5868  23.638  39.819  13.188
33444W        W 5869   8.452  13.264   2.730
33445W        W 5870   7.901  13.224  10.797
33446W        W 5871   8.013  36.562  11.167
33447W        W 5872  44.149   2.774   3.454
33448W        W 5873  39.400  41.194  13.526
33449W        W 5874  13.367  38.864  10.272
33450W        W 5875  40.279  22.079   2.612
33451W        W 5876   3.680  25.014   2.780
33452W        W 5877   5.336  14.955  11.856
33453W        W 5878   0.900  29.205  11.593
33454W        W 5879  33.913  38.804   1.835
33455W        W 5880  11.097   4.400   0.660
33456W        W 5881   4.048  20.143  13.808
33457W        W 5882   2.717  24.456   0.070
33458W        W 5883   8.727  19.505   4.838
33459W        W 5884   7.474  39.476   4.022
33460W        W 5885  14.008   2.710  12.469
33461W        W 5886  11.626   1.978  12.051
33462W        W 5887  35.480  41.330   0.851
33463W        W 5888  13.047  42.798  10.954
33464W        W 5889  20.718  22.495   1.911
33465W        W 5890  37.376  14.067   1.154
33466W        W 5891   1.503  35.972   0.348
33467W        W 5892  44.464   1.499  12.492
33468W        W 5893  23.712  27.112  12.121
33469W        W 5894  30.096  11.308  12.179
33470W        W 5895  43.482  11.802  11.147
33471W        W 5896  26.680  32.011   2.241
33472W        W 5897  25.679  26.492   3.155
33473W        W 5898  12.841  18.629  13.549
33474W        W 5899  25.030  41.483   0.657
33475W        W 5900  19.288   3.594  11.582
33476W        W 5901  17.615  26.969   1.588
33477W        W 5902   2.962   3.431  11.823
33478W        W 5903  24.353  18.798   4.305
33479W        W 5904   6.163  30.778   3.399
33480W        W 5905  35.836   7.463   2.393
33481W        W 5906  29.719  39.613  14.077
33482W        W 5907  39.937  32.412  14.700
33483W        W 5908  35.339  38.844  14.477
33484W        W 5909  19.231  44.008   4.402
33485W        W 5910  25.015  32.171   2.637
33486W        W 5911   3.412  27.894  13.060
33487W        W 5912  11.703  21.712   4.975
33488W        W 5913  36.353   5.268   4.196
33489W        W 5914  30.939  30.384  13.012
33490W        W 5915  44.068   4.415  12.816
33491W        W 5916   1.218  14.007   1.802
33492W        W 5917   0.852  29.689   3.202
33493W        W 5918  44.453  39.096   3.810
33494W        W 5919  43.738  23.192  14.974
33495W        W 5920  26.812  38.364  11.561
33496W        W 5921  23.020  40.134   0.673
33497W        W 5922  23.037  20.623   2.294
33498W        W 5923  36.162  14.678  14.802
33499W        W 5924   9.954  33.970   2.434
33500W        W 5925  19.544  37.510  11.932
33501W        W 5926   1.449  29.152   2.726
33502W        W 5927  21.093  28.603  10.655
33503W        W 5928  22.638  25.717  14.859
33504W        W 5929  43.868  13.218   2.264
33505W        W 5930  21.087  23.606   3.627
33506W        W 5931  38.458   2.678  13.501
33507W        W 5932   3.005  40.335  10.978
33508W        W 5933   3.886  13.184   2.827
33509W        W 5934  10.758  36.897   1.918
33510W        W 5935  12.590  16.102   0.412
33511W        W 5936  23.943  11.262   4.840
33512W        W 5937  43.420  20.204   2.267
33513W        W 5938  11.451  32.950   4.259
33514W        W 5939   3.745  41.639  14.975
33515W        W 5940   8.798  33.949  10.661
33516W        W 5941  39.657  26.522  13.506
33517W        W 5942  26.109  26.056   2.301
33518W        W 5943  17.087  21.471   0.419
33519W        W 5944  21.703  38.843   0.606
33520W        W 5945  28.131   5.053  10.273
33521W        W 5946  36.732   8.922   5.060
33522W        W 5947  34.950  20.210  14.799
33523W        W 5948  31.544  44.540   0.785
33524W        W 5949  40.048  30.614  10.644
33525W        W 5950  42.775  11.602  14.915
33526W        W 5951   3.877  23.670   1.018
33527W        W 5952  38.558  40.522  12.536
33528W        W 5953   2.870  24.955  12.915
33529W        W 5954  20.059  33.478   1.559
33530W        W 5955  26.154  17.707   2.601
33531W        W 5956  10.859  30.385   0.301
33532W        W 5957  16.265  41.218  12.074
33533W        W 5958  42.614  33.084  11.539
33534W        W 5959  24.971  31.967  12.885
33535W        W 5960  17.174  37.902  10.588
33536W        W 5961  14.525  20.338  14.055
33537W        W 5962  24.078  16.152  12.541
33538W        W 5963  36.562  30.525   1.642
33539W        W 5964  33.817  14.917   0.866
33540W        W 5965  43.108  23.565   3.188
33541W        W 5966   0.524  30.908  14.706
33542W        W 5967  28.007   1.613  12.167
33543W        W 5968   8.582  30.117   4.589
33544W        W 5969  37.189  10.171   4.567
33545W        W 5970  13.289   2.707  14.014
33546W        W 5971  17.689  32.359   5.646
33547W        W 5972   7.443  18.131  14.934
33548W        W 5973  25.443   8.406  14.815
33549W        W 5974  41.978  43.719  14.704
33550W        W 5975   1.439  35.436  11.950
33551W        W 5976  17.961  29.300  13.904
33552W        W 5977  31.063  40.527  13.858
33553W        W 5978  43.767  23.323  13.600
33554W        W 5979  29.458  40.306   1.899
33555W        W 5980  33.617  28.051   3.491
33556W        W 5981  44.730  39.893   2.475
33557W        W 5982  29.029  22.215  14.334
33558W        W 5983  15.598  19.564   3.297
33559W        W 5984  18.537  37.265   1.250
33560W        W 5985  31.577  28.903   1.386
33561W        W 5986  34.280  36.344   3.885
33562W        W 5987  25.061   4.378   3.139
33563W        W 5988  23.261  39.589  13.475
33564W        W 5989  30.418  30.971   4.682
33565W        W 5990  24.648  44.903   1.385
33566W        W 5991  36.975  26.411   3.040
33567W        W 5992  10.996  34.534   2.236
33568W        W 5993  37.856  41.207  14.923
33569W        W 5994   4.347  37.765  12.639
33570W        W 5995  33.886  14.290  13.490
33571W        W 5996  32.090   0.227  12.538
33572W        W 5997  36.052  18.796   0.273
33573W        W 5998  44.533  15.181   0.284
33574W        W 5999  31.992  30.459  12.398
33575W        W 6000  15.379  13.183   3.172
33576W        W 6001   7.302  23.713   3.750
33577W        W 6002   4.382  43.872  10.790
33578W        W 6003   9.668   2.269   4.240
33579W        W 6004   5.137  41.039  14.266
33580W        W 6005  15.206  18.439  13.664
33581W        W 6006   6.199   3.782  10.329
33582W        W 6007  13.781   9.349   1.714
33583W        W 6008  25.418  20.567   2.651
33584W        W 6009  42.340   5.393  11.606
33585W        W 6010  17.714   3.155  13.936
33586W        W 6011   8.292   2.743   3.600
33587W        W 6012  17.013   4.430  12.922
33588W        W 6013  37.792  23.781  11.651
33589W        W 6014  16.621  36.313  11.562
33590W        W 6015   5.898  24.684   0.792
33591W        W 6016  18.520   5.790   3.427
33592W        W 6017  19.637  23.112  12.779
33593W        W 6018  37.061  29.869   4.279
33594W        W 6019  12.124   3.829  11.030
33595W        W 6020  12.767  13.066  11.056
33596W        W 6021  39.325  32.011   1.726
33597W        W 6022  27.982  23.787   4.597
33598W        W 6023  43.790  18.080  13.597
33599W        W 6024  13.665  41.624  11.884
33600W        W 6025  43.264  42.781  14.237
33601W        W 6026  25.514  18.105  12.365
33602W        W 6027   7.709   7.131   1.355
33603W        W 6028  30.487  23.181  11.235
33604W        W 6029  19.744  15.149   1.672
33605W        W 6030   6.750  29.041  11.108
33606W        W 6031   5.591  18.828  10.765
33607W        W 6032  20.979  13.759  11.528
33608W        W 6033  23.947  28.457   2.401
33609W        W 6034  23.048   5.706   4.332
33610W        W 6035  23.566  24.083  12.026
33611W        W 6036  35.533   8.012   4.215
33612W        W 6037  34.844  22.161   0.446
33613W        W 6038  26.405   3.475  11.553
33614W        W 6039  33.340  12.236   4.643
33615W        W 6040  41.645  27.106  11.846
33616W        W 6041   8.957   2.978  14.960
33617W        W 6042  26.205   0.388   0.320
33618W        W 6043   5.004  39.841  12.024
33619W        W 6044  25.944  42.065   4.285
33620W        W 6045   7.247   3.317   2.884
33621W        W 6046   2.819   7.311   4.314
33622W        W 6047   7.086  22.309   2.543
33623W        W 6048   0.821  12.637  13.426
33624W        W 6049  25.649  33.846  11.670
33625W        W 6050  18.639  36.556  11.118
33626W        W 6051  36.362  11.127   2.077
33627W        W 6052  11.862   7.245   0.746
33628W        W 6053  14.707  33.411   4.115
33629W        W 6054  42.695  13.168  13.508
33630W        W 6055  37.546  32.891   4.808
33631W        W 6056  35.524  19.295  14.312
33632W        W 6057  12.565  15.066   1.415
33633W        W 6058   5.411  20.112   0.855
33634W        W 6059  11.424  25.729   9.927
33635W        W 6060  42.431  38.509   1.849
33636W        W 6061  14.063  30.580  14.572
33637W        W 6062   4.490  37.915  14.814
33638W        W 6063   4.755  17.087   0.476
33639W        W 6064  26.651  19.702   4.437
33640W        W 6065  37.061  30.120  13.404
33641W        W 6066  32.256   3.521  10.965
33642W        W 6067  34.074  44.307   1.826
33643W        W 6068   9.767  39.384   0.032
33644W        W 6069  24.492  30.645   2.193
33645W        W 6070  29.011  11.840  14.158
33646W        W 6071  37.899   9.980  14.564
33647W        W 6072   8.466  17.603   1.736
33648W        W 6073  44.020  26.290  11.980
33649W        W 6074  33.688  23.995   2.781
33650W        W 6075   6.427  24.199   0.483
33651W        W 6076  42.341  19.167   1.148
33652W        W 6077  34.597  40.298  10.633
33653W        W 6078  38.023  23.171   0.850
33654W        W 6079  41.735  12.067  13.812
33655W        W 6080   9.644  37.376  10.533
33656W        W 6081   0.341   9.975   3.956
33657W        W 6082  14.493  25.070   1.851
33658W        W 6083  26.688  11.276  10.789
33659W        W 6084  42.705  30.732  14.821
33660W        W 6085  18.825   1.018   1.255
33661W        W 6086  36.624   1.860   4.581
33662W        W 6087  32.412  26.602   1.348
33663W        W 6088   5.358   2.226  10.673
33664W        W 6089  25.099   4.336  12.913
33665W        W 6090  40.762   7.035   1.749
33666W        W 6091  33.979  25.112   0.080
33667W        W 6092  10.070  38.210  12.935
33668W        W 6093  13.300  43.029   0.905
33669W        W 6094   6.096   1.440  11.415
33670W        W 6095  25.878  11.210  13.588
33671W        W 6096  30.182  15.631   1.862
33672W        W 6097  11.382  40.934  11.419
33673W        W 6098  32.613  11.607  12.561
33674W        W 6099   9.276  17.783   2.252
33675W        W 6100  17.601   5.769   4.274
33676W        W 6101   9.779  33.053  14.923
33677W        W 6102  32.687  29.211   2.203
33678W        W 6103  20.286   0.673  12.566
33679W        W 6104  28.765  31.989  12.511
33680W        W 6105   3.016  11.278  13.515
33681W        W 6106  18.182   7.342   3.870
33682W        W 6107  28.206  18.606  10.913
33683W        W 6108  24.112  44.375  14.006
33684W        W 6109  18.637  14.260  14.069
33685W        W 6110   4.343   0.419   1.272
33686W        W 6111  40.228   7.635  14.937
33687W        W 6112  19.751  38.788  14.581
33688W        W 6113   5.264  26.316   4.652
33689W        W 6114  18.764   7.404   3.228
33690W        W 6115  16.164  25.974   2.849
33691W        W 6116  42.863  44.344  12.707
33692W        W 6117  33.416  32.493  14.245
33693W        W 6118  36.798  13.257   1.306
33694W        W 6119  35.370  37.115   1.331
33695W        W 6120  37.461   4.644   3.592
33696W        W 6121  43.896   3.256   4.741
33697W        W 6122   1.740  34.385   3.309
33698W        W 6123  19.955  26.058  13.794
33699W        W 6124  16.769  22.059  11.495
33700W        W 6125   1.923  32.609   1.792
33701W        W 6126  33.810  25.514  12.064
33702W        W 6127  17.322  34.941  12.114
33703W        W 6128  44.040  11.324   4.171
33704W        W 6129   2.776   0.096  14.082
33705W        W 6130  33.955  39.590   2.310
33706W        W 6131   8.916  15.584  12.569
33707W        W 6132  26.583  28.627   3.365
33708W        W 6133  11.732   7.253  14.024
33709W        W 6134  40.752   5.641   4.738
33710W        W 6135   4.006  37.135  14.720
33711W        W 6136   0.406   1.542   2.110
33712W        W 6137  31.889  21.198  10.660
33713W        W 6138  40.365  15.573  10.832
33714W        W 6139  12.239  43.216  11.609
33715W        W 6140  24.093  21.038  10.526
33716W        W 6141  25.378   3.700  13.866
33717W        W 6142   9.658  44.448   3.247
33718W        W 6143  35.293  26.737  12.095
33719W        W 6144  41.544   9.803   1.489
33720W        W 6145  35.038  12.320   3.250
33721W        W 6146  34.337   3.311  11.283
33722W        W 6147   8.325  23.536   3.593
33723W        W 6148  43.380  18.637   4.458
33724W        W 6149   2.426  15.111   0.508
33725W        W 6150  25.128  14.684  11.157
33726W        W 6151  29.077   5.234   0.352
33727W        W 6152  38.481  15.333   0.446
33728W        W 6153   5.792  19.810  13.585
33729W        W 6154  23.681  31.175   1.263
33730W        W 6155  38.424  18.274   2.153
33731W        W 6156   3.225  15.952   0.884
33732W        W 6157  35.996  31.000   2.150
33733W        W 6158  38.934  23.937  14.616
33734W        W 6159  39.919  13.899   4.236
33735W        W 6160   2.274  30.327  10.214
33736W        W 6161  24.644  40.479   4.088
33737W        W 6162  19.272   8.890   1.381
33738W        W 6163  34.840  18.611   0.825
33739W        W 6164  25.044   6.272  10.717
33740W        W 6165  32.538  41.364   0.838
33741W        W 6166  30.662  25.177   0.923
33742W        W 6167  21.181  32.304  14.437
33743W        W 6168  32.044  44.449   1.928
33744W        W 6169  43.619   1.816  13.536
33745W        W 6170  17.626   9.564   2.861
33746W        W 6171  10.736   4.683  13.250
33747W        W 6172  35.930   8.978  13.891
33748W        W 6173  13.255  37.844  13.316
33749W        W 6174  23.119   1.365   1.759
33750W        W 6175  34.411  43.253   1.180
33751W        W 6176  17.386   6.212  11.469
33752W        W 6177  28.046  11.093   0.431
33753W        W 6178   3.808  29.355  14.961
33754W        W 6179  37.411  31.306   0.307
33755W        W 6180  24.455  10.346  14.562
33756W        W 6181  34.832  15.817   0.414
33757W        W 6182  37.557  40.411   0.952
33758W        W 6183  16.289  37.393   2.269
33759W        W 6184  23.307  39.133   2.233
33760W        W 6185  18.831   3.080  14.930
33761W        W 6186  19.310  32.348   4.143
33762W        W 6187  11.580  27.357  11.493
33763W        W 6188  43.307  40.883  11.578
33764W        W 6189  13.765  36.378   2.223
33765W        W 6190   7.892   0.458   1.255
33766W        W 6191  40.326  35.895  11.123
33767W        W 6192  21.824  26.079  13.355
33768W        W 6193  34.839  39.436   2.192
33769W        W 6194  44.332  31.289   4.887
33770W        W 6195  40.254   3.889  10.487
33771W        W 6196  26.480  20.686   0.380
33772W        W 6197  42.649  12.281   3.794
33773W        W 6198  42.219  17.740   2.192
33774W        W 6199  16.779  33.852  11.510
33775W        W 6200  12.135  17.735  10.763
33776W        W 6201  16.739  10.297  10.492
33777W        W 6202  41.245  30.509   2.530
33778W        W 6203   4.337   9.906  11.022
33779W        W 6204  10.945  24.572  12.662
33780W        W 6205  37.455  10.026  10.436
33781W        W 6206  27.158  19.017   4.376
33782W        W 6207   1.743  24.664  14.279
33783W        W 6208  38.586   9.163  13.396
33784W        W 6209   9.778  27.226   1.622
33785W        W 6210  38.910   8.164  12.414
33786W        W 6211  40.022  38.913   4.913
33787W        W 6212  43.874  36.910   1.652
33788W        W 6213  28.847  24.016  14.461
33789W        W 6214  31.083  21.706   3.816
33790W        W 6215  40.826  31.054   3.247
33791W        W 6216  13.228  34.536  13.090
33792W        W 6217  16.132   4.192   3.203
33793W        W 6218  34.364  24.688   3.056
33794W        W 6219  32.500  22.018   1.232
33795W        W 6220  44.840   5.437   2.732
33796W        W 6221  13.202   1.554   3.088
33797W        W 6222  36.495  35.919   3.170
33798W        W 6223  14.795  35.909   4.765
33799W        W 6224  29.093  17.990   1.711
33800W        W 6225   9.911  12.693   2.478
33801W        W 6226   9.038   1.378   2.447
33802W        W 6227  14.434  13.507   2.718
33803W        W 6228  39.327  21.479   3.153
33804W        W 6229  39.381  42.339   4.195
33805W        W 6230  37.127  40.322  11.619
33806W        W 6231  27.158  11.135  10.582
33807W        W 6232   9.871   5.295  11.032
33808W        W 6233  25.478  44.404  10.237
33809W        W 6234  28.980   6.838   1.699
33810W        W 6235   3.772  39.527  10.883
33811W        W 6236   9.317  25.478  14.081
33812W        W 6237  32.184  10.228   0.321
33813W        W 6238  19.328  27.047   4.594
33814W        W 6239  18.160  27.502  14.123
33815W        W 6240  26.553  42.702   0.780
33816W        W 6241  15.259   7.808   1.350
33817W        W 6242  22.464  35.635   0.852
33818W        W 6243  29.661   5.221  11.950
33819W        W 6244   2.914  32.388  13.487
33820W        W 6245  10.766  29.005  10.596
33821W        W 6246  32.729   6.054  10.977
33822W        W 6247  43.923  22.080   3.874
33823W        W 6248  31.842  42.587   0.034
33824W        W 6249   7.315  42.022  10.755
33825W        W 6250  36.005  28.687   1.204
33826W        W 6251   3.015   8.796  11.106
33827W        W 6252  38.194  43.498   0.290
33828W        W 6253   2.537  16.215  12.938
33829W        W 6254  10.664   0.469   1.797
33830W        W 6255   4.740  34.538   2.291
33831W        W 6256   5.382   2.783   3.749
33832W        W 6257  28.320  20.532  13.362
33833W        W 6258  11.093  21.477   2.905
33834W        W 6259   2.170  36.639   0.421
33835W        W 6260  43.395  27.459  13.295
33836W        W 6261  10.663   7.375   3.088
33837W        W 6262   3.498  20.861   4.084
33838W        W 6263  42.782   1.806   4.778
33839W        W 6264  10.792  21.446  12.127
33840W        W 6265  18.951  22.510   0.499
33841W        W 6266  22.544  11.182   4.625
33842W        W 6267  27.091   7.357  12.437
33843W        W 6268  23.757  30.546   0.750
33844W        W 6269  29.886  23.678  13.231
33845W        W 6270  28.232  22.007  10.237
33846W        W 6271   0.834  26.637   2.160
33847W        W 6272  37.898  24.428  13.918
33848W        W 6273  17.247   3.006  13.656
33849W        W 6274  16.923  35.602   2.078
33850W        W 6275  19.584  36.879  14.846
33851W        W 6276  12.135  12.136   0.716
33852W        W 6277  35.408  10.354  11.543
33853W        W 6278  28.200  44.856   2.628
33854W        W 6279  29.464   6.175  10.630
33855W        W 6280  33.983  37.172  12.500
33856W        W 6281  16.953   1.418   2.678
33857W        W 6282  44.256   2.123  14.817
33858W        W 6283  23.177  39.322   1.694
33859W        W 6284  20.961   4.988   0.233
33860W        W 6285  40.728  28.073  11.938
33861W        W 6286  10.321  32.051   0.176
33862W        W 6287   0.789  34.060   3.646
33863W        W 6288  25.732  20.404   0.905
33864W        W 6289   4.299  17.914   0.453
33865W        W 6290  40.578  35.914   3.832
33866W        W 6291  13.309  40.848   2.654
33867W        W 6292  15.360  19.379   0.245
33868W        W 6293   0.464  25.628   4.439
33869W        W 6294   9.826  44.517  10.717
33870W        W 6295  19.773  18.104  14.796
33871W        W 6296  33.639  40.931   1.346
33872W        W 6297  31.604  40.574   0.327
33873W        W 6298  26.539  25.519  13.379
33874W        W 6299  33.639   1.203   2.693
33875W        W 6300   1.015  24.617   1.771
33876W        W 6301  41.086   0.358   0.317
33877W        W 6302  11.700  27.296  12.972
33878W        W 6303   8.641   2.763   1.665
33879W        W 6304  17.917  29.193   0.691
33880W        W 6305  41.319  43.016   1.285
33881W        W 6306  13.373  30.423   2.203
33882W        W 6307  31.596  30.202  11.617
33883W        W 6308   3.365   4.245   2.651
33884W        W 6309  42.938  28.094  11.132
33885W        W 6310  13.738  33.312   3.684
33886W        W 6311   7.909  15.411   4.644
33887W        W 6312  26.755  43.791   0.854
33888W        W 6313   5.214   0.359  12.400
33889W        W 6314   2.003  32.959  14.324
33890W        W 6315  15.783  16.318  11.575
33891W        W 6316   5.165  33.842   2.619
33892W        W 6317  36.030  17.152  11.239
33893W        W 6318  14.213   4.134  13.989
33894W        W 6319  14.272  33.232   4.333
33895W        W 6320   4.026  19.218  12.468
33896W        W 6321  17.750  39.478  14.615
33897W        W 6322  42.415  18.235   2.196
33898W        W 6323  29.224  36.268  12.465
33899W        W 6324   8.807  38.477  14.333
33900W        W 6325  42.909  41.480   3.768
33901W        W 6326  28.546   5.710   0.391
33902W        W 6327  20.639  38.010   2.875
33903W        W 6328  22.132  36.404  13.448
33904W        W 6329  38.786  44.016  13.500
33905W        W 6330   5.695  29.654   1.965
33906W        W 6331  29.548  15.004  14.440
33907W        W 6332  31.138  15.450  14.027
33908W        W 6333   1.565  19.366  12.689
33909W        W 6334  10.365   7.793   0.678
33910W        W 6335  30.872  39.631   1.925
33911W        W 6336  13.149  31.437   3.217
33912W        W 6337  43.365  44.301  13.939
33913W        W 6338  43.047  19.750  12.613
33914W        W 6339  20.998  28.051   0.457
33915W        W 6340  14.296   1.404   2.131
33916W        W 6341  20.555  12.915   4.737
33917W        W 6342  34.413  43.828  10.419
33918W        W 6343  15.980  35.050  10.695
33919W        W 6344  44.467   5.847   2.100
33920W        W 6345  30.686  41.540   4.114
33921W        W 6346  38.391  32.220   1.897
33922W        W 6347   7.236  21.984   4.184
33923W        W 6348   3.963   8.729   0.517
33924W        W 6349  24.968  43.965   2.595
33925W        W 6350   1.520  24.650   1.882
33926W        W 6351  26.651  29.553  10.663
33927W        W 6352  10.463  24.225   2.667
33928W        W 6353  15.838  32.028   3.182
33929W        W 6354   5.839   3.796  13.142
33930W        W 6355  34.902  24.058  14.973
33931W        W 6356  24.604  39.825  13.825
33932W        W 6357  18.061  22.684   0.392
33933W        W 6358  44.010  30.631   1.852
33934W        W 6359   3.737  12.754   4.635
33935W        W 6360  42.447   8.903   4.216
33936W        W 6361  39.048  14.690  12.509
33937W        W 6362   7.284  42.889  10.934
33938W        W 6363  39.849  31.362  14.506
33939W        W 6364   3.198  19.085  14.714
33940W        W 6365  37.852  28.162  13.984
33941W        W 6366  34.595  19.561   4.589
33942W        W 6367   2.696  14.192   4.566
33943W        W 6368  38.871  39.865   3.534
33944W        W 6369  23.035   9.627   2.328
33945W        W 6370  15.112  26.313  13.038
33946W        W 6371   8.290  20.790  12.593
33947W        W 6372  20.531  16.330  14.895
33948W        W 6373  39.479  43.962   3.914
33949W        W 6374  19.054  31.885   5.141
33950W        W 6375  43.522  42.769  13.772
33951W        W 6376  17.461   2.001   9.811
33952W        W 6377  14.223   4.248  12.397
33953W        W 6378  12.796  13.655   0.782
33954W        W 6379  38.785  30.300   5.153
33955W        W 6380  13.240   3.432   0.238
33956W        W 6381  43.297   9.133  14.000
33957W        W 6382  39.839  22.263  11.658
33958W        W 6383  15.335  27.211   3.633
33959W        W 6384  41.038  11.738   3.362
33960W        W 6385  22.537  34.044   0.706
33961W        W 6386   0.206  40.241   3.695
33962W        W 6387   8.764  11.589  14.336
33963W        W 6388  22.228  33.153  11.069
33964W        W 6389  38.096  21.331   3.914
33965W        W 6390  42.120  19.353   0.732
33966W        W 6391  30.144  14.271   1.395
33967W        W 6392  27.068  22.908   0.491
33968W        W 6393  36.317  23.687   0.650
33969W        W 6394  34.344  32.060   0.791
33970W        W 6395   4.960  19.094   0.792
33971W        W 6396  32.136  35.903   0.723
33972W        W 6397  11.682  20.106  10.552
33973W        W 6398   1.217  37.144  11.973
33974W        W 6399   9.725  16.143   4.259
33975W        W 6400   0.312  44.982   4.520
33976W        W 6401  35.944  28.156  11.187
33977W        W 6402  21.609   5.641   2.198
33978W        W 6403  38.040  32.807   0.912
33979W        W 6404   3.466   6.310   3.839
33980W        W 6405   7.393  13.269  10.721
33981W        W 6406  33.398  19.600   2.786
33982W        W 6407   3.182  27.247   0.823
33983W        W 6408  34.955  41.871   2.216
33984W        W 6409   6.092   8.217   2.675
33985W        W 6410  28.198   0.727   1.719
33986W        W 6411  26.724   6.925  13.434
33987W        W 6412  16.488  34.093   1.913
33988W        W 6413  36.007  16.450   2.955
33989W        W 6414  12.534  38.013   2.796
33990W        W 6415  39.287  25.629  14.391
33991W        W 6416  39.037  40.687   4.902
33992W        W 6417  15.300  13.554  14.158
33993W        W 6418  44.240   3.803   2.169
33994W        W 6419  25.262  31.018  10.602
33995W        W 6420  16.594   6.015  13.931
33996W        W 6421  29.562  30.326   2.161
33997W        W 6422  18.064   5.960   4.179
33998W        W 6423  19.232   6.135  11.451
33999W        W 6424   6.861  37.873   3.525
34000W        W 6425  10.610  44.965   3.737
34001W        W 6426  13.601   0.841   4.363
34002W        W 6427  35.521  41.878   4.423
34003W        W 6428  21.535  32.640  13.291
34004W        W 6429  43.018  15.046   2.202
34005W        W 6430   5.758  11.514   4.250
34006W        W 6431  36.826  27.191   1.853
34007W        W 6432  17.799  20.279  10.753
34008W        W 6433   9.449  20.607  12.457
34009W        W 6434   3.258   0.963   4.656
34010W        W 6435   0.427  32.313   3.556
34011W        W 6436  16.504  32.839  14.928
34012W        W 6437   3.734  38.019   4.056
34013W        W 6438  33.694   0.335  12.494
34014W        W 6439  43.872  11.125  14.618
34015W        W 6440  27.097  14.980   4.089
34016W        W 6441  41.571   8.258   3.433
34017W        W 6442  36.902  14.512   3.286
34018W        W 6443  33.543   9.978  13.874
34019W        W 6444  20.479  32.570  13.076
34020W        W 6445   8.293  29.433   1.379
34021W        W 6446   1.097   1.267   3.525
34022W        W 6447  10.428   5.352  11.970
34023W        W 6448  24.686   6.437  11.778
34024W        W 6449  24.120  43.236  13.311
34025W        W 6450  27.024  36.582   2.118
34026W        W 6451  24.621  35.325   3.596
34027W        W 6452   3.367  30.607   3.705
34028W        W 6453  35.509  14.503  13.144
34029W        W 6454  20.863  34.416   5.059
34030W        W 6455  39.125  26.242   0.286
34031W        W 6456  15.089  33.068  11.917
34032W        W 6457  29.014  29.932  14.529
34033W        W 6458  17.465   4.191  11.671
34034W        W 6459  30.050  41.533  12.062
34035W        W 6460   8.956  31.109   4.767
34036W        W 6461  24.209  28.218  10.835
34037W        W 6462  39.121  26.269  11.876
34038W        W 6463  22.696   9.882   3.254
34039W        W 6464  22.423  23.728  10.760
34040W        W 6465   9.378  19.110  11.096
34041W        W 6466  41.877  36.348   1.547
34042W        W 6467   3.818  41.847  14.451
34043W        W 6468  34.524   3.783   4.629
34044W        W 6469  27.651  26.176  14.403
34045W        W 6470   6.835  42.356   2.252
34046W        W 6471   4.939   2.989  11.655
34047W        W 6472  13.292  26.194   0.316
34048W        W 6473  22.339  36.442   4.871
34049W        W 6474  19.046  42.105  14.931
34050W        W 6475  30.169  31.584   1.654
34051W        W 6476  44.366  42.747  11.529
34052W        W 6477  41.850  28.584  12.367
34053W        W 6478  41.048  38.975  12.956
34054W        W 6479  18.084  32.531   0.390
34055W        W 6480  33.336   3.379   5.047
34056W        W 6481  35.073  18.728   0.330
34057W        W 6482  27.855  40.363   5.123
34058W        W 6483   0.893   3.434   2.811
34059W        W 6484  22.674  17.135  11.435
34060W        W 6485  41.485  41.161   0.867
34061W        W 6486  30.708  16.673  13.067
34062W        W 6487  16.223  30.671   0.788
34063W        W 6488  32.679  30.562   4.065
34064W        W 6489  14.514  40.464   4.872
34065W        W 6490   7.346  24.147  10.406
34066W        W 6491  37.530   6.641   2.373
34067W        W 6492   9.242  17.215   3.098
34068W        W 6493   0.767   4.628  12.721
34069W        W 6494   6.404  16.707  13.986
34070W        W 6495  27.997  40.461  11.924
34071W        W 6496  15.356  40.466  14.355
34072W        W 6497  18.517  33.148   3.242
34073W        W 6498   7.127  44.936   4.574
34074W        W 6499   8.840   2.473  14.840
34075W        W 6500  12.732   6.699  11.756
34076W        W 6501  34.588  33.374   3.254
34077W        W 6502   6.559  36.867   1.951
34078W        W 6503  42.704  17.811  12.332
34079W        W 6504  27.073  29.822  13.847
34080W        W 6505   4.187  33.790  13.152
34081W        W 6506  37.687  26.122  13.652
34082W        W 6507  42.056  19.715   5.341
34083W        W 6508   1.722  24.269   0.206
34084W        W 6509  17.125  15.397  13.652
34085W        W 6510  33.564  43.493  10.594
34086W        W 6511  29.239  28.508  11.386
34087W        W 6512  16.112   1.374  13.330
34088W        W 6513   7.467  30.153  11.428
34089W        W 6514  27.110   5.677  12.057
34090W        W 6515   8.128  20.986   4.187
34091W        W 6516  42.556   5.953   4.662
34092W        W 6517   0.337  24.128   2.313
34093W        W 6518  36.353  25.569   5.070
34094W        W 6519   9.439  20.567   0.462
34095W        W 6520  41.297   3.334  10.711
34096W        W 6521  12.634   8.506  11.925
34097W        W 6522   9.733  41.351  14.827
34098W        W 6523  21.137  44.787  11.540
34099W        W 6524  12.243  12.761   1.586
34100W        W 6525  17.103  24.039   2.695
34101W        W 6526  38.798  32.424  10.331
34102W        W 6527  33.885  33.372  14.014
34103W        W 6528   5.733   0.155   0.422
34104W        W 6529  30.281   2.515   4.331
34105W        W 6530  33.797  39.303   1.896
34106W        W 6531  26.026  19.148   4.219
34107W        W 6532  36.907  42.458   1.926
34108W        W 6533  13.844  29.401   0.002
34109W        W 6534  28.059  26.629  13.507
34110W        W 6535  43.242   2.002   4.619
34111W        W 6536   3.661   7.851   5.094
34112W        W 6537   2.217   7.303  13.386
34113W        W 6538   0.882   4.466   4.503
34114W        W 6539  23.719  34.919   3.121
34115W        W 6540  20.216   2.743  13.334
34116W        W 6541  25.450   2.183   1.181
34117W        W 6542  39.731  44.558   4.330
34118W        W 6543  19.854   0.358  11.102
34119W        W 6544  18.294  35.078   1.381
34120W        W 6545  43.396  41.347   2.340
34121W        W 6546  16.639  13.160  10.924
34122W        W 6547  26.240  22.626  14.557
34123W        W 6548  25.974  29.430   3.984
34124W        W 6549  40.958  10.189   0.392
34125W        W 6550  28.437  18.283   4.233
34126W        W 6551  27.108  19.089  11.478
34127W        W 6552  27.939  43.847  12.515
34128W        W 6553  29.117   3.399  11.982
34129W        W 6554  18.280  43.027  14.318
34130W        W 6555  10.906   6.202   0.453
34131W        W 6556   8.696  30.758  14.674
34132W        W 6557  18.196   6.853   3.677
34133W        W 6558   9.285  13.285  14.354
34134W        W 6559   6.343  40.392  13.432
34135W        W 6560  20.989   7.668  11.229
34136W        W 6561  25.943  24.627   2.703
34137W        W 6562   2.908  29.011  12.843
34138W        W 6563  14.094  38.450   3.162
34139W        W 6564  38.267   3.414   0.219
34140W        W 6565   4.763  11.342   1.912
34141W        W 6566  10.597  34.652   2.550
34142W        W 6567  32.564   6.149  14.805
34143W        W 6568  13.325  13.269  12.925
34144W        W 6569  13.558   3.695   4.080
34145W        W 6570  19.663  38.454  13.376
34146W        W 6571  20.479   9.432   2.771
34147W        W 6572  44.771  42.760   3.376
34148W        W 6573   1.446  33.562   4.692
34149W        W 6574  24.409   6.127  11.454
34150W        W 6575  17.344  28.509   1.745
34151W        W 6576   1.546  40.216   0.028
34152W        W 6577  36.916  32.570  11.992
34153W        W 6578  27.812  38.246   3.325
34154W        W 6579  10.153  34.379   4.137
34155W        W 6580  17.367  41.296   2.087
34156W        W 6581  42.248  14.292   2.414
34157W        W 6582  33.510  10.123  10.415
34158W        W 6583  38.171  40.338  11.436
34159W        W 6584  30.634  28.404   1.216
34160W        W 6585  29.658   4.946   2.408
34161W        W 6586  41.358  41.748  11.020
34162W        W 6587  23.017  29.201  11.668
34163W        W 6588  26.617  37.552  11.618
34164W        W 6589  20.700  36.854   1.173
34165W        W 6590  13.381   4.776   0.505
34166W        W 6591  22.915   5.411   3.298
34167W        W 6592   5.241  29.552   0.651
34168W        W 6593  13.070  30.826  12.932
34169W        W 6594   9.602  37.131  12.194
34170W        W 6595  21.302  41.422   2.666
34171W        W 6596   5.728  42.391  13.686
34172W        W 6597  22.183  39.682   1.798
34173W        W 6598   5.161  44.678   2.254
34174W        W 6599  43.161  29.145   3.356
34175W        W 6600  26.199   1.505  12.593
34176W        W 6601   1.446   7.249  11.602
34177W        W 6602  40.820  16.421  14.361
34178W        W 6603   4.279  14.607   2.801
34179W        W 6604  23.604   4.415   2.553
34180W        W 6605   9.532  19.856  13.324
34181W        W 6606  22.519  34.541   1.337
34182W        W 6607   6.546   9.438  10.530
34183W        W 6608   0.933  28.540   1.548
34184W        W 6609  33.523  30.672  13.852
34185W        W 6610  31.225  26.705  10.119
34186W        W 6611   2.881   9.659   1.239
34187W        W 6612  36.450   9.129  12.069
34188W        W 6613   5.216  29.590   1.168
34189W        W 6614  22.034  28.622   3.328
34190W        W 6615   1.837  15.225  11.659
34191W        W 6616  37.093  19.719   5.056
34192W        W 6617  31.522  31.105   1.281
34193W        W 6618  31.444  43.970  14.910
34194W        W 6619  30.852  35.006  11.460
34195W        W 6620   0.879   4.908   1.772
34196W        W 6621  20.580   1.400   2.583
34197W        W 6622   6.494   8.077   0.427
34198W        W 6623  25.516  26.542  10.045
34199W        W 6624   5.907   0.146  14.028
34200W        W 6625  44.999  27.706   1.715
34201W        W 6626  21.029  39.911   0.446
34202W        W 6627   7.223   4.436  10.682
34203W        W 6628   3.722  17.745   3.645
34204W        W 6629   7.837   8.716   3.368
34205W        W 6630  22.088  30.235  10.371
34206W        W 6631   7.140  24.610   0.216
34207W        W 6632  19.837  36.819   2.770
34208W        W 6633   6.457   1.940   0.625
34209W        W 6634  26.041  10.386   2.373
34210W        W 6635  24.316  31.966   0.876
34211W        W 6636  24.184  28.653   0.528
34212W        W 6637  22.613  21.576   5.037
34213W        W 6638   5.350  20.880   1.127
34214W        W 6639  18.363  16.812   4.772
34215W        W 6640  15.586  32.006   4.073
34216W        W 6641  37.270  40.445   2.359
34217W        W 6642  12.992  35.596   1.728
34218W        W 6643  42.898  38.875   1.473
34219W        W 6644  23.573  38.591  11.515
34220W        W 6645  41.570  26.008   1.184
34221W        W 6646  23.105  11.792  14.186
34222W        W 6647   5.761   8.308  13.429
34223W        W 6648  38.849  11.463  14.276
34224W        W 6649  27.711  11.340  12.299
34225W        W 6650  39.518  41.308   1.850
34226W        W 6651   1.229  14.747  12.810
34227W        W 6652  17.692  37.059  12.841
34228W        W 6653   0.813  44.958   3.713
34229W        W 6654   0.261   2.768  10.767
34230W        W 6655  22.059  25.142   3.857
34231W        W 6656   2.891  43.490   4.633
34232W        W 6657  34.457  39.683  11.116
34233W        W 6658  22.578  31.329   1.897
34234W        W 6659  22.946  30.958  11.075
34235W        W 6660  43.732  25.684  14.928
34236W        W 6661   4.367  12.061  12.018
34237W        W 6662  22.847  14.319  13.824
34238W        W 6663  30.931  37.313  14.972
34239W        W 6664   9.941  29.062   1.334
34240W        W 6665   7.891  11.617  11.387
34241W        W 6666  33.669   1.180   1.826
34242W        W 6667  11.014  42.134  11.611
34243W        W 6668  19.920  20.179  14.930
34244W        W 6669   4.969  14.367  13.940
34245W        W 6670  40.458   1.495   0.663
34246W        W 6671  16.218  39.456   0.270
34247W        W 6672  13.073   8.259   1.420
34248W        W 6673   7.733  17.749   4.295
34249W        W 6674  12.643  35.304  14.868
34250W        W 6675  44.717   5.344  11.667
34251W        W 6676  18.291  39.101   1.984
34252W        W 6677  21.135  39.103   4.236
34253W        W 6678  21.778  42.551  10.665
34254W        W 6679  15.686  35.453  11.433
34255W        W 6680   3.213  30.196  13.033
34256W        W 6681  13.583   2.205  14.875
34257W        W 6682  16.170  35.893  14.422
34258W        W 6683  27.050  24.290  12.597
34259W        W 6684   9.318  39.208  14.350
34260W        W 6685  12.284  19.982   4.659
34261W        W 6686   2.766  29.969  14.381
34262W        W 6687   1.503   7.490  11.124
34263W        W 6688  24.172  39.524  13.842
34264W        W 6689  40.064   9.158  13.785
34265W        W 6690  11.032  25.957  14.865
34266W        W 6691  42.722  29.412   3.236
34267W        W 6692  22.776  11.675  10.113
34268W        W 6693  19.993  26.160   2.239
34269W        W 6694  15.982  40.692  12.695
34270W        W 6695   4.945   3.238   0.436
34271W        W 6696   5.115  25.202  12.504
34272W        W 6697  35.805  26.098  14.065
34273W        W 6698   9.611  38.333  14.323
34274W        W 6699  42.426   4.887  13.473
34275W        W 6700   3.440  17.309   1.883
34276W        W 6701  18.056  27.885   1.082
34277W        W 6702   4.999  21.153   2.824
34278W        W 6703  31.867  12.127  12.448
34279W        W 6704  31.444   8.292  14.764
34280W        W 6705   3.949  16.891   4.826
34281W        W 6706  15.563  25.204   0.886
34282W        W 6707  22.048  20.494  12.509
34283W        W 6708  39.035  43.962   0.057
34284W        W 6709  41.215  38.046   1.358
34285W        W 6710  35.983  44.038   1.914
34286W        W 6711   6.819  23.499  14.049
34287W        W 6712  22.237   6.452  12.516
34288W        W 6713  16.167  28.434   2.593
34289W        W 6714  15.728  31.489  10.654
34290W        W 6715   4.843  10.930   3.395
34291W        W 6716   3.768   4.507   2.849
34292W        W 6717  21.537  32.693   2.837
34293W        W 6718  18.899  14.608  11.873
34294W        W 6719  38.610  12.635   2.737
34295W        W 6720  42.310  18.453   1.719
34296W        W 6721  24.520  42.225   2.783
34297W        W 6722  15.660  20.488  11.205
34298W        W 6723  27.292  16.624  13.084
34299W        W 6724  20.458  42.722  14.953
34300W        W 6725   4.936  28.031   2.480
34301W        W 6726  19.101  40.842   3.213
34302W        W 6727  20.872  19.095   4.175
34303W        W 6728  25.654  29.378  14.755
34304W        W 6729  15.143  33.606  10.666
34305W        W 6730  41.043  32.212  11.137
34306W        W 6731   8.760  18.308  11.148
34307W        W 6732  33.063  12.820  11.501
34308W        W 6733   5.399  34.669   0.925
34309W        W 6734   2.290   0.182  13.775
34310W        W 6735  26.929  34.616  12.263
34311W        W 6736  21.619  22.029   1.907
34312W        W 6737   1.452  14.998  14.793
34313W        W 6738   9.782  34.361  10.546
34314W        W 6739  17.673  36.556  13.555
34315W        W 6740  20.275   8.570   1.297
34316W        W 6741  33.637  17.186   2.417
34317W        W 6742  11.604  29.928  14.998
34318W        W 6743  21.452  12.388   0.713
34319W        W 6744  40.014   1.177  12.978
34320W        W 6745   8.764  30.170  11.958
34321W        W 6746  40.052  22.740  13.586
34322W        W 6747   2.531  17.366  10.302
34323W        W 6748  40.458  37.579   1.327
34324W        W 6749  17.587  40.282  13.938
34325W        W 6750  11.145   7.182   2.426
34326W        W 6751  37.511  20.640   3.908
34327W        W 6752   5.279  39.299  12.449
34328W        W 6753  30.879  18.780  10.153
34329W        W 6754  39.018  35.990  10.759
34330W        W 6755  18.477  40.540  14.062
34331W        W 6756   7.376   2.259   3.623
34332W        W 6757   9.281  21.251   4.555
34333W        W 6758  35.837   7.921  10.999
34334W        W 6759  16.613  19.568  14.180
34335W        W 6760   6.455  41.121  13.147
34336W        W 6761  36.918   6.466   0.510
34337W        W 6762  25.648  24.687   1.773
34338W        W 6763   1.982  20.673   4.161
34339W        W 6764  18.138  30.370   9.553
34340W        W 6765   6.339  16.019   3.811
34341W        W 6766   5.214   6.913   0.025
34342W        W 6767  15.817  17.564   0.852
34343W        W 6768   1.526  13.197   4.563
34344W        W 6769  12.068  37.974  12.383
34345W        W 6770  43.804  31.362  10.774
34346W        W 6771  17.539  10.668  14.472
34347W        W 6772   3.362  41.185  12.954
34348W        W 6773  20.004   1.672   4.158
34349W        W 6774  43.437   8.664  12.986
34350W        W 6775  27.169  11.101   3.258
34351W        W 6776  30.254  39.298   4.308
34352W        W 6777  42.867  27.418  10.660
34353W        W 6778  21.335  32.109  13.068
34354W        W 6779  21.609  18.771  10.922
34355W        W 6780  44.318   4.620   0.961
34356W        W 6781   4.436  30.033   3.189
34357W        W 6782   7.436  12.341  12.024
34358W        W 6783  23.485  14.153   4.756
34359W        W 6784   2.943  11.212  12.060
34360W        W 6785  26.461  32.499   1.883
34361W        W 6786  37.189   2.641   1.345
34362W        W 6787  13.410  29.457  13.062
34363W        W 6788  29.030   2.372   4.588
34364W        W 6789  41.039  44.955   4.012
34365W        W 6790  25.701  27.189   0.814
34366W        W 6791   1.035  42.821  12.544
34367W        W 6792  25.182  19.239  14.518
34368W        W 6793  28.053  36.941   1.460
34369W        W 6794  41.238  28.465  10.975
34370W        W 6795   7.226  42.548   4.255
34371W        W 6796  21.210   8.195   2.866
34372W        W 6797  11.051  39.666  14.367
34373W        W 6798  16.977   0.880   0.269
34374W        W 6799  32.066  24.330  14.968
34375W        W 6800  28.042   8.727  12.779
34376W        W 6801  27.205  41.177   4.314
34377W        W 6802   5.949  19.350  13.777
34378W        W 6803   7.769  39.785   3.693
34379W        W 6804   8.036  16.683   0.405
34380W        W 6805  27.627  44.026   3.856
34381W        W 6806   3.143   9.317  14.068
34382W        W 6807  29.234  30.727  10.100
34383W        W 6808  25.908  32.152  12.469
34384W        W 6809   7.316  33.126   3.498
34385W        W 6810  15.195  41.874   4.724
34386W        W 6811  24.117  34.467  13.330
34387W        W 6812   6.896  38.504   2.253
34388W        W 6813  17.027  31.032  12.767
34389W        W 6814  41.549  26.733  10.611
34390W        W 6815  31.466  28.951  12.883
34391W        W 6816  16.041  34.008  13.713
34392W        W 6817  35.315  32.940   2.358
34393W        W 6818  17.639  20.302  14.988
34394W        W 6819  14.227   3.747  12.118
34395W        W 6820  17.564  13.555  14.335
34396W        W 6821  17.568  32.517   0.290
34397W        W 6822   7.794  28.196   1.752
34398W        W 6823   7.723  40.699  11.642
34399W        W 6824  35.046  12.037  11.993
34400W        W 6825  18.587  33.358  10.609
34401W        W 6826  20.551  37.328  14.799
34402W        W 6827  16.235  20.588   2.176
34403W        W 6828   7.283   9.164  14.521
34404W        W 6829  42.074   4.712   2.765
34405W        W 6830  29.608  43.708  11.883
34406W        W 6831   7.828   9.275  12.435
34407W        W 6832  14.339  14.115   2.265
34408W        W 6833   2.173  22.261   2.335
34409W        W 6834  14.388  44.342  10.462
34410W        W 6835   0.873  18.294   1.294
34411W        W 6836  12.051  13.352   4.639
34412W        W 6837  24.418  19.320  14.092
34413W        W 6838  16.284   8.869   4.217
34414W        W 6839   3.371  29.981   0.215
34415W        W 6840   7.283  33.728  12.481
34416W        W 6841   4.958  20.221  13.056
34417W        W 6842   5.674  26.739  13.788
34418W        W 6843  19.225  43.558   2.810
34419W        W 6844   1.829  36.897  10.996
34420W        W 6845  20.969  35.472  12.471
34421W        W 6846   9.446  35.041   0.502
34422W        W 6847  31.378   8.644   2.752
34423W        W 6848   3.546   3.880  10.713
34424W        W 6849  37.264  27.440  11.143
34425W        W 6850   9.731  32.472  13.665
34426W        W 6851  30.838  41.839   2.315
34427W        W 6852  21.938  16.088   3.109
34428W        W 6853  37.108  29.930  14.283
34429W        W 6854  42.991  35.447  13.324
34430W        W 6855  30.140   2.424  12.928
34431W        W 6856  23.761  29.007  12.525
34432W        W 6857  43.464  28.536  12.621
34433W        W 6858   7.792   4.229  12.982
34434W        W 6859  34.682  43.712   3.254
34435W        W 6860  18.183  15.613   0.363
34436W        W 6861   7.770  14.761   3.134
34437W        W 6862   2.969  10.675   4.053
34438W        W 6863  12.813  12.392  13.575
34439W        W 6864  21.748  30.373   3.687
34440W        W 6865  24.176  44.832  10.698
34441W        W 6866  26.122  16.309   4.253
34442W        W 6867   6.390  20.199   3.711
34443W        W 6868   6.364  31.813   0.248
34444W        W 6869  22.246  27.262   0.308
34445W        W 6870  35.394  41.978   2.479
34446W        W 6871  24.691  22.330  13.271
34447W        W 6872  29.420  12.608  13.880
34448W        W 6873  37.823  21.475   2.196
34449W        W 6874  26.524  44.247   3.622
34450W        W 6875  30.118   4.661   1.702
34451W        W 6876  39.537  30.484  11.987
34452W        W 6877  30.714  11.404   2.238
34453W        W 6878  15.423   3.049  13.504
34454W        W 6879  28.001   1.776  10.483
34455W        W 6880  41.106   5.621   2.071
34456W        W 6881   5.688  31.500  11.744
34457W        W 6882  17.099  42.857  14.692
34458W        W 6883  16.279  25.192  13.126
34459W        W 6884  20.252  44.136  10.505
34460W        W 6885   7.476  31.769  10.575
34461W        W 6886  23.964   4.418   2.151
34462W        W 6887  19.629  27.134   0.179
34463W        W 6888  15.264  44.898   2.212
34464W        W 6889  44.304  24.287  11.241
34465W        W 6890   1.159  16.605   4.880
34466W        W 6891  30.069   3.847   3.117
34467W        W 6892  30.033  17.186   2.804
34468W        W 6893  27.881   0.507  12.358
34469W        W 6894  13.090   2.462  12.967
34470W        W 6895  16.432  13.649   3.780
34471W        W 6896  43.967  12.777   0.408
34472W        W 6897  21.978  21.610  14.505
34473W        W 6898  15.794  29.489   0.022
34474W        W 6899  27.525  18.781   4.071
34475W        W 6900  20.616  30.574   4.677
34476W        W 6901  21.161  26.738  12.393
34477W        W 6902  38.362   7.806   4.142
34478W        W 6903  43.915   3.763   3.765
34479W        W 6904  34.523  16.119  14.166
34480W        W 6905  14.631   1.894  12.063
34481W        W 6906  30.085  31.778   3.755
34482W        W 6907  15.067   9.389  12.140
34483W        W 6908  44.949  39.199  12.079
34484W        W 6909  16.229  30.704   5.155
34485W        W 6910  21.480  11.277   9.713
34486W        W 6911  23.236  36.379  14.087
34487W        W 6912   9.211   0.984   2.719
34488W        W 6913  36.135  11.308  13.834
34489W        W 6914  32.180  18.592   5.125
34490W        W 6915  12.507  23.580  14.304
34491W        W 6916   6.188  22.517  10.315
34492W        W 6917  10.805  43.768   4.333
34493W        W 6918  19.337   4.543  12.334
34494W        W 6919  39.934  15.321   0.518
34495W        W 6920  24.504  32.610   2.298
34496W        W 6921  14.089   3.382   4.526
34497W        W 6922  20.927   0.509   0.303
34498W        W 6923   0.722  12.092   0.544
34499W        W 6924   6.249  43.876  11.411
34500W        W 6925  30.943  29.411  11.536
34501W        W 6926   4.306  19.129   3.366
34502W        W 6927  31.946  16.660   3.495
34503W        W 6928  44.865  15.384   2.402
34504W        W 6929  21.728  43.350   1.451
34505W        W 6930  19.919  11.544   5.131
34506W        W 6931   6.852  38.982   2.411
34507W        W 6932   8.655  22.710   2.828
34508W        W 6933  17.669  31.009   4.057
34509W        W 6934  43.897  44.256  13.426
34510W        W 6935  30.870  13.194   2.340
34511W        W 6936   3.366  39.596   1.357
34512W        W 6937  28.557  31.040   0.041
34513W        W 6938   1.269  43.236   0.304
34514W        W 6939  18.993  30.914  14.316
34515W        W 6940  26.177  20.246   2.834
34516W        W 6941  12.427  41.460   0.900
34517W        W 6942  39.918   6.885   3.153
34518W        W 6943  39.394   3.956  10.602
34519W        W 6944   0.456   5.869  13.774
34520W        W 6945  16.781  41.747  13.056
34521W        W 6946   9.810   1.400   1.297
34522W        W 6947   7.423  41.535   1.943
34523W        W 6948  14.658  11.228   3.747
34524W        W 6949  14.577  20.007  13.047
34525W        W 6950  39.318  12.782   0.508
34526W        W 6951  20.713  13.326   2.474
34527W        W 6952   8.746  18.724   3.082
34528W        W 6953  11.617  16.033   3.724
34529W        W 6954  44.540  13.811  13.417
34530W        W 6955  32.966  33.448   1.835
34531W        W 6956  28.951   2.691  13.615
34532W        W 6957  24.509   3.728   2.792
34533W        W 6958  14.141   2.790   3.857
34534W        W 6959   7.826   9.655  10.679
34535W        W 6960  11.736  24.740  14.903
34536W        W 6961  17.150   1.947   5.402
34537W        W 6962  24.075  37.516  13.796
34538W        W 6963  15.142  30.257   1.227
34539W        W 6964  22.461  33.690  13.410
34540W        W 6965   0.943  15.087  14.821
34541W        W 6966  30.437   3.383  13.625
34542W        W 6967   1.264  38.157  12.045
34543W        W 6968   1.975  11.191   2.286
34544W        W 6969  28.126   9.468   4.952
34545W        W 6970   3.844   9.342   3.101
34546W        W 6971  27.897  39.080   0.931
34547W        W 6972  16.805  30.162   4.650
34548W        W 6973  19.548  22.693   0.508
34549W        W 6974  28.084  23.792  14.058
34550W        W 6975  13.801   9.281  14.518
34551W        W 6976  37.935  21.689   3.613
34552W        W 6977  19.465  32.456  14.923
34553W        W 6978  27.476  15.272  12.485
34554W        W 6979  20.598   1.350  14.735
34555W        W 6980  33.314  28.080  12.699
34556W        W 6981   0.972  24.182  14.935
34557W        W 6982  41.939  10.533   1.793
34558W        W 6983   7.316  29.435   4.572
34559W        W 6984  32.906  23.961  14.915
34560W        W 6985  34.384   2.290  14.864
34561W        W 6986   5.453  32.523  14.803
34562W        W 6987  16.578  32.359  14.719
34563W        W 6988  35.863   7.349  12.907
34564W        W 6989  32.448  11.117  11.320
34565W        W 6990   3.550  17.791   4.129
34566W        W 6991   0.328  33.991  11.572
34567W        W 6992  39.296  19.550  13.022
34568W        W 6993  38.894  17.791   0.022
34569W        W 6994  19.550  34.004   3.273
34570W        W 6995  35.438  23.080   0.087
34571W        W 6996   0.923   0.859   0.495
34572W        W 6997  17.002  37.162   4.429
34573W        W 6998  12.206  40.742  12.604
34574W        W 6999  17.512  14.795  12.985
34575W        W 7000  36.754   3.290   1.743
34576W        W 7001  34.066  38.085  10.646
34577W        W 7002  19.752  38.542  11.481
34578W        W 7003   7.827  23.551  14.186
34579W        W 7004  29.583   9.166   4.752
34580W        W 7005  13.826  44.891  12.550
34581W        W 7006  12.734  11.788   4.515
34582W        W 7007  22.239  13.783  10.777
34583W        W 7008  40.974  13.469   3.599
34584W        W 7009  12.660  10.575  14.060
34585W        W 7010   3.547   3.195  13.364
34586W        W 7011  24.628   4.387   4.550
34587W        W 7012  28.651  32.914  13.766
34588W        W 7013  27.055   2.538  11.414
34589W        W 7014  29.089  40.873  11.216
34590W        W 7015  26.473  17.296   2.342
34591W        W 7016  27.427  20.901  13.487
34592W        W 7017  11.564  31.957   1.411
34593W        W 7018  39.843  13.137  13.550
34594W        W 7019  21.279   7.821   1.292
34595W        W 7020  29.748  40.501   4.270
34596W        W 7021   7.372  11.806   3.646
34597W        W 7022  37.991  26.646  11.267
34598W        W 7023  37.234  32.492  14.795
34599W        W 7024   9.663  38.349   3.814
34600W        W 7025  16.837  33.166   1.779
34601W        W 7026  35.580  43.344   0.830
34602W        W 7027  17.120  31.620  11.995
34603W        W 7028  17.275  13.240   0.863
34604W        W 7029  33.510  35.896   1.892
34605W        W 7030  16.870  41.434  13.741
34606W        W 7031   3.889   2.926  10.694
34607W        W 7032  26.141  42.437  12.977
34608W        W 7033   8.693  24.481   1.322
34609W        W 7034   5.962  43.972   4.701
34610W        W 7035  30.643  37.844   2.208
34611W        W 7036   9.505  29.663  11.959
34612W        W 7037  13.187  25.621   4.857
34613W        W 7038   8.902  25.032  13.965
34614W        W 7039  24.515  39.809  11.341
34615W        W 7040  27.751  16.751  12.873
34616W        W 7041  34.485  15.154   4.147
34617W        W 7042  31.017  30.699   3.670
34618W        W 7043  28.116  10.394  12.087
34619W        W 7044   9.107   1.946  12.987
34620W        W 7045  32.705  16.760  14.703
34621W        W 7046  42.480   0.283  10.772
34622W        W 7047  26.912  14.446  12.832
34623W        W 7048  28.226  28.687  13.983
34624W        W 7049  36.485   4.840   3.569
34625W        W 7050  17.636  29.618  13.012
34626W        W 7051  10.314   9.570  11.534
34627W        W 7052  42.845   0.927  14.089
34628W        W 7053   7.393  23.104   0.913
34629W        W 7054  28.448  28.589  11.963
34630W        W 7055   7.170  27.088  11.627
34631W        W 7056  23.989   2.358  11.728
34632W        W 7057  37.889  43.557  12.536
34633W        W 7058  42.400  41.722  13.413
34634W        W 7059  21.214  31.049  12.980
34635W        W 7060  25.648  28.595  10.750
34636W        W 7061  14.290   2.795  13.787
34637W        W 7062   5.707  13.264  11.452
34638W        W 7063   0.754  42.613  11.711
34639W        W 7064  12.308   2.926   0.912
34640W        W 7065  38.876   9.269  11.005
34641W        W 7066  31.002   0.180   2.157
34642W        W 7067  28.563   7.619   1.395
34643W        W 7068  15.237   1.734  13.610
34644W        W 7069   2.052  16.555   1.797
34645W        W 7070  14.234  39.110  11.174
34646W        W 7071   2.365  16.899  12.646
34647W        W 7072  12.528  43.225  13.366
34648W        W 7073  24.546  22.733  13.571
34649W        W 7074  13.247  37.127   0.851
34650W        W 7075   2.113  26.887  12.154
34651W        W 7076  39.095  26.409   2.615
34652W        W 7077  18.545  42.355  11.515
34653W        W 7078  15.650   0.432   2.886
34654W        W 7079  27.627  41.420  10.580
34655W        W 7080  36.639  19.400   5.059
34656W        W 7081  38.933  10.074  14.503
34657W        W 7082  38.536   8.047  14.608
34658W        W 7083   0.539  35.957   0.025
34659W        W 7084  41.534  19.542   1.483
34660W        W 7085  36.883  28.052   2.887
34661W        W 7086   7.104  42.612   5.013
34662W        W 7087  14.632  27.249  14.380
34663W        W 7088  21.302  20.095  14.243
34664W        W 7089   4.435  30.047  13.587
34665W        W 7090  27.742  39.949  14.368
34666W        W 7091   0.508  28.622   3.733
34667W        W 7092  39.304  35.098   4.545
34668W        W 7093  21.293  14.228   4.253
34669W        W 7094  40.682  24.498  11.432
34670W        W 7095  20.796  40.071  14.977
34671W        W 7096   4.362  32.279   1.795
34672W        W 7097  24.488  27.464  13.884
34673W        W 7098   3.682  34.382   1.296
34674W        W 7099  23.439  35.115  13.311
34675W        W 7100  28.659  14.037  13.088
34676W        W 7101  16.824  40.806   4.621
34677W        W 7102   2.296  24.199  10.917
34678W        W 7103  30.134  22.757   0.866
34679W        W 7104   3.375  29.991   4.980
34680W        W 7105  27.943  25.877   4.211
34681W        W 7106  32.576  18.675   2.641
34682W        W 7107   1.837  18.192  12.277
34683W        W 7108   7.303   2.035  11.599
34684W        W 7109  25.044  39.135   2.743
34685W        W 7110  10.644  28.001  11.991
34686W        W 7111  17.723   6.654   2.149
34687W        W 7112  29.669   0.306   3.927
34688W        W 7113  25.194   0.428   4.662
34689W        W 7114  11.077  41.950   4.160
34690W        W 7115   0.409  35.453   3.637
34691W        W 7116  16.689  12.332  10.370
34692W        W 7117  27.254  19.539  14.586
34693W        W 7118  11.864  10.018   0.499
34694W        W 7119  36.132  16.813   4.206
34695W        W 7120  10.182  35.454   3.149
34696W        W 7121  11.711   8.626   0.876
34697W        W 7122  14.728  12.129   4.511
34698W        W 7123  24.079  23.590  11.501
34699W        W 7124  23.271   7.712   3.194
34700W        W 7125  37.825   4.175  13.891
34701W        W 7126  42.910  16.321   4.346
34702W        W 7127  20.517  42.863  14.451
34703W        W 7128   1.017  36.474   2.262
34704W        W 7129  36.611  38.904   1.721
34705W        W 7130  15.824  14.627   1.456
34706W        W 7131   8.702  13.287  13.022
34707W        W 7132   4.607   5.634  12.078
34708W        W 7133   2.210  38.192  11.628
34709W        W 7134   4.835  26.724  13.919
34710W        W 7135   7.743  15.558  10.310
34711W        W 7136  18.325  34.490  13.785
34712W        W 7137   0.792   4.574   0.325
34713W        W 7138  11.141   0.602  14.967
34714W        W 7139  13.216   9.129   4.243
34715W        W 7140  34.362  28.178  11.580
34716W        W 7141  20.562  33.592   1.747
34717W        W 7142  34.401  25.419   0.026
34718W        W 7143  36.458  16.897   3.155
34719W        W 7144  29.954   1.979  11.610
34720W        W 7145   5.037   5.996  14.261
34721W        W 7146  20.196  20.357   2.602
34722W        W 7147   9.182   1.313  10.503
34723W        W 7148  30.127  42.167   2.814
34724W        W 7149  32.931  41.901   4.344
34725W        W 7150   4.411  16.279  12.585
34726W        W 7151  11.058  25.102  11.414
34727W        W 7152  25.097  37.105  10.688
34728W        W 7153  23.941  34.853   1.294
34729W        W 7154  13.627  13.255   0.712
34730W        W 7155  42.319  38.614   0.304
34731W        W 7156   6.009  26.548   2.865
34732W        W 7157  19.300  38.384  13.918
34733W        W 7158  15.208   0.723   5.322
34734W        W 7159  17.009  37.074  11.167
34735W        W 7160  20.680  17.032  11.879
34736W        W 7161  12.693  32.964  14.522
34737W        W 7162   5.668   3.758  11.560
34738W        W 7163  27.559  24.013   3.268
34739W        W 7164  20.712   0.923   4.541
34740W        W 7165  40.783  30.312   2.398
34741W        W 7166   9.292  43.442   4.624
34742W        W 7167   0.559  30.651   4.114
34743W        W 7168  29.712  27.241  13.299
34744W        W 7169  10.563  30.311  10.107
34745W        W 7170  40.743  18.806  11.571
34746W        W 7171  19.391   2.739   2.490
34747W        W 7172  39.017  42.592  14.519
34748W        W 7173  44.735   9.400  13.895
34749W        W 7174   2.439  36.118   9.966
34750W        W 7175  18.304  39.794   2.610
34751W        W 7176  16.717  25.866  14.795
34752W        W 7177  15.873   4.217   1.208
34753W        W 7178  34.555  20.723  13.828
34754W        W 7179  40.463   8.758  10.387
34755W        W 7180   8.748  39.301  11.929
34756W        W 7181  41.197  40.776   0.261
34757W        W 7182  31.457  16.128  14.973
34758W        W 7183  30.292  25.528   1.005
34759W        W 7184  37.325  32.128  11.347
34760W        W 7185  23.822  37.373   4.327
34761W        W 7186  25.500   6.234  13.450
34762W        W 7187  34.022  19.179   2.989
34763W        W 7188  39.960   6.425  12.550
34764W        W 7189  17.763  19.801   4.579
34765W        W 7190  43.521  35.423  12.367
34766W        W 7191  13.285  36.611   0.863
34767W        W 7192  29.308  41.488  11.482
34768W        W 7193  37.569   4.390   2.613
34769W        W 7194   8.715  36.612   4.663
34770W        W 7195   8.393  40.336   4.248
34771W        W 7196  26.504  30.435  11.759
34772W        W 7197   3.903   4.449  14.584
34773W        W 7198  10.259  33.411   1.409
34774W        W 7199  44.965  17.050  14.771
34775W        W 7200   5.937   2.265   1.341
34776W        W 7201  26.977  11.319   1.279
34777W        W 7202  20.132  12.417  10.964
34778W        W 7203  37.390  40.746  11.933
34779W        W 7204   7.325  28.155   0.927
34780W        W 7205  22.398   0.749   4.584
34781W        W 7206  19.916  28.176   1.412
34782W        W 7207  44.059  31.882   2.438
34783W        W 7208  23.206  16.196   2.991
34784W        W 7209  35.869  27.437   1.546
34785W        W 7210  26.503   9.941  12.034
34786W        W 7211  30.736  34.328  14.985
34787W        W 7212  37.447  41.476   3.212
34788W        W 7213  37.463  14.334   3.644
34789W        W 7214   2.798  44.004  12.520
34790W        W 7215   5.141  34.011  13.049
34791W        W 7216  41.374  42.954  12.953
34792W        W 7217   4.944   6.514   1.489
34793W        W 7218  38.166  28.946   4.548
34794W        W 7219  13.270  39.290  11.112
34795W        W 7220  31.885  27.179   0.979
34796W        W 7221  24.823  33.913  14.368
34797W        W 7222  13.057  43.916   2.148
34798W        W 7223  15.379   7.696   4.287
34799W        W 7224  14.072   7.813  10.587
34800W        W 7225  35.947   0.869   3.187
34801W        W 7226  44.309  19.574  14.316
34802W        W 7227  44.144  32.465   2.321
34803W        W 7228   2.349  25.447   3.624
34804W        W 7229  21.525  30.622  12.770
34805W        W 7230  34.374   9.284   3.904
34806W        W 7231   0.240  15.630  12.593
34807W        W 7232  31.242  32.528  13.696
34808W        W 7233  25.173   7.679  14.822
34809W        W 7234  41.171   2.863   1.460
34810W        W 7235   9.283  33.231   3.748
34811W        W 7236  25.610   4.664  13.888
34812W        W 7237  24.617  34.459  11.199
34813W        W 7238  38.897  14.064   2.666
34814W        W 7239  42.772   7.744  12.505
34815W        W 7240  39.422  23.135  14.178
34816W        W 7241  44.684  44.011  10.836
34817W        W 7242  38.093  14.205   0.731
34818W        W 7243   8.872  41.211  12.398
34819W        W 7244  16.370  25.028   1.347
34820W        W 7245   6.373   8.762   4.585
34821W        W 7246  13.636  37.430  12.109
34822W        W 7247  22.707  25.626  11.262
34823W        W 7248  23.908   2.953   3.233
34824W        W 7249  36.830   5.550  10.507
34825W        W 7250  10.350  25.690   3.772
34826W        W 7251  38.368  44.964  14.355
34827W        W 7252  29.619  13.546  11.218
34828W        W 7253  31.815  29.835  12.970
34829W        W 7254  14.268  12.750  13.990
34830W        W 7255  14.884  25.157  13.353
34831W        W 7256  44.026  40.112   3.285
34832W        W 7257   3.297  28.074  12.128
34833W        W 7258  23.132  19.050   2.326
34834W        W 7259   9.151  37.580  13.731
34835W        W 7260  15.760   8.882   3.206
34836W        W 7261  12.632  14.701  12.676
34837W        W 7262  40.685  34.314  10.137
34838W        W 7263  35.568  34.645   2.744
34839W        W 7264  15.463  43.305  12.122
34840W        W 7265  28.486  23.235  12.835
34841W        W 7266  38.664  23.193   1.809
34842W        W 7267  36.518  18.939   3.292
34843W        W 7268   1.737  10.417  13.338
34844W        W 7269   1.135  44.928  12.614
34845W        W 7270   8.728   0.971  11.355
34846W        W 7271  40.440  33.531   4.580
34847W        W 7272  11.824  32.369   1.906
34848W        W 7273  43.400  27.519   0.787
34849W        W 7274  17.329  21.596   4.389
34850W        W 7275  15.235   7.374  10.520
34851W        W 7276  22.931   9.523   1.384
34852W        W 7277  21.591  31.051   4.583
34853W        W 7278  23.737   8.065   1.753
34854W        W 7279  34.155   3.506  11.713
34855W        W 7280  33.641  31.510  12.099
34856W        W 7281  18.619  15.738   0.067
34857W        W 7282  15.665  36.961   1.745
34858W        W 7283  19.317  28.236  13.019
34859W        W 7284  38.151  38.385  13.868
34860W        W 7285   5.931  19.638   0.357
34861W        W 7286   8.192  12.593   3.059
34862W        W 7287   9.904  16.204  11.993
34863W        W 7288  18.588   7.256  13.865
34864W        W 7289   2.274   7.634   2.762
34865W        W 7290  17.045  16.735  13.875
34866W        W 7291  42.145   0.800  14.818
34867W        W 7292  34.921   5.164   4.550
34868W        W 7293   5.420  23.369  12.021
34869W        W 7294  41.500  13.560  10.569
34870W        W 7295  28.354   5.212   2.109
34871W        W 7296  38.954  42.761   3.114
34872W        W 7297  11.755  43.241   2.741
34873W        W 7298  23.043   2.904   2.827
34874W        W 7299  39.752   7.284  10.823
34875W        W 7300   4.785  27.071  13.380
34876W        W 7301  15.730  42.111  12.374
34877W        W 7302  39.573  25.430   1.010
34878W        W 7303  44.229  42.456  12.343
34879W        W 7304  21.868  19.776   0.540
34880W        W 7305  19.508  34.516  14.572
34881W        W 7306  32.645  44.874  12.370
34882W        W 7307  41.372  19.236   4.732
34883W        W 7308  30.897  33.881  11.022
34884W        W 7309   5.571  34.203   0.741
34885W        W 7310  39.947  41.310   4.261
34886W        W 7311  35.123  11.295  13.817
34887W        W 7312   4.188  13.845  12.579
34888W        W 7313   7.558  39.862   0.953
34889W        W 7314  30.770  34.395  12.393
34890W        W 7315  20.473   1.848   2.334
34891W        W 7316   4.708   4.345  11.894
34892W        W 7317  28.526  23.095   2.195
34893W        W 7318  13.939   2.476   3.147
34894W        W 7319  24.561  18.314   1.697
34895W        W 7320  13.329  15.836  11.855
34896W        W 7321  16.896  34.425  12.739
34897W        W 7322  25.274  13.315   1.264
34898W        W 7323  23.347  41.357   2.661
34899W        W 7324  24.704  27.674  10.967
34900W        W 7325  37.518   4.641  13.989
34901W        W 7326  27.556  24.031   4.887
34902W        W 7327  41.911  13.808   1.146
34903W        W 7328   2.439  13.334   0.024
34904W        W 7329  39.767  24.762   5.290
34905W        W 7330   8.795  29.883  14.902
34906W        W 7331   0.738  36.050  10.823
34907W        W 7332  37.558  19.137  12.031
34908W        W 7333  37.827  15.135  11.559
34909W        W 7334  44.968  37.950  12.511
34910W        W 7335  43.961  39.260  10.601
34911W        W 7336  13.508  17.619  13.315
34912W        W 7337  39.379  39.476   4.179
34913W        W 7338  22.164  24.143  10.568
34914W        W 7339   1.652  27.305   3.860
34915W        W 7340  25.560   5.838   3.667
34916W        W 7341  10.652  20.097   3.302
34917W        W 7342   7.554  39.669   2.343
34918W        W 7343  16.410  40.229   4.962
34919W        W 7344  35.504  24.849   3.678
34920W        W 7345  31.167  15.368   2.721
34921W        W 7346  35.007  20.772  13.008
34922W        W 7347  19.107  44.478   2.919
34923W        W 7348   2.768   2.486  11.503
34924W        W 7349   5.905  14.476  14.871
34925W        W 7350   5.259   0.193  14.847
34926W        W 7351  27.557  40.514  13.107
34927W        W 7352  13.747  38.942  11.210
34928W        W 7353   3.308  19.228   3.287
34929W        W 7354  41.548  25.166   1.190
34930W        W 7355  18.118  14.825  13.397
34931W        W 7356  14.335  14.456  13.283
34932W        W 7357  23.474  24.689   3.635
34933W        W 7358  25.365  10.767   3.981
34934W        W 7359  24.722  11.100   3.343
34935W        W 7360  20.624   5.216  12.967
34936W        W 7361   0.769  29.719  12.460
34937W        W 7362  30.434  17.598   0.821
34938W        W 7363  36.305   9.709  13.340
34939W        W 7364  37.374  19.929  10.211
34940W        W 7365  44.637  24.208  14.742
34941W        W 7366  19.045  18.180   1.145
34942W        W 7367   8.195   2.874  14.008
34943W        W 7368  30.592   7.478   1.173
34944W        W 7369  18.356   8.347   4.725
34945W        W 7370  34.013  33.873   1.915
34946W        W 7371  14.647  37.887   0.927
34947W        W 7372   6.150  37.503   3.804
34948W        W 7373   3.663  31.415   4.629
34949W        W 7374  39.868  15.751   1.437
34950W        W 7375  24.563  24.163   1.335
34951W        W 7376  17.719  38.728  12.587
34952W        W 7377  19.500  41.898   0.004
34953W        W 7378  16.619  19.003  14.376
34954W        W 7379  11.501  20.704  13.283
34955W        W 7380   9.794  25.830   1.554
34956W        W 7381  16.357  25.995  10.688
34957W        W 7382   0.342  34.294   2.848
34958W        W 7383  35.973  16.063   1.999
34959W        W 7384  15.623  13.126   3.628
34960W        W 7385   2.031  32.906   0.294
34961W        W 7386  43.830  27.088  11.517
34962W        W 7387   2.543  39.362   4.328
34963W        W 7388  19.250  17.075  11.824
34964W        W 7389   1.758  38.107  11.926
34965W        W 7390  44.922  32.057  11.692
34966W        W 7391  31.720  11.358  13.039
34967W        W 7392  42.067  15.179  14.650
34968W        W 7393  23.176  40.085  11.962
34969W        W 7394  15.068   3.265   1.802
34970W        W 7395  32.848  35.142   4.912
34971W        W 7396   7.645  30.540   1.259
34972W        W 7397  12.287   8.904   4.746
34973W        W 7398  13.937  15.658   3.714
34974W        W 7399   9.034  23.716  11.985
34975W        W 7400  33.891  43.489  12.364
34976W        W 7401  24.097  15.410  12.946
34977W        W 7402  30.113   9.194  11.738
34978W        W 7403  23.747  39.425  13.553
34979W        W 7404  35.939   8.955   2.764
34980W        W 7405  21.487   9.160  10.697
34981W        W 7406  30.915  41.512  11.663
34982W        W 7407  25.632   6.687   3.297
34983W        W 7408  20.164   4.128  13.402
34984W        W 7409  41.396  22.606   0.239
34985W        W 7410   7.164   3.869  10.686
34986W        W 7411  27.207  13.666  11.955
34987W        W 7412  28.134  27.584  12.119
34988W        W 7413  11.947   6.204   1.244
34989W        W 7414  42.448  44.878   1.421
34990W        W 7415   9.390  24.157  14.064
34991W        W 7416   3.675  12.901  14.225
34992W        W 7417  12.904  18.892  12.117
34993W        W 7418  37.528  35.519   0.462
34994W        W 7419  40.850  17.312   0.388
34995W        W 7420  18.763  19.024  12.052
34996W        W 7421  34.469   4.406   2.338
34997W        W 7422  23.231  28.970  12.539
34998W        W 7423  41.285   2.463   1.149
34999W        W 7424   3.216  28.065   4.154
35000W        W 7425  14.047  14.687   0.820
35001W        W 7426  35.125  11.536  11.964
35002W        W 7427  22.653  37.034   0.747
35003W        W 7428   3.978  11.152  11.204
35004W        W 7429  33.184  17.319   0.278
35005W        W 7430   6.657  15.800   2.752
35006W        W 7431  14.909  20.088  13.813
35007W        W 7432  34.614  23.588  14.084
35008W        W 7433  11.626  20.161  12.438
35009W        W 7434  24.147  40.714   2.885
35010W        W 7435  25.560  15.697  12.227
35011W        W 7436   5.434   5.777   1.967
35012W        W 7437  31.978  28.484  13.391
35013W        W 7438  40.550  23.249  11.957
35014W        W 7439  29.606  42.874   2.394
35015W        W 7440   5.952   6.923   2.149
35016W        W 7441  12.206   0.541   0.915
35017W        W 7442  44.991  34.087   4.704
35018W        W 7443  22.516  19.095   4.434
35019W        W 7444  38.257  43.390   4.680
35020W        W 7445  10.130  25.938   4.212
35021W        W 7446  15.723  31.109   3.118
35022W        W 7447  32.430  38.080  14.912
35023W        W 7448  17.771  11.706  12.934
35024W        W 7449   4.810  29.661  14.823
35025W        W 7450  25.481  38.862   4.622
35026W        W 7451  35.849  37.142  13.363
35027W        W 7452   4.153  12.041   4.070
35028W        W 7453  18.249  39.624   3.092
35029W        W 7454  25.514   7.202   4.171
35030W        W 7455  22.239  13.915   2.276
35031W        W 7456  17.013  41.170   4.976
35032W        W 7457   2.674  36.999  12.961
35033W        W 7458  44.064  19.037   2.188
35034W        W 7459  26.562   8.484   3.648
35035W        W 7460   7.821  31.468   3.551
35036W        W 7461  39.568  28.135  13.477
35037W        W 7462  30.809  11.580  12.097
35038W        W 7463   5.359  17.741   0.361
35039W        W 7464  19.256  34.109   2.758
35040W        W 7465  36.972  31.455   0.960
35041W        W 7466  40.872  13.574   4.094
35042W        W 7467  32.435  27.076   1.644
35043W        W 7468  17.592   4.101   4.614
35044W        W 7469   9.459  17.500   1.854
35045W        W 7470  10.706  32.014   3.115
35046W        W 7471  42.396  28.091  11.427
35047W        W 7472  12.179  16.604   2.330
35048W        W 7473  24.935  38.848   4.526
35049W        W 7474  22.962  31.291  13.056
35050W        W 7475  25.983  20.835  10.719
35051W        W 7476  15.328  33.882   1.288
35052W        W 7477  40.329  28.450   0.207
35053W        W 7478  35.640   8.886  12.450
35054W        W 7479  34.408  21.989  11.513
35055W        W 7480  37.015  36.847   4.217
35056W        W 7481   0.371   4.760   0.709
35057W        W 7482  33.206   9.767  13.516
35058W        W 7483  28.258  13.392   3.806
35059W        W 7484  39.606   6.665   2.333
35060W        W 7485  34.218  33.851  11.527
35061W        W 7486  12.674  24.559   4.166
35062W        W 7487  12.797  30.892  11.254
35063W        W 7488   3.427  39.852  12.270
35064W        W 7489  13.721  23.584  13.606
35065W        W 7490  22.702  38.428   2.591
35066W        W 7491  14.815  11.068  10.997
35067W        W 7492  25.448  39.350  12.500
35068W        W 7493  43.476  11.659  13.018
35069W        W 7494  33.896  35.910   3.200
35070W        W 7495  30.107  31.084  10.492
35071W        W 7496  22.730  18.849  10.621
35072W        W 7497  25.199  39.154  10.771
35073W        W 7498  26.409   9.739   2.885
35074W        W 7499  14.619  38.514   3.029
35075W        W 7500  13.562   1.055  13.759
35076W        W 7501  18.927  27.627   0.289
35077W        W 7502  21.167  15.554   0.403
35078W        W 7503  21.790   6.247   0.304
35079W        W 7504  43.306  26.165   2.361
35080W        W 7505  28.463  26.130  14.729
35081W        W 7506  22.278  32.200  11.330
35082W        W 7507  36.977   5.989  14.021
35083W        W 7508  34.852  21.337   2.301
35084W        W 7509   7.684  11.960   1.940
35085W        W 7510  34.123  43.319  14.475
35086W        W 7511  29.671  17.002   0.874
35087W        W 7512  20.078  18.550  11.617
35088W        W 7513  10.202  30.455   4.056
35089W        W 7514  34.988  24.845  10.068
35090W        W 7515  40.798   8.048   4.232
35091W        W 7516  14.262  37.915   2.321
35092W        W 7517  26.475  13.672  14.368
35093W        W 7518  28.262  38.604   4.141
35094W        W 7519   0.346  31.222  14.353
35095W        W 7520  19.185  35.024   2.439
35096W        W 7521  28.337   9.944  11.904
35097W        W 7522   0.972  37.409  12.550
35098W        W 7523   4.301  39.198  11.652
35099W        W 7524   9.664  28.854  13.029
35100W        W 7525  37.886  20.197  13.127
35101W        W 7526  34.900  11.906  12.481
35102W        W 7527  17.730   0.992   0.115
35103W        W 7528  38.493  16.052  12.378
35104W        W 7529  33.394  29.627   2.676
35105W        W 7530  19.552  16.197   3.175
35106W        W 7531  34.039  15.157   0.471
35107W        W 7532   0.129  29.803   1.209
35108W        W 7533   8.147  37.400   2.555
35109W        W 7534  24.448  23.679  13.283
35110W        W 7535  39.082  19.330   0.280
35111W        W 7536  29.970  44.181  14.434
35112W        W 7537   9.715  36.998  14.405
35113W        W 7538  10.009   1.345  14.501
35114W        W 7539  41.138   9.469   3.166
35115W        W 7540  35.982  42.454   0.308
35116W        W 7541  25.168  20.955   4.263
35117W        W 7542   1.881  42.523   4.493
35118W        W 7543  14.750  41.491  13.743
35119W        W 7544   0.956   8.903  13.907
35120W        W 7545   6.527  26.782   9.881
35121W        W 7546  31.850  30.357  10.674
35122W        W 7547  21.724  13.708   3.805
35123W        W 7548   3.916  30.005   2.511
35124W        W 7549  30.163  20.540   0.341
35125W        W 7550  35.429  13.654  12.935
35126W        W 7551  35.213  17.846   0.373
35127W        W 7552  22.451  34.562   2.287
35128W        W 7553  18.100   4.005  12.373
35129W        W 7554  19.654  26.582   3.558
35130W        W 7555  16.036  44.276   1.443
35131W        W 7556  38.311  26.248  12.848
35132W        W 7557   9.169   0.504   4.949
35133W        W 7558  25.592  27.618   1.772
35134W        W 7559  43.274  34.445   0.499
35135W        W 7560  30.183  41.417  11.202
35136W        W 7561  42.270  11.384   3.266
35137W        W 7562   3.796  33.386  14.355
35138W        W 7563  14.130  29.983  12.777
35139W        W 7564   6.384  43.080  14.903
35140W        W 7565   0.880  23.023   3.425
35141W        W 7566   2.000   3.660   1.880
35142W        W 7567   4.697  15.693   3.716
35143W        W 7568  26.259   2.761   0.909
35144W        W 7569  19.007  15.125  12.156
35145W        W 7570  28.495  27.919  12.359
35146W        W 7571   4.864   6.497   4.312
35147W        W 7572  36.776  18.773  10.852
35148W        W 7573  14.815  19.239   0.884
35149W        W 7574  19.299  26.602   1.824
35150W        W 7575  43.841  44.027  10.424
35151W        W 7576  10.424   9.942   5.082
35152W        W 7577  39.266  23.010  11.502
35153W        W 7578   9.849  34.734   2.738
35154W        W 7579  36.310   5.257  14.550
35155W        W 7580  26.014  40.979   1.346
35156W        W 7581   5.753  10.237  11.888
35157W        W 7582   3.721  39.094   2.157
35158W        W 7583  27.397   1.976   4.366
35159W        W 7584   0.178  43.518   4.339
35160W        W 7585  19.237   1.708   1.456
35161W        W 7586  30.111  42.858   2.357
35162W        W 7587  39.846  28.475   0.427
35163W        W 7588  13.597  32.135   4.507
35164W        W 7589   1.777  24.495   4.367
35165W        W 7590  39.729  42.868  11.509
35166W        W 7591  22.287  31.549  14.200
35167W        W 7592  27.444  30.007  14.972
35168W        W 7593  29.079  28.315   4.578
35169W        W 7594  12.853  27.783  12.494
35170W        W 7595  33.091  39.920   2.708
35171W        W 7596  17.334   6.200   4.200
35172W        W 7597  12.259  24.437   0.410
35173W        W 7598  25.429  23.553  12.482
35174W        W 7599  25.440   9.871   4.910
35175W        W 7600  41.447  44.692   4.170
35176W        W 7601  24.573   1.838   2.636
35177W        W 7602  24.685   7.382   2.972
35178W        W 7603  38.907   0.195   3.708
35179W        W 7604  33.716  18.160   1.722
35180W        W 7605  12.111  39.077  12.303
35181W        W 7606   8.429  35.885   0.394
35182W        W 7607  19.623  40.568   3.216
35183W        W 7608  10.778  21.969  12.014
35184W        W 7609  20.663  29.698  13.220
35185W        W 7610  33.480  30.477   3.197
35186W        W 7611  16.817  11.232   3.604
35187W        W 7612   4.839  28.549  12.601
35188W        W 7613  30.459  40.942   0.548
35189W        W 7614  44.562  25.732   2.255
35190W        W 7615  37.437  35.333   0.942
35191W        W 7616  36.766  24.837  10.210
35192W        W 7617  19.346  14.251   0.973
35193W        W 7618   4.468  33.168  13.931
35194W        W 7619  18.772  44.240  14.963
35195W        W 7620  41.212   4.201   0.660
35196W        W 7621  15.213   8.402   2.217
35197W        W 7622  40.768   3.774  11.789
35198W        W 7623  22.221  19.521   4.596
35199W        W 7624  42.784  34.964  12.803
35200W        W 7625  37.097  21.994   2.513
35201W        W 7626  38.645  31.806  13.649
35202W        W 7627  32.066  36.063  14.121
35203W        W 7628  17.455  13.007   2.979
35204W        W 7629  16.240  40.382   3.226
35205W        W 7630  23.805  15.688  13.271
35206W        W 7631  16.562  26.391  14.842
35207W        W 7632  40.136  12.239   2.906
35208W        W 7633  26.601  24.369  14.753
35209W        W 7634  31.986  38.008   2.735
35210W        W 7635  14.660   7.607  13.100
35211W        W 7636  13.350   9.358  13.372
35212W        W 7637  18.692  41.252  12.840
35213W        W 7638  10.335   3.286   9.985
35214W        W 7639  43.014  40.385  13.098
35215W        W 7640   9.362   5.315  11.139
35216W        W 7641  24.263  42.675   2.753
35217W        W 7642  24.407  22.884   3.098
35218W        W 7643  30.120  43.793  12.013
35219W        W 7644  29.024   6.711   4.851
35220W        W 7645  28.433  30.184  12.980
35221W        W 7646  27.271   6.519  10.814
35222W        W 7647  14.336  41.879   3.323
35223W        W 7648   5.217  17.198   3.396
35224W        W 7649  25.192  44.036   0.960
35225W        W 7650  37.087  12.879   3.049
35226W        W 7651  40.961  24.007  11.550
35227W        W 7652  24.614  28.553  14.424
35228W        W 7653  28.685  33.938   2.331
35229W        W 7654   8.075  26.437  14.169
35230W        W 7655  21.435  18.713   3.759
35231W        W 7656  31.620  34.480   1.803
35232W        W 7657  18.733  21.476   0.188
35233W        W 7658  23.270  29.603   2.363
35234W        W 7659   1.205  39.268   2.640
35235W        W 7660  26.724  16.345   0.867
35236W        W 7661  40.116   2.884  11.203
35237W        W 7662  31.039  43.105  14.747
35238W        W 7663   7.659  17.512   0.456
35239W        W 7664  34.133  23.423  13.390
35240W        W 7665  20.216  17.514   1.319
35241W        W 7666  28.073   8.275   4.617
35242W        W 7667  14.865  25.967   0.777
35243W        W 7668  16.397   0.135  11.094
35244W        W 7669  41.277  42.040   4.593
35245W        W 7670  39.561  17.062   1.781
35246W        W 7671  17.977   9.232  10.699
35247W        W 7672  37.271  27.169  11.572
35248W        W 7673  36.954  20.579  10.709
35249W        W 7674  40.554  26.203  13.060
35250W        W 7675  17.067  38.070  13.079
35251W        W 7676  37.398   6.205   1.984
35252W        W 7677  36.617  19.590  11.256
35253W        W 7678   4.449  43.554  13.850
35254W        W 7679  23.679  15.313   1.628
35255W        W 7680  20.045  41.448   1.290
35256W        W 7681  37.542   2.905  14.461
35257W        W 7682  32.947  19.759   0.876
35258W        W 7683  33.049  34.627   4.768
35259W        W 7684  28.101  28.620  10.652
35260W        W 7685  28.179  41.650   1.953
35261W        W 7686  18.350  20.166   2.302
35262W        W 7687  13.263  40.017   0.950
35263W        W 7688  14.383  17.977   0.887
35264W        W 7689   7.299  42.459  14.005
35265W        W 7690  11.272  19.070   1.154
35266W        W 7691  28.893   3.914  12.591
35267W        W 7692  32.336  12.647   4.357
35268W        W 7693  14.356  43.421   2.304
35269W        W 7694   9.264   8.368  11.199
35270W        W 7695  39.054  16.008  14.539
35271W        W 7696   2.056  42.044  11.602
35272W        W 7697  27.958  39.814  10.646
35273W        W 7698  24.178   9.647  11.302
35274W        W 7699  16.156  23.737   3.046
35275W        W 7700   7.777  20.745   0.842
35276W        W 7701   7.904   6.897   3.729
35277W        W 7702  16.475  38.627  10.158
35278W        W 7703  31.603  36.349  12.519
35279W        W 7704  33.974   4.864   2.516
35280W        W 7705  43.423  21.610  13.358
35281W        W 7706   1.278  40.090  11.183
35282W        W 7707  18.274  39.252  11.121
35283W        W 7708  43.677  29.081   3.287
35284W        W 7709   0.455   3.416  11.938
35285W        W 7710  39.942  31.388  11.909
35286W        W 7711  37.865   2.911   4.353
35287W        W 7712  27.870  12.140  13.496
35288W        W 7713  13.573  27.308  12.714
35289W        W 7714  25.173  36.390  13.488
35290W        W 7715  12.121  21.961   9.641
35291W        W 7716  25.660  27.457   3.177
35292W        W 7717  36.494  38.054  10.742
35293W        W 7718  13.191  16.542   2.330
35294W        W 7719  33.114  17.832  14.221
35295W        W 7720  25.775  37.439  12.527
35296W        W 7721  29.817   3.006  13.613
35297W        W 7722  12.815   4.170   1.008
35298W        W 7723  38.056  37.487  14.829
35299W        W 7724   5.871   2.665  14.479
35300W        W 7725  22.160  39.053   3.768
35301W        W 7726  40.785  29.086   3.190
35302W        W 7727  23.478   7.331   0.570
35303W        W 7728  43.817  26.479  14.032
35304W        W 7729  29.063  36.077   3.396
35305W        W 7730  30.308   7.666  13.998
35306W        W 7731   3.907  22.920   0.408
35307W        W 7732  34.143  27.029  11.066
35308W        W 7733  14.235  20.142   1.255
35309W        W 7734  29.788   6.719  14.899
35310W        W 7735  20.321   9.283  13.962
35311W        W 7736  24.974  22.068   4.674
35312W        W 7737  16.505  26.741   2.385
35313W        W 7738  28.189  22.892  11.552
35314W        W 7739  26.132   0.033  12.632
35315W        W 7740  28.482  30.159  11.035
35316W        W 7741  30.154   1.572  11.352
35317W        W 7742   1.502   3.143  10.484
35318W        W 7743  19.016  38.930   1.626
35319W        W 7744  11.718  39.108   4.219
35320W        W 7745  38.013   5.122  11.231
35321W        W 7746  12.199   4.887   0.982
35322W        W 7747  27.200   4.728  14.517
35323W        W 7748   5.422  36.498  13.022
35324W        W 7749   0.762  36.802   0.469
35325W        W 7750   6.883  41.265   4.184
35326W        W 7751   1.710  20.158   1.661
35327W        W 7752  19.140  28.127   3.815
35328W        W 7753  13.836  17.091  13.615
35329W        W 7754  43.794   1.428   3.111
35330W        W 7755  24.915  26.581  14.986
35331W        W 7756   4.296  33.170  14.926
35332W        W 7757   8.273  28.478   0.845
35333W        W 7758   4.345  14.260   1.619
35334W        W 7759  33.747   9.192  12.963
35335W        W 7760  35.485  35.808  12.454
35336W        W 7761  21.771   4.239  12.840
35337W        W 7762  21.210  20.501   2.705
35338W        W 7763   7.628  41.903   0.311
35339W        W 7764  22.009  19.501   1.693
35340W        W 7765  28.417  16.803   0.739
35341W        W 7766  23.810  33.937   2.314
35342W        W 7767  35.532  43.731   1.935
35343W        W 7768  31.271  31.858   1.290
35344W        W 7769  21.157   8.265  12.197
35345W        W 7770  10.064  40.891   4.214
35346W        W 7771  25.117  10.300   0.944
35347W        W 7772  26.604   4.415  13.801
35348W        W 7773  39.730   2.938  13.063
35349W        W 7774  40.426  39.939  11.659
35350W        W 7775  13.645  17.332  10.963
35351W        W 7776   5.917   8.159   4.573
35352W        W 7777  27.714  43.872   4.877
35353W        W 7778  26.055   9.525  12.504
35354W        W 7779  29.939  43.986  11.585
35355W        W 7780  32.990  19.641  12.101
35356W        W 7781   6.901  27.047   1.369
35357W        W 7782  19.244  32.159   0.332
35358W        W 7783  11.831  38.469   2.358
35359W        W 7784  37.864   3.972   1.892
35360W        W 7785  12.161  27.530   1.958
35361W        W 7786   6.030  36.538  10.195
35362W        W 7787  38.834   5.888   4.308
35363W        W 7788   1.155  21.197   4.280
35364W        W 7789  25.089  40.495   3.170
35365W        W 7790   6.296   1.325   3.776
35366W        W 7791  42.927  33.615  14.258
35367W        W 7792  42.687   5.436  13.790
35368W        W 7793  35.564  15.861   9.654
35369W        W 7794  29.370   9.166   3.739
35370W        W 7795  28.725   6.266   3.584
35371W        W 7796   0.781   3.365  14.465
35372W        W 7797  43.975  18.503   3.696
35373W        W 7798  34.446  28.062   1.681
35374W        W 7799  38.898  22.348  13.877
35375W        W 7800  14.878  21.264   1.080
35376W        W 7801  44.959  15.671   3.234
35377W        W 7802  14.301  32.717  14.111
35378W        W 7803  22.103  16.156  14.999
35379W        W 7804  25.734  23.079   1.385
35380W        W 7805  30.121  39.833   3.651
35381W        W 7806  23.135   3.333   4.077
35382W        W 7807   1.313  33.096  11.593
35383W        W 7808   2.802  10.175   1.388
35384W        W 7809  16.035  42.105   0.074
35385W        W 7810   6.690   3.900  11.584
35386W        W 7811  28.488  13.126  11.625
35387W        W 7812  43.518  40.437  11.878
35388W        W 7813  13.363  12.668  13.028
35389W        W 7814  10.305  24.691   2.840
35390W        W 7815  10.422  10.783   3.847
35391W        W 7816  24.303  12.197  11.062
35392W        W 7817  42.651   7.691  13.797
35393W        W 7818  27.349  41.922  12.597
35394W        W 7819  35.386  18.520  12.570
35395W        W 7820   8.354   1.286  13.341
35396W        W 7821  32.032  27.415  11.214
35397W        W 7822  32.434  36.602  12.486
35398W        W 7823  10.411  15.661   4.084
35399W        W 7824  44.448  34.446   0.791
35400W        W 7825  16.717  41.524  11.484
35401W        W 7826   4.828  37.015  13.824
35402W        W 7827  42.000   1.059   4.689
35403W        W 7828  14.548  15.630  12.897
35404W        W 7829   9.169  34.950   0.946
35405W        W 7830   5.403  11.125   4.136
35406W        W 7831   2.910  34.664  10.723
35407W        W 7832  14.972  12.293   1.255
35408W        W 7833  43.225  17.789   2.265
35409W        W 7834  12.800  15.868  11.983
35410W        W 7835  20.203  44.374  11.498
35411W        W 7836  18.695  18.522  14.793
35412W        W 7837   8.736  19.930   1.628
35413W        W 7838  18.327  35.591   3.714
35414W        W 7839  27.143  34.068   3.792
35415W        W 7840  37.460  29.546  13.140
35416W        W 7841  30.701  18.246  14.027
35417W        W 7842  19.066  21.924  12.390
35418W        W 7843  38.763  31.115   3.768
35419W        W 7844  10.870   0.777  13.020
35420W        W 7845  27.727  37.823  13.028
35421W        W 7846  29.500  25.393  12.195
35422W        W 7847  18.644  27.007  12.973
35423W        W 7848   8.878  14.662   1.900
35424W        W 7849  35.817  25.663   1.958
35425W        W 7850  14.122  14.081  12.109
35426W        W 7851   6.082   5.784  12.830
35427W        W 7852  27.646  20.721   4.198
35428W        W 7853  42.954   1.890  10.356
35429W        W 7854  31.430   6.611   0.351
35430W        W 7855  40.989  13.430  14.742
35431W        W 7856  26.078  25.555  14.833
35432W        W 7857   5.961  20.519  11.236
35433W        W 7858  36.663  23.512  13.870
35434W        W 7859  12.080  23.521   9.754
35435W        W 7860  12.211  12.619  11.688
35436W        W 7861   3.188  30.940  14.304
35437W        W 7862  12.244   0.329   2.174
35438W        W 7863  25.850  24.766  14.403
35439W        W 7864  13.312   2.291  13.464
35440W        W 7865  34.530  24.254   0.798
35441W        W 7866   6.889  24.969  10.691
35442W        W 7867  22.447  33.592   4.180
35443W        W 7868  44.511   8.406  13.951
35444W        W 7869   2.858   8.731  12.484
35445W        W 7870  28.141  36.485  10.940
35446W        W 7871  15.152   3.910  14.687
35447W        W 7872  29.024  19.224   4.789
35448W        W 7873   5.915   4.804   3.733
35449W        W 7874   6.069   5.795   4.159
35450W        W 7875  13.717   0.507   4.743
35451W        W 7876  19.346  16.797  10.804
35452W        W 7877  30.133  16.525   1.502
35453W        W 7878  11.286  10.635  13.295
35454W        W 7879  40.969   4.630   3.349
35455W        W 7880  33.881  43.785  12.965
35456W        W 7881  27.712  34.572  12.839
35457W        W 7882  29.553  40.586  13.885
35458W        W 7883  16.258  40.581  11.158
35459W        W 7884  14.159  11.149  12.236
35460W        W 7885  25.613  17.327  13.919
35461W        W 7886  28.457  27.813   4.129
35462W        W 7887  42.557  34.478   4.579
35463W        W 7888   3.008  21.255   3.646
35464W        W 7889   1.485  10.086   0.955
35465W        W 7890  44.219   3.325   1.904
35466W        W 7891  44.612   0.745   1.825
35467W        W 7892  34.445   2.056   3.829
35468W        W 7893  34.995  39.842   2.458
35469W        W 7894  33.090  40.782   3.263
35470W        W 7895  22.893  42.229   2.991
35471W        W 7896   9.011  15.346  14.436
35472W        W 7897   9.267   4.707  13.327
35473W        W 7898   8.053  24.057  11.134
35474W        W 7899  43.424  32.699  10.677
35475W        W 7900  35.702  17.550   0.319
35476W        W 7901   5.413  18.350   2.715
35477W        W 7902   6.582   5.920  14.373
35478W        W 7903  41.554  24.949   0.311
35479W        W 7904  30.772  29.313  14.477
35480W        W 7905  17.131  21.222   3.733
35481W        W 7906  15.672   9.767   2.170
35482W        W 7907  35.553   8.716   1.413
35483W        W 7908  15.244  39.971  12.018
35484W        W 7909   6.475  21.488  11.202
35485W        W 7910   6.437   1.516  13.454
35486W        W 7911  10.091   3.860   3.010
35487W        W 7912  36.681  15.076  13.590
35488W        W 7913  30.823  33.076   0.807
35489W        W 7914  38.856  39.473   4.174
35490W        W 7915  15.276  33.630  12.061
35491W        W 7916   6.219  36.868   0.219
35492W        W 7917   5.955   8.705   1.775
35493W        W 7918  29.289   7.224  11.408
35494W        W 7919  34.447   5.878   4.923
35495W        W 7920  37.590  27.426   0.304
35496W        W 7921  43.438  12.761  13.820
35497W        W 7922  40.112  39.059  14.060
35498W        W 7923  13.359  36.284  11.086
35499W        W 7924  29.670  39.062  14.246
35500W        W 7925   8.794  13.159  11.272
35501W        W 7926   3.189  17.028   0.018
35502W        W 7927  32.676   5.835  11.429
35503W        W 7928   0.228   3.748   4.177
35504W        W 7929   2.594  17.116  11.578
35505W        W 7930  42.781   0.237  12.120
35506W        W 7931  25.878  33.170  12.228
35507W        W 7932   2.155  22.885  10.676
35508W        W 7933   5.869  11.434  13.469
35509W        W 7934   5.373  23.553  11.552
35510W        W 7935  28.837   9.641   4.498
35511W        W 7936  23.962  34.670   2.699
35512W        W 7937   6.218  33.612  14.466
35513W        W 7938  26.896  35.960   0.456
35514W        W 7939  12.150  35.464  12.832
35515W        W 7940  35.310  23.005   4.445
35516W        W 7941  28.690  24.205   0.831
35517W        W 7942  30.607  20.688   1.198
35518W        W 7943  43.540  34.494   1.950
35519W        W 7944   8.970   0.622  11.045
35520W        W 7945  38.779  22.309   4.147
35521W        W 7946  27.118  32.038   4.938
35522W        W 7947  43.887  21.106  12.820
35523W        W 7948  19.028  13.488   0.529
35524W        W 7949  24.521  32.338  13.921
35525W        W 7950  42.659  38.960   0.509
35526W        W 7951   3.010   7.296  13.841
35527W        W 7952  19.250  40.444   2.645
35528W        W 7953   7.664  30.992  13.797
35529W        W 7954   0.604  42.274  12.096
35530W        W 7955  36.892  36.986   2.679
35531W        W 7956  21.221  13.333  12.452
35532W        W 7957   9.927  23.544   3.263
35533W        W 7958  25.369   2.596  13.955
35534W        W 7959  10.323  44.694  12.644
35535W        W 7960  31.418  15.558  10.600
35536W        W 7961   3.414  19.092   1.485
35537W        W 7962   1.846  19.845   4.592
35538W        W 7963  37.470   9.659  14.510
35539W        W 7964  11.311  37.070  14.374
35540W        W 7965  28.628  20.044  11.733
35541W        W 7966  12.771  38.389   4.954
35542W        W 7967  39.077   7.015  11.475
35543W        W 7968  18.837  41.510  14.440
35544W        W 7969  32.467   1.667   4.200
35545W        W 7970  12.927  13.419  13.937
35546W        W 7971  17.117   7.667  14.862
35547W        W 7972  22.762  34.371  13.991
35548W        W 7973  22.021  13.380   1.241
35549W        W 7974   3.391   2.868   4.989
35550W        W 7975  40.572   8.249  14.487
35551W        W 7976  20.530  42.527  13.843
35552W        W 7977  20.738  20.553  12.547
35553W        W 7978  12.345   5.721  13.356
35554W        W 7979  12.217   7.292   0.384
35555W        W 7980  29.015   2.316  10.736
35556W        W 7981  20.460  31.580  10.718
35557W        W 7982   9.323  42.073  12.487
35558W        W 7983   3.800   1.831  13.442
35559W        W 7984  18.845  11.792  12.063
35560W        W 7985   2.656  17.542   0.760
35561W        W 7986  34.951  10.332   3.140
35562W        W 7987  37.488  39.559  13.464
35563W        W 7988  21.807  27.171  12.434
35564W        W 7989   5.730  18.708   0.403
35565W        W 7990   4.795  12.027  12.447
35566W        W 7991  29.592  40.892   1.959
35567W        W 7992  38.054  12.300  11.392
35568W        W 7993  34.367  26.605   0.123
35569W        W 7994  26.168  37.358   0.427
35570W        W 7995  37.795   5.930  13.007
35571W        W 7996  27.053  38.968  13.441
35572W        W 7997  23.715  40.987   2.677
35573W        W 7998  18.125  21.340  13.188
35574W        W 7999   9.683  13.165   4.953
35575W        W 8000  11.286  42.311  11.136
35576W        W 8001  32.019   8.498  14.797
35577W        W 8002   9.840  31.564   3.691
35578W        W 8003  24.718  13.154  10.415
35579W        W 8004  38.838  25.980  13.289
35580W        W 8005  27.103  20.939  11.224
35581W        W 8006   9.382  23.331   3.701
35582W        W 8007  33.935  11.262  12.987
35583W        W 8008   8.416  27.266   3.723
35584W        W 8009  28.736  15.628  14.412
35585W        W 8010  31.879  39.851  10.936
35586W        W 8011  44.812  22.071  10.661
35587W        W 8012  10.774   3.784  12.530
35588W        W 8013  43.407   5.179   4.589
35589W        W 8014   8.019  19.166  11.545
35590W        W 8015  10.464  15.773  13.428
35591W        W 8016   6.144  31.193  12.039
35592W        W 8017  41.413  34.925   2.420
35593W        W 8018  26.665  19.352   0.220
35594W        W 8019  10.127   2.300  11.578
35595W        W 8020   4.750  22.914   5.029
35596W        W 8021  33.066  10.067   0.777
35597W        W 8022  28.598  30.314   2.227
35598W        W 8023  44.625  43.813   3.216
35599W        W 8024  10.873  39.610  10.620
35600W        W 8025  42.575   6.937   2.185
35601W        W 8026  17.495  31.134   3.164
35602W        W 8027  14.012  34.016  11.141
35603W        W 8028  37.966  23.730  14.911
35604W        W 8029  42.239   1.364  13.566
35605W        W 8030  23.952  15.182   3.420
35606W        W 8031  15.203  37.057   2.001
35607W        W 8032  29.728  42.540   3.695
35608W        W 8033  31.078  26.970   1.923
35609W        W 8034   4.413   9.368  10.981
35610W        W 8035   4.407   5.875  14.810
35611W        W 8036   6.009  29.692   0.066
35612W        W 8037   5.814  18.726  13.018
35613W        W 8038  10.196  37.432   4.292
35614W        W 8039  27.059  44.824  14.267
35615W        W 8040  16.687  38.801   3.753
35616W        W 8041   2.795  44.324  11.551
35617W        W 8042   3.500   0.547   4.210
35618W        W 8043  30.595   2.764  11.339
35619W        W 8044   3.957  11.552  12.168
35620W        W 8045  25.547  17.226  13.398
35621W        W 8046   0.951  40.611  11.959
35622W        W 8047   6.833  28.717  13.401
35623W        W 8048  23.417   3.619  12.151
35624W        W 8049  34.384   6.677  12.558
35625W        W 8050  24.463  35.042  12.057
35626W        W 8051  43.704   3.238   0.890
35627W        W 8052   0.173   6.923  12.870
35628W        W 8053  28.676   0.976   1.843
35629W        W 8054   0.834   5.823  12.022
35630W        W 8055  30.426  23.640  13.126
35631W        W 8056   0.750  23.794   2.282
35632W        W 8057  27.055  14.805  14.391
35633W        W 8058  39.080  33.329   5.143
35634W        W 8059   1.777  22.319   4.599
35635W        W 8060  14.237  14.328   1.197
35636W        W 8061   3.254  24.463   4.631
35637W        W 8062  32.009  22.542   5.113
35638W        W 8063  13.579  33.393   0.756
35639W        W 8064   1.943  20.155  11.220
35640W        W 8065   9.184  30.189   2.168
35641W        W 8066  37.511   6.464  12.176
35642W        W 8067  31.631  41.921  11.745
35643W        W 8068  27.965  23.672  14.554
35644W        W 8069  40.116  21.195   3.158
35645W        W 8070  41.929   5.810   1.339
35646W        W 8071   2.356   3.281  10.532
35647W        W 8072  32.591  39.840  13.060
35648W        W 8073  34.998   3.476   2.215
35649W        W 8074   0.350  43.454  10.622
35650W        W 8075   8.983   9.863  13.351
35651W        W 8076   2.927  42.989   3.752
35652W        W 8077  30.724  11.167  14.531
35653W        W 8078  34.920  27.666   4.566
35654W        W 8079  10.408  26.976   0.856
35655W        W 8080  41.601  41.514   1.855
35656W        W 8081  32.280  11.454  12.173
35657W        W 8082  24.468  34.865   3.802
35658W        W 8083  18.149  42.993   4.193
35659W        W 8084  29.879  10.151   0.747
35660W        W 8085  12.585   5.117   4.143
35661W        W 8086  30.072  35.424  11.067
35662W        W 8087   0.192  29.176  13.579
35663W        W 8088  35.137   9.825   3.435
35664W        W 8089  42.672  38.048  12.058
35665W        W 8090  41.467  10.145   2.807
35666W        W 8091  34.904  41.463   1.501
35667W        W 8092  23.859  29.560   0.409
35668W        W 8093  18.200  12.134  13.689
35669W        W 8094  43.913  31.979  11.041
35670W        W 8095   2.899  26.102  13.856
35671W        W 8096   6.161  18.072  13.500
35672W        W 8097  35.408   9.491   3.066
35673W        W 8098  34.923   9.017  14.969
35674W        W 8099   8.736  21.996   4.501
35675W        W 8100  39.159  25.639   2.132
35676W        W 8101   2.032  15.765  13.506
35677W        W 8102  11.350  34.458   4.559
35678W        W 8103  19.496  28.601   0.320
35679W        W 8104  36.585  23.545   3.329
35680W        W 8105   8.884  17.041   3.687
35681W        W 8106  22.588  25.302   3.173
35682W        W 8107  31.393  10.691  11.991
35683W        W 8108  37.459   0.927  10.573
35684W        W 8109  41.329   6.842  12.053
35685W        W 8110  34.603  14.517  14.815
35686W        W 8111   9.157  12.653  12.405
35687W        W 8112  26.248  17.092  14.096
35688W        W 8113   9.107   2.301  10.694
35689W        W 8114   1.915  15.817   4.261
35690W        W 8115  27.626   6.343   1.968
35691W        W 8116   3.819  42.944   0.867
35692W        W 8117   0.665  30.975  12.949
35693W        W 8118  28.840  41.749  11.212
35694W        W 8119   6.347  21.541   4.318
35695W        W 8120  28.010  25.912   1.197
35696W        W 8121   7.900  22.816   0.349
35697W        W 8122  41.512   6.697   1.226
35698W        W 8123   2.322  42.510  11.532
35699W        W 8124  23.249  21.438  11.225
35700W        W 8125  30.202   7.696  11.716
35701W        W 8126  22.782  25.080  12.559
35702W        W 8127  40.098   8.165  11.663
35703W        W 8128   5.920  20.181  13.006
35704W        W 8129   5.852   4.848   1.225
35705W        W 8130  38.071  31.393   4.210
35706W        W 8131  19.529  31.075  10.268
35707W        W 8132  23.592  15.270  13.026
35708W        W 8133  17.606   5.517  14.235
35709W        W 8134  35.023  43.574  11.212
35710W        W 8135  19.791  24.094   0.550
35711W        W 8136   9.174  43.533  12.972
35712W        W 8137  44.373   3.955   2.643
35713W        W 8138   5.270  27.965  11.996
35714W        W 8139   9.789  28.020   2.735
35715W        W 8140   1.261  27.006   2.565
35716W        W 8141  43.757   6.205  13.563
35717W        W 8142  23.305  12.626   0.273
35718W        W 8143  28.528  28.173   1.759
35719W        W 8144  20.402   3.855   0.353
35720W        W 8145  26.712  12.659   1.840
35721W        W 8146  32.447   5.230  10.449
35722W        W 8147  29.140  38.066   3.264
35723W        W 8148   3.946  25.121   2.348
35724W        W 8149  21.276   2.706  12.798
35725W        W 8150  17.258  44.297  14.788
35726W        W 8151  22.504  12.622   3.893
35727W        W 8152   1.310   9.849   4.100
35728W        W 8153  24.004  10.363   3.360
35729W        W 8154  17.110  22.553  12.280
35730W        W 8155  28.681  33.015  12.011
35731W        W 8156  10.949  40.337  10.702
35732W        W 8157  42.270  41.989  12.646
35733W        W 8158   8.928  11.327  12.453
35734W        W 8159  10.302  30.698   0.985
35735W        W 8160  39.377  29.512  12.981
35736W        W 8161  19.207   1.788   3.705
35737W        W 8162   6.202   1.640   2.950
35738W        W 8163   0.166   9.079  10.084
35739W        W 8164  43.986   6.014   5.042
35740W        W 8165   6.434   6.274   2.351
35741W        W 8166   5.810  43.373   0.036
35742W        W 8167  44.278  22.019   0.635
35743W        W 8168  24.539  38.643   4.785
35744W        W 8169   4.511  19.353  12.798
35745W        W 8170  17.874   2.325   9.682
35746W        W 8171  33.402   5.324  10.134
35747W        W 8172  27.556  27.470  14.958
35748W        W 8173   5.190   6.314  13.867
35749W        W 8174  21.529  12.218   1.640
35750W        W 8175  12.876  23.650   5.163
35751W        W 8176  27.418  42.860   4.491
35752W        W 8177   0.993   3.761   3.788
35753W        W 8178   6.751   8.836  12.513
35754W        W 8179  34.733   2.890   3.290
35755W        W 8180  23.969  13.688   0.419
35756W        W 8181  18.607  26.625   1.235
35757W        W 8182  42.375   6.427   1.362
35758W        W 8183  40.615  41.745  12.043
35759W        W 8184  32.379  23.106  12.275
35760W        W 8185  43.854   4.634   2.188
35761W        W 8186   0.670  25.204   4.889
35762W        W 8187  15.134   0.463   0.900
35763W        W 8188  12.562  31.715   0.836
35764W        W 8189  39.909  23.774  12.346
35765W        W 8190   5.524  31.505   4.377
35766W        W 8191  24.116  14.415  13.154
35767W        W 8192  38.028  16.545   0.579
35768W        W 8193  41.431  17.821  12.443
35769W        W 8194   2.986  43.585   2.226
35770W        W 8195  31.441  39.438   2.217
35771W        W 8196  38.023  28.933  14.280
35772W        W 8197  26.014   9.166   0.739
35773W        W 8198  36.840  28.576  11.699
35774W        W 8199  26.456  38.432   0.086
35775W        W 8200  26.486   8.313   2.572
35776W        W 8201   4.184  30.573  14.982
35777W        W 8202  19.555  22.699   3.298
35778W        W 8203  40.726  14.570  11.973
35779W        W 8204  13.673  33.765   3.239
35780W        W 8205  41.489  28.950   4.572
35781W        W 8206   8.537  18.161   2.371
35782W        W 8207  25.251  19.166  11.208
35783W        W 8208  27.952  24.706   0.002
35784W        W 8209  37.128  32.200   2.615
35785W        W 8210  16.739   8.856   1.162
35786W        W 8211  29.673  38.132  14.407
35787W        W 8212  24.611  19.548   2.302
35788W        W 8213  33.281  21.009   2.940
35789W        W 8214   9.471  22.449  11.346
35790W        W 8215  26.063  26.762   1.435
35791W        W 8216  12.505   4.248   2.765
35792W        W 8217  12.428  12.707  12.602
35793W        W 8218   2.741  22.691  13.965
35794W        W 8219  17.158  35.839   0.132
35795W        W 8220   5.717  11.257   1.360
35796W        W 8221  16.591  34.966  10.622
35797W        W 8222   8.171  18.101   3.210
35798W        W 8223   6.708  31.930   3.231
35799W        W 8224  22.065  44.872   4.956
35800W        W 8225  10.614  24.456  11.484
35801W        W 8226  30.150   0.495   4.844
35802W        W 8227  24.486  41.055  12.054
35803W        W 8228  14.205  39.282  13.275
35804W        W 8229  39.338  38.608  13.420
35805W        W 8230   3.652  19.871  12.104
35806W        W 8231  24.737  40.577  12.954
35807W        W 8232  17.964  42.678   1.545
35808W        W 8233   5.805  16.850   0.507
35809W        W 8234  10.945  42.971   0.018
35810W        W 8235  30.965  20.169   1.829
35811W        W 8236  32.550  38.026   4.226
35812W        W 8237  41.495   7.629  14.432
35813W        W 8238   2.481  26.677   0.272
35814W        W 8239  31.330  30.547   2.915
35815W        W 8240   5.303  38.881   4.427
35816W        W 8241   8.090  42.436  11.469
35817W        W 8242  37.188  35.375   3.202
35818W        W 8243   6.939  18.193  12.923
35819W        W 8244  30.816  37.626  11.916
35820W        W 8245   7.278  19.227   3.677
35821W        W 8246   5.261  11.708  14.778
35822W        W 8247  33.433  42.072   3.695
35823W        W 8248  12.668  21.582   4.054
35824W        W 8249   0.333   5.665   0.752
35825W        W 8250  33.195  24.056   0.900
35826W        W 8251  44.858   4.229   3.597
35827W        W 8252  11.421  17.109  10.169
35828W        W 8253  15.656  36.842   4.253
35829W        W 8254  33.593  13.754   3.234
35830W        W 8255  29.900  13.999  11.138
35831W        W 8256  32.642  15.176   3.639
35832W        W 8257  43.069   4.298  13.028
35833W        W 8258  32.718  27.004  13.993
35834W        W 8259  22.536  44.423   3.268
35835W        W 8260  36.254  35.608   3.491
35836W        W 8261  31.515  39.052  10.655
35837W        W 8262  38.980  33.466  13.431
35838W        W 8263  25.162  34.407  12.365
35839W        W 8264  14.979  23.167   2.933
35840W        W 8265  15.384  31.590   1.445
35841W        W 8266  31.632  39.942   2.150
35842W        W 8267  29.979  28.418   3.850
35843W        W 8268  42.273  36.092   1.783
35844W        W 8269  27.980  13.603   4.629
35845W        W 8270  36.988   0.935  10.775
35846W        W 8271  26.920  12.649  12.547
35847W        W 8272  30.193   0.979  13.801
35848W        W 8273  30.140  19.378  10.953
35849W        W 8274  28.099  43.873   2.152
35850W        W 8275  35.037  32.479  12.454
35851W        W 8276  26.169  13.705  12.897
35852W        W 8277  32.561  27.897  11.942
35853W        W 8278  44.034  23.532   3.690
35854W        W 8279   1.034  42.441  10.893
35855W        W 8280  20.184   4.362  10.751
35856W        W 8281   1.979   0.205   0.928
35857W        W 8282   7.385  18.243   1.862
35858W        W 8283  31.856  35.542   5.405
35859W        W 8284  15.186  23.399  12.854
35860W        W 8285  15.982  21.198  14.607
35861W        W 8286  28.978   7.246  12.057
35862W        W 8287  44.814  17.562  10.676
35863W        W 8288  34.982  42.393  14.585
35864W        W 8289  22.358   2.397  14.050
35865W        W 8290  16.345  31.152  13.935
35866W        W 8291  10.525  32.513  14.908
35867W        W 8292   0.315   2.406  14.341
35868W        W 8293  10.118  13.764  13.396
35869W        W 8294   8.851   0.142  14.740
35870W        W 8295   1.992  42.227   1.417
35871W        W 8296  32.146   1.110   0.389
35872W        W 8297  14.314  24.094   4.249
35873W        W 8298   9.687  29.054   3.156
35874W        W 8299  15.443   4.155   1.922
35875W        W 8300  43.888  19.825  13.285
35876W        W 8301  24.694   9.628  12.447
35877W        W 8302  30.401  16.685  11.201
35878W        W 8303   8.232  22.704  13.258
35879W        W 8304   1.941  10.260  11.065
35880W        W 8305   1.945  12.669  10.478
35881W        W 8306  20.338  19.407  13.520
35882W        W 8307  31.567  28.026  13.039
35883W        W 8308  39.518  41.805   1.670
35884W        W 8309  12.069   9.217   0.680
35885W        W 8310  44.070   8.685  13.992
35886W        W 8311  36.370  16.659   1.001
35887W        W 8312  27.271  11.098  14.983
35888W        W 8313  29.037  21.954  12.151
35889W        W 8314  28.135   6.451  10.709
35890W        W 8315   3.178  14.159  13.078
35891W        W 8316  27.018  30.708   2.390
35892W        W 8317  39.362  21.296  11.012
35893W        W 8318  41.528  15.942   1.745
35894W        W 8319  44.234   6.111   1.705
35895W        W 8320  34.043  25.502   2.383
35896W        W 8321   7.212  39.324   3.145
35897W        W 8322   4.357  35.097   0.900
35898W        W 8323  23.157  28.089   1.735
35899W        W 8324  32.556  29.168   5.035
35900W        W 8325  34.483  21.957   3.747
35901W        W 8326  19.054  43.617   4.128
35902W        W 8327   5.234  15.121   4.003
35903W        W 8328  34.815  44.867  14.558
35904W        W 8329  12.105  31.433   0.866
35905W        W 8330  42.194   4.935  14.955
35906W        W 8331   7.395  18.608  14.761
35907W        W 8332  38.781  17.248  14.367
35908W        W 8333  13.115  42.816   1.343
35909W        W 8334  37.069  36.136   2.396
35910W        W 8335  40.506  14.309   2.129
35911W        W 8336   5.301  39.301  14.898
35912W        W 8337  24.212  36.859   2.346
35913W        W 8338  39.020  39.149  12.828
35914W        W 8339  14.195  27.525  14.482
35915W        W 8340  17.775  12.192   2.003
35916W        W 8341  15.684  26.444   2.160
35917W        W 8342  18.743  13.138   1.289
35918W        W 8343  24.668  31.024  11.611
35919W        W 8344  12.344  30.940   4.944
35920W        W 8345  13.144  42.370   0.403
35921W        W 8346  32.493  40.793   0.467
35922W        W 8347  22.030  10.829   3.283
35923W        W 8348  33.133   4.745   0.795
35924W        W 8349  30.654  37.783   3.285
35925W        W 8350  24.762  20.777   1.757
35926W        W 8351  14.768  39.791   0.710
35927W        W 8352  21.027  10.632  13.454
35928W        W 8353  29.130  39.902  13.524
35929W        W 8354   3.056  41.013   2.903
35930W        W 8355   7.083  38.532  10.959
35931W        W 8356  43.125  15.183  14.385
35932W        W 8357  38.901  34.405  11.927
35933W        W 8358  41.901  44.456   0.172
35934W        W 8359   3.903  35.410  13.235
35935W        W 8360  24.607  39.647  13.308
35936W        W 8361  38.688  24.023  12.013
35937W        W 8362  15.136  24.655   2.702
35938W        W 8363  38.935   4.251  10.720
35939W        W 8364  25.824  37.965  10.458
35940W        W 8365   5.490  10.626   4.200
35941W        W 8366  38.940  10.591  14.525
35942W        W 8367  21.717   0.299   3.830
35943W        W 8368  41.011  38.037  11.178
35944W        W 8369  42.295  18.326   2.718
35945W        W 8370  25.181  30.893  14.954
35946W        W 8371  19.340  21.544  11.184
35947W        W 8372  43.083   3.115   1.878
35948W        W 8373  40.877  39.104   2.186
35949W        W 8374  18.159  42.583   4.479
35950W        W 8375   3.262   2.368   4.968
35951W        W 8376  32.657   5.787   2.884
35952W        W 8377  29.991   7.840  10.786
35953W        W 8378  40.588  40.113  14.764
35954W        W 8379  41.382   8.508   4.946
35955W        W 8380  27.965  18.506   4.214
35956W        W 8381   2.919  38.563   1.718
35957W        W 8382  25.360   1.938   0.727
35958W        W 8383  19.488   0.895   3.657
35959W        W 8384   9.951  30.947   3.238
35960W        W 8385   7.018  18.313  13.927
35961W        W 8386  24.277  18.729  11.153
35962W        W 8387  18.122  24.933  11.598
35963W        W 8388  35.575  33.486   1.455
35964W        W 8389  24.906  24.110   0.911
35965W        W 8390  21.638   9.438   2.400
35966W        W 8391  32.113   2.039   4.135
35967W        W 8392  40.348  19.331  14.874
35968W        W 8393  42.347   0.020  14.053
35969W        W 8394  43.477   1.557  13.983
35970W        W 8395   6.724  28.169  10.887
35971W        W 8396   2.776   8.496  12.974
35972W        W 8397  32.012  22.688   3.058
35973W        W 8398  20.077  35.965   3.665
35974W        W 8399  19.048  18.128  13.046
35975W        W 8400  43.328  11.903  10.219
35976W        W 8401  13.203   1.310  14.046
35977W        W 8402   8.935  27.144   2.357
35978W        W 8403  32.442  33.458   4.401
35979W        W 8404  16.746  11.844  11.533
35980W        W 8405  40.148  44.871  11.572
35981W        W 8406  39.328   8.743   2.183
35982W        W 8407  37.854   1.907  14.393
35983W        W 8408  16.815  41.917   2.752
35984W        W 8409  21.491  32.886   4.342
35985W        W 8410   5.764  24.144  11.137
35986W        W 8411   9.304  44.351  14.994
35987W        W 8412  11.092   7.384   4.166
35988W        W 8413  41.041   0.908  13.969
35989W        W 8414  12.370  31.379   2.637
35990W        W 8415  44.609  41.365  11.592
35991W        W 8416  12.125  21.598   2.655
35992W        W 8417  39.898  11.256   3.243
35993W        W 8418  36.586   2.786   2.812
35994W        W 8419  19.656  28.647   4.721
35995W        W 8420  27.197  10.785   0.397
35996W        W 8421  29.018   4.781   4.952
35997W        W 8422   4.800   5.896   3.197
35998W        W 8423  41.549  28.905  13.351
35999W        W 8424  31.615  12.357   1.504
36000W        W 8425  41.919  37.061   1.732
36001W        W 8426  21.821  35.531   4.864
36002W        W 8427  19.079   5.438   0.006
36003W        W 8428  37.995  42.781  12.128
36004W        W 8429  28.621   0.746  11.107
36005W        W 8430  14.920   2.377   1.558
36006W        W 8431  14.616  33.504  10.789
36007W        W 8432   5.719  12.265  12.463
36008W        W 8433  11.350  28.585  14.742
36009W        W 8434  14.235  37.221   2.925
36010W        W 8435  37.739  44.959  12.376
36011W        W 8436  11.831  12.262  14.340
36012W        W 8437   6.794  28.167   3.299
36013W        W 8438  43.632   7.835  12.002
36014W        W 8439  19.797  10.697  12.813
36015W        W 8440  43.913  39.377   0.781
36016W        W 8441  16.508   4.364  11.372
36017W        W 8442  36.637  41.341  13.840
36018W        W 8443   5.235  15.321  13.845
36019W        W 8444  31.515   0.968   3.761
36020W        W 8445  38.643  10.822   1.631
36021W        W 8446  24.185  12.687   4.355
36022W        W 8447  21.174  20.990  11.108
36023W        W 8448  25.416  24.674  11.437
36024W        W 8449  43.512  43.265  12.104
36025W        W 8450   0.053  25.922   2.199
36026W        W 8451  39.895  23.699   4.021
36027W        W 8452  13.624  24.422   1.168
36028W        W 8453  36.446   0.892   2.886
36029W        W 8454  16.132  21.281   0.467
36030W        W 8455  31.208  34.397  10.355
36031W        W 8456  21.581  28.475   3.510
36032W        W 8457  36.940  30.490  10.601
36033W        W 8458   2.498  39.397   0.350
36034W        W 8459  15.107  15.322  14.328
36035W        W 8460  17.753  15.391  12.326
36036W        W 8461   6.221   4.080  12.955
36037W        W 8462  17.342  17.301   3.962
36038W        W 8463   2.025  25.633  12.920
36039W        W 8464  28.581  19.631  13.775
36040W        W 8465  40.788  31.617   2.843
36041W        W 8466   9.188  14.939   3.703
36042W        W 8467  27.297  35.056  14.508
36043W        W 8468  40.384  40.795  12.402
36044W        W 8469  38.343   1.154  14.964
36045W        W 8470   1.720   9.668  11.564
36046W        W 8471   0.542  25.954  10.524
36047W        W 8472  13.712  15.143  13.339
36048W        W 8473  43.350  31.501   4.121
36049W        W 8474   6.204  26.999  12.497
36050W        W 8475  37.550  34.833  12.664
36051W        W 8476  33.357  38.280  11.531
36052W        W 8477  17.212  28.140   1.330
36053W        W 8478   4.247   8.218  11.271
36054W        W 8479   3.792   3.743   3.619
36055W        W 8480  22.444  34.974   0.412
36056W        W 8481  14.670  29.942   2.879
36057W        W 8482   6.720  32.034  13.169
36058W        W 8483  20.668  15.761  13.096
36059W        W 8484   7.251  18.101  12.473
36060W        W 8485  22.243  32.623  14.372
36061W        W 8486  22.160  19.152  11.984
36062W        W 8487  14.217  27.012  14.517
36063W        W 8488  33.602  21.333  12.095
36064W        W 8489  10.765   1.390   2.675
36065W        W 8490  19.327   3.881  13.444
36066W        W 8491   3.975   3.538   1.759
36067W        W 8492  33.653  42.652  13.418
36068W        W 8493   1.941   7.898  12.953
36069W        W 8494   3.354  25.565  12.404
36070W        W 8495  26.170  17.276  11.614
36071W        W 8496  30.695  36.585   1.528
36072W        W 8497  26.189  43.868   0.288
36073W        W 8498  23.897   3.259   2.825
36074W        W 8499  12.080  41.153   5.049
36075W        W 8500  18.487  38.838  13.986
36076W        W 8501   8.189  29.844   0.856
36077W        W 8502   3.818   4.255   4.392
36078W        W 8503   1.398   1.718  12.596
36079W        W 8504  33.623   4.243   3.760
36080W        W 8505   6.283  32.862   2.855
36081W        W 8506  44.746  24.949  11.555
36082W        W 8507   9.088   6.709  12.082
36083W        W 8508  39.507  32.090  11.933
36084W        W 8509  44.696  28.986   4.526
36085W        W 8510   0.271  36.796  12.033
36086W        W 8511  15.446  18.626   1.229
36087W        W 8512   1.682   9.496  12.545
36088W        W 8513  37.978  21.016  13.791
36089W        W 8514  25.509  37.903  10.872
36090W        W 8515  22.793  40.945   3.224
36091W        W 8516  17.982  40.602  13.884
36092W        W 8517  41.723  33.985   1.899
36093W        W 8518  12.618  43.460   4.615
36094W        W 8519  22.582   4.326   2.763
36095W        W 8520  30.710  37.462   4.706
36096W        W 8521  29.107   6.630   4.328
36097W        W 8522  21.621  43.020   3.277
36098W        W 8523  19.792  44.161  11.235
36099W        W 8524  28.423  38.106  11.843
36100W        W 8525  29.831  13.720  10.713
36101W        W 8526  26.631   0.513  13.041
36102W        W 8527  28.955  30.490  13.843
36103W        W 8528  17.648  14.298  12.015
36104W        W 8529  21.572  19.555   0.925
36105W        W 8530  42.232   4.885  11.589
36106W        W 8531   1.255   2.372   4.177
36107W        W 8532  40.576  22.415   0.926
36108W        W 8533  38.560  33.073  14.081
36109W        W 8534  26.645  12.381  13.912
36110W        W 8535  22.621  42.898   0.509
36111W        W 8536  29.586  40.428   3.760
36112W        W 8537  37.582  37.861  11.615
36113W        W 8538   4.148   6.351   3.636
36114W        W 8539  39.984  12.734   2.860
36115W        W 8540  42.994  33.406  14.729
36116W        W 8541   3.131  32.118   9.702
36117W        W 8542  35.495  41.714   0.460
36118W        W 8543   0.868  25.585  11.921
36119W        W 8544   8.010  37.817   2.836
36120W        W 8545  29.634  20.265  14.050
36121W        W 8546  17.926  18.564   0.754
36122W        W 8547   8.149  26.187  12.622
36123W        W 8548  35.320  21.268   2.857
36124W        W 8549  14.924   7.367  14.481
36125W        W 8550  34.572  28.898   2.869
36126W        W 8551  16.816  29.386   4.116
36127W        W 8552  44.043  21.550  12.512
36128W        W 8553  43.754  38.544   4.130
36129W        W 8554  40.497  30.116   2.790
36130W        W 8555  38.406  37.470  11.606
36131W        W 8556  21.115  13.835  12.421
36132W        W 8557  42.461  42.488  12.568
36133W        W 8558  36.550  13.481   1.714
36134W        W 8559   9.209  32.999   4.675
36135W        W 8560  36.355   4.226  14.560
36136W        W 8561  29.695  29.976   0.749
36137W        W 8562  43.325  28.118  12.986
36138W        W 8563   7.613   2.536   3.257
36139W        W 8564  32.577   1.247  11.952
36140W        W 8565  30.975  31.429  13.920
36141W        W 8566  23.322  42.021   3.216
36142W        W 8567  26.620   0.703  11.601
36143W        W 8568   5.970  44.995  11.139
36144W        W 8569  25.612  13.681   1.697
36145W        W 8570  34.316  26.016  13.847
36146W        W 8571  35.820  12.761   3.364
36147W        W 8572   0.365  10.790   1.757
36148W        W 8573  18.587  21.947   2.310
36149W        W 8574  37.872   8.869   2.378
36150W        W 8575   0.763  26.112   2.835
36151W        W 8576  15.590  10.417   4.179
36152W        W 8577  38.843   6.423  10.407
36153W        W 8578  28.207   5.834   0.763
36154W        W 8579   2.818  43.251   2.583
36155W        W 8580  42.895   8.486  13.579
36156W        W 8581  14.002  16.222  14.825
36157W        W 8582  30.052  34.556   2.130
36158W        W 8583  39.029  17.651  10.743
36159W        W 8584   7.627  31.777   3.201
36160W        W 8585  22.970  38.591   4.654
36161W        W 8586  16.316  31.618   2.970
36162W        W 8587  37.918  36.801  12.570
36163W        W 8588   8.860  43.023  13.851
36164W        W 8589   7.746  39.867   4.615
36165W        W 8590  29.137   6.309   1.733
36166W        W 8591  15.827  37.797   4.070
36167W        W 8592  28.985  28.643   0.317
36168W        W 8593  16.343  40.321  10.733
36169W        W 8594  36.432  17.629  13.103
36170W        W 8595  41.581  44.304   2.175
36171W        W 8596   8.643  13.305   4.090
36172W        W 8597  26.541  31.558   2.047
36173W        W 8598  38.225  37.564   2.784
36174W        W 8599   7.865  33.175   1.910
36175W        W 8600  17.162   2.699  12.169
36176W        W 8601  34.415  21.556  10.668
36177W        W 8602  35.494  17.543  13.186
36178W        W 8603  25.310  11.635   1.779
36179W        W 8604  13.829  12.371  13.261
36180W        W 8605  18.923  33.576  11.003
36181W        W 8606  40.468  15.821   4.668
36182W        W 8607  34.726  33.900  11.529
36183W        W 8608   7.603   6.893  12.965
36184W        W 8609   4.191  19.577  11.993
36185W        W 8610  32.599  33.857  12.261
36186W        W 8611   9.050  39.624  11.621
36187W        W 8612  36.622  35.814  11.471
36188W        W 8613  34.905  42.455   0.942
36189W        W 8614  15.976  38.081   5.090
36190W        W 8615  35.824  37.075  12.477
36191W        W 8616  25.287  36.561   3.358
36192W        W 8617  22.055   5.260  14.744
36193W        W 8618  33.630  34.532  11.386
36194W        W 8619  38.349  35.193   2.750
36195W        W 8620  24.904  29.507  12.890
36196W        W 8621  42.008  10.090  12.012
36197W        W 8622   2.339  36.830  11.176
36198W        W 8623  30.097  29.626   4.667
36199W        W 8624  23.589  18.765   2.352
36200W        W 8625   1.331  31.160  12.133
36201W        W 8626  12.652  16.732   4.129
36202W        W 8627  31.340  31.541  11.945
36203W        W 8628  21.067   3.779   1.385
36204W        W 8629   1.367  15.552   2.782
36205W        W 8630  25.000  39.682  12.958
36206W        W 8631  23.810  26.000   4.265
36207W        W 8632  22.274  16.859  14.269
36208W        W 8633  10.706  31.405   0.182
36209W        W 8634  14.773   9.808  12.051
36210W        W 8635  36.378  30.432   0.374
36211W        W 8636   1.828  13.228  14.301
36212W        W 8637  22.770   6.423   3.243
36213W        W 8638   5.405  37.147  10.807
36214W        W 8639  37.909  20.763   4.215
36215W        W 8640   1.946  39.348  13.098
36216W        W 8641   6.228  39.469   0.841
36217W        W 8642  10.187   9.776  14.967
36218W        W 8643  17.412   8.377   1.568
36219W        W 8644   8.220  39.577  11.881
36220W        W 8645  40.902  34.787   3.667
36221W        W 8646  36.237  23.411   0.027
36222W        W 8647   6.716  26.389   3.802
36223W        W 8648   4.354  22.693  13.042
36224W        W 8649  21.119  39.232   2.238
36225W        W 8650   1.003  33.544   0.256
36226W        W 8651  14.904   2.902   0.481
36227W        W 8652  31.870  36.661   3.149
36228W        W 8653   4.297   0.939  11.229
36229W        W 8654   9.686  37.158  11.684
36230W        W 8655   9.504  15.171  14.345
36231W        W 8656  26.551  28.627  12.990
36232W        W 8657  34.526  24.775   0.672
36233W        W 8658  17.437  40.674  12.991
36234W        W 8659  21.618   6.742   1.171
36235W        W 8660  22.446  44.653   2.824
36236W        W 8661  39.356  36.962  13.870
36237W        W 8662  16.537  35.008   3.726
36238W        W 8663  23.625  44.085  13.074
36239W        W 8664  36.423  26.009   4.169
36240W        W 8665  28.937  39.702   1.459
36241W        W 8666  36.166   9.652  12.834
36242W        W 8667   9.312   5.851  12.524
36243W        W 8668  26.057  18.548  11.070
36244W        W 8669  33.572   5.464   2.589
36245W        W 8670  16.076  36.838  11.479
36246W        W 8671  21.207  23.985   1.255
36247W        W 8672  16.888  24.544   3.746
36248W        W 8673  38.917  41.421  13.518
36249W        W 8674   8.676  25.224   0.255
36250W        W 8675  26.997   0.095   3.637
36251W        W 8676  30.453  23.302   2.617
36252W        W 8677  35.679  41.036   2.849
36253W        W 8678  19.128   3.512   4.227
36254W        W 8679  19.596  10.189   0.785
36255W        W 8680   5.257  11.003  14.146
36256W        W 8681  41.406  25.846   4.067
36257W        W 8682  19.127  40.488  13.916
36258W        W 8683  23.419  21.723   4.162
36259W        W 8684   5.167  34.844   2.289
36260W        W 8685   4.780  33.560  14.269
36261W        W 8686  38.392  28.206  10.813
36262W        W 8687  37.985  20.374   3.700
36263W        W 8688   9.874   2.923  13.903
36264W        W 8689  10.826  19.728  14.778
36265W        W 8690  27.050  17.264  11.586
36266W        W 8691  26.455  25.898   0.031
36267W        W 8692   3.693   3.720  13.476
36268W        W 8693  36.074  31.909  11.722
36269W        W 8694  41.774  37.807   4.816
36270W        W 8695   4.721   6.379   2.965
36271W        W 8696   8.152  38.904  12.405
36272W        W 8697  44.163   4.436  11.053
36273W        W 8698  18.149  33.873  10.448
36274W        W 8699  44.523  16.175  10.838
36275W        W 8700  44.857  22.026   2.311
36276W        W 8701  35.064  13.228  12.134
36277W        W 8702  11.674  22.769  10.150
36278W        W 8703  20.177  40.805  13.322
36279W        W 8704   4.238  18.402  14.520
36280W        W 8705  13.763  23.739   3.100
36281W        W 8706   6.427   3.197   3.200
36282W        W 8707   4.263   0.866   4.586
36283W        W 8708  41.403  32.670  14.772
36284W        W 8709  37.365  32.603  13.021
36285W        W 8710  42.810   0.370   3.804
36286W        W 8711   0.611   9.002  13.501
36287W        W 8712  27.067  42.987  12.811
36288W        W 8713  35.927  41.572   0.727
36289W        W 8714   2.414   4.834   0.401
36290W        W 8715  35.925   5.214  13.313
36291W        W 8716   9.354  38.481   2.198
36292W        W 8717  22.800  22.218  11.646
36293W        W 8718  17.642  24.612  14.260
36294W        W 8719   2.451  28.527   4.384
36295W        W 8720   6.296  22.837  13.932
36296W        W 8721  17.490   2.769   5.496
36297W        W 8722   0.782  12.087   4.158
36298W        W 8723  17.245  44.637   2.393
36299W        W 8724  37.627  44.089   1.383
36300W        W 8725   4.800  32.085   4.025
36301W        W 8726  32.562  19.810   0.224
36302W        W 8727  12.450   3.372   3.514
36303W        W 8728   1.907  11.342  12.897
36304W        W 8729   6.356  42.617   2.003
36305W        W 8730  40.945   1.300  14.797
36306W        W 8731  17.314   0.416   1.809
36307W        W 8732  30.540  13.698   0.883
36308W        W 8733  42.774  20.084   3.633
36309W        W 8734   1.694  28.861  12.040
36310W        W 8735  38.732  33.503   2.861
36311W        W 8736  27.996  27.886   4.402
36312W        W 8737  43.844  21.181  10.297
36313W        W 8738  29.542   8.766   0.527
36314W        W 8739  41.446  32.552  13.306
36315W        W 8740  38.460  29.405   3.642
36316W        W 8741   4.445  25.258   3.260
36317W        W 8742  35.863  43.348   4.114
36318W        W 8743  43.875  19.313  13.426
36319W        W 8744  28.266  40.928  12.059
36320W        W 8745  29.942  15.591  12.804
36321W        W 8746  30.104  37.322  14.254
36322W        W 8747  34.095  44.381   4.531
36323W        W 8748  16.870  41.830  12.147
36324W        W 8749   2.498   1.306  14.286
36325W        W 8750   5.372  38.068   0.762
36326W        W 8751  32.779  20.741   1.955
36327W        W 8752  30.932  16.302  10.571
36328W        W 8753  32.645   9.694  13.581
36329W        W 8754  16.819   2.917  13.390
36330W        W 8755  24.630  21.067   4.957
36331W        W 8756  19.285  24.967   1.869
36332W        W 8757  18.587   4.408  14.466
36333W        W 8758   9.148   3.847  10.634
36334W        W 8759  40.840  32.961   3.760
36335W        W 8760   1.822  13.642   4.582
36336W        W 8761  40.267  17.163  14.294
36337W        W 8762   3.502  35.925  11.134
36338W        W 8763  27.764  36.887   0.308
36339W        W 8764  16.568  12.768  10.604
36340W        W 8765   9.810   6.175   0.368
36341W        W 8766  14.571  30.449   5.024
36342W        W 8767  35.557  10.414   1.242
36343W        W 8768  30.582  40.313  13.934
36344W        W 8769  13.994   3.386  11.584
36345W        W 8770   4.871   1.377  13.848
36346W        W 8771  28.123  40.644  14.745
36347W        W 8772  12.238   6.425   4.240
36348W        W 8773   4.045  13.997   2.395
36349W        W 8774  25.342   8.175   2.980
36350W        W 8775  27.942   8.427   1.298
36351W        W 8776  22.220  30.369  13.541
36352W        W 8777  29.088  39.960   1.044
36353W        W 8778  41.466  44.528   0.463
36354W        W 8779  37.899  29.565   2.376
36355W        W 8780  24.203  35.144   0.912
36356W        W 8781  17.309   6.942   0.363
36357W        W 8782  15.318  12.288   2.145
36358W        W 8783   9.446   9.154  13.313
36359W        W 8784  36.006  35.085   3.140
36360W        W 8785   4.236   7.751   1.787
36361W        W 8786  28.484   7.296   0.319
36362W        W 8787  18.083  32.869   3.272
36363W        W 8788   8.678  19.177  12.256
36364W        W 8789   5.542  37.481   2.605
36365W        W 8790   2.763   6.841   2.677
36366W        W 8791   5.704  12.372   0.895
36367W        W 8792  35.976  35.985  13.671
36368W        W 8793  42.081  36.365  13.401
36369W        W 8794   4.350   5.716   4.369
36370W        W 8795   1.901  26.928   1.299
36371W        W 8796  38.079  17.779  11.134
36372W        W 8797   8.312  41.338   1.368
36373W        W 8798  23.553  39.586  14.541
36374W        W 8799   8.386  30.530   2.857
36375W        W 8800  12.624  11.032  13.125
36376W        W 8801  44.353  27.523   3.707
36377W        W 8802   6.337  36.878  14.712
36378W        W 8803  44.416  30.916   1.435
36379W        W 8804  24.114  41.183  10.296
36380W        W 8805  31.659   5.879   3.102
36381W        W 8806  18.135  30.173  11.412
36382W        W 8807   7.633  24.945   3.968
36383W        W 8808   5.020  44.301  11.076
36384W        W 8809  14.153  35.035  11.652
36385W        W 8810  38.090  33.682  14.690
36386W        W 8811  14.331   0.950   0.188
36387W        W 8812  29.658  40.907   4.590
36388W        W 8813  32.848  28.602   1.437
36389W        W 8814  24.254  10.901  14.018
36390W        W 8815  36.582  31.820  10.411
36391W        W 8816  20.791  18.290   2.366
36392W        W 8817  18.029  10.783   3.115
36393W        W 8818  10.295  28.704   2.186
36394W        W 8819   9.704   8.147   4.777
36395W        W 8820  39.060  41.940   2.863
36396W        W 8821  29.920   4.039  12.902
36397W        W 8822  31.859   9.186  14.564
36398W        W 8823  21.131  44.438  13.579
36399W        W 8824  35.206  24.807  13.730
36400W        W 8825  15.625   5.252   2.790
36401W        W 8826  11.876  13.410  13.863
36402W        W 8827  18.109  22.523   3.240
36403W        W 8828  32.070  14.340   0.370
36404W        W 8829  15.834   1.785  12.146
36405W        W 8830  18.489   8.398   4.093
36406W        W 8831  36.832  29.229  10.995
36407W        W 8832   6.163  15.838   2.286
36408W        W 8833  34.010   6.799  12.152
36409W        W 8834  23.600  11.216   1.770
36410W        W 8835  25.681   8.421   3.948
36411W        W 8836  16.405  21.614   4.037
36412W        W 8837   5.495   4.027   3.075
36413W        W 8838  36.549  13.525  12.243
36414W        W 8839  25.289  30.850   2.392
36415W        W 8840  38.515  12.605  11.548
36416W        W 8841  18.511  20.620   2.135
36417W        W 8842  26.548  40.439  11.891
36418W        W 8843  43.671  18.051   0.999
36419W        W 8844  31.734  15.669  14.862
36420W        W 8845  30.378  17.648   1.794
36421W        W 8846  38.468   9.644   4.287
36422W        W 8847  22.570  17.485   3.247
36423W        W 8848  15.276  16.691  10.882
36424W        W 8849  29.972  19.975   3.628
36425W        W 8850  36.972  33.609  14.402
36426W        W 8851  34.959  15.240  11.895
36427W        W 8852  29.547  18.202  13.110
36428W        W 8853   8.346  44.776  13.496
36429W        W 8854   2.210  27.219  13.629
36430W        W 8855  43.364  36.409  14.098
36431W        W 8856  16.854  34.958  11.894
36432W        W 8857  14.978  33.086   4.762
36433W        W 8858   6.301  40.166  12.965
36434W        W 8859  30.886  33.417   2.766
36435W        W 8860  13.342  37.901   0.379
36436W        W 8861  25.543  30.085  12.418
36437W        W 8862  37.891  32.049  12.558
36438W        W 8863  32.536  34.292  12.592
36439W        W 8864  13.627  21.792   0.951
36440W        W 8865  24.451  40.965  10.650
36441W        W 8866  34.566  25.570  14.022
36442W        W 8867  23.483   0.710   1.309
36443W        W 8868  28.212   1.059   1.319
36444W        W 8869  38.666  44.794  14.784
36445W        W 8870  22.050  41.833  11.628
36446W        W 8871   7.815  30.091   3.900
36447W        W 8872  15.264  39.504   3.259
36448W        W 8873   5.955  10.284   3.643
36449W        W 8874   9.329   9.415   3.804
36450W        W 8875  41.376  25.573   1.458
36451W        W 8876  44.410  37.919  14.306
36452W        W 8877  20.561   7.736   4.821
36453W        W 8878   3.510  19.089  12.440
36454W        W 8879  13.744  21.023  13.996
36455W        W 8880  22.672  38.405  10.732
36456W        W 8881  31.923  19.219   1.912
36457W        W 8882  10.407  18.112  11.305
36458W        W 8883  12.529  15.498   2.196
36459W        W 8884   8.882  13.875  13.543
36460W        W 8885   3.985  28.653   4.281
36461W        W 8886  37.566   7.894   3.144
36462W        W 8887   0.193  25.635  12.618
36463W        W 8888   5.140  15.814   0.252
36464W        W 8889  33.582  15.658  12.030
36465W        W 8890  22.520   7.488  12.507
36466W        W 8891  29.495   7.784  10.550
36467W        W 8892  25.490  27.161  10.652
36468W        W 8893  37.830  38.421   1.228
36469W        W 8894  28.508  43.280   0.966
36470W        W 8895  39.597  26.854  14.020
36471W        W 8896  20.965  33.998   2.170
36472W        W 8897  10.323  27.768  11.210
36473W        W 8898  22.488  29.900  14.709
36474W        W 8899  33.873   1.338  14.259
36475W        W 8900  14.511  15.343   2.868
36476W        W 8901   3.408  13.375   1.765
36477W        W 8902  13.694   7.835  14.603
36478W        W 8903  15.760  11.892  13.918
36479W        W 8904  31.062  25.584   2.832
36480W        W 8905  42.036  18.279  12.781
36481W        W 8906  15.535  28.682  13.793
36482W        W 8907   8.178  17.360  12.868
36483W        W 8908  21.679  18.816  12.882
36484W        W 8909  43.107   8.451   0.457
36485W        W 8910  13.263  13.810  13.200
36486W        W 8911  10.909   0.399  12.308
36487W        W 8912  30.661  32.411   4.923
36488W        W 8913  39.500  26.941  14.874
36489W        W 8914  14.116  19.971   1.764
36490W        W 8915  14.549  37.514  14.697
36491W        W 8916  32.042  25.798   2.768
36492W        W 8917  23.976  15.534   4.719
36493W        W 8918   7.513  16.306  14.785
36494W        W 8919  36.552  15.781   1.401
36495W        W 8920  40.827  10.879   4.094
36496W        W 8921  30.289   1.368   0.655
36497W        W 8922  14.604  33.667  13.509
36498W        W 8923  21.706  25.015   0.744
36499W        W 8924  28.079  36.747  11.919
36500W        W 8925   2.687  19.995   2.867
36501W        W 8926  31.992   0.467   1.742
36502W        W 8927  23.673  13.677   4.697
36503W        W 8928  16.329  24.863   0.092
36504W        W 8929  13.194  43.963   4.246
36505W        W 8930  42.506   7.416   2.408
36506W        W 8931   3.919  44.216   2.202
36507W        W 8932  37.171  27.201  14.987
36508W        W 8933  15.580   2.632  12.119
36509W        W 8934  36.109  25.987   0.386
36510W        W 8935  16.821  30.064  10.049
36511W        W 8936  44.877  25.159   4.895
36512W        W 8937  18.862  12.298  11.241
36513W        W 8938  34.783  13.541  14.841
36514W        W 8939  31.905  41.924   1.884
36515W        W 8940  24.233   9.439  12.341
36516W        W 8941   6.783  12.630   2.315
36517W        W 8942  33.995   8.968   0.937
36518W        W 8943  35.559  18.212   4.283
36519W        W 8944   6.747  43.972  10.687
36520W        W 8945  34.997  12.396   9.981
36521W        W 8946   9.760  31.579  12.030
36522W        W 8947  24.600  17.649  13.548
36523W        W 8948  16.646  29.372   3.207
36524W        W 8949   2.692  27.695   2.889
36525W        W 8950  24.113   8.857  13.847
36526W        W 8951  12.847   3.940  14.483
36527W        W 8952   3.270   1.395  12.915
36528W        W 8953  24.791   5.841   0.001
36529W        W 8954  33.304  35.412   3.718
36530W        W 8955  31.016   9.216   4.486
36531W        W 8956  16.386  43.987   4.137
36532W        W 8957  20.537   4.855   4.097
36533W        W 8958  23.569   5.380  13.884
36534W        W 8959  19.485  44.632   4.865
36535W        W 8960  37.246  28.894  10.997
36536W        W 8961  42.754  44.364   1.439
36537W        W 8962  34.058  15.727   3.178
36538W        W 8963  14.136  29.241  12.648
36539W        W 8964  16.169  13.271  11.133
36540W        W 8965  34.489  29.450   1.308
36541W        W 8966   9.198  24.451  10.670
36542W        W 8967  44.397  16.299  13.282
36543W        W 8968  39.341   7.936   2.631
36544W        W 8969  21.145  35.556  10.939
36545W        W 8970  28.665  30.557  11.302
36546W        W 8971  28.965  20.398  14.200
36547W        W 8972  40.039  21.246  10.446
36548W        W 8973  26.047  17.250  13.636
36549W        W 8974  43.294  42.004   3.130
36550W        W 8975  42.972  35.430  11.498
36551W        W 8976  28.898   8.277   1.853
36552W        W 8977  19.289   5.849  13.407
36553W        W 8978  44.004  18.788   3.257
36554W        W 8979  25.693   0.340  10.960
36555W        W 8980  30.193  39.940   2.628
36556W        W 8981  38.060  41.845  10.745
36557W        W 8982  27.470  40.484   3.658
36558W        W 8983  40.285  37.542  12.110
36559W        W 8984  17.049  38.434   2.802
36560W        W 8985  25.779   3.379  13.820
36561W        W 8986  37.690   0.796   0.607
36562W        W 8987   6.221   5.830  11.134
36563W        W 8988   4.900  29.358  12.083
36564W        W 8989  17.403   1.180   4.949
36565W        W 8990  24.615  13.004  12.033
36566W        W 8991   9.845   4.484  12.921
36567W        W 8992   8.138  19.501  10.975
36568W        W 8993  37.335  15.996  13.328
36569W        W 8994  37.999  21.780  14.911
36570W        W 8995  36.585  13.925  12.614
36571W        W 8996   1.484  34.553   4.364
36572W        W 8997  10.676  17.717  12.438
36573W        W 8998  38.255  43.393  14.448
36574W        W 8999  44.010  36.827   3.744
36575W        W 9000  44.409  16.759   2.474
36576W        W 9001  44.509  14.265  13.742
36577W        W 9002  21.302  30.171   0.505
36578W        W 9003  23.142  32.410  12.831
36579W        W 9004  42.488   3.418   0.257
36580W        W 9005  27.348  28.657  13.523
36581W        W 9006   2.833  14.687   4.243
36582W        W 9007   7.716   4.369   4.855
36583W        W 9008  16.862  18.441   5.027
36584W        W 9009  41.114  38.090  12.070
36585W        W 9010  44.289  41.969  13.110
36586W        W 9011  36.931  17.434   1.317
36587W        W 9012  11.288  19.475  14.797
36588W        W 9013  28.630  20.540  13.833
36589W        W 9014  38.386  17.761   1.808
36590W        W 9015  38.481  43.564   1.136
36591W        W 9016  17.595  15.399  13.852
36592W        W 9017  18.072  16.772   3.769
36593W        W 9018  39.589  43.490  11.479
36594W        W 9019  16.333  39.098   0.708
36595W        W 9020  28.567   3.068   2.686
36596W        W 9021  42.560  26.428   4.444
36597W        W 9022   2.709   0.764   3.380
36598W        W 9023  21.507  21.536   4.172
36599W        W 9024  42.963  14.610  13.510
36600W        W 9025  34.083  20.981  11.196
36601W        W 9026  30.934   3.998   3.445
36602W        W 9027  33.610  26.767  14.972
36603W        W 9028  40.456  23.527   3.385
36604W        W 9029  33.511  16.573   2.248
36605W        W 9030  36.632  41.903  12.146
36606W        W 9031  20.768   2.699  14.213
36607W        W 9032   6.666  17.115  12.001
36608W        W 9033  41.991  38.072   3.464
36609W        W 9034   3.249  25.751   0.864
36610W        W 9035  10.480   9.190   4.605
36611W        W 9036  22.714  18.826   2.141
36612W        W 9037  30.709   2.472   0.602
36613W        W 9038   4.464  15.068  13.841
36614W        W 9039  14.287   9.799  12.761
36615W        W 9040  31.857  21.139  11.544
36616W        W 9041  14.415  44.708   3.396
36617W        W 9042   2.410   0.664  11.560
36618W        W 9043  39.545  33.434  14.223
36619W        W 9044  27.223   5.526   1.925
36620W        W 9045  26.553  25.932   3.230
36621W        W 9046   9.831  41.525  13.475
36622W        W 9047   7.352   4.240  12.691
36623W        W 9048  19.095  43.859  14.864
36624W        W 9049  39.039  19.683   0.707
36625W        W 9050  44.964  36.333  11.530
36626W        W 9051   4.950  20.282  11.970
36627W        W 9052  21.298  30.429  10.729
36628W        W 9053  22.052  15.700  14.760
36629W        W 9054  17.101  34.407  14.814
36630W        W 9055  12.720  28.709  11.530
36631W        W 9056  12.616  19.730   3.089
36632W        W 9057   8.060   9.099   0.822
36633W        W 9058  17.125  24.006   2.175
36634W        W 9059  36.884  22.290   3.318
36635W        W 9060  43.038  24.107   1.834
36636W        W 9061  24.235   6.753   1.349
36637W        W 9062  41.729  34.462   2.286
36638W        W 9063  43.561  19.293  14.987
36639W        W 9064  17.237  26.181  13.795
36640W        W 9065  43.959  32.974  12.941
36641W        W 9066  30.949   4.883   2.597
36642W        W 9067  41.734  43.287   4.184
36643W        W 9068  22.307  41.711  12.074
36644W        W 9069  11.544  23.973   2.983
36645W        W 9070   4.243  41.818   4.759
36646W        W 9071   7.160   4.731   2.206
36647W        W 9072  29.008  14.147   3.226
36648W        W 9073  36.359   4.729  14.367
36649W        W 9074  31.411  15.663   4.592
36650W        W 9075  28.659  41.045  10.962
36651W        W 9076   9.119  22.293   3.567
36652W        W 9077  18.265  19.596  11.565
36653W        W 9078   2.281  30.680   1.325
36654W        W 9079  33.144  19.514  10.124
36655W        W 9080  13.795  26.915  12.434
36656W        W 9081   7.157  10.777  10.475
36657W        W 9082  25.225  27.947   3.220
36658W        W 9083   7.809  25.614   0.894
36659W        W 9084  12.153  28.220  14.501
36660W        W 9085  44.265  21.652   2.856
36661W        W 9086   1.705  41.459   3.696
36662W        W 9087  10.289  30.977  10.665
36663W        W 9088  29.976  25.789   0.696
36664W        W 9089  37.391  16.353   2.276
36665W        W 9090  41.119   8.360  13.377
36666W        W 9091  31.007  32.162   4.619
36667W        W 9092  35.259  42.207   3.261
36668W        W 9093  21.140  40.702   1.646
36669W        W 9094  38.744  24.128  11.137
36670W        W 9095  35.427   5.597  10.558
36671W        W 9096  42.783  10.157  11.147
36672W        W 9097  35.303  30.525   4.613
36673W        W 9098  11.844   4.808   0.642
36674W        W 9099  41.024  24.540   3.169
36675W        W 9100   0.972  37.941   4.146
36676W        W 9101  42.572  43.894  12.823
36677W        W 9102   7.214  18.270  11.537
36678W        W 9103   6.675   7.606   3.716
36679W        W 9104  34.436  30.202   1.827
36680W        W 9105  34.315  12.216  10.783
36681W        W 9106  35.818   7.684  13.651
36682W        W 9107  30.920  17.104   4.576
36683W        W 9108  15.882  24.806  11.157
36684W        W 9109  31.034  22.702  13.394
36685W        W 9110  22.678  33.352   0.002
36686W        W 9111  33.497  34.486   2.839
36687W        W 9112  19.249  26.565  14.578
36688W        W 9113  17.278  22.196  12.804
36689W        W 9114  26.478  18.401   1.256
36690W        W 9115  22.578  32.572  13.407
36691W        W 9116  30.487  36.879  12.966
36692W        W 9117  35.460  27.712   3.813
36693W        W 9118  14.436  16.508  11.934
36694W        W 9119  43.270  13.897  10.625
36695W        W 9120  23.561  40.365  11.038
36696W        W 9121  17.012  28.232   3.213
36697W        W 9122   3.966  39.449   4.076
36698W        W 9123   2.984   4.700   3.233
36699W        W 9124  29.464  12.376   1.807
36700W        W 9125  38.366  41.324  14.907
36701W        W 9126  11.182  11.807   2.368
36702W        W 9127  42.786  24.048  10.780
36703W        W 9128  40.577  21.781  10.855
36704W        W 9129  34.653  20.670  11.844
36705W        W 9130  41.754  23.150   2.225
36706W        W 9131  34.665  41.432   4.532
36707W        W 9132  14.145  29.506  14.595
36708W        W 9133  14.772  25.847   2.531
36709W        W 9134  44.376  26.163   0.142
36710W        W 9135  27.654  39.998  13.867
36711W        W 9136  40.732  43.797   2.352
36712W        W 9137  13.171   7.304   1.965
36713W        W 9138  43.617  30.904   0.782
36714W        W 9139  44.444  34.260  11.474
36715W        W 9140  34.914  41.813  12.485
36716W        W 9141  16.094  35.726   4.750
36717W        W 9142   2.217  24.066  10.429
36718W        W 9143   4.921  44.155   0.907
36719W        W 9144  28.505   9.286  12.897
36720W        W 9145  11.199  35.514   0.767
36721W        W 9146  27.705   6.786  14.835
36722W        W 9147  43.328  30.086  10.650
36723W        W 9148  23.145  10.056  13.472
36724W        W 9149  31.771  26.534  12.798
36725W        W 9150   0.629  11.894  11.970
36726W        W 9151  31.855   5.561   4.043
36727W        W 9152  28.981  26.306   1.370
36728W        W 9153  20.519  39.435  12.083
36729W        W 9154   1.893  10.077   1.267
36730W        W 9155  35.578  39.281  12.912
36731W        W 9156  42.284   6.146  12.024
36732W        W 9157  42.504  41.183   1.704
36733W        W 9158  13.417  17.486   0.903
36734W        W 9159  37.338  30.400   3.191
36735W        W 9160  11.704  11.951   3.093
36736W        W 9161  24.977  29.425   4.929
36737W        W 9162  33.736  26.470  14.364
36738W        W 9163  10.318  24.328  11.874
36739W        W 9164   1.817   2.768  11.419
36740W        W 9165  23.309   5.011  14.742
36741W        W 9166  43.447  14.193   3.710
36742W        W 9167  31.349  36.115   1.202
36743W        W 9168   8.615  21.474  11.712
36744W        W 9169  41.719  30.288  14.837
36745W        W 9170  16.507   9.956   3.731
36746W        W 9171  25.971  38.273   0.197
36747W        W 9172  16.212  42.334  12.583
36748W        W 9173  18.845   0.478   1.307
36749W        W 9174  19.667   2.196  12.869
36750W        W 9175  18.167  22.367   4.101
36751W        W 9176  20.525  12.154  12.977
36752W        W 9177  22.708  20.843   3.116
36753W        W 9178  27.735  34.183  14.468
36754W        W 9179  43.398  43.731  13.921
36755W        W 9180  39.907  30.875  11.921
36756W        W 9181  25.031  10.315  13.867
36757W        W 9182   1.939   6.870   2.317
36758W        W 9183  25.343  24.727  12.649
36759W        W 9184  34.454  25.797   2.266
36760W        W 9185   5.292   8.222  11.146
36761W        W 9186  27.980  35.577   1.704
36762W        W 9187  23.727   1.900  14.013
36763W        W 9188  33.641  39.600  14.495
36764W        W 9189   9.836  25.663   3.104
36765W        W 9190   4.380  15.579  13.836
36766W        W 9191  10.405   4.240   4.730
36767W        W 9192  44.831  35.416  13.607
36768W        W 9193  19.633  22.180   3.400
36769W        W 9194  24.664  25.145  11.374
36770W        W 9195  39.567  36.548  13.323
36771W        W 9196   3.711   1.793   3.671
36772W        W 9197   1.533  32.611   4.790
36773W        W 9198   0.303  27.381  10.761
36774W        W 9199  40.053  21.215  11.907
36775W        W 9200   9.734  38.020  12.602
36776W        W 9201  40.791  13.690   2.814
36777W        W 9202   1.316  26.425   2.793
36778W        W 9203   5.313   3.225   0.810
36779W        W 9204  29.052  13.361  13.929
36780W        W 9205  10.898  41.972  10.705
36781W        W 9206  16.237  27.173  12.027
36782W        W 9207  34.894  10.465   0.977
36783W        W 9208  43.110  27.854  10.154
36784W        W 9209  26.513   6.821   0.822
36785W        W 9210  27.848  22.077  12.745
36786W        W 9211   0.025  17.024  12.424
36787W        W 9212  36.297   6.953   3.677
36788W        W 9213   1.719  36.461   1.249
36789W        W 9214   2.476  12.244   1.822
36790W        W 9215  38.933  10.075  11.927
36791W        W 9216  27.597  18.646  14.998
36792W        W 9217  34.943  36.166   2.139
36793W        W 9218  18.593  40.938   3.135
36794W        W 9219  12.158   0.791   4.331
36795W        W 9220   7.234  43.248  12.770
36796W        W 9221  13.776  33.749   4.579
36797W        W 9222  30.147  15.118   3.769
36798W        W 9223  34.514  23.394   0.412
36799W        W 9224  17.588  30.772  10.199
36800W        W 9225  30.863   8.805   0.467
36801W        W 9226   4.792   2.132   2.748
36802W        W 9227  16.584  36.600  14.799
36803W        W 9228  39.934  42.359  12.170
36804W        W 9229  28.075  14.199  10.597
36805W        W 9230  39.596  36.357   1.421
36806W        W 9231  14.695  26.471   3.246
36807W        W 9232  29.580  14.107  13.133
36808W        W 9233  16.242   5.165  13.472
36809W        W 9234  35.989  14.256  11.059
36810W        W 9235  23.674  26.330   1.935
36811W        W 9236  30.342   2.766   2.677
36812W        W 9237  24.666   0.806  10.705
36813W        W 9238  35.673  27.108   4.658
36814W        W 9239  30.846  10.686  12.032
36815W        W 9240  12.120   6.729  13.513
36816W        W 9241  19.735  22.682  13.051
36817W        W 9242  26.602   3.228   1.822
36818W        W 9243  31.165  13.666  14.214
36819W        W 9244  11.060  30.556  11.241
36820W        W 9245  28.496  17.665   3.851
36821W        W 9246  21.831   0.815   2.230
36822W        W 9247   7.670  41.010   1.291
36823W        W 9248  42.368  29.862  11.106
36824W        W 9249   1.362  17.609  12.117
36825W        W 9250   8.361   4.691   0.047
36826W        W 9251  18.547  41.794   0.971
36827W        W 9252   0.246  28.920   4.152
36828W        W 9253   1.414  40.232  12.620
36829W        W 9254  23.088  16.989   2.317
36830W        W 9255   0.331  40.444   2.829
36831W        W 9256  30.047  39.856  14.535
36832W        W 9257  10.207   8.548  10.250
36833W        W 9258   8.884  22.999   4.609
36834W        W 9259  36.555  15.251  12.691
36835W        W 9260  28.680  18.621  14.042
36836W        W 9261  37.376  14.198  11.677
36837W        W 9262  38.437  20.958   3.359
36838W        W 9263   0.409  21.538   3.280
36839W        W 9264  38.260  29.533  11.436
36840W        W 9265  29.368  32.329  12.480
36841W        W 9266  33.319  22.753   3.230
36842W        W 9267  14.052  39.510  11.994
36843W        W 9268   0.539  37.910   2.709
36844W        W 9269   7.965  15.287  14.439
36845W        W 9270   1.667  42.997  11.290
36846W        W 9271   2.883   3.287   0.991
36847W        W 9272  10.642  35.416  14.565
36848W        W 9273  11.198  34.416  12.406
36849W        W 9274  41.950  33.395  12.021
36850W        W 9275  23.202   3.988   1.907
36851W        W 9276   9.072  21.069   4.122
36852W        W 9277  40.133  41.015  11.019
36853W        W 9278  30.193  11.343  13.035
36854W        W 9279   4.943   9.651   1.225
36855W        W 9280   1.416   6.664   2.387
36856W        W 9281  27.110  15.311  13.944
36857W        W 9282  26.334  33.988   1.129
36858W        W 9283  12.573  44.710  13.067
36859W        W 9284   0.480  17.545   3.697
36860W        W 9285  42.840  35.511   3.245
36861W        W 9286  17.782  28.141  13.072
36862W        W 9287  11.841  28.624   1.186
36863W        W 9288  30.513  29.607   3.388
36864W        W 9289  24.976  14.141  14.741
36865W        W 9290  22.502  38.557  13.527
36866W        W 9291  16.909  39.324  13.386
36867W        W 9292  22.606  14.088   2.743
36868W        W 9293  36.900  31.322   0.455
36869W        W 9294  10.072   3.855  10.353
36870W        W 9295  39.747  21.232  14.347
36871W        W 9296   2.865  19.009   3.134
36872W        W 9297   6.092   3.159  13.824
36873W        W 9298  20.447   0.744  12.076
36874W        W 9299  41.452  32.494  11.340
36875W        W 9300  28.685  28.029   0.326
36876W        W 9301  30.576   2.175  13.089
36877W        W 9302  15.306  30.774  10.532
36878W        W 9303  11.015  15.605  13.938
36879W        W 9304  19.188  30.827   4.104
36880W        W 9305  37.987  30.889  14.529
36881W        W 9306  33.864  27.931   0.871
36882W        W 9307  38.809  28.437  14.198
36883W        W 9308  23.934  33.660  10.227
36884W        W 9309  35.407  19.975  14.867
36885W        W 9310  12.245  35.411   2.911
36886W        W 9311  35.834  23.318   3.743
36887W        W 9312  39.742  23.148   1.916
36888W        W 9313  21.081  28.815  14.835
36889W        W 9314  18.705  38.743   3.025
36890W        W 9315  25.467  35.113   0.306
36891W        W 9316  12.294  27.422  14.884
36892W        W 9317  41.155   3.523  14.263
36893W        W 9318  32.627   2.319   0.831
36894W        W 9319   3.771  25.548   3.202
36895W        W 9320  11.642  34.236   1.456
36896W        W 9321   4.027  33.468  11.630
36897W        W 9322  12.361  39.777   2.577
36898W        W 9323  15.813  28.308   3.819
36899W        W 9324  39.045  42.009   0.782
36900W        W 9325  32.115   5.414  11.166
36901W        W 9326  24.603   9.221   3.824
36902W        W 9327  42.961  36.706  13.806
36903W        W 9328  36.321  15.495  13.544
36904W        W 9329  43.076  26.546   0.134
36905W        W 9330   7.713   3.921  12.436
36906W        W 9331  17.569  37.018  13.329
36907W        W 9332  20.732  36.439  12.463
36908W        W 9333  32.081  21.196   4.356
36909W        W 9334  24.982  27.488  14.916
36910W        W 9335  31.634   7.917   4.103
36911W        W 9336  36.080  24.350   1.148
36912W        W 9337  24.182  14.662  12.096
36913W        W 9338  18.021  40.642  14.976
36914W        W 9339  23.571  30.058  13.479
36915W        W 9340  14.432  32.831   1.633
36916W        W 9341  43.881   9.812  10.404
36917W        W 9342  33.125   8.741  10.349
36918W        W 9343  33.513  37.789  11.617
36919W        W 9344   8.234  43.241   3.872
36920W        W 9345  37.778  12.581  12.158
36921W        W 9346  30.152  42.223   3.647
36922W        W 9347   6.946  10.870   4.287
36923W        W 9348   7.725  27.960  12.047
36924W        W 9349   8.893  34.157   0.262
36925W        W 9350   7.620  26.593  14.346
36926W        W 9351  40.332  42.792  14.754
36927W        W 9352  20.979  31.512  10.640
36928W        W 9353  14.322  36.396   2.305
36929W        W 9354  15.192  24.001  10.450
36930W        W 9355  36.925  21.031  12.247
36931W        W 9356  34.363  33.577   4.385
36932W        W 9357   3.467  30.354  13.891
36933W        W 9358  41.473  28.661   2.399
36934W        W 9359  31.611  40.359   1.066
36935W        W 9360  10.783  29.654  12.528
36936W        W 9361   3.114  37.601  14.331
36937W        W 9362  24.468   0.779   3.628
36938W        W 9363  29.640  27.789   1.739
36939W        W 9364  24.255  13.614   0.851
36940W        W 9365  41.941  44.836  11.000
36941W        W 9366  32.633  26.241  12.823
36942W        W 9367  42.341  29.466   1.747
36943W        W 9368  33.925  29.613   3.955
36944W        W 9369   0.021  13.738   1.460
36945W        W 9370   9.311   0.416  14.875
36946W        W 9371  14.799  13.622  14.819
36947W        W 9372  25.869  18.813   4.564
36948W        W 9373  42.831   2.377   3.125
36949W        W 9374   7.226  36.938  13.033
36950W        W 9375  18.222  25.926  12.627
36951W        W 9376  28.644   6.694  10.815
36952W        W 9377  10.445  22.878  14.531
36953W        W 9378  13.536  36.578  12.684
36954W        W 9379  32.377  44.399   3.250
36955W        W 9380   9.930  37.061  12.596
36956W        W 9381  27.628  21.235   4.217
36957W        W 9382  35.150  24.128   1.442
36958W        W 9383  26.673  24.183   0.730
36959W        W 9384  40.820   4.209  14.796
36960W        W 9385  18.228  11.818  14.107
36961W        W 9386   9.132  26.630   2.426
36962W        W 9387   6.833   0.896   0.826
36963W        W 9388  32.241  33.000   1.783
36964W        W 9389   7.709  24.308  10.822
36965W        W 9390  39.383  12.954   2.166
36966W        W 9391  14.741  29.561  12.395
36967W        W 9392   8.141  39.357  11.417
36968W        W 9393  14.549  28.303  10.281
36969W        W 9394  31.510  16.801   3.787
36970W        W 9395  20.052  13.798  12.822
36971W        W 9396  13.066   8.452  11.179
36972W        W 9397  19.141  19.547  14.809
36973W        W 9398  11.896  42.496  14.914
36974W        W 9399  38.470  36.445  11.488
36975W        W 9400  41.306  18.186   0.429
36976W        W 9401  40.307  22.221  11.110
36977W        W 9402   1.319  19.028   3.897
36978W        W 9403  23.216  34.174   3.714
36979W        W 9404  29.525  28.872  12.599
36980W        W 9405  30.566  13.133   0.017
36981W        W 9406  27.570  30.557   1.177
36982W        W 9407  18.227  24.494  12.618
36983W        W 9408   9.610   2.153   2.627
36984W        W 9409  35.624  29.975   0.621
36985W        W 9410   5.735  42.994  11.599
36986W        W 9411  18.621  38.207  12.579
36987W        W 9412  18.299  42.034  12.842
36988W        W 9413   1.058  40.937   1.695
36989W        W 9414  18.244   9.154  11.593
36990W        W 9415  31.656   7.872   3.234
36991W        W 9416  11.368   0.858   0.383
36992W        W 9417  31.726  44.295  11.556
36993W        W 9418  32.384  43.933  13.913
36994W        W 9419  11.652  25.152  10.993
36995W        W 9420   3.767  28.464   2.628
36996W        W 9421  15.897  11.402   3.352
36997W        W 9422  41.705  26.208   3.233
36998W        W 9423  21.290  28.212  11.581
36999W        W 9424   2.376   4.648  11.714
37000W        W 9425  33.170  40.216  11.633
37001W        W 9426  43.239  27.959   0.530
37002W        W 9427  39.088  34.031  12.542
37003W        W 9428  38.962   6.474   3.514
37004W        W 9429  13.776   7.349   3.227
37005W        W 9430  37.432  21.987   2.142
37006W        W 9431  10.685  27.188   4.416
37007W        W 9432  24.269  31.582   2.674
37008W        W 9433   6.327   2.802  12.634
37009W        W 9434  36.858  15.583   4.545
37010W        W 9435  41.212   8.712  13.775
37011W        W 9436  36.543   1.313  11.476
37012W        W 9437   2.943  15.552   4.386
37013W        W 9438  14.233   6.013   3.727
37014W        W 9439  30.572  37.419   1.331
37015W        W 9440  41.490  32.042  13.598
37016W        W 9441  20.980  17.927   4.489
37017W        W 9442  11.887   2.888  13.982
37018W        W 9443  15.209  37.576   2.151
37019W        W 9444   8.292  17.717  11.836
37020W        W 9445  42.740  30.954  14.028
37021W        W 9446  27.954  14.545   2.214
37022W        W 9447  41.509  21.258  11.491
37023W        W 9448  14.588  16.322   2.032
37024W        W 9449  34.041  13.332  10.695
37025W        W 9450  38.404  17.215   1.241
37026W        W 9451  13.169   4.734   4.786
37027W        W 9452   7.837  17.803   2.805
37028W        W 9453  10.561  33.584  14.931
37029W        W 9454   5.421  43.051  13.017
37030W        W 9455  37.464   3.735  13.923
37031W        W 9456  16.090  29.430   2.228
37032W        W 9457  42.078  20.228   2.418
37033W        W 9458  28.285  21.472   2.348
37034W        W 9459  40.019  26.193   1.810
37035W        W 9460  22.511  42.788   2.511
37036W        W 9461  23.082   0.825   0.488
37037W        W 9462  40.875  10.821  11.997
37038W        W 9463  36.915   3.480  11.578
37039W        W 9464  29.585  12.277  10.586
37040W        W 9465  30.907   6.400   2.789
37041W        W 9466  18.593  29.943  10.119
37042W        W 9467  28.178  28.851   4.796
37043W        W 9468  44.092  19.267  14.961
37044W        W 9469   4.433  31.969  11.615
37045W        W 9470  33.871  16.107  12.062
37046W        W 9471  12.115   2.447   3.408
37047W        W 9472  24.793  14.450   1.857
37048W        W 9473  21.291  36.974   2.955
37049W        W 9474  17.964  11.559  14.953
37050W        W 9475  18.228   7.665  13.914
37051W        W 9476  38.288  10.876   4.558
37052W        W 9477   9.824  19.933  14.509
37053W        W 9478  13.730   7.704  14.108
37054W        W 9479  18.822  29.953  11.581
37055W        W 9480  34.735  24.576   2.685
37056W        W 9481  19.999   1.039   1.728
37057W        W 9482   8.505   5.642  14.924
37058W        W 9483  31.391  13.074  14.825
37059W        W 9484  24.312  42.057   0.769
37060W        W 9485  18.458  14.860   3.200
37061W        W 9486  27.042  43.404   0.632
37062W        W 9487  40.599  19.126  12.994
37063W        W 9488   8.097  25.241   3.929
37064W        W 9489  34.014  19.330   1.978
37065W        W 9490  36.108  30.157  11.150
37066W        W 9491  41.308  33.478  13.138
37067W        W 9492  38.359  16.046   1.777
37068W        W 9493   8.301  20.162   2.771
37069W        W 9494   3.255  21.987  14.280
37070W        W 9495   3.934  21.637  13.325
37071W        W 9496   7.760   1.835   5.038
37072W        W 9497   6.684   2.827  13.005
37073W        W 9498  36.048  19.501   4.002
37074W        W 9499  19.105   6.541   3.324
37075W        W 9500   8.173  23.126   3.189
37076W        W 9501   5.813  23.757   2.707
37077W        W 9502  27.032  18.009  14.421
37078W        W 9503  21.629  30.042  10.571
37079W        W 9504   8.788  44.748   3.855
37080W        W 9505   0.318  39.567   3.148
37081W        W 9506  43.374   2.385   2.596
37082W        W 9507  30.554  19.158  12.102
37083W        W 9508  16.231  29.707  14.846
37084W        W 9509   4.286  24.516  13.754
37085W        W 9510  36.899  44.154   0.770
37086W        W 9511  39.063  37.561   4.114
37087W        W 9512  43.449   2.828  11.718
37088W        W 9513   9.011  20.407   0.184
37089W        W 9514  26.070   3.837  11.656
37090W        W 9515  29.911  20.250  11.230
37091W        W 9516  15.748  22.640   0.282
37092W        W 9517  28.160  36.095   0.361
37093W        W 9518  18.343  10.720  13.493
37094W        W 9519   4.664   3.693   5.142
37095W        W 9520  42.954  10.849  14.532
37096W        W 9521   0.199  14.649   3.763
37097W        W 9522  23.733  30.488  11.111
37098W        W 9523  40.510   9.270   2.103
37099W        W 9524  18.034  40.629  12.169
37100W        W 9525   8.686  22.234  10.749
37101W        W 9526  40.653  24.203  13.927
37102W        W 9527  23.711  18.687  14.442
37103W        W 9528  14.877  43.767   4.819
37104W        W 9529   2.623  40.773   2.832
37105W        W 9530  28.909  12.153  13.336
37106W        W 9531  26.861   7.910   2.515
37107W        W 9532   1.570  33.908  14.997
37108W        W 9533  14.437   8.704   2.594
37109W        W 9534  30.147   5.195  12.117
37110W        W 9535  43.002  35.399  14.287
37111W        W 9536   6.183  29.567   4.988
37112W        W 9537  25.905  31.234   5.543
37113W        W 9538  11.330  38.850   0.887
37114W        W 9539  38.713  43.639   4.532
37115W        W 9540  38.940  22.686  13.000
37116W        W 9541  11.848  31.351   2.751
37117W        W 9542   6.234  42.228  10.656
37118W        W 9543   3.902  22.944  11.235
37119W        W 9544   5.734  26.871   2.496
37120W        W 9545  20.686  23.478   0.850
37121W        W 9546  19.932  18.589  12.497
37122W        W 9547   7.456  27.983  12.482
37123W        W 9548  15.992   9.769  12.599
37124W        W 9549  34.972   4.289   3.535
37125W        W 9550  15.692  35.265   5.345
37126W        W 9551  31.053  19.484  11.511
37127W        W 9552  41.070  18.057   1.767
37128W        W 9553  16.210  38.618   4.071
37129W        W 9554   6.792  36.855  13.354
37130W        W 9555  29.025  27.589  11.017
37131W        W 9556  15.190  14.925   0.330
37132W        W 9557   6.481  18.384  12.110
37133W        W 9558  28.460  35.489   2.222
37134W        W 9559   1.120  30.954   3.605
37135W        W 9560   6.681   2.040   1.451
37136W        W 9561  42.812   1.382   0.772
37137W        W 9562  26.656  24.965   3.174
37138W        W 9563  14.157  15.703   2.743
37139W        W 9564  33.606  42.835  11.862
37140W        W 9565  33.399  40.439   1.299
37141W        W 9566  38.891  36.390   4.707
37142W        W 9567   9.641   9.332  11.961
37143W        W 9568  28.747  27.893  14.573
37144W        W 9569  42.001   8.627   0.724
37145W        W 9570  37.842  31.633  13.787
37146W        W 9571  37.605   8.627   1.249
37147W        W 9572   8.608   4.139   1.217
37148W        W 9573  26.483  26.706  10.780
37149W        W 9574  37.411   9.785   4.191
37150W        W 9575  38.907  23.650   1.698
37151W        W 9576  18.144  26.950   2.919
37152W        W 9577  33.532   5.844  10.336
37153W        W 9578   9.946  29.657   2.864
37154W        W 9579  33.132  18.656   4.981
37155W        W 9580  10.124  39.226  10.724
37156W        W 9581  32.099  35.588   4.672
37157W        W 9582  44.423  35.697   3.369
37158W        W 9583   0.781  23.715  13.849
37159W        W 9584  44.464  32.082   2.202
37160W        W 9585   7.728   6.264   0.701
37161W        W 9586  41.683  14.218   3.068
37162W        W 9587   1.854  27.397  14.429
37163W        W 9588  34.345  30.065  11.478
37164W        W 9589  29.931  10.816   3.304
37165W        W 9590  19.761   8.193  14.822
37166W        W 9591  35.651  41.193   1.844
37167W        W 9592  35.529  31.573   4.610
37168W        W 9593  16.849  34.100  11.058
37169W        W 9594   6.832  37.015  10.209
37170W        W 9595  36.645   3.880  14.826
37171W        W 9596   1.035  17.390  13.330
37172W        W 9597   4.980  21.806   0.776
37173W        W 9598  13.320  35.828   5.014
37174W        W 9599  37.128   6.637   1.808
37175W        W 9600   0.173  31.163  13.340
37176W        W 9601  32.906  23.093  13.580
37177W        W 9602  24.540  35.803  13.865
37178W        W 9603   4.418  20.342   1.749
37179W        W 9604   0.342  30.962   2.446
37180W        W 9605  32.507  12.847  12.990
37181W        W 9606   9.915  44.047   1.365
37182W        W 9607  21.881  43.925  12.501
37183W        W 9608  44.518  31.117  11.680
37184W        W 9609  15.684   4.789   0.102
37185W        W 9610  17.687  23.321   0.731
37186W        W 9611  36.588  11.693  13.576
37187W        W 9612  34.384   5.449   1.994
37188W        W 9613  23.187   3.157  14.981
37189W        W 9614  33.388  14.631  13.976
37190W        W 9615  40.519  35.605  12.364
37191W        W 9616  37.154   9.683   2.057
37192W        W 9617  41.452  34.337  12.963
37193W        W 9618  15.821  16.214   3.664
37194W        W 9619  11.717  27.056  10.658
37195W        W 9620  12.763  38.136  13.437
37196W        W 9621   6.211  10.823   3.665
37197W        W 9622  32.031   3.313   3.784
37198W        W 9623  16.107  26.753   4.507
37199W        W 9624  42.954   6.160   3.201
37200W        W 9625  26.736  36.392   3.945
37201W        W 9626  32.112  42.266  11.050
37202W        W 9627   1.448  10.885  13.112
37203W        W 9628  11.381   0.489  12.557
37204W        W 9629   3.252  13.250  14.840
37205W        W 9630  11.359  42.550   3.713
37206W        W 9631  16.644  38.891  13.570
37207W        W 9632  39.300  12.060  11.623
37208W        W 9633   4.728  35.986  12.879
37209W        W 9634  22.041  33.853   4.350
37210W        W 9635  38.405  18.594  10.642
37211W        W 9636  32.551   8.431   4.163
37212W        W 9637   1.374  21.455  14.957
37213W        W 9638  10.801   2.870  11.160
37214W        W 9639   4.384  44.467  13.950
37215W        W 9640  43.942  19.009  13.852
37216W        W 9641  10.057  20.460  11.638
37217W        W 9642  35.329  12.052   0.481
37218W        W 9643  20.754  42.917   1.323
37219W        W 9644  27.165  26.165  14.553
37220W        W 9645   3.721  32.425  14.193
37221W        W 9646  36.352  20.410  14.081
37222W        W 9647   5.018  16.647   2.661
37223W        W 9648   3.292   8.252  10.758
37224W        W 9649  29.309  14.536   0.344
37225W        W 9650   9.393  26.800   4.575
37226W        W 9651  35.273  29.127  12.458
37227W        W 9652  22.079  27.489  12.882
37228W        W 9653   4.952  29.883   3.183
37229W        W 9654  24.567  36.498   0.228
37230W        W 9655  23.571  38.048  14.662
37231W        W 9656  10.645  39.947   4.576
37232W        W 9657  33.682   8.804   3.701
37233W        W 9658  15.876  32.483   2.794
37234W        W 9659  21.006  11.762   3.218
37235W        W 9660  12.244  22.237   3.837
37236W        W 9661  33.934  26.264  13.539
37237W        W 9662  42.459  38.136   3.662
37238W        W 9663  25.166  17.941  12.772
37239W        W 9664  15.658  42.359  10.084
37240W        W 9665  10.602  39.296   9.980
37241W        W 9666  22.397  28.737  14.096
37242W        W 9667  16.832   1.999  13.071
37243W        W 9668  44.443  33.400  12.965
37244W        W 9669  24.313   4.773   2.979
37245W        W 9670  44.019   3.895   0.419
37246W        W 9671  27.554  28.165   1.958
37247W        W 9672  29.262   7.523   0.513
37248W        W 9673  28.556  39.811   4.596
37249W        W 9674  40.456   3.933   3.823
37250W        W 9675   4.200  37.309   3.830
37251W        W 9676  10.197  30.112  10.889
37252W        W 9677  11.164  10.253  11.569
37253W        W 9678  33.459   6.412   2.887
37254W        W 9679  11.462  20.045   2.290
37255W        W 9680  38.911  26.680   1.659
37256W        W 9681  29.536  35.569   4.202
37257W        W 9682  19.770  21.278  13.861
37258W        W 9683  12.102  41.237  12.761
37259W        W 9684  22.809   9.463   0.047
37260W        W 9685  42.427  39.919   0.797
37261W        W 9686  25.675  36.730   3.639
37262W        W 9687  28.127  13.535  13.128
37263W        W 9688   2.019  21.683  13.474
37264W        W 9689  39.332   8.674   4.114
37265W        W 9690  28.658  35.393  12.518
37266W        W 9691  10.314  35.931   2.921
37267W        W 9692   6.707  29.031   2.613
37268W        W 9693  38.144   6.595  14.443
37269W        W 9694  19.693  21.117   0.908
37270W        W 9695   2.591  11.552  10.248
37271W        W 9696  43.236  18.292  11.902
37272W        W 9697  30.913   7.890   2.815
37273W        W 9698  44.329  34.962   0.699
37274W        W 9699  43.937  36.378   3.995
37275W        W 9700   5.226  11.446  13.850
37276W        W 9701  20.129  32.848  11.516
37277W        W 9702  22.179  38.146  12.948
37278W        W 9703  19.892  39.823  13.599
37279W        W 9704  43.048   7.201  12.453
37280W        W 9705   5.922  35.981  14.202
37281W        W 9706  25.022   5.274   0.843
37282W        W 9707  25.215  19.617  13.807
37283W        W 9708  31.664  32.093   1.699
37284W        W 9709  40.397  28.144   1.855
37285W        W 9710  20.086  15.969   5.306
37286W        W 9711  10.400   9.611   3.751
37287W        W 9712   7.767  18.251   4.906
37288W        W 9713  30.087   1.956   0.336
37289W        W 9714   0.195  17.729  12.674
37290W        W 9715  20.960  43.347   4.587
37291W        W 9716  22.093  31.481   1.769
37292W        W 9717   7.901   6.801   9.872
37293W        W 9718  37.928  10.132   3.093
37294W        W 9719  11.086  18.007  12.603
37295W        W 9720   9.833  13.899   2.765
37296W        W 9721   1.110   5.400  11.122
37297W        W 9722  18.588   5.878  11.407
37298W        W 9723  32.521  33.094   3.071
37299W        W 9724  33.833  31.704   0.387
37300W        W 9725  35.447  27.934   3.335
37301W        W 9726   7.201  12.205  11.561
37302W        W 9727  33.995  34.462   2.593
37303W        W 9728  19.316   9.145  12.504
37304W        W 9729  38.008  42.081  11.199
37305W        W 9730   1.724  30.140  14.469
37306W        W 9731  41.262  23.875  11.952
37307W        W 9732   8.942  23.144   1.837
37308W        W 9733   8.371  42.853  13.827
37309W        W 9734  13.236  20.732   2.773
37310W        W 9735  31.406  13.817  12.404
37311W        W 9736  10.490   2.707  11.559
37312W        W 9737  29.196  31.196  12.595
37313W        W 9738  16.797  16.560  14.375
37314W        W 9739  22.698  14.125   0.184
37315W        W 9740  10.287   3.273  11.487
37316W        W 9741   3.184  10.804   1.004
37317W        W 9742   2.897  24.266   2.383
37318W        W 9743  13.077  36.627  13.956
37319W        W 9744  40.874  23.220   3.360
37320W        W 9745  38.043  36.926  13.588
37321W        W 9746  13.549  23.325  10.445
37322W        W 9747   5.226  25.033  13.036
37323W        W 9748  21.133  34.798  14.475
37324W        W 9749   6.256  23.946  12.501
37325W        W 9750  28.737  12.672  11.539
37326W        W 9751  26.443  40.218  14.354
37327W        W 9752  18.277   8.327  12.588
37328W        W 9753  19.142  41.553  10.725
37329W        W 9754  37.092   5.226  14.769
37330W        W 9755  37.833  32.900  13.167
37331W        W 9756  13.415  12.667  10.333
37332W        W 9757  21.957   7.414   3.362
37333W        W 9758  31.106  42.334  12.512
37334W        W 9759   4.375  18.774   1.955
37335W        W 9760  21.690  33.531  10.295
37336W        W 9761  19.671  28.923   3.847
37337W        W 9762  40.777  40.079   3.339
37338W        W 9763  43.185   2.883   4.828
37339W        W 9764   8.303   4.427   4.642
37340W        W 9765  38.007   4.718  13.994
37341W        W 9766  40.955  13.572   0.700
37342W        W 9767  38.514  29.111  11.589
37343W        W 9768   5.656  44.944  12.294
37344W        W 9769  43.349  34.203  13.062
37345W        W 9770  43.778  38.112  12.379
37346W        W 9771  18.540  24.657   3.682
37347W        W 9772  28.493  38.877   1.774
37348W        W 9773   8.748  44.300  12.597
37349W        W 9774  38.342   6.974  13.759
37350W        W 9775  39.466  31.533  11.694
37351W        W 9776   8.662  25.727  10.630
37352W        W 9777  15.374  39.271   3.807
37353W        W 9778  22.081   2.795  13.696
37354W        W 9779   6.422  19.795   1.688
37355W        W 9780  32.648  15.654   2.010
37356W        W 9781   3.900  30.766  11.922
37357W        W 9782  35.575  40.831   4.157
37358W        W 9783  39.869  16.826   2.839
37359W        W 9784  28.359   9.216  14.971
37360W        W 9785  15.484  27.053  14.576
37361W        W 9786  18.781   9.915  13.300
37362W        W 9787  35.063   8.959   4.151
37363W        W 9788  25.790  13.683  14.930
37364W        W 9789  13.528  34.903  12.139
37365W        W 9790   6.319  26.969  11.994
37366W        W 9791  30.633  24.141  14.996
37367W        W 9792   5.949   0.677  11.968
37368W        W 9793  37.879  17.616   4.682
37369W        W 9794  39.889   0.487   0.457
37370W        W 9795  29.401  16.008   0.476
37371W        W 9796  10.414  40.252   2.295
37372W        W 9797   1.714  28.504   4.787
37373W        W 9798  29.104  28.812   4.770
37374W        W 9799   4.891   8.351   1.465
37375W        W 9800   0.483  16.709   1.721
37376W        W 9801  22.582  27.366  11.550
37377W        W 9802   9.880   3.496  11.190
37378W        W 9803  25.887  43.016   0.198
37379W        W 9804  33.884  25.956  14.427
37380W        W 9805   8.760   5.107   1.249
37381W        W 9806  39.503   7.853  11.865
37382W        W 9807  29.299   0.643   1.166
37383W        W 9808  20.749  35.946   2.323
37384W        W 9809  15.296  26.138   0.451
37385W        W 9810   7.156   4.752  14.489
37386W        W 9811  18.739  21.921   3.635
37387W        W 9812  38.498  13.258   0.658
37388W        W 9813  43.832  28.394  10.955
37389W        W 9814   3.251  26.705   0.866
37390W        W 9815  17.876  32.224  13.569
37391W        W 9816  12.134  20.384  10.773
37392W        W 9817  23.639  38.549   0.454
37393W        W 9818   3.696  10.784   3.553
37394W        W 9819  39.198   4.263   3.708
37395W        W 9820   9.292  27.015   4.111
37396W        W 9821  17.519  41.939   3.980
37397W        W 9822  43.433   8.015   4.210
37398W        W 9823  43.187  32.006  13.599
37399W        W 9824  25.677  12.733   4.524
37400W        W 9825   8.898  19.174  13.222
37401W        W 9826   8.202  31.114  13.604
37402W        W 9827  15.094  44.507  12.455
37403W        W 9828  39.424  36.923  14.384
37404W        W 9829  13.313  34.821  11.086
37405W        W 9830  43.533  44.814  11.029
37406W        W 9831  30.561  35.159  13.459
37407W        W 9832   2.684  14.128  11.487
37408W        W 9833  15.159  33.196   4.283
37409W        W 9834  13.294  40.547   0.805
37410W        W 9835   6.344  31.467   2.490
37411W        W 9836  16.703   1.581  11.098
37412W        W 9837   1.495  28.627   2.754
37413W        W 9838  30.671  12.240  12.886
37414W        W 9839  34.588  17.742   4.916
37415W        W 9840  15.730  21.202   0.063
37416W        W 9841  32.373  28.772  12.087
37417W        W 9842   3.164   5.750  10.643
37418W        W 9843  25.083   1.990   2.503
37419W        W 9844   0.735  21.132  13.125
37420W        W 9845  23.703  10.530   5.528
37421W        W 9846  23.268  21.885  14.543
37422W        W 9847   6.249  23.071   2.616
37423W        W 9848  12.246  35.554  13.786
37424W        W 9849  15.740  33.222   3.157
37425W        W 9850  14.686  24.096   1.922
37426W        W 9851   1.032  16.699   1.711
37427W        W 9852  12.321   1.249   1.203
37428W        W 9853  31.911  23.311  12.207
37429W        W 9854  12.413  28.545   4.930
37430W        W 9855  13.785  22.754   3.206
37431W        W 9856   0.381  14.291  14.365
37432W        W 9857  41.797  36.499  11.957
37433W        W 9858  26.079   7.102  13.522
37434W        W 9859   1.424  37.324  14.797
37435W        W 9860  28.200  12.046   3.318
37436W        W 9861  16.732  26.950  14.676
37437W        W 9862  40.045  37.534  12.627
37438W        W 9863   4.905  15.026   0.795
37439W        W 9864  10.890  40.194  14.339
37440W        W 9865  34.889  28.938  14.827
37441W        W 9866  39.008  38.456   4.340
37442W        W 9867  27.140  35.097  12.100
37443W        W 9868  20.680   7.637  12.972
37444W        W 9869  30.052   3.312  12.370
37445W        W 9870  19.190  15.996   3.762
37446W        W 9871   5.125  15.371  10.638
37447W        W 9872   3.316  20.267   1.872
37448W        W 9873  27.842  32.422   1.571
37449W        W 9874  30.510  31.591  12.488
37450W        W 9875  19.172  17.455   2.564
37451W        W 9876  31.434  20.509  14.518
37452W        W 9877   3.964  20.607   1.676
37453W        W 9878  21.583  22.615   3.867
37454W        W 9879  18.632  25.035   0.294
37455W        W 9880  17.624  23.016   4.737
37456W        W 9881  40.785  35.351   4.294
37457W        W 9882  39.507  20.743   4.599
37458W        W 9883  18.588  24.143  12.149
37459W        W 9884  19.288  24.282   1.364
37460W        W 9885  35.931   9.231  11.979
37461W        W 9886  33.970  24.899   3.978
37462W        W 9887  14.280  18.156  10.336
37463W        W 9888  35.979  11.264   1.733
37464W        W 9889  11.691  19.826   1.178
37465W        W 9890  44.515  30.431  11.894
37466W        W 9891  25.318  43.771  10.585
37467W        W 9892   0.998  40.240  10.758
37468W        W 9893  32.195   8.167   0.233
37469W        W 9894  28.358  21.481   1.453
37470W        W 9895  21.915  17.175  11.016
37471W        W 9896  10.857  11.911   1.036
37472W        W 9897  14.240  31.080   4.161
37473W        W 9898   4.717   5.375   5.064
37474W        W 9899   5.811  33.036  13.917
37475W        W 9900  17.317  40.143   4.046
37476W        W 9901  16.492  29.907  12.782
37477W        W 9902   9.097  33.637  12.033
37478W        W 9903  11.387  40.760   2.179
37479W        W 9904   6.225  31.058   3.883
37480W        W 9905  41.580   5.470   2.299
37481W        W 9906  15.050  42.325  12.907
37482W        W 9907  42.839   6.507   3.563
37483W        W 9908   8.041  15.768  14.895
37484W        W 9909  20.313  29.469   1.704
37485W        W 9910   9.194  28.068   0.536
37486W        W 9911   0.257  18.605  14.415
37487W        W 9912  17.273   3.227  11.455
37488W        W 9913   9.702  42.965  13.327
37489W        W 9914   1.969  37.969  14.525
37490W        W 9915  26.580  19.320   0.737
37491W        W 9916  16.203  27.653   4.170
37492W        W 9917   8.544  18.753  11.267
37493W        W 9918   4.323  17.076   3.196
37494W        W 9919  40.656  16.650  11.176
37495W        W 9920  32.295  14.926  12.003
37496W        W 9921  44.066   8.956  12.402
37497W        W 9922   6.936  14.066  12.964
37498W        W 9923  22.473   1.005  13.302
37499W        W 9924  40.336  13.283  11.137
37500W        W 9925  32.916  42.431   4.197
37501W        W 9926  34.969  20.254   4.152
37502W        W 9927   8.894  30.391  10.669
37503W        W 9928  14.620   1.015  11.978
37504W        W 9929  32.022  33.007   2.277
37505W        W 9930  10.739   5.457   4.955
37506W        W 9931   6.611  20.679   4.315
37507W        W 9932   8.389  29.858  11.094
37508W        W 9933   8.272  16.593  12.479
37509W        W 9934  34.362   6.710   4.154
37510W        W 9935   7.011  35.038  13.381
37511W        W 9936  40.209  12.241   3.410
37512W        W 9937  32.103  34.111  13.938
37513W        W 9938   8.007   8.923  13.036
37514W        W 9939   7.291   0.469   3.567
37515W        W 9940  13.079  29.164  12.298
37516W        W 9941  40.798  24.955  10.678
37517W        W 9942   6.426  10.453   4.983
37518W        W 9943  12.495   6.328   2.796
37519W        W 9944  20.248  37.013  12.076
37520W        W 9945  23.593  43.048   3.655
37521W        W 9946  35.851  20.667  14.579
37522W        W 9947  44.339  23.978  13.296
37523W        W 9948  39.299   0.584   1.279
37524W        W 9949  25.986  39.982   3.124
37525W        W 9950  41.459  42.947   4.469
37526W        W 9951  30.610  44.431  12.337
37527W        W 9952  41.326  11.859  13.567
37528W        W 9953  41.451  10.724   1.484
37529W        W 9954  13.297  23.924   1.829
37530W        W 9955   4.838  16.318  14.476
37531W        W 9956  37.551  36.380  14.501
37532W        W 9957  20.555  17.104   2.923
37533W        W 9958  25.509  30.573  10.493
37534W        W 9959  40.392  16.699  14.964
37535W        W 9960  31.194  30.525   1.521
37536W        W 9961  41.788  44.658  12.599
37537W        W 9962   6.975  10.333   4.107
37538W        W 9963  18.275  11.208  13.269
37539W        W 9964  22.013  29.159   3.248
37540W        W 9965  35.511  30.532  11.860
37541W        W 9966  40.784  21.611   3.444
37542W        W 9967  43.014   0.715  14.974
37543W        W 9968  33.893   7.481  13.357
37544W        W 9969   6.141   7.859   0.769
37545W        W 9970  11.510  37.315  13.423
37546W        W 9971  22.305  31.716   2.195
37547W        W 9972   7.158  38.607   3.714
37548W        W 9973  30.856  42.462   4.193
37549W        W 9974  38.510   7.021   1.493
37550W        W 9975  30.114  25.908   1.845
37551W        W 9976  28.083   4.240   0.350
37552W        W 9977  41.573  24.187   1.641
37553W        W 9978  39.345   9.861  10.918
37554W        W 9979  21.932  26.916  12.002
37555W        W 9980  25.186  17.335   1.809
37556W        W 9981   0.733  35.493  13.615
37557W        W 9982  33.910   3.164  13.467
37558W        W 9983  23.120  30.442   1.314
37559W        W 9984   8.812  30.330   3.085
37560W        W 9985   3.380  13.301   3.333
37561W        W 9986  42.368  13.178  12.250
37562W        W 9987   6.510  23.499  14.488
37563W        W 9988  30.361  24.335   0.415
37564W        W 9989  42.409  17.222   0.340
37565W        W 9990   2.283  30.588  11.220
37566W        W 9991  26.540  29.731  13.840
37567W        W 9992   5.299   8.410   0.607
37568W        W 9993  42.340  19.584  14.434
37569W        W 9994   7.887  10.281   1.291
37570W        W 9995  38.980  25.239   0.295
37571W        W 9996  22.734   3.613   0.371
37572W        W 9997  20.055  25.660  10.626
37573W        W 9998   5.756  28.790  12.033
37574W        W 9999  33.604  15.263   3.794
37575W        W10000  32.369  19.571  10.627
37576W        W10001   6.366   2.268  13.832
37577W        W10002  35.263  28.197  11.579
37578W        W10003  33.077  29.394  11.899
37579W        W10004  43.254  26.020  10.719
37580W        W10005  25.206  12.171   3.728
37581W        W10006  33.001  31.033  11.622
37582W        W10007  30.505  16.885   2.176
37583W        W10008  44.806  44.331   1.100
37584W        W10009   8.174  24.595   1.296
37585W        W10010   8.699   8.270   1.801
37586W        W10011  23.635  17.355   3.249
37587W        W10012  19.597   4.935   3.305
37588W        W10013  44.366   4.802  13.623
37589W        W10014  23.082  24.120  14.585
37590W        W10015  11.354  15.196   0.038
37591W        W10016  13.281  21.326   0.894
37592W        W10017  31.409  38.317  12.127
37593W        W10018  44.396  44.074   4.538
37594W        W10019  24.080  34.168   2.717
37595W        W10020  32.981  39.952  13.382
37596W        W10021  16.806  34.374  11.495
37597W        W10022   1.817  25.259  12.604
37598W        W10023  19.955  17.122   1.092
37599W        W10024  22.999  22.703   5.170
37600W        W10025  34.246  25.918   4.987
37601W        W10026  14.182  42.375   4.967
37602W        W10027  42.265  28.987  13.997
37603W        W10028  28.987  14.065  10.985
37604W        W10029  43.462  38.036   0.015
37605W        W10030   4.951  15.275  14.890
37606W        W10031  12.244  22.829  14.289
37607W        W10032   6.890  19.573   1.736
37608W        W10033   2.911   1.194  14.876
37609W        W10034  28.427  12.097  10.313
37610W        W10035  27.040  31.579   1.797
37611W        W10036  13.852  19.213  14.350
37612W        W10037   1.726  12.912   1.129
37613W        W10038  41.749  34.535  10.688
37614W        W10039  24.249  14.240  14.054
37615W        W10040   5.773  21.665  13.745
37616W        W10041  43.985  17.676  11.159
37617W        W10042  37.631  18.570   4.601
37618W        W10043  31.979  31.755  10.070
37619W        W10044   5.652  35.378   3.401
37620W        W10045  42.837   0.767  13.601
37621W        W10046  35.315  35.194  11.629
37622W        W10047  11.317  41.013   4.585
37623W        W10048  27.218  30.136  14.483
37624W        W10049  29.638  23.010  10.984
37625W        W10050  28.705   9.245   0.336
37626W        W10051  31.575  11.512   1.594
37627W        W10052  14.334  34.242   4.106
37628W        W10053   1.005  35.114  13.381
37629W        W10054  39.371  22.460  12.364
37630W        W10055  34.479  37.403  11.170
37631W        W10056  28.992  26.952  13.051
37632W        W10057   6.777  18.787  11.978
37633W        W10058  31.226  35.574  14.382
37634W        W10059  16.727  41.102  14.921
37635W        W10060  22.266   2.682  14.471
37636W        W10061  33.866  19.519   3.347
37637W        W10062  18.545  36.890  10.732
37638W        W10063  15.371   0.741  12.932
37639W        W10064  26.424  22.796  14.091
37640W        W10065  10.057  16.759   0.436
37641W        W10066  29.377  16.360  12.097
37642W        W10067  19.039  11.780   1.290
37643W        W10068  13.746  40.897   1.930
37644W        W10069  13.767   1.359  12.492
37645W        W10070  11.092   8.655  12.026
37646W        W10071   2.227  22.580   4.531
37647W        W10072  15.919  24.108   1.491
37648W        W10073  19.823   4.448  12.168
37649W        W10074   9.595   9.757  13.989
37650W        W10075  36.838  40.063   1.931
37651W        W10076  24.706  29.180   1.588
37652W        W10077   8.358  38.462   9.748
37653W        W10078   6.679  32.843   1.749
37654W        W10079  11.883   6.394   0.185
37655W        W10080  16.950  12.838  11.603
37656W        W10081  26.080  11.764  14.392
37657W        W10082  11.700   5.016  11.671
37658W        W10083   0.708  36.282   0.397
37659W        W10084   1.536   1.972  12.174
37660W        W10085   4.444  28.712   3.961
37661W        W10086  22.339  10.775   3.728
37662W        W10087  41.796   4.943  13.561
37663W        W10088  13.945  39.887   2.403
37664W        W10089  35.875  10.544  12.879
37665W        W10090  22.420   2.663   4.094
37666W        W10091  40.977  12.138   0.683
37667W        W10092  32.995  13.295   3.737
37668W        W10093  16.219  27.315   4.583
37669W        W10094  40.449  18.813   4.549
37670W        W10095  10.233  18.728   3.560
37671W        W10096   8.989   4.466  12.450
37672W        W10097  16.169  29.132  10.538
37673W        W10098  13.718   5.974  10.694
37674W        W10099  29.446  20.161   0.049
37675W        W10100  29.793  10.941  12.008
37676W        W10101   4.026  19.456  12.926
37677W        W10102  37.621  18.448  13.907
37678W        W10103   3.024  18.633  14.956
37679W        W10104  39.761  15.307   1.774
37680W        W10105  24.042  26.424  13.091
37681W        W10106   7.188  36.428   4.750
37682W        W10107  42.022   6.207  11.101
37683W        W10108  23.926   7.500  10.170
37684W        W10109  21.234  13.573   3.831
37685W        W10110  29.864  12.200  11.602
37686W        W10111  29.510  10.298  10.757
37687W        W10112  16.202  15.539  14.023
37688W        W10113  44.449  39.264  12.362
37689W        W10114  30.052   3.514   2.176
37690W        W10115  35.020   6.414   3.208
37691W        W10116  42.801   4.100  11.118
37692W        W10117  15.406  17.568  14.960
37693W        W10118  19.558  25.050  12.928
37694W        W10119  33.573  23.187   4.414
37695W        W10120   0.920   4.234  14.944
37696W        W10121  21.142  21.126  10.599
37697W        W10122  13.756  19.186  12.229
37698W        W10123  27.008  21.245   3.714
37699W        W10124   6.251  30.565   0.936
37700W        W10125   9.779  33.235  11.387
37701W        W10126  33.601  20.483   4.871
37702W        W10127  10.629   1.344   0.209
37703W        W10128  20.122  19.654  12.657
37704W        W10129   8.224  27.252  13.518
37705W        W10130  29.024  32.669   1.479
37706W        W10131  13.123  41.290   3.167
37707W        W10132   7.276   2.540  14.781
37708W        W10133  28.388  37.141  12.006
37709W        W10134   8.115   5.337   0.734
37710W        W10135  18.124   0.276   3.698
37711W        W10136  40.522  32.965   0.489
37712W        W10137  12.837  38.337   2.495
37713W        W10138  33.178  25.270   2.303
37714W        W10139  25.468  31.204   2.754
37715W        W10140  27.133  16.378   3.941
37716W        W10141  37.647  43.977  12.835
37717W        W10142  32.900  40.221  12.941
37718W        W10143   6.129  28.637   2.205
37719W        W10144  27.024   0.856   1.704
37720W        W10145   9.661   9.339  12.884
37721W        W10146  26.729   4.189   3.627
37722W        W10147  36.012  33.159   0.227
37723W        W10148   2.367  17.739   2.174
37724W        W10149  23.206  30.508  11.145
37725W        W10150  33.373   5.216  13.951
37726W        W10151  37.341  44.435  10.912
37727W        W10152  14.565  30.624  10.699
37728W        W10153  21.272   1.049   2.802
37729W        W10154  37.308   8.221  14.907
37730W        W10155  13.661  24.210   5.112
37731W        W10156  28.097  18.203  12.001
37732W        W10157   4.834  38.527  12.341
37733W        W10158   0.070  17.041   2.611
37734W        W10159   8.668  43.755   0.793
37735W        W10160  23.651  24.757   1.779
37736W        W10161  21.199  44.337  13.073
37737W        W10162  27.468  39.015   3.204
37738W        W10163  31.353  30.150  12.089
37739W        W10164   8.755   4.362   3.343
37740W        W10165   9.264  44.025   3.658
37741W        W10166   3.322  19.637  11.242
37742W        W10167   0.488   5.213   1.912
37743W        W10168   3.453   2.726  10.887
37744W        W10169   2.817   9.905   5.298
37745W        W10170  12.317  35.286   4.216
37746W        W10171  13.665  31.778   2.039
37747W        W10172  42.877  20.502   3.169
37748W        W10173  22.774  34.121  14.447
37749W        W10174  19.150  25.913   2.365
37750W        W10175  31.537  19.084   5.570
37751W        W10176  43.388   2.055  14.036
37752W        W10177  35.500   3.509  13.585
37753W        W10178  17.660  36.959  13.845
37754W        W10179  43.069  42.236  13.274
37755W        W10180  20.144   2.177  11.153
37756W        W10181  27.178  23.601   4.106
37757W        W10182  35.667  44.714  13.816
37758W        W10183  38.612  31.183  11.211
37759W        W10184  18.099   5.858  12.114
37760W        W10185  42.439  20.205  10.997
37761W        W10186   7.369  31.915  12.267
37762W        W10187   7.378   9.984   2.412
37763W        W10188  40.734   6.361  11.965
37764W        W10189  36.958  41.725  11.788
37765W        W10190  18.871   9.788  13.795
37766W        W10191  13.215   7.838  14.287
37767W        W10192  44.858   9.189  11.136
37768W        W10193  39.684  43.397   4.772
37769W        W10194  23.674  25.563   4.544
37770W        W10195  22.349   0.725   2.184
37771W        W10196  39.690  27.738   3.330
37772W        W10197  17.449   0.323   4.208
37773W        W10198   3.944  11.719   3.624
37774W        W10199  20.996  41.539  11.124
37775W        W10200  43.510  31.883   4.865
37776W        W10201   1.405  31.094  14.365
37777W        W10202  11.324  23.925   2.222
37778W        W10203  24.076  42.366  14.303
37779W        W10204  35.405  36.608   2.933
37780W        W10205   5.648  25.132  12.398
37781W        W10206   0.957   7.743   5.078
37782W        W10207  26.202  34.902  11.599
37783W        W10208  40.810  36.306  12.052
37784W        W10209  30.536  35.398  11.470
37785W        W10210  42.308   4.193  11.954
37786W        W10211  41.751   9.138  11.905
37787W        W10212  40.472  37.330   2.165
37788W        W10213   9.895   8.535  10.693
37789W        W10214   0.672  26.115   3.346
37790W        W10215  29.553  24.113   4.649
37791W        W10216  24.616  10.794   9.911
37792W        W10217  21.200  18.846  13.366
37793W        W10218   4.260   1.858   3.654
37794W        W10219  36.477  30.069   3.901
37795W        W10220   5.117  35.434   0.267
37796W        W10221  22.500   3.844  11.902
37797W        W10222  37.853  16.176   2.546
37798W        W10223   6.157   6.383  10.323
37799W        W10224   4.838  34.037  14.471
37800W        W10225   8.984  18.504  13.983
37801W        W10226  17.559  12.561   2.308
37802W        W10227  13.346  38.984   0.790
37803W        W10228  30.364  34.476   4.307
37804W        W10229  33.882  33.071   0.996
37805W        W10230  34.620   6.305   1.468
37806W        W10231  28.590  31.163  10.622
37807W        W10232  11.064  33.713   0.022
37808W        W10233  27.144  20.320   3.059
37809W        W10234  13.640  34.462  12.822
37810W        W10235   6.341  12.340   3.672
37811W        W10236  12.798  20.979  13.970
37812W        W10237   7.377   0.426   0.275
37813W        W10238  25.698  19.870   5.005
37814W        W10239  10.571  14.583  11.639
37815W        W10240  20.747  34.066  10.584
37816W        W10241  40.323  30.467   3.627
37817W        W10242   8.273  28.555   1.869
37818W        W10243  30.111  19.884   4.721
37819W        W10244   6.550  16.089  14.688
37820W        W10245  17.760  12.644   4.300
37821W        W10246  24.092  37.442  10.248
37822W        W10247  38.396  25.692   4.624
37823W        W10248  44.428  32.024   3.698
37824W        W10249  26.451   1.390   0.011
37825W        W10250   8.138  11.721  12.567
37826W        W10251   4.269  37.719   4.169
37827W        W10252   9.384  10.892   0.025
37828W        W10253   6.863  39.915   1.743
37829W        W10254   3.829  13.297  11.564
37830W        W10255  31.392  23.672   2.706
37831W        W10256  38.776   3.498  10.214
37832W        W10257   4.625  25.756  11.225
37833W        W10258  26.346   3.966  12.058
37834W        W10259   3.094  28.151   2.265
37835W        W10260  13.210  16.753  12.058
37836W        W10261  30.074  29.068  10.706
37837W        W10262  41.471  41.105  12.818
37838W        W10263  23.736  18.018   4.717
37839W        W10264  22.840  31.156  11.993
37840W        W10265  14.543   4.691   1.360
37841W        W10266  41.133  29.546   2.504
37842W        W10267   2.238  31.075  14.478
37843W        W10268   7.925  18.027   0.092
37844W        W10269  25.152   1.948   5.025
37845W        W10270  41.351  42.934  13.858
37846W        W10271   4.922  33.595  11.669
37847W        W10272  31.444  27.471  11.336
37848W        W10273   6.576   3.883   0.821
37849W        W10274  41.426  27.592   0.344
37850W        W10275  16.114  16.699  10.907
37851W        W10276   1.047  18.140  11.487
37852W        W10277  33.195   3.645   2.693
37853W        W10278  36.922  37.245   0.289
37854W        W10279  28.410  24.612   4.819
37855W        W10280  15.736  34.534   0.867
37856W        W10281  31.910  24.149   1.385
37857W        W10282  13.873   0.982  12.855
37858W        W10283  16.563  24.114   2.670
37859W        W10284  21.178  26.228   0.803
37860W        W10285  32.185  31.401  10.410
37861W        W10286  40.370  23.714   4.753
37862W        W10287  42.781  31.175   1.257
37863W        W10288  29.400  24.633  14.495
37864W        W10289   9.235  15.249  11.231
37865W        W10290   0.954  25.630   1.163
37866W        W10291  18.031  31.106  14.424
37867W        W10292   8.265  19.708  11.464
37868W        W10293  29.443  14.813   3.648
37869W        W10294   8.677  33.166  11.147
37870W        W10295  16.443   6.229  12.875
37871W        W10296  42.053   4.091  10.646
37872W        W10297   7.564   6.805   4.531
37873W        W10298  42.407   3.872  13.955
37874W        W10299  43.984  31.684   4.673
37875W        W10300  17.519  31.681   3.272
37876W        W10301   9.760  23.701   2.265
37877W        W10302  41.795   1.900  11.690
37878W        W10303   2.012  36.150   0.332
37879W        W10304  17.126  20.686  10.885
37880W        W10305  29.525  26.197   3.200
37881W        W10306  44.246  15.320  10.646
37882W        W10307  28.615   6.305   1.741
37883W        W10308  44.680  22.594   4.222
37884W        W10309  21.808  13.025   1.730
37885W        W10310  40.630  21.153  10.248
37886W        W10311  12.991  31.418  10.487
37887W        W10312  13.238  28.360  11.130
37888W        W10313  44.454  25.544   0.793
37889W        W10314  33.353   9.104  14.203
37890W        W10315  17.264  31.117  11.899
37891W        W10316  31.518   2.715   2.081
37892W        W10317   3.548  10.363  13.429
37893W        W10318  10.633  22.601   9.992
37894W        W10319  43.854  19.928   2.487
37895W        W10320  19.143  20.347  13.432
37896W        W10321  27.692  15.362  12.025
37897W        W10322  25.057  11.205   2.536
37898W        W10323  30.022  22.015  14.431
37899W        W10324  31.926   6.435  14.353
37900W        W10325  31.114  43.628  13.879
37901W        W10326  40.204  13.361   1.824
37902W        W10327   0.041  12.174   3.246
37903W        W10328  41.280  13.550   3.206
37904W        W10329  23.052  34.585  14.688
37905W        W10330  41.404  18.321   1.466
37906W        W10331  19.015  20.442  11.240
37907W        W10332  37.069  23.925   3.662
37908W        W10333  26.463  24.375   2.813
37909W        W10334  25.951  28.060   3.828
37910W        W10335   3.707  44.476  10.640
37911W        W10336   0.644  21.055   3.155
37912W        W10337  17.197  16.328   3.199
37913W        W10338  36.621  21.630   1.872
37914W        W10339  19.723  26.550   4.052
37915W        W10340  42.246  15.688   1.296
37916W        W10341  23.542  32.391  13.805
37917W        W10342  14.694  37.875   4.684
37918W        W10343  22.527  44.934   4.273
37919W        W10344   6.416  19.918  11.991
37920W        W10345  19.540   3.227   2.910
37921W        W10346  14.880  13.383  13.913
37922W        W10347  11.095  15.146   2.898
37923W        W10348  17.913  32.581  14.883
37924W        W10349  21.044  25.636  14.360
37925W        W10350  44.005   1.405   2.155
37926W        W10351  30.490  15.846  10.428
37927W        W10352  15.510  22.196   0.017
37928W        W10353  42.857   9.725   2.260
37929W        W10354  44.858  31.592  10.428
37930W        W10355  31.665  43.879  10.655
37931W        W10356  37.797  24.268   4.215
37932W        W10357  28.601  37.358   0.890
37933W        W10358  40.878  42.109  12.538
37934W        W10359  23.422   7.800  12.791
37935W        W10360  41.534  34.065  10.630
37936W        W10361   6.732  17.566   3.308
37937W        W10362  39.776   9.796   3.145
37938W        W10363  40.346  39.077  10.677
37939W        W10364   3.408  17.341   3.695
37940W        W10365  10.778  19.311  11.397
37941W        W10366  34.493  11.596   4.355
37942W        W10367   6.656   1.492   1.495
37943W        W10368  23.592  14.612  14.718
37944W        W10369  18.071   4.281   3.717
37945W        W10370  24.185  42.916  14.191
37946W        W10371  32.862   4.242   4.958
37947W        W10372  41.016  27.018   3.800
37948W        W10373  39.673  26.387  11.613
37949W        W10374  29.485  40.440   3.257
37950W        W10375  43.250   1.815  11.564
37951W        W10376  40.145  17.676  14.309
37952W        W10377  34.973  20.325  12.747
37953W        W10378  33.989  20.385  11.276
37954W        W10379  24.022  18.133  10.501
37955W        W10380  28.882  30.853   2.844
37956W        W10381  27.203   6.803  14.910
37957W        W10382  43.953  41.952  10.725
37958W        W10383  38.990  23.612   0.338
37959W        W10384  26.945  26.708   1.197
37960W        W10385  28.242  30.407  13.400
37961W        W10386   6.108  17.744   4.447
37962W        W10387  37.487  26.963  11.973
37963W        W10388  30.664  17.223  12.012
37964W        W10389  31.200  27.585   3.869
37965W        W10390  34.508  14.823   1.713
37966W        W10391  16.600  29.031  13.543
37967W        W10392  26.719   8.827  12.500
37968W        W10393  38.040  33.037   1.877
37969W        W10394   5.447  43.996  12.233
37970W        W10395  33.613  19.623  13.342
37971W        W10396   0.508  10.702  13.928
37972W        W10397  43.475  37.668  11.536
37973W        W10398  25.658  38.391  10.707
37974W        W10399  41.731  38.026  10.658
37975W        W10400  12.136  39.808   3.682
37976W        W10401  31.420  37.227   3.689
37977W        W10402  29.992  25.416   1.722
37978W        W10403  27.601  36.494  14.499
37979W        W10404  14.635  16.723  13.952
37980W        W10405   9.813  12.823  11.532
37981W        W10406  34.345  11.226   3.628
37982W        W10407  40.343   1.004   0.481
37983W        W10408  22.547  25.510  10.789
37984W        W10409  38.403   0.489  12.249
37985W        W10410  36.861  40.886   3.610
37986W        W10411  43.019  17.242   0.854
37987W        W10412  32.472   0.861  13.511
37988W        W10413  31.153  34.656  11.216
37989W        W10414  27.666  17.875  10.477
37990W        W10415  33.920  21.052  14.322
37991W        W10416  21.650  27.936   2.181
37992W        W10417  14.651   9.416   3.715
37993W        W10418  37.101  12.428  11.646
37994W        W10419  31.934  16.116   1.773
37995W        W10420  15.320  29.691  10.761
37996W        W10421  15.639  15.451   1.592
37997W        W10422  17.031   1.914   4.565
37998W        W10423  21.668   2.916  13.383
37999W        W10424  32.972  15.850  13.376
38000W        W10425  44.379   2.963  13.498
38001W        W10426   6.643  29.523  12.452
38002W        W10427  20.297   3.819  11.622
38003W        W10428   3.833  23.183  13.202
38004W        W10429  30.453  20.851   2.832
38005W        W10430  36.538  20.254  10.641
38006W        W10431  17.751  42.368   1.199
38007W        W10432  12.827  34.533   3.127
38008W        W10433   6.479  20.028   4.200
38009W        W10434  12.771  14.155   3.665
38010W        W10435  37.319  31.366  12.540
38011W        W10436  10.947  40.551   1.746
38012W        W10437  37.018  25.488   0.381
38013W        W10438  12.202  27.215  11.592
38014W        W10439  15.196  38.725   4.984
38015W        W10440  28.484  40.240  13.072
38016W        W10441  20.216  31.712   1.481
38017W        W10442  10.532  38.029  11.413
38018W        W10443  25.406   7.710   4.040
38019W        W10444   6.145  29.290   1.342
38020W        W10445  42.115  11.871  11.534
38021W        W10446  23.986  27.744   4.767
38022W        W10447  38.980  26.178  11.082
38023W        W10448  29.167   6.934  13.030
38024W        W10449  42.039  32.145  12.546
38025W        W10450  16.722  15.153   0.162
38026W        W10451  13.400  22.039   2.631
38027W        W10452  24.381  29.552  11.063
38028W        W10453  21.711  33.891   0.343
38029W        W10454  14.900   7.274  11.474
38030W        W10455  11.255   0.264  14.591
38031W        W10456   7.310  17.729   0.810
38032W        W10457  16.293  42.871  14.580
38033W        W10458   7.701  27.356  10.687
38034W        W10459   7.444  24.051   4.124
38035W        W10460  33.345  15.194   3.353
38036W        W10461  30.506  26.288  13.663
38037W        W10462  31.443  40.477  14.833
38038W        W10463  35.717  36.101   3.706
38039W        W10464  13.621  13.821  11.888
38040W        W10465  43.955   5.693   0.897
38041W        W10466  24.679  41.917   4.552
38042W        W10467  42.857  42.772  11.647
38043W        W10468  24.706  24.325   4.206
38044W        W10469  18.713   9.317   1.013
38045W        W10470  26.941  34.593  14.960
38046W        W10471   7.755  34.355   0.498
38047W        W10472  14.395  30.909  13.304
38048W        W10473   2.404  28.393  12.288
38049W        W10474  36.301  33.813  13.752
38050W        W10475   0.391  29.066  10.725
38051W        W10476  11.668  43.747   0.989
38052W        W10477  33.385  12.292   3.735
38053W        W10478  20.702  20.642   4.534
38054W        W10479  12.655  28.200   3.274
38055W        W10480   4.846  35.858  10.674
38056W        W10481  37.395  31.411   4.624
38057W        W10482  39.585   6.596   3.879
38058W        W10483  29.216   2.386  13.102
38059W        W10484   4.795  30.536  10.374
38060W        W10485  40.814  22.249  11.125
38061W        W10486  37.811  19.237   4.171
38062W        W10487  41.726  40.723  12.628
38063W        W10488  31.664  18.027   1.892
38064W        W10489  43.228  32.150   3.285
38065W        W10490  18.751  38.063  13.485
38066W        W10491   6.313  39.387   2.205
38067W        W10492   5.181  18.717   4.071
38068W        W10493  35.595  19.482  10.672
38069W        W10494   1.878  30.914  13.640
38070W        W10495   8.380  23.433  11.448
38071W        W10496  44.123  20.514   3.293
38072W        W10497   3.894  28.562   0.976
38073W        W10498  21.728  33.067  11.161
38074W        W10499   3.217  35.360   4.875
38075W        W10500  31.755  41.354  10.327
38076W        W10501  33.632  31.618   1.705
38077W        W10502  38.543   1.356  13.458
38078W        W10503  42.329   9.219  12.892
38079W        W10504  10.876   1.851   3.969
38080W        W10505  22.256  22.067   0.345
38081W        W10506  41.741  17.615   0.369
38082W        W10507   6.665  38.031  12.797
38083W        W10508  22.460  13.989  12.044
38084W        W10509   1.094  35.910  12.573
38085W        W10510  12.306  36.771  12.060
38086W        W10511   9.965  38.942  12.547
38087W        W10512  35.435  25.901  12.514
38088W        W10513  28.204  35.987   1.942
38089W        W10514  20.298  11.701   4.095
38090W        W10515  30.219  36.454   3.671
38091W        W10516   3.806  21.989  14.086
38092W        W10517  16.341   9.555   0.470
38093W        W10518   0.263  15.077   4.546
38094W        W10519   6.758  26.687  13.777
38095W        W10520  24.053   1.280  11.140
38096W        W10521   9.623   6.296  13.910
38097W        W10522  44.544  35.291   2.456
38098W        W10523  12.461  12.287   0.031
38099W        W10524  13.172  20.403   4.822
38100W        W10525  44.090  25.723   4.014
38101W        W10526   7.657  36.174  12.475
38102W        W10527  28.024  22.701   1.032
38103W        W10528   0.992   3.577   0.329
38104W        W10529  13.252   0.359  12.032
38105W        W10530  38.143  28.650   2.821
38106W        W10531  21.656  27.090  14.844
38107W        W10532  35.579   6.278   3.772
38108W        W10533  13.753  36.934  11.383
38109W        W10534   0.259   6.366   0.410
38110W        W10535   9.885  43.307   1.051
38111W        W10536  20.855  19.607  13.535
38112W        W10537  23.731  20.252  13.143
38113W        W10538  41.977  14.643  12.527
38114W        W10539  25.670   5.391   2.013
38115W        W10540  21.249  11.293   3.293
38116W        W10541  34.436   0.904  12.709
38117W        W10542  16.296  33.944  14.705
38118W        W10543  33.733  22.195   3.033
38119W        W10544  19.565  41.345  12.910
38120W        W10545   9.788  12.137   3.775
38121W        W10546  40.231   4.822   2.416
38122W        W10547   4.664  27.643   2.282
38123W        W10548   8.928   4.330   1.871
38124W        W10549   0.955  35.203   3.049
38125W        W10550  31.876   7.273  10.075
38126W        W10551  17.819   0.414  12.677
38127W        W10552  17.694  30.961  13.494
38128W        W10553  34.280   5.169   3.885
38129W        W10554   6.368  37.609   3.262
38130W        W10555  37.989  41.474   4.466
38131W        W10556  27.191  37.817   2.300
38132W        W10557  29.512  15.359  12.065
38133W        W10558   1.863  34.438   1.223
38134W        W10559   8.735   2.333   1.943
38135W        W10560  41.518   4.948   4.164
38136W        W10561   9.115  14.494  14.078
38137W        W10562  24.220  10.634  14.919
38138W        W10563  12.847   6.851   4.009
38139W        W10564   7.970  34.684   1.413
38140W        W10565  31.510  40.885  14.011
38141W        W10566   7.219  18.869   3.280
38142W        W10567  28.789  35.172  14.631
38143W        W10568  19.815  31.975  12.534
38144W        W10569  13.925  37.125   4.250
38145W        W10570  10.694  27.000  11.530
38146W        W10571   1.723  34.063   0.862
38147W        W10572  31.461  28.206   2.771
38148W        W10573  42.748  27.124   3.412
38149W        W10574  32.389  34.406  13.598
38150W        W10575  27.228   2.948   4.956
38151W        W10576  31.016  32.667   3.862
38152W        W10577  35.090  34.445  13.294
38153W        W10578  16.309  14.643  12.554
38154W        W10579  28.859   5.915  11.161
38155W        W10580  36.937  33.421   3.328
38156W        W10581   1.925  27.028  14.809
38157W        W10582   6.650  24.074   0.950
38158W        W10583  34.337   8.812   2.937
38159W        W10584  26.977  36.989   3.486
38160W        W10585   2.751  33.679  12.097
38161W        W10586  19.963  15.730   0.795
38162W        W10587   6.263  32.892  10.443
38163W        W10588  22.561   6.531   1.933
38164W        W10589  34.450  18.658   3.891
38165W        W10590  26.104  13.353   2.820
38166W        W10591  29.483  25.191   3.562
38167W        W10592  21.116   2.812   3.520
38168W        W10593  15.809  36.439   2.462
38169W        W10594  42.209  29.013  11.695
38170W        W10595  37.928   1.023   2.783
38171W        W10596  20.523   5.915  11.887
38172W        W10597  12.336  16.549  13.620
38173W        W10598  29.388   5.195  10.808
38174W        W10599  27.482  20.146   0.965
38175W        W10600  44.330   1.839   0.226
38176W        W10601  12.247   9.902  12.099
38177W        W10602  13.566  31.122  13.837
38178W        W10603  22.468  14.696  13.948
38179W        W10604  22.428  26.480   1.421
38180W        W10605  35.480  33.180  11.657
38181W        W10606  23.620  30.107   4.097
38182W        W10607  39.187  21.919  14.744
38183W        W10608  38.064  39.378   4.567
38184W        W10609  28.631  40.985   4.696
38185W        W10610  16.273  35.912   3.491
38186W        W10611  16.031  12.628  13.477
38187W        W10612  22.611   0.440   4.220
38188W        W10613  19.119  17.159   3.116
38189W        W10614  12.030  35.566   1.304
38190W        W10615  12.892  10.717   2.763
38191W        W10616   9.760   6.770  10.220
38192W        W10617  43.380  12.242  13.913
38193W        W10618  29.069  37.242   4.268
38194W        W10619   1.807  36.940   1.473
38195W        W10620  30.463  23.002   1.730
38196W        W10621  19.534  21.166   1.427
38197W        W10622  34.613  31.230  12.494
38198W        W10623  27.997  12.040   0.252
38199W        W10624  42.486  20.808   3.302
38200W        W10625   2.802  37.814   3.742
38201W        W10626  19.775  29.190  11.524
38202W        W10627  15.032  37.638  14.890
38203W        W10628   8.897  23.466   2.253
38204W        W10629  21.300  14.638  10.453
38205W        W10630  23.449   0.577  13.440
38206W        W10631  39.324  18.060   3.214
38207W        W10632  40.866   4.057   1.865
38208W        W10633  10.346  33.757  13.392
38209W        W10634  33.141   2.918  13.812
38210W        W10635  28.014  36.571  11.445
38211W        W10636  38.051  10.704   2.355
38212W        W10637  16.038   0.484   4.168
38213W        W10638  18.219  27.617  12.421
38214W        W10639  37.279  13.728   2.709
38215W        W10640  31.618  25.527   2.880
38216W        W10641  13.659  39.816   3.331
38217W        W10642   6.634  35.813  10.506
38218W        W10643  26.464   3.269  13.319
38219W        W10644  28.956  20.000  10.919
38220W        W10645  13.889  26.065   2.833
38221W        W10646  38.012  41.475  11.224
38222W        W10647  10.428  40.734   5.016
38223W        W10648  42.479  16.769   4.244
38224W        W10649  13.160   3.763  12.137
38225W        W10650  39.043   7.740  14.051
38226W        W10651  35.115   9.828  14.483
38227W        W10652  40.761  11.666   3.779
38228W        W10653  41.038   9.770   1.378
38229W        W10654  27.580  37.408   2.465
38230W        W10655  44.330  35.391   4.906
38231W        W10656  14.482  37.621   1.960
38232W        W10657  44.314  20.337   0.268
38233W        W10658  25.727  31.456   1.386
38234W        W10659  37.903  32.300   0.972
38235W        W10660   3.834  16.899   3.853
38236W        W10661  38.340  14.375  13.411
38237W        W10662  23.303  27.437   1.462
38238W        W10663  26.401  41.378  13.102
38239W        W10664   5.719   0.464  11.092
38240W        W10665  33.072   5.498  11.476
38241W        W10666   8.643  27.575  12.606
38242W        W10667  10.481  33.371   2.808
38243W        W10668  16.588   9.266  14.328
38244W        W10669  32.097  43.453   0.469
38245W        W10670  22.313  10.837   2.007
38246W        W10671  24.189  12.966   1.902
38247W        W10672   3.449  38.348   0.847
38248W        W10673  17.356  20.287  10.446
38249W        W10674  16.691   6.650   2.386
38250W        W10675  20.338  35.520   2.788
38251W        W10676  18.370   3.942   0.402
38252W        W10677  16.252  41.613   0.039
38253W        W10678  30.912  27.140   4.690
38254W        W10679  10.243   2.010  10.085
38255W        W10680  29.590  23.932  12.863
38256W        W10681  17.888   2.877   5.180
38257W        W10682  14.099  14.070  11.235
38258W        W10683  24.509  25.735   0.727
38259W        W10684  39.537  20.123  13.876
38260W        W10685   1.530  25.917  12.871
38261W        W10686   5.296  15.772  14.137
38262W        W10687  40.276  43.039  12.871
38263W        W10688  10.771  42.819  13.055
38264W        W10689  41.316  38.383   2.313
38265W        W10690  16.190  38.634  14.926
38266W        W10691   9.425  31.356  13.876
38267W        W10692  42.535  20.839   0.718
38268W        W10693   3.829  28.897  14.737
38269W        W10694  21.599   6.244   1.386
38270W        W10695  23.470  43.532  13.953
38271W        W10696   6.016   3.688  14.970
38272W        W10697   1.527  10.871   0.288
38273W        W10698  19.180  39.816   2.490
38274W        W10699  16.948  19.386   4.014
38275W        W10700  26.233   4.263   3.697
38276W        W10701   1.536  40.051   4.093
38277W        W10702  36.387  38.523  13.447
38278W        W10703  22.848  30.454  10.783
38279W        W10704   5.812  36.437  13.372
38280W        W10705   4.336  32.198   4.758
38281W        W10706  41.288  41.007  13.310
38282W        W10707  21.539  22.100  11.160
38283W        W10708   2.018  15.891   0.227
38284W        W10709  32.728   1.050   3.593
38285W        W10710   1.568  43.382   3.135
38286W        W10711  24.446  38.308   3.706
38287W        W10712  27.861  21.667   1.333
38288W        W10713  20.761  19.146  13.304
38289W        W10714  42.344  37.833  13.379
38290W        W10715  42.714  30.460  11.693
38291W        W10716  14.287   6.389   1.674
38292W        W10717  19.740  34.507   0.871
38293W        W10718  13.703  26.486   1.713
38294W        W10719   9.077   8.897  14.891
38295W        W10720  18.112  44.776  11.485
38296W        W10721  32.882  34.875  10.925
38297W        W10722  32.848  40.149  14.746
38298W        W10723  38.944  43.369   3.341
38299W        W10724  13.507  26.051  12.478
38300W        W10725  11.712  16.399   2.386
38301W        W10726  23.601  40.313   0.788
38302W        W10727  11.239  41.398   0.044
38303W        W10728  34.137  16.577   3.053
38304W        W10729  41.933  14.408   0.276
38305W        W10730  43.858  14.550  13.376
38306W        W10731  13.182   0.718  11.166
38307W        W10732   2.260  25.655  13.403
38308W        W10733  43.472  16.812  13.458
38309W        W10734  29.067  11.364  12.851
38310W        W10735   0.393  21.783  14.920
38311W        W10736  36.123  23.523   3.106
38312W        W10737  40.337  18.623   1.865
38313W        W10738  27.021  13.536   2.721
38314W        W10739   9.266  30.286   0.793
38315W        W10740   9.598  37.417   0.338
38316W        W10741  42.957  43.877   1.314
38317W        W10742  23.684  15.754  12.729
38318W        W10743  18.679  43.322   1.461
38319W        W10744  16.718  20.060   1.023
38320W        W10745  24.174  21.539  10.415
38321W        W10746  20.090   7.408   0.531
38322W        W10747   8.286  12.918  10.808
38323W        W10748  16.670  34.011   1.408
38324W        W10749  39.441   4.891  14.640
38325W        W10750  35.006  14.645  12.491
38326W        W10751  20.573  37.224  10.335
38327W        W10752  40.326  17.650  11.672
38328W        W10753  38.954  41.450  12.620
38329W        W10754  11.744  42.543   3.363
38330W        W10755  28.175   6.764  14.216
38331W        W10756  30.706   3.240  14.045
38332W        W10757  21.655  18.546   4.192
38333W        W10758   0.762  10.908  12.936
38334W        W10759  24.472   2.049  11.192
38335W        W10760  20.430  42.805   3.752
38336W        W10761  40.262  15.863   5.395
38337W        W10762  18.554  14.808   1.335
38338W        W10763  36.949  19.943   2.062
38339W        W10764  32.594   0.479  13.074
38340W        W10765  42.838  10.407  11.591
38341W        W10766  32.949  10.308  11.809
38342W        W10767  39.009   1.680   2.344
38343W        W10768  40.403  35.897  13.363
38344W        W10769  32.921  26.462  10.900
38345W        W10770  22.232  39.810   4.268
38346W        W10771  22.203  40.365   1.229
38347W        W10772   6.230  32.483   3.744
38348W        W10773  40.419   4.430   4.564
38349W        W10774  26.576  30.749  13.896
38350W        W10775  28.907  23.155  11.015
38351W        W10776  12.963   1.708   1.848
38352W        W10777  23.188  31.429   4.215
38353W        W10778  17.802  11.397  11.985
38354W        W10779   7.129  18.780  11.565
38355W        W10780  41.334   7.322   3.224
38356W        W10781  23.247  34.541  11.646
38357W        W10782  41.721  44.341   1.677
38358W        W10783  40.580  21.498  13.359
38359W        W10784   9.222  30.701   2.203
38360W        W10785  30.434  44.361  11.851
38361W        W10786  44.727  25.432  12.506
38362W        W10787  35.555  17.261   3.817
38363W        W10788  17.345  22.262  10.714
38364W        W10789  34.847   1.977   1.725
38365W        W10790   6.710  27.566   1.457
38366W        W10791  10.681  30.947  13.543
38367W        W10792  12.544   1.869  11.023
38368W        W10793  26.001  37.364   1.719
38369W        W10794  16.477   2.285  13.984
38370W        W10795  21.316  25.026  12.185
38371W        W10796  31.522  16.668   1.226
38372W        W10797  36.349   0.129  14.407
38373W        W10798  34.491   1.358  14.449
38374W        W10799  26.964  21.295  11.552
38375W        W10800  25.510   6.142   0.473
38376W        W10801  11.872  12.877   3.916
38377W        W10802  35.446  31.013   2.980
38378W        W10803  16.087  32.180  11.585
38379W        W10804  13.125  29.887  12.990
38380W        W10805  23.279   4.692  11.935
38381W        W10806  19.583  36.625  11.222
38382W        W10807  34.379  33.220  13.941
38383W        W10808   9.481  13.732  11.646
38384W        W10809  13.692   0.573  13.850
38385W        W10810  30.573  44.839  12.015
38386W        W10811   9.862  40.943   0.677
38387W        W10812  27.209   5.661  13.739
38388W        W10813  41.328  33.955   3.314
38389W        W10814  23.651   0.444   3.598
38390W        W10815  35.042   4.236   0.677
38391W        W10816  33.197  18.878   1.917
38392W        W10817   7.282  33.613   1.252
38393W        W10818  43.650  30.472  10.374
38394W        W10819  44.535  23.191   1.116
38395W        W10820  25.167  39.936  12.547
38396W        W10821  11.239  23.693   4.752
38397W        W10822  23.946   1.590   4.138
38398W        W10823  42.080  25.578  11.113
38399W        W10824  32.386  10.120  10.989
38400W        W10825  37.453  12.490   3.986
38401W        W10826  33.539   4.694  12.479
38402W        W10827   4.390  23.163   0.405
38403W        W10828   6.262  14.029  10.695
38404W        W10829  15.196  44.408   0.921
38405W        W10830   8.302  16.552   2.400
38406W        W10831  26.650  28.110   3.059
38407W        W10832  29.730   0.793  11.087
38408W        W10833  21.028   5.088  11.143
38409W        W10834   0.728  31.393  11.121
38410W        W10835  36.364   2.952   0.565
38411W        W10836  14.109  24.297   1.326
38412W        W10837  20.132  38.379   3.695
38413W        W10838  43.509  34.125  11.712
38414W        W10839  43.523  35.031   0.020
38415W        W10840  10.258   6.244   2.287
38416W        W10841  41.478  13.145   2.417
38417W        W10842  42.721  27.258  12.993
38418W        W10843  35.917  42.031  10.786
38419W        W10844   2.576  18.321   4.288
38420W        W10845   9.414  38.767   3.649
38421W        W10846  32.902  35.480   0.129
38422W        W10847   6.623  34.439   2.399
38423W        W10848  24.476  11.526   3.075
38424W        W10849   0.217  44.620   4.161
38425W        W10850  39.343  10.364   3.578
38426W        W10851   8.233  21.092  11.187
38427W        W10852  29.699  26.168  10.724
38428W        W10853  28.430  23.310  14.992
38429W        W10854  20.775   7.849  10.766
38430W        W10855  21.036  36.399   3.637
38431W        W10856  43.965   3.924  13.928
38432W        W10857  13.150   4.836  10.573
38433W        W10858  38.852  44.787   4.224
38434W        W10859  35.517   3.839  10.680
38435W        W10860  27.841  39.917   4.506
38436W        W10861   1.973  18.322  14.948
38437W        W10862  17.177  25.629  14.965
38438W        W10863  37.549  15.242   4.149
38439W        W10864   9.430  26.052  14.812
38440W        W10865  21.540  12.264   2.687
38441W        W10866   7.145   2.025   3.226
38442W        W10867  41.320  27.059   2.351
38443W        W10868  27.911  40.457  11.322
38444W        W10869  30.033   8.763  12.597
38445W        W10870  41.428   6.909  12.908
38446W        W10871  11.350  13.539   4.234
38447W        W10872  28.993  23.066   3.379
38448W        W10873  33.722  34.518  14.807
38449W        W10874   1.246   3.601   1.408
38450W        W10875   6.297  37.622   0.928
38451W        W10876  22.744  35.371  12.164
38452W        W10877  17.020  23.471  13.946
38453W        W10878  29.180  28.452   2.932
38454W        W10879  36.361  26.228   3.695
38455W        W10880  35.208  14.621   1.119
38456W        W10881   3.676  19.104  12.916
38457W        W10882  25.108  18.360   1.848
38458W        W10883  18.848   3.923   2.714
38459W        W10884  25.142  20.300  13.430
38460W        W10885  23.615  23.549   4.905
38461W        W10886  29.277  38.553   4.458
38462W        W10887   2.688   6.659   1.828
38463W        W10888  23.335  27.028  13.501
38464W        W10889  20.055  17.458  13.355
38465W        W10890  28.907  42.312   0.824
38466W        W10891  13.692  40.550  11.888
38467W        W10892   6.357  33.247  10.065
38468W        W10893   2.096   4.199  13.153
38469W        W10894  27.461  24.312  12.916
38470W        W10895  38.715   6.246  10.883
38471W        W10896  44.752  42.691  14.559
38472W        W10897   1.011   9.689   0.300
38473W        W10898  26.223  37.407  13.992
38474W        W10899   6.311   0.803  14.563
38475W        W10900  19.666  21.760  12.084
38476W        W10901   6.511  11.194  14.901
38477W        W10902  37.572  25.084  11.984
38478W        W10903  30.536   1.307   2.334
38479W        W10904  37.377  38.938   3.923
38480W        W10905  16.701  10.623   0.979
38481W        W10906   4.195  14.105   4.716
38482W        W10907  27.973  33.194  14.833
38483W        W10908  21.727  23.537  11.497
38484W        W10909  31.407  16.569   3.339
38485W        W10910   7.138  32.055   5.045
38486W        W10911  42.379  38.010   2.709
38487W        W10912  17.393  32.616  14.820
38488W        W10913   3.030   3.819  14.923
38489W        W10914  40.642  35.317  12.767
38490W        W10915   2.913  23.549   0.407
38491W        W10916   6.444  30.010   2.217
38492W        W10917  17.320   9.916   3.909
38493W        W10918  15.339   1.394  11.483
38494W        W10919  29.375  11.054  14.541
38495W        W10920   1.951  44.923  10.744
38496W        W10921  20.669   6.463  13.515
38497W        W10922  23.473  38.733   4.143
38498W        W10923  26.995  35.949   4.059
38499W        W10924  24.756   1.976  13.353
38500W        W10925  29.964  34.074  12.878
38501W        W10926  19.494  34.586  11.976
38502W        W10927  11.756  26.524   2.273
38503W        W10928  17.207  41.726   1.158
38504W        W10929  15.876  28.585  13.428
38505W        W10930  26.529  28.610   3.893
38506W        W10931  44.693  12.203   0.390
38507W        W10932  44.092  31.134  14.923
38508W        W10933  10.647  20.230  11.527
38509W        W10934  40.780  42.864  12.964
38510W        W10935  15.205  20.487   1.396
38511W        W10936   0.311  15.742  10.776
38512W        W10937  18.758  27.207   2.328
38513W        W10938  44.009   8.158  11.862
38514W        W10939  16.146   0.438   2.673
38515W        W10940   9.116  39.997   1.411
38516W        W10941  37.574  27.098   2.698
38517W        W10942  37.255  11.157  12.412
38518W        W10943  30.503  19.566   4.805
38519W        W10944  39.969  31.677  14.000
38520W        W10945  18.166   1.518  13.528
38521W        W10946  33.185  24.743   2.279
38522W        W10947   5.683  38.518   3.223
38523W        W10948  23.518  12.220   1.971
38524W        W10949  13.984  11.546  13.043
38525W        W10950   8.745  22.504   4.720
38526W        W10951  40.428   9.335   3.761
38527W        W10952   7.321  15.912   1.006
38528W        W10953   9.878  31.077  13.956
38529W        W10954  25.003   2.488  13.291
38530W        W10955  17.997  20.724  13.783
38531W        W10956  37.304  22.743  11.863
38532W        W10957  17.379  43.013   0.692
38533W        W10958   7.844   5.253  10.902
38534W        W10959  30.110  24.142   3.615
38535W        W10960  29.815  28.916  10.184
38536W        W10961  29.931  41.306   2.280
38537W        W10962  33.433  14.597  13.458
38538W        W10963   7.542  38.788   5.000
38539W        W10964   6.721   1.485  13.027
38540W        W10965  41.455  23.488  14.899
38541W        W10966  33.116  43.010  11.684
38542W        W10967  21.629   2.909   3.409
38543W        W10968  31.847  24.974  12.005
38544W        W10969   1.943  10.181  14.784
38545W        W10970  31.127  19.556   4.113
38546W        W10971  40.352  15.140   3.112
38547W        W10972  30.392  38.892   1.376
38548W        W10973  10.410  10.622   2.015
38549W        W10974  31.909  28.008  12.510
38550W        W10975  16.881  43.832  12.585
38551W        W10976  34.632  36.158   0.895
38552W        W10977  24.455  41.866  12.717
38553W        W10978  18.085  13.646   0.767
38554W        W10979  41.989  43.415   5.042
38555W        W10980  17.783  19.305  11.902
38556W        W10981  39.377  13.570   4.281
38557W        W10982  39.334   8.393   4.688
38558W        W10983  35.643  10.335   2.142
38559W        W10984   6.698  14.259   1.530
38560W        W10985  11.467  27.403  11.985
38561W        W10986  31.055  32.015   0.186
38562W        W10987  16.517   6.356   3.432
38563W        W10988   9.053  18.122   3.530
38564W        W10989  35.042   0.057   1.736
38565W        W10990   2.923  31.855  12.436
38566W        W10991  32.145  12.567  12.401
38567W        W10992  12.481  42.418  12.038
38568W        W10993   2.716   3.713   1.290
38569W        W10994  29.974   6.103   0.449
38570W        W10995  38.852  27.554  12.157
38571W        W10996  23.108  10.277  13.942
38572W        W10997  13.432   4.274   4.676
38573W        W10998  32.901  11.363   0.270
38574W        W10999  43.533   9.117  10.662
38575W        W11000  10.724   8.982  14.934
38576W        W11001  34.929  23.194   3.653
38577W        W11002   9.636  29.183  14.466
38578W        W11003  38.126  15.581   1.699
38579W        W11004   1.937  12.326   1.857
38580W        W11005  44.974  15.735  10.397
38581W        W11006  19.429  17.650   4.771
38582W        W11007  27.883  25.437   1.341
38583W        W11008  22.771   3.332  14.006
38584W        W11009  34.496   7.625  13.917
38585W        W11010  39.887  29.737  14.948
38586W        W11011  27.635  23.821  12.962
38587W        W11012  26.294  16.380   0.290
38588W        W11013  30.070  37.337   2.784
38589W        W11014  18.217  29.601  14.762
38590W        W11015  22.113  28.583  13.622
38591W        W11016  36.558  37.443   3.557
38592W        W11017   9.301  26.489  10.639
38593W        W11018  19.670   7.732   0.492
38594W        W11019  15.262  17.028   3.673
38595W        W11020   8.372  23.625  13.730
38596W        W11021  39.229   0.792  13.551
38597W        W11022  35.751   6.818   4.305
38598W        W11023   2.336  36.650   2.092
38599W        W11024  34.338  35.964  14.915
38600W        W11025  14.577  28.546  13.567
38601W        W11026  14.814  18.753   4.774
38602W        W11027  37.644  42.400   4.697
38603W        W11028  31.910   0.482  11.183
38604W        W11029  40.789  38.492   3.258
38605W        W11030  41.768   2.931   2.561
38606W        W11031   3.635  15.270  10.444
38607W        W11032   5.657  32.011  13.030
38608W        W11033  34.364  20.967   9.985
38609W        W11034   0.745  39.196   0.327
38610W        W11035   5.205  29.383  12.528
38611W        W11036  33.428   2.450   1.967
38612W        W11037  40.675  14.865  12.856
38613W        W11038   2.051  14.995  12.078
38614W        W11039  11.736  16.874  14.793
38615W        W11040  30.848  14.862  12.826
38616W        W11041   1.836  10.596   1.195
38617W        W11042   4.284  20.597  12.060
38618W        W11043  19.028  14.618   1.221
38619W        W11044   6.891   0.559  12.989
38620W        W11045  37.939   5.451   4.044
38621W        W11046   1.760  35.254   4.336
38622W        W11047   9.833   1.980  14.281
38623W        W11048  10.522   6.264  12.826
38624W        W11049  43.994  40.310  12.997
38625W        W11050  21.519  12.244  14.835
38626W        W11051  25.179  36.613  11.608
38627W        W11052  35.519   9.636   4.891
38628W        W11053  43.779  12.491   2.827
38629W        W11054  34.044   4.321   3.224
38630W        W11055  22.748   6.674  13.532
38631W        W11056  19.512  42.275   1.419
38632W        W11057  44.848  11.735  12.318
38633W        W11058  22.039  28.882   4.576
38634W        W11059  28.196  38.907  10.187
38635W        W11060  21.793  10.923   1.290
38636W        W11061  39.055  36.078   2.098
38637W        W11062  40.915  16.564   3.642
38638W        W11063  44.818  38.485   2.791
38639W        W11064  13.495  42.250  13.035
38640W        W11065   4.993  40.409  12.790
38641W        W11066  25.712   4.341   4.398
38642W        W11067  38.420  41.664  13.525
38643W        W11068  27.965  30.016  13.130
38644W        W11069  42.518  15.080   2.016
38645W        W11070  24.655  44.838   0.868
38646W        W11071  18.559  42.464   3.208
38647W        W11072  36.361  23.202   3.654
38648W        W11073   3.716  44.871  13.877
38649W        W11074  16.612   0.846   2.334
38650W        W11075  18.736  14.773  14.056
38651W        W11076  11.135  44.210  12.979
38652W        W11077  31.344  19.594   1.015
38653W        W11078   5.911  14.573   4.902
38654W        W11079  29.618  40.180  11.429
38655W        W11080  12.901   5.869   1.834
38656W        W11081  19.603  16.800   3.765
38657W        W11082  36.488  42.777   3.613
38658W        W11083   8.565  24.375   4.801
38659W        W11084  38.295  31.424  13.762
38660W        W11085  20.996  41.512  14.881
38661W        W11086  43.896   0.627  14.775
38662W        W11087  19.022   8.382  12.026
38663W        W11088  18.743  39.367   1.806
38664W        W11089  12.243  38.558  14.835
38665W        W11090  35.272  20.042  12.430
38666W        W11091  44.875   6.788   3.296
38667W        W11092  25.626  13.212  14.778
38668W        W11093  14.371  34.846   4.928
38669W        W11094  40.323   8.382   1.343
38670W        W11095  43.348  36.472   2.735
38671W        W11096  23.746   5.503   1.379
38672W        W11097   0.501  13.735  12.151
38673W        W11098  25.062  41.359  12.080
38674W        W11099  25.940   0.502   2.975
38675W        W11100  20.792  20.099   3.818
38676W        W11101   8.041  39.497   2.311
38677W        W11102  30.566   1.046   0.326
38678W        W11103  34.442   8.276   1.469
38679W        W11104  38.769  19.535  13.028
38680W        W11105  23.697   8.308   3.551
38681W        W11106  20.148  23.008  13.864
38682W        W11107  13.797  25.559   9.993
38683W        W11108   8.157  23.507   1.464
38684W        W11109   7.898   0.473  13.723
38685W        W11110  29.790   8.830  11.138
38686W        W11111  29.925  13.818  13.360
38687W        W11112  23.608  14.831   1.793
38688W        W11113  26.270   6.881   0.335
38689W        W11114  33.808  35.981   4.605
38690W        W11115  37.017  21.956  10.746
38691W        W11116  30.453  11.087  11.328
38692W        W11117   5.952  35.626   3.745
38693W        W11118  22.576  24.959   0.429
38694W        W11119  29.376  41.553  12.467
38695W        W11120   2.724  29.492   3.157
38696W        W11121  22.661  24.929   2.265
38697W        W11122  33.832  19.117  10.668
38698W        W11123  27.673  17.865   2.635
38699W        W11124  40.444  14.119   3.343
38700W        W11125   2.013  40.391   2.328
38701W        W11126  11.689  33.864  13.551
38702W        W11127  30.099   2.497  11.384
38703W        W11128   4.202  19.766   0.094
38704W        W11129  13.592  23.431   4.184
38705W        W11130  21.610  29.708  13.035
38706W        W11131  14.772   9.041   3.317
38707W        W11132  34.240  10.161  11.202
38708W        W11133   8.905  18.162   1.953
38709W        W11134  17.502  39.641   1.016
38710W        W11135  29.359  15.012  11.111
38711W        W11136   3.063   5.671   1.452
38712W        W11137  23.006  44.970  13.904
38713W        W11138  13.654  19.704  10.824
38714W        W11139  37.929  17.019   0.353
38715W        W11140  10.750   5.928  10.258
38716W        W11141   6.635   5.535  14.719
38717W        W11142  29.973  38.658  12.590
38718W        W11143   6.835  28.087   1.728
38719W        W11144   5.972  43.775  12.951
38720W        W11145  44.082   1.269   2.676
38721W        W11146  21.283   7.314  11.731
38722W        W11147  15.998   6.244  11.991
38723W        W11148  28.412   8.563  10.986
38724W        W11149   9.409  15.227   2.303
38725W        W11150  10.892   6.433  14.805
38726W        W11151   3.044  34.623   3.760
38727W        W11152  43.217  23.989   4.089
38728W        W11153   0.681  43.372   4.139
38729W        W11154  32.604  43.416  13.359
38730W        W11155  24.687  37.845  11.914
38731W        W11156  43.728   4.341   3.953
38732W        W11157  30.555  14.032  14.001
38733W        W11158  23.322  34.517   5.071
38734W        W11159  21.049  17.058  11.494
38735W        W11160  22.691  40.800   4.268
38736W        W11161  17.446  34.885   4.080
38737W        W11162   4.835  16.396  12.945
38738W        W11163   5.480  12.158   1.316
38739W        W11164  20.916  29.409   2.641
38740W        W11165   5.602   4.458  11.126
38741W        W11166   7.234  13.890   0.920
38742W        W11167  17.276  25.561  11.823
38743W        W11168  12.692  28.486  14.452
38744W        W11169  10.107  26.087  13.492
38745W        W11170  20.286  25.399   2.699
38746W        W11171   0.900   5.739   3.974
38747W        W11172  22.331  32.944   2.546
38748W        W11173  43.411  30.584  14.285
38749W        W11174  17.628  15.237   4.736
38750W        W11175  44.963  18.570  12.946
38751W        W11176  20.201  16.732  10.638
38752W        W11177  41.954  43.548  12.030
38753W        W11178  26.716  31.234   2.987
38754W        W11179   2.409  21.641  12.385
38755W        W11180  16.295  14.793   0.411
38756W        W11181  11.902  37.521  10.095
38757W        W11182  20.593   2.532  14.888
38758W        W11183  14.383  30.151  14.299
38759W        W11184  42.986   2.991  11.556
38760W        W11185  44.233  25.100   2.841
38761W        W11186  44.182  27.036  14.962
38762W        W11187   1.279  43.326   1.714
38763W        W11188   1.377  12.675  14.522
38764W        W11189  36.332   2.013  10.947
38765W        W11190   2.369  20.252   2.349
38766W        W11191  13.795   2.996  10.665
38767W        W11192   8.295   5.946  14.097
38768W        W11193  37.020  32.112  10.574
38769W        W11194  13.003   3.889   1.445
38770W        W11195  20.693  13.828  12.117
38771W        W11196  12.780  23.025   1.838
38772W        W11197  35.623  20.646   1.892
38773W        W11198   9.566  25.996   2.366
38774W        W11199  36.645  18.121  14.486
38775W        W11200  24.389  29.486   0.365
38776W        W11201  31.273  22.168  13.504
38777W        W11202  44.368  22.876   4.594
38778W        W11203   0.174  31.186  12.837
38779W        W11204   5.154  42.792   3.174
38780W        W11205  36.913   4.348  12.383
38781W        W11206  38.062  27.976  12.150
38782W        W11207  14.248  22.156   3.158
38783W        W11208  35.459  20.048  10.762
38784W        W11209  31.471  32.400   3.853
38785W        W11210  23.218   0.242   4.861
38786W        W11211  24.920   0.783   4.394
38787W        W11212   4.197  31.615   0.920
38788W        W11213   8.193  18.705  13.006
38789W        W11214   3.428  19.579   0.163
38790W        W11215  35.164  33.904  11.145
38791W        W11216  22.301   9.825   3.565
38792W        W11217  43.503  10.142  12.920
38793W        W11218  20.952  37.613  12.938
38794W        W11219  13.376  30.478   5.073
38795W        W11220  16.892  29.136   2.789
38796W        W11221  42.627   7.267   4.352
38797W        W11222  30.424  13.744   2.783
38798W        W11223  10.612  39.448  12.391
38799W        W11224  27.584  13.662   1.673
38800W        W11225   8.168  39.052   0.846
38801W        W11226  25.778  37.571  11.142
38802W        W11227   9.144   9.956  13.855
38803W        W11228  12.190  40.316  12.955
38804W        W11229  38.106  36.739  11.244
38805W        W11230  33.822  17.036  10.919
38806W        W11231  12.663  22.775  10.081
38807W        W11232   3.858   6.801  13.668
38808W        W11233  17.784  37.451   4.082
38809W        W11234  40.930  40.078  11.855
38810W        W11235  28.394  18.493   2.203
38811W        W11236  28.989  15.103   4.254
38812W        W11237  21.073   8.759   4.172
38813W        W11238  26.107  34.101   0.673
38814W        W11239  44.056   8.655   0.429
38815W        W11240   3.504  11.966  14.224
38816W        W11241  12.935   7.010   2.380
38817W        W11242  36.397  37.555   1.735
38818W        W11243  11.818  38.392   3.674
38819W        W11244  30.828  43.337   2.196
38820W        W11245  18.685  44.228  13.634
38821W        W11246  12.458  21.914   0.658
38822W        W11247  28.401  18.809   4.134
38823W        W11248  19.853  20.761  10.753
38824W        W11249   3.525  16.373   1.047
38825W        W11250  17.633  14.091   4.110
38826W        W11251  21.134  20.068  10.430
38827W        W11252   5.244  21.625   2.706
38828W        W11253  15.265  39.119  13.752
38829W        W11254   3.687  27.070  11.206
38830W        W11255   7.153  34.115   1.284
38831W        W11256  21.374  10.274   1.497
38832W        W11257  14.642  41.858  11.510
38833W        W11258  25.239   7.872  12.061
38834W        W11259  27.311   5.197   3.271
38835W        W11260  31.899  44.202   1.316
38836W        W11261  43.830  35.906   0.390
38837W        W11262  32.027  13.809   4.084
38838W        W11263   6.693   7.452   4.635
38839W        W11264  25.870  31.379  13.787
38840W        W11265  40.477  39.918   0.241
38841W        W11266  14.675  10.788  11.694
38842W        W11267  38.792  12.832  10.582
38843W        W11268  10.135  39.995   1.824
38844W        W11269   7.304  36.134  14.411
38845W        W11270  11.172  17.625   4.118
38846W        W11271  27.196  10.116   1.870
38847W        W11272   7.971  10.339  12.349
38848W        W11273   4.325   2.889  11.913
38849W        W11274  20.195  32.256  12.365
38850W        W11275  43.736   1.239  12.946
38851W        W11276   6.779  34.432   0.357
38852W        W11277   4.415  39.377  12.110
38853W        W11278   6.406  21.723  12.081
38854W        W11279  33.952  10.487   0.966
38855W        W11280   8.843  25.782  12.439
38856W        W11281   3.224   9.097   2.285
38857W        W11282  41.730  17.024  13.137
38858W        W11283  11.757  16.076   1.036
38859W        W11284  28.525  15.194   3.057
38860W        W11285   8.830   8.946   2.684
38861W        W11286  37.619  29.399  14.001
38862W        W11287  31.591   1.222  14.560
38863W        W11288  32.177  14.193  10.329
38864W        W11289  21.112  16.696   5.048
38865W        W11290  19.660  16.251   2.172
38866W        W11291  24.091   2.014   2.467
38867W        W11292  15.324  44.815  11.077
38868W        W11293  27.989   2.193  14.010
38869W        W11294  40.567   4.706  10.434
38870W        W11295  19.017   8.895  11.170
38871W        W11296  19.131   1.442  10.550
38872W        W11297  30.562  18.182  10.738
38873W        W11298  40.501  30.558  11.933
38874W        W11299  29.633  18.145   2.343
38875W        W11300  40.456  17.527  11.168
38876W        W11301   3.848  20.809   2.691
38877W        W11302   6.915  28.557  14.472
38878W        W11303  41.363  44.262  14.361
38879W        W11304   5.354  22.172  10.447
38880W        W11305  29.050  26.057  12.185
38881W        W11306   0.236  43.411  11.499
38882W        W11307  11.700  31.388  10.680
38883W        W11308  44.434   7.315  11.427
38884W        W11309   9.774  30.941  10.732
38885W        W11310  11.765  11.185  10.585
38886W        W11311   4.851  43.454  14.775
38887W        W11312  11.898  28.610  10.464
38888W        W11313   7.330  31.540   2.202
38889W        W11314  32.830  20.040  11.826
38890W        W11315   7.320   1.489  12.376
38891W        W11316  10.446   1.784   2.788
38892W        W11317  18.511   1.930   2.350
38893W        W11318  43.941  12.976   2.716
38894W        W11319  21.647  43.283   3.725
38895W        W11320  33.858  33.513   4.263
38896W        W11321  34.578  20.626  13.305
38897W        W11322  23.523  24.535   0.743
38898W        W11323  10.648   9.665   1.306
38899W        W11324  31.364  12.102  13.610
38900W        W11325   2.445  12.763  10.255
38901W        W11326  31.843   3.566  12.705
38902W        W11327   6.383  37.158   3.488
38903W        W11328  11.748  20.718   1.171
38904W        W11329  41.937  39.934   3.897
38905W        W11330  15.257   5.271   0.359
38906W        W11331  19.210   4.407   0.223
38907W        W11332  28.809  11.143   4.195
38908W        W11333  38.366  43.331   5.437
38909W        W11334  37.851  44.999   1.131
38910W        W11335   3.529   6.643   0.463
38911W        W11336  28.023  41.334   2.328
38912W        W11337   7.266  26.536   2.459
38913W        W11338   3.805  42.174   4.081
38914W        W11339   2.973  43.733  12.905
38915W        W11340   5.775  19.970  12.521
38916W        W11341  21.307   4.204   1.184
38917W        W11342  33.368  31.016   0.739
38918W        W11343   7.155  33.464  12.898
38919W        W11344  16.686   8.351   3.688
38920W        W11345  11.544  39.540  11.766
38921W        W11346  13.402   6.777  13.920
38922W        W11347  13.323  20.550   1.924
38923W        W11348  16.394   0.792  10.498
38924W        W11349  25.233  23.359   2.900
38925W        W11350  39.689  40.351  14.913
38926W        W11351  14.152   6.318   2.232
38927W        W11352  41.726  21.499  13.893
38928W        W11353  25.789  16.212  11.487
38929W        W11354  31.717  16.559   0.757
38930W        W11355  33.906   7.194  14.205
38931W        W11356   9.170  34.595   0.338
38932W        W11357  38.720  18.308  14.990
38933W        W11358  35.364   6.150  14.266
38934W        W11359  32.950  26.321  13.389
38935W        W11360  20.174   7.436   4.614
38936W        W11361  30.392   8.836   0.299
38937W        W11362  35.958  11.674   4.124
38938W        W11363   5.466  11.343   0.074
38939W        W11364  36.093  44.458   0.486
38940W        W11365  43.479  40.509  12.900
38941W        W11366  29.162  12.833   3.699
38942W        W11367  24.618  14.534  14.407
38943W        W11368  25.989  13.542  12.416
38944W        W11369  19.805  44.456   3.518
38945W        W11370  22.693  22.021   4.740
38946W        W11371  34.015  21.790   1.702
38947W        W11372   7.125  43.286  14.123
38948W        W11373  43.856   4.911  11.959
38949W        W11374   9.080  27.650  12.870
38950W        W11375  15.664  29.471   3.355
38951W        W11376  44.047  16.189   2.690
38952W        W11377  41.281  20.267  10.753
38953W        W11378  10.804  16.355  12.877
38954W        W11379  29.069  44.851   1.554
38955W        W11380  44.589  22.681   0.861
38956W        W11381   0.762  29.680   2.321
38957W        W11382  25.125  32.133  13.387
38958W        W11383   9.348  25.138   0.935
38959W        W11384  10.580  25.836   3.295
38960W        W11385   3.753  15.742  10.580
38961W        W11386  42.378   1.009   2.750
38962W        W11387   2.317  34.700  12.456
38963W        W11388  15.709  10.645   3.712
38964W        W11389   2.744  35.467   3.278
38965W        W11390  18.591  11.126   2.426
38966W        W11391  44.716  43.867   0.883
38967W        W11392  14.866  20.745   1.741
38968W        W11393  20.529   9.222  10.614
38969W        W11394  13.918  44.949   3.334
38970W        W11395  23.197  32.356   4.548
38971W        W11396  43.962  37.531  11.629
38972W        W11397  43.135  40.540  10.941
38973W        W11398   8.277   3.460  14.399
38974W        W11399   8.892  26.578   3.314
38975W        W11400   2.689   7.574   0.506
38976W        W11401   7.734  34.441  14.983
38977W        W11402  24.231   9.880   1.305
38978W        W11403  16.293   7.599  11.158
38979W        W11404   6.981  16.748   3.595
38980W        W11405  19.539  24.591   4.605
38981W        W11406  31.401   4.816   1.325
38982W        W11407   9.593   9.297   2.642
38983W        W11408  31.363  12.636  14.542
38984W        W11409  32.329   7.925  11.459
38985W        W11410   2.299  44.097  12.495
38986W        W11411  42.041  27.454  14.804
38987W        W11412  30.958  17.647   0.745
38988W        W11413   2.270   7.188   0.204
38989W        W11414  10.006  11.201  11.589
38990W        W11415  21.287   6.194   1.802
38991W        W11416  20.265   0.179  14.484
38992W        W11417   7.383  41.512  10.768
38993W        W11418  26.816  21.497   0.185
38994W        W11419  11.085  24.108  12.437
38995W        W11420  33.880  36.049  11.039
38996W        W11421   2.860  43.502   3.740
38997W        W11422  44.767  10.626  14.366
38998W        W11423  11.862   9.373  14.340
38999W        W11424  39.918  30.102   3.648
39000W        W11425   2.882  12.630  10.537
39001W        W11426  36.516  27.683   4.906
39002W        W11427  19.340   2.796  11.540
39003W        W11428  40.009  36.253  13.252
39004W        W11429  37.928  25.926   3.732
39005W        W11430  39.329  12.381  13.288
39006W        W11431  22.492  31.235  11.068
39007W        W11432  24.763  19.581  13.540
39008W        W11433  22.263  35.899  11.061
39009W        W11434  27.899  44.011  13.531
39010W        W11435  35.602  21.186   4.915
39011W        W11436  42.887  20.918  13.700
39012W        W11437  29.506  26.989  14.270
39013W        W11438  35.940  24.690   1.979
39014W        W11439  38.012  37.368   3.654
39015W        W11440  21.644  15.721   0.546
39016W        W11441  29.226  23.205  13.847
39017W        W11442   1.940   7.814  11.229
39018W        W11443  42.819  25.228   0.356
39019W        W11444   9.170  36.673  10.161
39020W        W11445  34.886  29.566  11.468
39021W        W11446  41.549   9.651   2.929
39022W        W11447  31.931  22.970  14.386
39023W        W11448  13.140   6.830   0.762
39024W        W11449  27.191   1.906  12.046
39025W        W11450  16.771  28.645   1.806
39026W        W11451   3.887   5.939  14.997
39027W        W11452  13.650  14.300  12.134
39028W        W11453  36.083  33.164   2.137
39029W        W11454   8.342  42.082   2.757
39030W        W11455  23.339  23.630  10.378
39031W        W11456  20.095   1.426  13.917
39032W        W11457  39.851  29.172   3.084
39033W        W11458  25.504  37.428  12.074
39034W        W11459  33.042  34.161  12.475
39035W        W11460  34.421  30.155  10.467
39036W        W11461   4.860  18.392  11.942
39037W        W11462  28.632  31.242   3.252
39038W        W11463  37.766  26.537   0.313
39039W        W11464   3.301   2.493   1.757
39040W        W11465   6.193  33.080   1.750
39041W        W11466   3.408  15.540   4.059
39042W        W11467   6.389  10.234  10.146
39043W        W11468  31.672  14.085  11.156
39044W        W11469  44.861  23.128  12.940
39045W        W11470  31.572  19.265   2.838
39046W        W11471  39.015  42.942   3.605
39047W        W11472   9.388  30.402   2.593
39048W        W11473  12.033  39.305   0.797
39049W        W11474  38.484  20.650   1.616
39050W        W11475   0.280  15.215  14.793
39051W        W11476  11.859  17.801   0.008
39052W        W11477  28.687  10.673  10.422
39053W        W11478  14.356  15.279  12.567
39054W        W11479  43.321  12.699  11.215
39055W        W11480  28.426  37.202  14.875
39056W        W11481  28.849  33.450   2.261
39057W        W11482  40.288   3.456  13.313
39058W        W11483   0.687  22.259   4.175
39059W        W11484  34.590  14.569  10.774
39060W        W11485  20.289   2.195   4.718
39061W        W11486  20.575  21.485   4.312
39062W        W11487   5.454  38.785  13.535
39063W        W11488  43.473  35.624  14.280
39064W        W11489   9.427  16.985   9.947
39065W        W11490  24.427  31.721  12.477
39066W        W11491   4.160  16.800  14.419
39067W        W11492   4.224  35.267   1.458
39068W        W11493  37.780  36.082  12.019
39069W        W11494  18.079  35.788   0.547
39070W        W11495   2.142  21.591  11.931
39071W        W11496   0.792  16.839   2.675
39072W        W11497  37.808  26.590  13.437
39073W        W11498  39.122  14.746   3.761
39074W        W11499  38.066   8.113   3.154
39075W        W11500  22.213  15.136  14.316
39076W        W11501  14.377  13.618   3.575
39077W        W11502  18.084  30.172   1.490
39078W        W11503  37.490  19.177  14.239
39079W        W11504   2.690  15.905  14.279
39080W        W11505  12.029  19.212  11.603
39081W        W11506  13.894  23.468   0.435
39082W        W11507  24.129   5.576  13.314
39083W        W11508   9.055  31.262  12.667
39084W        W11509  27.778  37.592   4.951
39085W        W11510  26.294  39.433  14.022
39086W        W11511  32.859  14.555  14.029
39087W        W11512  13.305  20.648  10.929
39088W        W11513  25.343  24.702  14.403
39089W        W11514   2.351  10.294  14.492
39090W        W11515   5.341  19.180  13.953
39091W        W11516   9.175   0.294  14.364
39092W        W11517  30.091  13.282   1.286
39093W        W11518  25.546  40.386  10.475
39094W        W11519  23.032  40.112  14.879
39095W        W11520   3.307  36.424   1.320
39096W        W11521  40.483   7.044   0.461
39097W        W11522  14.278  21.433  11.135
39098W        W11523  24.728   6.243   3.107
39099W        W11524  11.101  44.083   4.018
39100W        W11525  28.098  40.539   4.102
39101W        W11526   0.915   8.227   2.781
39102W        W11527  23.556  38.804   0.006
39103W        W11528   6.845   6.907   2.799
39104W        W11529  16.916  10.106   1.834
39105W        W11530  21.203  34.515   3.952
39106W        W11531   7.629   9.790   0.338
39107W        W11532  41.507   5.690   0.995
39108W        W11533   8.643  14.797  14.543
39109W        W11534  43.437  28.650  10.750
39110W        W11535   8.908   7.184  12.041
39111W        W11536  38.477  40.519   3.156
39112W        W11537  23.709   7.806  10.567
39113W        W11538  19.567  26.515   3.074
39114W        W11539   8.207  20.467   4.230
39115W        W11540  14.422  23.514   0.354
39116W        W11541  25.064   5.254   2.172
39117W        W11542  14.920  10.856   2.602
39118W        W11543  40.611   5.419   3.864
39119W        W11544   1.246  13.724   2.852
39120W        W11545  26.025   6.201  13.338
39121W        W11546  10.105   5.304  14.882
39122W        W11547  24.125   3.691   3.822
39123W        W11548   6.318   5.434   1.764
39124W        W11549  34.653   2.380  12.116
39125W        W11550  11.939  43.512   3.203
39126W        W11551  37.312  29.678   3.867
39127W        W11552  10.971  20.080   0.354
39128W        W11553  36.561  15.002   2.831
39129W        W11554  30.669  14.277   3.711
39130W        W11555   3.493   4.699   3.261
39131W        W11556  10.176  12.746  13.390
39132W        W11557  37.510  36.442   3.649
39133W        W11558  29.631  22.532  12.023
39134W        W11559  37.875   7.865   4.321
39135W        W11560  30.915  37.004   4.561
39136W        W11561  25.982  20.241  12.669
39137W        W11562   2.489  25.765  13.863
39138W        W11563  26.540   5.014   1.361
39139W        W11564  10.013  41.751  13.032
39140W        W11565  16.273  30.452  10.583
39141W        W11566  42.194   1.598   1.742
39142W        W11567  27.417  28.934  13.980
39143W        W11568   2.724   8.638   4.549
39144W        W11569   7.377  40.488  10.816
39145W        W11570   2.703  24.487   4.860
39146W        W11571  39.714  29.080  14.341
39147W        W11572  44.438   7.465  10.009
39148W        W11573  32.132  43.357  13.145
39149W        W11574  15.200  39.463  14.299
39150W        W11575  43.836  36.341  13.848
39151W        W11576  10.890  34.419   3.284
39152W        W11577  26.185   0.974  14.856
39153W        W11578  17.905  38.554   2.396
39154W        W11579  18.379   5.378  10.645
39155W        W11580   9.752  20.245  12.075
39156W        W11581  10.241  20.266  12.895
39157W        W11582  15.287  11.778  11.596
39158W        W11583  14.337   2.908  12.824
39159W        W11584  21.390  14.184  14.811
39160W        W11585  28.604  44.176  12.395
39161W        W11586  16.713  20.759  14.857
39162W        W11587  35.535  41.084  11.489
39163W        W11588  20.755  36.612  14.357
39164W        W11589  15.752  41.338  12.012
39165W        W11590  40.951  12.645  13.913
39166W        W11591  44.406  29.970  12.077
39167W        W11592  40.417   5.353   3.390
39168W        W11593  41.866  30.542   1.712
39169W        W11594  23.804  22.452   0.741
39170W        W11595  20.172   6.292   4.198
39171W        W11596  30.062  26.680  12.477
39172W        W11597  21.114  32.237  12.023
39173W        W11598  28.410  29.626   4.335
39174W        W11599   1.558  30.623  13.945
39175W        W11600  35.070   7.474  12.406
39176W        W11601  23.429   1.537   2.520
39177W        W11602  21.437  11.802   1.346
39178W        W11603  10.703  21.804  13.939
39179W        W11604  19.702  39.706  10.814
39180W        W11605  43.499  35.906   4.433
39181W        W11606  28.399  17.711   0.746
39182W        W11607  32.990   1.757   3.176
39183W        W11608  35.703   4.369  14.966
39184W        W11609  11.644  14.080  13.470
39185W        W11610  31.728   8.053  13.528
39186W        W11611  22.447  29.408   3.726
39187W        W11612   2.534   8.195   2.161
39188W        W11613   1.742  34.930   1.043
39189W        W11614  32.472  34.001  10.906
39190W        W11615  38.736  43.454  11.943
39191W        W11616  18.742  25.938  12.485
39192W        W11617   6.172  28.966  10.210
39193W        W11618  12.690   9.155   5.035
39194W        W11619  21.495  44.824   3.764
39195W        W11620  43.066  41.344  12.901
39196W        W11621   9.097  12.094  11.457
39197W        W11622  44.272  32.696   1.404
39198W        W11623  33.077  27.448   2.622
39199W        W11624   9.071  21.276   2.147
39200W        W11625  44.386  34.132   3.205
39201W        W11626  36.922  39.162   4.048
39202W        W11627  43.677   7.747  13.865
39203W        W11628  18.296  24.123   3.244
39204W        W11629  26.487   7.348   0.835
39205W        W11630  22.671  10.146  11.762
39206W        W11631   8.413  35.991  13.531
39207W        W11632  22.999  28.512  10.938
39208W        W11633  31.199   6.081   3.316
39209W        W11634  11.222  37.875   2.995
39210W        W11635   8.845   1.544  14.231
39211W        W11636   8.141  21.586  11.378
39212W        W11637   7.637   7.663  12.574
39213W        W11638   5.373  28.172   2.237
39214W        W11639   1.664  39.337   3.267
39215W        W11640  29.000  22.263  13.795
39216W        W11641   8.818  34.501  10.752
39217W        W11642  27.414  17.384   1.801
39218W        W11643  38.106  33.166  11.614
39219W        W11644  22.206  18.258   3.634
39220W        W11645   3.220  32.193   1.096
39221W        W11646  43.462  28.264   4.911
39222W        W11647   3.348  18.025   1.206
39223W        W11648   5.430   1.681   0.906
39224W        W11649  36.536  41.802  14.576
39225W        W11650  19.615  17.118   3.350
39226W        W11651  35.026  17.156  14.805
39227W        W11652  12.126  14.817   0.869
39228W        W11653  15.660   8.108   3.461
39229W        W11654  35.167   5.432   4.918
39230W        W11655   0.166  14.303   3.150
39231W        W11656  16.032  39.643  12.529
39232W        W11657  32.821  18.253  14.304
39233W        W11658   9.789  21.206   2.594
39234W        W11659  43.216  29.911   4.459
39235W        W11660   7.626  33.149  12.523
39236W        W11661  25.542   8.922   0.045
39237W        W11662  33.966  11.298  11.566
39238W        W11663   3.730  32.443   2.625
39239W        W11664  36.870  16.798  14.562
39240W        W11665  37.656   3.201   4.862
39241W        W11666  22.139  24.922  14.949
39242W        W11667   7.680  10.747  12.440
39243W        W11668  39.458  17.994   1.778
39244W        W11669   2.320   1.661   3.395
39245W        W11670   8.360  13.270  12.110
39246W        W11671  43.859  25.460  14.446
39247W        W11672  18.202  16.300   3.601
39248W        W11673  40.600  44.804  14.739
39249W        W11674  12.710  29.572  12.398
39250W        W11675  36.150   8.272  12.047
39251W        W11676   5.211  24.034  13.809
39252W        W11677  34.535  16.390  14.606
39253W        W11678  44.907   8.146   0.554
39254W        W11679   4.190  11.709  12.962
39255W        W11680  24.704  43.035  11.563
39256W        W11681  32.540  21.790  10.679
39257W        W11682   8.774  38.935  14.063
39258W        W11683  40.572   0.182  11.565
39259W        W11684  26.724  24.320  11.618
39260W        W11685   4.010  33.467   3.214
39261W        W11686  10.128  40.827  12.846
39262W        W11687  14.727  14.181   1.120
39263W        W11688  20.139   9.703  12.677
39264W        W11689  44.925  18.095   4.165
39265W        W11690   0.948  26.121  11.298
39266W        W11691   1.404  36.938   4.700
39267W        W11692  40.306  36.942  11.096
39268W        W11693  14.133  43.856  13.560
39269W        W11694  41.941  16.717   1.889
39270W        W11695  12.313  44.649   0.071
39271W        W11696   8.191   5.432  10.558
39272W        W11697  35.522   6.545  10.924
39273W        W11698  28.079  30.028   4.707
39274W        W11699  44.202  13.212   5.163
39275W        W11700   7.660  27.458   4.550
39276W        W11701  26.841   3.680  14.595
39277W        W11702  16.242   6.966  13.901
39278W        W11703  10.443  41.048   1.318
39279W        W11704   1.794  22.819   4.695
39280W        W11705   5.281  12.181  12.765
39281W        W11706  38.820   0.579  11.944
39282W        W11707  32.302  11.222   2.274
39283W        W11708  41.066  36.577  13.350
39284W        W11709  17.552  10.771   0.419
39285W        W11710   4.836  18.717  11.543
39286W        W11711  42.282  31.091  13.223
39287W        W11712  37.590  36.068   4.411
39288W        W11713  42.334  25.491   2.694
39289W        W11714  13.769  17.333   0.528
39290W        W11715   8.749  14.095   3.784
39291W        W11716  39.035  44.082  11.321
39292W        W11717  26.241   1.842  14.780
39293W        W11718  30.476   7.605   2.820
39294W        W11719   5.909   2.407  14.949
39295W        W11720  37.040   1.424  10.604
39296W        W11721   8.700  26.174  11.279
39297W        W11722   8.682   9.549  13.048
39298W        W11723  41.843  27.642   4.346
39299W        W11724  20.565  18.686   4.021
39300W        W11725  17.741  40.882   0.502
39301W        W11726  14.179  11.446   3.697
39302W        W11727  41.491  30.313   4.548
39303W        W11728   6.728  32.970   4.366
39304W        W11729  37.299  30.699   4.135
39305W        W11730  40.031  12.133   2.397
39306W        W11731   8.766  19.753   0.755
39307W        W11732  27.706   5.859  12.095
39308W        W11733   8.346  14.367  11.983
39309W        W11734  31.889  41.817  12.583
39310W        W11735  29.471  14.760   1.200
39311W        W11736  39.109  41.046   2.040
39312W        W11737   9.000  44.294  13.461
39313W        W11738  25.617  42.225  14.901
39314W        W11739  39.541  43.479   2.101
39315W        W11740  23.954   2.460  13.375
39316W        W11741  42.954  37.914   4.490
39317W        W11742  25.600   2.420   2.382
39318W        W11743  12.237  12.363  10.733
39319W        W11744   9.888  16.071   1.903
39320W        W11745  33.519  17.577  13.947
39321W        W11746  27.917  21.148  11.673
39322W        W11747  39.462   6.691  11.528
39323W        W11748  13.658  10.751   4.093
39324W        W11749  27.613  26.422   2.359
39325W        W11750  18.347  14.604  11.131
39326W        W11751   3.959  18.992   4.041
39327W        W11752  27.648  36.132  14.117
39328W        W11753   4.326  26.489   0.345
39329W        W11754  26.668  31.420   4.600
39330W        W11755  34.893   5.005  12.638
39331W        W11756  38.670  18.813  11.028
39332W        W11757   8.692   8.856   3.171
39333W        W11758   6.185  10.801  14.808
39334W        W11759  40.356   7.649   0.816
39335W        W11760   8.167  33.392  13.141
39336W        W11761   0.822  15.521   2.367
39337W        W11762  31.081   7.320   1.583
39338W        W11763  17.627   9.421   0.936
39339W        W11764  29.161  13.118   4.139
39340W        W11765   9.018  17.191   0.995
39341W        W11766  13.700  37.997  14.978
39342W        W11767   4.881  15.544   1.942
39343W        W11768  35.367  24.166   5.352
39344W        W11769  15.629  25.529   1.312
39345W        W11770  34.393  34.408   0.409
39346W        W11771  11.904  38.893   4.642
39347W        W11772  12.594  26.083  12.987
39348W        W11773  27.193  26.893   3.476
39349W        W11774  14.249  11.614  11.451
39350W        W11775  14.224  24.708   2.825
39351W        W11776  40.016  32.336   0.251
39352W        W11777  26.985  31.524  14.310
39353W        W11778   9.369  26.487   1.363
39354W        W11779  21.213  37.804  12.440
39355W        W11780   9.629   5.412  11.555
39356W        W11781  20.760   7.137   2.773
39357W        W11782  44.910  12.645  13.520
39358W        W11783  30.332  18.075  14.441
39359W        W11784   0.925  41.769   3.250
39360W        W11785  16.683  15.850  12.466
39361W        W11786   4.477  10.638  12.491
39362W        W11787  32.427   6.792  12.187
39363W        W11788  38.785  11.117  10.416
39364W        W11789  41.489  22.116   0.515
39365W        W11790  23.675  23.029  13.979
39366W        W11791   5.813  30.693   4.386
39367W        W11792  39.071  31.568  14.921
39368W        W11793  10.196  44.208   0.514
39369W        W11794   1.002  14.735  10.520
39370W        W11795   6.666  22.214   1.761
39371W        W11796   9.238  26.051   3.660
39372W        W11797  36.651  35.143  13.413
39373W        W11798  19.995  26.174   3.575
39374W        W11799   1.843  29.044   1.364
39375W        W11800  19.604  38.480   3.567
39376W        W11801   0.041  20.545  12.028
39377W        W11802  27.026  41.752   3.656
39378W        W11803   5.354   5.880  11.085
39379W        W11804  38.251  37.507   4.559
39380W        W11805  30.531   2.239   4.722
39381W        W11806   8.437  21.220  13.892
39382W        W11807  25.522  32.152  13.990
39383W        W11808  27.340   1.435   1.276
39384W        W11809  28.305  26.239  10.299
39385W        W11810   2.765  40.366  13.624
39386W        W11811  24.251  42.867  11.409
39387W        W11812  37.756  28.612  11.492
39388W        W11813  12.758  29.409  11.037
39389W        W11814   8.620  38.938   4.009
39390W        W11815  39.305  37.469   3.244
39391W        W11816  18.439  17.657   4.931
39392W        W11817   2.932  25.970   0.241
39393W        W11818  41.429  33.429   0.350
39394W        W11819  37.525  18.137   1.599
39395W        W11820  44.352  31.541   0.777
39396W        W11821  36.470  25.892   2.265
39397W        W11822  27.751   4.597   3.122
39398W        W11823   7.612  12.431   1.731
39399W        W11824  42.967  25.405   0.828
39400W        W11825  34.278  14.068  13.848
39401W        W11826   0.498  24.670  11.150
39402W        W11827   6.908   2.749  10.679
39403W        W11828  37.292  40.481   0.497
39404W        W11829  20.118   6.740  10.977
39405W        W11830   3.396  13.278   2.290
39406W        W11831  29.080  14.526  11.954
39407W        W11832   9.940  20.821  10.585
39408W        W11833  38.772  13.598   2.839
39409W        W11834   1.776  29.929   0.836
39410W        W11835   0.678  33.645  14.840
39411W        W11836  13.225   5.130  10.999
39412W        W11837  12.170  19.537  11.166
39413W        W11838  44.129  12.679  13.018
39414W        W11839  21.740  33.082  13.468
39415W        W11840  18.171  44.892   4.040
39416W        W11841  23.658  31.263   1.795
39417W        W11842   4.456  19.238   0.747
39418W        W11843  38.563   5.785  14.409
39419W        W11844  33.466   2.137  12.361
39420W        W11845   5.472  25.546   0.358
39421W        W11846   9.126  13.901  11.963
39422W        W11847  13.570  26.330  13.389
39423W        W11848   0.380   9.962  13.399
39424W        W11849  42.432   0.406  13.484
39425W        W11850   1.348  23.214   1.274
39426W        W11851   4.007  36.402   1.834
39427W        W11852  35.333  18.988   2.183
39428W        W11853   0.691  31.161  13.449
39429W        W11854   8.803  28.958  14.789
39430W        W11855  42.776  27.616  14.008
39431W        W11856  38.713  30.222   1.651
39432W        W11857   1.888   3.024   0.335
39433W        W11858  21.996  38.947   2.295
39434W        W11859  24.001  40.313  13.500
39435W        W11860  43.478  38.512   3.648
39436W        W11861  11.851  44.179  10.989
39437W        W11862  19.487  36.936   1.508
39438W        W11863  29.346   3.240  14.997
39439W        W11864  39.482  15.272  13.851
39440W        W11865  21.724  10.512  13.903
39441W        W11866  23.231  28.074  14.773
39442W        W11867  36.153  23.999   3.313
39443W        W11868   8.230   2.553   1.948
39444W        W11869  10.700   9.293   9.757
39445W        W11870   7.969  20.063  10.677
39446W        W11871  38.760  14.656  11.066
39447W        W11872  32.476  31.210   0.262
39448W        W11873  12.308  23.293   5.226
39449W        W11874  43.815  35.587  11.619
39450W        W11875   6.302  30.308   3.186
39451W        W11876   0.127  13.354   4.254
39452W        W11877  36.344  22.460  13.777
39453W        W11878   2.166  18.083   3.313
39454W        W11879  16.806  24.862  11.797
39455W        W11880  23.984  32.133  14.829
39456W        W11881  36.844   8.811  13.450
39457W        W11882  31.401  10.233   0.770
39458W        W11883  28.196  16.016  12.522
39459W        W11884  36.089  41.823   3.743
39460W        W11885  20.759  11.522   4.194
39461W        W11886  10.747  10.221  13.957
39462W        W11887  35.585  34.466  13.481
39463W        W11888  26.877  18.064   3.669
39464W        W11889  44.372  20.039  13.410
39465W        W11890  31.483   0.310  12.036
39466W        W11891   1.640  28.270  13.462
39467W        W11892  34.881  29.695  10.447
39468W        W11893  17.750  26.514   4.262
39469W        W11894  42.500  25.987   2.808
39470W        W11895  10.411   0.540   2.461
39471W        W11896  32.003  36.551  14.113
39472W        W11897  15.182  27.022   0.704
39473W        W11898  20.545  42.268  12.053
39474W        W11899  31.324   7.645   2.010
39475W        W11900   6.658  14.612  14.492
39476W        W11901  25.735  23.419   1.811
39477W        W11902   2.262  10.281   2.842
39478W        W11903  39.914  16.045   2.352
39479W        W11904  44.396  17.728  12.904
39480W        W11905  33.221  42.842   4.108
39481W        W11906  33.846   6.716  12.648
39482W        W11907  10.821  20.755  14.893
39483W        W11908  42.772  31.688   4.491
39484W        W11909  43.070  38.369  14.888
39485W        W11910  26.076  43.823  12.806
39486W        W11911  26.165  13.659   1.539
39487W        W11912   6.161  15.955  13.901
39488W        W11913  16.724   6.752  14.265
39489W        W11914  40.316   2.285   2.127
39490W        W11915   6.186   2.233   3.648
39491W        W11916  31.700  14.076   3.761
39492W        W11917  38.040  15.590  11.509
39493W        W11918  36.984  28.913  12.766
39494W        W11919  16.734  31.626   3.327
39495W        W11920   6.378  23.024   1.603
39496W        W11921  44.898  34.973  13.380
39497W        W11922  10.611  30.932   0.379
39498W        W11923   4.799  29.694  12.615
39499W        W11924  12.635  42.407   0.403
39500W        W11925   6.377  42.773   0.798
39501W        W11926  37.052  12.804   1.517
39502W        W11927   6.290  23.016   4.183
39503W        W11928  37.588   4.946   5.125
39504W        W11929   9.870   0.754   4.889
39505W        W11930   7.890  37.146  12.540
39506W        W11931  42.568  42.404  14.966
39507W        W11932  28.274  10.959   1.786
39508W        W11933  39.192   9.907   2.686
39509W        W11934  28.443  16.870  11.950
39510W        W11935  40.640  19.620  13.381
39511W        W11936  30.529   3.753   3.698
39512W        W11937   4.688  40.767   0.849
39513W        W11938  35.800   6.257  12.924
39514W        W11939  19.119  19.282  10.456
39515W        W11940  27.482  18.020   3.092
39516W        W11941   3.831  16.104  14.235
39517W        W11942  31.000  12.927   3.716
39518W        W11943  22.599   6.788   4.139
39519W        W11944  15.630   6.137  10.668
39520W        W11945  39.822   2.277   3.173
39521W        W11946  39.870   9.682   0.797
39522W        W11947  23.055  17.986  11.524
39523W        W11948   9.360  41.934   3.704
39524W        W11949  39.568  24.771   0.510
39525W        W11950  29.867  17.765   4.208
39526W        W11951  37.511  14.063  14.859
39527W        W11952  26.774  13.179   4.557
39528W        W11953  13.806  32.387  12.420
39529W        W11954  37.904   2.543   1.855
39530W        W11955   5.985  32.449   3.289
39531W        W11956  43.467  29.905  13.455
39532W        W11957  31.601  43.703   4.103
39533W        W11958  22.583   3.991   4.582
39534W        W11959  36.309  27.650   0.853
39535W        W11960  35.616  21.616   4.112
39536W        W11961  36.780  22.760   5.411
39537W        W11962  23.211   3.153   1.477
39538W        W11963  20.707  28.196  12.943
39539W        W11964  37.509   1.436   4.462
39540W        W11965   1.325  31.948   3.333
39541W        W11966  27.688  26.600   1.826
39542W        W11967   3.056  17.526   3.352
39543W        W11968   2.419  28.085  13.038
39544W        W11969   1.376  30.712  10.624
39545W        W11970  34.888  11.850  11.005
39546W        W11971  15.626  25.286  11.021
39547W        W11972  33.526  10.625  10.618
39548W        W11973  33.994  12.394  12.615
39549W        W11974  32.180  23.732   1.261
39550W        W11975  36.571  43.428  14.983
39551W        W11976  39.556  26.020  12.436
39552W        W11977   7.579  16.465   0.295
39553W        W11978  21.604  13.724  12.551
39554W        W11979  22.949   7.880  13.020
39555W        W11980  31.516  31.926   4.632
39556W        W11981  13.653  15.580   3.276
39557W        W11982   0.983  28.456   3.795
39558W        W11983  43.382   5.667   4.419
39559W        W11984   9.924  35.252  12.505
39560W        W11985  22.490   1.803   1.397
39561W        W11986  20.425   4.198   1.922
39562W        W11987   0.985  24.533   0.701
39563W        W11988  17.242  21.735  13.057
39564W        W11989  24.274  30.448   3.184
39565W        W11990  33.436  33.083   0.741
39566W        W11991   8.799  34.895   2.692
39567W        W11992  32.427   0.902  10.658
39568W        W11993  15.129   8.862   3.627
39569W        W11994  17.333  30.231  12.580
39570W        W11995   3.117   0.588   3.121
39571W        W11996  37.861  25.205   5.102
39572W        W11997  27.998  32.342   2.060
39573W        W11998   0.136  12.063  12.048
39574W        W11999  11.770  13.398   2.701
39575W        W12000  35.534   0.266   3.666
39576W        W12001  15.154   9.777   1.211
39577W        W12002  44.217   2.246  13.925
39578W        W12003  30.600  12.667  11.235
39579W        W12004  13.758  38.311   4.924
39580W        W12005  35.894  23.039  14.333
39581W        W12006  21.087  20.951  13.815
39582W        W12007  28.038  38.096  13.614
39583W        W12008  37.477  17.279  11.902
39584W        W12009  14.025  25.691   0.543
39585W        W12010  32.528  37.731   4.699
39586W        W12011  35.136  31.534   3.258
39587W        W12012   8.953  22.196  14.096
39588W        W12013   5.318  18.147  13.312
39589W        W12014  33.925  38.769   0.074
39590W        W12015  25.569  28.183  12.061
39591W        W12016  19.239  34.837   4.884
39592W        W12017  32.863   7.771   4.633
39593W        W12018  39.409   6.804  12.455
39594W        W12019  20.069   3.219   1.241
39595W        W12020  25.694  30.708   2.670
39596W        W12021  41.866  18.295  14.083
39597W        W12022  30.543  18.230   3.345
39598W        W12023  13.130  12.415   4.083
39599W        W12024  11.593  12.532  10.332
39600W        W12025  30.705   3.950   5.008
39601W        W12026  33.571  36.587   0.006
39602W        W12027  26.174  19.205   4.748
39603W        W12028  41.599  11.014  11.402
39604W        W12029  42.302   3.353   0.742
39605W        W12030  17.531  36.207  12.337
39606W        W12031  29.743  39.836   2.860
39607W        W12032  25.122  41.292   0.184
39608W        W12033   4.234  20.280   3.746
39609W        W12034  31.458  31.741  12.976
39610W        W12035  21.996   5.267   2.349
39611W        W12036  11.773  13.645   0.717
39612W        W12037  33.151  28.194   1.293
39613W        W12038  18.590  44.667   1.804
39614W        W12039  40.843  27.654  11.010
39615W        W12040   8.620  31.192   1.880
39616W        W12041  11.335  42.927   2.726
39617W        W12042   3.747  11.584   0.293
39618W        W12043  34.450  23.705   3.268
39619W        W12044  12.434  40.338   0.513
39620W        W12045  37.426  10.147  14.697
39621W        W12046   0.112  27.083   0.957
39622W        W12047  44.129  32.970   2.211
39623W        W12048  33.058  40.926  12.875
39624W        W12049  15.765  20.549   3.068
39625W        W12050   3.942  14.672   3.725
39626W        W12051  41.315  10.423   0.060
39627W        W12052  44.841  21.247  12.690
39628W        W12053  35.427   2.283  12.617
39629W        W12054  16.766  33.977  12.970
39630W        W12055  27.996  27.349  14.692
39631W        W12056   8.938   2.827  10.771
39632W        W12057  36.351  19.186  11.095
39633W        W12058  41.188   8.317   1.761
39634W        W12059   0.930   3.447  11.177
39635W        W12060  33.893   3.252   4.555
39636W        W12061  17.332  20.621  13.527
39637W        W12062  31.733  18.373   5.064
39638W        W12063   8.646   7.218   0.516
39639W        W12064  30.444  25.176  12.285
39640W        W12065  13.528  44.905  12.123
39641W        W12066  14.752  41.822   1.918
39642W        W12067  10.273   3.617   3.930
39643W        W12068   4.134  18.942   0.428
39644W        W12069  19.813  17.737  13.864
39645W        W12070  44.502  22.374   4.690
39646W        W12071  30.823   6.889   2.956
39647W        W12072  10.427  40.466   1.796
39648W        W12073  17.061  36.686   4.212
39649W        W12074  25.349  31.694  13.140
39650W        W12075  28.729  43.922   2.835
39651W        W12076  19.178   8.185   0.972
39652W        W12077  40.525  12.717  13.084
39653W        W12078  17.104   7.721  14.222
39654W        W12079  26.216  23.573  11.623
39655W        W12080  31.841  11.677  12.014
39656W        W12081  30.836  43.965   2.863
39657W        W12082  17.420  14.866  12.047
39658W        W12083   5.086  14.714   2.152
39659W        W12084  35.494  21.771  11.994
39660W        W12085  28.209   6.700  13.230
39661W        W12086  41.172  36.588   2.173
39662W        W12087  33.003  12.193  12.115
39663W        W12088  43.981   7.170   0.836
39664W        W12089  22.606  22.486  13.950
39665W        W12090  10.141  30.140  13.716
39666W        W12091  12.613  27.992  14.295
39667W        W12092  36.525  32.975   3.208
39668W        W12093   8.679  22.698   1.916
39669W        W12094  30.292  41.872  12.443
39670W        W12095  12.824   2.985   4.796
39671W        W12096  41.504  23.930  11.095
39672W        W12097  10.124  18.024   1.694
39673W        W12098  12.122  10.116   2.358
39674W        W12099  43.909  31.187   3.720
39675W        W12100  36.498  36.968   0.205
39676W        W12101   5.327  13.095  14.382
39677W        W12102  18.411  33.082  11.604
39678W        W12103  10.278  35.029   2.792
39679W        W12104  25.382  20.994  12.354
39680W        W12105   7.389  44.238  12.540
39681W        W12106  27.659  13.387  13.579
39682W        W12107  33.913   1.943  12.958
39683W        W12108  37.462  11.863  10.603
39684W        W12109   2.362  40.054  10.759
39685W        W12110  40.502  44.877   0.252
39686W        W12111  34.114  18.083   2.209
39687W        W12112  39.431  35.316   2.280
39688W        W12113  37.396  11.647  12.361
39689W        W12114  39.720  17.649   2.596
39690W        W12115  11.812  32.579  12.064
39691W        W12116  39.630   1.762   1.963
39692W        W12117   6.221   6.915   4.372
39693W        W12118  32.138  38.499   1.314
39694W        W12119  20.574  28.030  11.398
39695W        W12120  32.520  17.582   0.570
39696W        W12121  38.853  43.090  11.625
39697W        W12122   6.490  19.546   3.368
39698W        W12123   1.868  23.007   2.869
39699W        W12124  14.838  21.652   2.321
39700W        W12125  25.532  34.527   1.509
39701W        W12126  36.218   6.664   4.093
39702W        W12127  10.707  39.465  13.986
39703W        W12128   1.763  39.233  10.640
39704W        W12129   2.329  31.475   4.577
39705W        W12130   1.239  15.665   0.733
39706W        W12131  11.817  26.898  14.338
39707W        W12132  16.022  32.208   4.432
39708W        W12133  42.789  33.580  11.574
39709W        W12134   4.285   1.257   0.544
39710W        W12135  11.239  32.938   2.196
39711W        W12136  27.539  18.549   2.347
39712W        W12137  27.206   8.715   2.659
39713W        W12138   7.266  25.603   2.388
39714W        W12139  17.733  13.197   3.409
39715W        W12140   8.450  11.781  13.028
39716W        W12141  24.724   9.398   4.620
39717W        W12142  30.172  22.542   1.806
39718W        W12143   5.560  35.188   1.407
39719W        W12144  30.808   9.168   3.980
39720W        W12145  25.643  30.148   3.895
39721W        W12146  36.396  24.463   3.370
39722W        W12147  16.738  30.180   2.860
39723W        W12148  37.410  30.895  12.812
39724W        W12149  44.885   7.416  13.580
39725W        W12150  20.604  20.922   0.931
39726W        W12151  17.274  37.369  13.690
39727W        W12152  42.365  30.033  13.023
39728W        W12153  37.452  43.230  11.731
39729W        W12154  37.363  20.510   0.031
39730W        W12155  39.765  29.138  12.964
39731W        W12156  25.513   9.417  11.508
39732W        W12157  31.935  41.050   2.679
39733W        W12158   6.816  23.271   2.724
39734W        W12159  36.463  32.864   2.673
39735W        W12160   4.435   5.369  13.329
39736W        W12161  43.400  38.225   1.822
39737W        W12162  42.241   9.187  14.270
39738W        W12163  25.483  20.046  12.772
39739W        W12164  27.648   2.922  10.946
39740W        W12165   6.041  44.088  12.199
39741W        W12166  41.356  42.339   3.845
39742W        W12167  10.764   3.328  12.983
39743W        W12168   9.876  37.595  11.896
39744W        W12169  44.323  17.189  14.239
39745W        W12170  19.021  10.387  12.964
39746W        W12171  32.547  19.081   0.699
39747W        W12172   6.268  14.229  13.424
39748W        W12173   6.312  35.929   0.037
39749W        W12174  21.030   7.760   4.545
39750W        W12175  16.387  10.877  11.465
39751W        W12176   0.596  38.266   3.243
39752W        W12177  27.657  26.081   0.785
39753W        W12178   7.493  18.811   0.705
39754W        W12179   3.698   7.754   1.842
39755W        W12180  35.198  25.952   3.202
39756W        W12181   1.801  42.138  11.159
39757W        W12182   1.975  31.933  11.318
39758W        W12183   4.212  37.512  11.162
39759W        W12184   3.483  15.520   2.150
39760W        W12185   4.983  39.814   3.106
39761W        W12186   2.632  12.621   0.758
39762W        W12187  26.101  21.051  14.081
39763W        W12188  39.947  14.032   3.216
39764W        W12189  30.221  17.865  12.668
39765W        W12190  22.709  17.081   0.629
39766W        W12191  35.736  17.909  10.815
39767W        W12192  32.459  11.144  11.823
39768W        W12193   0.124   7.627   3.255
39769W        W12194  33.526  20.651   4.376
39770W        W12195   1.571   8.923  12.041
39771W        W12196  11.783  37.009   0.661
39772W        W12197  25.611  20.055  13.263
39773W        W12198  41.834   6.769   2.797
39774W        W12199  29.421  34.600   0.373
39775W        W12200  14.391  41.980  11.960
39776W        W12201  19.676   8.772   4.574
39777W        W12202  14.852   9.011  11.807
39778W        W12203  25.753   5.764  13.360
39779W        W12204  14.270   5.192   0.267
39780W        W12205  39.170  34.940   0.014
39781W        W12206  27.466  27.488   1.372
39782W        W12207  27.754  26.449  13.115
39783W        W12208  36.098  42.534  10.741
39784W        W12209  43.115  42.439  13.878
39785W        W12210   9.784  32.000  14.929
39786W        W12211  24.365  24.239  10.912
39787W        W12212  29.635  26.100  13.920
39788W        W12213  33.468  21.609   3.652
39789W        W12214  23.737  23.963   2.315
39790W        W12215  10.694  10.230   2.192
39791W        W12216  21.955   2.248  11.708
39792W        W12217   4.609  34.962  14.898
39793W        W12218  39.820  18.839  11.556
39794W        W12219  23.751   6.894   1.277
39795W        W12220  38.988  11.214   0.740
39796W        W12221  18.806  11.667  12.854
39797W        W12222   4.672  19.680   2.713
39798W        W12223  42.719  20.124  12.863
39799W        W12224  36.374  35.611  13.441
39800W        W12225  36.606  28.091   0.890
39801W        W12226   9.219  37.291  12.549
39802W        W12227  13.723  23.396  12.542
39803W        W12228   3.194  44.799   0.973
39804W        W12229  39.587  43.336  13.498
39805W        W12230  22.551  37.891  11.905
39806W        W12231  14.781  32.802   0.714
39807W        W12232  15.536  39.991   1.350
39808W        W12233   6.285  17.381  14.461
39809W        W12234  25.935  28.692   1.975
39810W        W12235   4.822  18.140  13.220
39811W        W12236  28.570   2.389   3.719
39812W        W12237   1.324  12.248   3.545
39813W        W12238  22.133  19.033   4.817
39814W        W12239  29.135  12.315  14.751
39815W        W12240  20.216   8.302   0.829
39816W        W12241  11.201   5.708  12.307
39817W        W12242  31.473  43.378   3.706
39818W        W12243  33.079  27.953  12.063
39819W        W12244   7.805  20.954   1.344
39820W        W12245   0.732  27.361  11.135
39821W        W12246  27.997  11.429  11.060
39822W        W12247  21.615  21.570   0.806
39823W        W12248  34.993  20.604   0.123
39824W        W12249  12.540  11.734   2.766
39825W        W12250  43.095  33.115  10.729
39826W        W12251  23.004  18.674  13.407
39827W        W12252  10.077   2.378   3.324
39828W        W12253  23.267  40.523   0.468
39829W        W12254  21.261  35.131  12.757
39830W        W12255  29.919  14.630   4.270
39831W        W12256  19.699  34.871   1.669
39832W        W12257  18.154  14.623  10.660
39833W        W12258   8.792  40.651   0.224
39834W        W12259  11.370  38.593  13.611
39835W        W12260  10.451  42.804  13.761
39836W        W12261  24.778  15.585   9.964
39837W        W12262   6.257  24.603  13.719
39838W        W12263  29.736  32.473   5.022
39839W        W12264   4.832  22.494  11.016
39840W        W12265   5.154   9.650   0.317
39841W        W12266  25.253  17.189   0.681
39842W        W12267  37.081  14.207   2.840
39843W        W12268  40.560  21.203  11.953
39844W        W12269  28.152   5.455   3.472
39845W        W12270  19.202  44.984  14.962
39846W        W12271  24.728  43.494  13.523
39847W        W12272   3.735  26.996   2.817
39848W        W12273  25.688  30.794  10.924
39849W        W12274  20.807  42.002  11.076
39850W        W12275   6.179  24.276   0.037
39851W        W12276   9.421  27.029  14.897
39852W        W12277  13.707  33.831   2.688
39853W        W12278  18.753  24.194  14.500
39854W        W12279  33.529  35.807  10.448
39855W        W12280  14.824  24.475   5.011
39856W        W12281   8.492  37.295  13.082
39857W        W12282  30.119  19.010   3.586
39858W        W12283  11.735  44.946  10.424
39859W        W12284   5.815   0.786   2.302
39860W        W12285  32.957  16.683  13.790
39861W        W12286   5.990  15.095   4.762
39862W        W12287  14.041   6.362   4.037
39863W        W12288  19.204  26.111  12.328
39864W        W12289  31.950  40.759   1.166
39865W        W12290   3.661  37.847  13.027
39866W        W12291  18.654  25.190  10.776
39867W        W12292  33.970  19.855   1.512
39868W        W12293  41.593  36.571  11.015
39869W        W12294  30.737  34.956   4.105
39870W        W12295  14.166  38.858   0.452
39871W        W12296  24.869  22.254   2.411
39872W        W12297  15.480  10.929   1.872
39873W        W12298  24.167   1.286   1.205
39874W        W12299  29.069  25.606   3.651
39875W        W12300   8.731  41.207   3.252
39876W        W12301  40.375   9.416   1.633
39877W        W12302  42.968  18.864   4.779
39878W        W12303  42.811  39.362   1.698
39879W        W12304   2.706  41.316   4.262
39880W        W12305  37.990  25.408  13.803
39881W        W12306   0.357  32.442  11.721
39882W        W12307  27.363   4.241  14.726
39883W        W12308  17.698   2.211   0.292
39884W        W12309   6.003   5.933   1.218
39885W        W12310   9.622  41.765  13.873
39886W        W12311  19.571  25.621  12.312
39887W        W12312  20.162  14.989  11.153
39888W        W12313  25.577  43.422  12.305
39889W        W12314  15.027  25.991   1.821
39890W        W12315  21.430   9.159  11.572
39891W        W12316   8.929  15.731  14.100
39892W        W12317  27.246   7.596   4.394
39893W        W12318  22.812  26.218   3.324
39894W        W12319  34.601  16.313   3.118
39895W        W12320  19.079  28.068   1.024
39896W        W12321  35.001  32.888   2.750
39897W        W12322  19.002   2.747   4.739
39898W        W12323   9.102  22.150   2.212
39899W        W12324  34.219  18.197  14.685
39900W        W12325   5.348  19.848  11.242
39901W        W12326  21.603  24.439   4.815
39902W        W12327   4.908  25.765   1.560
39903W        W12328   9.873  39.620   3.305
39904W        W12329  34.017  30.038   2.134
39905W        W12330   4.081  32.186   3.896
39906W        W12331  13.802   9.305  13.985
39907W        W12332  44.081  15.060  12.038
39908W        W12333   4.923   3.773  11.019
39909W        W12334  34.048  21.166  12.524
39910W        W12335  38.734  25.450   4.976
39911W        W12336  33.096  38.454  10.617
39912W        W12337  11.288   2.712  11.156
39913W        W12338  44.557  37.413  14.365
39914W        W12339  20.737  15.084   0.549
39915W        W12340  31.096  29.523   2.837
39916W        W12341  42.560  25.664  11.227
39917W        W12342  21.215  27.925   5.080
39918W        W12343  23.686  40.595  14.538
39919W        W12344  44.820  17.353  14.245
39920W        W12345  43.753  12.329  12.939
39921W        W12346  32.752  41.970   0.859
39922W        W12347  26.558   5.536   1.360
39923W        W12348  12.089  10.167  11.627
39924W        W12349  13.277  24.437   1.908
39925W        W12350  37.810  18.896   0.683
39926W        W12351  27.640  36.938  11.424
39927W        W12352  30.044  29.949   4.262
39928W        W12353   5.460  20.024  10.763
39929W        W12354  35.817   8.504   2.474
39930W        W12355   4.734  14.230  14.778
39931W        W12356  28.398  26.495   3.318
39932W        W12357   1.214  29.418   2.292
39933W        W12358   9.596  30.288   4.744
39934W        W12359  31.279  29.093  14.502
39935W        W12360  17.172  19.015   3.735
39936W        W12361  17.423  13.770   1.760
39937W        W12362  24.873   3.442  12.250
39938W        W12363  27.112  16.619  14.744
39939W        W12364  13.741  33.635  12.958
39940W        W12365   1.858   5.556   3.781
39941W        W12366  18.927  33.062   5.090
39942W        W12367  13.883  14.259  11.669
39943W        W12368   8.598  24.814   3.872
39944W        W12369  44.780   3.347  13.485
39945W        W12370  11.724  35.612   1.757
39946W        W12371   8.489   3.237  13.783
39947W        W12372   0.179  41.580  11.662
39948W        W12373  14.594   4.629  12.460
39949W        W12374  24.964  10.720   2.467
39950W        W12375  22.053   4.392   4.074
39951W        W12376  34.479   5.377  10.714
39952W        W12377  36.396  34.560   4.231
39953W        W12378  16.749  17.317  10.701
39954W        W12379  17.566   7.247   2.666
39955W        W12380   5.314  20.247   3.659
39956W        W12381  13.533  14.634   4.716
39957W        W12382  12.284  16.330  14.440
39958W        W12383  28.044  28.626  12.665
39959W        W12384   4.473  43.035  13.941
39960W        W12385  33.519   8.804  12.712
39961W        W12386  17.871  38.078  11.445
39962W        W12387  27.081  26.425   4.140
39963W        W12388  13.283  39.809   0.436
39964W        W12389  10.213   4.785   4.684
39965W        W12390  28.908   5.308  10.708
39966W        W12391  20.683  38.670  10.534
39967W        W12392   3.431  37.943   4.647
39968W        W12393   8.635  12.643  12.524
39969W        W12394  14.581   0.864  13.867
39970W        W12395  10.715  25.962  11.055
39971W        W12396  36.608  21.138  14.773
39972W        W12397  10.337  17.176   1.662
39973W        W12398  33.637  30.934   4.182
39974W        W12399  24.941  23.876  14.482
39975W        W12400   8.624  44.305  10.573
39976W        W12401  41.971  23.807   1.556
39977W        W12402  20.814  34.392  12.513
39978W        W12403  13.405   1.533   2.546
39979W        W12404  33.596  25.989   3.593
39980W        W12405  24.614  40.035   4.372
39981W        W12406  37.596  17.071  14.786
39982W        W12407   6.973  36.814  12.519
39983W        W12408  30.594   5.942  14.960
39984W        W12409  43.149  43.512   3.079
39985W        W12410  27.327  43.640   1.426
39986W        W12411  22.796  19.549  13.476
39987W        W12412   1.191  41.944  11.133
39988W        W12413   1.054  43.837  12.432
39989W        W12414   2.628  36.787  13.480
39990W        W12415  43.632   8.213  12.828
39991W        W12416  34.400  12.910   1.760
39992W        W12417  12.261  19.297  10.713
39993W        W12418   0.639   4.600  13.830
39994W        W12419  22.510  12.628   0.969
39995W        W12420  11.635  32.129   4.704
39996W        W12421   8.572  21.801   4.058
39997W        W12422   6.194  15.775  14.472
39998W        W12423  19.082  31.974   3.796
39999W        W12424  20.061  12.283  12.410
40000W        W12425  21.289  43.994  12.463
40001W        W12426  43.052  26.638   2.732
40002W        W12427  39.325  40.783   3.838
40003W        W12428   5.594  43.766  13.888
40004W        W12429  41.592  26.142   0.662
40005W        W12430  44.868   7.245  11.673
40006W        W12431   2.266  37.609  14.277
40007W        W12432  12.719  12.644   2.911
40008W        W12433   6.659   7.828   1.822
40009W        W12434   9.605  10.472  14.785
40010W        W12435  39.372  36.125   4.672
40011W        W12436  44.949   8.268   1.837
40012W        W12437  39.711  12.027  12.096
40013W        W12438  12.288   1.665  14.355
40014W        W12439  24.267  25.479   1.414
40015W        W12440  36.461  30.383   1.139
40016W        W12441  44.380  10.584   2.912
40017W        W12442  33.260   0.498   1.954
40018W        W12443   1.471  16.148   4.213
40019W        W12444  13.359  22.068   1.304
40020W        W12445  36.955   5.916  12.194
40021W        W12446  42.934  39.228   4.240
40022W        W12447  18.663  33.522   1.782
40023W        W12448  41.489  17.840   0.814
40024W        W12449  37.104  25.105   4.420
40025W        W12450  28.639   1.900   0.905
40026W        W12451   9.397  12.944   3.779
40027W        W12452   6.223  27.547  10.594
40028W        W12453  30.131  22.296  14.928
40029W        W12454  15.869  22.985  11.544
40030W        W12455  33.856  41.638   2.862
40031W        W12456  28.091  42.792  10.187
40032W        W12457  42.929   1.434  11.555
40033W        W12458  27.598   2.389  14.322
40034W        W12459  41.673  14.154  11.952
40035W        W12460  10.597  20.345  13.993
40036W        W12461  17.788  44.762   4.356
40037W        W12462  20.753   0.210   0.825
40038W        W12463  15.384  23.681  13.814
40039W        W12464  20.550   8.180   1.671
40040W        W12465  35.500  35.935   3.276
40041W        W12466  18.562   0.973  12.882
40042W        W12467  31.155   5.950  10.363
40043W        W12468  30.112  40.809   2.838
40044W        W12469  14.166  10.600   1.247
40045W        W12470  27.948  21.722   2.685
40046W        W12471  36.495  39.565  14.861
40047W        W12472  33.411  27.093   0.346
40048W        W12473  23.244  34.454   4.166
40049W        W12474  17.170   8.478  11.216
40050W        W12475  28.743  12.560   0.017
40051W        W12476   2.165   8.991  11.463
40052W        W12477  26.067  37.957   4.893
40053W        W12478  13.679  11.652  12.205
40054W        W12479  39.551  38.868  10.171
40055W        W12480  26.038  19.532   2.185
40056W        W12481   3.419  42.229   3.719
40057W        W12482  33.815   2.280  14.879
40058W        W12483  28.183  29.041  13.572
40059W        W12484  17.106  25.915   0.461
40060W        W12485   6.708  24.005   4.451
40061W        W12486   4.746  15.383   3.272
40062W        W12487  13.261  37.368  10.309
40063W        W12488   8.678  20.091   4.953
40064W        W12489  22.989   9.245   2.684
40065W        W12490   4.933  32.573  14.581
40066W        W12491  34.453  16.775   3.709
40067W        W12492   0.270  23.953  12.950
40068W        W12493  31.867   5.777  14.777
40069W        W12494  13.722  27.120  11.947
40070W        W12495  29.149  25.737   0.430
40071W        W12496   6.157  20.446   4.107
40072W        W12497  28.856  13.772   4.487
40073W        W12498  16.566  23.488  10.623
40074W        W12499   2.008   6.738  11.639
40075W        W12500  37.605  10.710   1.273
40076W        W12501  33.670  22.121   1.935
40077W        W12502   4.719   1.457   3.455
40078W        W12503   4.007  23.980   4.185
40079W        W12504  36.959  44.557   1.889
40080W        W12505   5.123  29.460  10.765
40081W        W12506  38.830  25.325  12.100
40082W        W12507   9.765  31.163   4.085
40083W        W12508  23.081  23.932  12.137
40084W        W12509  24.484   6.815   0.445
40085W        W12510   7.303  15.296   2.765
40086W        W12511  15.204  11.281  11.703
40087W        W12512  23.791  38.324   1.366
40088W        W12513  33.875  30.062  11.699
40089W        W12514   0.372   9.181  12.396
40090W        W12515  42.813   9.654   1.349
40091W        W12516  39.472  36.500   3.246
40092W        W12517  21.592  22.233  12.524
40093W        W12518   6.721  19.345   2.250
40094W        W12519  12.366  15.241   2.654
40095W        W12520  32.729   1.680   1.812
40096W        W12521  26.222  16.661  14.428
40097W        W12522  28.566  13.718  10.876
40098W        W12523   5.403  25.509  13.291
40099W        W12524   8.653  34.602   0.392
40100W        W12525  44.738  24.084  12.947
40101W        W12526  39.883  39.445   4.237
40102W        W12527  42.931  28.388   0.506
40103W        W12528  28.428  16.305   3.640
40104W        W12529  35.889  15.529   4.546
40105W        W12530  39.921  19.366  14.572
40106W        W12531  40.586  43.582   0.329
40107W        W12532  38.283  31.744  12.429
40108W        W12533  31.587  15.094   3.621
40109W        W12534  31.342  15.288   0.670
40110W        W12535  10.352  38.945   2.809
40111W        W12536   9.130  25.990  10.680
40112W        W12537  31.770  21.036   2.372
40113W        W12538  23.753  42.968  14.473
40114W        W12539   9.858  31.034   1.007
40115W        W12540  42.908  17.922   4.559
40116W        W12541   3.266  29.488   5.060
40117W        W12542  41.994  10.051  10.250
40118W        W12543  14.071  30.988  13.768
40119W        W12544  26.171   3.215   0.599
40120W        W12545   1.247  15.200  14.360
40121W        W12546   1.918   0.743   0.900
40122W        W12547  15.156   9.099  14.156
40123W        W12548  23.039  12.437  10.696
40124W        W12549  20.868  24.544  14.384
40125W        W12550   6.523  12.269   4.140
40126W        W12551  38.088  40.114  14.581
40127W        W12552  27.003  20.213   0.841
40128W        W12553  43.947  36.079  12.500
40129W        W12554  39.955  25.591   3.238
40130W        W12555  28.317  40.077   4.228
40131W        W12556  34.364  26.181  10.939
40132W        W12557  43.587  31.125   2.883
40133W        W12558  38.834  10.627  11.997
40134W        W12559  27.497  37.321   0.415
40135W        W12560  10.190  16.838  10.854
40136W        W12561  17.988   3.229   3.858
40137W        W12562  12.390  37.466  14.915
40138W        W12563  18.294  37.425   4.123
40139W        W12564   8.729  39.377   3.363
40140W        W12565  29.151   0.311  14.499
40141W        W12566  35.891  39.001  13.982
40142W        W12567   2.931  10.502   0.222
40143W        W12568  37.368  25.013  10.521
40144W        W12569   5.818  28.490  13.887
40145W        W12570  21.993  43.842  13.167
40146W        W12571  26.188  12.108  13.980
40147W        W12572  30.628  26.208  12.153
40148W        W12573  42.397  11.082   1.317
40149W        W12574   8.727  30.867   2.241
40150W        W12575  30.545   7.382   4.086
40151W        W12576  25.094   9.285   0.038
40152W        W12577   7.888   9.174  13.457
40153W        W12578  37.658   7.842  14.984
40154W        W12579  34.338  25.041  14.690
40155W        W12580  16.045  39.396  13.041
40156W        W12581  19.134  31.103  13.353
40157W        W12582  42.815  16.968  14.721
40158W        W12583  25.816  25.221   0.854
40159W        W12584  16.483  14.777  13.037
40160W        W12585   1.712   5.274  11.722
40161W        W12586  41.580  28.110  13.009
40162W        W12587  25.095  34.262  14.692
40163W        W12588  23.536   9.622  10.142
40164W        W12589  34.762  30.099   0.032
40165W        W12590  43.523  39.435  14.954
40166W        W12591  40.246  19.995   4.231
40167W        W12592  29.071  19.329   0.329
40168W        W12593  26.906   1.800   4.164
40169W        W12594   0.174  28.513  13.079
40170W        W12595  14.068  26.168   1.284
40171W        W12596  23.693  30.790  14.740
40172W        W12597  20.658  35.645  12.908
40173W        W12598  32.146   4.623  14.035
40174W        W12599  20.516  36.814  14.787
40175W        W12600  36.814  10.729   2.763
40176W        W12601  28.472  21.058  11.559
40177W        W12602   2.536  26.932   3.723
40178W        W12603   5.456  20.306  14.352
40179W        W12604  35.009   7.237  13.446
40180W        W12605   4.682  44.794   4.121
40181W        W12606  25.968  11.444   1.208
40182W        W12607  29.736  11.800  10.717
40183W        W12608  22.698  20.147   1.324
40184W        W12609  44.741  40.040  12.657
40185W        W12610   2.619   3.003  11.937
40186W        W12611  31.920  32.065   3.201
40187W        W12612  32.511  25.238   3.326
40188W        W12613  22.481   8.066   1.954
40189W        W12614  19.142  15.685   2.339
40190W        W12615   5.781   3.812   4.746
40191W        W12616  12.212  42.240   1.269
40192W        W12617  40.795  17.172  13.501
40193W        W12618   3.939  11.739   4.527
40194W        W12619   5.888  17.295  14.793
40195W        W12620   2.872  20.255  10.738
40196W        W12621  40.698   3.301   3.157
40197W        W12622  26.984  29.987   2.915
40198W        W12623  26.424  19.604  11.560
40199W        W12624   7.752  28.717  10.884
40200W        W12625  37.626  13.147   0.787
40201W        W12626  34.858   5.172  13.478
40202W        W12627  24.612  32.556   4.190
40203W        W12628  12.907  19.544   5.048
40204W        W12629  23.179   8.365   3.650
40205W        W12630  44.242  21.008  14.608
40206W        W12631  10.550  21.923  12.509
40207W        W12632  25.574  35.076   2.885
40208W        W12633  21.034   6.691  14.973
40209W        W12634  32.985  40.320   0.776
40210W        W12635   1.842  15.700   0.691
40211W        W12636   1.419  37.637  11.150
40212W        W12637  42.774  25.913  10.840
40213W        W12638  13.287  30.199   2.663
40214W        W12639  35.104  34.930  10.800
40215W        W12640  33.729   6.157   0.824
40216W        W12641  26.779  14.255  11.192
40217W        W12642  28.922  33.359  10.162
40218W        W12643  22.027   1.188  13.549
40219W        W12644  26.144  19.793  12.496
40220W        W12645  26.265  21.807   3.575
40221W        W12646  11.095  34.824   0.448
40222W        W12647  23.644  34.821   4.065
40223W        W12648  36.612  30.589   2.166
40224W        W12649  15.181  13.311  11.148
40225W        W12650  40.640  23.774  11.950
40226W        W12651  19.107  14.340  10.396
40227W        W12652  27.482   6.988   3.825
40228W        W12653  18.544  16.287   0.167
40229W        W12654  24.003  32.398  12.473
40230W        W12655   5.161  18.238   0.349
40231W        W12656  13.906   7.610   5.019
40232W        W12657  43.759   6.621   4.145
40233W        W12658  27.186  19.079  12.016
40234W        W12659  11.467  38.583   4.597
40235W        W12660   2.753  33.643   4.247
40236W        W12661  19.027   8.424   1.431
40237W        W12662  38.296   9.235  14.379
40238W        W12663  37.131  33.895  11.383
40239W        W12664   9.326  26.523   3.912
40240W        W12665   8.629  12.188  11.997
40241W        W12666  25.079  17.278  14.816
40242W        W12667  39.934  27.480  14.397
40243W        W12668  19.716  18.628   2.306
40244W        W12669  31.565  29.405  14.807
40245W        W12670  44.341  37.001  10.527
40246W        W12671  13.959  37.797  11.912
40247W        W12672  12.418  12.756  14.779
40248W        W12673  26.611  37.751  10.686
40249W        W12674   9.885  18.290   2.929
40250W        W12675  28.639  26.681   4.646
40251W        W12676  19.327  28.901  12.102
40252W        W12677  43.757  41.232   1.345
40253W        W12678  30.144  14.809  13.363
40254W        W12679   1.969  32.656  12.533
40255W        W12680  33.556   9.146   0.708
40256W        W12681   5.949  17.593  11.338
40257W        W12682  36.499  23.670  10.309
40258W        W12683  22.545  32.965  12.426
40259W        W12684  38.488  30.998  14.350
40260W        W12685  14.546  22.222  12.290
40261W        W12686  14.802  44.338   3.159
40262W        W12687  41.396  23.128   1.490
40263W        W12688  14.995  30.664   3.694
40264W        W12689  20.139  42.585  11.986
40265W        W12690  15.102  26.282   4.666
40266W        W12691  17.256  37.466  11.398
40267W        W12692  42.552  36.289  11.873
40268W        W12693   8.169   2.827   1.460
40269W        W12694  12.764  42.551  12.568
40270W        W12695  29.414  32.643   4.641
40271W        W12696  26.605  30.542   1.606
40272W        W12697  11.680  27.998   1.840
40273W        W12698  34.440  15.615   3.815
40274W        W12699  30.125   8.968  13.074
40275W        W12700   0.185   1.803  13.190
40276W        W12701   0.930  23.762   0.223
40277W        W12702  29.418  20.679  14.255
40278W        W12703  32.570  11.543  14.297
40279W        W12704   8.926  28.564   4.117
40280W        W12705  18.172  21.132   1.553
40281W        W12706  36.487  33.440  14.236
40282W        W12707   5.266   8.118  13.420
40283W        W12708  21.027  17.370   3.243
40284W        W12709   3.901  35.319  10.640
40285W        W12710  43.804  42.291   1.257
40286W        W12711  17.085  21.678   1.681
40287W        W12712  31.466   9.808   3.362
40288W        W12713  29.526  33.016   1.919
40289W        W12714   9.336  29.864  12.807
40290W        W12715  44.777  25.973   2.893
40291W        W12716  18.344  29.581  14.215
40292W        W12717  44.269  26.017   0.636
40293W        W12718   8.111  11.392  12.970
40294W        W12719   5.961  28.415   3.596
40295W        W12720  42.244  21.731  13.888
40296W        W12721  32.571  29.675  12.612
40297W        W12722  14.447  43.680  11.532
40298W        W12723  29.684  29.719  13.890
40299W        W12724  14.584  35.350   4.876
40300W        W12725   9.773  38.480   0.526
40301W        W12726  43.360  44.480   4.576
40302W        W12727   1.400   5.758   3.218
40303W        W12728  43.772  22.002   4.889
40304W        W12729  21.162  33.572  12.825
40305W        W12730  34.489  38.093  11.576
40306W        W12731  41.999  17.826  14.237
40307W        W12732  36.803  10.448   4.341
40308W        W12733   5.665  36.133   4.671
40309W        W12734  37.070  18.272   1.869
40310W        W12735  15.735  10.240   2.766
40311W        W12736  12.211  13.747   2.802
40312W        W12737  21.480  11.867  13.982
40313W        W12738  30.893  16.804  12.304
40314W        W12739  15.640   5.156  10.810
40315W        W12740  39.973  23.731   2.692
40316W        W12741  37.674  33.958  11.527
40317W        W12742  30.451  11.637   2.620
40318W        W12743   9.177  28.757  14.472
40319W        W12744   8.359  29.816   1.792
40320W        W12745  37.520   0.619   5.037
40321W        W12746  24.092  27.423   2.569
40322W        W12747  38.889   6.915  12.605
40323W        W12748  16.629  15.036   3.024
40324W        W12749  15.731  23.479   3.192
40325W        W12750  23.941  16.696   0.231
40326W        W12751  34.013  27.776  11.581
40327W        W12752  39.549  33.425  14.749
40328W        W12753  17.773  14.380   3.690
40329W        W12754  29.887  22.665  11.612
40330W        W12755  30.918   1.531  11.815
40331W        W12756  29.168   5.803  13.551
40332W        W12757  18.165  32.310   1.797
40333W        W12758  14.104   8.712  12.483
40334W        W12759  10.656  20.128   0.840
40335W        W12760  32.429   9.852   4.410
40336W        W12761  21.629  44.573  12.894
40337W        W12762  29.058  36.562  12.881
40338W        W12763  14.162  37.585  14.379
40339W        W12764  29.648  39.902  12.811
40340W        W12765  42.034  32.856   2.056
40341W        W12766  16.336  42.350   0.468
40342W        W12767  16.307   2.334  11.430
40343W        W12768  32.373   7.322  14.297
40344W        W12769  30.905   3.345  13.410
40345W        W12770   8.465  31.591   2.779
40346W        W12771  20.862  31.374  12.030
40347W        W12772  16.852  12.906   0.942
40348W        W12773  43.726   6.428  10.649
40349W        W12774   8.738  38.062   3.827
40350W        W12775   7.866   2.223   1.323
40351W        W12776  38.008   5.186  14.220
40352W        W12777  42.890  42.113  11.138
40353W        W12778  24.738   2.979  11.512
40354W        W12779  39.289  40.561   2.170
40355W        W12780  19.621  33.175  14.005
40356W        W12781   5.762  39.053   4.663
40357W        W12782  40.612  43.845  11.372
40358W        W12783  10.880   5.036   4.568
40359W        W12784  22.033  39.195   1.830
40360W        W12785  42.958  26.105   1.408
40361W        W12786  37.052  14.651  10.649
40362W        W12787  38.560   1.822  13.816
40363W        W12788   0.865  20.383   2.241
40364W        W12789  24.493   4.247  10.935
40365W        W12790  18.614   6.869  12.472
40366W        W12791  37.280  34.935  14.349
40367W        W12792  37.868  24.037  13.468
40368W        W12793   9.742   5.597   1.213
40369W        W12794  15.753  29.560   1.411
40370W        W12795  18.562  11.684   3.955
40371W        W12796   9.808  33.103   0.907
40372W        W12797   6.171  33.386  10.576
40373W        W12798  27.383   4.636  14.034
40374W        W12799  22.801   8.347   2.802
40375W        W12800  41.013   2.349   4.568
40376W        W12801  30.146  20.463   2.747
40377W        W12802   1.008  33.628  12.241
40378W        W12803  14.704  21.607  13.910
40379W        W12804  16.496   4.394  14.858
40380W        W12805   3.262  12.822   3.679
40381W        W12806  44.927   4.658   3.320
40382W        W12807   2.345  44.378   0.394
40383W        W12808  34.604   1.030   3.661
40384W        W12809  18.389  20.341  11.912
40385W        W12810   9.674  33.079   3.451
40386W        W12811  28.558   5.380  10.327
40387W        W12812  18.283  34.002   4.654
40388W        W12813  42.817  38.014   1.261
40389W        W12814  26.114  39.787   3.873
40390W        W12815  24.032  42.418  12.095
40391W        W12816  34.009   9.699  14.517
40392W        W12817  30.090  30.942  12.834
40393W        W12818  43.319  27.119  11.527
40394W        W12819  39.395  40.776   1.704
40395W        W12820  11.214  18.577   1.241
40396W        W12821   9.015   4.168  14.755
40397W        W12822   2.820  29.657   0.886
40398W        W12823  14.463  34.338   0.800
40399W        W12824  39.060  14.760  11.966
40400W        W12825   1.040  19.074  11.540
40401W        W12826  42.677  43.255   3.136
40402W        W12827  34.475  27.627  10.733
40403W        W12828  41.013  18.519  13.326
40404W        W12829  10.301  32.636   3.238
40405W        W12830  25.196  26.430   2.206
40406W        W12831   1.766   0.418   2.673
40407W        W12832  25.109   0.647  13.515
40408W        W12833  15.152  44.750  12.909
40409W        W12834  26.940   7.728  12.956
40410W        W12835  24.997   0.228  12.170
40411W        W12836   5.299  43.213  10.753
40412W        W12837  26.066  34.438  12.850
40413W        W12838  36.824   3.430  14.304
40414W        W12839  15.146  44.968   4.095
40415W        W12840  37.841  30.757  10.970
40416W        W12841  29.415  27.710  13.817
40417W        W12842  30.499  31.884  11.486
40418W        W12843  30.487  31.688   0.828
40419W        W12844  27.419  19.568   3.230
40420W        W12845  26.481  26.200  10.633
40421W        W12846  27.551  41.666   0.853
40422W        W12847  12.558  22.313   0.285
40423W        W12848  43.703  24.007  12.863
40424W        W12849  41.408   8.279   1.276
40425W        W12850  25.513  26.549   1.739
40426W        W12851  29.442  20.091   3.423
40427W        W12852   0.410  27.211   4.739
40428W        W12853  40.472  38.102  14.041
40429W        W12854  21.420  40.484   4.256
40430W        W12855  43.284  23.105   2.557
40431W        W12856   2.191  44.088  10.499
40432W        W12857  37.598  32.088  14.901
40433W        W12858  44.021  34.490   1.726
40434W        W12859  20.664  20.417   1.019
40435W        W12860  33.383  20.142  13.974
40436W        W12861  11.680  38.098   1.692
40437W        W12862  42.819  12.252   2.375
40438W        W12863   8.582  39.078   1.557
40439W        W12864  11.096   2.280   3.153
40440W        W12865  26.604   3.310   2.370
40441W        W12866  31.160  30.570   4.151
40442W        W12867  32.985  39.260  11.494
40443W        W12868   6.219   9.568   4.176
40444W        W12869  42.760  23.735   4.148
40445W        W12870  28.539  28.412   2.211
40446W        W12871  21.849  16.167   3.629
40447W        W12872  43.044   8.924  11.360
40448W        W12873  29.563  40.320  11.976
40449W        W12874  40.522  33.572   0.256
40450W        W12875  35.960  32.651   0.175
40451W        W12876  22.053  28.091   3.097
40452W        W12877   4.570  23.893   5.114
40453W        W12878   2.900  26.200  14.745
40454W        W12879   0.938  17.695  14.076
40455W        W12880  19.669   6.239  14.947
40456W        W12881  21.159  15.408   5.087
40457W        W12882   3.963  27.614   1.328
40458W        W12883  13.160   4.320  14.754
40459W        W12884  35.984   3.485   3.665
40460W        W12885  28.410  40.418   0.532
40461W        W12886   1.205   6.805  14.952
40462W        W12887  14.303  44.244   3.242
40463W        W12888  27.321  38.402  12.448
40464W        W12889   1.345   8.865  14.287
40465W        W12890   9.625  26.619  13.265
40466W        W12891  43.797  43.208  13.516
40467W        W12892  40.361  20.068   0.365
40468W        W12893   5.728  42.819   2.430
40469W        W12894  19.135  17.572  11.898
40470W        W12895  35.115  23.926  11.617
40471W        W12896  12.314  38.242  14.058
40472W        W12897  17.356  26.873   0.951
40473W        W12898  18.369  14.306  12.598
40474W        W12899  32.253  32.293  14.682
40475W        W12900   8.455  32.687   2.149
40476W        W12901  19.921  31.293   3.691
40477W        W12902   6.496  39.412   0.413
40478W        W12903   4.657  43.781   1.168
40479W        W12904  19.799  21.555   1.195
40480W        W12905  39.065  14.085  12.160
40481W        W12906  37.824   4.291  11.912
40482W        W12907  23.256  37.079   2.667
40483W        W12908  37.522   3.282  10.827
40484W        W12909   3.354   4.653  14.417
40485W        W12910   5.548  10.742  11.591
40486W        W12911  28.441  44.178  14.825
40487W        W12912   5.018  16.640   1.345
40488W        W12913  27.927  23.668  13.411
40489W        W12914  21.063   3.946   5.061
40490W        W12915  23.785  41.551  14.318
40491W        W12916  18.216  39.682   4.364
40492W        W12917  40.437   6.661  10.709
40493W        W12918   0.951   3.711  14.070
40494W        W12919  26.258   1.938  12.309
40495W        W12920  31.806  15.302  12.897
40496W        W12921  13.320   7.376  10.762
40497W        W12922  22.533  28.646  11.154
40498W        W12923   3.239  24.986   1.607
40499W        W12924  22.125   3.502   4.168
40500W        W12925  12.000  44.795   0.451
40501W        W12926   2.855  33.476   2.348
40502W        W12927   1.463  42.165  11.542
40503W        W12928   7.449   6.323   4.674
40504W        W12929  20.324  14.480  14.762
40505W        W12930   2.901  22.147  13.856
40506W        W12931  25.093  25.647  14.461
40507W        W12932  14.160  36.138   0.486
40508W        W12933   0.457  23.298   3.420
40509W        W12934  25.041  15.789   2.755
40510W        W12935  35.811   4.540   4.509
40511W        W12936  13.003   2.967   2.091
40512W        W12937  38.470   4.470   3.505
40513W        W12938  43.088   8.130   1.816
40514W        W12939   0.429  32.588  13.516
40515W        W12940   8.656  36.230  10.623
40516W        W12941  21.901  26.035  11.588
40517W        W12942  37.526  39.420  12.965
40518W        W12943  44.874   9.153  12.528
40519W        W12944  23.934  33.842   3.203
40520W        W12945  34.902   9.375   3.806
40521W        W12946  20.641   2.295   3.602
40522W        W12947  18.557   0.729  13.351
40523W        W12948   8.312  14.371   3.674
40524W        W12949  13.825  23.057   4.429
40525W        W12950   0.524   4.636  11.745
40526W        W12951  39.772  29.916   4.111
40527W        W12952  25.418  13.923  11.547
40528W        W12953  24.674   4.627  14.377
40529W        W12954  17.701  24.909   1.807
40530W        W12955   4.243  12.709  12.106
40531W        W12956  23.121  32.375   2.215
40532W        W12957  31.421  12.199  14.804
40533W        W12958  33.004  11.534   3.393
40534W        W12959  33.091  14.008  12.431
40535W        W12960  12.185  19.828  12.905
40536W        W12961  34.376   4.147  14.506
40537W        W12962   5.157   3.146  14.957
40538W        W12963   0.022  34.548  10.918
40539W        W12964  11.315   1.643  12.858
40540W        W12965   8.481  34.468   2.788
40541W        W12966  35.540  29.159  13.830
40542W        W12967  18.269  35.164   4.074
40543W        W12968  35.348  41.544  11.491
40544W        W12969  16.119  31.857  10.612
40545W        W12970   9.652  22.358  12.769
40546W        W12971   5.383  10.380  14.914
40547W        W12972   2.005   0.499   3.683
40548W        W12973  27.577  12.792   3.006
40549W        W12974   0.376  41.596  13.418
40550W        W12975   1.048   2.921  13.020
40551W        W12976  26.977   9.392   2.270
40552W        W12977  42.972  26.185   4.671
40553W        W12978  24.149  18.091   0.385
40554W        W12979  18.936  11.702   4.726
40555W        W12980  11.199  13.624   3.728
40556W        W12981   0.878  31.144  14.385
40557W        W12982  37.342  26.458  11.875
40558W        W12983  18.723   5.271  13.374
40559W        W12984  21.766  36.817   2.745
40560W        W12985  31.907  19.090   3.211
40561W        W12986  41.587   6.136  14.885
40562W        W12987  44.887  24.816   4.499
40563W        W12988  23.530   2.890   0.369
40564W        W12989  28.839  39.977   4.131
40565W        W12990   7.205  26.115  11.930
40566W        W12991   5.940  18.791   4.493
40567W        W12992   8.207   8.371   0.356
40568W        W12993  40.434  12.925  14.605
40569W        W12994  19.651  22.945   1.545
40570W        W12995  26.217  25.879  11.025
40571W        W12996  37.471  10.332  12.334
40572W        W12997  11.377  44.261  11.588
40573W        W12998  28.204  38.076  11.380
40574W        W12999   0.865   9.546  11.311
40575W        W13000  10.791  11.668  11.467
40576W        W13001  31.132  25.108   5.221
40577W        W13002  24.280  43.890   3.139
40578W        W13003  39.493  24.151  11.644
40579W        W13004  30.360   3.902  14.524
40580W        W13005   1.532  44.803   2.678
40581W        W13006  21.262  24.235  11.564
40582W        W13007  40.443  26.390  12.572
40583W        W13008  17.104   1.638  12.492
40584W        W13009  20.556  13.603   1.216
40585W        W13010  42.498  39.212  12.029
40586W        W13011  11.767  26.657   0.866
40587W        W13012  26.992   7.829   3.083
40588W        W13013  44.969  16.848  14.275
40589W        W13014  43.546   0.237   1.795
40590W        W13015  27.746  23.956  11.159
40591W        W13016  31.837  33.513   0.061
40592W        W13017  43.874  34.656   2.826
40593W        W13018   1.229  40.473   4.227
40594W        W13019  42.069  32.657   3.747
40595W        W13020  32.497  14.186  14.200
40596W        W13021  20.669   9.954  13.364
40597W        W13022  37.897  33.079  10.611
40598W        W13023  28.213  11.121   3.253
40599W        W13024  17.819  21.726   3.557
40600W        W13025   5.855  34.641   0.676
40601W        W13026  35.457  26.765  13.506
40602W        W13027  37.351   9.353  13.998
40603W        W13028  29.491   9.946  10.374
40604W        W13029  27.887  16.334   1.208
40605W        W13030  34.880  11.149  10.684
40606W        W13031   1.447   1.650   3.476
40607W        W13032  21.517  15.841  13.020
40608W        W13033  40.089  44.771  13.558
40609W        W13034   1.894  43.434  14.502
40610W        W13035  23.457   5.866   2.708
40611W        W13036  20.181  35.817  13.067
40612W        W13037  36.368  44.124  14.414
40613W        W13038  12.240  37.170   0.853
40614W        W13039  10.762  21.761   0.968
40615W        W13040  33.042  28.660  10.422
40616W        W13041   0.113  30.594  13.863
40617W        W13042  42.778  30.201  12.328
40618W        W13043   0.929   1.527  12.564
40619W        W13044  33.923  16.206   3.362
40620W        W13045  21.087  27.420  11.214
40621W        W13046   7.556  22.688  12.089
40622W        W13047  39.765  17.609   1.141
40623W        W13048  40.749  32.874   3.264
40624W        W13049  15.378  44.966  12.499
40625W        W13050  19.818   6.570  13.508
40626W        W13051   9.168  37.939  13.346
40627W        W13052  20.988  25.022  14.151
40628W        W13053  10.395  43.487   4.587
40629W        W13054  36.101  40.843   0.882
40630W        W13055  44.365   1.326   4.178
40631W        W13056  32.080  41.364  14.446
40632W        W13057  29.369  26.540   4.151
40633W        W13058  21.803   2.322   2.129
40634W        W13059  28.028  20.011  11.125
40635W        W13060  14.581  15.155   1.565
40636W        W13061  18.969  44.965   2.743
40637W        W13062  38.702  33.414   0.897
40638W        W13063  19.997  11.852   0.445
40639W        W13064  12.005  12.169  11.485
40640W        W13065  43.250  43.325  14.865
40641W        W13066   9.662  42.441  14.981
40642W        W13067  39.352  31.057  13.647
40643W        W13068   5.222  43.323  12.601
40644W        W13069   3.477   2.927  12.371
40645W        W13070  27.100   1.712   2.857
40646W        W13071  20.274  35.858  14.411
40647W        W13072   1.034  36.957  11.520
40648W        W13073   9.888   8.277  12.419
40649W        W13074   9.704  28.041   1.159
40650W        W13075  39.594  38.632   1.202
40651W        W13076  25.628   1.724  10.733
40652W        W13077   2.258  33.906  13.003
40653W        W13078  33.664  43.662  11.069
40654W        W13079  24.697  16.694  14.594
40655W        W13080   6.441   4.354  11.663
40656W        W13081  26.692  39.181  13.760
40657W        W13082   1.851   0.717  14.466
40658W        W13083  27.962   3.803  12.990
40659W        W13084   8.624  19.660  13.169
40660W        W13085  41.817  34.707  12.592
40661W        W13086  36.839   6.568  11.665
40662W        W13087  27.666  37.824   1.423
40663W        W13088  19.742  39.812  14.406
40664W        W13089  41.305  12.156  12.583
40665W        W13090  20.136  22.497   1.290
40666W        W13091  12.483  28.684  10.453
40667W        W13092  25.741   5.981  12.884
40668W        W13093  23.219  25.399  10.360
40669W        W13094  41.770   4.622  14.896
40670W        W13095  16.792  37.895   4.892
40671W        W13096  36.967  15.299   2.752
40672W        W13097  13.191  11.817  14.461
40673W        W13098  17.747   6.359  11.109
40674W        W13099  28.090  42.467   3.379
40675W        W13100  13.178   5.300   2.271
40676W        W13101   9.359  18.728   4.102
40677W        W13102  22.172   9.301   0.971
40678W        W13103   8.441   7.790  11.513
40679W        W13104   4.822  37.370   1.831
40680W        W13105  38.808  15.333   3.449
40681W        W13106  20.485  40.565   0.479
40682W        W13107  39.841  39.830  14.468
40683W        W13108  33.106   6.669   0.951
40684W        W13109  20.719  10.129   4.123
40685W        W13110  44.917  13.123  13.694
40686W        W13111  25.295  18.145  13.836
40687W        W13112  22.065  34.859  10.565
40688W        W13113  32.648  33.551  14.335
40689W        W13114  42.488  43.111  11.338
40690W        W13115  13.760  16.645   1.304
40691W        W13116   4.169   7.283  12.460
40692W        W13117  44.163  17.680   1.340
40693W        W13118   1.861   1.288   2.199
40694W        W13119  36.105   1.860   3.193
40695W        W13120  34.999  38.900   1.435
40696W        W13121  28.031   2.263   2.729
40697W        W13122  32.372  43.921   2.879
40698W        W13123  14.594  41.289  10.991
40699W        W13124  43.644  29.907   3.151
40700W        W13125   6.990  13.857   1.741
40701W        W13126   0.995  41.951   0.279
40702W        W13127  38.134  25.946   1.830
40703W        W13128  29.008  11.858   0.887
40704W        W13129  43.354  16.205  14.677
40705W        W13130  13.159  27.232   1.149
40706W        W13131  13.931  29.447  13.144
40707W        W13132  33.148   2.442  12.649
40708W        W13133  14.377  19.165  12.959
40709W        W13134  21.980  16.047   4.114
40710W        W13135  15.312  44.923   0.271
40711W        W13136  29.004   5.451   3.193
40712W        W13137  42.379  40.828  11.021
40713W        W13138  40.260  12.130  14.927
40714W        W13139   1.723  28.066   2.742
40715W        W13140   1.723  32.313   3.593
40716W        W13141  37.541  13.403   4.041
40717W        W13142  35.120  19.187  14.695
40718W        W13143  10.895  15.311   3.342
40719W        W13144  42.409  10.302  10.473
40720W        W13145   2.753  31.052  11.976
40721W        W13146  28.229  33.412  14.427
40722W        W13147   4.889  20.728  13.202
40723W        W13148  31.255  20.951   2.271
40724W        W13149  31.171  36.369   1.649
40725W        W13150  37.282  11.712   4.501
40726W        W13151  44.815  39.303   3.351
40727W        W13152  20.570  42.226  10.653
40728W        W13153  39.799  37.482   3.356
40729W        W13154   2.019  16.442  12.869
40730W        W13155  23.531   5.315   4.350
40731W        W13156   1.671  24.238   1.586
40732W        W13157  43.040  26.567  12.029
40733W        W13158  30.093  31.530   1.139
40734W        W13159   4.965  32.045   1.804
40735W        W13160  33.397  28.628   1.407
40736W        W13161  39.778  42.426   2.833
40737W        W13162  31.916  38.835   0.500
40738W        W13163  43.574  29.817  12.657
40739W        W13164  23.986   9.954  11.659
40740W        W13165  20.301   0.394   3.853
40741W        W13166  12.211  39.754   0.524
40742W        W13167  32.434  29.865   2.880
40743W        W13168  11.302  26.063  14.297
40744W        W13169  17.827  10.781  13.496
40745W        W13170  18.037  44.869  10.112
40746W        W13171  44.897  38.857   3.664
40747W        W13172  35.917  24.011  14.901
40748W        W13173   2.545  29.671   1.332
40749W        W13174  19.750  43.117  11.078
40750W        W13175  12.183   1.964   4.415
40751W        W13176   2.988  41.599   3.938
40752W        W13177  41.819  18.574   1.695
40753W        W13178  19.712   2.832  13.534
40754W        W13179   0.284  30.337   1.220
40755W        W13180   9.382  27.689  12.428
40756W        W13181   7.692  18.728  10.673
40757W        W13182  23.831  35.078  11.088
40758W        W13183  23.744  30.667   3.149
40759W        W13184  31.726  23.261  11.379
40760W        W13185  17.891   0.661   1.305
40761W        W13186  16.064  44.458  11.644
40762W        W13187  37.662   5.383  11.638
40763W        W13188  44.387  23.820  12.009
40764W        W13189  13.358   7.385  11.676
40765W        W13190  29.662   4.769  11.655
40766W        W13191  24.577  38.119  12.908
40767W        W13192  30.193  21.611   2.185
40768W        W13193  27.556  35.349  11.228
40769W        W13194  21.388   4.359   5.089
40770W        W13195  38.584  23.168   3.309
40771W        W13196  26.758  35.112   3.837
40772W        W13197  14.329   5.352   1.727
40773W        W13198  18.300  26.198  11.689
40774W        W13199  11.248  26.455   1.797
40775W        W13200  36.508  18.115   1.923
40776W        W13201  23.568  41.236  11.083
40777W        W13202  35.209   8.450   4.189
40778W        W13203  17.797  38.757   4.544
40779W        W13204   0.171  18.171   4.612
40780W        W13205  29.376  25.438   2.174
40781W        W13206   5.822  26.808  14.714
40782W        W13207  16.575  33.450  12.391
40783W        W13208  10.130  43.223  11.547
40784W        W13209  35.101  39.457  12.942
40785W        W13210  22.203   8.363   2.778
40786W        W13211  40.308  20.831  11.600
40787W        W13212  39.973  29.493  12.399
40788W        W13213  32.981   0.787  12.316
40789W        W13214   0.912  11.466   1.979
40790W        W13215  26.267  18.162   2.854
40791W        W13216  29.272  41.303   2.887
40792W        W13217   1.234  28.479  14.779
40793W        W13218  36.119  36.110  13.199
40794W        W13219  15.577  29.575   2.232
40795W        W13220  29.692  22.723  10.265
40796W        W13221  36.116  27.040   2.228
40797W        W13222  38.385   2.838   4.532
40798W        W13223  38.566  10.723  11.569
40799W        W13224  27.919  18.182   2.298
40800W        W13225  30.550  13.248  13.586
40801W        W13226  31.353  34.391  14.084
40802W        W13227  21.006  33.492   2.200
40803W        W13228  31.550  30.947  13.457
40804W        W13229   3.741  39.348  12.890
40805W        W13230  43.953  27.431   2.382
40806W        W13231  18.278   7.355  12.502
40807W        W13232  30.040  40.965  10.450
40808W        W13233  12.387  22.060   2.879
40809W        W13234  35.388  11.444  14.827
40810W        W13235  24.058  30.163  12.085
40811W        W13236  24.989  24.027   3.135
40812W        W13237   8.515  21.767   3.085
40813W        W13238  44.667   7.729   3.051
40814W        W13239   3.765  22.729  12.952
40815W        W13240  35.364  30.247  10.660
40816W        W13241  27.141   6.897  12.127
40817W        W13242  39.126  15.113   0.909
40818W        W13243   7.264  10.386  14.405
40819W        W13244   3.375  27.741   0.618
40820W        W13245  17.168  29.360  13.882
40821W        W13246  37.602  26.044  12.110
40822W        W13247  28.488  24.776  11.614
40823W        W13248  26.469  32.527   0.874
40824W        W13249  44.049   6.328   1.273
40825W        W13250  30.764  13.430  11.158
40826W        W13251   4.840  39.696   3.996
40827W        W13252  37.335  27.012  14.056
40828W        W13253  13.716   0.931  11.952
40829W        W13254  11.304  22.606  14.718
40830W        W13255  22.337  16.315  12.091
40831W        W13256  42.672  21.036   5.544
40832W        W13257  33.484  44.002  10.614
40833W        W13258   5.401  28.957   3.131
40834W        W13259  21.114   5.379  14.238
40835W        W13260  35.357  10.117  12.000
40836W        W13261  10.867  12.383   2.735
40837W        W13262  31.322  35.250   0.785
40838W        W13263  33.642  28.713  11.919
40839W        W13264   8.737  31.881   2.373
40840W        W13265  43.051  30.841  11.615
40841W        W13266  21.318  30.099   3.620
40842W        W13267  28.584  42.289  12.847
40843W        W13268   2.016  25.177   1.328
40844W        W13269  20.756  17.295   4.118
40845W        W13270   8.073  14.666   0.010
40846W        W13271  19.021  38.383  11.981
40847W        W13272  10.628  43.331   4.089
40848W        W13273  11.677  44.679  12.548
40849W        W13274  21.212   9.488   5.456
40850W        W13275  42.603  35.359   3.736
40851W        W13276   5.389  41.211  14.921
40852W        W13277  42.986   6.001   1.396
40853W        W13278  14.218   5.139  12.365
40854W        W13279  23.027  38.964   2.698
40855W        W13280  29.641  20.559   3.483
40856W        W13281  35.470  36.787   0.916
40857W        W13282  40.778  40.454  13.971
40858W        W13283   3.913  43.235  11.043
40859W        W13284  32.423  18.203  10.518
40860W        W13285  38.414  30.894  14.865
40861W        W13286  11.892  27.622  11.825
40862W        W13287  19.514   8.182   0.265
40863W        W13288  34.396  13.088   4.180
40864W        W13289  25.657  40.476  11.818
40865W        W13290  12.921  37.019  10.572
40866W        W13291  15.500  40.877  11.978
40867W        W13292  10.623  24.495   4.934
40868W        W13293  39.779   3.267   4.331
40869W        W13294  39.061  15.536  14.739
40870W        W13295  18.085   0.344  13.948
40871W        W13296   1.430  17.119  10.490
40872W        W13297   8.385  37.610  13.467
40873W        W13298   0.756   6.978  13.540
40874W        W13299   4.493  28.412   1.819
40875W        W13300  15.802   8.309   0.604
40876W        W13301  43.846  36.703  11.351
40877W        W13302   8.231  44.589   1.206
40878W        W13303  33.718  36.856   1.938
40879W        W13304  18.859  44.216  10.179
40880W        W13305  38.063   1.334  12.791
40881W        W13306  21.975   6.841   2.752
40882W        W13307  22.481   6.540  13.955
40883W        W13308  43.435  20.432  12.483
40884W        W13309  41.895  17.556  13.292
40885W        W13310  43.810  34.926   1.918
40886W        W13311  15.461  31.350  12.442
40887W        W13312   4.295  35.476   2.843
40888W        W13313  24.204  31.943  10.593
40889W        W13314  17.107  20.818   0.697
40890W        W13315  38.483  22.960   0.240
40891W        W13316  32.899  28.760  14.165
40892W        W13317  31.719   4.969  13.948
40893W        W13318   8.188  23.944  12.454
40894W        W13319  20.407  18.421  12.459
40895W        W13320   0.196  11.039  12.266
40896W        W13321  36.601  11.747  10.759
40897W        W13322  40.980  30.544   1.321
40898W        W13323  32.106  36.352  11.705
40899W        W13324   1.269  35.077   0.800
40900W        W13325  25.990  21.105   0.930
40901W        W13326  10.371  21.507  14.890
40902W        W13327  36.787  35.475  12.633
40903W        W13328   7.416  32.377   4.109
40904W        W13329  25.918  33.963   0.199
40905W        W13330  30.658  24.665  12.587
40906W        W13331   0.620   2.085   9.990
40907W        W13332   9.500  42.845   0.366
40908W        W13333   5.024  11.651   2.858
40909W        W13334  36.965  14.631  13.574
40910W        W13335  23.215   3.685   0.562
40911W        W13336  23.773  12.841   0.316
40912W        W13337  21.499  11.430   0.501
40913W        W13338  30.671  43.956   2.356
40914W        W13339  30.218  39.096  12.455
40915W        W13340  11.144  32.075   1.695
40916W        W13341  15.931  26.634  11.073
40917W        W13342  10.571  12.790   3.071
40918W        W13343  13.607  39.436   0.722
40919W        W13344   9.136  20.104   3.160
40920W        W13345   3.755   2.321   2.447
40921W        W13346  14.701  41.386   0.221
40922W        W13347  21.714  28.013   4.867
40923W        W13348  24.868  10.393  10.619
40924W        W13349  12.213  33.387  13.805
40925W        W13350  18.734  29.081  14.385
40926W        W13351   3.201   8.796   2.718
40927W        W13352  35.945   6.949   2.360
40928W        W13353  21.973   9.243  11.741
40929W        W13354  22.948  34.866   0.513
40930W        W13355  14.580   1.873   4.196
40931W        W13356  35.082  20.328  13.255
40932W        W13357  27.039  30.146  12.605
40933W        W13358  34.574  41.542  13.554
40934W        W13359  35.514   5.734  11.593
40935W        W13360  17.749  40.934   1.054
40936W        W13361   5.855  15.139  11.113
40937W        W13362  18.315  21.664   3.455
40938W        W13363  43.912   1.421  14.303
40939W        W13364  35.362  38.609   3.170
40940W        W13365  44.220   5.362   1.214
40941W        W13366  16.079  42.805   2.325
40942W        W13367   0.861  23.105  14.552
40943W        W13368  31.961  44.213  14.320
40944W        W13369  16.832  20.039   2.307
40945W        W13370  22.032  22.323   1.548
40946W        W13371  35.368  15.440  11.004
40947W        W13372  43.217   9.331   4.385
40948W        W13373  36.622  11.643   2.359
40949W        W13374   9.692   6.432  14.859
40950W        W13375  39.332  43.060  12.294
40951W        W13376  19.273   4.492  14.695
40952W        W13377  25.638   0.486  13.518
40953W        W13378  12.752   8.897   3.249
40954W        W13379  18.262  21.707  12.029
40955W        W13380   4.190  43.471   3.892
40956W        W13381   7.325  16.397   0.834
40957W        W13382  12.322  27.413   0.714
40958W        W13383  44.929   1.543  14.317
40959W        W13384  13.763   5.724   2.853
40960W        W13385  10.737  30.164  12.475
40961W        W13386   7.717   6.240  13.692
40962W        W13387  23.254   8.696  10.651
40963W        W13388  37.359   9.671   0.427
40964W        W13389  41.032  42.228   1.437
40965W        W13390   8.614   5.658   9.695
40966W        W13391  12.056  44.774   2.891
40967W        W13392  34.580  44.452  14.744
40968W        W13393  26.677  39.873   2.106
40969W        W13394  28.737   4.878   3.439
40970W        W13395  16.245  39.455  14.387
40971W        W13396  25.342  19.505   0.386
40972W        W13397  12.367   9.950   2.793
40973W        W13398  31.022  16.727   5.454
40974W        W13399  10.335  14.230  13.315
40975W        W13400  22.784  43.511  10.723
40976W        W13401  27.504  35.999   4.148
40977W        W13402  33.569  42.859  10.011
40978W        W13403   3.477  34.502  11.154
40979W        W13404  30.694  41.810  14.417
40980W        W13405  41.914  35.370  14.540
40981W        W13406  32.921  41.530   3.764
40982W        W13407  23.187  23.499   4.086
40983W        W13408  34.981  12.921   3.259
40984W        W13409  44.430   7.596   4.950
40985W        W13410  10.679   6.726  12.651
40986W        W13411  34.179  11.280   4.107
40987W        W13412  19.101   2.015   1.829
40988W        W13413  34.033   8.194   0.736
40989W        W13414   4.018  30.462  12.483
40990W        W13415   2.821  18.898  13.448
40991W        W13416  38.462   3.078  14.432
40992W        W13417  15.859  23.464  13.422
40993W        W13418  21.160  24.206   0.767
40994W        W13419  34.144  18.635  11.531
40995W        W13420  15.192  34.964  10.836
40996W        W13421  19.917   9.395   1.421
40997W        W13422  16.139  44.614  14.002
40998W        W13423  27.576  20.130  10.882
40999W        W13424  17.370  29.978   1.743
41000W        W13425  19.814  37.714  13.226
41001W        W13426  15.374  30.064   2.193
41002W        W13427  12.514  15.757  12.442
41003W        W13428  13.872  26.643   1.245
41004W        W13429  28.590  14.299   2.268
41005W        W13430  42.957  36.755   4.573
41006W        W13431   0.133  12.006  11.126
41007W        W13432   0.234  20.453  13.292
41008W        W13433  28.448  14.724  10.627
41009W        W13434  42.997   6.259   5.055
41010W        W13435  22.583  43.874  14.095
41011W        W13436  34.419  10.963   1.748
41012W        W13437  18.557  39.002   3.522
41013W        W13438  20.062   9.146   2.919
41014W        W13439  22.572   9.943   2.339
41015W        W13440  37.409  12.181  13.080
41016W        W13441  28.621  16.820  13.891
41017W        W13442   0.445  27.465  12.374
41018W        W13443  34.094  41.841   1.639
41019W        W13444  32.475  24.108   2.279
41020W        W13445   1.027  14.744  14.463
41021W        W13446  35.738  36.151   2.828
41022W        W13447   1.959  11.778  12.414
41023W        W13448   8.384  32.893   3.351
41024W        W13449  20.289   5.902   3.868
41025W        W13450  25.443  33.386   0.485
41026W        W13451   6.176   9.735   0.557
41027W        W13452  43.123  15.584  11.753
41028W        W13453  25.202  44.314  12.662
41029W        W13454  40.047  14.832   2.791
41030W        W13455   2.485  37.524   0.514
41031W        W13456  14.093  18.398   5.054
41032W        W13457   4.085   5.477  11.916
41033W        W13458  41.765  31.411  11.939
41034W        W13459  35.739  10.326  10.686
41035W        W13460   7.401   6.603  11.511
41036W        W13461  37.521  25.165   3.248
41037W        W13462  28.646  20.526  11.560
41038W        W13463  35.128   5.635   0.949
41039W        W13464  34.483  11.763   0.307
41040W        W13465  39.895  24.481   0.239
41041W        W13466   7.756   0.153   4.271
41042W        W13467  13.789  17.598   3.655
41043W        W13468  31.529  15.679   0.974
41044W        W13469  42.873  42.680  13.482
41045W        W13470  21.196  10.338   3.177
41046W        W13471  12.259  33.429   1.450
41047W        W13472   9.150   0.863   4.138
41048W        W13473  14.808  43.346   0.359
41049W        W13474  26.369  25.923  11.963
41050W        W13475  23.201   0.692   2.439
41051W        W13476  30.439  41.708   0.559
41052W        W13477  22.779  33.642   4.983
41053W        W13478   7.751  36.450   3.685
41054W        W13479  38.490  27.242  10.631
41055W        W13480  36.316   1.966  12.861
41056W        W13481  19.522  20.474   2.192
41057W        W13482  20.796  23.116  12.146
41058W        W13483  24.272  14.203   3.325
41059W        W13484  35.803   2.980   2.435
41060W        W13485  38.260  26.261  11.495
41061W        W13486  27.234  24.229  14.460
41062W        W13487  23.781  20.121  14.071
41063W        W13488  12.839  33.853  12.199
41064W        W13489  39.324  36.464  14.761
41065W        W13490  22.498  43.355   0.287
41066W        W13491  30.145  12.132  14.958
41067W        W13492  29.699  21.578  13.518
41068W        W13493  14.635  12.206   2.946
41069W        W13494  30.659  28.683   3.102
41070W        W13495  28.542  36.678  12.917
41071W        W13496  28.944  16.205  14.729
41072W        W13497  25.448  28.681  12.027
41073W        W13498  33.684  26.096   0.442
41074W        W13499  14.680  38.825   1.242
41075W        W13500   1.776   9.650   4.928
41076W        W13501  17.118   7.132  13.468
41077W        W13502  26.228  33.007   2.211
41078W        W13503   6.359  17.829   0.383
41079W        W13504  23.453  13.062  12.942
41080W        W13505  31.286  26.637  14.304
41081W        W13506   8.331   7.044   2.757
41082W        W13507  43.844  20.146  10.470
41083W        W13508  36.765  42.441  13.985
41084W        W13509  27.751  13.765  14.689
41085W        W13510  39.831  31.857   0.402
41086W        W13511  37.494   9.663  13.055
41087W        W13512  41.441   7.420  11.111
41088W        W13513  12.513  18.733   4.424
41089W        W13514  30.460  16.422  13.967
41090W        W13515  11.377  29.525   3.420
41091W        W13516  34.032  27.624  12.625
41092W        W13517  38.520  27.124   4.430
41093W        W13518  34.986  27.392  11.427
41094W        W13519   3.816  20.227   2.767
41095W        W13520  14.596  43.913  10.733
41096W        W13521   1.703  41.342   3.125
41097W        W13522  34.281  24.743   4.359
41098W        W13523   2.092  17.190   4.224
41099W        W13524  12.845   4.150  12.331
41100W        W13525  29.637   9.097  11.554
41101W        W13526   5.914  43.240  12.970
41102W        W13527   5.253  20.375   1.248
41103W        W13528   6.046   9.008  12.890
41104W        W13529  26.081  31.517   2.410
41105W        W13530   4.220  33.636   3.661
41106W        W13531  25.042  42.427  13.297
41107W        W13532  26.105   9.179   2.959
41108W        W13533  21.459  39.483   3.329
41109W        W13534  32.080  22.045   0.834
41110W        W13535  17.216  20.683   3.432
41111W        W13536  42.938  17.780   0.883
41112W        W13537   3.717   0.243  14.498
41113W        W13538   5.948  34.664  11.999
41114W        W13539  20.764  24.579   2.272
41115W        W13540  38.608  37.797  13.116
41116W        W13541   5.416  11.674  13.050
41117W        W13542  27.225  19.262  13.867
41118W        W13543  25.558  37.014  14.344
41119W        W13544   3.681  11.231   3.825
41120W        W13545  16.591  33.696   3.270
41121W        W13546  37.051  29.590   3.433
41122W        W13547  39.001  25.657  13.653
41123W        W13548  25.027   5.638  12.396
41124W        W13549  13.564   3.142  13.924
41125W        W13550  12.649   7.732   4.652
41126W        W13551  33.813  32.740   2.381
41127W        W13552  14.213  18.527  10.715
41128W        W13553  32.446  29.663   2.206
41129W        W13554  38.970  29.397  10.797
41130W        W13555  15.172   6.350  12.632
41131W        W13556  31.883  29.885  10.454
41132W        W13557   1.739   2.688   2.709
41133W        W13558  26.535  27.535   1.317
41134W        W13559  31.516   3.588  11.121
41135W        W13560  32.922  20.198  14.268
41136W        W13561  23.877  30.927   0.352
41137W        W13562  12.861  12.539  13.043
41138W        W13563  25.624  15.377   2.329
41139W        W13564  35.375  15.662  12.564
41140W        W13565  20.098  43.412  14.404
41141W        W13566  24.679  30.123   3.889
41142W        W13567  15.078   7.256   3.441
41143W        W13568  26.702  18.042  14.871
41144W        W13569  39.856  30.207  13.131
41145W        W13570  27.240  16.877   3.838
41146W        W13571  44.142  12.430  14.358
41147W        W13572  23.257  12.215   3.051
41148W        W13573   1.005  34.085  10.767
41149W        W13574   5.444  20.228   1.702
41150W        W13575  43.328  30.656  13.785
41151W        W13576  34.614  19.074   0.825
41152W        W13577  41.376  16.665  14.959
41153W        W13578  25.928   6.268  12.479
41154W        W13579  40.860  33.684  13.293
41155W        W13580  25.652  15.760  11.275
41156W        W13581  41.807  28.052  11.949
41157W        W13582  12.779  42.023   3.587
41158W        W13583  23.985  13.977   1.775
41159W        W13584  12.638  18.876   3.408
41160W        W13585  40.483  26.069   4.573
41161W        W13586  36.439  18.029  14.980
41162W        W13587   3.801  34.927  11.849
41163W        W13588   2.516  27.477   0.771
41164W        W13589  11.249   5.715   0.264
41165W        W13590  35.079  36.824   3.402
41166W        W13591  13.484  43.891   4.684
41167W        W13592  21.127  29.770  14.431
41168W        W13593  18.711  29.040   4.608
41169W        W13594  31.646  18.219  14.966
41170W        W13595  43.055  14.770  14.005
41171W        W13596  41.976  35.598   4.274
41172W        W13597   8.216   2.296   0.932
41173W        W13598  37.344  11.709   1.268
41174W        W13599  21.073   6.723   2.939
41175W        W13600  17.804  22.590   1.865
41176W        W13601  37.725  34.575   0.911
41177W        W13602  35.645  40.560   1.549
41178W        W13603  19.644  35.275   0.255
41179W        W13604  39.153  21.861   1.755
41180W        W13605  14.042   1.877  10.514
41181W        W13606  13.846  42.385  11.466
41182W        W13607   4.884  36.469   3.411
41183W        W13608  17.023  42.304   3.362
41184W        W13609  10.695   2.373  13.308
41185W        W13610  25.084   3.777  10.408
41186W        W13611  29.126  34.419  14.439
41187W        W13612  22.353  34.196  11.855
41188W        W13613  32.811   4.264  11.034
41189W        W13614  12.805  26.588   1.199
41190W        W13615  19.222  16.940   2.674
41191W        W13616  37.390  15.160   1.416
41192W        W13617  39.601   8.840   0.289
41193W        W13618  37.040  10.809   4.076
41194W        W13619   5.997   7.231  13.788
41195W        W13620  20.103  33.465   0.523
41196W        W13621  19.064  17.724   0.511
41197W        W13622  43.815  42.790   1.431
41198W        W13623  10.205   6.758  11.587
41199W        W13624  32.646  39.980   2.468
41200W        W13625   1.706  33.858   2.354
41201W        W13626   3.239  27.767   0.114
41202W        W13627  33.945  28.028  13.385
41203W        W13628  22.745  42.377  11.462
41204W        W13629  25.372   6.244  11.128
41205W        W13630  15.710  18.519  11.481
41206W        W13631  20.500  15.319   3.826
41207W        W13632  32.620  38.001  13.618
41208W        W13633  37.132  11.031  14.256
41209W        W13634  38.463   0.570   3.935
41210W        W13635  11.378  37.539  12.976
41211W        W13636  41.289  42.130   5.094
41212W        W13637  29.474  13.141   2.943
41213W        W13638  25.640  26.019  13.982
41214W        W13639  38.607  41.356   1.887
41215W        W13640   2.507  39.265   0.859
41216W        W13641   9.641  43.990   1.811
41217W        W13642  39.906  37.564  13.122
41218W        W13643  44.783  33.585   2.686
41219W        W13644   3.814  25.616   2.160
41220W        W13645  42.338  13.873   0.826
41221W        W13646  25.307  14.190  10.386
41222W        W13647  39.589  30.668  11.511
41223W        W13648  18.223  29.700  12.462
41224W        W13649  39.822  13.574   0.919
41225W        W13650  35.246  16.510  13.912
41226W        W13651  16.578  34.176   0.518
41227W        W13652  30.687  15.726   1.906
41228W        W13653  12.301  26.911  14.984
41229W        W13654  38.661   4.418  14.438
41230W        W13655  37.994  37.936   4.675
41231W        W13656   5.114  18.105   2.301
41232W        W13657   4.958  17.265  14.642
41233W        W13658  36.415  41.828   0.077
41234W        W13659  10.365  24.501   1.390
41235W        W13660  24.875  33.174  14.254
41236W        W13661  44.076   2.568  13.525
41237W        W13662  27.639  13.908  12.065
41238W        W13663   0.522   8.247   2.433
41239W        W13664  28.418  41.433  11.193
41240W        W13665  26.124  30.595   1.838
41241W        W13666  23.962  25.349  11.629
41242W        W13667  35.242   7.172   1.682
41243W        W13668  41.416  30.414   3.015
41244W        W13669   4.207  43.459  13.393
41245W        W13670  23.560  33.318  12.946
41246W        W13671  27.907   9.390   3.660
41247W        W13672  43.914  21.077  10.816
41248W        W13673  43.860  42.908   0.940
41249W        W13674   4.383  31.687  10.694
41250W        W13675  28.867  38.896   0.781
41251W        W13676  17.641  34.501   3.419
41252W        W13677   8.125  37.328  11.524
41253W        W13678  17.351   8.847   2.359
41254W        W13679  37.326  16.787   1.880
41255W        W13680  23.280   6.025  12.871
41256W        W13681  10.425  16.216  12.021
41257W        W13682  31.706  43.777  14.462
41258W        W13683  34.699  26.052   3.161
41259W        W13684  35.113  34.412  10.946
41260W        W13685  17.567  18.288  10.446
41261W        W13686  28.655  31.971  10.247
41262W        W13687  21.999  10.209  12.882
41263W        W13688  37.421  33.970  12.364
41264W        W13689  39.376  36.516  11.088
41265W        W13690  15.826   4.352   2.232
41266W        W13691  15.555  38.515  13.046
41267W        W13692   6.864  31.805  13.613
41268W        W13693  44.996  40.893  13.937
41269W        W13694  44.727   9.766   2.400
41270W        W13695   7.938  39.808   0.608
41271W        W13696  35.911  40.243   0.658
41272W        W13697  36.174  38.515  10.650
41273W        W13698  26.121  17.773  11.639
41274W        W13699  41.190  27.916   4.632
41275W        W13700  31.897   0.230   1.229
41276W        W13701   3.107   5.279  13.817
41277W        W13702  16.646  32.157   3.110
41278W        W13703   2.685   9.392  10.672
41279W        W13704  34.002  38.964  10.028
41280W        W13705   1.473   3.669   3.705
41281W        W13706  12.668  19.137   0.840
41282W        W13707   9.549   5.266   0.799
41283W        W13708  17.000  35.588   1.286
41284W        W13709   5.554  16.317  12.365
41285W        W13710  25.246  14.648  12.046
41286W        W13711  11.230  14.891   3.330
41287W        W13712   5.445  14.226  10.615
41288W        W13713  10.844  14.337   4.250
41289W        W13714  31.915  23.624   2.661
41290W        W13715  12.903  26.768  13.357
41291W        W13716  14.031  44.693   0.838
41292W        W13717  43.028  16.140  11.953
41293W        W13718  15.433  24.691   4.475
41294W        W13719  39.931  28.662   3.285
41295W        W13720  24.682  42.307  11.882
41296W        W13721  23.478   0.454  10.489
41297W        W13722  44.696   5.283   2.255
41298W        W13723  32.427  27.874  13.941
41299W        W13724  26.093   6.409   2.411
41300W        W13725  29.887   1.489   0.307
41301W        W13726  37.506  37.559  13.089
41302W        W13727  42.712  14.770   0.806
41303W        W13728   5.446  19.250  12.018
41304W        W13729  25.534  20.590  10.548
41305W        W13730  30.369  17.372   1.313
41306W        W13731  28.238  10.713  10.691
41307W        W13732  28.780  17.936  13.418
41308W        W13733  29.610  19.089   3.708
41309W        W13734   3.742  27.086   2.295
41310W        W13735  20.955  44.525   5.026
41311W        W13736  17.842  34.857  12.094
41312W        W13737   0.755   8.180  12.512
41313W        W13738  26.171  30.648  11.161
41314W        W13739  14.558  33.247   2.412
41315W        W13740  39.378  35.490   2.754
41316W        W13741  36.968  19.297   0.783
41317W        W13742  11.502  18.231  12.371
41318W        W13743   2.249  31.594   1.252
41319W        W13744   2.120  19.864  11.891
41320W        W13745   1.147  37.997  12.898
41321W        W13746  26.209  27.071   0.694
41322W        W13747  17.664  14.606  13.488
41323W        W13748  10.099  34.150   4.657
41324W        W13749  26.441  30.552  10.280
41325W        W13750  12.538   1.278   0.454
41326W        W13751  21.105   7.278   2.370
41327W        W13752   4.888  24.625  12.557
41328W        W13753  19.010   6.891  14.881
41329W        W13754  20.331  23.931  11.644
41330W        W13755  35.154  40.752  11.561
41331W        W13756  41.428  13.743  11.049
41332W        W13757  39.288  17.076  14.062
41333W        W13758   4.165  40.920   3.731
41334W        W13759  38.462  15.669   3.241
41335W        W13760  12.242  34.425  13.786
41336W        W13761  35.976  41.785   1.315
41337W        W13762   2.640  24.404  13.514
41338W        W13763  18.770   1.783  14.191
41339W        W13764  29.697   6.446  13.900
41340W        W13765  18.755  31.670  10.253
41341W        W13766  34.380   5.833   3.444
41342W        W13767   6.806  33.512   3.712
41343W        W13768  29.744  38.082   4.113
41344W        W13769   7.393  30.495  14.981
41345W        W13770   5.965  18.290   3.738
41346W        W13771  28.963  20.173  12.785
41347W        W13772  22.319  27.380   1.521
41348W        W13773  15.572  31.655  12.040
41349W        W13774  20.155   2.964   3.240
41350W        W13775  14.077  29.419   4.159
41351W        W13776  26.433   7.767  10.586
41352W        W13777   6.377   8.268  14.433
41353W        W13778  13.820   1.214   2.278
41354W        W13779  16.346   4.927   3.333
41355W        W13780   1.940  34.067  10.345
41356W        W13781  36.017  37.712   4.043
41357W        W13782  14.108  20.532   2.621
41358W        W13783  32.033  28.234  13.872
41359W        W13784   6.815   7.667   1.327
41360W        W13785   1.912  35.278  11.808
41361W        W13786  14.436  18.982   1.801
41362W        W13787  33.189  26.418   0.918
41363W        W13788  36.583  24.622  11.301
41364W        W13789  10.512  27.935   0.854
41365W        W13790  43.968   6.693   3.309
41366W        W13791  16.099   2.283  14.865
41367W        W13792   7.794   4.976  11.768
41368W        W13793  20.386   7.187  10.062
41369W        W13794  12.413  40.289  12.478
41370W        W13795  25.787  30.166   1.796
41371W        W13796  21.814   5.393  11.588
41372W        W13797  19.181  14.173  13.336
41373W        W13798   1.868  37.461  14.554
41374W        W13799  17.349   5.414  12.930
41375W        W13800  22.058  14.099   4.612
41376W        W13801  19.144  21.057  13.049
41377W        W13802  39.150  39.981   1.324
41378W        W13803  24.192  19.854   2.289
41379W        W13804  17.737  32.705   4.883
41380W        W13805  10.836   7.819   3.341
41381W        W13806  34.052   5.872  12.601
41382W        W13807  28.124  39.088  11.576
41383W        W13808  13.643  28.413  11.648
41384W        W13809  44.047  14.854  14.491
41385W        W13810  38.525  42.597  13.408
41386W        W13811  20.735  29.960   3.889
41387W        W13812  41.981  22.601  10.241
41388W        W13813  41.412   9.115   2.860
41389W        W13814  12.861  28.579  12.994
41390W        W13815  38.910   6.635  11.153
41391W        W13816  14.546   8.666   1.328
41392W        W13817  44.381  19.103   1.771
41393W        W13818  14.881  26.673  13.363
41394W        W13819  42.852   1.794  12.882
41395W        W13820  14.894  39.779   2.580
41396W        W13821   9.313   4.019  13.748
41397W        W13822  18.250  14.011   1.506
41398W        W13823   5.791  35.508   2.452
41399W        W13824   0.856  13.314   1.470
41400W        W13825  30.509  30.662  12.967
41401W        W13826  16.929  12.942  12.108
41402W        W13827   1.732   4.405   3.291
41403W        W13828   2.792  13.715   2.894
41404W        W13829  35.330  18.180  10.637
41405W        W13830  43.895  37.788  14.858
41406W        W13831  23.567  24.612  11.210
41407W        W13832  13.385  13.804   3.644
41408W        W13833  16.102  31.451   0.343
41409W        W13834  43.431   7.876   1.243
41410W        W13835  19.759  39.418  13.896
41411W        W13836   0.427   1.063   3.316
41412W        W13837  16.253  26.778  14.670
41413W        W13838  11.645  40.416   1.586
41414W        W13839  22.971  12.120  13.806
41415W        W13840  36.431  11.528  14.938
41416W        W13841   2.251  14.276   0.011
41417W        W13842  27.157  25.488  10.688
41418W        W13843  10.432   4.795  14.003
41419W        W13844  14.859  21.663   0.488
41420W        W13845  19.212  44.240  13.022
41421W        W13846  27.490  38.549  11.015
41422W        W13847  44.925  41.853  13.396
41423W        W13848  40.085  24.425  14.359
41424W        W13849  20.600   8.811   3.565
41425W        W13850  10.717  40.351  13.801
41426W        W13851  19.193   5.401  11.130
41427W        W13852  32.613  39.943   2.983
41428W        W13853   3.704  25.662   5.200
41429W        W13854  17.262  16.040   2.757
41430W        W13855  37.482  23.709   0.463
41431W        W13856   2.019   7.769  12.077
41432W        W13857  28.950  17.676   3.595
41433W        W13858   6.421  33.080  10.904
41434W        W13859  44.279   6.333   2.171
41435W        W13860   3.465  37.769   1.844
41436W        W13861   3.353  11.981   0.368
41437W        W13862  15.225  19.782  11.535
41438W        W13863  35.361  12.006  13.113
41439W        W13864  44.721  29.353  12.147
41440W        W13865  43.800  36.201  11.492
41441W        W13866  18.059  32.898   1.255
41442W        W13867  25.336   5.677   2.341
41443W        W13868  38.259  43.005   3.160
41444W        W13869  16.385  38.901   4.507
41445W        W13870  21.843  22.249  12.014
41446W        W13871   5.967   9.194  14.853
41447W        W13872  22.330  11.485   5.502
41448W        W13873  17.612   8.893   0.905
41449W        W13874   8.935  21.613  13.499
41450W        W13875  39.011   9.180  13.005
41451W        W13876  34.393  32.101  11.101
41452W        W13877   2.433  27.655   4.176
41453W        W13878  10.972  41.423   1.164
41454W        W13879  10.848  26.713   0.921
41455W        W13880   7.969  44.889   0.717
41456W        W13881   9.319  44.833   1.793
41457W        W13882  33.956  44.917  11.986
41458W        W13883   7.279  16.255  11.193
41459W        W13884  15.480  22.189   3.792
41460W        W13885  29.911  39.111  12.865
41461W        W13886   0.443  40.517  13.122
41462W        W13887  31.031  35.972   2.304
41463W        W13888  40.468   1.739  13.164
41464W        W13889  38.674  38.419   0.858
41465W        W13890   2.229   9.232  12.930
41466W        W13891   4.915  36.399   4.207
41467W        W13892   9.155  27.966   2.455
41468W        W13893  14.153  34.397   1.839
41469W        W13894  30.946   9.641   4.158
41470W        W13895  19.712  38.583   1.679
41471W        W13896  20.778  30.907  11.807
41472W        W13897  36.057  35.840   1.536
41473W        W13898  42.876  34.974   2.338
41474W        W13899  36.133  11.360   3.111
41475W        W13900  24.914  17.710  10.678
41476W        W13901   0.460   5.715   2.268
41477W        W13902  21.648   5.501   2.684
41478W        W13903   5.192   0.620  11.228
41479W        W13904   9.693  28.927   0.890
41480W        W13905  24.191   8.646  10.553
41481W        W13906  28.903   0.875   4.300
41482W        W13907  19.122  30.059   5.240
41483W        W13908  33.376  22.491   2.793
41484W        W13909  32.207  17.085   4.240
41485W        W13910  30.339  24.474   1.898
41486W        W13911  42.378   7.385  12.536
41487W        W13912  11.260  11.316  11.985
41488W        W13913  36.456  43.729   3.581
41489W        W13914  22.797   0.578  11.073
41490W        W13915   4.414  16.706   0.668
41491W        W13916   4.455  33.592  11.900
41492W        W13917  28.954  16.660   0.485
41493W        W13918  34.832   4.480  12.786
41494W        W13919  31.387   8.931  13.022
41495W        W13920   3.239  34.507  11.620
41496W        W13921  36.945  36.426   1.422
41497W        W13922  29.327  41.786   3.389
41498W        W13923   7.003  34.432  14.121
41499W        W13924  41.577   1.830  12.559
41500W        W13925  39.208  14.170  14.541
41501W        W13926  18.052  43.916  14.057
41502W        W13927  16.052  22.280  10.339
41503W        W13928  19.832   9.282   0.862
41504W        W13929  24.132   3.873  10.852
41505W        W13930  39.939  34.519   3.145
41506W        W13931   3.409  21.051   2.844
41507W        W13932  43.717   8.196   2.918
41508W        W13933  36.506  23.046   1.225
41509W        W13934  11.331  30.502   1.827
41510W        W13935  30.569  31.935   0.348
41511W        W13936   4.797  10.062   5.042
41512W        W13937   5.435   8.718  11.164
41513W        W13938  15.189  38.990   1.963
41514W        W13939   9.246  40.448   3.633
41515W        W13940  33.385  16.233  11.276
41516W        W13941  20.765   5.206  13.839
41517W        W13942  33.320  25.376  12.069
41518W        W13943   3.726   9.334   2.267
41519W        W13944   6.197   4.686  14.904
41520W        W13945  31.896  43.822  13.980
41521W        W13946  16.722  25.573  12.458
41522W        W13947   8.638   2.468  14.352
41523W        W13948  14.165  11.614   1.244
41524W        W13949  13.023  43.113  13.438
41525W        W13950  36.368  23.623  14.321
41526W        W13951  25.700  24.009  13.230
41527W        W13952   4.988  42.094  13.268
41528W        W13953  12.348  34.133   3.604
41529W        W13954  35.770  32.917   0.622
41530W        W13955  12.955  43.858   4.694
41531W        W13956   8.697   6.765  11.133
41532W        W13957  34.620  32.328   3.308
41533W        W13958  26.778  17.785  10.299
41534W        W13959  34.160  14.159   0.531
41535W        W13960   2.878  27.007   2.130
41536W        W13961  17.151   9.673  14.265
41537W        W13962   9.093   7.771  12.323
41538W        W13963  32.586  44.966   3.698
41539W        W13964  26.737  17.178   1.723
41540W        W13965  28.492  12.776  10.543
41541W        W13966  40.205   7.564  10.743
41542W        W13967  43.811  32.649   3.963
41543W        W13968  44.486  31.799   5.053
41544W        W13969  21.707  36.614  12.059
41545W        W13970  15.674   3.893  13.405
41546W        W13971  27.507   3.877   4.690
41547W        W13972   6.180  39.401  12.553
41548W        W13973   0.993  11.297   1.178
41549W        W13974   8.338  19.022  10.880
41550W        W13975  33.182  23.047  13.155
41551W        W13976  26.970  39.010   0.536
41552W        W13977  15.517  42.325   2.758
41553W        W13978  25.494  17.062   4.109
41554W        W13979  32.868  25.933   4.704
41555W        W13980  13.611  10.346  10.967
41556W        W13981  39.464  18.497   4.076
41557W        W13982   6.243  27.514  11.926
41558W        W13983   0.194  31.693  11.950
41559W        W13984   0.072  24.741  12.862
41560W        W13985  17.077  43.021  13.791
41561W        W13986  10.336  16.294  10.689
41562W        W13987  31.728  42.437  11.432
41563W        W13988  16.987  22.218   0.159
41564W        W13989  39.680   1.228  14.934
41565W        W13990  10.872  25.739   1.268
41566W        W13991   3.796  35.909  12.959
41567W        W13992  33.955  39.892  11.035
41568W        W13993  33.546  42.177  10.918
41569W        W13994  21.579   8.374   0.374
41570W        W13995  38.818  11.205   2.826
41571W        W13996  18.033  22.588  14.114
41572W        W13997  10.159   6.017   1.835
41573W        W13998  24.950  40.928   3.977
41574W        W13999   3.227  28.586  12.830
41575W        W14000  13.459  37.904  14.234
41576W        W14001  21.404  32.160   2.148
41577W        W14002  14.649  38.959   2.695
41578W        W14003  34.054   5.662   2.648
41579W        W14004  16.612   7.864   0.069
41580W        W14005  35.413  42.039   1.974
41581W        W14006  13.881  44.459  10.530
41582W        W14007  10.696   8.080   0.984
41583W        W14008  34.957  15.665   1.700
41584W        W14009  17.408  19.363  11.296
41585W        W14010  25.192   9.169   4.323
41586W        W14011  39.334   0.431  11.999
41587W        W14012  27.345  38.132   3.167
41588W        W14013  40.009   1.337   4.598
41589W        W14014  19.279  12.043  11.084
41590W        W14015  42.175  25.475   4.663
41591W        W14016  30.235  12.681  12.065
41592W        W14017  34.377  26.699  12.544
41593W        W14018  11.289  39.390   0.323
41594W        W14019  27.687   7.388  12.568
41595W        W14020  34.727   4.785  14.964
41596W        W14021  23.663  19.805   2.321
41597W        W14022  33.354  21.247  10.682
41598W        W14023  19.583  30.328   5.141
41599W        W14024  24.758  42.945   4.222
41600W        W14025   7.837  30.880   2.451
41601W        W14026   4.743   1.336   0.310
41602W        W14027  39.108   6.475   4.025
41603W        W14028  33.589   4.536   3.311
41604W        W14029  40.959  25.473   3.280
41605W        W14030  32.776  16.356   1.972
41606W        W14031   5.588  39.755   1.193
41607W        W14032  24.663   3.529   1.827
41608W        W14033  39.525  10.195  14.514
41609W        W14034  22.543   4.380  14.846
41610W        W14035  33.156  37.684   2.816
41611W        W14036  16.549  17.192  12.676
41612W        W14037  37.798  31.115   4.536
41613W        W14038   6.148  17.559  13.292
41614W        W14039  25.085  43.867   4.042
41615W        W14040  13.418   6.410  12.084
41616W        W14041  20.099  19.188  12.958
41617W        W14042  17.382  34.549  12.654
41618W        W14043  32.859  27.499  13.896
41619W        W14044  13.464  33.874   1.203
41620W        W14045  43.062  38.834   3.792
41621W        W14046  14.156  34.672   0.526
41622W        W14047  13.365  22.727   2.287
41623W        W14048  30.817  17.688  11.888
41624W        W14049  34.904   4.755   0.459
41625W        W14050  36.435  27.841   2.127
41626W        W14051  31.850  23.544   4.491
41627W        W14052  42.583  28.951   0.869
41628W        W14053  19.054  22.001   2.157
41629W        W14054  30.423   8.493  12.371
41630W        W14055  16.093  43.696   3.800
41631W        W14056  42.327  26.612  10.928
41632W        W14057  17.214   9.202  12.516
41633W        W14058  19.378  29.785  12.978
41634W        W14059  34.557  41.058  13.773
41635W        W14060  25.579  17.689   1.924
41636W        W14061   7.165  42.974   0.372
41637W        W14062  32.589  13.131  14.302
41638W        W14063   4.687  12.859  11.818
41639W        W14064  43.469  35.839  10.879
41640W        W14065   5.358  34.480  14.880
41641W        W14066   0.977   6.738  11.293
41642W        W14067  14.590   2.839  12.357
41643W        W14068  18.666  42.218   0.278
41644W        W14069  44.810  33.524   3.854
41645W        W14070  32.603   1.975   2.341
41646W        W14071  16.876   2.300   1.714
41647W        W14072  14.655  36.781   2.259
41648W        W14073   4.762  18.001   3.366
41649W        W14074  28.720  44.387  14.462
41650W        W14075   4.449   2.038   3.159
41651W        W14076   4.799  31.145  13.993
41652W        W14077   1.116  40.940  12.357
41653W        W14078  34.454  31.853  10.651
41654W        W14079  13.711   0.413  14.336
41655W        W14080   1.324  43.246  11.653
41656W        W14081   8.362  10.813   0.938
41657W        W14082  21.695  25.053   0.215
41658W        W14083  19.190  28.546   0.875
41659W        W14084  37.468  40.758  12.557
41660W        W14085   5.311   8.607  12.537
41661W        W14086  30.024  43.418   0.365
41662W        W14087  41.011  42.094   0.755
41663W        W14088   5.526  18.128  13.808
41664W        W14089  25.974   2.895   1.924
41665W        W14090  20.788  14.689  10.546
41666W        W14091  39.534  13.201   0.728
41667W        W14092  29.373  42.071  12.499
41668W        W14093  30.324  43.415   2.219
41669W        W14094  36.535  29.464  11.964
41670W        W14095  36.459  18.215   5.135
41671W        W14096  16.672  13.216   2.737
41672W        W14097  31.380  22.616  13.784
41673W        W14098  41.046  42.611  12.573
41674W        W14099  26.024   9.742  12.019
41675W        W14100  44.982  12.679  14.716
41676W        W14101  10.879  43.869   2.826
41677W        W14102  34.417  34.674  12.352
41678W        W14103  36.057   2.679  14.783
41679W        W14104  24.044  10.389  13.919
41680W        W14105  38.782   5.245   4.513
41681W        W14106   5.028   0.456  13.823
41682W        W14107  32.934  32.627   2.322
41683W        W14108   5.805  32.638   1.817
41684W        W14109  13.151  38.251  11.093
41685W        W14110  13.876  39.782  14.594
41686W        W14111   6.802  17.192   2.328
41687W        W14112   1.773  31.292  11.912
41688W        W14113   8.400  10.424   1.381
41689W        W14114   3.887   3.499   2.831
41690W        W14115  36.203   0.699   5.013
41691W        W14116  44.019  34.056   2.441
41692W        W14117  28.036  41.760  11.236
41693W        W14118  15.856  20.652  14.511
41694W        W14119  14.330  43.149   0.223
41695W        W14120  38.536   0.821  11.450
41696W        W14121  43.575  28.114  13.919
41697W        W14122  40.844   4.715   4.720
41698W        W14123  24.014  18.329  13.482
41699W        W14124  19.959  12.820  14.471
41700W        W14125  26.241  25.615   3.554
41701W        W14126  26.808   5.720  10.493
41702W        W14127  12.656  44.869  10.875
41703W        W14128  31.856  41.811   2.386
41704W        W14129  39.645  25.030   0.065
41705W        W14130  20.114  11.784   1.901
41706W        W14131   9.265  30.461   1.728
41707W        W14132  26.938  10.275  10.590
41708W        W14133  31.848  24.116  12.179
41709W        W14134  43.827  31.177   4.691
41710W        W14135   6.086  37.924  12.884
41711W        W14136  26.229  15.128   3.730
41712W        W14137   0.611  38.724  11.181
41713W        W14138  41.937  24.886  11.318
41714W        W14139  24.726   5.835  10.710
41715W        W14140  12.320  33.958   0.721
41716W        W14141   2.454  10.665   4.073
41717W        W14142  25.092  17.246   4.409
41718W        W14143  25.554  17.562   0.894
41719W        W14144  25.227  15.098  14.111
41720W        W14145  31.676  17.317  10.218
41721W        W14146  35.656   1.815  12.558
41722W        W14147  27.084   4.235  13.856
41723W        W14148  37.765   8.327  12.929
41724W        W14149  31.490  19.047   0.324
41725W        W14150  24.764  16.052   4.230
41726W        W14151   0.809  34.486  11.541
41727W        W14152  14.887  20.798  12.939
41728W        W14153   8.312  30.088   4.105
41729W        W14154  35.265  42.656  13.849
41730W        W14155  28.190  26.576   4.377
41731W        W14156  26.215  42.262  12.071
41732W        W14157  33.136  19.519  11.044
41733W        W14158  12.291  29.160  10.590
41734W        W14159  43.995   6.811   4.589
41735W        W14160  43.059  36.030   3.223
41736W        W14161   7.528   3.414  11.555
41737W        W14162  23.730   1.798   0.429
41738W        W14163   6.682   6.377   4.803
41739W        W14164  15.275  13.592   0.432
41740W        W14165  22.835  26.729   1.720
41741W        W14166   5.235  28.085  11.123
41742W        W14167  17.874  44.470   0.829
41743W        W14168  29.597   6.970  11.045
41744W        W14169  16.290  30.011  13.983
41745W        W14170   5.424  22.497  13.993
41746W        W14171   3.222  15.270   1.658
41747W        W14172  37.583  38.938  12.406
41748W        W14173   9.303   7.121  10.739
41749W        W14174  33.495   4.972   1.701
41750W        W14175  22.496  13.809  11.564
41751W        W14176  17.787  37.298  11.374
41752W        W14177  27.075  15.202   2.412
41753W        W14178  43.474  24.132  10.727
41754W        W14179  42.448  20.335   0.798
41755W        W14180   1.789  34.521  10.644
41756W        W14181  25.525  19.447   2.302
41757W        W14182  18.585  37.890  10.826
41758W        W14183  19.564  31.329   4.136
41759W        W14184  13.261  27.566  14.827
41760W        W14185  31.953  26.183   3.135
41761W        W14186   1.046  18.845  12.023
41762W        W14187  40.886   3.841  12.332
41763W        W14188   4.889   0.257   3.144
41764W        W14189  35.992  35.444   4.293
41765W        W14190   7.610  24.135   0.768
41766W        W14191  35.323  35.035   4.706
41767W        W14192  11.894  28.161   3.657
41768W        W14193   9.394  14.218   0.779
41769W        W14194   4.480  27.105  14.003
41770W        W14195  29.619  26.468   3.691
41771W        W14196  13.599  32.716  10.780
41772W        W14197   0.845  35.417   0.919
41773W        W14198   0.388  12.714  12.364
41774W        W14199  21.927  11.381  13.308
41775W        W14200  21.041  25.471   1.402
41776W        W14201  31.407  38.895   2.828
41777W        W14202  15.808   1.933   5.060
41778W        W14203  32.616  11.844  12.087
41779W        W14204  19.499  27.356  11.904
41780W        W14205  29.164  42.843   4.605
41781W        W14206  20.327  25.781   0.896
41782W        W14207  10.611  32.886  10.467
41783W        W14208  13.148   6.732  10.452
41784W        W14209  31.085  10.833  11.610
41785W        W14210  26.217  38.468   1.536
41786W        W14211  25.584   7.448  13.820
41787W        W14212  25.668  11.642   4.105
41788W        W14213   1.955  26.051   3.854
41789W        W14214   6.216  34.883  14.032
41790W        W14215  43.518  33.184   0.961
41791W        W14216  28.472  10.675   3.092
41792W        W14217  23.539  43.781   1.501
41793W        W14218  44.756  40.635   4.341
41794W        W14219  24.762   4.970   3.706
41795W        W14220  22.089  38.444   1.805
41796W        W14221  38.792  37.904  14.973
41797W        W14222  44.284   4.945   3.627
41798W        W14223  14.661  11.110   4.576
41799W        W14224  40.009  26.178  12.025
41800W        W14225  28.540  12.340   0.470
41801W        W14226  22.068  20.032   1.606
41802W        W14227  29.601  19.263   3.229
41803W        W14228  33.701  32.439   0.302
41804W        W14229   6.651  17.564  13.406
41805W        W14230   2.265  10.665  14.863
41806W        W14231  27.885  35.463  13.018
41807W        W14232  25.909  41.516  13.077
41808W        W14233   7.809  22.558  14.038
41809W        W14234  22.709  13.181  13.798
41810W        W14235   3.792  44.528   2.774
41811W        W14236  11.788  32.241   3.230
41812W        W14237  27.277  43.762   0.928
41813W        W14238   7.100  36.856   1.915
41814W        W14239   3.749   6.219  11.020
41815W        W14240  16.169  41.354   2.868
41816W        W14241  18.141  20.210   4.600
41817W        W14242  41.447  32.345  10.845
41818W        W14243  10.146  26.710  14.558
41819W        W14244  18.405  10.334  14.454
41820W        W14245  18.355  34.910   4.712
41821W        W14246   7.735  14.532   2.666
41822W        W14247  18.266   0.514  14.403
41823W        W14248  21.485  21.162   1.754
41824W        W14249   3.487   6.734   3.165
41825W        W14250  44.271  42.330   2.793
41826W        W14251  17.375  14.086   0.668
41827W        W14252  39.634  13.842  14.563
41828W        W14253  42.858  36.333  14.249
41829W        W14254  12.364   8.876   0.401
41830W        W14255  28.540  31.632   1.990
41831W        W14256   0.851  39.743   4.617
41832W        W14257  44.640  38.251   2.294
41833W        W14258  21.647  22.944   2.866
41834W        W14259  31.552  31.480  14.483
41835W        W14260   6.623  14.109   2.021
41836W        W14261  38.578  10.685   3.577
41837W        W14262  10.363  15.111   2.498
41838W        W14263  41.422  43.288   9.845
41839W        W14264   7.737   2.332  10.916
41840W        W14265  28.002  16.369  14.730
41841W        W14266  21.791  13.230  13.798
41842W        W14267   5.132  11.430  11.921
41843W        W14268  42.569  32.494  13.265
41844W        W14269  28.690  29.467   0.336
41845W        W14270   9.328  36.885  13.546
41846W        W14271   2.797   5.815   0.037
41847W        W14272  44.756  23.239  13.926
41848W        W14273  25.741   4.878  14.875
41849W        W14274   1.526  26.454   4.574
41850W        W14275   8.302  17.569   2.293
41851W        W14276  43.505   1.365  11.631
41852W        W14277  40.692  33.145   0.943
41853W        W14278  39.991  20.263   3.315
41854W        W14279  17.632  12.670   3.312
41855W        W14280  15.499  39.317  13.121
41856W        W14281  20.616  39.290   1.509
41857W        W14282  38.887   5.280  10.734
41858W        W14283  15.284   8.188  13.285
41859W        W14284   9.854  35.859   4.176
41860W        W14285  27.636  11.373  10.649
41861W        W14286  37.117  11.664   3.109
41862W        W14287  34.939  12.836  13.557
41863W        W14288  44.758  16.810  12.838
41864W        W14289   7.915   1.982   3.680
41865W        W14290  26.595  29.942   2.446
41866W        W14291  28.465  14.286   2.810
41867W        W14292   7.493  11.931   2.621
41868W        W14293   2.490   7.827   1.321
41869W        W14294  28.441   8.979  11.632
41870W        W14295  34.137  16.744   1.654
41871W        W14296  21.538  34.404  12.289
41872W        W14297  37.224   7.639   4.512
41873W        W14298  33.849  16.582   1.251
41874W        W14299  19.392  24.917   0.884
41875W        W14300  21.842  32.059  13.102
41876W        W14301  42.710  40.902  13.277
41877W        W14302  29.701  29.255  11.830
41878W        W14303  24.758  28.625   1.402
41879W        W14304  19.394  13.204   2.350
41880W        W14305   8.968  21.560   0.804
41881W        W14306  43.036  42.266   4.246
41882W        W14307  12.821  26.241   0.093
41883W        W14308  39.932  15.774  14.226
41884W        W14309  35.962   3.202   0.816
41885W        W14310   8.636  31.390  13.531
41886W        W14311   2.302  41.495   1.786
41887W        W14312  18.818  39.276  13.102
41888W        W14313  18.802   8.161   4.507
41889W        W14314  37.849  23.795   2.278
41890W        W14315   0.881   3.985  13.340
41891W        W14316  21.990   1.675  10.424
41892W        W14317  27.705  14.470   1.762
41893W        W14318  13.359  20.711   3.292
41894W        W14319  29.031   7.398  14.606
41895W        W14320   8.883  34.115  13.057
41896W        W14321   4.320  38.033   2.784
41897W        W14322  32.411  10.424  14.820
41898W        W14323   2.723  37.409  12.559
41899W        W14324  29.096  35.008   4.773
41900W        W14325  12.369  33.628   3.420
41901W        W14326  20.258  34.270   3.286
41902W        W14327  19.099  44.198  13.982
41903W        W14328   3.664   4.607  13.405
41904W        W14329  20.330  24.219   3.734
41905W        W14330  19.699  22.329  11.432
41906W        W14331  32.779  28.357   3.659
41907W        W14332  21.580  11.838   3.884
41908W        W14333  24.315  40.883  11.152
41909W        W14334   0.711  29.071  12.047
41910W        W14335  19.556  19.107  13.032
41911W        W14336   7.155  13.844  14.445
41912W        W14337  42.279  21.091   2.917
41913W        W14338  13.637  20.620  14.934
41914W        W14339   1.084  32.428   1.511
41915W        W14340  30.995   8.930   1.827
41916W        W14341  23.576  44.436   2.165
41917W        W14342  27.129  12.862   0.921
41918W        W14343   6.719  26.152  12.127
41919W        W14344  24.948  44.068  11.199
41920W        W14345   5.980  38.434   0.463
41921W        W14346  33.522  20.593   2.708
41922W        W14347  14.118  40.561   4.538
41923W        W14348  17.216  42.218   2.910
41924W        W14349  15.830   9.325  12.867
41925W        W14350  10.888  15.758  14.436
41926W        W14351  19.570  16.099   4.166
41927W        W14352   8.121  24.730   4.030
41928W        W14353  19.036  29.869   1.249
41929W        W14354   5.201  15.351   1.580
41930W        W14355  15.083   4.431  12.833
41931W        W14356  24.757  15.726  13.514
41932W        W14357  28.307  24.461  12.404
41933W        W14358  30.597  28.535  12.438
41934W        W14359  39.566  12.701  13.613
41935W        W14360   1.151  11.751  11.938
41936W        W14361  36.334  19.189  13.350
41937W        W14362  22.644  11.820  14.465
41938W        W14363  42.923  10.350  14.475
41939W        W14364  27.943  44.952   2.173
41940W        W14365  41.436  39.338  12.928
41941W        W14366  17.833  24.287   0.253
41942W        W14367  42.347   9.418   4.364
41943W        W14368  42.705  20.264   1.241
41944W        W14369  34.613  38.222  14.874
41945W        W14370  22.323  30.498  10.755
41946W        W14371  32.552   1.165   4.082
41947W        W14372  22.725  36.030  14.400
41948W        W14373  34.499  18.740   4.954
41949W        W14374  14.694   9.851   4.062
41950W        W14375  25.937  27.686  12.706
41951W        W14376  21.511  33.435  12.485
41952W        W14377  38.862  16.602   1.860
41953W        W14378  17.701  38.170   0.738
41954W        W14379  33.118  11.629   2.176
41955W        W14380  26.115   5.451   2.321
41956W        W14381  34.979  37.931   4.665
41957W        W14382  40.858  44.477   4.062
41958W        W14383  30.907   3.233   5.394
41959W        W14384  13.871  24.576   9.768
41960W        W14385   7.451  44.789  12.460
41961W        W14386   0.038  17.865  12.177
41962W        W14387  18.516  18.568  12.513
41963W        W14388  26.696  36.859  11.051
41964W        W14389  39.340  17.827   2.245
41965W        W14390  28.914  25.769   1.360
41966W        W14391  40.258  19.570   0.318
41967W        W14392  37.426  32.402  13.500
41968W        W14393  18.112  33.921   2.393
41969W        W14394  16.967  22.472  11.236
41970W        W14395   5.390  26.493  12.086
41971W        W14396   8.339   5.689  10.140
41972W        W14397  29.634   4.684  10.734
41973W        W14398   7.911  30.674   0.812
41974W        W14399  44.564   6.386   1.402
41975W        W14400  26.006  15.345   4.157
41976W        W14401   2.190  14.174   1.029
41977W        W14402  10.294  20.414  11.199
41978W        W14403  43.802  18.801  10.728
41979W        W14404  24.168  44.268  14.989
41980W        W14405  39.017  28.238   2.566
41981W        W14406   2.495  38.024  11.177
41982W        W14407  33.313  17.630   2.347
41983W        W14408  35.795   1.369   3.193
41984W        W14409  17.308  40.829  12.507
41985W        W14410  27.345  17.663   4.936
41986W        W14411  33.163  19.178  12.051
41987W        W14412  15.996  36.961   1.346
41988W        W14413  34.689  24.058   2.828
41989W        W14414  40.867  15.255   2.925
41990W        W14415  43.594  13.654   2.197
41991W        W14416  17.197  44.265   3.706
41992W        W14417  28.051  42.204   4.884
41993W        W14418  14.696   9.577  12.509
41994W        W14419  12.890  41.844  12.021
41995W        W14420  31.856  26.957   4.904
41996W        W14421  23.635  18.637  12.896
41997W        W14422  42.900  29.439  10.778
41998W        W14423  15.609  26.063  13.403
41999W        W14424   5.962  39.448  12.020
42000W        W14425  36.941   3.484   4.089
42001W        W14426  17.066  25.738  10.850
42002W        W14427  43.552  19.133   2.264
42003W        W14428   4.795  34.990   4.711
42004W        W14429  23.736  15.734   3.400
42005W        W14430  32.601  12.081   4.103
42006W        W14431  25.743  21.728   1.804
42007W        W14432  33.255  28.095   2.213
42008W        W14433   6.508  32.050  14.761
42009W        W14434  26.943   7.253  14.911
42010W        W14435   8.730  23.981   4.489
42011W        W14436   2.401   2.278   1.690
42012W        W14437  14.622  13.187  11.189
42013W        W14438  15.119  27.450  14.372
42014W        W14439  38.086  42.070   2.813
42015W        W14440   8.934  27.840  10.216
42016W        W14441  15.294  20.844   3.119
42017W        W14442   4.404  25.632   1.656
42018W        W14443  29.680  10.092   2.879
42019W        W14444  30.169  26.422  11.607
42020W        W14445  42.801  38.810  12.098
42021W        W14446  31.215   4.912   3.067
42022W        W14447  17.160  27.068  10.511
42023W        W14448  22.550  44.445  10.740
42024W        W14449   3.747  40.323   1.865
42025W        W14450  22.262  31.864   1.271
42026W        W14451  15.694  40.416   4.077
42027W        W14452  10.176  23.080   3.292
42028W        W14453  14.244  19.297   3.179
42029W        W14454  18.154  15.082  12.060
42030W        W14455   9.128  30.624  14.953
42031W        W14456   4.496   8.468  13.068
42032W        W14457   6.841   1.033  12.789
42033W        W14458  33.703  41.242  11.056
42034W        W14459  39.475  44.948  12.131
42035W        W14460  37.889  18.838  14.246
42036W        W14461  40.964  34.985   1.486
42037W        W14462  27.550  31.512   1.757
42038W        W14463  44.723  40.933  14.369
42039W        W14464  29.566  42.257  13.414
42040W        W14465   6.720   0.205   1.953
42041W        W14466  34.523  21.249   3.233
42042W        W14467  10.677  26.217   1.179
42043W        W14468  15.366  38.142   4.365
42044W        W14469  36.110  15.102  14.425
42045W        W14470  18.675  38.454   4.975
42046W        W14471   4.628  22.666   0.713
42047W        W14472  42.791  35.344  14.787
42048W        W14473  35.824  36.567   1.835
42049W        W14474   1.753  20.032   1.167
42050W        W14475  18.071  17.080  12.493
42051W        W14476  43.337  24.565   1.286
42052W        W14477  43.998  29.179   0.913
42053W        W14478  14.693  16.766  14.984
42054W        W14479  28.561  42.312   4.120
42055W        W14480  39.332   6.994  11.937
42056W        W14481  22.954  19.658   4.686
42057W        W14482  15.208  39.754   4.689
42058W        W14483  10.217  34.535  11.471
42059W        W14484  11.247  15.292   4.151
42060W        W14485  22.211   2.728   0.252
42061W        W14486   1.189  10.909  12.669
42062W        W14487  15.117  43.857  10.735
42063W        W14488  26.759  23.563  10.771
42064W        W14489  15.364  22.135   5.951
42065W        W14490  40.986  33.795   2.304
42066W        W14491  29.201  35.481   4.577
42067W        W14492  21.550  27.644  11.040
42068W        W14493  28.379  14.209   1.236
42069W        W14494  13.706  32.473   1.442
42070W        W14495  23.659   1.980  11.600
42071W        W14496  10.141  28.471  10.621
42072W        W14497   3.068  32.960   0.535
42073W        W14498   5.232  27.699  13.932
42074W        W14499  10.125  37.730   0.807
42075W        W14500   6.839  14.023   3.236
42076W        W14501  41.948   0.967   0.488
42077W        W14502  30.300  27.013   2.577
42078W        W14503  22.456  40.855   4.716
42079W        W14504  34.617   1.838   3.397
42080W        W14505   2.353  25.220  11.172
42081W        W14506  39.977  20.363  14.021
42082W        W14507   8.399  13.785   2.756
42083W        W14508  43.793  25.710  13.441
42084W        W14509  13.678  38.164   1.481
42085W        W14510  12.804   0.181  11.834
42086W        W14511  19.999   4.628  10.343
42087W        W14512   5.318  23.779   0.912
42088W        W14513   7.155  28.975  12.448
42089W        W14514  19.679   9.902   4.133
42090W        W14515  13.269  23.999  14.276
42091W        W14516  32.685   0.910   2.724
42092W        W14517   3.848  15.585   0.470
42093W        W14518  42.452  18.588  12.012
42094W        W14519  34.632  18.140  12.068
42095W        W14520  40.770  21.023  11.534
42096W        W14521  10.041   3.913   2.161
42097W        W14522  30.745  26.988   2.884
42098W        W14523  37.489  23.100  14.269
42099W        W14524  44.220  28.824   4.741
42100W        W14525  20.238  23.200  14.349
42101W        W14526  44.468  16.246  10.321
42102W        W14527  11.191  14.052   4.896
42103W        W14528  29.642  36.034  12.167
42104W        W14529  25.220   2.909   4.407
42105W        W14530   0.319  16.031   3.408
42106W        W14531  13.556  19.590   2.191
42107W        W14532  23.529  18.197   3.102
42108W        W14533  33.721  22.634   1.944
42109W        W14534  20.733  38.011   4.303
42110W        W14535   7.157   5.731  13.523
42111W        W14536  28.520  24.441  13.800
42112W        W14537  20.140   6.119  14.324
42113W        W14538  22.121  17.539  14.845
42114W        W14539  36.159  42.551   0.782
42115W        W14540  10.384  29.342   2.729
42116W        W14541  36.365  24.073   2.435
42117W        W14542  15.829  37.080  14.781
42118W        W14543  38.414   3.870  13.920
42119W        W14544   5.777  31.513  13.013
42120W        W14545  15.286  19.071   1.476
42121W        W14546   5.011  40.624   0.456
42122W        W14547  20.560  40.448  13.521
42123W        W14548  22.145  10.143   2.587
42124W        W14549   3.708  24.717   1.579
42125W        W14550  36.492  37.219  11.124
42126W        W14551  44.794  24.298   0.213
42127W        W14552  29.738  40.580  10.680
42128W        W14553  23.688   5.291  12.416
42129W        W14554  29.139   5.806   1.017
42130W        W14555  27.553  14.589   0.721
42131W        W14556  12.307  19.824  10.720
42132W        W14557  30.603  41.673  12.062
42133W        W14558  40.377  32.586  14.365
42134W        W14559   8.799  32.888   0.773
42135W        W14560  39.230   9.242  14.385
42136W        W14561  44.630  42.276  11.521
42137W        W14562  26.597  36.129  10.588
42138W        W14563   5.841  26.988  11.706
42139W        W14564  11.243  28.124  13.490
42140W        W14565  29.555  32.052   0.277
42141W        W14566  18.447  12.807  12.175
42142W        W14567  30.391   5.556   3.311
42143W        W14568  26.772  29.924  14.267
42144W        W14569   3.106  37.317  10.456
42145W        W14570   6.024  26.529  12.579
42146W        W14571   4.151  30.985  12.460
42147W        W14572  19.120  15.347  11.279
42148W        W14573  20.755  28.253  10.988
42149W        W14574   2.494  28.871   0.713
42150W        W14575  31.578  28.151   0.451
42151W        W14576  28.045   6.221  14.862
42152W        W14577  25.037  29.528  12.054
42153W        W14578  12.690  30.558   4.612
42154W        W14579   7.681  31.928   1.439
42155W        W14580  28.447  38.514  10.436
42156W        W14581  30.205   6.317  13.998
42157W        W14582  29.389  29.575   4.138
42158W        W14583  19.232  24.146   4.580
42159W        W14584  14.190  21.184   1.762
42160W        W14585  43.856   3.163  13.390
42161W        W14586  41.504  31.376   0.191
42162W        W14587  18.065  25.463  11.192
42163W        W14588   3.826  12.226   3.699
42164W        W14589  29.663  35.665  14.317
42165W        W14590  41.484  26.294   2.755
42166W        W14591  25.367   5.821  11.556
42167W        W14592  28.422  10.306  13.160
42168W        W14593  40.577  38.809   1.214
42169W        W14594  32.087  20.661  10.745
42170W        W14595   1.299  13.814  12.758
42171W        W14596  39.349   8.873  12.311
42172W        W14597  27.657  31.931  13.528
42173W        W14598  31.145  42.374  13.426
42174W        W14599  11.412   4.737  12.517
42175W        W14600   0.745  36.470   3.633
42176W        W14601  24.037  41.732   4.171
42177W        W14602  17.509  37.853   2.148
42178W        W14603  12.173  15.763   0.403
42179W        W14604  18.503  24.667  14.077
42180W        W14605  26.594  32.586  12.267
42181W        W14606  30.512  11.847  11.175
42182W        W14607  12.329   0.982   4.781
42183W        W14608   6.112  36.437  11.932
42184W        W14609  42.579  27.573  12.586
42185W        W14610   4.365  30.911  11.536
42186W        W14611  41.440  39.975  11.502
42187W        W14612  10.680   5.898   2.814
42188W        W14613  15.763  11.606  14.351
42189W        W14614  33.894  14.888   4.079
42190W        W14615  20.999   8.229   4.299
42191W        W14616  16.145  13.104  12.533
42192W        W14617  38.335  26.597  13.391
42193W        W14618  15.010  35.760  12.419
42194W        W14619   9.064   7.224  10.285
42195W        W14620  36.430   1.390  13.936
42196W        W14621  22.978   8.290   4.598
42197W        W14622  17.275  38.473  14.501
42198W        W14623  40.067  26.911  13.479
42199W        W14624  21.616  25.801  12.486
42200W        W14625  39.601   8.785   4.905
42201W        W14626  16.139  18.642  14.362
42202W        W14627  27.696  41.461   1.933
42203W        W14628  42.945  43.472   3.552
42204W        W14629   8.582  42.018   4.195
42205W        W14630  33.492  14.215   1.286
42206W        W14631  44.836  31.509   1.771
42207W        W14632  24.214  23.409   2.754
42208W        W14633   3.729  11.603  13.920
42209W        W14634  31.010  25.818   3.417
42210W        W14635  31.612   0.534   0.783
42211W        W14636  27.197  41.500   1.184
42212W        W14637   5.543  33.432  12.920
42213W        W14638  41.407  12.611  10.524
42214W        W14639  30.785  33.870  12.099
42215W        W14640   2.873  30.106   2.458
42216W        W14641  23.962  33.095   1.731
42217W        W14642  31.738  42.003   0.784
42218W        W14643   4.430  34.306   4.994
42219W        W14644   7.430  41.832  11.212
42220W        W14645   0.560  22.427   1.162
42221W        W14646  10.677  14.130  11.125
42222W        W14647  19.250   2.374  13.075
42223W        W14648   4.404  10.255  14.932
42224W        W14649  29.087  26.417  14.035
42225W        W14650   0.780  15.143   4.465
42226W        W14651  28.735   9.319  12.421
42227W        W14652   0.327  23.587   4.598
42228W        W14653  37.000  29.933   0.649
42229W        W14654  23.175   2.123   1.475
42230W        W14655  21.183  43.502   3.627
42231W        W14656  36.617   8.308   4.030
42232W        W14657  17.327  34.832   3.159
42233W        W14658  25.036   4.166   3.800
42234W        W14659   0.324   1.769  10.402
42235W        W14660   4.960  17.768  14.839
42236W        W14661  38.051  39.895   2.225
42237W        W14662   8.001  10.879   4.820
42238W        W14663  17.170  15.573  10.720
42239W        W14664  19.507   6.848   4.228
42240W        W14665  32.625  12.354   1.777
42241W        W14666   4.527  41.850   2.283
42242W        W14667  11.678  13.686   4.851
42243W        W14668  17.379  28.978   2.896
42244W        W14669   3.424  41.272  14.743
42245W        W14670  28.501  34.536  13.504
42246W        W14671  17.097  44.707   0.976
42247W        W14672  12.753  29.952   1.533
42248W        W14673  37.104   0.009   0.740
42249W        W14674  38.438  26.732  14.268
42250W        W14675   7.457   7.317   5.002
42251W        W14676  40.453  20.309   4.615
42252W        W14677   8.491  40.441  10.738
42253W        W14678  11.372  38.655   3.613
42254W        W14679  13.675  42.429   4.929
42255W        W14680   8.425  42.766   3.758
42256W        W14681   2.774   0.294  12.082
42257W        W14682  15.720   2.878   1.658
42258W        W14683  28.198  36.499   0.715
42259W        W14684  34.392  31.125  14.554
42260W        W14685  33.163  29.977   2.147
42261W        W14686  19.154  32.026   3.274
42262W        W14687   9.419  25.533  11.060
42263W        W14688   0.231   1.535   3.971
42264W        W14689  11.753  12.799   1.811
42265W        W14690  38.133  21.780   1.861
42266W        W14691  32.150   8.465   3.774
42267W        W14692  38.317  20.050   4.388
42268W        W14693  22.293  29.602  13.978
42269W        W14694  43.864  37.761  13.492
42270W        W14695   0.398  34.609   2.332
42271W        W14696  38.023   2.704   2.373
42272W        W14697  28.602  15.661   0.833
42273W        W14698  35.786  31.047  11.131
42274W        W14699  20.035  40.313   4.409
42275W        W14700  14.137  12.345  12.426
42276W        W14701   3.664  19.152   0.471
42277W        W14702  32.537  29.889  14.403
42278W        W14703  11.030  42.961   4.137
42279W        W14704   5.303  13.877   4.634
42280W        W14705  32.335  37.607   2.763
42281W        W14706   1.252  12.585  11.548
42282W        W14707  12.105  13.223  14.282
42283W        W14708  19.191   9.241   3.289
42284W        W14709  42.567  28.049  14.781
42285W        W14710  27.934   6.831   3.616
42286W        W14711  22.769  37.532   4.574
42287W        W14712  42.821  25.988   2.401
42288W        W14713  44.890  28.086  13.822
42289W        W14714  41.232  23.141  11.698
42290W        W14715   1.246   4.170  12.073
42291W        W14716  29.101  31.021   3.292
42292W        W14717  36.945  20.497  11.229
42293W        W14718  44.190  42.084  14.006
42294W        W14719   4.783  40.019  12.498
42295W        W14720  22.609  17.496  11.055
42296W        W14721  10.627  13.059  14.017
42297W        W14722  27.582  13.631   1.167
42298W        W14723  34.078   0.381  13.910
42299W        W14724  42.758  11.177  11.117
42300W        W14725  16.804  15.822   2.201
42301W        W14726  40.492  23.557  12.847
42302W        W14727  19.825  40.836  12.173
42303W        W14728   5.701  30.112   1.748
42304W        W14729  34.516  27.613  12.419
42305W        W14730  13.847   6.980   2.813
42306W        W14731   8.155  15.343   2.634
42307W        W14732  35.091  15.516   0.777
42308W        W14733  26.802   0.265   2.684
42309W        W14734  34.068   0.812  11.549
42310W        W14735  39.826  12.582   3.411
42311W        W14736   3.210  33.870  14.289
42312W        W14737  13.688  19.431   0.023
42313W        W14738  41.954  41.528   3.750
42314W        W14739  42.303  24.394  14.473
42315W        W14740  41.671  25.583   3.678
42316W        W14741  44.084  25.788  12.130
42317W        W14742  44.464  25.569  11.451
42318W        W14743   3.008  30.563   4.653
42319W        W14744  32.831  34.965  14.962
42320W        W14745  38.827  40.025  14.628
42321W        W14746  34.784  28.503   3.922
42322W        W14747  11.632  25.674  12.942
42323W        W14748   9.216  35.598  10.233
42324W        W14749  19.818   1.522   1.966
42325W        W14750   3.242  15.361  11.645
42326W        W14751  30.752  13.703   2.288
42327W        W14752  44.869  42.738  12.841
42328W        W14753  19.968  15.486  11.202
42329W        W14754  21.450  26.917   3.860
42330W        W14755  25.021  24.779   2.406
42331W        W14756  16.393   4.163  13.792
42332W        W14757  16.492  16.233   2.131
42333W        W14758   5.305  26.029   1.306
42334W        W14759   9.084   7.464   2.299
42335W        W14760  25.408  35.805  12.866
42336W        W14761  16.067  10.073  13.045
42337W        W14762  37.207  29.441  11.570
42338W        W14763   9.268  22.197  10.755
42339W        W14764  16.517  16.124   0.252
42340W        W14765  24.352  19.921   3.645
42341W        W14766  13.802   9.143  12.523
42342W        W14767  13.087  36.849   1.295
42343W        W14768  21.504   2.425  13.429
42344W        W14769  26.115   6.820   1.204
42345W        W14770  27.109  40.069  11.196
42346W        W14771  36.202   0.294   1.293
42347W        W14772   3.976  26.945   3.798
42348W        W14773  15.649   2.776   1.142
42349W        W14774   7.693  18.059  13.728
42350W        W14775  29.460  23.485   1.048
42351W        W14776  20.947  44.067   0.345
42352W        W14777   8.333  42.328  11.034
42353W        W14778   7.857  22.637   2.398
42354W        W14779  14.842   6.679  10.968
42355W        W14780  15.106   5.674   3.866
42356W        W14781  35.285  39.743  11.652
42357W        W14782  32.458  41.473   1.688
42358W        W14783  21.772   2.987   0.028
42359W        W14784  15.967  12.624  12.515
42360W        W14785  37.517  11.381  12.869
42361W        W14786  32.920  31.032   3.797
42362W        W14787  39.644  44.429   0.736
42363W        W14788  37.829  36.582   0.912
42364W        W14789  14.305  37.044  12.581
42365W        W14790  31.172   4.829  11.729
42366W        W14791  36.705  23.288  10.604
42367W        W14792  35.446  17.267  10.542
42368W        W14793  39.568  32.457  11.575
42369W        W14794  19.514  42.353   2.308
42370W        W14795  12.610  10.632   0.876
42371W        W14796  23.409  35.079  12.006
42372W        W14797  39.565  13.825   3.858
42373W        W14798  37.763  22.183   1.811
42374W        W14799   4.788  33.955  10.300
42375W        W14800   9.259  38.589   4.155
42376W        W14801  36.895  33.922   1.847
42377W        W14802   1.891  27.643   4.203
42378W        W14803  27.068  19.499   1.433
42379W        W14804  35.364  28.684  13.497
42380W        W14805  14.875  35.402   2.882
42381W        W14806  18.306  22.771   1.933
42382W        W14807  15.583  37.949   2.812
42383W        W14808  43.492  30.368   3.766
42384W        W14809  18.839  33.112   2.805
42385W        W14810  11.655  23.553   2.331
42386W        W14811   6.758   1.329  11.988
42387W        W14812  28.958  33.203   1.459
42388W        W14813  18.550  14.608  13.593
42389W        W14814  22.682  37.620  14.034
42390W        W14815  32.559  11.337   1.828
42391W        W14816  11.635  12.052   2.427
42392W        W14817  18.286  35.540  10.876
42393W        W14818   5.183  30.462   2.288
42394W        W14819  23.553   1.187  12.125
42395W        W14820  26.636  25.451   1.836
42396W        W14821  36.950  15.061   3.247
42397W        W14822  42.958   6.900  13.403
42398W        W14823  36.497  38.785  14.448
42399W        W14824  22.270  36.951   2.728
42400W        W14825  25.716   1.979  14.456
42401W        W14826  36.631  41.295  12.811
42402W        W14827   6.820  38.537  14.988
42403W        W14828  22.593  43.726   4.570
42404W        W14829  31.093  13.955  13.335
42405W        W14830   6.359   0.344   4.343
42406W        W14831  18.022  34.813  12.975
42407W        W14832  22.452   0.480  13.923
42408W        W14833  44.258  34.606  10.683
42409W        W14834  36.134  15.702  11.982
42410W        W14835  40.886  25.564  14.032
42411W        W14836   3.929  14.079   5.187
42412W        W14837  32.805  30.795  11.219
42413W        W14838  41.380  32.860  10.983
42414W        W14839  37.663   1.399   0.914
42415W        W14840   4.325  39.597   0.876
42416W        W14841  21.476  40.849   0.368
42417W        W14842  20.932  31.517  11.542
42418W        W14843  12.054  24.520  10.063
42419W        W14844  40.430   2.054   4.258
42420W        W14845  16.861  31.414   1.046
42421W        W14846   7.667  27.636   1.502
42422W        W14847  43.874  17.257   1.936
42423W        W14848   8.236  31.560  12.692
42424W        W14849  25.987  27.514   0.521
42425W        W14850  25.749   6.119  14.351
42426W        W14851   9.395  18.647   4.615
42427W        W14852   2.333  35.490  13.044
42428W        W14853  23.020  24.936   3.701
42429W        W14854  40.054   8.788   2.831
42430W        W14855  36.618  12.822   4.693
42431W        W14856  39.766   9.936  13.380
42432W        W14857  18.702  33.934  11.683
42433W        W14858  34.823  44.787   2.401
42434W        W14859  17.635  31.009  11.554
42435W        W14860  24.991  13.635  11.543
42436W        W14861  37.088  39.215  13.422
42437W        W14862  27.499  16.260  11.181
42438W        W14863   3.852  36.908   1.742
42439W        W14864  28.666   1.017  12.019
42440W        W14865   5.722   1.683  12.006
42441W        W14866  41.202  44.908   5.674
42442W        W14867  40.164  11.948  11.895
42443W        W14868  27.717   0.458  14.513
42444W        W14869  28.420  23.270  11.848
42445W        W14870  34.341  36.917  11.940
42446W        W14871  40.426  19.294   4.756
42447W        W14872  13.083   6.967  13.568
42448W        W14873   1.045  22.463  11.092
42449W        W14874  17.906  33.707  11.112
42450W        W14875   0.222  14.561   0.937
42451W        W14876  43.728  32.007  12.905
42452W        W14877  32.014   2.212  10.968
42453W        W14878  13.683   4.460   1.382
42454W        W14879  19.682  42.838   2.232
42455W        W14880  16.899  29.994  12.385
42456W        W14881  14.946  33.433   1.613
42457W        W14882  30.992  38.768   4.755
42458W        W14883  21.488   4.401  13.901
42459W        W14884  35.929  19.773   0.011
42460W        W14885   6.820  17.852  13.810
42461W        W14886   7.825   6.585  13.332
42462W        W14887  32.818  10.287   2.880
42463W        W14888  39.043  43.341   4.230
42464W        W14889   3.811  17.786   1.322
42465W        W14890  30.598   6.208   3.172
42466W        W14891   0.440   4.926  14.216
42467W        W14892  36.359  39.817  14.412
42468W        W14893  30.098   4.835  10.987
42469W        W14894  33.453  32.795  12.533
42470W        W14895  11.138  11.266   4.453
42471W        W14896  17.617   1.298   4.012
42472W        W14897  33.411  22.891  11.448
42473W        W14898  22.973  22.632  13.568
42474W        W14899  10.369  16.439   1.124
42475W        W14900  22.229  37.659  12.770
42476W        W14901  11.257   7.468   0.617
42477W        W14902  23.419   0.560   1.958
42478W        W14903  18.703  17.083  11.632
42479W        W14904  39.036  42.562  10.197
42480W        W14905  19.225   1.950  10.462
42481W        W14906  35.536  16.997  11.974
42482W        W14907  12.685  37.823   3.775
42483W        W14908  11.785  20.760  11.523
42484W        W14909   1.416  12.698  12.589
42485W        W14910  28.055  24.706   1.820
42486W        W14911   3.869  28.975   2.678
42487W        W14912  16.330  32.579  13.997
42488W        W14913  11.580  14.771  13.906
42489W        W14914  24.224   6.961  13.449
42490W        W14915   5.717  26.097   1.796
42491W        W14916  26.736  34.416  14.495
42492W        W14917  29.227  32.141  14.835
42493W        W14918  43.520   2.388   4.399
42494W        W14919   7.023  40.010  11.124
42495W        W14920  13.410   8.342   3.345
42496W        W14921  26.831  42.012  12.469
42497W        W14922  35.149  31.102  10.511
42498W        W14923  14.533  23.571  12.047
42499W        W14924   4.332  35.329  12.492
42500W        W14925  27.505  14.210  14.740
42501W        W14926  34.962  34.811  14.006
42502W        W14927  13.735  10.396  14.562
42503W        W14928  25.150  43.437  14.886
42504W        W14929  41.030  40.441  14.491
42505W        W14930  17.361  32.575  13.904
42506W        W14931  28.150   7.603  14.518
42507W        W14932  12.623  28.186   0.837
42508W        W14933  43.845  33.168   3.853
42509W        W14934  32.494  39.151  11.271
42510W        W14935  31.049  10.249  10.837
42511W        W14936   3.208   7.959  14.605
42512W        W14937  19.560  41.573   3.375
42513W        W14938  22.599  15.331  14.578
42514W        W14939  16.135  44.307   0.887
42515W        W14940  11.477  12.645  14.404
42516W        W14941   0.902  21.054   3.596
42517W        W14942  19.448   5.754  14.810
42518W        W14943  22.617  44.244   4.604
42519W        W14944  33.007  15.963  11.474
42520W        W14945   8.223   7.434   4.583
42521W        W14946   2.462  15.744   3.243
42522W        W14947  17.666  13.390  12.513
42523W        W14948  43.622  35.424   0.414
42524W        W14949  36.582   5.934  14.883
42525W        W14950  14.792  20.252   4.581
42526W        W14951  40.841   2.312   2.335
42527W        W14952   6.646  25.094  12.644
42528W        W14953  19.694  31.088   5.196
42529W        W14954  14.377  30.211   2.314
42530W        W14955   6.438  27.205   3.662
42531W        W14956  12.264   5.287   0.274
42532W        W14957  13.673  32.327   1.941
42533W        W14958   3.526  40.327  11.593
42534W        W14959  14.991   2.244   2.898
42535W        W14960  14.674  18.226   2.127
42536W        W14961  42.718  43.778   0.861
42537W        W14962  43.894  29.992  11.836
42538W        W14963  40.323  24.430   4.317
42539W        W14964  15.662  14.681   0.432
42540W        W14965  43.772  38.995  11.698
42541W        W14966   2.463   7.614  10.702
42542W        W14967  38.224   7.153   4.623
42543W        W14968  22.191  31.672  13.700
42544W        W14969  10.058  27.883  12.991
42545W        W14970  28.075  38.117  14.928
42546W        W14971   1.244   1.701   1.398
42547W        W14972  41.555  11.636  13.127
42548W        W14973  26.484  11.571   2.200
42549W        W14974  39.737   8.916  11.906
42550W        W14975   7.407   0.295  13.478
42551W        W14976  38.545  24.985  14.424
42552W        W14977   3.418  23.132  10.891
42553W        W14978  44.281  14.390   1.912
42554W        W14979   9.110  30.111   4.562
42555W        W14980  26.918  18.796  13.896
42556W        W14981   6.448  31.971   0.756
42557W        W14982  32.632   8.802   1.672
42558W        W14983  29.808  13.069  11.119
42559W        W14984  28.055  41.019  12.823
42560W        W14985  17.663  20.801   2.286
42561W        W14986  38.347   9.730  14.543
42562W        W14987   6.960   1.821  12.069
42563W        W14988   5.729  32.159   4.602
42564W        W14989  32.023  19.688   0.428
42565W        W14990   5.868   5.374  10.519
42566W        W14991   8.026  43.146   1.638
42567W        W14992  39.332  28.723  14.242
42568W        W14993   1.915  25.962  11.502
42569W        W14994  19.453   9.352   1.202
42570W        W14995  39.482  37.867   4.115
42571W        W14996   5.782  27.179   0.867
42572W        W14997  25.271  33.894  10.933
42573W        W14998  42.080  23.412  10.696
42574W        W14999  11.663  31.379   3.817
42575W        W15000  25.405  12.781   4.962
42576W        W15001  14.628  14.361   2.776
42577W        W15002  33.886  34.130   3.409
42578W        W15003  25.130  20.226   0.962
42579W        W15004   6.636   7.794   0.844
42580W        W15005  44.519  40.416  12.966
42581W        W15006  33.546  39.942   0.253
42582W        W15007   9.310  25.288  10.195
42583W        W15008  12.719  28.092  12.882
42584W        W15009  33.682  18.188  14.715
42585W        W15010  34.064  26.516  14.740
42586W        W15011   4.648  43.470   2.724
42587W        W15012  20.170  41.444   0.284
42588W        W15013   1.211   3.332  13.343
42589W        W15014  23.140  33.141  11.588
42590W        W15015  21.559   9.733   4.537
42591W        W15016  31.516  28.647  10.892
42592W        W15017  40.118  14.089   2.379
42593W        W15018  38.970  28.641  12.956
42594W        W15019  13.751  42.418  14.534
42595W        W15020  35.345  42.115  13.846
42596W        W15021   0.742  29.034   1.434
42597W        W15022  44.797  16.641  10.418
42598W        W15023  28.203  34.443  10.623
42599W        W15024  13.395  24.191  10.294
42600W        W15025  39.544  31.415  13.148
42601W        W15026   5.369  10.116   0.363
42602W        W15027  25.499  32.142   2.875
42603W        W15028  13.137  22.609   1.809
42604W        W15029  43.245  13.376  10.670
42605W        W15030  24.746  39.863   1.112
42606W        W15031   2.634   9.766  14.827
42607W        W15032  41.479  14.554  11.551
42608W        W15033   6.527  14.665   4.283
42609W        W15034  43.888  29.955  13.756
42610W        W15035  18.077  22.975   0.877
42611W        W15036   1.365  30.697  13.471
42612W        W15037  23.543  33.005   4.572
42613W        W15038  24.267  44.778   0.541
42614W        W15039  16.388   0.009   2.811
42615W        W15040   3.460   3.719  13.964
42616W        W15041   1.825  14.578  14.056
42617W        W15042  40.394  31.598   2.150
42618W        W15043  23.736   1.792  12.421
42619W        W15044  12.873  24.241   3.162
42620W        W15045  30.856  38.947   1.175
42621W        W15046  34.118   1.575  11.113
42622W        W15047  33.038  34.498   2.547
42623W        W15048  40.930  39.161  14.446
42624W        W15049  28.623   7.684  10.420
42625W        W15050  38.254  34.915  14.008
42626W        W15051  38.400  36.300  10.997
42627W        W15052  41.339   9.087   3.417
42628W        W15053  32.002  27.026   4.420
42629W        W15054  44.792   9.403  12.089
42630W        W15055  16.371  28.145   0.781
42631W        W15056  13.891  29.643   1.750
42632W        W15057   1.898  16.596  10.698
42633W        W15058  13.509   0.827  14.715
42634W        W15059  28.990   9.454   4.042
42635W        W15060  25.536   4.255  14.284
42636W        W15061   9.781  32.035   1.446
42637W        W15062  21.906  29.442  13.404
42638W        W15063  40.294   5.712  14.881
42639W        W15064   6.297   2.319   1.743
42640W        W15065  11.197  30.856   1.474
42641W        W15066  27.450   8.877  11.935
42642W        W15067   7.649  35.056  10.679
42643W        W15068  29.473  21.777   2.760
42644W        W15069  10.947   6.497  11.068
42645W        W15070  23.515  44.663   3.474
42646W        W15071   9.792  35.007   3.819
42647W        W15072   3.466  16.044   3.189
42648W        W15073   6.935   2.784  14.444
42649W        W15074  23.440  24.432  14.373
42650W        W15075  15.453  37.830  11.154
42651W        W15076  19.644   4.771   2.402
42652W        W15077  35.984   8.882   4.341
42653W        W15078  18.711  29.888   3.639
42654W        W15079  41.759  34.169  13.345
42655W        W15080  23.168  35.767  13.048
42656W        W15081  34.567  25.556   1.285
42657W        W15082   4.926  12.318   3.629
42658W        W15083  22.717  34.528  11.635
42659W        W15084  43.382  19.168   1.786
42660W        W15085   5.839  41.741  13.101
42661W        W15086   4.607   3.347  11.003
42662W        W15087   3.551  36.994   4.171
42663W        W15088   5.893  39.342   1.355
42664W        W15089  27.452  26.447  12.628
42665W        W15090  36.421   5.304  11.659
42666W        W15091  33.496  29.479   3.693
42667W        W15092  17.270   7.178   4.106
42668W        W15093  34.417   5.671   3.927
42669W        W15094  41.928  13.756  10.784
42670W        W15095  10.267   0.249  12.567
42671W        W15096  16.515  36.984  11.256
42672W        W15097  22.541  18.214  12.325
42673W        W15098  41.644   9.145  13.478
42674W        W15099  43.604  24.197  11.613
42675W        W15100  40.026  23.463  14.756
42676W        W15101  44.750  42.522   2.884
42677W        W15102  18.606  23.625  12.053
42678W        W15103  28.553  42.518  12.385
42679W        W15104  41.590   9.256   2.399
42680W        W15105  32.158  29.404   4.284
42681W        W15106  13.088  31.669  14.822
42682W        W15107   8.188  21.195  11.688
42683W        W15108   0.063   0.352   1.650
42684W        W15109  17.843  16.581   3.342
42685W        W15110  16.684  20.043   4.600
42686W        W15111  38.814  17.983   3.196
42687W        W15112  33.150  28.982   2.257
42688W        W15113   2.890  26.229  11.807
42689W        W15114  41.856  23.860   4.471
42690W        W15115   4.355   8.676  12.616
42691W        W15116   8.446  16.117  14.857
42692W        W15117  30.895  18.292   1.398
42693W        W15118  25.986  20.707   0.587
42694W        W15119   7.049  41.519  11.637
42695W        W15120  24.994  31.700  11.703
42696W        W15121  37.249  20.201   3.188
42697W        W15122  14.186  30.048  13.269
42698W        W15123  38.330  40.017   1.811
42699W        W15124  42.471  37.624   4.592
42700W        W15125  23.578  21.792  13.470
42701W        W15126  21.481   6.976   2.570
42702W        W15127   6.617  28.390  14.874
42703W        W15128  18.849   7.871  11.198
42704W        W15129  43.625   1.836  14.455
42705W        W15130  12.742  24.152   1.397
42706W        W15131  44.221  26.629  12.333
42707W        W15132  19.714  34.164   3.773
42708W        W15133  28.361  14.922   2.133
42709W        W15134  16.797  12.926   4.195
42710W        W15135   8.831  42.286   1.841
42711W        W15136  22.624   3.524  12.549
42712W        W15137  14.126  26.750   0.428
42713W        W15138  14.292  14.691  14.436
42714W        W15139  14.807  16.225   2.495
42715W        W15140   3.243  28.511   4.859
42716W        W15141  18.186  38.070   3.243
42717W        W15142  33.156  20.631  11.441
42718W        W15143  11.043  14.371   2.406
42719W        W15144   3.603  33.238   4.218
42720W        W15145  10.675  35.426  14.042
42721W        W15146  39.034  18.725   4.675
42722W        W15147  39.073  19.586  11.102
42723W        W15148   8.400  23.193   4.610
42724W        W15149  31.477   4.131  12.948
42725W        W15150  22.714  44.905   3.214
42726W        W15151   8.075   1.875  13.066
42727W        W15152   0.725  10.848   3.738
42728W        W15153  35.462  23.164   2.473
42729W        W15154  27.235  32.829   3.658
42730W        W15155  16.367  29.156   4.225
42731W        W15156   8.063  34.267   4.246
42732W        W15157  25.194  25.746   3.605
42733W        W15158  12.303  40.787   4.447
42734W        W15159  23.234  17.263   0.655
42735W        W15160  18.326  31.399  13.994
42736W        W15161  34.102  14.627   4.491
42737W        W15162  43.746  18.507  13.895
42738W        W15163  13.726  43.520  12.415
42739W        W15164   0.661  33.360  12.489
42740W        W15165   9.647  27.157  11.087
42741W        W15166  44.540   4.159  12.948
42742W        W15167  38.633  28.484   1.903
42743W        W15168  42.843  32.105   1.391
42744W        W15169  40.252  35.826  14.218
42745W        W15170  32.279  19.067  14.833
42746W        W15171  42.498   9.698   2.933
42747W        W15172  38.954  16.084  14.009
42748W        W15173  22.311  36.787   3.701
42749W        W15174  19.521  17.070   4.199
42750W        W15175  42.944  41.957   2.471
42751W        W15176  38.115  21.768  12.512
42752W        W15177  40.254  24.417  11.127
42753W        W15178  43.943   0.894   4.356
42754W        W15179  39.480   8.231   2.201
42755W        W15180  42.712  27.620  11.126
42756W        W15181  22.523   1.404   2.419
42757W        W15182  14.752   5.837  14.289
42758W        W15183  14.439  12.368   2.505
42759W        W15184  23.042  18.485   4.051
42760W        W15185  42.634  37.388   0.965
42761W        W15186  27.030  41.519  14.819
42762W        W15187  13.144   0.185   2.069
42763W        W15188   1.441  13.599  14.325
42764W        W15189  41.427  13.534  11.553
42765W        W15190  11.742   2.385  14.057
42766W        W15191  15.340   4.146  14.278
42767W        W15192  28.036  43.633  13.877
42768W        W15193  36.133   5.133   0.019
42769W        W15194   4.811  40.640   5.172
42770W        W15195  13.413  44.756   0.309
42771W        W15196   2.769   4.421  11.945
42772W        W15197  37.857  44.380   0.032
42773W        W15198  29.668   8.939   1.518
42774W        W15199  41.323  34.526   0.811
42775W        W15200  11.078  20.056   1.921
42776W        W15201   3.805   4.919  14.325
42777W        W15202  15.155  14.214  13.599
42778W        W15203  31.217  35.839   4.306
42779W        W15204  37.093   4.797  11.549
42780W        W15205  24.928  24.146   1.755
42781W        W15206   5.152  37.244   2.325
42782W        W15207  43.438   1.033   1.361
42783W        W15208  27.501  17.659  10.917
42784W        W15209  23.023  36.063   3.685
42785W        W15210  42.446   1.853   3.929
42786W        W15211  29.547   6.597   1.652
42787W        W15212  26.801   6.223  14.253
42788W        W15213  25.164   1.063  10.543
42789W        W15214  38.405   3.197   1.196
42790W        W15215  27.601  24.582   4.040
42791W        W15216  30.110  10.540  10.669
42792W        W15217  24.789  29.080   0.596
42793W        W15218  33.009  38.899   4.256
42794W        W15219  12.147  34.427  14.811
42795W        W15220  39.939   4.669   2.787
42796W        W15221  28.587  39.355  11.605
42797W        W15222  42.847   5.493   1.455
42798W        W15223  36.685  36.349  11.149
42799W        W15224  28.535  13.319  13.480
42800W        W15225  11.683   0.949  12.403
42801W        W15226  34.150  15.133  11.731
42802W        W15227  31.673  14.205  11.935
42803W        W15228  19.123  40.294  13.337
42804W        W15229  31.946  25.183   4.160
42805W        W15230  25.753  36.977  11.962
42806W        W15231   8.885  38.358  13.395
42807W        W15232  42.574  23.498  14.426
42808W        W15233  41.847   6.151  11.592
42809W        W15234  16.305  33.468  13.927
42810W        W15235  16.696  41.022   3.758
42811W        W15236  28.658  44.863   4.142
42812W        W15237  21.603  29.383   1.359
42813W        W15238  27.903   7.321   1.825
42814W        W15239  10.724  27.712  11.575
42815W        W15240  22.604   7.776   0.834
42816W        W15241  14.770  27.984   4.083
42817W        W15242  13.539  28.972   0.020
42818W        W15243  29.413  35.781  12.549
42819W        W15244  13.121  34.003   4.156
42820W        W15245  36.849  43.846   0.328
42821W        W15246   5.235   9.168   4.200
42822W        W15247  35.393  28.141   4.700
42823W        W15248  30.039  13.124   4.116
42824W        W15249  23.922  13.117   4.177
42825W        W15250  32.127  22.472  13.430
42826W        W15251  37.058  20.700   3.149
42827W        W15252  16.757  44.671   0.330
42828W        W15253  15.332  30.370  13.517
42829W        W15254  23.020  23.957  11.182
42830W        W15255  23.513  36.450   1.704
42831W        W15256   4.925  34.484  12.158
42832W        W15257  38.886   8.328  11.429
42833W        W15258   0.997  24.448  12.479
42834W        W15259  34.196  15.261   0.965
42835W        W15260  36.016  43.663   0.862
42836W        W15261   1.898  22.393  13.915
42837W        W15262  29.909  37.487  11.572
42838W        W15263  34.555  22.080  14.009
42839W        W15264  37.918  13.314   1.848
42840W        W15265  11.210   5.256   1.286
42841W        W15266  22.062   1.299   2.208
42842W        W15267   8.534  29.089  12.701
42843W        W15268  43.705   0.884  11.632
42844W        W15269  29.716  24.885  11.102
42845W        W15270   3.319  38.695   0.478
42846W        W15271  28.087  39.741  14.052
42847W        W15272  39.565  42.782  11.023
42848W        W15273  19.536   2.823   4.620
42849W        W15274  21.764   0.753   0.456
42850W        W15275  31.565  33.994   0.047
42851W        W15276  37.471  44.037   3.184
42852W        W15277  25.405  17.154   0.194
42853W        W15278  12.150   5.673   1.225
42854W        W15279  30.899  29.527  13.323
42855W        W15280  25.984  15.567   4.756
42856W        W15281   7.299  28.385   0.461
42857W        W15282  19.328   6.446   2.831
42858W        W15283  30.454   7.778  12.975
42859W        W15284   1.493  31.767  11.317
42860W        W15285   2.382  17.426  12.932
42861W        W15286  27.436  44.772  10.440
42862W        W15287  16.755  30.603   1.906
42863W        W15288  14.693  34.980   3.160
42864W        W15289  44.022  43.459  12.373
42865W        W15290  41.364  27.974  12.220
42866W        W15291  41.967  37.752   0.222
42867W        W15292  32.775  42.891   3.660
42868W        W15293  24.164  41.947   1.280
42869W        W15294  28.836  44.918   1.096
42870W        W15295   2.965  41.330  11.759
42871W        W15296  43.893  28.406   4.572
42872W        W15297  36.805  32.430  13.887
42873W        W15298  36.160  40.616   4.714
42874W        W15299  30.720  25.204   2.250
42875W        W15300  30.412  26.074   0.867
42876W        W15301  32.123   4.909   1.952
42877W        W15302  40.258  29.964  11.759
42878W        W15303  27.605  14.803  12.610
42879W        W15304  34.787  34.133   1.288
42880W        W15305   0.417  21.583   0.805
42881W        W15306  38.316   0.915  11.918
42882W        W15307  39.236   2.308  12.493
42883W        W15308  27.649  23.971  13.847
42884W        W15309  25.676  30.908   4.920
42885W        W15310  12.424  39.881  14.109
42886W        W15311   0.865  39.402   4.241
42887W        W15312  39.672  17.857  14.418
42888W        W15313  15.896  21.218  12.810
42889W        W15314  31.029   6.692   4.273
42890W        W15315  20.103   9.373  11.913
42891W        W15316   3.511  37.923  14.959
42892W        W15317  31.382   1.735  11.670
42893W        W15318  39.771   3.749   3.217
42894W        W15319  16.564  34.860   2.623
42895W        W15320  30.392  27.704   2.229
42896W        W15321  29.613   8.801  14.574
42897W        W15322  27.795   7.604   2.827
42898W        W15323  18.677  44.516   3.953
42899W        W15324   2.696  33.897   2.108
42900W        W15325  20.480  33.490   2.263
42901W        W15326  42.869  15.631  10.929
42902W        W15327  13.157   2.276   0.812
42903W        W15328  16.269  40.550  14.455
42904W        W15329  36.203  15.487   4.121
42905W        W15330   7.142   5.791  11.247
42906W        W15331  40.652  22.242  14.232
42907W        W15332  14.341   3.684   1.385
42908W        W15333  24.799  18.282   2.799
42909W        W15334   9.645  41.031   3.179
42910W        W15335  23.267  22.047   0.491
42911W        W15336   3.131  34.002   4.310
42912W        W15337  36.971  44.051  11.102
42913W        W15338  43.930   3.465  11.382
42914W        W15339   5.092  32.969   2.441
42915W        W15340   8.239  21.962  10.611
42916W        W15341  22.565  21.546   2.312
42917W        W15342  29.495   9.305   1.195
42918W        W15343  23.505  10.980   4.869
42919W        W15344   8.267  35.387   4.739
42920W        W15345   9.217  34.498  13.156
42921W        W15346  40.462   6.289   4.992
42922W        W15347   2.388  42.820  10.137
42923W        W15348   5.028  18.761  13.960
42924W        W15349   7.439  40.209   2.358
42925W        W15350   4.622  20.568   0.802
42926W        W15351  34.386  41.966  10.979
42927W        W15352  38.750  25.856  14.554
42928W        W15353  22.865   2.431  13.881
42929W        W15354  36.503   8.893  12.541
42930W        W15355  40.699  29.800   2.420
42931W        W15356   3.199  10.119   3.190
42932W        W15357  17.117  12.697   2.684
42933W        W15358  41.340   9.368   4.726
42934W        W15359   8.702  36.924  14.798
42935W        W15360   2.741  13.426   1.227
42936W        W15361   2.888  24.950  11.849
42937W        W15362  43.278  13.560   3.703
42938W        W15363  30.791   4.349   2.502
42939W        W15364  25.434  32.863   4.583
42940W        W15365  21.426  27.636  11.559
42941W        W15366  19.890  32.073  10.247
42942W        W15367  24.592  14.690   4.176
42943W        W15368  33.413  23.793  13.090
42944W        W15369   4.841   4.871  13.544
42945W        W15370  33.089  20.009   3.710
42946W        W15371  29.006   4.934  12.007
42947W        W15372  12.286   5.194   1.353
42948W        W15373  36.540  17.722   2.683
42949W        W15374  40.054  15.001   4.919
42950W        W15375  33.245  42.027   1.077
42951W        W15376  15.228  13.021   2.706
42952W        W15377  18.640  24.742   2.740
42953W        W15378  42.019  10.636   0.678
42954W        W15379  38.034   3.826   1.301
42955W        W15380   5.439  26.468   1.571
42956W        W15381  35.521  36.656   2.331
42957W        W15382  10.338  36.416   2.779
42958W        W15383  30.639  10.179   1.219
42959W        W15384  21.608  31.467   4.220
42960W        W15385  36.026  20.180  12.833
42961W        W15386  24.546  32.144  13.113
42962W        W15387  39.063   0.376  12.838
42963W        W15388  29.902  29.707  11.995
42964W        W15389  15.155  43.571  13.368
42965W        W15390   3.825   0.270  11.632
42966W        W15391  32.931  13.546   3.266
42967W        W15392  16.084  43.543  13.280
42968W        W15393  36.178   9.335   2.009
42969W        W15394  18.161   4.986   4.542
42970W        W15395  33.001   0.763  12.817
42971W        W15396  32.533  10.747  12.164
42972W        W15397  31.208  44.988  13.468
42973W        W15398   8.799   4.941  12.503
42974W        W15399  29.792  30.042   1.717
42975W        W15400   8.104  27.525  13.041
42976W        W15401   5.081  35.680  11.928
42977W        W15402  43.932  39.089   2.783
42978W        W15403   6.335  35.995  12.117
42979W        W15404  32.448  31.812   1.020
42980W        W15405   2.515  23.607  11.666
42981W        W15406  41.603  32.741   4.153
42982W        W15407  42.928  26.040  14.994
42983W        W15408  37.012  24.481  12.111
42984W        W15409  20.686  26.103  11.921
42985W        W15410  31.492  23.609  14.128
42986W        W15411  12.211  15.527  12.865
42987W        W15412  38.846  38.480  11.596
42988W        W15413   8.397   7.187  11.967
42989W        W15414  43.714  27.449   4.898
42990W        W15415  23.662   9.042  14.026
42991W        W15416  34.500  10.195  13.849
42992W        W15417  43.235   6.433  10.421
42993W        W15418  34.547  35.098  13.051
42994W        W15419  11.260  43.257  13.728
42995W        W15420  10.904  43.017   1.882
42996W        W15421   9.231  40.307  11.226
42997W        W15422   3.335  33.072  12.386
42998W        W15423  26.659   2.559  13.856
42999W        W15424  22.205  18.734  14.104
43000W        W15425   3.515  15.129  12.530
43001W        W15426  21.808  15.050   4.392
43002W        W15427  26.416   4.197  13.363
43003W        W15428  11.907   5.879   3.400
43004W        W15429  33.022   1.482  11.946
43005W        W15430  18.626  41.567  13.278
43006W        W15431  21.721  10.764   0.755
43007W        W15432  32.483   4.256  13.086
43008W        W15433  25.202  29.152  13.363
43009W        W15434   5.199  44.491   0.458
43010W        W15435  44.291  44.311   4.062
43011W        W15436  30.624  42.427   1.895
43012W        W15437  12.575  39.351  14.058
43013W        W15438  13.803   6.823   3.309
43014W        W15439  31.847  42.779  12.719
43015W        W15440  14.805   6.906  12.337
43016W        W15441  38.446  13.684  14.014
43017W        W15442  28.121  33.678   1.688
43018W        W15443  28.217  43.103   4.966
43019W        W15444   6.321  40.336  11.097
43020W        W15445  18.472  27.990   2.737
43021W        W15446  12.561  25.556  10.995
43022W        W15447  31.538   3.035   0.336
43023W        W15448  19.241   6.319  12.890
43024W        W15449   6.418  10.886   4.163
43025W        W15450  10.866   4.219  12.958
43026W        W15451  32.233  16.514   1.445
43027W        W15452  32.077  16.966  10.184
43028W        W15453  16.392  27.583  14.034
43029W        W15454  15.233  17.759   3.229
43030W        W15455  41.642  29.524   2.582
43031W        W15456  43.083  14.105  13.462
43032W        W15457  37.138  18.821  12.177
43033W        W15458  12.914  17.626   0.069
43034W        W15459  28.191  35.759  11.681
43035W        W15460  11.872  32.610   0.955
43036W        W15461  38.054  16.272  14.275
43037W        W15462  24.163  32.009   3.655
43038W        W15463   4.943   6.488  14.341
43039W        W15464   1.945  26.530   3.297
43040W        W15465   7.656  36.533   4.547
43041W        W15466  17.204  43.495  12.898
43042W        W15467  32.128  34.005   2.238
43043W        W15468  30.169  41.042  11.968
43044W        W15469  26.892   3.306  11.463
43045W        W15470  19.489  25.614   3.326
43046W        W15471  41.558  30.633   2.152
43047W        W15472  34.618  22.583  13.884
43048W        W15473  25.170   6.011  12.030
43049W        W15474  37.622  11.090  11.247
43050W        W15475  33.379  40.888  14.494
43051W        W15476  18.691  32.971  14.522
43052W        W15477   6.800  29.206   0.289
43053W        W15478  22.165  30.090  11.868
43054W        W15479  21.425   5.962  12.931
43055W        W15480  42.775  28.454  13.613
43056W        W15481  20.927   9.348   1.439
43057W        W15482  25.174   6.146   2.158
43058W        W15483  27.923  36.573   2.634
43059W        W15484  20.995   4.968   2.237
43060W        W15485  37.851   3.970   5.072
43061W        W15486  14.792  28.974  10.770
43062W        W15487  22.554  30.927   3.852
43063W        W15488  25.600  33.597   0.024
43064W        W15489  38.666   4.402  13.522
43065W        W15490  39.403  17.249   1.277
43066W        W15491   9.883   6.733  13.920
43067W        W15492  11.438  26.540   2.719
43068W        W15493  19.810  37.335   1.415
43069W        W15494  16.781   4.427   4.211
43070W        W15495   6.116  29.585   2.305
43071W        W15496  17.048  40.891   2.266
43072W        W15497  31.110   2.380  13.808
43073W        W15498  16.165  17.721  14.325
43074W        W15499   7.219  27.908   3.107
43075W        W15500  29.124  38.313  12.511
43076W        W15501  41.011  32.000   1.306
43077W        W15502  34.207  28.995   4.687
43078W        W15503  16.373  26.579   1.047
43079W        W15504  40.290  13.284   3.475
43080W        W15505  34.108  36.841   0.768
43081W        W15506  39.353  19.216   0.706
43082W        W15507  37.312  21.272  11.901
43083W        W15508  16.799  43.818  11.641
43084W        W15509  30.932   3.826   0.414
43085W        W15510  12.714   6.170  13.109
43086W        W15511  11.638  37.840   2.706
43087W        W15512  32.944  39.088   0.567
43088W        W15513   3.973   9.625  13.933
43089W        W15514  36.439  44.252   3.686
43090W        W15515  14.052  25.176  13.128
43091W        W15516  10.780  42.166  11.154
43092W        W15517   7.269   1.580  14.738
43093W        W15518   9.937  10.338  14.422
43094W        W15519   7.835  24.146  11.622
43095W        W15520  37.364   0.267  14.885
43096W        W15521   0.683   4.996   0.058
43097W        W15522   0.791  12.574   2.403
43098W        W15523  24.927   2.363  12.476
43099W        W15524   8.718   1.907  11.629
43100W        W15525   7.789  38.332   0.435
43101W        W15526   6.215  22.643   3.685
43102W        W15527  13.780  13.737  13.412
43103W        W15528  38.637   3.795   4.655
43104W        W15529  31.107  33.992   0.288
43105W        W15530  40.602  32.542   3.880
43106W        W15531  37.041  44.779   3.308
43107W        W15532  43.733  15.062   1.094
43108W        W15533  43.059  44.554   5.003
43109W        W15534  11.565  16.359  11.178
43110W        W15535  25.586  16.349  10.593
43111W        W15536  40.545  11.771  11.581
43112W        W15537  40.442  13.792  10.520
43113W        W15538  27.666  35.884   4.622
43114W        W15539  27.593  23.301  12.999
43115W        W15540   2.829  27.228  10.765
43116W        W15541  16.545  33.109  11.959
43117W        W15542  24.952  41.084  10.627
43118W        W15543   2.734   6.239   2.369
43119W        W15544   2.690  38.274  12.672
43120W        W15545   0.496  39.673  11.514
43121W        W15546  12.398   3.721   0.008
43122W        W15547  32.584  19.138   5.588
43123W        W15548  38.060  39.941  13.159
43124W        W15549  33.740   6.733  11.599
43125W        W15550  24.815   0.293  13.050
43126W        W15551  17.322   6.904  12.123
43127W        W15552  23.875  43.888  13.901
43128W        W15553  12.381  34.939  13.641
43129W        W15554  33.109  42.508   3.721
43130W        W15555  21.849  12.209  12.183
43131W        W15556  14.671  31.910   0.115
43132W        W15557  37.330  35.373   3.770
43133W        W15558   2.364  14.221  11.092
43134W        W15559  35.361   0.380  11.919
43135W        W15560  23.131   9.826  11.530
43136W        W15561  32.538  28.781  12.571
43137W        W15562  39.318  29.232   0.494
43138W        W15563  35.974   6.595  11.686
43139W        W15564   5.441  42.590  11.689
43140W        W15565  28.645  30.012  12.537
43141W        W15566  40.711  28.892  14.451
43142W        W15567   0.741   5.876  14.332
43143W        W15568  21.528  18.089  10.637
43144W        W15569   7.378  14.593   4.416
43145W        W15570   8.161   7.679  11.936
43146W        W15571  19.526  14.785   0.443
43147W        W15572  12.043  23.309  14.375
43148W        W15573  28.596  17.805   1.816
43149W        W15574  44.024  16.377   1.763
43150W        W15575  10.806  12.623  11.542
43151W        W15576   5.977  33.674  12.725
43152W        W15577  24.150  37.453   3.294
43153W        W15578   0.267   6.944   1.913
43154W        W15579  38.001  35.561   2.950
43155W        W15580   7.387   5.407   4.542
43156W        W15581   2.498  14.814  12.983
43157W        W15582  17.817  24.717   0.626
43158W        W15583  40.136  42.822  10.163
43159W        W15584  10.152  34.932  12.861
43160W        W15585  10.205  43.554  13.059
43161W        W15586  16.131  12.662   3.070
43162W        W15587  32.661   8.311  11.536
43163W        W15588  17.778  30.873   2.777
43164W        W15589  16.582   6.196  11.410
43165W        W15590  13.937  19.496   0.794
43166W        W15591  11.371  42.225   1.183
43167W        W15592   6.695  26.740   5.057
43168W        W15593  33.458  23.043   4.920
43169W        W15594  20.587   3.052   1.325
43170W        W15595  44.802  18.501   1.220
43171W        W15596  24.818  11.593   1.660
43172W        W15597  44.422  36.904  11.039
43173W        W15598  25.878  37.796   1.971
43174W        W15599  13.712  37.458  14.167
43175W        W15600  33.547  28.955  13.305
43176W        W15601  16.176   3.663  12.416
43177W        W15602  33.645  35.366  10.704
43178W        W15603  21.118  29.460  11.088
43179W        W15604  42.576  29.921  13.975
43180W        W15605  18.492  43.414   4.839
43181W        W15606  15.305  18.060   0.872
43182W        W15607  10.816  33.355   0.347
43183W        W15608  17.118  10.833   2.245
43184W        W15609  19.143  21.248  10.786
43185W        W15610  37.505  39.778  12.505
43186W        W15611  26.066  40.760   2.676
43187W        W15612  34.317  41.388   2.848
43188W        W15613   8.791  38.953  13.054
43189W        W15614  42.245  37.277  10.574
43190W        W15615  20.682   5.441  11.029
43191W        W15616  29.346  28.014  12.454
43192W        W15617  26.514  35.681   2.296
43193W        W15618  31.645  23.053  10.431
43194W        W15619   0.189  12.805  11.422
43195W        W15620  18.154  27.375   0.934
43196W        W15621  21.142  26.507  13.312
43197W        W15622   0.786  22.005   0.969
43198W        W15623  25.453   3.547  11.123
43199W        W15624   9.080  17.227  14.788
43200W        W15625  31.643  42.106  12.223
43201W        W15626  43.448  22.609   2.447
43202W        W15627   8.193  15.000  14.083
43203W        W15628   2.793  39.786  13.053
43204W        W15629  19.611  30.791  13.589
43205W        W15630   3.594  14.864   4.721
43206W        W15631  22.007  15.330   1.789
43207W        W15632  19.141  24.000  13.774
43208W        W15633  25.073  20.292   2.349
43209W        W15634   0.611  26.351  11.654
43210W        W15635  20.336  21.244   3.792
43211W        W15636  25.877  10.178  10.620
43212W        W15637  35.110  40.229  11.521
43213W        W15638  17.055  14.068   0.243
43214W        W15639  41.748  43.855   3.148
43215W        W15640  35.618  35.018  14.556
43216W        W15641  43.661  39.115  12.239
43217W        W15642  21.384   3.759  10.477
43218W        W15643  37.151  18.214  14.456
43219W        W15644  26.755  27.585  14.449
43220W        W15645  22.497  28.240  13.449
43221W        W15646   8.392  32.650  10.461
43222W        W15647  22.109  30.061   2.922
43223W        W15648  21.120  12.938  12.090
43224W        W15649  43.143  23.231  12.500
43225W        W15650   2.339  33.362  12.041
43226W        W15651  26.032   7.598   0.849
43227W        W15652  23.798  37.689  11.498
43228W        W15653  41.405   7.418   2.283
43229W        W15654   4.172   1.449   1.417
43230W        W15655  42.239  28.467  14.877
43231W        W15656   3.951  36.042   3.491
43232W        W15657  23.218  21.098   0.140
43233W        W15658   3.224  39.455  11.982
43234W        W15659  41.965  34.216  12.760
43235W        W15660   3.786  17.541  14.592
43236W        W15661  27.675  22.746  11.655
43237W        W15662  26.401  12.360  13.040
43238W        W15663  32.330  16.739  12.421
43239W        W15664  26.577  40.228  12.941
43240W        W15665   8.099  20.079   0.453
43241W        W15666  40.206  40.365   0.156
43242W        W15667   0.846   3.877   1.747
43243W        W15668  26.435  24.973   1.119
43244W        W15669   8.415  11.300  12.410
43245W        W15670  40.052  44.999   4.243
43246W        W15671  22.758  20.742  13.547
43247W        W15672  28.399  13.257   4.291
43248W        W15673  22.809  21.484  13.925
43249W        W15674   1.885   7.652  14.944
43250W        W15675  30.381  12.414  13.605
43251W        W15676  19.354   6.907  13.526
43252W        W15677  43.665  14.691   3.781
43253W        W15678  39.590  40.884  13.011
43254W        W15679  16.416  23.196  14.374
43255W        W15680  28.508  15.898  11.957
43256W        W15681   9.415  30.774   0.863
43257W        W15682   6.171  22.629  12.342
43258W        W15683  39.068   5.687  11.048
43259W        W15684   2.445  24.639   2.952
43260W        W15685  35.987  35.424   1.234
43261W        W15686  44.812  21.843  12.080
43262W        W15687   8.543  38.141   0.156
43263W        W15688  13.348  33.344   3.346
43264W        W15689  43.153  28.500  12.115
43265W        W15690  22.992  16.147  14.454
43266W        W15691  20.920   3.356   0.945
43267W        W15692   0.900   9.195   0.435
43268W        W15693  27.423  43.769  12.440
43269W        W15694  17.332  29.991  10.019
43270W        W15695  43.443  34.876   1.040
43271W        W15696  32.557   1.440   0.400
43272W        W15697  19.643  10.853  10.413
43273W        W15698   9.821  22.142  13.715
43274W        W15699  43.371  33.437   1.428
43275W        W15700  29.131  12.312   3.757
43276W        W15701   6.724  16.875   1.178
43277W        W15702  23.510  30.419  13.098
43278W        W15703  20.893  25.138  10.344
43279W        W15704  23.618  41.470   3.071
43280W        W15705  19.093   9.449   0.254
43281W        W15706  13.001   9.312  13.724
43282W        W15707  11.798  15.567   3.563
43283W        W15708   6.436   2.692   3.695
43284W        W15709   6.448  39.352  12.090
43285W        W15710  38.504  11.032  10.835
43286W        W15711  20.734  22.976   2.839
43287W        W15712  14.606  21.364  14.392
43288W        W15713  33.884  18.126  11.554
43289W        W15714  12.106  25.084  13.805
43290W        W15715  12.269   0.799  13.712
43291W        W15716   7.953  30.051  10.517
43292W        W15717  32.021  32.462   0.505
43293W        W15718  22.793   5.678  11.010
43294W        W15719  24.674  11.281  14.315
43295W        W15720  27.938  34.343  14.031
43296W        W15721  42.067   6.705   0.379
43297W        W15722  34.948   7.433  14.863
43298W        W15723  44.112  28.066  14.064
43299W        W15724   7.268  22.128   1.276
43300W        W15725  36.095   9.846  14.182
43301W        W15726  24.223   3.778  14.606
43302W        W15727  37.495  26.621   0.793
43303W        W15728  27.172  21.747   3.686
43304W        W15729  10.739   3.508   1.514
43305W        W15730  18.706   9.682  14.712
43306W        W15731  27.296  13.166  12.630
43307W        W15732  26.000   9.400  13.404
43308W        W15733  40.951  31.043   1.764
43309W        W15734  10.316  13.886   2.165
43310W        W15735   4.315   8.243   2.561
43311W        W15736  32.416   9.808   2.328
43312W        W15737  34.943  19.054   2.882
43313W        W15738  44.648   0.724   0.938
43314W        W15739   3.692   6.073   2.169
43315W        W15740  13.606  43.864   1.833
43316W        W15741  42.225  29.401  12.022
43317W        W15742  14.842   3.246   1.319
43318W        W15743  44.553  13.463  13.827
43319W        W15744  24.139   0.927  12.995
43320W        W15745  26.465  14.058   1.713
43321W        W15746  16.917  41.030   1.753
43322W        W15747  38.855  13.371  14.014
43323W        W15748  43.241  10.837   3.398
43324W        W15749  18.749   8.154   0.287
43325W        W15750  41.755  38.604  13.846
43326W        W15751  26.674  13.566   0.744
43327W        W15752  38.467  30.666   1.645
43328W        W15753  10.316  17.498   0.008
43329W        W15754  38.411  36.628  12.437
43330W        W15755  26.184  10.618  14.617
43331W        W15756  35.162  16.133   2.425
43332W        W15757   8.186   4.278   0.295
43333W        W15758  30.538  28.131  12.109
43334W        W15759  34.932  42.279  11.603
43335W        W15760  33.018  20.711  12.423
43336W        W15761  20.428  19.491  10.853
43337W        W15762  38.952  40.647  14.361
43338W        W15763   1.465   5.409   4.731
43339W        W15764  13.258  15.110  13.017
43340W        W15765   0.941  29.124  13.957
43341W        W15766   7.859  40.779  12.992
43342W        W15767  21.693  28.503  14.442
43343W        W15768  25.693  35.194  14.834
43344W        W15769  14.567  42.040   2.369
43345W        W15770  37.415  42.252   1.155
43346W        W15771  10.900  14.810  12.026
43347W        W15772  24.258  43.060   0.934
43348W        W15773  17.421   5.902  10.936
43349W        W15774   6.837   8.335   1.961
43350W        W15775  18.120  24.429  11.468
43351W        W15776  35.825   4.735  13.517
43352W        W15777  26.696  28.626  10.712
43353W        W15778  33.737  38.491   2.688
43354W        W15779  21.015  30.864   3.998
43355W        W15780   6.843  38.546   0.995
43356W        W15781  24.437  20.406  11.533
43357W        W15782  31.944  20.343   4.499
43358W        W15783   2.672  28.482   0.409
43359W        W15784  39.942   4.810   1.049
43360W        W15785  36.965   4.472   4.161
43361W        W15786  29.416  17.500   0.916
43362W        W15787  39.959  19.253  14.083
43363W        W15788  38.597  11.759   4.058
43364W        W15789  24.180  25.025   2.743
43365W        W15790  12.778  15.129   4.736
43366W        W15791  11.148  37.388  10.667
43367W        W15792   1.728  40.928  12.340
43368W        W15793  16.102  35.497   0.825
43369W        W15794  20.070  25.124  13.802
43370W        W15795  38.062  36.936  13.068
43371W        W15796  29.038  17.042   2.777
43372W        W15797  28.058  18.140  11.079
43373W        W15798  28.099  42.276   3.860
43374W        W15799  11.064  11.164   0.443
43375W        W15800  29.065  26.962  11.572
43376W        W15801  33.557  30.412   3.698
43377W        W15802  41.888  29.403  11.622
43378W        W15803  32.483  32.935   4.543
43379W        W15804  14.567  14.288   1.828
43380W        W15805  24.343  42.971   0.030
43381W        W15806  36.645  20.665   3.906
43382W        W15807  30.996  28.702  11.045
43383W        W15808   1.379  11.302   4.471
43384W        W15809  24.356   7.243  12.096
43385W        W15810  36.876  26.047   5.488
43386W        W15811  14.018  21.631  11.568
43387W        W15812  23.711  41.003   1.832
43388W        W15813  34.382  31.671   1.836
43389W        W15814  12.406  30.043  13.771
43390W        W15815  17.222  35.396  14.845
43391W        W15816  25.510  17.223  12.882
43392W        W15817   8.227  20.665   3.745
43393W        W15818  33.107  19.620   5.152
43394W        W15819  10.459  20.893  10.539
43395W        W15820   3.665   9.959   0.919
43396W        W15821  32.059  17.150  14.143
43397W        W15822  31.263  22.527  11.071
43398W        W15823  35.287  28.548   0.964
43399W        W15824   8.314  15.599   3.047
43400W        W15825  44.913  16.161   3.034
43401W        W15826  42.507  36.006  11.459
43402W        W15827  27.563  16.486   3.692
43403W        W15828   6.427   0.457  11.904
43404W        W15829  38.397  28.725  13.972
43405W        W15830  31.987  42.288   4.192
43406W        W15831  43.095  43.077   3.884
43407W        W15832  15.536  17.598  12.072
43408W        W15833  17.757  15.363   3.727
43409W        W15834  26.512  31.307  14.363
43410W        W15835  44.289  16.725  12.072
43411W        W15836  11.865   3.355   2.403
43412W        W15837  22.960   6.868   1.907
43413W        W15838  30.257   0.846   0.723
43414W        W15839   6.757  12.783  13.508
43415W        W15840   7.885  18.931  11.104
43416W        W15841  20.662   4.065   4.552
43417W        W15842  18.284  17.248   3.750
43418W        W15843  11.156  24.145   0.845
43419W        W15844  14.057  14.558   4.647
43420W        W15845  25.226  42.319   0.325
43421W        W15846  16.152  13.302  14.600
43422W        W15847  29.670  41.393  11.125
43423W        W15848   5.017   9.419  11.617
43424W        W15849  32.067   5.049   4.090
43425W        W15850  22.957  30.439  14.058
43426W        W15851  44.446  17.698  14.003
43427W        W15852  41.131  44.293   0.948
43428W        W15853  44.367  22.221  14.000
43429W        W15854  28.419  32.878  12.434
43430W        W15855  10.439  35.838   3.413
43431W        W15856   5.363   6.291   1.180
43432W        W15857  10.821  21.113   2.659
43433W        W15858  27.172  12.301   2.115
43434W        W15859  20.683   1.959  13.324
43435W        W15860  21.503  35.395   2.182
43436W        W15861  31.631  14.732  13.243
43437W        W15862  26.203  32.820  10.525
43438W        W15863   1.964   1.651  10.772
43439W        W15864   4.944  11.330  14.986
43440W        W15865   6.672  17.344   1.445
43441W        W15866  14.706  26.580  12.850
43442W        W15867  31.691  44.059   1.789
43443W        W15868  24.639  23.218  13.422
43444W        W15869   2.487   1.886  13.967
43445W        W15870  25.969  19.606   0.657
43446W        W15871  41.759  10.974   3.220
43447W        W15872  15.018  39.324  12.867
43448W        W15873  23.725  21.503  12.015
43449W        W15874  19.757   4.645  13.034
43450W        W15875  10.037   6.321  12.955
43451W        W15876   1.206  43.372   1.210
43452W        W15877  13.799   8.667   1.958
43453W        W15878  43.937  33.620  14.411
43454W        W15879  35.166   8.646  14.369
43455W        W15880   0.333  38.939  13.834
43456W        W15881  26.987   9.758  13.430
43457W        W15882  31.468  19.034  14.312
43458W        W15883  21.116  41.467  12.456
43459W        W15884  40.010  38.799  14.515
43460W        W15885   4.945  30.375   4.946
43461W        W15886  27.345  25.077  13.634
43462W        W15887  24.955  37.982  12.554
43463W        W15888  15.629  43.490   1.803
43464W        W15889  23.089  40.589  13.323
43465W        W15890  36.440  30.096   2.453
43466W        W15891  23.639   4.199  12.449
43467W        W15892  42.722  10.265   1.341
43468W        W15893   5.618   0.289  14.473
43469W        W15894  36.870  23.890   1.284
43470W        W15895  40.082   8.293   4.258
43471W        W15896  21.254   2.425   1.259
43472W        W15897  13.857   6.183  12.850
43473W        W15898  32.172  26.170   4.110
43474W        W15899   4.235   9.749  12.029
43475W        W15900  25.455  25.229   4.621
43476W        W15901  19.084  38.582   3.346
43477W        W15902   8.310   9.394   2.195
43478W        W15903  29.079  10.328   2.324
43479W        W15904  34.933  37.456  13.900
43480W        W15905  12.590  29.609  14.397
43481W        W15906   5.369   1.465   1.404
43482W        W15907  19.306  28.956  11.604
43483W        W15908  20.034  24.389   2.655
43484W        W15909  26.710  19.837  11.001
43485W        W15910   2.781  17.265  11.127
43486W        W15911  16.329  27.568   3.677
43487W        W15912   5.319  25.049   0.389
43488W        W15913   6.782  34.005   4.596
43489W        W15914  21.567   0.949  10.859
43490W        W15915  22.680  26.574   3.681
43491W        W15916  33.654  35.803   3.715
43492W        W15917  22.130   3.199   3.264
43493W        W15918  11.704  33.440   2.671
43494W        W15919  15.735   8.732  11.693
43495W        W15920  38.386  44.709  13.896
43496W        W15921  37.602  41.199  12.800
43497W        W15922  10.837  20.246  14.881
43498W        W15923  36.655  39.461  10.287
43499W        W15924  22.955   3.384  11.417
43500W        W15925  41.502  20.392   3.090
43501W        W15926  26.555  15.247  10.284
43502W        W15927  20.870  42.236   3.287
43503W        W15928  30.160  34.428   3.070
43504W        W15929  18.020  29.339   4.532
43505W        W15930  20.309  28.897   2.672
43506W        W15931  14.105  12.307   2.886
43507W        W15932  22.134   3.206  11.822
43508W        W15933  27.801  40.265  14.857
43509W        W15934  21.002  12.805   4.245
43510W        W15935   1.937  10.638   4.072
43511W        W15936   3.220  29.471  12.331
43512W        W15937  12.678  30.132  12.394
43513W        W15938  37.997   4.624   3.669
43514W        W15939  24.032   5.643   1.790
43515W        W15940  23.095   9.157  10.489
43516W        W15941  36.335  20.779  14.463
43517W        W15942  37.427  28.645   3.257
43518W        W15943   2.179   3.259   3.892
43519W        W15944  32.581  25.100  11.632
43520W        W15945  18.758   8.909   4.077
43521W        W15946   8.748  28.038   0.289
43522W        W15947  37.565   4.265   0.425
43523W        W15948  38.032  37.827   2.390
43524W        W15949  32.334  31.674   4.137
43525W        W15950  29.213  31.628  11.454
43526W        W15951  37.024  29.423  12.901
43527W        W15952  37.579   0.237  13.936
43528W        W15953  43.978  38.515  13.880
43529W        W15954  13.564  21.121  14.481
43530W        W15955  12.255   9.639  13.043
43531W        W15956  12.102  37.126   2.407
43532W        W15957  35.374  11.624  13.464
43533W        W15958  16.837   2.963  11.451
43534W        W15959  11.267  39.889  13.074
43535W        W15960  26.769  43.117  13.988
43536W        W15961  38.975  35.998  14.836
43537W        W15962  41.733  28.095  13.936
43538W        W15963  18.003  25.179   4.186
43539W        W15964  40.887  23.147  14.753
43540W        W15965  19.136  34.159  14.401
43541W        W15966  32.390  39.928   3.458
43542W        W15967  26.144  33.590  12.332
43543W        W15968   8.707  38.434  12.913
43544W        W15969  25.585  25.419  13.088
43545W        W15970  37.610  38.374   1.693
43546W        W15971  40.083   3.617   4.592
43547W        W15972  39.865  30.588   3.406
43548W        W15973  31.388  14.369   1.931
43549W        W15974  40.458   6.728  14.618
43550W        W15975   1.361  14.110   4.988
43551W        W15976  16.073  17.295   4.114
43552W        W15977   7.728  21.910  14.432
43553W        W15978  21.101  10.685  12.552
43554W        W15979  24.521   9.680   2.303
43555W        W15980  42.796  42.287   4.717
43556W        W15981  35.257   2.811   3.406
43557W        W15982  15.721  23.783   5.470
43558W        W15983  29.487  32.128   0.792
43559W        W15984  25.962  13.838   2.862
43560W        W15985  28.481  32.136   4.752
43561W        W15986  31.427  20.081   1.225
43562W        W15987  37.693  41.557   0.295
43563W        W15988  36.008  36.514  11.802
43564W        W15989  28.567  18.580  14.550
43565W        W15990   4.369  29.808   2.734
43566W        W15991  13.001   6.309   2.988
43567W        W15992  32.893  37.055  12.223
43568W        W15993   2.555  31.966  10.752
43569W        W15994   6.404  17.756  11.628
43570W        W15995  14.318  19.906   4.074
43571W        W15996  41.839  35.492  13.645
43572W        W15997  32.451  34.420  14.126
43573W        W15998  24.501   3.735   3.455
43574W        W15999  35.102   4.792  10.509
43575W        W16000  32.042   7.774  14.295
43576W        W16001   5.789  19.076  14.192
43577W        W16002  22.000  11.385  11.540
43578W        W16003  20.184  10.695  13.556
43579W        W16004   1.993  35.379   2.308
43580W        W16005  13.577  15.552  13.023
43581W        W16006   0.504  36.076   1.021
43582W        W16007  31.094   6.277   1.384
43583W        W16008  18.194   7.299   0.917
43584W        W16009  31.895  15.858  11.493
43585W        W16010  32.474  42.599   3.292
43586W        W16011  21.533  34.818  10.608
43587W        W16012  18.039   2.308  12.976
43588W        W16013   5.789  22.861  13.800
43589W        W16014  14.507  39.407  11.497
43590W        W16015  16.769  28.424  11.448
43591W        W16016  24.689  15.893  12.343
43592W        W16017  40.110  22.093  12.094
43593W        W16018  16.677   9.155  11.361
43594W        W16019  23.614  28.346   1.852
43595W        W16020  34.451   7.790  11.526
43596W        W16021  29.485  15.678  10.799
43597W        W16022  29.670  14.683   0.698
43598W        W16023   4.804   2.830  12.114
43599W        W16024  44.382  29.085  12.455
43600W        W16025   2.424  13.005  14.031
43601W        W16026  33.394  11.252  11.798
43602W        W16027   7.363  13.412   0.685
43603W        W16028  35.537   6.469   0.499
43604W        W16029   7.746  12.778  12.031
43605W        W16030  10.914  23.672  12.963
43606W        W16031  17.415  43.684  11.091
43607W        W16032  35.320  39.078  11.138
43608W        W16033  23.767  40.073   2.568
43609W        W16034   2.956  33.447  12.543
43610W        W16035  35.848  20.878  13.580
43611W        W16036  11.808  39.151   1.810
43612W        W16037  36.720  17.834  12.226
43613W        W16038  36.475   3.332   4.800
43614W        W16039   4.357  16.322   0.255
43615W        W16040  11.325  10.539  12.422
43616W        W16041  37.916   1.849   1.390
43617W        W16042  25.053  17.379  13.523
43618W        W16043  12.252  18.225   5.000
43619W        W16044  18.116  43.819   0.016
43620W        W16045  25.277  19.158  10.326
43621W        W16046  39.076  29.768  13.805
43622W        W16047   6.200  12.646   1.757
43623W        W16048  22.612  42.799   4.122
43624W        W16049   6.829   5.211   1.310
43625W        W16050  40.253  26.790  10.147
43626W        W16051  12.354  22.588  12.787
43627W        W16052  20.592  35.437   1.118
43628W        W16053  30.391   7.203  14.246
43629W        W16054  30.855  24.534   1.818
43630W        W16055  16.175  15.572   3.509
43631W        W16056   2.576  29.550  13.543
43632W        W16057   6.938   3.768   0.377
43633W        W16058  26.514  32.833  14.457
43634W        W16059   2.516  14.822   3.257
43635W        W16060  42.257  24.687   1.488
43636W        W16061  24.658  17.094  13.317
43637W        W16062  18.502  15.078   0.844
43638W        W16063  34.819  29.187   1.704
43639W        W16064   3.139  30.670  11.840
43640W        W16065  34.296  40.236  13.009
43641W        W16066   4.892   7.275   0.220
43642W        W16067  33.869  11.671   0.394
43643W        W16068   8.869   0.324   2.518
43644W        W16069   9.415   3.443   4.907
43645W        W16070  33.105  34.428  11.993
43646W        W16071   1.571  18.740  13.428
43647W        W16072  21.217   6.627   3.433
43648W        W16073  12.170   2.186   3.941
43649W        W16074  20.884  30.848   1.993
43650W        W16075   8.946  27.150  12.737
43651W        W16076   5.363  11.648   1.246
43652W        W16077  40.834  42.278   5.332
43653W        W16078   1.866  32.787   3.746
43654W        W16079  44.312  15.146  11.539
43655W        W16080  18.139  32.927  12.972
43656W        W16081   7.522  36.567   3.227
43657W        W16082  24.576  17.766   0.415
43658W        W16083  16.731  39.312   0.992
43659W        W16084   6.990  10.316  13.551
43660W        W16085  16.820  36.062  11.966
43661W        W16086  35.553  23.983   1.776
43662W        W16087  41.962  24.370   3.232
43663W        W16088  13.100   4.640  11.052
43664W        W16089  40.330  43.046   2.269
43665W        W16090  22.052  13.078   2.860
43666W        W16091  44.528   4.240   4.661
43667W        W16092  23.501  25.245  11.421
43668W        W16093  12.344  19.699  11.999
43669W        W16094   8.385  12.238   2.712
43670W        W16095  14.456  42.952  13.913
43671W        W16096   4.492  32.653  11.011
43672W        W16097  11.511  10.786   0.865
43673W        W16098  26.724  27.208  12.419
43674W        W16099  18.891  29.674  12.873
43675W        W16100  23.926  38.828  14.220
43676W        W16101   2.515  36.436   1.642
43677W        W16102  24.627   7.589  13.493
43678W        W16103  26.506  34.356  13.117
43679W        W16104  17.222  17.789   3.050
43680W        W16105  27.106  31.695   0.844
43681W        W16106  21.230  40.030   0.910
43682W        W16107  13.817   4.961   0.370
43683W        W16108  15.242  29.687  12.435
43684W        W16109  34.692  40.361  12.395
43685W        W16110   4.463  22.153   4.731
43686W        W16111  37.138  29.495  10.669
43687W        W16112  42.544  36.353  13.610
43688W        W16113  38.014  36.314   2.236
43689W        W16114  38.691   0.111  13.952
43690W        W16115   1.344   6.393  11.272
43691W        W16116  37.537  30.304   0.064
43692W        W16117  41.753  29.044   1.439
43693W        W16118  23.632   3.207  12.417
43694W        W16119  10.441  36.419  12.853
43695W        W16120  20.553  28.901   1.303
43696W        W16121  11.259  21.267  10.029
43697W        W16122  28.881  40.199  12.501
43698W        W16123  24.638  19.140   4.607
43699W        W16124  15.101   2.427   2.212
43700W        W16125   3.972  40.509   4.598
43701W        W16126  16.101  34.492   4.227
43702W        W16127  39.875  16.842  14.378
43703W        W16128  20.562  23.705   4.510
43704W        W16129  31.797  21.030   0.850
43705W        W16130   9.417  20.799   1.860
43706W        W16131  34.992  24.050  11.110
43707W        W16132  36.431  10.172  11.145
43708W        W16133  38.671  11.152  11.297
43709W        W16134  17.650  14.905   2.818
43710W        W16135  31.692  35.008  13.926
43711W        W16136  35.362  20.086   4.837
43712W        W16137  21.815   8.732  10.703
43713W        W16138  10.402  40.381  14.270
43714W        W16139   2.691   3.149   4.679
43715W        W16140  20.140  14.482  11.162
43716W        W16141  44.020  32.853  11.075
43717W        W16142   5.928  26.983   3.674
43718W        W16143   1.478   7.228   4.568
43719W        W16144  14.826  27.117   3.703
43720W        W16145  26.988  42.032  14.900
43721W        W16146  17.222   2.142   3.238
43722W        W16147  20.654  29.515   2.083
43723W        W16148   1.212  14.401   4.541
43724W        W16149  38.911  11.425   4.544
43725W        W16150  12.096  43.321  14.594
43726W        W16151   1.295  17.725  11.629
43727W        W16152  38.328   4.468   2.045
43728W        W16153   3.919  44.966  12.798
43729W        W16154  44.954  13.821  10.723
43730W        W16155  25.880   1.347  13.525
43731W        W16156  18.263  35.797   3.229
43732W        W16157  34.085   9.849   3.094
43733W        W16158  14.593  37.523   0.196
43734W        W16159  38.803  32.971  13.321
43735W        W16160   1.798   8.497   3.700
43736W        W16161  20.363  13.846   2.919
43737W        W16162  10.733  19.829  13.976
43738W        W16163  26.560   7.831  13.307
43739W        W16164  22.603  41.473  11.694
43740W        W16165  26.057  15.852   1.648
43741W        W16166  15.599  11.742   3.672
43742W        W16167   5.736   1.778  12.523
43743W        W16168  44.409  43.017   3.807
43744W        W16169  17.631   1.933  10.690
43745W        W16170  28.722   9.072  14.349
43746W        W16171  19.045  18.198   0.234
43747W        W16172  38.014   6.696  13.479
43748W        W16173  30.952   0.214   4.157
43749W        W16174  29.495   0.373  13.821
43750W        W16175  21.521   8.883  13.800
43751W        W16176  24.422  33.897  11.474
43752W        W16177  14.630  21.232   4.244
43753W        W16178  29.344  17.809   4.239
43754W        W16179  27.704   3.993   3.668
43755W        W16180  36.143   4.515  10.019
43756W        W16181  17.732   6.093   0.418
43757W        W16182  29.413  18.629   2.411
43758W        W16183  34.404  25.098  14.184
43759W        W16184   0.550   4.567   4.082
43760W        W16185  15.352   2.880   4.773
43761W        W16186  30.110  38.342  12.194
43762W        W16187  13.236  32.533   1.141
43763W        W16188  17.851  41.763   3.616
43764W        W16189  31.470  37.520  12.805
43765W        W16190  37.137   3.140   2.675
43766W        W16191  42.807  25.919  11.601
43767W        W16192  31.034  10.198  12.910
43768W        W16193  43.787  33.396  13.945
43769W        W16194  25.265   2.924  10.854
43770W        W16195  43.329  15.168  11.529
43771W        W16196   3.715  31.323  12.554
43772W        W16197  32.029  11.612  13.449
43773W        W16198  19.467  43.395  12.503
43774W        W16199  18.506  31.105  12.806
43775W        W16200  27.495  22.222   0.258
43776W        W16201  17.114  43.288  12.452
43777W        W16202  31.523  11.739  11.501
43778W        W16203   2.207  28.594  13.806
43779W        W16204   6.275  41.025   0.355
43780W        W16205  35.837  39.824   0.937
43781W        W16206  15.042   6.381  13.147
43782W        W16207  29.020   7.836  13.330
43783W        W16208  33.001  37.035  10.749
43784W        W16209  32.783  17.613   2.367
43785W        W16210  11.503  24.231   1.239
43786W        W16211  31.188  16.660  13.254
43787W        W16212  43.751   6.866  13.864
43788W        W16213  29.637  18.484   3.577
43789W        W16214  14.174  20.828  14.919
43790W        W16215  14.646  21.750   0.963
43791W        W16216  12.281  11.715   2.235
43792W        W16217  41.476  26.196   3.691
43793W        W16218  19.636  15.923   1.202
43794W        W16219  38.506  43.242   2.076
43795W        W16220  42.417  25.522   0.463
43796W        W16221  38.085  43.054  11.206
43797W        W16222   6.683  29.249   4.400
43798W        W16223  13.769  43.485   3.206
43799W        W16224  13.860  13.065   4.279
43800W        W16225  19.519  16.434   1.227
43801W        W16226  23.282  36.139   0.874
43802W        W16227  16.022  37.957   1.696
43803W        W16228  38.419  21.960   3.320
43804W        W16229  21.197  22.724   3.051
43805W        W16230  14.376  20.219  11.343
43806W        W16231  16.666  20.040   3.216
43807W        W16232   9.307  13.729  13.263
43808W        W16233  42.958  24.796  13.815
43809W        W16234  39.899  35.655   4.322
43810W        W16235  39.764  19.160   2.254
43811W        W16236   5.846   8.292   0.715
43812W        W16237   1.676  11.747  11.999
43813W        W16238  20.778  31.750   2.388
43814W        W16239  37.525  26.508   4.003
43815W        W16240  24.282  37.609   4.176
43816W        W16241  10.326  36.315  10.664
43817W        W16242  39.194  26.628  13.733
43818W        W16243  36.820  24.345   5.030
43819W        W16244  19.383  14.530  11.635
43820W        W16245  12.845  23.337   3.703
43821W        W16246   8.913  22.109  13.409
43822W        W16247  39.090  28.023  10.950
43823W        W16248  21.628  17.975   3.299
43824W        W16249  21.174  43.598   0.297
43825W        W16250  15.442  36.397  13.974
43826W        W16251  27.460  35.154  13.928
43827W        W16252   7.208  37.542   3.720
43828W        W16253  23.970  36.384   2.398
43829W        W16254  31.174  36.051  12.110
43830W        W16255  43.878  43.810   4.575
43831W        W16256  14.348   2.589   5.113
43832W        W16257  21.238   4.121  10.147
43833W        W16258  33.475  21.574  14.099
43834W        W16259   2.037  36.084  12.450
43835W        W16260  29.457  28.597   3.315
43836W        W16261  27.971  28.972  13.094
43837W        W16262  31.618   5.298   1.324
43838W        W16263  10.660  17.712   0.300
43839W        W16264   1.320  27.435   2.836
43840W        W16265  27.566  10.660   0.749
43841W        W16266  21.628  39.744  13.768
43842W        W16267  42.517  34.335  11.084
43843W        W16268  14.434  17.468   0.982
43844W        W16269  42.039  33.364  14.065
43845W        W16270  20.883  23.576  10.533
43846W        W16271  23.188  35.457   4.478
43847W        W16272  41.348  40.651   3.765
43848W        W16273  10.931  19.632  13.454
43849W        W16274   5.375  22.851  12.097
43850W        W16275  14.796  21.352  11.172
43851W        W16276  11.368  23.056   3.630
43852W        W16277   4.181  17.664   3.869
43853W        W16278  35.525  43.488  10.669
43854W        W16279  20.991  24.135   0.275
43855W        W16280  10.863   0.300  14.248
43856W        W16281   9.705  16.076  11.539
43857W        W16282  35.863   5.880  14.460
43858W        W16283  30.189  14.868  12.525
43859W        W16284  23.003   4.438   1.010
43860W        W16285  38.208  20.142  11.117
43861W        W16286  23.892  16.326  14.871
43862W        W16287  37.892   9.388  14.680
43863W        W16288  42.497  31.175  14.521
43864W        W16289  30.440  24.607  11.571
43865W        W16290  32.366  18.874   3.336
43866W        W16291  13.167  25.723  12.335
43867W        W16292  34.552  27.308   4.498
43868W        W16293  34.744  14.795   2.165
43869W        W16294  12.635  32.030  13.109
43870W        W16295  35.741  44.691  14.366
43871W        W16296  32.708  11.025  14.330
43872W        W16297  15.907   8.205  11.661
43873W        W16298  37.368  43.600  10.274
43874W        W16299   9.005  17.071  13.307
43875W        W16300   7.932  38.063  10.961
43876W        W16301  33.923  11.572   1.253
43877W        W16302  40.479  20.376   2.662
43878W        W16303  40.426   8.900  12.936
43879W        W16304   5.920  44.897   1.736
43880W        W16305  36.109  27.967  10.729
43881W        W16306  15.137  17.185  12.312
43882W        W16307  25.559   9.110  13.431
43883W        W16308  33.004   1.337  13.098
43884W        W16309   1.864  29.442   2.889
43885W        W16310  30.590  42.901   3.354
43886W        W16311  10.753  20.115  13.544
43887W        W16312  31.060  38.277   0.277
43888W        W16313  11.991  10.587   0.968
43889W        W16314  16.360  13.278   4.151
43890W        W16315  27.395  44.529   0.234
43891W        W16316  10.843  11.480   3.240
43892W        W16317  30.846  13.187   4.957
43893W        W16318  40.380  29.257   4.283
43894W        W16319  25.196  17.761   1.199
43895W        W16320  11.207   3.431   4.854
43896W        W16321  15.512  43.755  12.999
43897W        W16322  24.022   8.628   3.220
43898W        W16323   3.374   7.668   0.404
43899W        W16324  29.144  27.157   2.432
43900W        W16325  42.891   8.731   3.265
43901W        W16326  16.769  39.316  14.384
43902W        W16327  37.220  20.554  13.982
43903W        W16328   7.953  13.207   2.850
43904W        W16329  35.046  21.233   3.677
43905W        W16330  40.517  43.498  12.927
43906W        W16331   8.013   4.429  14.715
43907W        W16332  38.078   6.250  11.621
43908W        W16333  44.760   8.782   3.139
43909W        W16334  38.799   5.402   0.334
43910W        W16335   7.580  12.053  10.719
43911W        W16336  33.372  12.421  10.655
43912W        W16337  38.692  17.177   3.901
43913W        W16338  37.657   6.931  12.550
43914W        W16339  33.119  21.254  11.125
43915W        W16340  25.132  23.645   0.874
43916W        W16341   8.134  19.233  13.817
43917W        W16342   1.804  32.437   2.283
43918W        W16343  19.183  36.061  10.724
43919W        W16344  34.898  25.536   2.199
43920W        W16345  14.961   2.764  14.242
43921W        W16346   6.199   4.814   2.148
43922W        W16347  38.400  42.761   0.750
43923W        W16348   2.957  26.491   0.158
43924W        W16349  22.532   6.830  11.099
43925W        W16350  11.303  40.930   0.269
43926W        W16351  30.046  11.884  14.483
43927W        W16352  43.734  16.795   1.692
43928W        W16353  36.983  34.934   1.828
43929W        W16354   9.049   3.305   1.446
43930W        W16355  19.813  44.973  11.448
43931W        W16356  24.050  39.577  12.964
43932W        W16357  42.651  29.648   2.796
43933W        W16358  25.497  10.318   4.200
43934W        W16359   2.947  29.692   3.915
43935W        W16360   4.151  40.107   3.276
43936W        W16361  18.279  42.116   3.611
43937W        W16362   4.165  43.208   2.865
43938W        W16363  39.203  32.776  13.010
43939W        W16364  25.431  14.050   0.004
43940W        W16365  20.064  25.459  11.092
43941W        W16366  39.344  26.737  13.129
43942W        W16367   6.740  28.512   4.602
43943W        W16368   7.977  21.709   3.217
43944W        W16369   3.751  44.324   1.723
43945W        W16370  32.446  31.794  11.519
43946W        W16371  43.680  41.618   3.138
43947W        W16372  26.483  26.248  11.573
43948W        W16373  32.106  23.397  11.035
43949W        W16374  22.307   6.362   4.019
43950W        W16375  16.782  34.087  14.498
43951W        W16376   5.600  15.675  11.487
43952W        W16377  32.459  20.749  11.101
43953W        W16378  13.563  27.638   2.683
43954W        W16379   3.958  17.672  14.108
43955W        W16380  38.867  43.417  11.000
43956W        W16381  22.801  22.150  14.715
43957W        W16382  29.102  13.606   0.314
43958W        W16383  27.454  30.458   2.201
43959W        W16384  37.910  37.590  10.431
43960W        W16385  14.756  14.051   4.130
43961W        W16386  32.490  13.162  11.652
43962W        W16387  41.810  42.975  10.730
43963W        W16388  36.594  11.311  11.009
43964W        W16389  22.083  25.086   4.376
43965W        W16390  42.957  19.992  14.948
43966W        W16391   2.252  22.812  14.805
43967W        W16392  27.949   3.186   3.775
43968W        W16393  36.293   7.729   2.394
43969W        W16394   2.789  17.104  12.986
43970W        W16395   5.336  14.660  13.174
43971W        W16396  39.309   2.959   3.336
43972W        W16397  36.027  29.467   0.356
43973W        W16398   0.744  25.647  14.822
43974W        W16399  28.155  34.644   3.722
43975W        W16400   4.723  21.260  11.740
43976W        W16401  17.586  18.348  10.962
43977W        W16402  12.168  31.890  12.007
43978W        W16403  43.259   3.477   3.656
43979W        W16404  24.729  23.976   4.600
43980W        W16405  34.521  19.210   4.210
43981W        W16406   3.088  33.231   4.064
43982W        W16407  29.418  13.676  12.548
43983W        W16408  13.751  41.874   3.193
43984W        W16409  26.942  25.493   0.379
43985W        W16410  11.244  39.773   3.315
43986W        W16411  19.687  42.094   4.724
43987W        W16412  32.917  44.208  13.832
43988W        W16413   7.956  20.112  12.857
43989W        W16414  37.384  25.158   3.748
43990W        W16415  17.028  30.720   1.158
43991W        W16416  20.574  32.919   2.821
43992W        W16417   5.973  33.337   4.017
43993W        W16418  39.854   6.164   3.754
43994W        W16419  32.563  42.828   1.376
43995W        W16420  27.962   3.693   4.004
43996W        W16421   0.918  17.304   3.803
43997W        W16422  17.189  26.953  14.946
43998W        W16423  43.262   4.069   4.777
43999W        W16424  34.478  37.325   2.506
44000W        W16425  23.876  41.135  12.888
44001W        W16426   4.967  30.989  14.460
44002W        W16427  41.575  44.351   3.787
44003W        W16428   2.955  29.279   3.635
44004W        W16429  19.351  37.977  12.089
44005W        W16430  44.488  26.260  13.522
44006W        W16431  12.528  37.843  10.624
44007W        W16432  15.720  22.228  12.145
44008W        W16433  21.294  24.785  14.512
44009W        W16434   2.157  44.703   0.833
44010W        W16435  43.657   1.179   1.831
44011W        W16436  43.575  36.877   4.825
44012W        W16437  14.385   2.389  12.075
44013W        W16438  25.600  30.637   1.685
44014W        W16439   1.454  20.306  12.977
44015W        W16440  16.509  34.385  14.156
44016W        W16441  34.323  25.601  12.959
44017W        W16442  31.151  31.011   2.718
44018W        W16443  44.778   9.422  14.761
44019W        W16444  12.792  43.530  13.690
44020W        W16445   2.347   0.872  14.528
44021W        W16446  19.799  30.791  10.606
44022W        W16447  32.190  23.662  13.531
44023W        W16448   7.308  44.792  14.881
44024W        W16449  19.840  28.113  13.898
44025W        W16450   3.496  31.009  11.705
44026W        W16451  24.085  21.598   2.376
44027W        W16452   3.075  36.464  13.539
44028W        W16453  12.628  24.565  12.338
44029W        W16454  34.359   3.367   4.342
44030W        W16455  13.836  31.157   3.683
44031W        W16456  36.099  25.029   4.149
44032W        W16457  39.420   9.427   0.791
44033W        W16458  34.202  23.959   2.726
44034W        W16459  30.615  32.375  12.973
44035W        W16460  25.509  32.479   0.985
44036W        W16461  25.054   3.189   1.763
44037W        W16462  17.711   6.026   2.008
44038W        W16463  20.784  28.757  11.033
44039W        W16464  39.233  17.485   1.789
44040W        W16465   1.440   8.848  13.768
44041W        W16466  36.459  23.580   9.808
44042W        W16467   9.330  23.066  13.097
44043W        W16468  19.211  35.454   2.135
44044W        W16469  44.132  29.932   1.282
44045W        W16470  31.033  15.794  11.442
44046W        W16471  29.537  37.099  14.274
44047W        W16472  36.672  35.467   0.792
44048W        W16473  36.475  44.359   1.028
44049W        W16474  22.707  31.650  12.056
44050W        W16475  14.777  35.076  12.384
44051W        W16476  26.021  25.716   3.102
44052W        W16477  35.646   0.431  12.372
44053W        W16478  12.740   1.412  13.813
44054W        W16479  25.643  28.855  14.838
44055W        W16480  38.823  20.579   1.222
44056W        W16481  20.104   4.407  11.697
44057W        W16482   1.023  41.959   4.327
44058W        W16483  13.338  10.289  10.517
44059W        W16484  38.948   9.654   0.873
44060W        W16485   3.804  35.623   4.759
44061W        W16486  43.496   2.801  12.227
44062W        W16487   0.940  26.724  13.796
44063W        W16488  42.499  31.000   3.785
44064W        W16489   6.277  18.846  12.198
44065W        W16490   5.297  18.643  13.067
44066W        W16491   9.973  24.917  12.913
44067W        W16492  24.309  25.031  12.467
44068W        W16493  36.112  37.760   3.545
44069W        W16494  34.870  27.576   2.727
44070W        W16495  18.141  41.537   0.457
44071W        W16496  30.787  17.319   2.254
44072W        W16497  23.505  34.449  14.945
44073W        W16498  15.053  35.501  13.628
44074W        W16499  38.982  18.289   4.087
44075W        W16500  15.205  30.450  11.318
44076W        W16501  16.308  29.193  14.718
44077W        W16502  34.970   3.175   2.665
44078W        W16503  16.618  23.316  12.586
44079W        W16504   4.417   9.010  11.407
44080W        W16505  32.636  33.826  12.770
44081W        W16506   2.132  19.668   5.078
44082W        W16507  15.678  15.108   1.964
44083W        W16508   7.523  15.168   0.538
44084W        W16509  24.074  10.415   1.922
44085W        W16510   0.299  44.246  11.933
44086W        W16511  14.475  30.968   4.967
44087W        W16512  31.079  33.947  14.750
44088W        W16513   3.836  41.375  13.009
44089W        W16514  28.108  33.635  12.501
44090W        W16515  43.770   9.284   1.238
44091W        W16516   3.995  22.877  11.983
44092W        W16517  29.766  11.169   2.359
44093W        W16518  31.860  17.962   2.835
44094W        W16519  27.589  15.192   4.131
44095W        W16520  30.545  11.808  13.781
44096W        W16521  12.652  18.609   0.819
44097W        W16522  37.430  15.823   0.530
44098W        W16523   8.436  39.970  14.818
44099W        W16524  43.043  31.203   3.819
44100W        W16525  17.438  31.810  10.563
44101W        W16526   3.674  12.092  11.047
44102W        W16527   5.136  31.589  14.947
44103W        W16528   6.634  16.512  14.409
44104W        W16529  42.773  27.655   3.731
44105W        W16530   2.451   6.808  14.392
44106W        W16531  34.510  35.455  10.823
44107W        W16532   7.646  44.418   3.260
44108W        W16533  21.711  18.096   2.797
44109W        W16534  42.472  17.649  10.422
44110W        W16535  13.010  23.480   1.900
44111W        W16536  11.485  12.599  13.542
44112W        W16537  40.983  26.498  14.402
44113W        W16538  40.299  30.551  14.747
44114W        W16539  26.574  18.335   3.969
44115W        W16540   5.430  24.458   1.677
44116W        W16541  22.418  13.836   1.256
44117W        W16542   8.864  31.037  13.866
44118W        W16543  21.313  43.370   2.145
44119W        W16544   9.047  40.886   4.509
44120W        W16545  43.422  32.817   1.833
44121W        W16546   6.150  43.469  13.389
44122W        W16547  27.404  33.871   0.323
44123W        W16548  23.887  28.401  11.187
44124W        W16549  32.225  36.795   3.849
44125W        W16550  11.890   7.825   2.307
44126W        W16551  38.474   3.190  13.516
44127W        W16552  13.373  24.250   2.381
44128W        W16553   1.211  23.523  13.026
44129W        W16554  13.252  43.374  12.159
44130W        W16555   1.215   4.387  14.234
44131W        W16556  43.029  22.563  13.913
44132W        W16557  13.583  40.457   2.824
44133W        W16558   7.614  19.959   3.169
44134W        W16559   6.767   2.831   0.950
44135W        W16560   1.772  22.426  12.601
44136W        W16561  15.587   7.416   4.675
44137W        W16562  42.132  12.401   3.608
44138W        W16563  26.531  21.067   0.008
44139W        W16564  44.075  42.074  12.650
44140W        W16565  34.896  16.112   1.958
44141W        W16566  42.891   6.378   4.051
44142W        W16567  15.967  25.843  14.378
44143W        W16568  38.482  28.744  14.484
44144W        W16569  23.213  40.325  10.627
44145W        W16570  14.898   2.338  12.120
44146W        W16571  30.470  19.959   1.813
44147W        W16572  44.854  10.645  12.383
44148W        W16573  22.660  42.393   0.404
44149W        W16574   1.371  20.199   0.860
44150W        W16575  18.603   1.308  10.424
44151W        W16576   3.837  41.283  12.105
44152W        W16577  26.181  31.057  14.031
44153W        W16578  32.415  35.344  14.974
44154W        W16579  29.114  43.109  12.988
44155W        W16580  31.287  39.646  14.872
44156W        W16581  10.776   9.279   3.641
44157W        W16582  21.295  42.764  12.847
44158W        W16583  28.119  27.437   0.193
44159W        W16584  15.973  13.791   2.870
44160W        W16585  29.354  17.599  12.385
44161W        W16586  15.418  38.521   3.527
44162W        W16587  20.653  28.990   0.809
44163W        W16588  19.823   0.850  10.193
44164W        W16589  10.350  25.657   2.844
44165W        W16590  32.651  25.630   2.195
44166W        W16591   7.850  25.055   2.746
44167W        W16592   1.848   7.265   4.193
44168W        W16593  40.948  24.650  13.796
44169W        W16594  40.346  29.461   2.214
44170W        W16595  28.530  32.916  10.294
44171W        W16596  31.178  21.526  10.532
44172W        W16597  29.146  32.137   2.349
44173W        W16598  42.303   5.372   1.493
44174W        W16599   6.327  21.765  10.767
44175W        W16600   2.906  12.133  13.973
44176W        W16601  19.187  42.384  11.107
44177W        W16602  22.229  28.934  12.750
44178W        W16603  41.033  21.103   4.174
44179W        W16604   9.296  18.682  14.375
44180W        W16605  24.195   9.302   3.194
44181W        W16606  35.278  21.704   0.522
44182W        W16607  43.454  14.363   3.160
44183W        W16608  33.153  19.255   0.919
44184W        W16609  24.028  16.155   2.456
44185W        W16610  26.597  19.129  11.501
44186W        W16611   9.591  20.763   1.363
44187W        W16612   2.179  43.918  10.972
44188W        W16613  12.772   9.384   4.084
44189W        W16614   7.342   8.296  11.484
44190W        W16615  24.657  22.447   0.803
44191W        W16616  43.937  37.410  12.125
44192W        W16617  29.502  40.948   3.693
44193W        W16618  13.846  43.558   1.418
44194W        W16619   5.434  35.099   2.651
44195W        W16620  18.680  41.879   2.368
44196W        W16621   9.080   1.273   3.828
44197W        W16622   9.250  41.226  13.319
44198W        W16623  43.636   4.210  14.262
44199W        W16624   5.447  16.570  13.859
44200W        W16625  27.138  32.923   0.427
44201W        W16626  21.248   1.191   1.403
44202W        W16627  29.918  28.179   2.013
44203W        W16628   9.648  29.544   4.850
44204W        W16629  24.026  37.025  13.975
44205W        W16630   8.299  39.508  14.075
44206W        W16631   8.446  39.388   4.203
44207W        W16632   6.992  40.327   2.074
44208W        W16633  19.137  13.826  14.285
44209W        W16634   8.211   0.918   1.258
44210W        W16635  36.503  40.816  12.962
44211W        W16636  41.977   2.247   1.869
44212W        W16637  26.436  24.203   3.870
44213W        W16638  34.540  44.909  14.994
44214W        W16639   2.438   2.849   0.419
44215W        W16640   6.747  44.549   3.135
44216W        W16641  38.449  35.267  12.110
44217W        W16642  27.538  21.677  13.992
44218W        W16643  39.097   1.368  12.927
44219W        W16644  25.104  13.176  14.236
44220W        W16645  31.477   2.651   1.315
44221W        W16646   4.952  16.758  13.882
44222W        W16647   3.745  28.622   4.750
44223W        W16648  36.608  35.015  11.918
44224W        W16649  33.469  33.530  13.039
44225W        W16650  29.651  35.519   2.246
44226W        W16651  25.408  17.788  14.410
44227W        W16652  27.253   9.118   0.709
44228W        W16653  13.639  29.604  10.742
44229W        W16654  11.402  42.886   1.794
44230W        W16655  37.366  40.228  11.021
44231W        W16656  18.065  30.705   0.304
44232W        W16657  19.919  18.083  11.636
44233W        W16658  17.294   0.990   2.649
44234W        W16659  36.424  17.870   9.947
44235W        W16660   5.614  11.217  12.950
44236W        W16661  35.927  38.479  13.842
44237W        W16662  37.076  12.724  13.846
44238W        W16663  29.598  35.160   4.733
44239W        W16664  42.784  24.200   2.761
44240W        W16665  11.300  37.773   3.493
44241W        W16666  39.859  13.586  12.042
44242W        W16667   1.386  30.409  11.023
44243W        W16668   0.269  42.699   3.590
44244W        W16669  44.695  23.179   0.265
44245W        W16670  29.061  21.573  13.139
44246W        W16671  28.895  44.902  12.930
44247W        W16672   8.715  42.476   4.712
44248W        W16673   2.523  41.654   0.861
44249W        W16674  39.360  22.732   2.172
44250W        W16675  14.392   8.156  13.462
44251W        W16676   8.949   8.202   0.898
44252W        W16677   1.432  29.669   2.689
44253W        W16678  15.966  27.537  10.071
44254W        W16679  29.582   6.231  13.447
44255W        W16680  28.965  33.375   0.747
44256W        W16681  41.800  30.813  14.952
44257W        W16682  25.904  10.161  14.258
44258W        W16683  12.121   4.958  13.841
44259W        W16684  41.771  40.583  10.654
44260W        W16685  44.048  22.820   1.730
44261W        W16686  20.444  14.584   0.846
44262W        W16687  26.222  23.061  11.515
44263W        W16688  15.678  34.440   4.528
44264W        W16689   5.282   9.923  13.952
44265W        W16690  23.760  42.157  11.481
44266W        W16691  44.525  23.326  14.786
44267W        W16692  27.073   5.174  11.110
44268W        W16693  14.325   3.194   3.196
44269W        W16694  14.425  31.891  12.926
44270W        W16695   3.874  30.927   0.857
44271W        W16696   7.811  36.102  14.243
44272W        W16697  27.048  24.303   1.133
44273W        W16698  44.413  35.149  13.801
44274W        W16699  31.557  15.829   5.042
44275W        W16700  23.422  12.422   0.807
44276W        W16701  27.455  41.237   4.772
44277W        W16702   2.968  13.333   4.146
44278W        W16703   0.741  44.746   4.671
44279W        W16704   8.293  36.510   3.729
44280W        W16705  35.422   9.581  12.995
44281W        W16706  26.045  35.129   1.753
44282W        W16707  36.993  41.288   2.345
44283W        W16708   0.809   8.421  12.058
44284W        W16709   9.159   8.636   3.303
44285W        W16710  23.501  40.426   3.383
44286W        W16711   8.871  37.459  10.196
44287W        W16712  13.318   5.841  11.046
44288W        W16713   9.597  22.638  13.274
44289W        W16714  16.312  14.730   1.280
44290W        W16715  39.575  27.167   4.953
44291W        W16716  35.314  34.428  13.907
44292W        W16717  34.488  39.002   3.679
44293W        W16718   4.645  27.204  11.106
44294W        W16719   4.845  24.217   2.774
44295W        W16720  28.535  23.072   3.628
44296W        W16721  18.760  39.668  10.718
44297W        W16722  33.585  39.028   2.756
44298W        W16723   5.471  27.358   2.613
44299W        W16724   4.641   1.688  11.595
44300W        W16725   0.016  41.230   2.272
44301W        W16726  10.526  10.272  10.499
44302W        W16727  40.500   1.859  12.656
44303W        W16728  15.389  31.108   0.247
44304W        W16729   7.703  42.207   4.393
44305W        W16730  38.855  36.193  11.210
44306W        W16731  30.719  20.623  11.537
44307W        W16732  11.218  21.628  13.940
44308W        W16733  18.252  24.029  13.015
44309W        W16734   3.767  41.103  13.462
44310W        W16735  10.576  21.195  11.278
44311W        W16736  33.404  26.299  14.975
44312W        W16737  16.793  41.849   0.448
44313W        W16738  40.207  42.722   5.137
44314W        W16739  33.063  38.806   1.545
44315W        W16740  39.199  19.735   1.228
44316W        W16741   1.838  12.396   2.823
44317W        W16742   5.728  23.494   0.263
44318W        W16743  24.891  13.249  14.696
44319W        W16744   2.692  31.080  14.231
44320W        W16745  28.410  12.131  11.159
44321W        W16746   6.936   1.361   1.033
44322W        W16747  38.139  36.454  12.877
44323W        W16748   2.512  20.366  11.683
44324W        W16749  27.982  25.402  11.200
44325W        W16750  22.165   9.746  11.612
44326W        W16751   1.638   5.833  14.557
44327W        W16752  26.514   1.826   1.704
44328W        W16753  20.516  17.921   3.595
44329W        W16754  14.631  31.734  14.245
44330W        W16755  32.892  44.500  14.380
44331W        W16756  15.177  16.236  13.311
44332W        W16757  37.936   5.667  12.426
44333W        W16758   0.757   4.238   3.174
44334W        W16759  27.983  21.105   0.600
44335W        W16760  12.173  23.356   2.256
44336W        W16761  12.341  15.134  13.717
44337W        W16762  39.132  27.121  12.037
44338W        W16763  29.984  22.559  13.527
44339W        W16764  32.633  10.177  11.434
44340W        W16765  13.806  20.103  10.553
44341W        W16766  34.903  15.718  11.682
44342W        W16767  35.864  18.279   2.788
44343W        W16768  16.240  36.791   3.550
44344W        W16769  36.437   2.917   0.062
44345W        W16770  25.778   5.994  10.661
44346W        W16771  28.841  40.870   0.824
44347W        W16772   2.484  31.928   4.362
44348W        W16773  17.602   5.405  11.178
44349W        W16774  16.643  40.814   0.356
44350W        W16775  16.721  26.585   4.050
44351W        W16776  19.262  43.643  11.603
44352W        W16777   9.193   2.394   0.461
44353W        W16778  33.645  23.988  11.523
44354W        W16779  18.823  32.907  10.664
44355W        W16780  21.060  24.634   0.416
44356W        W16781   8.608  12.820   4.230
44357W        W16782  24.705  29.874   0.002
44358W        W16783  31.631  22.075  14.505
44359W        W16784  13.155  28.644  14.340
44360W        W16785  20.631  26.879  12.434
44361W        W16786  26.787  42.413  11.207
44362W        W16787  19.521   2.490  13.919
44363W        W16788   9.667  42.762  14.263
44364W        W16789  25.071  44.452   3.320
44365W        W16790   5.752   3.625  14.495
44366W        W16791  11.335  28.671  11.045
44367W        W16792  27.862  30.687   0.366
44368W        W16793   3.025  35.923  13.552
44369W        W16794  11.301  36.352   1.795
44370W        W16795   0.350  13.083  13.968
44371W        W16796   2.493   8.733  11.155
44372W        W16797  43.364  13.304  14.771
44373W        W16798  11.304  16.157   0.111
44374W        W16799  22.975   1.706   1.225
44375W        W16800  11.643  44.589  13.770
44376W        W16801  40.454  11.692   0.285
44377W        W16802  31.413   1.822  13.505
44378W        W16803  43.770  20.698  11.135
44379W        W16804  27.389  23.444  12.481
44380W        W16805  25.441  13.250  13.283
44381W        W16806  30.070  42.926   0.568
44382W        W16807  30.430   9.709   1.369
44383W        W16808  21.066  10.198  11.960
44384W        W16809  43.978  28.622   0.966
44385W        W16810  32.703  36.558   3.821
44386W        W16811   4.861  38.520  13.847
44387W        W16812   1.544   2.366  13.494
44388W        W16813  40.892  20.282  12.042
44389W        W16814   3.940  34.303   2.791
44390W        W16815  38.574  42.824   5.450
44391W        W16816  41.782  19.094   3.766
44392W        W16817  11.956  23.229  13.472
44393W        W16818  15.851  25.027  14.361
44394W        W16819   0.714  43.059   3.718
44395W        W16820  29.663  27.150  10.759
44396W        W16821  26.657  17.587   3.697
44397W        W16822  42.454  24.513   1.945
44398W        W16823  26.609   7.817   1.560
44399W        W16824   5.438   8.168   2.086
44400W        W16825  34.082  39.597   4.474
44401W        W16826  16.223  38.122   0.737
44402W        W16827  34.131  33.100   3.307
44403W        W16828  15.248   2.265  11.752
44404W        W16829  15.711  41.282  11.071
44405W        W16830  34.130  12.300   3.294
44406W        W16831  44.348  34.924   4.561
44407W        W16832  32.048  37.775   3.978
44408W        W16833  25.644  28.240   4.234
44409W        W16834   1.779  25.694  11.080
44410W        W16835   2.670   3.847  13.546
44411W        W16836  29.265  28.458  10.854
44412W        W16837   8.730   9.156  10.793
44413W        W16838  27.281  19.004  13.015
44414W        W16839  24.007  44.235  13.425
44415W        W16840   8.370  41.820   0.853
44416W        W16841  20.018   3.860  10.688
44417W        W16842  23.880  28.904   3.867
44418W        W16843  21.640  20.576   0.897
44419W        W16844  36.348  22.175   4.207
44420W        W16845  17.298  43.989  11.484
44421W        W16846  14.338  37.122   2.016
44422W        W16847  31.487  31.188   1.787
44423W        W16848  24.283   8.636   2.316
44424W        W16849   1.415  20.432   0.345
44425W        W16850  31.581  40.038   0.103
44426W        W16851  12.340   9.896  13.497
44427W        W16852  42.234  33.409   4.107
44428W        W16853  13.087  26.247   2.259
44429W        W16854  43.761  20.750  13.499
44430W        W16855  29.446  23.201  12.397
44431W        W16856  16.543  10.611  14.257
44432W        W16857   3.954  29.658  14.086
44433W        W16858  19.448  14.193  14.599
44434W        W16859  31.698  26.192   0.268
44435W        W16860  40.949  17.968   3.718
44436W        W16861  41.093  11.798  11.834
44437W        W16862   6.566  21.470  13.409
44438W        W16863   0.895   5.615  13.868
44439W        W16864   1.107  44.499  10.348
44440W        W16865  31.042   2.799   4.123
44441W        W16866  24.512  22.726   1.837
44442W        W16867  40.831   5.903   0.764
44443W        W16868   0.254  17.601  10.402
44444W        W16869  10.712   2.534   0.676
44445W        W16870  43.037  15.550   2.392
44446W        W16871  24.152   0.261  13.338
44447W        W16872  18.307  28.134   2.248
44448W        W16873  41.866  39.964   0.357
44449W        W16874  26.474  10.259   2.713
44450W        W16875   4.447  24.551  10.626
44451W        W16876  43.739  37.532  13.959
44452W        W16877  30.615  38.731  12.396
44453W        W16878  26.177  11.767  11.371
44454W        W16879  41.444   7.134  14.596
44455W        W16880  28.944  18.420  10.747
44456W        W16881  26.633  21.386  11.154
44457W        W16882  14.888  25.917  11.976
44458W        W16883  16.977  12.545   3.782
44459W        W16884  31.113  41.788  14.052
44460W        W16885  14.158  13.612  14.320
44461W        W16886  23.024   6.304  14.903
44462W        W16887  30.008  32.060   2.238
44463W        W16888  11.541  16.135   0.564
44464W        W16889  12.277  44.450   2.097
44465W        W16890  33.662  27.577  13.487
44466W        W16891  28.559  16.519   2.301
44467W        W16892  16.997  38.378   3.707
44468W        W16893  10.233  39.044  13.399
44469W        W16894  24.174  37.876  13.391
44470W        W16895  43.233  41.840  12.910
44471W        W16896  11.913  28.648  13.888
44472W        W16897  25.485   9.772  11.914
44473W        W16898  21.500  30.650   4.103
44474W        W16899  42.444  13.936  14.524
44475W        W16900  43.990   4.890   1.280
44476W        W16901  25.651  17.045   0.993
44477W        W16902  22.496  31.335  11.575
44478W        W16903  29.030  36.304  14.250
44479W        W16904   0.284  32.387   2.551
44480W        W16905  42.040  15.133  11.220
44481W        W16906   3.354   6.631   5.187
44482W        W16907  35.865  11.448   4.592
44483W        W16908   1.232  22.737   3.661
44484W        W16909  23.303   7.238   2.918
44485W        W16910   8.269   6.031   4.594
44486W        W16911   3.427  22.581   1.295
44487W        W16912  35.656  44.026  12.426
44488W        W16913   5.855  10.759   0.760
44489W        W16914  13.931   0.380   2.980
44490W        W16915   0.976  27.069   1.369
44491W        W16916  13.774  36.178  12.490
44492W        W16917  16.622  33.371  11.532
44493W        W16918  36.019  17.360   2.835
44494W        W16919   2.468  25.393   0.707
44495W        W16920  19.480  30.179  12.524
44496W        W16921  13.935  44.837  13.539
44497W        W16922  40.354  16.821  13.395
44498W        W16923   7.450  39.263  13.928
44499W        W16924  31.316  14.119  11.564
44500W        W16925   4.470   9.356  14.906
44501W        W16926   4.169  33.544  10.525
44502W        W16927  36.546   1.198  10.692
44503W        W16928  30.445  17.902   3.739
44504W        W16929  12.697   8.348   3.237
44505W        W16930  31.974  21.089   0.354
44506W        W16931   0.428  34.052   4.347
44507W        W16932   8.118  34.353   3.146
44508W        W16933   0.381  27.508  14.069
44509W        W16934  13.694  17.318   1.405
44510W        W16935   9.323  30.675  10.734
44511W        W16936  19.736  25.523  13.344
44512W        W16937  44.427  10.704  13.969
44513W        W16938  23.464   4.286   4.101
44514W        W16939  31.906  23.140   2.865
44515W        W16940  41.432  43.457  11.359
44516W        W16941   8.409  41.919  12.495
44517W        W16942  26.575  27.846  13.477
44518W        W16943  32.949  23.451  14.862
44519W        W16944  33.762  12.562   2.816
44520W        W16945  29.395  16.672   2.702
44521W        W16946   5.145   5.301   0.759
44522W        W16947  10.671  32.716   2.435
44523W        W16948   4.490  20.575  13.521
44524W        W16949  20.130  38.551  14.314
44525W        W16950  42.555  14.441  14.422
44526W        W16951  34.106   2.629  14.017
44527W        W16952   7.164  26.908  11.133
44528W        W16953   7.880  31.651  14.330
44529W        W16954   2.966  28.599  14.286
44530W        W16955   9.390  44.912   3.247
44531W        W16956  23.439  40.871   2.234
44532W        W16957  17.244   2.767   0.888
44533W        W16958  21.077  41.240  13.407
44534W        W16959  33.489  17.791  12.489
44535W        W16960  38.444  43.043   1.185
44536W        W16961  39.836  40.922   3.678
44537W        W16962   3.453  33.533  13.966
44538W        W16963  38.357  21.548   4.337
44539W        W16964  34.846  26.424   1.446
44540W        W16965  26.503  38.775  13.455
44541W        W16966  35.398  30.981  12.087
44542W        W16967  35.525  40.558  13.455
44543W        W16968  23.525  37.831  12.680
44544W        W16969   8.834  23.688  11.490
44545W        W16970  26.075  36.923   2.928
44546W        W16971  12.843  42.127   4.080
44547W        W16972  33.434  28.958  12.804
44548W        W16973   8.196  40.851  10.602
44549W        W16974  21.098  18.061  12.910
44550W        W16975  36.608   7.352   1.853
44551W        W16976   6.849   8.214  13.152
44552W        W16977  30.623   1.812  11.071
44553W        W16978  18.576  26.399  10.338
44554W        W16979  31.501   9.168   1.863
44555W        W16980  20.782  14.164   4.434
44556W        W16981  29.188   8.439   3.295
44557W        W16982  40.801  39.578   3.258
44558W        W16983  41.398   8.799   1.783
44559W        W16984  23.306  21.119   1.207
44560W        W16985   0.537  18.001  13.216
44561W        W16986  13.463   6.136   2.828
44562W        W16987  42.077  26.906   2.758
44563W        W16988  42.285   2.750  11.138
44564W        W16989  10.774  30.475   0.856
44565W        W16990  18.743  39.444   1.292
44566W        W16991  34.321   1.378   3.345
44567W        W16992  12.713  41.620  14.389
44568W        W16993  38.971  32.858   4.034
44569W        W16994  20.187  40.922  10.759
44570W        W16995  17.671   0.539  10.623
44571W        W16996   3.203   0.819   2.676
44572W        W16997  14.489  32.522  13.067
44573W        W16998  11.681  27.464  13.490
44574W        W16999  26.994  40.087  14.825
44575W        W17000  41.480  29.621   2.096
44576W        W17001  44.341  41.860  11.600
44577W        W17002   9.324  39.303  13.453
44578W        W17003  19.583  39.773   0.276
44579W        W17004  32.332  20.112  11.857
44580W        W17005  42.388  12.032   2.867
44581W        W17006  21.650  27.489  14.471
44582W        W17007  37.342  11.668  14.288
44583W        W17008  31.438  40.993   2.499
44584W        W17009  34.034   9.160  14.428
44585W        W17010   1.149   6.348   1.635
44586W        W17011  27.827  26.081  12.781
44587W        W17012  37.839  10.368  10.548
44588W        W17013  37.621  11.257  14.466
44589W        W17014   6.660  12.895   1.714
44590W        W17015  32.842  38.565   4.624
44591W        W17016  36.528  42.865   3.093
44592W        W17017  31.466  13.273  12.247
44593W        W17018  40.006  42.528   0.468
44594W        W17019  29.106  38.833  12.483
44595W        W17020  29.163  27.995   4.171
44596W        W17021  26.208  42.821  12.508
44597W        W17022   3.786  41.919  13.054
44598W        W17023  40.362  13.323   3.985
44599W        W17024  43.267   4.731  11.135
44600W        W17025   9.543  20.070   4.783
44601W        W17026  24.987  11.086   0.451
44602W        W17027   0.147  23.676   4.139
44603W        W17028  18.263  40.327   2.611
44604W        W17029  34.676  18.250  14.985
44605W        W17030  38.577  17.373  14.843
44606W        W17031  40.428  18.410  11.072
44607W        W17032  25.064  10.891  12.680
44608W        W17033  25.553  13.718  14.467
44609W        W17034  11.693  18.027   4.423
44610W        W17035  14.492  39.138  12.856
44611W        W17036  20.620   1.656  10.741
44612W        W17037  25.593  38.084  12.002
44613W        W17038   0.305   7.173  13.347
44614W        W17039   2.348  29.671   4.629
44615W        W17040  36.284  31.991  10.823
44616W        W17041  11.341   1.851  11.518
44617W        W17042  10.875  13.696   1.666
44618W        W17043  44.412  27.433   2.749
44619W        W17044   0.476   4.214   4.893
44620W        W17045   7.179  13.499   3.782
44621W        W17046  41.969  17.570   0.841
44622W        W17047  39.390  27.148  14.411
44623W        W17048  19.587  13.693  11.599
44624W        W17049  34.615   7.079  10.887
44625W        W17050  44.523  20.346   4.532
44626W        W17051   7.859  43.866  11.506
44627W        W17052   7.284   7.868   1.421
44628W        W17053  35.026   1.440  10.963
44629W        W17054  16.678  16.761   3.658
44630W        W17055  33.635  12.326   0.985
44631W        W17056  13.170   1.248  13.476
44632W        W17057  13.013   0.289   3.166
44633W        W17058  39.671  20.569  14.823
44634W        W17059  29.067   8.232  14.034
44635W        W17060   9.137   6.365  14.048
44636W        W17061   4.223   5.840   0.864
44637W        W17062  22.191  39.061   0.580
44638W        W17063   4.666  10.839  14.721
44639W        W17064  13.417  15.347   1.205
44640W        W17065   2.091  16.474  12.359
44641W        W17066  12.147  22.290  12.121
44642W        W17067  39.954  20.599  12.445
44643W        W17068  12.203  15.179  11.952
44644W        W17069  31.896  18.779  10.405
44645W        W17070  24.169  18.774  14.748
44646W        W17071  38.921  18.469   5.133
44647W        W17072  31.516  34.483   3.508
44648W        W17073  19.243  13.717   0.964
44649W        W17074  29.627  24.256  14.789
44650W        W17075  17.818  19.159   4.091
44651W        W17076  36.943  41.946  13.928
44652W        W17077  17.747  19.011  12.368
44653W        W17078  12.360  43.427   0.574
44654W        W17079   7.210  12.699  11.384
44655W        W17080  43.358  42.849  12.849
44656W        W17081  23.172  28.472   4.823
44657W        W17082  25.883  11.322  14.602
44658W        W17083  34.100  33.646   3.297
44659W        W17084  27.289  14.096  12.565
44660W        W17085  41.234   8.168   3.876
44661W        W17086  43.898  25.492   4.495
44662W        W17087  21.571  20.130  12.431
44663W        W17088  11.893  15.150  10.743
44664W        W17089  20.758  27.527   0.478
44665W        W17090  32.824  21.924   4.091
44666W        W17091   7.035  25.675   1.659
44667W        W17092  36.702  18.413   0.984
44668W        W17093  29.054   0.666  13.342
44669W        W17094   5.724  14.803   3.213
44670W        W17095  41.893  34.813  11.555
44671W        W17096  12.214  13.547  12.044
44672W        W17097  44.478  34.743  14.114
44673W        W17098  27.007  25.402   4.916
44674W        W17099   2.673  38.360   2.142
44675W        W17100  28.157  14.032  12.044
44676W        W17101   2.931  11.363  14.559
44677W        W17102   1.337  44.802   3.629
44678W        W17103  28.932   1.952  12.977
44679W        W17104  40.263  44.041   2.444
44680W        W17105   8.804   0.323  13.436
44681W        W17106   3.379  28.919  13.599
44682W        W17107  10.611  16.029   3.796
44683W        W17108  12.112  31.829   2.703
44684W        W17109  21.157   1.096   4.147
44685W        W17110  27.429  28.645  14.433
44686W        W17111   8.696   2.389  11.427
44687W        W17112  40.911   7.769   0.835
44688W        W17113  33.434  16.714   3.580
44689W        W17114  38.702  21.054   2.922
44690W        W17115  39.108  38.450  12.080
44691W        W17116   9.033  40.337   3.170
44692W        W17117  37.969  19.183   1.456
44693W        W17118   2.807  12.810  12.459
44694W        W17119  28.595  12.932   2.763
44695W        W17120  34.853   8.902   0.829
44696W        W17121  29.248  13.633  13.055
44697W        W17122  23.585  12.897   3.697
44698W        W17123   7.599  35.666  13.371
44699W        W17124  35.734  41.428   3.649
44700W        W17125  22.204  18.484   5.039
44701W        W17126   2.820  15.422   0.310
44702W        W17127  26.545  17.771  13.091
44703W        W17128  24.752   3.868   0.891
44704W        W17129  28.889  37.885   1.659
44705W        W17130  12.173  28.307  11.707
44706W        W17131  18.312   5.357  12.047
44707W        W17132   0.998   0.200   1.915
44708W        W17133  34.409  37.930   0.259
44709W        W17134  12.933   7.738   4.201
44710W        W17135  35.917   5.416   2.886
44711W        W17136  10.064   2.943   2.468
44712W        W17137   0.646  30.009   0.447
44713W        W17138  35.023  21.987   3.083
44714W        W17139  38.859   1.104   0.229
44715W        W17140   0.345   9.155   4.630
44716W        W17141  44.358  19.690  11.604
44717W        W17142  15.468   0.240   4.998
44718W        W17143   2.709  27.420   2.444
44719W        W17144  30.054   6.355   3.855
44720W        W17145  39.326  26.727  11.776
44721W        W17146  17.861  10.795  12.554
44722W        W17147  28.085  31.655   0.971
44723W        W17148  39.307  33.412   2.938
44724W        W17149  18.559  30.182   2.427
44725W        W17150  29.403  31.495  10.970
44726W        W17151  10.292   5.685   0.876
44727W        W17152  24.638   4.622   3.340
44728W        W17153  44.943  19.800   0.789
44729W        W17154   0.931  11.803  13.973
44730W        W17155  26.389   3.725   2.639
44731W        W17156  24.173  41.446   1.401
44732W        W17157   2.623  11.285   0.529
44733W        W17158  14.991  30.902   2.035
44734W        W17159  44.753  42.711   4.779
44735W        W17160  23.940  33.503  14.447
44736W        W17161  14.220  33.693   0.597
44737W        W17162  34.406   1.312  11.464
44738W        W17163  14.700   5.622  12.737
44739W        W17164  33.620  41.392   4.248
44740W        W17165   2.950   5.446   3.784
44741W        W17166  30.991  30.970   1.738
44742W        W17167  11.597  35.266   1.377
44743W        W17168  21.161  10.086   0.491
44744W        W17169  22.237  35.934   3.202
44745W        W17170  10.168  35.363   1.335
44746W        W17171   2.196   6.912   2.758
44747W        W17172  36.608  40.279  11.521
44748W        W17173   9.698  13.276  11.694
44749W        W17174  40.969  26.549  13.842
44750W        W17175  29.495   6.608  12.453
44751W        W17176   2.476  20.995  12.989
44752W        W17177   4.700  41.432  12.037
44753W        W17178  26.658  26.142  11.103
44754W        W17179  23.469   6.880  10.631
44755W        W17180  10.406   0.514   5.116
44756W        W17181  32.537  19.294  11.031
44757W        W17182  17.210  43.831   0.040
44758W        W17183  27.415  29.499   0.283
44759W        W17184  13.143  13.356  11.281
44760W        W17185  34.556  27.097  13.383
44761W        W17186  28.008  25.266  13.758
44762W        W17187  31.757   5.216   3.669
44763W        W17188   0.284  28.996  14.084
44764W        W17189   3.187  31.901   3.726
44765W        W17190   7.570  35.143  11.582
44766W        W17191  28.449  28.690   1.760
44767W        W17192  23.217   4.213  12.759
44768W        W17193  31.920  11.582  11.162
44769W        W17194   3.516  42.345   2.829
44770W        W17195   6.847  35.341  10.444
44771W        W17196  39.083  33.589   2.484
44772W        W17197   3.926   2.024  14.291
44773W        W17198  13.419  17.579   2.342
44774W        W17199  40.877  34.340  14.091
44775W        W17200  40.438   4.881   2.880
44776W        W17201  37.946  33.181   0.418
44777W        W17202  17.047  37.552   0.957
44778W        W17203  25.995  20.125   3.325
44779W        W17204   2.888  32.004   1.437
44780W        W17205   1.171   1.057  14.297
44781W        W17206   8.259  14.262  14.705
44782W        W17207  12.638  34.260  11.903
44783W        W17208   3.909   6.182   4.073
44784W        W17209  21.980   8.427   4.274
44785W        W17210  25.931  22.940  13.873
44786W        W17211  38.304  12.674  12.994
44787W        W17212   9.761  17.322  11.300
44788W        W17213  37.953  26.715   1.408
44789W        W17214  41.855  26.572   0.827
44790W        W17215   9.870   9.042  10.698
44791W        W17216  29.548  25.599   2.650
44792W        W17217  38.299  14.503  11.223
44793W        W17218  32.350  40.144  14.069
44794W        W17219  32.572  24.574  11.109
44795W        W17220   6.360   2.581  14.717
44796W        W17221  23.451  25.218   3.725
44797W        W17222  19.095  41.646   4.074
44798W        W17223  44.882   5.823   1.010
44799W        W17224  15.809   3.750  12.886
44800W        W17225  22.075  35.355   0.410
44801W        W17226  11.895  32.458   2.743
44802W        W17227  26.684  13.751  11.091
44803W        W17228  31.189  15.525   3.634
44804W        W17229  16.305  39.973  12.213
44805W        W17230  42.793  14.619   3.865
44806W        W17231  39.625   2.893   1.414
44807W        W17232   7.280  41.328   3.246
44808W        W17233  13.968  15.726   2.236
44809W        W17234  28.158   4.913  11.716
44810W        W17235  16.976  17.032   0.449
44811W        W17236   5.187  30.062   0.794
44812W        W17237  10.159   2.256  14.601
44813W        W17238  36.018  14.629   4.631
44814W        W17239  12.752  32.343   1.918
44815W        W17240  38.825  35.875   4.681
44816W        W17241  11.506   0.092   1.217
44817W        W17242  29.136   7.932   2.181
44818W        W17243  36.024  27.544  11.573
44819W        W17244   3.860  29.516   4.378
44820W        W17245  27.955  34.878  14.023
44821W        W17246   8.165  16.725  14.481
44822W        W17247  44.729   3.669   2.389
44823W        W17248  35.000  28.507  11.881
44824W        W17249  18.964  22.519  11.111
44825W        W17250   5.754   7.672  12.012
44826W        W17251  22.497  14.027  14.704
44827W        W17252  19.060   0.379   3.285
44828W        W17253  40.458  28.657   3.120
44829W        W17254  39.864   0.295  12.803
44830W        W17255  30.409  18.558   2.142
44831W        W17256   4.644   2.189  11.517
44832W        W17257   7.520  22.424   4.182
44833W        W17258  22.676  16.798  14.587
44834W        W17259  18.423   9.378   1.454
44835W        W17260  40.703  12.576  12.110
44836W        W17261  32.717  39.105   5.042
44837W        W17262   2.735   7.199   3.389
44838W        W17263  32.662  35.636   1.420
44839W        W17264  40.943  19.073  13.420
44840W        W17265  16.898  25.789  13.837
44841W        W17266  38.871   5.717  11.529
44842W        W17267  36.026  19.106   3.412
44843W        W17268  11.301   4.405  10.888
44844W        W17269  37.858  25.710   0.911
44845W        W17270   5.551  37.275   1.441
44846W        W17271   4.906   7.519   4.097
44847W        W17272  39.809  40.587  11.751
44848W        W17273  17.341  10.685  11.542
44849W        W17274   6.402  28.990   3.153
44850W        W17275  17.588  20.737  10.653
44851W        W17276  44.311   4.950  12.647
44852W        W17277   7.445  30.177  10.614
44853W        W17278  32.693  42.830  12.025
44854W        W17279  13.712  20.492  13.918
44855W        W17280  37.006  39.193   1.634
44856W        W17281  31.104  19.919  13.225
44857W        W17282  25.103  32.079  10.392
44858W        W17283  40.747  38.770  10.732
44859W        W17284  13.734  10.354  13.569
44860W        W17285  21.061  43.951  13.421
44861W        W17286  15.104   4.783  14.760
44862W        W17287   5.401  19.649   0.375
44863W        W17288  18.754  32.816  13.529
44864W        W17289  35.645   6.303   1.262
44865W        W17290  23.610  33.058  14.486
44866W        W17291  40.539  28.604   2.104
44867W        W17292  21.509  31.718   3.793
44868W        W17293  42.746  25.415  13.486
44869W        W17294  17.194  10.923   1.708
44870W        W17295  30.957  28.073   2.696
44871W        W17296  41.179  33.056   4.191
44872W        W17297  10.801  14.636   1.190
44873W        W17298  41.772  20.316   0.532
44874W        W17299  41.038  24.518  14.827
44875W        W17300   0.847  18.599   1.940
44876W        W17301  28.932  40.392   2.579
44877W        W17302  35.869  18.062   1.392
44878W        W17303   5.450  39.581  13.964
44879W        W17304  20.315  25.950  14.850
44880W        W17305   1.022  30.966   1.011
44881W        W17306   9.733  39.043  11.603
44882W        W17307  42.304  26.589   1.498
44883W        W17308  40.391  39.477  13.332
44884W        W17309  30.117  27.586   1.777
44885W        W17310  33.597  16.625   1.725
44886W        W17311   3.390  16.017   2.292
44887W        W17312  21.146  34.577   4.606
44888W        W17313  44.264  37.409   2.905
44889W        W17314  30.372   3.240  14.997
44890W        W17315  32.752  35.436  11.575
44891W        W17316   5.729  16.561   3.409
44892W        W17317  33.847  32.830   3.680
44893W        W17318  32.897  20.246   1.763
44894W        W17319  42.289  16.292  11.482
44895W        W17320  20.189  44.702   1.394
44896W        W17321  35.823  21.556   4.566
44897W        W17322  29.924   7.308  14.945
44898W        W17323  24.168  15.394   1.480
44899W        W17324  35.815   1.910  13.046
44900W        W17325   1.906  41.972  13.212
44901W        W17326  38.460  44.310  10.562
44902W        W17327  35.662   4.788  11.617
44903W        W17328  24.639  25.112   1.452
44904W        W17329  34.357  35.025   2.620
44905W        W17330   3.278  36.958   3.730
44906W        W17331  19.332   5.018  14.798
44907W        W17332  32.872  36.226   3.466
44908W        W17333  16.979  23.210  13.486
44909W        W17334  36.598  43.795   2.575
44910W        W17335  20.649   8.471  11.947
44911W        W17336  15.702  36.075  14.638
44912W        W17337  28.907  24.676  13.557
44913W        W17338  15.298  34.386   2.608
44914W        W17339  23.452   2.453  11.686
44915W        W17340   1.982  43.804  12.790
44916W        W17341   3.114   0.493   2.286
44917W        W17342  40.089   1.944   1.796
44918W        W17343  15.896   3.869   1.955
44919W        W17344  16.174  34.784  14.108
44920W        W17345   4.498  28.171  13.787
44921W        W17346   6.258  28.118   9.900
44922W        W17347  42.862   5.199   0.174
44923W        W17348  26.105  31.823   1.360
44924W        W17349  11.039  30.563  14.683
44925W        W17350  39.086  43.706   2.231
44926W        W17351  39.968  21.547   0.713
44927W        W17352  18.212  15.634  12.527
44928W        W17353   5.801  40.294  11.669
44929W        W17354   0.069  41.430  13.031
44930W        W17355  31.713  36.910   3.973
44931W        W17356   2.912   3.468  11.310
44932W        W17357  36.008  25.830  10.481
44933W        W17358   6.225  23.997   2.856
44934W        W17359  11.849  39.875  14.782
44935W        W17360  37.539   5.822   3.908
44936W        W17361   8.178  28.736   3.721
44937W        W17362   0.205  28.523  10.735
44938W        W17363   5.334   5.315   2.201
44939W        W17364  37.373  37.424   4.154
44940W        W17365  36.877  13.147   2.218
44941W        W17366  14.833   3.181   4.081
44942W        W17367  34.150   0.970  14.547
44943W        W17368  11.891   7.104  11.355
44944W        W17369  14.794   8.534   3.394
44945W        W17370  30.443   1.730   3.622
44946W        W17371  13.104  17.238  10.882
44947W        W17372  18.701  30.116   0.029
44948W        W17373  39.939  17.841  12.307
44949W        W17374  36.864  28.083   1.351
44950W        W17375  24.390  14.647   1.185
44951W        W17376  14.262  27.574   1.493
44952W        W17377   5.728  33.388  11.891
44953W        W17378  27.983  17.842  14.823
44954W        W17379   1.218  36.904  13.228
44955W        W17380  15.797  41.772   2.864
44956W        W17381   7.814  32.094   4.235
44957W        W17382  26.944  20.452  12.173
44958W        W17383  10.370  20.461  14.777
44959W        W17384   9.854  11.773   4.199
44960W        W17385   8.276   3.745  14.835
44961W        W17386   0.622   5.384  11.361
44962W        W17387  38.705  39.977   4.020
44963W        W17388  31.926   3.935  11.050
44964W        W17389   0.806  15.231   0.664
44965W        W17390  19.690   7.382  12.946
44966W        W17391   5.298  33.376   0.961
44967W        W17392  12.638  36.705  13.219
44968W        W17393  14.717  19.581   4.257
44969W        W17394  24.967  10.654   1.933
44970W        W17395  14.577  23.219  13.711
44971W        W17396  27.963  10.267  10.641
44972W        W17397  42.005  12.845   1.221
44973W        W17398   4.791  21.636  12.097
44974W        W17399  26.982  38.541  10.900
44975W        W17400  10.521  21.207   1.221
44976W        W17401  42.878   4.463   2.369
44977W        W17402  37.478  14.937  12.439
44978W        W17403  43.057  16.074  14.257
44979W        W17404  39.703  44.862  13.933
44980W        W17405   3.785  17.570  10.484
44981W        W17406  28.221  44.804  12.974
44982W        W17407  14.787  39.123  13.953
44983W        W17408  10.404  35.967  13.912
44984W        W17409   0.459   9.814  12.116
44985W        W17410  36.306  26.038   1.286
44986W        W17411   7.688  21.044  13.851
44987W        W17412  18.493   9.633   2.624
44988W        W17413  17.299  18.626  14.763
44989W        W17414  22.450  38.589   4.608
44990W        W17415  29.164  28.109  11.703
44991W        W17416   7.788   9.690  14.840
44992W        W17417  32.566  32.514   1.768
44993W        W17418  24.880  21.998  13.630
44994W        W17419  38.082  22.459   2.567
44995W        W17420  31.523  11.056   4.315
44996W        W17421  42.468   7.213   4.843
44997W        W17422  25.047   4.038  14.923
44998W        W17423  28.146  20.689  11.550
44999W        W17424  34.416  30.646   0.879
45000W        W17425  43.305  20.709   2.409
45001W        W17426  17.210  33.295   2.815
45002W        W17427  20.689  21.189  10.938
45003W        W17428  19.277  35.359   4.726
45004W        W17429  44.779   2.824  11.570
45005W        W17430  22.494   7.070  13.884
45006W        W17431  27.399  33.880   3.384
45007W        W17432  41.401   8.917   0.467
45008W        W17433  27.692  19.465  14.301
45009W        W17434  36.429  22.026   3.256
45010W        W17435  10.395  19.738  12.249
45011W        W17436  11.768  35.945   5.246
45012W        W17437  25.434   4.232   3.476
45013W        W17438  18.801  40.326   0.342
45014W        W17439  18.295  30.156   2.871
45015W        W17440  14.187  31.982   3.729
45016W        W17441  35.150   0.426   2.153
45017W        W17442   6.929  18.210   3.850
45018W        W17443  38.052  43.059   2.672
45019W        W17444  11.936  22.513  10.501
45020W        W17445  43.932  35.499   1.232
45021W        W17446  37.753  11.866   5.021
45022W        W17447  23.516   9.755   2.206
45023W        W17448   7.648   7.267  11.543
45024W        W17449   7.937   9.333   5.098
45025W        W17450  41.952   3.442   2.565
45026W        W17451  27.877  21.584  14.396
45027W        W17452  11.559  16.198   4.872
45028W        W17453  35.539   3.994  11.570
45029W        W17454  12.183   8.221   0.844
45030W        W17455   9.375  32.557  11.014
45031W        W17456  30.603  22.032   4.117
45032W        W17457  41.505  42.864  14.473
45033W        W17458  18.527   1.505   2.720
45034W        W17459   5.642  32.661   4.595
45035W        W17460  26.591  11.619  14.475
45036W        W17461   7.240  15.118  13.356
45037W        W17462   7.847  35.500  12.495
45038W        W17463  26.227  31.668  13.454
45039W        W17464  18.071   0.727   2.278
45040W        W17465  22.934  13.156  14.825
45041W        W17466  21.735   7.848   2.163
45042W        W17467   4.909  31.858  13.478
45043W        W17468  38.555  34.989  12.534
45044W        W17469  39.257  25.634  12.172
45045W        W17470  34.418  35.785   1.840
45046W        W17471   4.591  19.258  11.678
45047W        W17472  28.846  34.259   0.181
45048W        W17473   4.575  19.818   1.831
45049W        W17474   8.703  18.025   0.941
45050W        W17475   7.212  24.153  10.891
45051W        W17476  10.381  27.553  10.742
45052W        W17477  37.677   0.270  13.020
45053W        W17478  20.057  24.576   4.640
45054W        W17479   7.992  28.296  10.249
45055W        W17480  43.244  36.010   0.922
45056W        W17481  36.301   0.856  11.534
45057W        W17482   9.624  38.666  13.910
45058W        W17483  29.535  10.157  14.727
45059W        W17484  27.913   8.307   2.765
45060W        W17485  36.278   9.181   5.021
45061W        W17486   9.432  24.168  14.593
45062W        W17487  24.807  38.521   2.286
45063W        W17488   5.308  15.667   0.728
45064W        W17489  40.934  35.246  12.344
45065W        W17490  15.102   7.925   0.652
45066W        W17491   4.122  16.709  12.563
45067W        W17492  14.800  21.356   3.771
45068W        W17493  40.126  22.200  14.247
45069W        W17494  43.912  24.625  11.482
45070W        W17495  29.629  24.740   3.340
45071W        W17496  20.403  16.610   1.612
45072W        W17497  38.260  10.330   3.794
45073W        W17498   2.727  11.054   4.333
45074W        W17499  38.350   3.371  12.062
45075W        W17500  37.773  22.164   0.873
45076W        W17501   9.383  21.087  10.165
45077W        W17502  43.268  30.651   3.386
45078W        W17503   0.976   1.492  13.405
45079W        W17504  30.672  37.664   0.825
45080W        W17505  44.292  11.132   0.522
45081W        W17506  42.382   7.944  11.615
45082W        W17507  28.548  28.089  11.840
45083W        W17508  24.726  24.728  10.728
45084W        W17509   9.131   4.819   1.868
45085W        W17510  10.301   0.644  10.227
45086W        W17511  14.556   5.579  11.784
45087W        W17512   6.433  12.898   4.200
45088W        W17513  21.837  19.472   2.194
45089W        W17514  33.006   4.211  14.338
45090W        W17515  32.274  21.001   2.129
45091W        W17516  33.405   9.759   2.466
45092W        W17517  37.984  41.997   0.771
45093W        W17518  41.729  22.311  14.248
45094W        W17519  25.599  36.219   3.687
45095W        W17520   0.881  44.244  12.960
45096W        W17521  19.345   0.964  13.489
45097W        W17522  17.263  28.214   5.018
45098W        W17523   4.288  40.758  12.541
45099W        W17524  18.678  13.429   5.006
45100W        W17525  10.202  25.960  11.078
45101W        W17526  19.726  44.294  14.707
45102W        W17527  12.676  25.970  12.484
45103W        W17528  16.098  13.326   1.909
45104W        W17529  22.664  19.262   3.828
45105W        W17530  22.983  36.949  12.488
45106W        W17531  20.010  25.709   4.278
45107W        W17532   8.328  13.270  11.147
45108W        W17533  44.850   1.704  11.196
45109W        W17534  10.952   8.521   4.157
45110W        W17535  39.523  42.085   4.654
45111W        W17536  44.788  38.300   4.903
45112W        W17537   0.674  35.535   2.778
45113W        W17538  36.940  34.560   3.574
45114W        W17539  18.206  28.448  12.998
45115W        W17540   7.805   3.700   1.523
45116W        W17541  44.453  25.078   1.053
45117W        W17542  30.980  11.137  13.551
45118W        W17543   3.674   5.775  12.067
45119W        W17544  25.480  44.965   1.880
45120W        W17545  30.555  34.459   4.785
45121W        W17546  10.178   7.357   3.258
45122W        W17547  17.944  16.637  11.508
45123W        W17548  33.458   3.749   1.198
45124W        W17549  25.092   2.967  14.871
45125W        W17550  25.608  44.766   5.221
45126W        W17551  14.834  28.808  14.297
45127W        W17552  36.534   9.128  14.347
45128W        W17553  15.057  11.812   2.215
45129W        W17554  28.770  40.880   4.198
45130W        W17555  34.310  13.913   2.232
45131W        W17556  29.742  35.044  11.223
45132W        W17557  44.405  39.506   2.556
45133W        W17558  27.083  37.854   4.016
45134W        W17559  34.824  39.076  12.767
45135W        W17560  34.614  16.093   1.291
45136W        W17561   2.207   9.768  12.902
45137W        W17562  13.093  23.473  10.640
45138W        W17563   1.218  42.031  13.416
45139W        W17564   7.389  39.568  12.082
45140W        W17565  22.184  36.084   0.962
45141W        W17566  31.915  12.296  10.587
45142W        W17567   6.451  18.599  13.378
45143W        W17568  27.029   6.500  13.407
45144W        W17569  10.607  21.589  14.409
45145W        W17570   5.271   3.718   0.700
45146W        W17571  33.036   2.205   0.544
45147W        W17572  14.217  35.916   3.598
45148W        W17573  40.444  30.553   1.212
45149W        W17574  14.748  16.608   3.366
45150W        W17575  17.223  25.682  10.344
45151W        W17576  29.023   8.848  11.684
45152W        W17577   3.436   7.515  12.096
45153W        W17578   8.364  44.558   2.390
45154W        W17579  37.598  30.382   2.295
45155W        W17580   6.906  37.317  12.400
45156W        W17581  18.206  11.852  11.622
45157W        W17582   0.956  10.696  13.373
45158W        W17583  10.252  10.067  11.604
45159W        W17584   4.654  16.831   2.300
45160W        W17585  26.905  32.946   5.204
45161W        W17586  24.568  24.163  14.946
45162W        W17587  39.133   9.141   4.173
45163W        W17588  15.374  38.422  12.575
45164W        W17589  40.585  23.954   4.272
45165W        W17590  31.325  19.083  13.284
45166W        W17591  17.016  35.055   0.817
45167W        W17592  19.092  25.653   4.496
45168W        W17593  27.713   6.232   3.376
45169W        W17594  39.429  15.232   2.652
45170W        W17595  15.350  10.781   2.352
45171W        W17596  37.855  15.049  12.945
45172W        W17597  41.737  14.752  14.240
45173W        W17598  22.657  20.489  14.561
45174W        W17599  24.950   0.370   2.720
45175W        W17600   1.134  27.181   3.774
45176W        W17601  32.049  31.923   1.325
45177W        W17602  41.548  42.908   0.412
45178W        W17603   6.589  32.196   5.082
45179W        W17604  22.510  11.205   2.846
45180W        W17605  17.523  40.792   3.457
45181W        W17606  12.958  15.459  13.275
45182W        W17607  36.306  42.444   4.057
45183W        W17608  30.128   6.908  11.147
45184W        W17609  35.254   4.085  14.893
45185W        W17610  29.533  19.447   4.099
45186W        W17611   2.005  19.542   3.248
45187W        W17612  28.663  29.590   4.797
45188W        W17613  35.307  26.230  14.425
45189W        W17614   5.013  41.749   1.380
45190W        W17615  43.446   6.464   3.214
45191W        W17616  20.683  41.895  12.961
45192W        W17617  34.465  30.211  14.045
45193W        W17618   6.479   3.333  10.408
45194W        W17619  42.920  36.318  11.507
45195W        W17620  30.228  14.875   0.284
45196W        W17621  27.474  24.959  14.859
45197W        W17622   3.423  15.254  14.708
45198W        W17623  22.652  40.739   2.753
45199W        W17624  34.276  10.248  14.319
45200W        W17625   7.153  43.911   4.111
45201W        W17626  37.390  17.760  14.453
45202W        W17627  26.684  11.861   5.050
45203W        W17628  39.403   8.049  14.948
45204W        W17629  31.472   3.700  13.854
45205W        W17630  44.485  22.661  12.612
45206W        W17631  40.370  16.714   3.693
45207W        W17632   1.747  28.536   0.980
45208W        W17633   9.066  36.841   0.753
45209W        W17634  17.111   1.131  12.628
45210W        W17635  23.347  30.883  11.976
45211W        W17636  24.356  28.316   1.278
45212W        W17637   7.314  41.444  13.420
45213W        W17638  28.634  24.911  12.450
45214W        W17639  21.184   8.747   0.421
45215W        W17640  23.708   7.335  11.418
45216W        W17641  25.973   7.813  13.041
45217W        W17642  29.102  12.079   4.598
45218W        W17643  21.729   5.457  13.498
45219W        W17644  42.454   2.434  10.706
45220W        W17645  16.956   3.910  11.014
45221W        W17646  41.979  43.332   9.978
45222W        W17647  24.060  41.389  11.119
45223W        W17648  43.932   7.834  13.417
45224W        W17649  35.365  29.914   1.642
45225W        W17650  38.097  24.770  10.144
45226W        W17651  11.157   9.629   3.383
45227W        W17652   4.377  34.150  10.051
45228W        W17653   2.280  23.044  12.433
45229W        W17654   9.709  24.987   1.934
45230W        W17655  31.485  39.337  10.209
45231W        W17656  21.328  23.093  12.116
45232W        W17657  16.671  35.866   3.139
45233W        W17658  16.532   4.066   4.556
45234W        W17659  34.100   6.916   1.819
45235W        W17660  17.790   8.293  11.711
45236W        W17661  37.860  27.057   4.826
45237W        W17662  21.939  29.072   2.303
45238W        W17663  43.227  23.587  13.089
45239W        W17664   3.050   7.853  12.093
45240W        W17665  32.988  32.441   2.792
45241W        W17666  42.286  33.530   2.320
45242W        W17667  14.097  23.314  14.996
45243W        W17668  38.050   8.707  10.563
45244W        W17669  36.132  34.092   4.111
45245W        W17670  39.429   7.869  12.373
45246W        W17671  13.757  34.428  11.820
45247W        W17672  38.703   4.159   3.848
45248W        W17673  35.571  32.933   4.183
45249W        W17674  23.129  40.096  13.477
45250W        W17675  39.511  20.036  14.822
45251W        W17676   2.842   6.155   0.914
45252W        W17677  28.531  41.143   2.335
45253W        W17678  35.851  12.560  14.322
45254W        W17679  43.858  35.131   0.871
45255W        W17680  19.262   1.875   9.967
45256W        W17681  20.528  41.430  13.407
45257W        W17682  44.131   1.885   3.288
45258W        W17683  41.235  25.969  13.716
45259W        W17684  30.005  20.268   1.803
45260W        W17685  22.733   7.591   2.376
45261W        W17686   4.416  39.074   1.820
45262W        W17687  15.639  17.958   1.775
45263W        W17688  42.360  43.584  11.629
45264W        W17689  24.082  29.379  13.517
45265W        W17690  43.668  18.493   0.741
45266W        W17691  41.231   8.825  11.129
45267W        W17692   1.439  38.596  14.186
45268W        W17693  34.353  31.386  10.442
45269W        W17694  22.201  10.429  13.324
45270W        W17695   8.099   5.741  14.524
45271W        W17696  37.538   5.356  14.474
45272W        W17697  25.035   0.149  13.619
45273W        W17698   7.796  43.560   1.845
45274W        W17699  35.447  26.532  14.854
45275W        W17700  30.525  22.015  11.144
45276W        W17701  32.654  32.955  12.733
45277W        W17702  28.292  38.416   1.628
45278W        W17703  42.465   6.771   4.097
45279W        W17704  12.188  30.478   0.572
45280W        W17705  34.874  26.454  12.822
45281W        W17706  35.926  41.381  12.019
45282W        W17707  36.966   7.361   2.243
45283W        W17708  41.007   6.149  13.996
45284W        W17709  40.328  11.948  14.352
45285W        W17710  16.686  22.333  13.477
45286W        W17711   0.843  11.784   0.937
45287W        W17712  37.142  20.742   1.889
45288W        W17713   1.177  28.655  13.867
45289W        W17714   3.706  25.282   4.602
45290W        W17715  26.748   0.292  13.526
45291W        W17716  15.573   7.704   3.796
45292W        W17717  26.845  11.121  13.295
45293W        W17718  41.120  41.403   3.125
45294W        W17719  23.879  12.151   0.911
45295W        W17720   7.105   5.812   3.437
45296W        W17721  20.870  18.755   0.516
45297W        W17722  23.674  37.849  13.181
45298W        W17723  28.882  28.523  13.400
45299W        W17724  16.527  26.895   3.274
45300W        W17725   5.459  36.685  14.835
45301W        W17726  41.960  11.778  12.010
45302W        W17727  33.418  15.569  13.089
45303W        W17728  35.559  17.115   2.845
45304W        W17729   1.820  15.503   3.833
45305W        W17730  34.306  35.955   4.482
45306W        W17731  22.663   4.004   2.306
45307W        W17732  22.146  20.545   1.734
45308W        W17733  36.654  26.232   0.331
45309W        W17734  42.959  39.318   0.255
45310W        W17735  41.994  28.542  13.986
45311W        W17736  21.509  39.029   2.975
45312W        W17737   1.411   8.623   0.942
45313W        W17738  44.335  37.790  11.397
45314W        W17739  18.429  17.626   2.811
45315W        W17740  24.143  22.100   2.417
45316W        W17741   2.927  17.122   0.851
45317W        W17742  37.376  33.625   1.763
45318W        W17743   0.946   2.813   2.222
45319W        W17744  43.696  39.077  12.765
45320W        W17745  35.424  17.639  14.881
45321W        W17746  23.152  41.887  14.551
45322W        W17747  34.604  29.737  14.235
45323W        W17748  23.328  41.399   0.399
45324W        W17749  26.420  28.275  11.074
45325W        W17750  10.375  37.954  14.485
45326W        W17751  27.497  44.980   3.420
45327W        W17752   6.197  33.328   4.892
45328W        W17753  40.698  33.781   2.744
45329W        W17754  18.968   7.288  13.488
45330W        W17755   8.420  13.808  14.906
45331W        W17756  29.913  17.094   5.352
45332W        W17757  15.581  15.868   0.387
45333W        W17758  17.227  30.722  13.431
45334W        W17759  29.564  30.189   1.258
45335W        W17760  30.220  15.775   2.794
45336W        W17761  40.935   1.017   3.723
45337W        W17762  25.496  11.261  13.253
45338W        W17763  18.147  34.604  11.559
45339W        W17764   2.769  28.973  11.047
45340W        W17765  34.834  35.166  11.154
45341W        W17766  41.289  41.326   0.355
45342W        W17767  42.241  44.842  10.599
45343W        W17768  40.494  23.147  11.172
45344W        W17769  31.573  34.902  12.523
45345W        W17770  17.257   1.979  14.517
45346W        W17771  10.711  40.805  11.177
45347W        W17772   7.553  37.417   5.035
45348W        W17773  41.835  35.392   0.030
45349W        W17774  41.547  32.493   3.694
45350W        W17775   6.911  37.022  11.966
45351W        W17776  35.355   9.084  12.842
45352W        W17777  32.541  25.773   4.200
45353W        W17778  21.604  15.181  12.063
45354W        W17779  20.848  22.163   0.273
45355W        W17780  13.806   1.931  13.234
45356W        W17781  13.817  23.232   1.788
45357W        W17782  15.226  21.029  14.939
45358W        W17783   1.807  44.394  13.505
45359W        W17784  32.857  39.251   1.678
45360W        W17785   9.534  16.279  10.361
45361W        W17786   7.707  33.599  12.192
45362W        W17787   0.837  11.640  13.455
45363W        W17788   7.095   9.881   3.158
45364W        W17789  11.408  21.965  10.846
45365W        W17790  22.888  39.440   2.255
45366W        W17791  28.080   1.390   2.400
45367W        W17792  36.077  10.603   1.217
45368W        W17793  37.474  35.415  14.395
45369W        W17794  40.995   1.896  11.475
45370W        W17795  29.146   4.967  14.459
45371W        W17796  31.605   4.186   4.606
45372W        W17797   9.794  20.082   0.883
45373W        W17798  36.610  30.902   0.285
45374W        W17799   2.820  32.409  10.793
45375W        W17800  27.869  38.343   0.356
45376W        W17801  44.772   9.603  10.860
45377W        W17802   1.284   8.635   3.763
45378W        W17803  14.707  30.423  13.984
45379W        W17804  42.238  14.844  14.283
45380W        W17805   3.879   1.413   4.014
45381W        W17806  33.507  23.380  13.888
45382W        W17807  44.469  19.842   4.449
45383W        W17808  43.380   7.194   2.584
45384W        W17809  37.654  11.881  12.755
45385W        W17810  31.129  16.037   3.761
45386W        W17811  10.742   0.446   0.754
45387W        W17812   3.716   9.177  11.499
45388W        W17813  44.758  13.032  10.992
45389W        W17814  43.759  13.713   3.187
45390W        W17815   7.767  19.443  14.934
45391W        W17816  14.470  37.850  12.051
45392W        W17817  30.077   5.859   1.943
45393W        W17818  42.241  40.235  13.562
45394W        W17819  29.145  41.301   3.563
45395W        W17820   7.603  44.879   0.331
45396W        W17821  39.752  36.445  12.811
45397W        W17822  31.182  22.156  11.699
45398W        W17823   0.696  38.377  11.587
45399W        W17824   0.925  16.326   2.770
45400W        W17825   3.870  24.199  13.832
45401W        W17826  22.272  24.632  13.582
45402W        W17827  15.651  13.041   4.495
45403W        W17828  29.727  16.552   1.182
45404W        W17829   0.790  44.978  12.190
45405W        W17830  22.135  37.860   2.958
45406W        W17831  41.453  27.684  10.465
45407W        W17832  35.542  41.837   0.973
45408W        W17833  21.990  43.255   0.218
45409W        W17834  16.320  36.499  11.172
45410W        W17835  38.579  29.654  13.923
45411W        W17836  38.800  35.659  12.071
45412W        W17837  26.766  32.735   4.644
45413W        W17838  27.472   1.565  11.131
45414W        W17839   6.508  16.865   3.777
45415W        W17840  34.847  41.296  12.587
45416W        W17841  25.118  39.391  11.233
45417W        W17842   9.896   5.906  14.171
45418W        W17843  24.929  17.640  14.474
45419W        W17844  20.746   2.936   4.909
45420W        W17845  39.626   6.827  10.617
45421W        W17846   5.268   5.275   4.213
45422W        W17847  10.015  12.379  11.643
45423W        W17848  24.420  27.479  14.809
45424W        W17849  26.019  16.451  11.861
45425W        W17850  37.487   2.932  13.503
45426W        W17851  12.780  34.544  12.834
45427W        W17852  22.276  11.326   3.290
45428W        W17853  15.380  24.406   0.184
45429W        W17854   2.303  16.195   3.388
45430W        W17855  22.480  17.272  14.513
45431W        W17856  13.599  19.683  12.165
45432W        W17857   7.282  34.831  14.316
45433W        W17858  11.380  15.334  11.626
45434W        W17859   2.533  22.595  14.442
45435W        W17860  44.129  44.899  12.181
45436W        W17861  35.197  42.933   4.177
45437W        W17862  40.296  32.659   4.289
45438W        W17863  12.733  32.429   0.413
45439W        W17864   1.940  37.590   0.070
45440W        W17865  44.744  23.682   5.341
45441W        W17866   5.606  34.612   2.472
45442W        W17867  42.489   0.355   4.808
45443W        W17868  34.127  43.533  14.973
45444W        W17869   1.206  21.069   1.799
45445W        W17870   3.713   0.727  10.921
45446W        W17871  13.327  19.526  13.404
45447W        W17872  44.748  40.405   3.873
45448W        W17873  43.603  19.510   0.472
45449W        W17874  19.064  25.146  13.984
45450W        W17875  14.875  36.859  12.853
45451W        W17876  18.152  42.532  13.867
45452W        W17877  28.964  35.504   4.114
45453W        W17878  23.084  16.294   0.337
45454W        W17879  35.540  40.484   3.762
45455W        W17880  31.619  12.863   4.758
45456W        W17881   1.369  26.947   4.153
45457W        W17882  21.184  19.257  11.943
45458W        W17883  24.705  13.507  12.073
45459W        W17884   0.591  41.936  14.909
45460W        W17885  43.929  10.291  12.139
45461W        W17886  12.262  14.754  10.704
45462W        W17887  22.704  24.606  10.697
45463W        W17888  31.809   3.418   2.766
45464W        W17889  35.072  10.820   3.890
45465W        W17890   9.776  22.091  10.437
45466W        W17891  28.098  30.022  14.950
45467W        W17892   3.007  43.442   1.723
45468W        W17893   7.704   7.749   4.324
45469W        W17894  24.000  42.943   3.128
45470W        W17895  16.061   3.429   3.648
45471W        W17896  20.813   4.223   3.245
45472W        W17897   4.647  18.904  12.577
45473W        W17898   2.615  13.709   4.025
45474W        W17899  43.250  35.569  14.744
45475W        W17900  19.493   9.674   4.561
45476W        W17901   5.936  16.328   1.623
45477W        W17902  39.061  27.545   0.591
45478W        W17903  12.305   2.599  14.069
45479W        W17904  18.678  11.061  14.933
45480W        W17905  28.673  26.228  10.735
45481W        W17906  28.229  33.211  13.309
45482W        W17907  12.774  22.559  10.528
45483W        W17908  24.121  35.884   2.306
45484W        W17909  42.756  30.750   5.064
45485W        W17910  40.529  40.025  10.760
45486W        W17911  13.840  24.684   5.084
45487W        W17912   6.148  20.890  11.897
45488W        W17913  43.752  38.640  12.496
45489W        W17914  25.145  14.074   0.435
45490W        W17915  37.872  20.588   1.436
45491W        W17916  33.730  13.810   2.207
45492W        W17917  17.646  40.314   3.669
45493W        W17918  11.192  42.485  14.385
45494W        W17919  17.779  22.945  11.639
45495W        W17920  11.187   0.190  12.992
45496W        W17921  19.092   8.651  11.612
45497W        W17922  23.073  34.424   0.243
45498W        W17923   9.210  17.235  12.851
45499W        W17924  35.601   1.843   3.184
45500W        W17925  11.233   8.458   2.661
45501W        W17926  37.570   8.304   4.049
45502W        W17927  19.971  35.906   2.715
45503W        W17928  15.620  36.532  10.742
45504W        W17929  19.524  12.755  11.504
45505W        W17930  31.562  36.170  14.007
45506W        W17931  41.128  21.126   2.247
45507W        W17932  32.966   7.852   3.547
45508W        W17933  20.878  40.938   0.398
45509W        W17934  31.976  23.213  12.691
45510W        W17935  10.913  20.984  10.300
45511W        W17936  31.589  43.163   3.244
45512W        W17937  20.725   8.300  11.018
45513W        W17938   2.833  29.878  12.910
45514W        W17939  10.932  20.654  11.438
45515W        W17940  21.533  16.614   3.625
45516W        W17941  21.754  14.978   0.832
45517W        W17942  10.290  23.934   3.046
45518W        W17943  17.662  23.489   4.544
45519W        W17944  15.297  20.340   3.242
45520W        W17945   4.678  21.944  12.625
45521W        W17946   3.983  38.383   1.740
45522W        W17947   2.776  11.390   0.040
45523W        W17948  41.263  11.389   0.787
45524W        W17949   4.769  18.452   3.112
45525W        W17950  35.449  21.588   3.605
45526W        W17951  23.309  37.798   4.115
45527W        W17952  20.111  17.640  12.651
45528W        W17953   4.299  23.672   1.318
45529W        W17954   8.997  34.391   2.685
45530W        W17955  11.398  40.848   1.674
45531W        W17956  35.972  18.336   0.537
45532W        W17957  43.055  39.888  10.322
45533W        W17958  33.628  29.060   1.216
45534W        W17959  31.660   5.831  14.294
45535W        W17960  11.932   1.161  10.603
45536W        W17961   1.055  33.035  10.606
45537W        W17962   6.538   4.927  14.034
45538W        W17963  22.513   6.225  12.956
45539W        W17964  31.624  40.994   3.068
45540W        W17965  20.771  15.195  13.306
45541W        W17966  30.202  34.548  12.961
45542W        W17967  42.893  16.515   3.524
45543W        W17968   7.920  21.225  10.198
45544W        W17969  28.062  13.103  13.442
45545W        W17970  41.497  33.202  14.845
45546W        W17971  18.175   2.197  10.090
45547W        W17972  41.377  30.898  10.980
45548W        W17973  13.838   3.734   1.221
45549W        W17974  10.334  37.286  13.889
45550W        W17975  43.230   7.548   3.541
45551W        W17976  27.227   1.041   3.407
45552W        W17977  19.209   1.802  10.933
45553W        W17978  13.861   8.858  10.771
45554W        W17979  32.574   0.719  12.036
45555W        W17980   4.932  27.850   1.458
45556W        W17981  31.517  13.125   3.710
45557W        W17982  20.251   7.188   4.167
45558W        W17983  30.760  18.316   3.798
45559W        W17984  14.378  34.015  14.868
45560W        W17985  38.281  41.393  14.364
45561W        W17986  24.365  12.196  14.678
45562W        W17987  20.751  26.641  12.979
45563W        W17988  15.823  13.793  13.995
45564W        W17989  44.389  43.305  10.642
45565W        W17990  34.208  39.639  13.840
45566W        W17991  23.463   7.264   3.403
45567W        W17992  26.141  29.630   2.835
45568W        W17993  15.232  36.463   1.241
45569W        W17994  30.150  18.153   2.388
45570W        W17995   1.367  38.064   2.038
45571W        W17996  22.961  12.299   0.068
45572W        W17997  39.577   9.686   1.227
45573W        W17998  30.917  26.960   1.011
45574W        W17999   7.735   8.792  10.185
45575W        W18000  16.199   9.743   2.266
45576W        W18001  35.856  43.370   2.188
45577W        W18002  25.175  34.159   0.787
45578W        W18003  23.760  14.216  13.829
45579W        W18004   0.001  30.877  14.492
45580W        W18005  22.094   4.668  12.890
45581W        W18006   0.269  37.176  13.352
45582W        W18007  33.136  23.239   3.128
45583W        W18008  38.945  27.993   0.354
45584W        W18009  32.829  37.932  10.787
45585W        W18010  11.323   3.490  13.400
45586W        W18011  19.745  10.899   0.749
45587W        W18012  30.960  32.776  14.102
45588W        W18013  42.331  25.836   2.329
45589W        W18014   3.260  39.378   5.044
45590W        W18015   7.260  14.868   3.137
45591W        W18016  10.197   4.126   3.900
45592W        W18017  19.154  44.009  13.501
45593W        W18018  39.133   9.652  11.661
45594W        W18019  22.760  17.319   3.683
45595W        W18020   7.010   4.714  11.995
45596W        W18021   0.766  21.037   0.278
45597W        W18022  37.562   6.923  13.416
45598W        W18023   8.547  27.124  13.951
45599W        W18024  35.666   9.816   3.359
45600W        W18025  27.571  12.922   4.269
45601W        W18026   0.093   0.784  12.001
45602W        W18027  26.695   7.701   0.063
45603W        W18028  22.694   2.447   2.159
45604W        W18029  38.859  36.665  12.101
45605W        W18030  20.190  22.684  13.322
45606W        W18031  31.593  36.823   4.458
45607W        W18032  22.539  21.081   2.691
45608W        W18033  30.299  10.358   4.099
45609W        W18034  22.583  37.349   2.435
45610W        W18035  24.700  38.509  14.358
45611W        W18036  16.662  21.975   3.274
45612W        W18037  36.056  14.078   2.373
45613W        W18038   1.809  33.595  10.592
45614W        W18039  20.290  19.837   2.340
45615W        W18040  16.280   2.204   3.395
45616W        W18041  42.002  18.489  11.350
45617W        W18042  29.519  14.394  12.187
45618W        W18043  20.912   4.458   2.181
45619W        W18044  29.905  12.361  14.372
45620W        W18045   0.473  37.857   4.046
45621W        W18046  33.179   6.778  14.286
45622W        W18047   3.267   2.355   2.255
45623W        W18048  32.145  36.092  11.194
45624W        W18049  14.606  14.575   2.281
45625W        W18050  34.107  18.736   2.703
45626W        W18051   9.306  30.083   4.056
45627W        W18052   6.739   9.578  13.928
45628W        W18053  43.098  21.203   2.509
45629W        W18054  11.628   6.821   3.754
45630W        W18055  26.160  19.626   1.155
45631W        W18056  27.811  34.504  12.038
45632W        W18057  21.078  31.495   3.187
45633W        W18058  21.272  29.091  10.754
45634W        W18059   2.308  33.436   3.077
45635W        W18060  22.507  12.293   1.769
45636W        W18061  30.889  11.723   4.466
45637W        W18062  20.732  43.732   3.638
45638W        W18063  43.223  29.620  11.141
45639W        W18064  32.110  24.082   5.039
45640W        W18065  18.597  18.560   4.950
45641W        W18066  16.851   1.237   1.718
45642W        W18067   9.071  44.960  10.736
45643W        W18068  14.733  16.830  11.677
45644W        W18069  27.228  28.688   2.224
45645W        W18070   9.803  26.538   3.692
45646W        W18071  40.362  12.297  12.820
45647W        W18072  23.828   3.425   3.461
45648W        W18073  21.602  18.590   1.919
45649W        W18074  30.047  26.110   3.312
45650W        W18075  22.716   1.826   0.314
45651W        W18076  29.218  29.505   1.268
45652W        W18077  15.614  27.521  14.421
45653W        W18078  19.155  29.665   2.563
45654W        W18079  40.286  44.809   0.721
45655W        W18080  41.180  27.138  10.631
45656W        W18081   1.357  29.898  11.974
45657W        W18082   8.994   5.328   9.802
45658W        W18083  41.473   1.756   2.462
45659W        W18084  34.579  38.020  14.407
45660W        W18085  42.353   1.894   0.377
45661W        W18086  16.597   8.241   2.180
45662W        W18087  41.311   1.948  14.452
45663W        W18088  31.649  27.183  10.974
45664W        W18089   0.813   0.963  10.701
45665W        W18090  23.940  37.410  11.085
45666W        W18091   8.195  10.221  14.272
45667W        W18092  36.186   3.982   3.731
45668W        W18093  25.125  12.835   4.165
45669W        W18094  18.178   5.186  11.071
45670W        W18095  11.184  25.482  13.914
45671W        W18096  17.188  43.504  11.556
45672W        W18097   2.738  15.826   1.307
45673W        W18098  42.742   9.390  11.951
45674W        W18099  11.076  39.535  12.578
45675W        W18100  37.975   9.369   3.595
45676W        W18101  22.072  30.611  13.990
45677W        W18102   6.619  20.696   4.846
45678W        W18103  34.671   0.939   1.804
45679W        W18104  29.378  26.700   3.228
45680W        W18105  41.496  22.730   2.407
45681W        W18106   5.940   3.901   3.311
45682W        W18107  36.311   3.779   4.573
45683W        W18108  36.054  25.903  14.484
45684W        W18109  27.457  27.245  14.408
45685W        W18110  41.108  24.996   3.400
45686W        W18111  44.214  11.588  14.828
45687W        W18112   9.158   8.868   3.771
45688W        W18113  26.163   6.415  13.826
45689W        W18114  13.308  12.262  13.355
45690W        W18115  14.580  40.591  13.868
45691W        W18116  32.185  35.743   1.625
45692W        W18117  13.702   4.226  13.168
45693W        W18118  43.951   3.361   1.339
45694W        W18119  42.793  34.890   3.684
45695W        W18120  21.013  25.198  14.662
45696W        W18121  29.521  37.846  11.644
45697W        W18122   6.633  43.661  13.370
45698W        W18123   9.356   7.645   3.175
45699W        W18124  20.640   8.929  14.245
45700W        W18125  30.166  20.704  12.601
45701W        W18126  26.984  29.733   2.142
45702W        W18127  29.621   5.710   1.218
45703W        W18128  30.177   5.318  11.137
45704W        W18129  20.768  26.249  14.563
45705W        W18130  26.616  13.985  13.892
45706W        W18131  25.504   1.941   2.181
45707W        W18132   1.539  41.299   0.836
45708W        W18133  20.722  42.436  13.387
45709W        W18134  43.867  34.032  12.981
45710W        W18135  37.465  24.600  11.862
45711W        W18136   2.237  17.285  11.207
45712W        W18137  34.435  33.170  11.116
45713W        W18138  44.443   8.194   0.848
45714W        W18139  33.857  27.709  13.958
45715W        W18140  14.783  35.197  11.058
45716W        W18141  36.396  20.602   0.489
45717W        W18142   9.167  17.653   0.234
45718W        W18143  44.471  41.847   2.882
45719W        W18144   3.633  15.650  11.466
45720W        W18145  31.921  31.101  14.924
45721W        W18146  42.775  26.544  13.303
45722W        W18147  11.861  40.370  10.447
45723W        W18148  21.693   8.864   5.426
45724W        W18149   8.840  32.432  10.710
45725W        W18150  26.274  41.431   1.402
45726W        W18151  21.297  15.882   0.886
45727W        W18152  14.779  21.685  10.287
45728W        W18153  34.439  33.093  14.828
45729W        W18154  24.724  37.424   3.248
45730W        W18155   3.718  40.903   0.742
45731W        W18156  44.235  15.919   1.903
45732W        W18157  18.491  36.111   2.768
45733W        W18158  27.466  39.966   3.656
45734W        W18159  39.767  12.122   1.409
45735W        W18160  15.198  24.609  10.063
45736W        W18161  41.223  15.081   3.281
45737W        W18162   1.466  21.977   0.013
45738W        W18163   2.654  25.070   2.739
45739W        W18164  26.616   7.583   5.119
45740W        W18165  37.104  21.412   3.589
45741W        W18166   7.095   0.083  13.045
45742W        W18167  13.702  41.405  14.351
45743W        W18168  14.502  16.141  12.819
45744W        W18169   5.949  25.557  12.570
45745W        W18170  22.929  32.865   0.061
45746W        W18171  23.918   0.754   1.964
45747W        W18172  38.928   6.042   2.774
45748W        W18173  28.687  19.829   4.001
45749W        W18174  17.731   4.392   0.015
45750W        W18175  38.584  42.949   2.747
45751W        W18176  23.697   0.191  11.966
45752W        W18177  37.403   5.396   2.733
45753W        W18178   4.708  44.464   0.320
45754W        W18179   2.768   2.750  13.430
45755W        W18180  26.755  18.127  13.995
45756W        W18181   6.824   5.038  14.923
45757W        W18182  40.868  21.622  12.089
45758W        W18183  37.428  14.437  12.613
45759W        W18184  14.624   4.136   1.310
45760W        W18185  31.922  41.075   4.548
45761W        W18186  25.420  33.895   0.407
45762W        W18187  22.071  28.135   3.625
45763W        W18188  14.126  30.457   4.690
45764W        W18189  19.250   8.686   3.349
45765W        W18190   2.310  22.369  10.713
45766W        W18191  16.201  44.947  11.534
45767W        W18192   1.223  12.668   0.443
45768W        W18193  15.817  31.109  11.117
45769W        W18194  39.781   3.818   0.747
45770W        W18195  24.963  22.065   3.300
45771W        W18196  43.889  29.272  14.556
45772W        W18197  26.085  12.350  14.418
45773W        W18198  14.627  12.200  13.025
45774W        W18199  36.016   9.910   3.723
45775W        W18200   8.511  10.365  12.377
45776W        W18201  18.039   6.406  12.084
45777W        W18202  31.397  13.117   2.265
45778W        W18203  31.857   2.714  12.991
45779W        W18204  40.855  24.006  13.448
45780W        W18205  21.824  39.275  13.787
45781W        W18206  18.137  15.101  11.068
45782W        W18207   4.794  36.743   4.563
45783W        W18208  37.737  19.767   0.221
45784W        W18209   6.260  11.229   2.585
45785W        W18210  27.487  17.902   0.492
45786W        W18211  33.914  18.321   5.400
45787W        W18212  31.469  17.670   2.696
45788W        W18213   1.658  24.254   3.658
45789W        W18214  30.945  25.065  12.394
45790W        W18215  15.461  28.046  14.307
45791W        W18216  26.480  28.407   0.154
45792W        W18217  42.791  10.521  13.997
45793W        W18218  31.395  21.089  10.719
45794W        W18219  18.464   9.439  10.663
45795W        W18220  19.234  39.520  14.926
45796W        W18221  16.150  16.733  12.337
45797W        W18222  37.054  18.140   3.424
45798W        W18223  15.162   3.254   2.796
45799W        W18224   7.917  30.737  13.421
45800W        W18225  38.116  43.504  13.966
45801W        W18226  14.219  23.774   1.364
45802W        W18227  26.142  20.582   4.629
45803W        W18228  26.946  42.190  10.759
45804W        W18229   0.722  13.294  12.019
45805W        W18230  15.357  16.041   4.581
45806W        W18231  36.154   3.940   2.183
45807W        W18232  22.723   2.588   0.288
45808W        W18233  23.542   1.575  13.658
45809W        W18234  36.578  18.786  13.894
45810W        W18235   0.225  39.123   0.355
45811W        W18236  27.084   1.874   1.486
45812W        W18237  12.348  22.826   4.460
45813W        W18238  21.990  44.812   3.908
45814W        W18239  15.863  19.152  12.003
45815W        W18240   2.015  22.668  11.916
45816W        W18241   3.408   6.844  11.372
45817W        W18242  33.125  35.337   3.221
45818W        W18243   4.431   9.120   3.061
45819W        W18244  28.541  16.754  12.449
45820W        W18245   6.360  21.049  13.191
45821W        W18246   2.396  40.415  13.002
45822W        W18247  16.909  33.212   4.042
45823W        W18248  24.470  34.575  12.634
45824W        W18249  29.520  29.318  12.304
45825W        W18250  14.662  35.574   3.870
45826W        W18251  21.588  42.557  11.892
45827W        W18252  24.403   3.287   1.460
45828W        W18253  25.066  14.304   2.680
45829W        W18254  42.466  30.673  14.366
45830W        W18255   9.725   1.240   4.684
45831W        W18256  30.642  11.179   4.763
45832W        W18257  42.519  13.101   2.820
45833W        W18258  20.460  43.428   4.553
45834W        W18259  43.987  41.582  12.895
45835W        W18260  40.571  19.539   4.284
45836W        W18261  20.947  41.763   5.029
45837W        W18262  30.596  14.926   1.323
45838W        W18263  35.999  21.495  12.014
45839W        W18264  44.557  19.710   3.499
45840W        W18265  29.950  35.841  14.726
45841W        W18266  40.857  22.945   4.245
45842W        W18267   3.779  21.244   1.919
45843W        W18268  37.063  25.972   2.712
45844W        W18269  23.502  15.172   4.818
45845W        W18270  28.564   8.578  14.428
45846W        W18271  26.919   8.144  14.886
45847W        W18272   1.869  12.049  11.632
45848W        W18273  33.843   2.848  10.641
45849W        W18274  12.000  12.756  14.435
45850W        W18275  10.905  35.952  13.825
45851W        W18276  24.980  11.543   2.914
45852W        W18277   0.692   6.022   2.665
45853W        W18278  40.465  28.612  13.660
45854W        W18279  21.320  16.530   2.395
45855W        W18280  13.576   7.849  10.726
45856W        W18281   2.377  18.747   3.215
45857W        W18282  43.096  20.655   1.824
45858W        W18283  22.417  17.046  13.597
45859W        W18284  44.042  21.408  14.932
45860W        W18285   5.516   0.383  13.027
45861W        W18286  12.811  10.631  14.936
45862W        W18287  26.154   8.181   3.787
45863W        W18288   0.059  29.306   1.044
45864W        W18289  19.657  31.841   4.046
45865W        W18290  21.960  39.454  12.844
45866W        W18291   9.862  41.030   2.213
45867W        W18292  35.723   6.392  14.559
45868W        W18293  39.027  30.495   1.976
45869W        W18294  25.625  32.541  14.932
45870W        W18295  24.565  10.342  10.201
45871W        W18296  22.002   5.781  12.515
45872W        W18297   1.956  34.008   0.352
45873W        W18298  43.972  39.461  12.503
45874W        W18299  40.927  31.104  10.866
45875W        W18300  16.502   5.535  10.512
45876W        W18301  19.126  11.562  11.025
45877W        W18302   0.819  31.173   3.232
45878W        W18303  20.575  25.068   4.042
45879W        W18304  22.076  37.330  13.809
45880W        W18305  42.413  23.100  10.940
45881W        W18306  17.242  39.381  14.669
45882W        W18307  43.679   9.115  12.065
45883W        W18308  30.581  11.096   3.821
45884W        W18309  37.599  43.078  13.281
45885W        W18310  43.257   0.267  11.214
45886W        W18311  17.104  38.739  12.355
45887W        W18312  42.420  18.145  13.516
45888W        W18313  12.364  24.270   3.224
45889W        W18314  28.896  17.993  14.801
45890W        W18315   4.493  21.676   4.116
45891W        W18316  30.130  18.868   4.628
45892W        W18317  11.214  23.002   4.130
45893W        W18318  44.331  27.870   1.326
45894W        W18319  36.417  32.119  11.331
45895W        W18320  33.912   1.816   1.344
45896W        W18321   7.981   4.755   0.478
45897W        W18322  43.894  30.191   0.229
45898W        W18323  38.808  33.081  10.983
45899W        W18324  30.482  35.537   0.366
45900W        W18325  33.169  43.995  11.491
45901W        W18326  35.897   8.736   0.976
45902W        W18327  14.797  11.422  10.603
45903W        W18328  28.343  26.455  11.068
45904W        W18329  18.107  39.199   4.513
45905W        W18330  12.916   7.424  14.442
45906W        W18331  33.561  33.884   2.188
45907W        W18332   6.373  35.837  13.962
45908W        W18333   0.466  40.352   0.950
45909W        W18334   4.274  41.091  11.878
45910W        W18335  22.608  10.201   2.806
45911W        W18336  10.325  33.370  11.436
45912W        W18337  34.340  13.184  14.996
45913W        W18338  40.512  23.483   2.843
45914W        W18339  19.668  41.237  14.211
45915W        W18340   5.964  18.743   0.875
45916W        W18341  22.630  23.497  13.914
45917W        W18342  15.038   5.448  13.067
45918W        W18343  32.110  19.306  12.648
45919W        W18344  22.039  28.778  11.045
45920W        W18345  17.235   9.692  14.781
45921W        W18346  27.960  16.527  14.241
45922W        W18347  40.406  26.547  11.089
45923W        W18348  34.904   5.013   3.259
45924W        W18349  11.769   6.769   1.469
45925W        W18350  10.556   2.212   0.290
45926W        W18351  44.417  36.464   3.777
45927W        W18352  25.567  17.518   4.420
45928W        W18353  43.567  42.657   5.103
45929W        W18354  33.538  17.118   9.699
45930W        W18355  14.302  15.195  11.482
45931W        W18356  43.447   2.726   1.845
45932W        W18357   5.428  33.365  14.851
45933W        W18358   1.457   5.178   0.296
45934W        W18359  24.629  36.446  14.302
45935W        W18360  38.029   4.838   1.342
45936W        W18361  12.624  25.668   4.179
45937W        W18362  13.496  13.094   1.746
45938W        W18363  42.026  40.330  11.979
45939W        W18364   2.317  34.944   4.782
45940W        W18365  11.263  43.001  11.223
45941W        W18366  31.417  20.027   3.712
45942W        W18367   8.425  23.205   2.721
45943W        W18368   0.527   3.500  12.462
45944W        W18369  29.121  14.076  12.835
45945W        W18370  16.042   1.101  11.436
45946W        W18371  36.924  40.237   4.124
45947W        W18372  10.175   6.706   3.803
45948W        W18373  43.261  16.740   0.928
45949W        W18374   7.188  44.355  14.254
45950W        W18375  15.238   4.649  13.302
45951W        W18376  35.424  12.695   4.023
45952W        W18377  20.934  42.978  11.620
45953W        W18378  34.067   8.638   0.360
45954W        W18379  41.881  33.409  12.960
45955W        W18380  35.787  29.512  13.513
45956W        W18381  27.850  32.020  13.038
45957W        W18382  38.442  37.114   2.706
45958W        W18383   6.473  26.737   3.057
45959W        W18384   5.466   9.307   2.281
45960W        W18385  18.473   0.159  10.138
45961W        W18386   9.228  27.438   1.798
45962W        W18387  34.979  43.346  13.447
45963W        W18388  25.969  44.989  14.812
45964W        W18389  14.771   4.829   2.893
45965W        W18390   1.076  24.630  11.996
45966W        W18391  23.497  37.837  12.149
45967W        W18392  10.686  31.518  11.366
45968W        W18393  35.829  16.931  12.644
45969W        W18394  18.782  44.420   3.447
45970W        W18395  34.482  14.064  10.829
45971W        W18396  29.943  21.754  11.809
45972W        W18397  31.102  38.748  10.775
45973W        W18398   9.366   8.518  10.650
45974W        W18399  31.164  41.504  13.407
45975W        W18400  12.173  21.654  14.375
45976W        W18401  13.033  19.316   2.708
45977W        W18402  27.120  34.974   4.478
45978W        W18403  32.775   4.060  13.491
45979W        W18404  38.276  24.526   4.580
45980W        W18405   2.969  17.622  13.928
45981W        W18406   5.820  36.038   0.223
45982W        W18407  29.398  11.875  12.113
45983W        W18408  40.464  36.055   2.461
45984W        W18409  35.854   0.622  11.159
45985W        W18410  29.146  39.299  12.308
45986W        W18411  21.260   0.194   3.182
45987W        W18412   0.530  26.938  10.909
45988W        W18413   1.420  11.623  11.047
45989W        W18414  31.311  21.189  13.451
45990W        W18415  37.644  43.831   3.638
45991W        W18416  41.348  37.910  12.540
45992W        W18417   0.133  12.311   2.749
45993W        W18418  26.229  35.750   3.296
45994W        W18419   6.478  38.058  11.944
45995W        W18420   6.003  42.916   2.857
45996W        W18421  17.461   9.055  10.601
45997W        W18422  26.427  44.298  13.846
45998W        W18423  39.599  42.220   3.734
45999W        W18424  23.590  22.646   4.683
46000W        W18425  35.836  23.167   5.535
46001W        W18426  11.174  39.815  12.109
46002W        W18427  15.112   2.798  12.019
46003W        W18428  24.069  33.353   1.304
46004W        W18429  30.107  43.672  11.199
46005W        W18430  36.518  20.065  13.074
46006W        W18431  25.055   9.899   1.226
46007W        W18432  37.989  34.841   4.498
46008W        W18433  25.544  39.729  11.256
46009W        W18434  10.734  29.968  13.473
46010W        W18435  12.824   2.725  10.685
46011W        W18436  27.804  35.335   4.730
46012W        W18437  41.502  21.614   2.373
46013W        W18438  25.568  12.693   1.891
46014W        W18439  16.111  32.014   2.725
46015W        W18440  14.381   1.113   0.693
46016W        W18441  32.760  44.355   4.179
46017W        W18442  32.856  37.453  12.543
46018W        W18443  29.116  22.563   0.706
46019W        W18444   0.843  32.563  10.506
46020W        W18445  13.356  38.408  12.576
46021W        W18446   2.193  26.086   3.349
46022W        W18447  19.962   0.281  13.587
46023W        W18448  32.127  19.375   2.827
46024W        W18449   6.143  43.305  12.498
46025W        W18450  30.963  16.055  11.005
46026W        W18451  17.213   3.033   1.724
46027W        W18452  39.471  36.922   2.710
46028W        W18453  23.024  32.823   3.131
46029W        W18454  20.231   5.405   1.350
46030W        W18455   3.434  25.307   2.401
46031W        W18456   6.138  23.507  10.399
46032W        W18457  24.759  17.722   3.413
46033W        W18458  38.496  41.804  14.083
46034W        W18459  24.736  42.301   0.504
46035W        W18460   7.919  27.041  12.507
46036W        W18461  26.997  10.615   0.857
46037W        W18462  25.729  21.798   4.162
46038W        W18463  22.207  17.546   1.271
46039W        W18464  40.324   5.109  10.770
46040W        W18465  12.288  39.251  11.111
46041W        W18466  24.898   4.053   4.280
46042W        W18467  38.384  28.431  12.045
46043W        W18468  33.825  40.828   2.360
46044W        W18469  15.546  28.963  12.482
46045W        W18470  30.942  30.973  11.383
46046W        W18471  22.230  38.933  14.579
46047W        W18472   6.361  13.796   4.396
46048W        W18473   9.863  44.453   1.783
46049W        W18474   2.201  18.887  11.713
46050W        W18475  14.997  10.752   1.868
46051W        W18476  30.354  40.428   2.317
46052W        W18477   1.226  38.371  12.522
46053W        W18478  19.846  34.399  10.674
46054W        W18479  43.343  36.621   4.251
46055W        W18480  39.963  17.617  13.827
46056W        W18481   8.917  40.045  12.591
46057W        W18482  26.699   5.355  12.062
46058W        W18483   8.965   2.353  13.900
46059W        W18484  42.340   2.328  13.784
46060W        W18485  24.757  39.029   2.327
46061W        W18486  30.576  34.652  13.325
46062W        W18487   7.198  16.280   2.339
46063W        W18488  28.843  22.694   2.181
46064W        W18489   8.828  29.032   0.823
46065W        W18490   5.786  41.255   1.134
46066W        W18491   3.850  30.871  12.870
46067W        W18492  32.980  40.115  11.103
46068W        W18493   1.844  20.107   3.253
46069W        W18494  33.243  29.694  13.926
46070W        W18495  40.050  38.986   3.889
46071W        W18496  25.679  30.052   0.860
46072W        W18497  39.302   4.950  13.670
46073W        W18498  42.366   8.329   1.055
46074W        W18499   5.355  25.083  11.082
46075W        W18500  11.811  38.141   4.143
46076W        W18501  16.108  12.293  13.918
46077W        W18502  43.432  17.286  12.596
46078W        W18503  44.408  43.908  11.820
46079W        W18504  34.978  15.726  10.662
46080W        W18505  30.396  12.717   2.767
46081W        W18506   3.274  41.340  13.472
46082W        W18507  44.120   4.348   4.346
46083W        W18508   2.539  36.649   0.791
46084W        W18509  26.924   0.552   1.248
46085W        W18510  19.916   9.450   4.001
46086W        W18511  41.296  31.197  11.785
46087W        W18512  22.563   8.491   4.840
46088W        W18513  11.799  30.593  12.126
46089W        W18514  38.791   0.966  14.753
46090W        W18515  33.417  12.133   2.871
46091W        W18516  12.332  30.080  11.490
46092W        W18517  38.336  14.144  12.421
46093W        W18518  42.922  15.880  12.958
46094W        W18519  26.279  15.593  12.609
46095W        W18520  33.484  10.463  14.016
46096W        W18521  37.324  30.177  10.801
46097W        W18522  15.735   0.464   4.615
46098W        W18523  11.867  30.332   2.856
46099W        W18524  13.125  40.915  14.225
46100W        W18525  18.265  38.064  10.455
46101W        W18526   7.961  18.285  12.794
46102W        W18527  26.910   6.153  12.014
46103W        W18528  16.770   6.965  13.802
46104W        W18529  23.161  34.994   4.106
46105W        W18530  25.677  42.881  11.679
46106W        W18531  12.235   7.245   4.006
46107W        W18532   6.582  27.067   0.509
46108W        W18533  43.357   5.688  11.567
46109W        W18534  41.051  25.913   3.692
46110W        W18535   8.804  30.409  13.235
46111W        W18536  15.550  38.811   0.245
46112W        W18537  26.963  27.563  11.369
46113W        W18538   6.856  21.085  12.408
46114W        W18539   0.860   1.794  13.809
46115W        W18540   1.408  29.051  12.924
46116W        W18541  34.297   7.749   0.929
46117W        W18542  24.493  43.938  12.132
46118W        W18543   2.674  35.035   0.280
46119W        W18544  30.165  31.632   0.369
46120W        W18545  24.767  23.805   4.094
46121W        W18546  41.033  42.495  11.440
46122W        W18547  10.445  19.642   9.949
46123W        W18548  21.815  10.472   0.305
46124W        W18549  16.791  12.378   0.915
46125W        W18550  42.756  28.443   0.031
46126W        W18551  20.717  31.447  14.785
46127W        W18552  20.112  23.195  13.375
46128W        W18553  34.449  39.801   2.235
46129W        W18554  35.494  28.188  13.475
46130W        W18555  30.136  28.949  11.730
46131W        W18556   1.412  25.086   3.271
46132W        W18557   7.474  34.158  10.591
46133W        W18558  39.884   8.610   1.895
46134W        W18559  32.474  17.680   1.106
46135W        W18560  40.437   0.673   2.817
46136W        W18561  17.631  43.776  12.973
46137W        W18562  33.086  26.190  10.334
46138W        W18563   8.623  27.661   4.053
46139W        W18564   5.299   2.347   2.779
46140W        W18565  30.952   4.060  13.025
46141W        W18566  36.867  27.208   0.413
46142W        W18567  43.085  34.995   4.520
46143W        W18568  28.991  39.562   4.437
46144W        W18569  16.133  17.238  14.550
46145W        W18570  42.002  34.978  10.675
46146W        W18571   4.892   6.490   0.971
46147W        W18572  30.938  16.248   5.620
46148W        W18573  18.506  14.579   3.675
46149W        W18574   0.206  41.058  11.582
46150W        W18575  36.034  13.871   0.407
46151W        W18576  32.386   6.907  11.321
46152W        W18577  19.145  11.285  14.787
46153W        W18578  25.199  29.134  14.823
46154W        W18579  28.349  19.698  11.464
46155W        W18580  34.940  17.668   0.952
46156W        W18581  15.722  13.069  10.421
46157W        W18582   8.714  21.696  13.038
46158W        W18583   0.808  25.649  11.092
46159W        W18584  17.297   1.818  10.309
46160W        W18585  38.916  34.549  10.924
46161W        W18586  19.996  44.982   1.809
46162W        W18587   6.277   4.475   1.755
46163W        W18588  20.137  44.833   4.580
46164W        W18589   3.406  22.036  12.846
46165W        W18590  40.566   9.843   0.277
46166W        W18591  17.993  28.256   3.306
46167W        W18592  41.439  13.677  14.911
46168W        W18593  35.984  12.132  11.933
46169W        W18594  33.952  44.809   1.898
46170W        W18595   8.620   2.760   4.032
46171W        W18596  34.755  35.448   3.241
46172W        W18597   5.310  22.800  13.543
46173W        W18598  12.310  10.864  11.242
46174W        W18599  39.356  42.497   9.753
46175W        W18600  33.608   6.004  14.173
46176W        W18601  13.674   7.338  14.914
46177W        W18602   9.593  44.832   4.593
46178W        W18603  39.925   6.470  11.555
46179W        W18604  17.690   5.657   3.330
46180W        W18605  16.042  12.204   3.307
46181W        W18606   5.974  14.998  14.989
46182W        W18607  42.879  34.238  12.500
46183W        W18608  14.852  23.058  10.596
46184W        W18609  26.427  21.729   2.663
46185W        W18610  39.979   9.426  13.337
46186W        W18611   3.933  18.555   1.770
46187W        W18612  44.792  20.647  13.075
46188W        W18613  43.087   4.404  10.757
46189W        W18614  37.944  41.343  12.439
46190W        W18615  36.073  30.455  13.461
46191W        W18616  38.924  12.873   3.167
46192W        W18617  36.049  43.372  14.945
46193W        W18618  37.818  37.942  14.038
46194W        W18619  43.024  43.159   2.752
46195W        W18620  11.761  39.442  12.447
46196W        W18621  23.596  17.242   1.664
46197W        W18622  29.551  21.493  13.015
46198W        W18623   2.354   1.094   2.292
46199W        W18624  33.160  35.922  12.449
46200W        W18625   4.381  10.139   2.322
46201W        W18626  36.125  39.437   3.223
46202W        W18627   4.905  27.965   1.971
46203W        W18628  27.852  11.162  13.456
46204W        W18629   4.251   5.868   3.848
46205W        W18630  16.721  44.956  14.893
46206W        W18631  27.988  42.867   2.123
46207W        W18632   2.107  26.041  11.987
46208W        W18633  18.579  39.362  14.815
46209W        W18634  27.140  24.947   0.544
46210W        W18635  17.984  32.927  10.290
46211W        W18636   4.213  25.095  12.486
46212W        W18637  37.984  17.635   2.613
46213W        W18638  44.334  23.079   0.645
46214W        W18639  42.592  11.703  11.685
46215W        W18640   6.157  14.139   3.674
46216W        W18641   5.675  24.009  13.110
46217W        W18642   0.201   5.288   2.365
46218W        W18643   5.965   6.778   1.648
46219W        W18644  22.105  32.157  13.549
46220W        W18645  13.197  18.342   1.903
46221W        W18646   1.254   9.639   0.745
46222W        W18647   6.366  19.429  11.088
46223W        W18648  12.211  14.749  11.572
46224W        W18649   1.905   5.437   0.325
46225W        W18650  16.556   4.741   0.253
46226W        W18651  37.291   6.795   4.147
46227W        W18652  28.268  40.978   4.316
46228W        W18653  18.673   3.522  13.055
46229W        W18654  12.292  19.705   0.323
46230W        W18655   0.153  21.433   4.114
46231W        W18656  42.940  33.492   3.788
46232W        W18657  13.097  19.741   1.919
46233W        W18658  20.707   4.717  12.991
46234W        W18659  31.602  30.472   2.386
46235W        W18660  12.625  25.274   3.804
46236W        W18661  24.550  42.447   4.504
46237W        W18662  44.141   3.500   5.101
46238W        W18663   5.347  17.038  13.337
46239W        W18664  25.682  10.492   0.366
46240W        W18665   7.872  32.644  14.810
46241W        W18666  29.488  33.194  11.154
46242W        W18667  17.851  20.289   2.180
46243W        W18668   7.101  30.588   3.600
46244W        W18669  18.053  27.504   4.529
46245W        W18670  24.090  36.542   4.264
46246W        W18671  23.635   1.910   1.335
46247W        W18672  39.007   3.952  11.142
46248W        W18673  30.886  16.133   4.268
46249W        W18674   5.030  29.007   4.602
46250W        W18675   6.354  29.957  12.433
46251W        W18676  38.275   8.609   3.229
46252W        W18677   9.189  24.524   0.275
46253W        W18678  15.893  43.767  11.585
46254W        W18679  44.927  11.329   0.501
46255W        W18680  29.508  19.452   2.769
46256W        W18681  15.620  30.912   0.829
46257W        W18682   7.170  17.644   3.591
46258W        W18683   2.731  30.780  13.504
46259W        W18684  11.394   7.956  13.889
46260W        W18685  38.878  38.747  14.120
46261W        W18686  13.179  24.292   9.773
46262W        W18687  16.680  26.126   0.259
46263W        W18688  33.867  11.152   2.410
46264W        W18689  23.438  13.702  11.498
46265W        W18690  14.096  31.254  11.880
46266W        W18691  27.596   6.729   1.256
46267W        W18692  41.834  42.375   9.880
46268W        W18693  20.126  26.368  14.632
46269W        W18694  30.660  37.244   4.157
46270W        W18695  28.344   3.289  12.524
46271W        W18696   5.335   4.492  14.387
46272W        W18697  39.830  11.625   1.000
46273W        W18698  10.763  27.708   1.888
46274W        W18699  10.347  21.692  12.075
46275W        W18700  38.788  25.635   0.017
46276W        W18701  33.933  21.749   1.202
46277W        W18702  20.326  25.008   4.586
46278W        W18703   1.044  40.135  14.403
46279W        W18704  41.251  17.208  13.220
46280W        W18705  12.570  24.006  13.035
46281W        W18706  43.375  34.004  12.575
46282W        W18707  34.024  35.533  11.026
46283W        W18708   9.158   8.598   4.214
46284W        W18709  20.618   8.370   0.505
46285W        W18710  19.694  15.310  14.958
46286W        W18711   3.888  29.662   2.911
46287W        W18712  36.967  15.593  12.024
46288W        W18713  32.611  34.328  12.081
46289W        W18714   4.504  34.850   1.373
46290W        W18715  27.056   8.640  12.850
46291W        W18716  28.922   1.776   2.895
46292W        W18717  37.424  11.538  11.412
46293W        W18718   9.763   8.682   1.623
46294W        W18719  31.064  36.335  13.981
46295W        W18720  12.100  20.029  11.134
46296W        W18721  15.724  41.552  10.593
46297W        W18722  29.217   4.266   2.774
46298W        W18723  15.280  41.579  12.958
46299W        W18724  41.460  31.288   3.279
46300W        W18725  31.912  30.751   0.307
46301W        W18726  15.188  26.662  14.761
46302W        W18727   5.792  28.879   4.835
46303W        W18728  34.848  31.531  10.540
46304W        W18729   4.975  21.804  14.738
46305W        W18730   7.656  28.960  12.609
46306W        W18731  27.472   2.589  11.948
46307W        W18732  17.332   7.454   0.392
46308W        W18733  44.331  36.407  12.686
46309W        W18734  43.561  28.150  14.691
46310W        W18735  36.419  42.041  13.169
46311W        W18736  30.671  20.351   2.734
46312W        W18737  14.724  21.176  13.608
46313W        W18738  44.844   7.238   1.779
46314W        W18739   6.856   8.382  11.693
46315W        W18740  39.280  20.127   4.033
46316W        W18741  44.280  36.848   0.782
46317W        W18742   9.295   5.141   0.350
46318W        W18743  30.217  43.114  12.647
46319W        W18744  37.449   4.416  11.596
46320W        W18745  43.940  26.764   3.938
46321W        W18746  38.638  20.341  11.290
46322W        W18747  44.783  27.542  14.028
46323W        W18748  33.804   7.773   4.691
46324W        W18749  22.033   9.393   3.677
46325W        W18750  43.863  29.369  11.103
46326W        W18751  44.295  21.604   2.333
46327W        W18752  15.836  40.763  13.514
46328W        W18753  23.332  18.746   4.424
46329W        W18754  43.666   2.482  12.924
46330W        W18755   5.927   3.391   3.189
46331W        W18756  30.744   7.752   3.335
46332W        W18757  15.494  42.538   3.728
46333W        W18758  44.806  20.305  13.544
46334W        W18759  27.920  11.938  11.107
46335W        W18760   1.210  36.431  12.996
46336W        W18761  38.510   3.929  10.895
46337W        W18762  26.441  11.038  11.578
46338W        W18763  19.160  37.974  11.596
46339W        W18764  17.419  41.173  10.838
46340W        W18765  13.101  24.539   5.655
46341W        W18766   7.001   9.926  14.360
46342W        W18767   1.518  13.880  13.233
46343W        W18768  14.099  18.579   2.746
46344W        W18769   3.809  34.852  11.342
46345W        W18770  23.377   9.020  11.421
46346W        W18771  44.453  17.648   0.910
46347W        W18772  41.885  36.431  10.628
46348W        W18773   3.777  10.350   4.021
46349W        W18774   0.865  26.949   4.661
46350W        W18775  18.655  16.930   4.354
46351W        W18776  42.486   6.253   1.848
46352W        W18777  32.944   4.209  11.874
46353W        W18778   6.729  38.136   2.645
46354W        W18779  41.801  14.060   2.589
46355W        W18780   6.892   7.736  11.145
46356W        W18781  18.200  18.378   3.316
46357W        W18782  39.886  38.471   4.663
46358W        W18783  14.333  44.915   1.193
46359W        W18784  40.038   2.471   0.806
46360W        W18785   6.804  10.898  11.097
46361W        W18786   9.211   6.740   1.854
46362W        W18787   5.268  24.344   3.674
46363W        W18788  38.418  25.466  14.676
46364W        W18789   7.355  36.288  11.677
46365W        W18790  24.958   9.813   3.652
46366W        W18791  12.211  44.762  11.170
46367W        W18792  12.597  14.191   4.543
46368W        W18793  37.539  21.110  11.062
46369W        W18794  10.090  37.121   3.577
46370W        W18795  21.350   9.316  13.054
46371W        W18796  18.986  30.956   2.217
46372W        W18797  24.977   6.302  14.913
46373W        W18798  34.396   8.018  14.815
46374W        W18799  32.370  32.619   4.128
46375W        W18800  15.322  32.913   2.242
46376W        W18801  41.728   3.209  13.293
46377W        W18802  19.068  34.622   2.729
46378W        W18803  33.278  23.550   2.720
46379W        W18804  39.388   4.398   4.572
46380W        W18805   4.051  21.101   1.412
46381W        W18806  39.556  41.490  11.614
46382W        W18807  28.253   7.812   0.533
46383W        W18808   0.453  32.960  14.284
46384W        W18809  22.058  15.420   4.690
46385W        W18810  44.340  30.731   2.259
46386W        W18811   8.626  20.151   3.170
46387W        W18812  18.291  39.754  11.035
46388W        W18813  35.603  11.107   1.032
46389W        W18814  31.594  28.126  13.569
46390W        W18815  22.010   3.696   4.628
46391W        W18816  28.612  33.297  14.784
46392W        W18817  19.771   9.105  11.126
46393W        W18818  17.750  19.201   0.773
46394W        W18819  31.858  43.149   1.454
46395W        W18820  44.650   2.634   1.511
46396W        W18821  37.522  28.693  12.667
46397W        W18822  13.087  21.941  10.647
46398W        W18823  18.576  12.142   0.323
46399W        W18824   9.270  23.222  12.113
46400W        W18825   2.220   0.183   3.329
46401W        W18826   6.110  18.582  13.750
46402W        W18827  21.633  23.058   1.961
46403W        W18828  36.806  25.074  11.450
46404W        W18829  26.783   6.860  12.514
46405W        W18830  37.590  13.922   4.212
46406W        W18831   8.338  33.394  14.386
46407W        W18832  10.393  34.143  14.257
46408W        W18833   0.217  39.824   2.289
46409W        W18834   1.778  29.622  10.724
46410W        W18835  24.509   3.814   2.225
46411W        W18836  30.069  44.884  11.926
46412W        W18837  38.464  12.853  12.519
46413W        W18838  19.052  24.531   0.944
46414W        W18839  29.222  42.356   1.747
46415W        W18840   3.845  25.506   2.683
46416W        W18841  33.928  11.446  12.486
46417W        W18842   0.277   7.169  12.420
46418W        W18843  40.013  40.540   4.936
46419W        W18844  10.804   2.013   4.508
46420W        W18845  35.613  31.170  11.651
46421W        W18846  18.864  15.202   1.186
46422W        W18847  21.577  33.967  13.544
46423W        W18848   3.752  34.449   2.328
46424W        W18849   9.347   5.518  12.960
46425W        W18850   7.774   8.204   4.533
46426W        W18851  40.869  37.843   1.019
46427W        W18852  15.206  12.750  12.008
46428W        W18853  40.586  16.529   1.334
46429W        W18854  44.370  10.261  13.413
46430W        W18855  26.285  28.112  13.850
46431W        W18856  12.153  31.490  13.755
46432W        W18857  44.305  41.490   2.555
46433W        W18858  12.094  23.845   2.407
46434W        W18859  30.122  31.642   4.744
46435W        W18860  36.073  33.581  10.658
46436W        W18861  31.166   3.838  14.801
46437W        W18862  16.046  34.967   5.170
46438W        W18863  25.207   5.016   1.356
46439W        W18864  39.287  12.878  14.412
46440W        W18865  37.290   8.349  10.435
46441W        W18866   6.292  42.444  11.999
46442W        W18867  12.898   9.098  13.197
46443W        W18868   3.184  20.020  14.386
46444W        W18869  22.825   9.725   2.780
46445W        W18870  44.316  14.836  14.942
46446W        W18871  19.594  21.232  13.329
46447W        W18872  32.250  43.050   2.761
46448W        W18873  34.872  36.611  12.472
46449W        W18874  38.742   5.798   0.941
46450W        W18875   1.982  37.575   2.818
46451W        W18876  32.038  15.142  13.921
46452W        W18877  19.661  41.633  10.627
46453W        W18878  36.056   1.632  14.993
46454W        W18879  10.914  18.187  11.550
46455W        W18880  29.963  21.796  12.793
46456W        W18881  15.587  29.698  11.213
46457W        W18882  22.593  16.320   1.386
46458W        W18883   7.225   0.818  14.346
46459W        W18884   5.647  44.653   0.304
46460W        W18885  22.155  31.021   3.241
46461W        W18886  35.014   1.213  13.080
46462W        W18887  30.531  15.388  14.311
46463W        W18888  41.556  27.386   1.786
46464W        W18889  29.491   7.968  11.027
46465W        W18890  10.244  39.484   2.628
46466W        W18891  24.966   4.362   0.849
46467W        W18892  30.181  19.571  13.807
46468W        W18893  38.492  22.109   5.067
46469W        W18894  42.480  26.808   3.102
46470W        W18895  37.402  30.007   3.486
46471W        W18896  12.231  31.737  13.024
46472W        W18897  42.423  17.601  10.993
46473W        W18898  44.970   4.841   2.370
46474W        W18899  27.064  16.687  11.492
46475W        W18900  10.598  32.888  11.354
46476W        W18901  23.784  32.866  12.896
46477W        W18902  38.029  25.259  11.044
46478W        W18903  16.961  37.531   3.629
46479W        W18904   7.642  20.733  14.506
46480W        W18905  16.015   7.710  11.580
46481W        W18906  24.692  40.264   1.425
46482W        W18907  38.614  40.564  13.351
46483W        W18908  19.280  28.686  14.848
46484W        W18909  33.836  10.830  14.068
46485W        W18910   2.190  41.301   4.266
46486W        W18911  25.296   6.575   0.241
46487W        W18912   9.452   7.217   1.809
46488W        W18913  24.074  38.041  13.897
46489W        W18914  21.358   3.248  14.837
46490W        W18915  36.544  43.453  10.797
46491W        W18916  30.486   0.243  13.172
46492W        W18917   9.170   5.745   2.804
46493W        W18918  21.965  37.384   1.179
46494W        W18919  17.515  19.083  14.402
46495W        W18920   5.234   4.960  11.670
46496W        W18921  33.804  32.349   3.362
46497W        W18922  14.997   5.862  11.935
46498W        W18923  23.216  23.022   1.124
46499W        W18924  15.360   3.389   1.387
46500W        W18925   3.991   3.777  14.743
46501W        W18926   8.324   1.829  10.679
46502W        W18927  23.062  19.068   1.422
46503W        W18928  23.290  21.206  12.073
46504W        W18929  38.012  32.100   3.187
46505W        W18930  34.883  12.594  14.025
46506W        W18931  25.909  31.873  10.673
46507W        W18932   6.426  13.964  13.864
46508W        W18933   1.481  43.489  11.220
46509W        W18934   6.791  17.842  12.543
46510W        W18935  16.959  15.494   2.774
46511W        W18936  26.046  10.871   0.459
46512W        W18937  20.753   8.078   3.091
46513W        W18938  22.760  12.291  14.262
46514W        W18939  37.913  33.553  10.343
46515W        W18940  36.785  39.940   5.066
46516W        W18941  16.890  44.268   2.306
46517W        W18942   4.890  42.274  14.276
46518W        W18943  18.001  42.921  14.745
46519W        W18944  14.321  24.312  14.884
46520W        W18945   3.969  18.106   0.872
46521W        W18946  42.014  18.557  10.853
46522W        W18947  32.673  20.008   5.058
46523W        W18948  35.202   2.263   3.678
46524W        W18949  11.342  20.207   4.184
46525W        W18950  44.982  27.137   2.575
46526W        W18951   6.810  29.980  14.521
46527W        W18952  33.650  27.179  14.676
46528W        W18953   7.292  36.764  10.198
46529W        W18954   9.889  43.289   4.657
46530W        W18955  37.955  17.519  11.593
46531W        W18956  14.087  15.572   0.760
46532W        W18957  10.101  17.191   2.653
46533W        W18958  42.771  31.910   3.154
46534W        W18959  16.761  30.430  14.895
46535W        W18960  11.141   2.991  14.774
46536W        W18961  21.191  32.565   0.339
46537W        W18962  33.132  32.335  11.154
46538W        W18963  15.492  31.915   3.560
46539W        W18964   4.790   4.519   0.912
46540W        W18965   1.034   8.682   5.030
46541W        W18966  35.302  22.130   4.936
46542W        W18967  38.442  42.717  13.895
46543W        W18968  33.490  37.301   1.266
46544W        W18969  26.712  15.844   0.975
46545W        W18970  35.528  33.485  13.092
46546W        W18971  22.560   8.659   0.903
46547W        W18972   0.029   7.178   2.296
46548W        W18973  14.818  31.732   2.313
46549W        W18974   6.159  36.625  12.420
46550W        W18975  43.491  20.747  13.065
46551W        W18976   2.991  19.257   4.150
46552W        W18977  16.334  36.120   1.407
46553W        W18978  31.899  20.269  11.044
46554W        W18979  14.700  10.283   0.509
46555W        W18980  38.568  36.888  14.490
46556W        W18981  21.516  37.234   3.791
46557W        W18982  44.353  31.310  12.136
46558W        W18983   7.209  18.100  13.487
46559W        W18984  26.597  12.058  11.444
46560W        W18985   0.959   9.874  12.245
46561W        W18986   4.730  40.233   0.254
46562W        W18987   8.354  33.299  11.721
46563W        W18988  22.819  18.665   4.474
46564W        W18989   2.763  40.500  11.943
46565W        W18990  25.088  18.503   0.215
46566W        W18991  31.402  31.224  13.047
46567W        W18992  23.221  27.480   4.342
46568W        W18993   4.140  38.934  13.907
46569W        W18994  41.444  40.301   0.266
46570W        W18995  44.229  17.178  13.738
46571W        W18996  36.258  10.775   1.677
46572W        W18997  11.902   0.385   2.893
46573W        W18998   3.192  25.770  11.052
46574W        W18999  14.352  31.833   1.348
46575W        W19000  32.900  27.710  11.580
46576W        W19001  40.464  12.029   1.745
46577W        W19002  39.657  13.042  14.033
46578W        W19003  23.250   0.784  10.827
46579W        W19004  22.461   4.949  13.480
46580W        W19005  35.144  13.316  10.640
46581W        W19006   8.946  42.461  11.823
46582W        W19007  42.985  44.315  12.184
46583W        W19008  13.636   7.935   1.107
46584W        W19009  30.857  35.982   0.251
46585W        W19010  38.798  11.300   1.786
46586W        W19011   7.590  16.166   1.369
46587W        W19012  34.344  41.595  13.082
46588W        W19013  12.615  31.040  12.245
46589W        W19014  10.483  30.088   2.301
46590W        W19015  24.189  10.101   2.309
46591W        W19016  20.537   4.456  11.104
46592W        W19017  40.013  41.830  14.848
46593W        W19018   3.831  31.571   1.296
46594W        W19019  11.014  22.721  13.928
46595W        W19020  10.617   3.778  13.744
46596W        W19021  35.256  34.050  11.906
46597W        W19022  14.797  15.368   4.569
46598W        W19023  44.349  13.166  14.219
46599W        W19024   6.235  27.526  12.454
46600W        W19025  36.496  28.246  14.866
46601W        W19026  33.012   1.928  14.852
46602W        W19027   3.324  29.714   3.094
46603W        W19028  36.687  23.576   4.573
46604W        W19029  24.377  27.904   4.453
46605W        W19030  23.855  20.043   3.775
46606W        W19031  21.044  37.060  10.489
46607W        W19032  19.553  19.778  13.348
46608W        W19033  29.600  41.337   3.309
46609W        W19034  16.707   3.872  11.519
46610W        W19035  19.220   9.141  11.607
46611W        W19036  20.734  30.151   4.363
46612W        W19037  36.135  20.704  11.541
46613W        W19038  16.748  21.578   2.577
46614W        W19039  19.693   1.056  14.349
46615W        W19040  35.176  40.611   1.323
46616W        W19041  34.602  19.088  12.988
46617W        W19042  37.415  30.537  11.169
46618W        W19043  42.255   6.519  14.430
46619W        W19044  28.159  29.488   1.220
46620W        W19045   2.563   9.165   5.294
46621W        W19046  24.664  14.364  11.594
46622W        W19047  41.977  20.145   1.895
46623W        W19048  14.309  25.166   3.105
46624W        W19049  44.333  43.545   0.241
46625W        W19050   2.271  18.329   5.102
46626W        W19051  33.106   5.835   3.708
46627W        W19052  26.179   3.411  12.883
46628W        W19053  28.704  34.660   3.122
46629W        W19054  14.905  27.598   2.329
46630W        W19055  16.078   2.801  12.175
46631W        W19056  15.195  19.734  13.074
46632W        W19057  41.305  35.360   2.718
46633W        W19058  35.357   8.395   3.319
46634W        W19059  22.500   5.198  13.963
46635W        W19060  37.022  23.167  11.004
46636W        W19061   9.336  26.268  14.351
46637W        W19062  34.079   2.739  14.912
46638W        W19063   9.089   9.899  10.864
46639W        W19064  20.024   7.019  12.844
46640W        W19065  16.653   2.349   5.087
46641W        W19066  11.161  26.997  12.023
46642W        W19067  33.589   0.496  10.776
46643W        W19068  12.767  38.812   3.580
46644W        W19069  36.997   7.744   4.982
46645W        W19070  18.216  18.458   2.260
46646W        W19071  44.869  40.382   3.339
46647W        W19072  43.976   8.248   3.881
46648W        W19073  37.127  34.956  13.390
46649W        W19074  21.244   2.108   2.900
46650W        W19075   8.160   0.277   3.269
46651W        W19076   3.377  42.046  11.868
46652W        W19077  16.971  41.876   4.289
46653W        W19078  34.166  34.639   0.010
46654W        W19079   8.214  40.062   0.274
46655W        W19080  19.040  17.421  11.393
46656W        W19081   8.138  19.918  13.296
46657W        W19082  16.073  37.193  11.075
46658W        W19083   9.670  43.750   1.007
46659W        W19084  40.817  24.691   1.193
46660W        W19085  32.336  31.148  13.004
46661W        W19086  28.299  35.936   2.433
46662W        W19087  18.228   6.644   1.337
46663W        W19088  14.167  37.981   3.689
46664W        W19089  23.834  42.071  12.794
46665W        W19090  43.597  15.811  14.964
46666W        W19091  29.881  39.107  10.770
46667W        W19092  21.558  25.738  10.721
46668W        W19093  14.123   4.778   1.690
46669W        W19094   1.691  32.148   0.835
46670W        W19095  42.675   3.261  11.992
46671W        W19096  26.965  21.777  11.374
46672W        W19097   3.676  36.259  11.924
46673W        W19098  14.219  17.631  11.180
46674W        W19099  23.598  43.378   1.867
46675W        W19100  31.511   2.321  13.487
46676W        W19101  39.459   2.244   2.033
46677W        W19102  34.062  39.455  11.897
46678W        W19103  10.429  18.621   1.221
46679W        W19104  18.603  16.591   1.155
46680W        W19105  25.037  22.649   1.743
46681W        W19106  32.996  38.437  11.115
46682W        W19107   4.286   8.662  10.420
46683W        W19108  39.751  36.499   2.762
46684W        W19109   2.723   6.692  12.458
46685W        W19110  37.667  33.185   0.909
46686W        W19111  27.445  30.663   4.535
46687W        W19112  29.353   8.462  11.015
46688W        W19113  24.516  12.269   4.443
46689W        W19114  34.532  24.484   3.548
46690W        W19115  13.515  19.483   2.701
46691W        W19116  40.985  15.084   4.297
46692W        W19117   8.069  37.446   0.311
46693W        W19118  29.895  15.967   2.126
46694W        W19119  25.014   2.852  12.344
46695W        W19120   0.602  22.811   0.831
46696W        W19121  14.748   3.971   2.867
46697W        W19122  23.975  28.928   3.317
46698W        W19123   6.706   9.604   4.789
46699W        W19124   4.939  42.516  14.760
46700W        W19125  21.196  42.286   2.764
46701W        W19126  34.004  19.288   2.488
46702W        W19127   4.034   4.964   4.655
46703W        W19128   8.116  43.370  11.863
46704W        W19129  12.759   5.307   1.916
46705W        W19130  12.758  35.389   2.395
46706W        W19131  15.271  35.024  12.963
46707W        W19132  12.525  15.767   2.632
46708W        W19133  43.793  18.689  13.408
46709W        W19134   0.507  43.334   2.444
46710W        W19135   3.420  32.033  12.449
46711W        W19136   5.499   6.285   3.701
46712W        W19137  41.981  37.487   4.463
46713W        W19138  10.785  23.272   4.077
46714W        W19139  21.657  11.762  13.493
46715W        W19140  30.881  37.904  13.837
46716W        W19141   0.344  10.617  12.535
46717W        W19142  38.352  11.976  11.076
46718W        W19143  11.348  32.336  11.015
46719W        W19144  33.606  19.618  11.397
46720W        W19145  22.318  13.302  11.480
46721W        W19146  39.892  20.226  12.098
46722W        W19147  31.596  17.629  11.476
46723W        W19148  36.086   0.455  12.133
46724W        W19149  24.067   6.821  11.959
46725W        W19150  22.303  31.015  13.020
46726W        W19151  20.850  35.926   0.500
46727W        W19152  10.772   5.956  11.578
46728W        W19153  25.497  23.984   3.365
46729W        W19154  38.882  42.078  14.384
46730W        W19155  15.630   3.261   4.564
46731W        W19156   3.781   1.596   2.656
46732W        W19157  29.939  32.190  10.339
46733W        W19158  11.560  25.086  11.483
46734W        W19159  36.954   0.451  10.500
46735W        W19160  24.322  38.603  14.923
46736W        W19161  41.020  10.376   2.731
46737W        W19162  34.871  38.972  14.233
46738W        W19163  20.212  30.867   3.575
46739W        W19164  16.625  29.937   1.178
46740W        W19165  32.448  23.531   1.637
46741W        W19166  32.335  12.606  10.498
46742W        W19167   4.452   3.389   0.529
46743W        W19168  24.165  44.854   2.892
46744W        W19169  31.586   4.838  13.244
46745W        W19170  31.975  41.454  12.962
46746W        W19171  39.794   3.175  12.113
46747W        W19172  36.789   1.775  12.916
46748W        W19173   6.813  17.658   2.800
46749W        W19174  28.254  31.424  11.567
46750W        W19175  43.617  41.200   3.476
46751W        W19176   5.430   5.445  12.502
46752W        W19177  39.887  13.251  10.740
46753W        W19178  12.350  34.009   2.197
46754W        W19179   1.973   7.390  12.945
46755W        W19180  14.697  12.731   1.281
46756W        W19181   1.879  18.139  12.822
46757W        W19182  38.900   2.823  14.236
46758W        W19183  19.000  27.776  13.921
46759W        W19184  34.966  14.170   1.448
46760W        W19185  11.330  16.852   1.858
46761W        W19186  31.089  32.448   0.480
46762W        W19187  10.572  26.098   2.690
46763W        W19188  33.752  10.738  14.969
46764W        W19189   1.253  34.861  14.760
46765W        W19190  25.028   4.952   4.203
46766W        W19191  32.800  10.786   1.651
46767W        W19192  36.415   7.066  10.645
46768W        W19193   1.699  16.758   4.904
46769W        W19194  42.746   2.754  12.001
46770W        W19195  31.593  24.546  12.083
46771W        W19196   0.865  32.332  10.992
46772W        W19197  21.681  38.946   4.202
46773W        W19198  34.095   0.549  11.095
46774W        W19199  16.754  26.418   1.417
46775W        W19200   0.684  26.023  13.091
46776W        W19201  42.345  35.358  13.499
46777W        W19202  20.874  38.668  11.463
46778W        W19203  40.517  17.327   1.678
46779W        W19204   6.345  27.737  12.989
46780W        W19205  15.531   1.350  13.826
46781W        W19206  21.244  28.621   2.747
46782W        W19207  11.966  33.563   1.858
46783W        W19208   1.470  23.784   3.705
46784W        W19209  44.895   7.436  11.202
46785W        W19210  11.737  14.362  11.166
46786W        W19211  43.669  44.436   2.777
46787W        W19212  33.650   7.779  10.262
46788W        W19213  33.927   8.517  12.557
46789W        W19214  39.801  36.823  11.095
46790W        W19215  16.153  39.948  14.555
46791W        W19216  31.578  31.148   0.432
46792W        W19217  29.879  28.383  10.217
46793W        W19218  43.901   1.930   0.530
46794W        W19219  12.411  38.887   2.679
46795W        W19220  23.536  26.234  14.889
46796W        W19221  16.237  44.681   0.484
46797W        W19222  37.532   0.486   4.083
46798W        W19223  29.163  21.793  11.407
46799W        W19224  31.550  18.574  14.097
46800W        W19225   9.306  42.047   1.868
46801W        W19226  18.209  38.771   4.238
46802W        W19227   5.347  35.067   0.530
46803W        W19228  23.713  37.333   4.832
46804W        W19229   8.435  31.994  11.584
46805W        W19230   0.442  26.937   2.638
46806W        W19231  31.017   0.967  10.609
46807W        W19232  19.763  32.796   2.885
46808W        W19233  11.302  10.691   0.352
46809W        W19234  29.772  25.025  13.158
46810W        W19235  14.444  25.678  12.621
46811W        W19236  25.494  19.099   1.347
46812W        W19237  18.157  17.229   5.019
46813W        W19238   7.307   2.858   0.221
46814W        W19239  32.161  43.424   1.817
46815W        W19240  26.480  21.632   1.207
46816W        W19241  10.550   6.272   1.432
46817W        W19242  43.342  13.583  14.321
46818W        W19243  44.875  39.074  12.586
46819W        W19244  25.912   7.782  10.486
46820W        W19245  14.207  28.772   2.328
46821W        W19246  17.586  35.799   4.145
46822W        W19247  28.590  18.766  13.554
46823W        W19248  14.173  39.755   1.375
46824W        W19249   8.890  40.143  11.609
46825W        W19250  41.942  39.413   4.045
46826W        W19251  19.246  44.334   1.223
46827W        W19252  16.472   4.982  10.473
46828W        W19253   6.168  35.257   2.182
46829W        W19254  31.688   4.309   0.435
46830W        W19255  23.829   2.092   0.873
46831W        W19256  20.530   5.885  12.396
46832W        W19257  33.502  39.406  12.996
46833W        W19258  15.410   3.644   1.879
46834W        W19259  31.169  27.417   0.891
46835W        W19260   2.337  38.154  13.406
46836W        W19261   0.272  14.773   2.205
46837W        W19262  38.868  36.001  12.541
46838W        W19263   4.347   9.989   0.503
46839W        W19264   0.877  35.806  10.392
46840W        W19265  17.284  18.201   3.367
46841W        W19266  34.497  39.001  13.456
46842W        W19267  15.594  36.447  12.874
46843W        W19268   7.708  14.925  14.755
46844W        W19269   6.382   2.176   4.514
46845W        W19270  37.581  30.011  13.345
46846W        W19271   9.840  40.027   0.382
46847W        W19272  24.616  11.215  14.833
46848W        W19273  16.256   8.042  12.022
46849W        W19274  15.093  13.260   0.047
46850W        W19275  32.960  42.098  14.424
46851W        W19276   4.616  23.990   0.752
46852W        W19277  19.180  21.161   1.035
46853W        W19278  19.573  44.040  13.846
46854W        W19279  36.477   9.680   3.768
46855W        W19280   5.247   4.475   1.807
46856W        W19281  12.362  37.770  12.765
46857W        W19282   0.508  37.104  12.404
46858W        W19283  25.596  33.326  11.642
46859W        W19284  43.731  33.814  10.219
46860W        W19285   9.747  27.127   4.382
46861W        W19286  30.413   9.233  10.925
46862W        W19287  21.165  27.976  13.079
46863W        W19288   5.559  29.468   3.178
46864W        W19289   1.438  25.729  11.530
46865W        W19290  20.578   4.494  14.402
46866W        W19291  30.192   0.276  12.640
46867W        W19292  21.202  34.435   1.858
46868W        W19293  33.378  18.278  11.497
46869W        W19294  27.050   9.626  12.943
46870W        W19295  41.023  23.728  11.133
46871W        W19296  40.073  37.391   0.982
46872W        W19297  19.344  32.606  10.990
46873W        W19298  40.764  35.426   3.779
46874W        W19299  37.458  14.280   4.585
46875W        W19300  39.748   3.862  14.422
46876W        W19301  33.585   7.894   3.987
46877W        W19302  28.672  32.289   1.396
46878W        W19303  10.584   1.381  14.183
46879W        W19304  44.820  11.130  12.597
46880W        W19305  13.545   6.992   0.451
46881W        W19306  14.630  19.960   0.387
46882W        W19307  28.567  31.898   3.905
46883W        W19308  24.081  23.907   3.704
46884W        W19309  31.556   1.730   3.321
46885W        W19310   3.536  21.025   2.330
46886W        W19311  29.134  19.054   2.513
46887W        W19312   3.450  13.259  11.934
46888W        W19313  23.912  32.457  11.536
46889W        W19314  16.635  34.925  14.335
46890W        W19315  30.166  27.070   3.085
46891W        W19316   2.045  38.498  12.064
46892W        W19317  18.583  39.851   1.629
46893W        W19318  40.066   7.478  14.405
46894W        W19319  25.694   4.651  10.313
46895W        W19320  19.246   5.848   4.547
46896W        W19321  13.811  39.507   3.752
46897W        W19322   9.304  37.607  14.928
46898W        W19323  43.815  40.687  13.286
46899W        W19324   4.680  17.340   5.036
46900W        W19325  31.291  42.698  11.471
46901W        W19326  12.411   4.219  13.037
46902W        W19327   9.159   8.717  12.397
46903W        W19328  15.855  36.010   1.672
46904W        W19329  28.656  17.619   1.325
46905W        W19330   1.957  16.314  11.142
46906W        W19331  28.173  41.358   0.374
46907W        W19332  13.649  20.298   0.447
46908W        W19333  13.356  36.876   3.175
46909W        W19334  19.688  29.711  10.689
46910W        W19335  11.944  25.296  10.605
46911W        W19336   4.361  17.180  12.441
46912W        W19337  30.925  40.774   0.370
46913W        W19338  22.761  34.003   0.233
46914W        W19339  41.099   8.189  13.887
46915W        W19340  23.588  31.588  14.552
46916W        W19341  36.586  18.642   2.872
46917W        W19342   5.711   1.353   3.635
46918W        W19343   9.502  18.408  13.311
46919W        W19344   5.503  28.002  12.464
46920W        W19345  10.773  27.199   2.839
46921W        W19346   7.297  14.414  13.688
46922W        W19347  44.387  12.667  13.955
46923W        W19348  15.840  15.662   5.314
46924W        W19349  42.759  21.620   4.661
46925W        W19350  30.686  33.410   3.357
46926W        W19351  21.964  14.757   0.185
46927W        W19352  41.479   1.542   1.983
46928W        W19353  12.133  28.967  14.952
46929W        W19354  16.633  36.091   0.768
46930W        W19355  28.207   1.713  14.824
46931W        W19356  31.204  37.903  13.036
46932W        W19357  39.873  24.613   1.698
46933W        W19358  17.028   8.662  13.826
46934W        W19359  14.678   8.398  14.776
46935W        W19360   9.899  14.141   0.881
46936W        W19361  32.662  22.922   4.273
46937W        W19362  30.490  21.076  12.819
46938W        W19363  29.064  22.621   4.676
46939W        W19364   4.406  22.440  14.820
46940W        W19365  18.712  37.627   0.251
46941W        W19366  36.748  19.555   1.785
46942W        W19367  34.448  29.263  14.314
46943W        W19368   0.919  36.949  11.005
46944W        W19369  10.675  36.330  12.380
46945W        W19370  39.059  13.168   2.758
46946W        W19371   0.344  12.548   4.832
46947W        W19372  16.524  27.727   0.003
46948W        W19373  32.606  16.778   1.238
46949W        W19374   7.718  33.612  14.355
46950W        W19375  42.861  37.289   4.582
46951W        W19376   8.759   6.385  12.348
46952W        W19377  35.173  30.018   4.526
46953W        W19378   4.379  20.107   0.880
46954W        W19379  18.832  30.039   2.870
46955W        W19380  18.172  11.202   2.810
46956W        W19381  26.731  25.626   2.365
46957W        W19382  27.934  35.365  13.882
46958W        W19383   9.949   6.928   0.743
46959W        W19384  30.749  30.742  10.015
46960W        W19385  44.386  14.899   1.839
46961W        W19386  33.096  17.639  13.202
46962W        W19387  22.488  34.591   2.870
46963W        W19388  27.475  44.707   2.168
46964W        W19389  38.123  18.967   4.509
46965W        W19390  10.656  24.729  14.596
46966W        W19391  38.264  44.806   2.867
46967W        W19392   5.237  16.828  14.335
46968W        W19393  41.916  33.152  12.469
46969W        W19394  42.391  39.604  13.935
46970W        W19395  14.934  20.211   3.578
46971W        W19396  20.678  40.549   1.405
46972W        W19397  38.640  19.833  11.176
46973W        W19398   2.897  42.252  13.376
46974W        W19399  19.969  44.942   2.687
46975W        W19400  24.957  27.169  14.448
46976W        W19401  35.840  37.428  11.625
46977W        W19402  37.852  31.825   0.782
46978W        W19403  16.116  18.125   1.999
46979W        W19404   3.476  38.722  13.517
46980W        W19405  12.792   4.269  10.672
46981W        W19406   3.359  29.054   0.585
46982W        W19407  42.566  26.222  11.185
46983W        W19408  38.804  22.214   0.885
46984W        W19409  37.874   9.611  12.705
46985W        W19410   9.298   9.719  11.865
46986W        W19411   4.142  20.230  14.321
46987W        W19412  38.563  43.771  14.768
46988W        W19413  13.033  34.685  14.387
46989W        W19414  11.027   8.326   1.298
46990W        W19415  25.818  38.359  12.493
46991W        W19416  17.742   0.486  14.997
46992W        W19417  16.318  42.626  11.144
46993W        W19418   0.651  36.781   3.234
46994W        W19419  37.638  28.154   0.831
46995W        W19420   2.524   1.800  14.470
46996W        W19421  39.747  30.381   4.883
46997W        W19422   3.905  15.197  12.882
46998W        W19423  29.008  22.272  14.879
46999W        W19424  26.576  43.296  11.395
47000W        W19425  16.547  29.432  12.193
47001W        W19426  22.144  44.872  12.260
47002W        W19427  39.705  37.127  12.458
47003W        W19428  22.640  16.597   0.455
47004W        W19429  35.380  14.773   4.139
47005W        W19430   5.899  23.724   1.647
47006W        W19431  26.184  14.417   0.360
47007W        W19432  32.399   2.392   0.276
47008W        W19433   1.503  42.456  13.390
47009W        W19434   9.030  33.976   3.333
47010W        W19435  20.800  25.671  11.637
47011W        W19436  35.503  33.702   4.625
47012W        W19437  23.062  38.144  13.120
47013W        W19438   5.318  31.063  14.071
47014W        W19439  43.981   5.580  11.602
47015W        W19440  30.511  11.141   2.693
47016W        W19441   8.153  17.198   4.769
47017W        W19442  31.216  35.001   0.320
47018W        W19443  38.903   3.437  11.132
47019W        W19444  20.742  19.189   0.792
47020W        W19445  29.678  13.319  14.600
47021W        W19446  17.092   4.479  11.899
47022W        W19447  16.666  14.075  14.890
47023W        W19448  35.277  41.056  10.650
47024W        W19449   4.195  39.342   2.790
47025W        W19450  23.689  28.923   2.557
47026W        W19451  26.954   4.714   1.409
47027W        W19452  33.306   5.990  12.953
47028W        W19453  21.082   1.204  13.545
47029W        W19454  32.517  39.990  11.684
47030W        W19455  14.077  30.187  12.282
47031W        W19456  36.171  30.601   2.458
47032W        W19457  36.910  40.064  12.572
47033W        W19458  28.137  18.780  12.808
47034W        W19459   1.761  36.154  14.896
47035W        W19460  10.814  19.940  10.697
47036W        W19461  11.689   4.435  13.418
47037W        W19462   9.623  38.985   4.072
47038W        W19463   2.760  24.461  13.018
47039W        W19464   3.519  37.893   3.597
47040W        W19465  31.426  33.093   4.933
47041W        W19466  21.732  43.068  10.567
47042W        W19467  35.894  39.785  12.346
47043W        W19468  17.998  23.522  14.116
47044W        W19469  26.729  28.931   0.249
47045W        W19470  33.885  39.053   0.536
47046W        W19471  38.104  32.488  14.539
47047W        W19472  24.692  43.487  11.939
47048W        W19473   1.381  20.958   0.223
47049W        W19474   0.426  13.695  11.656
47050W        W19475  19.710  41.672   0.432
47051W        W19476   4.967  18.288  14.869
47052W        W19477  28.468   3.445   0.937
47053W        W19478  34.892  29.519  11.971
47054W        W19479  18.647  10.377  11.161
47055W        W19480  33.210  17.059   4.179
47056W        W19481   0.733  10.398  12.965
47057W        W19482  24.731   2.487  11.376
47058W        W19483  15.250  18.066   3.811
47059W        W19484  43.052  20.313   4.951
47060W        W19485   6.837  15.129   1.158
47061W        W19486  23.004  28.011  11.182
47062W        W19487  36.338  36.461  13.916
47063W        W19488  16.682   7.381   4.667
47064W        W19489  10.806  27.430  13.973
47065W        W19490  32.644  27.873   3.644
47066W        W19491  41.041   9.060  11.607
47067W        W19492  10.901  39.310  11.046
47068W        W19493  28.208  32.386   1.205
47069W        W19494  31.510  35.321   4.396
47070W        W19495  39.575  12.840  13.089
47071W        W19496   2.261   4.488   4.589
47072W        W19497  18.513  18.128   9.981
47073W        W19498  17.394  17.068  10.808
47074W        W19499   9.510  34.660   3.528
47075W        W19500  14.917   4.141   1.813
47076W        W19501  16.817   1.773   4.132
47077W        W19502   7.790  19.157   3.788
47078W        W19503  41.101  10.371  11.870
47079W        W19504  13.818  25.132   3.937
47080W        W19505  28.834  35.216   0.710
47081W        W19506  29.203  15.685   3.614
47082W        W19507   2.481  36.332   4.800
47083W        W19508   0.235  42.391   0.328
47084W        W19509  40.475  22.230  10.619
47085W        W19510  12.722  10.783   1.390
47086W        W19511   4.129  11.236   0.305
47087W        W19512  27.007  10.647  12.516
47088W        W19513   2.879  33.601  13.941
47089W        W19514   2.736   8.704  14.140
47090W        W19515  17.629   3.006  14.832
47091W        W19516  33.871  40.473  12.081
47092W        W19517  14.113  21.013  13.575
47093W        W19518  33.543  41.192   0.848
47094W        W19519  17.587   3.521  11.721
47095W        W19520  20.225  10.167  13.582
47096W        W19521   3.235   5.824   0.993
47097W        W19522  15.063  24.618   1.336
47098W        W19523  23.979  27.512  11.965
47099W        W19524  27.030  22.554  12.886
47100W        W19525  12.376  33.358  11.678
47101W        W19526  15.645   4.349   3.254
47102W        W19527   4.211  24.674  14.254
47103W        W19528  43.786  36.331  10.987
47104W        W19529  28.973  20.094   4.530
47105W        W19530  14.823  35.024   1.237
47106W        W19531   2.385  15.028  11.686
47107W        W19532  38.566  34.265  13.818
47108W        W19533  33.421  42.376   1.459
47109W        W19534   8.721   9.695  14.757
47110W        W19535  17.885  32.546  13.988
47111W        W19536  20.065   6.495   4.672
47112W        W19537   4.866  27.139  10.652
47113W        W19538  31.486  24.146  11.779
47114W        W19539  20.180  25.197  10.381
47115W        W19540  39.542   8.968   1.739
47116W        W19541  37.359  36.491  13.510
47117W        W19542  13.544  17.661  10.583
47118W        W19543  18.624  41.045  13.313
47119W        W19544  27.146  38.061  12.103
47120W        W19545  34.750  19.782   4.062
47121W        W19546  43.458  34.978   4.879
47122W        W19547  18.105   8.705   1.002
47123W        W19548  24.112  37.268  11.552
47124W        W19549  44.508   0.520  14.244
47125W        W19550  32.899  21.232  13.470
47126W        W19551  29.603  11.552  11.163
47127W        W19552  14.200   0.386   4.531
47128W        W19553  31.369  42.394   4.163
47129W        W19554  26.818  25.778  12.892
47130W        W19555  31.014  31.206   4.571
47131W        W19556   6.069   1.014   0.826
47132W        W19557  44.807  10.871   0.712
47133W        W19558  43.711  23.599   1.402
47134W        W19559  18.656  20.703  14.395
47135W        W19560  22.532  12.967  12.021
47136W        W19561  10.193  40.904  10.981
47137W        W19562   9.191  38.892   3.150
47138W        W19563  33.555  35.537   4.700
47139W        W19564  18.844   1.613  14.676
47140W        W19565  17.023  37.812   2.313
47141W        W19566  28.574   1.774   3.772
47142W        W19567   3.463   0.008  13.018
47143W        W19568  10.412  43.313   1.761
47144W        W19569  25.673  44.851   4.708
47145W        W19570   6.401  43.931  14.453
47146W        W19571  44.479  18.378   4.160
47147W        W19572  34.476  37.373  10.349
47148W        W19573   2.317  34.196  12.587
47149W        W19574   1.991  21.617  14.406
47150W        W19575   6.702  20.753  14.479
47151W        W19576  10.154  36.832   0.714
47152W        W19577  12.129  41.174  13.999
47153W        W19578  18.072   5.052  12.443
47154W        W19579  31.182  33.430   0.664
47155W        W19580  36.725  13.789   1.308
47156W        W19581  17.190   9.954  12.086
47157W        W19582   8.200  36.596  10.300
47158W        W19583  41.300   0.444   0.913
47159W        W19584  40.376  43.951  14.705
47160W        W19585  22.449   7.237   0.763
47161W        W19586  43.014  20.521  14.884
47162W        W19587  10.355  31.608   0.973
47163W        W19588  40.288   4.961  12.090
47164W        W19589   7.455  23.624   0.802
47165W        W19590  26.765  16.673   3.730
47166W        W19591  14.734  28.332  14.119
47167W        W19592   3.486   6.288   2.874
47168W        W19593  40.298  18.496  13.735
47169W        W19594  32.081  13.264  10.449
47170W        W19595  18.699  16.174   3.671
47171W        W19596  37.639   2.273  13.941
47172W        W19597   9.632  20.090   1.834
47173W        W19598   0.918  17.148   4.370
47174W        W19599   8.702  34.246   0.755
47175W        W19600  16.434  25.727   1.722
47176W        W19601  32.540  15.148  13.734
47177W        W19602  26.605   1.794  13.442
47178W        W19603  10.768  33.560   3.707
47179W        W19604  40.376  39.468  11.435
47180W        W19605   8.000  29.187  10.828
47181W        W19606  14.847  36.651  11.115
47182W        W19607  39.973   5.667  11.127
47183W        W19608  18.128   6.277  14.450
47184W        W19609   9.575  11.904   0.268
47185W        W19610  36.047  19.759  11.907
47186W        W19611  22.548  25.494  14.386
47187W        W19612  29.531  12.370  11.987
47188W        W19613  17.071  19.995   1.393
47189W        W19614  28.589  14.233  10.715
47190W        W19615   9.295  36.403  12.012
47191W        W19616  32.148  12.556   2.440
47192W        W19617  21.783  23.091   3.720
47193W        W19618   7.299  29.881  11.017
47194W        W19619  30.880  19.731  10.586
47195W        W19620  26.777  40.959   4.509
47196W        W19621  26.145   6.376  11.537
47197W        W19622  15.199   8.114   1.797
47198W        W19623  30.447   4.888  14.049
47199W        W19624   2.259  38.397   0.822
47200W        W19625  18.512  42.939  14.796
47201W        W19626  17.772  11.728   1.752
47202W        W19627  38.823  44.164  14.211
47203W        W19628  11.291  31.745   3.814
47204W        W19629  38.365  26.228   3.831
47205W        W19630   9.158  19.572   3.882
47206W        W19631  18.706  21.648   4.239
47207W        W19632  12.276  34.811  10.765
47208W        W19633  29.952  36.619  14.861
47209W        W19634   4.881  25.327  11.374
47210W        W19635  14.573  18.768   3.919
47211W        W19636   7.750  29.284   3.408
47212W        W19637   2.175  30.387  14.973
47213W        W19638  23.822  22.996   0.687
47214W        W19639  11.596  38.682  10.030
47215W        W19640  26.049  31.554  14.329
47216W        W19641  20.893   1.419  11.124
47217W        W19642  35.155  29.160  11.657
47218W        W19643  32.741  16.398  14.293
47219W        W19644   0.591  35.792   1.441
47220W        W19645  27.300   2.855   2.375
47221W        W19646  22.836  41.094  14.901
47222W        W19647  17.074  11.701  13.423
47223W        W19648  13.832  31.369  10.847
47224W        W19649  15.446  43.496  11.596
47225W        W19650  15.203  28.346   2.318
47226W        W19651  19.867  15.005  13.429
47227W        W19652  28.700  41.752   1.120
47228W        W19653  39.360   8.451  14.077
47229W        W19654  18.269   1.265   3.817
47230W        W19655  15.603  39.537   4.177
47231W        W19656  22.645   0.951   4.181
47232W        W19657  37.412  21.823  11.104
47233W        W19658  26.238  23.204   1.383
47234W        W19659   3.905  44.443  13.594
47235W        W19660  19.002   7.455   2.438
47236W        W19661   9.860  17.637   4.281
47237W        W19662  37.441  16.283   1.757
47238W        W19663  21.406  37.511   0.514
47239W        W19664   9.186  42.858  11.582
47240W        W19665  31.060  31.416   2.009
47241W        W19666   0.238   4.316   0.929
47242W        W19667   6.580  31.537   4.279
47243W        W19668   2.620   5.007   3.754
47244W        W19669  39.798   7.836   0.247
47245W        W19670  27.681  36.482  14.999
47246W        W19671  15.516  34.919   1.755
47247W        W19672   6.464  29.687   1.251
47248W        W19673  20.552  19.639  13.121
47249W        W19674  24.755  18.495   4.276
47250W        W19675   9.668  41.255  13.902
47251W        W19676  24.983   2.183   2.007
47252W        W19677  20.533  40.358  10.781
47253W        W19678  29.184  13.215  12.491
47254W        W19679  28.269  41.501  12.568
47255W        W19680  20.397  17.374  10.887
47256W        W19681  19.629  36.524   4.555
47257W        W19682   9.875   3.051   1.221
47258W        W19683  38.081  38.426  12.054
47259W        W19684  11.680  15.905   2.548
47260W        W19685  17.099  30.112   9.559
47261W        W19686  22.664  19.818   3.274
47262W        W19687  25.871  41.752  12.578
47263W        W19688   7.258  22.593  10.747
47264W        W19689  18.332  24.598  13.112
47265W        W19690  35.881  20.775   3.238
47266W        W19691  38.914  33.827   3.766
47267W        W19692   1.195  39.374  10.289
47268W        W19693  27.425   4.799  10.988
47269W        W19694  29.256  42.318   3.516
47270W        W19695  40.249  42.445   1.913
47271W        W19696  19.347  13.618   3.475
47272W        W19697   3.038  15.059  11.256
47273W        W19698  10.754  34.980  14.321
47274W        W19699  44.200  32.566   3.125
47275W        W19700   4.684   0.431  14.198
47276W        W19701   6.146  35.509   0.263
47277W        W19702   6.276  15.564   1.652
47278W        W19703  32.089  29.433  10.588
47279W        W19704   3.488   5.420   3.821
47280W        W19705  16.780  14.663  14.387
47281W        W19706  25.182   7.687   1.911
47282W        W19707  22.056  26.219   2.374
47283W        W19708   3.456  31.498   3.900
47284W        W19709  26.530   6.295   4.578
47285W        W19710  24.851   1.865  12.514
47286W        W19711  28.445  32.543  12.039
47287W        W19712  15.086  21.750   1.873
47288W        W19713  20.719  12.817   3.791
47289W        W19714  21.083  37.097  11.470
47290W        W19715  35.142  24.547  11.860
47291W        W19716   3.925  41.015   2.328
47292W        W19717  33.584  22.580   0.748
47293W        W19718   5.419  44.305   0.921
47294W        W19719  42.163  25.154   4.260
47295W        W19720  29.673  44.766   2.208
47296W        W19721   6.711   9.844   2.781
47297W        W19722   1.957  11.139   3.314
47298W        W19723  28.084  21.596  13.516
47299W        W19724  36.908  21.200   3.137
47300W        W19725  19.942  15.283  13.005
47301W        W19726  28.139  18.324   4.689
47302W        W19727  30.009  16.992   1.296
47303W        W19728  18.620  41.959   3.243
47304W        W19729  27.799  36.007   3.722
47305W        W19730  32.048  14.359   1.295
47306W        W19731  17.555   1.336  12.437
47307W        W19732  15.400  17.246   1.193
47308W        W19733   3.395  38.462   4.778
47309W        W19734  22.281   3.852  10.644
47310W        W19735  35.468  23.598  14.452
47311W        W19736  13.401   9.846   3.724
47312W        W19737  31.522   0.979   2.818
47313W        W19738  19.790  42.321   2.727
47314W        W19739   0.454  43.425  12.492
47315W        W19740  16.655  26.161   0.775
47316W        W19741  14.446   2.865   1.926
47317W        W19742  25.397  38.006   1.900
47318W        W19743  12.234  28.476   3.436
47319W        W19744  21.703  21.755  12.693
47320W        W19745  36.389   6.307   0.800
47321W        W19746   2.208   7.210   3.275
47322W        W19747  42.419  32.898  12.385
47323W        W19748  32.616  18.468  13.806
47324W        W19749  40.314  21.305   4.642
47325W        W19750  33.436  44.347  12.312
47326W        W19751  28.023   3.983  11.602
47327W        W19752  40.702  37.709   1.900
47328W        W19753  19.326  15.680  13.540
47329W        W19754  38.804  36.472   1.845
47330W        W19755  26.725  32.699  12.757
47331W        W19756  18.041  23.012  10.369
47332W        W19757  41.770  35.693   0.443
47333W        W19758  10.843  29.663   3.838
47334W        W19759  29.593   5.617  14.796
47335W        W19760  34.110   1.583   0.366
47336W        W19761   8.130  21.103  10.665
47337W        W19762  40.450   3.944   2.434
47338W        W19763  42.519  12.781   3.633
47339W        W19764  37.819  40.965   1.903
47340W        W19765  18.641   4.565  13.955
47341W        W19766   7.942  18.307   2.754
47342W        W19767   4.730  39.337  13.530
47343W        W19768  38.936  17.840   4.312
47344W        W19769  43.441  36.098   3.576
47345W        W19770  11.666  36.754  10.812
47346W        W19771  37.953  28.626   3.331
47347W        W19772  43.671  28.741   4.892
47348W        W19773  22.297  39.503  13.796
47349W        W19774  29.181  37.879  13.417
47350W        W19775   0.028  19.088  13.036
47351W        W19776  40.464   2.499   1.124
47352W        W19777  43.539  40.444  11.353
47353W        W19778  26.405  40.976   1.712
47354W        W19779   6.821  28.118   2.777
47355W        W19780  18.587  43.382  13.558
47356W        W19781  16.125  30.001   3.532
47357W        W19782  44.752  23.733  10.715
47358W        W19783   5.639  13.329   1.422
47359W        W19784  27.507  10.932  13.761
47360W        W19785  20.890  34.997  13.617
47361W        W19786   1.247  27.508   1.300
47362W        W19787   8.875  15.708  13.592
47363W        W19788  32.685  13.064   1.351
47364W        W19789  18.170  36.878  12.623
47365W        W19790   5.888   8.399  14.349
47366W        W19791  42.092   8.971   4.588
47367W        W19792  43.069  30.558  12.070
47368W        W19793  29.284  31.832   4.373
47369W        W19794  41.456   2.817  10.705
47370W        W19795  33.604  22.019  14.924
47371W        W19796  11.704  36.095  11.506
47372W        W19797  26.015  14.188   1.489
47373W        W19798  12.342  18.624   2.336
47374W        W19799   2.019  33.926   1.286
47375W        W19800  30.715  39.287  13.094
47376W        W19801  31.790  21.984   0.408
47377W        W19802   7.402  23.729  14.436
47378W        W19803  13.258  33.438  12.942
47379W        W19804  20.704  41.085  14.829
47380W        W19805  35.548  35.101   2.239
47381W        W19806  24.755  37.454   2.228
47382W        W19807   5.353  12.553  14.201
47383W        W19808  24.809  38.842   3.247
47384W        W19809   9.718  37.161   1.405
47385W        W19810  29.119   9.761  10.698
47386W        W19811  20.738   0.185   4.024
47387W        W19812  22.161  18.667  12.719
47388W        W19813  22.991  36.617  11.044
47389W        W19814  14.917  15.070   3.250
47390W        W19815  41.346  40.051  14.797
47391W        W19816  26.981  43.115  14.489
47392W        W19817  14.348  30.681   3.326
47393W        W19818  10.374  19.505   2.844
47394W        W19819  19.905  28.453   3.817
47395W        W19820  40.949  34.064   1.438
47396W        W19821   9.399   9.175  12.479
47397W        W19822  33.593  40.248  10.784
47398W        W19823  27.621  28.499  12.336
47399W        W19824  31.086  32.633  14.564
47400W        W19825  25.543  15.115   0.828
47401W        W19826   0.470   6.688  12.505
47402W        W19827  37.563  17.890  11.245
47403W        W19828   8.530   2.238   2.402
47404W        W19829   1.272  12.417  13.389
47405W        W19830   8.682   4.716  11.553
47406W        W19831   6.736  35.468   1.150
47407W        W19832  40.747  10.245   1.301
47408W        W19833  29.625   2.433   3.728
47409W        W19834  37.562  31.805   3.320
47410W        W19835  36.760  27.521  14.248
47411W        W19836  27.933   6.216   0.977
47412W        W19837   9.394  14.860   2.860
47413W        W19838  39.380  15.629   0.171
47414W        W19839  17.104  32.353   1.935
47415W        W19840  19.536   9.706   0.123
47416W        W19841  15.684  44.741  12.979
47417W        W19842  11.057  21.018  14.460
47418W        W19843  39.809  43.705  11.014
47419W        W19844  32.726  19.119   1.215
47420W        W19845  33.032  37.921  11.789
47421W        W19846  21.622  43.516   0.534
47422W        W19847  23.652  25.754   2.692
47423W        W19848  22.283  42.250   4.079
47424W        W19849  19.535   8.444   1.250
47425W        W19850   0.952  37.963   2.354
47426W        W19851  18.874  43.280  13.989
47427W        W19852  14.477  29.439  13.870
47428W        W19853  15.629  28.494   3.312
47429W        W19854  38.774  20.245   4.094
47430W        W19855   3.359  41.136  12.028
47431W        W19856  32.031  39.324  11.514
47432W        W19857  18.201  30.661  10.548
47433W        W19858  19.513  14.535  12.585
47434W        W19859  16.221  11.156   0.446
47435W        W19860  30.288  35.035   2.646
47436W        W19861  30.529  32.893   4.733
47437W        W19862  31.098  18.500  14.345
47438W        W19863   6.880   6.101   0.975
47439W        W19864  24.770  22.269  11.469
47440W        W19865   2.335  13.564  12.667
47441W        W19866  23.762   2.179  14.462
47442W        W19867  35.372  44.898  10.574
47443W        W19868  41.476   6.533  11.666
47444W        W19869  20.565  29.477   3.720
47445W        W19870  21.271  23.154   4.702
47446W        W19871  42.566  29.589   1.198
47447W        W19872  38.006  35.866   0.511
47448W        W19873  20.662  13.233  11.057
47449W        W19874  15.546   2.045   3.775
47450W        W19875   4.124   9.163   0.756
47451W        W19876  31.927  37.349   1.763
47452W        W19877  34.930  14.226  11.058
47453W        W19878  23.587  29.129  13.939
47454W        W19879  28.889  41.963  12.505
47455W        W19880   7.116   0.196   0.653
47456W        W19881  33.995  36.076   1.825
47457W        W19882  30.029   1.235  12.333
47458W        W19883  23.742  23.665  10.708
47459W        W19884  18.804  34.945  14.521
47460W        W19885  38.903   3.944   1.021
47461W        W19886  23.255  13.517  13.046
47462W        W19887   3.865  31.498   2.191
47463W        W19888   2.902  13.232   0.248
47464W        W19889  14.233  37.270  11.293
47465W        W19890   6.257   5.101  10.721
47466W        W19891  17.136  29.998   3.637
47467W        W19892  21.303   9.233   0.490
47468W        W19893   6.771  11.671  12.879
47469W        W19894  39.823   4.375  11.646
47470W        W19895   6.613  24.543   0.116
47471W        W19896  13.490  25.772  14.339
47472W        W19897   2.492   2.419  11.066
47473W        W19898  33.459  44.897  14.553
47474W        W19899   8.703  38.025   5.560
47475W        W19900  44.362  35.570   1.531
47476W        W19901  18.068  41.954   4.054
47477W        W19902  29.993  42.973   3.294
47478W        W19903   6.810  22.716   1.735
47479W        W19904  42.655  23.356  11.311
47480W        W19905  21.673  37.509   2.328
47481W        W19906  14.051  43.868   2.326
47482W        W19907  15.075   9.538   2.808
47483W        W19908   4.821  17.268  11.859
47484W        W19909  14.399  19.203  14.336
47485W        W19910   6.686  33.099  11.876
47486W        W19911  38.273  38.825  14.868
47487W        W19912  25.935   8.583   0.744
47488W        W19913  17.272  13.165   4.044
47489W        W19914   8.914   5.293   2.686
47490W        W19915   7.525  12.152   0.763
47491W        W19916  40.265  16.111   1.418
47492W        W19917  28.951  32.648  13.411
47493W        W19918  26.075  19.691   1.673
47494W        W19919  22.489  35.898  12.934
47495W        W19920  26.270  18.421  12.367
47496W        W19921  12.318   0.769   2.939
47497W        W19922  42.081   1.430  12.548
47498W        W19923  29.094   7.448  10.432
47499W        W19924   0.651   3.222   2.343
47500W        W19925   1.891  37.643  12.679
47501W        W19926   0.899  34.937   4.862
47502W        W19927  26.977   6.946  10.859
47503W        W19928  39.856  22.710  10.705
47504W        W19929  12.883  19.357   2.185
47505W        W19930  16.913  15.022  12.000
47506W        W19931   9.817  27.362   2.120
47507W        W19932  22.256  27.993  12.914
47508W        W19933  18.136   1.271  10.204
47509W        W19934  14.001  27.140   1.359
47510W        W19935  31.652   7.309   3.245
47511W        W19936  38.088   5.140  12.529
47512W        W19937  15.658  30.872  14.275
47513W        W19938   9.224  28.051   0.008
47514W        W19939  40.798   9.356  12.013
47515W        W19940  27.451  13.609  11.521
47516W        W19941  21.010  31.883   0.379
47517W        W19942  16.291   3.263   0.013
47518W        W19943  44.373  23.925   3.626
47519W        W19944  18.763  10.264   0.499
47520W        W19945  32.138  29.669  12.123
47521W        W19946   7.755   3.889  11.515
47522W        W19947  14.230   1.488   4.242
47523W        W19948  38.002  36.623  14.352
47524W        W19949  27.535  34.908   4.915
47525W        W19950  35.532  29.149  12.008
47526W        W19951   5.192   0.841   2.763
47527W        W19952  23.960  11.353  14.081
47528W        W19953  35.900  16.089   4.614
47529W        W19954  35.907  42.129   4.133
47530W        W19955  43.812  36.596   2.952
47531W        W19956  30.663  14.452   0.429
47532W        W19957  27.204  15.902   1.859
47533W        W19958  16.122  24.952   4.057
47534W        W19959   5.196  35.980   0.959
47535W        W19960  34.119  17.963   4.187
47536W        W19961  42.738  41.972   3.890
47537W        W19962  29.574  18.871   1.942
47538W        W19963   4.177  44.443   3.678
47539W        W19964   5.631  19.015   3.148
47540W        W19965   6.233   8.732   2.726
47541W        W19966  29.725  39.382   1.034
47542W        W19967  25.133  21.020   2.844
47543W        W19968  13.692  40.960  12.520
47544W        W19969  28.213  41.462  10.433
47545W        W19970  33.949  42.651   1.219
47546W        W19971  41.257  43.343  14.549
47547W        W19972  18.359   6.012   1.536
47548W        W19973   2.481  11.167  14.490
47549W        W19974  40.250  34.398  10.439
47550W        W19975  13.687   6.404  13.683
47551W        W19976  10.125   5.310  12.423
47552W        W19977  14.785  36.451   0.966
47553W        W19978   1.341  35.299   3.663
47554W        W19979  25.392   9.342  13.866
47555W        W19980  40.821   8.800  12.027
47556W        W19981  30.476  37.633  14.934
47557W        W19982  15.679   5.634  10.653
47558W        W19983  19.008  26.150   1.891
47559W        W19984  36.036  40.480  11.823
47560W        W19985  41.836   0.587   4.594
47561W        W19986  10.167   0.531   1.426
47562W        W19987  22.279  38.330  11.969
47563W        W19988   3.793  44.023   2.685
47564W        W19989  17.553  27.898  14.891
47565W        W19990   1.451   6.137  10.699
47566W        W19991  13.626   4.853   4.611
47567W        W19992  10.392   2.955   0.362
47568W        W19993  22.550   1.771   0.838
47569W        W19994  22.020  28.513  12.556
47570W        W19995  32.252  31.026  13.973
47571W        W19996  22.945  39.491  12.484
47572W        W19997  19.224  32.358  14.412
47573W        W19998   8.720  10.295  12.833
47574W        W19999  20.348  18.267   0.729
47575W        W20000   5.260  41.755  10.693
47576W        W20001  10.934  44.411   2.706
47577W        W20002  20.220  32.542  14.481
47578W        W20003  10.342   6.926  13.766
47579W        W20004   3.346  36.576  12.487
47580W        W20005  44.347  40.137  10.183
47581W        W20006  15.272  17.149  13.849
47582W        W20007  23.523  36.058   1.406
47583W        W20008   5.185  15.550   3.608
47584W        W20009  11.141  13.955   4.420
47585W        W20010  11.082  35.567  12.107
47586W        W20011   5.842  25.512  13.576
47587W        W20012  23.443   3.229   3.095
47588W        W20013  33.812   3.086   3.169
47589W        W20014  18.619   5.780  12.447
47590W        W20015   0.654   3.779   3.406
47591W        W20016  19.519  38.990  11.473
47592W        W20017   0.966  40.438  12.479
47593W        W20018  20.530  44.678  12.646
47594W        W20019   4.524  16.553  14.822
47595W        W20020  36.000   9.918  10.872
47596W        W20021   1.224  32.413   0.491
47597W        W20022  23.846   9.415   4.193
47598W        W20023  19.463  34.072  12.807
47599W        W20024  40.807  25.260  11.123
47600W        W20025   1.692  24.177   3.135
47601W        W20026  34.483  23.202   3.346
47602W        W20027  24.009  42.602   0.802
47603W        W20028  26.464   6.308   2.747
47604W        W20029  40.234  29.306  12.821
47605W        W20030  12.189   5.925   0.780
47606W        W20031  28.266   7.452  11.518
47607W        W20032  16.591   3.624   3.719
47608W        W20033  23.664  42.013  10.526
47609W        W20034  17.953  37.486   0.771
47610W        W20035  26.670  20.859   4.573
47611W        W20036   5.903   3.317   1.319
47612W        W20037  28.602  33.838   3.827
47613W        W20038   5.558   5.763  14.491
47614W        W20039  10.259  31.383   2.775
47615W        W20040  26.884  12.312  12.156
47616W        W20041  17.905   6.198   1.376
47617W        W20042  42.926   7.230  13.819
47618W        W20043  15.183  12.593  10.627
47619W        W20044   2.351  40.659   0.790
47620W        W20045  35.634   4.307  12.380
47621W        W20046   0.057   0.749   3.386
47622W        W20047  16.075  12.011  14.422
47623W        W20048   8.754  25.282  12.470
47624W        W20049  15.318  20.469  13.547
47625W        W20050  34.269  13.341   0.515
47626W        W20051  43.411  38.044   4.917
47627W        W20052  12.393  14.145  11.552
47628W        W20053   2.217  37.985   0.475
47629W        W20054  26.161  16.067   2.155
47630W        W20055  28.486  41.877   1.595
47631W        W20056   0.110  20.189   3.890
47632W        W20057  31.109  28.018   4.145
47633W        W20058  16.081  24.109  14.828
47634W        W20059  24.492  36.417  12.016
47635W        W20060  44.281   4.673   4.769
47636W        W20061   8.226   8.112  12.860
47637W        W20062  20.195  25.534  14.568
47638W        W20063  41.802  11.868  11.142
47639W        W20064  36.853  24.834   1.896
47640W        W20065   1.565  36.619   3.271
47641W        W20066  26.231  38.016  14.814
47642W        W20067  22.731   6.099  10.726
47643W        W20068  11.312  15.808   0.936
47644W        W20069  43.706  16.899   0.193
47645W        W20070  27.819   7.963  11.955
47646W        W20071   2.457  42.560  14.361
47647W        W20072  28.009  35.340  10.926
47648W        W20073  35.382   7.694  12.061
47649W        W20074  13.685  13.365  11.634
47650W        W20075  42.075  17.125  11.103
47651W        W20076  32.163   0.962  11.904
47652W        W20077  22.570   8.398   2.346
47653W        W20078  33.518  44.196   4.593
47654W        W20079   5.149  43.427   3.746
47655W        W20080  26.929  14.713   2.494
47656W        W20081   8.390  38.810  14.413
47657W        W20082   0.420  17.169  10.693
47658W        W20083  33.466  42.249  14.435
47659W        W20084  41.839  19.177   1.260
47660W        W20085  37.918  22.591   3.550
47661W        W20086  41.547  13.116   2.981
47662W        W20087  42.242  15.852   0.475
47663W        W20088  31.525  13.657  11.476
47664W        W20089  34.435  36.101  14.051
47665W        W20090  20.969   9.232   2.796
47666W        W20091   2.984  24.313   4.012
47667W        W20092  36.816  22.624   4.702
47668W        W20093  38.581  30.546   2.511
47669W        W20094   2.973   1.373  11.123
47670W        W20095  39.009  40.374   3.829
47671W        W20096  25.766  14.122   3.254
47672W        W20097  37.128  18.748  13.879
47673W        W20098  22.063  40.818  13.147
47674W        W20099   3.051  23.065  13.757
47675W        W20100  26.090  24.785  13.901
47676W        W20101  42.016  19.754   2.212
47677W        W20102  14.272  29.988   1.289
47678W        W20103  17.149  33.902  14.886
47679W        W20104  32.966   6.896   2.270
47680W        W20105  33.531  14.345  10.793
47681W        W20106  43.349  14.404  10.678
47682W        W20107  43.997  44.824   2.863
47683W        W20108  23.059  25.832  13.773
47684W        W20109  42.495  44.504  13.925
47685W        W20110   4.470  39.705   3.534
47686W        W20111  28.480  18.589  10.491
47687W        W20112  42.974  34.757   4.939
47688W        W20113  18.501  37.410  11.000
47689W        W20114  27.010  29.853  13.089
47690W        W20115   3.498  10.725  13.972
47691W        W20116  31.164   4.328   0.416
47692W        W20117  24.740   7.386  14.332
47693W        W20118   0.254  37.567  13.746
47694W        W20119  16.507   9.755  12.599
47695W        W20120  28.073  12.056   4.594
47696W        W20121   9.330  17.731  11.993
47697W        W20122   5.909  17.792  14.639
47698W        W20123   6.468   7.738  14.401
47699W        W20124  32.136  12.975   4.719
47700W        W20125   5.167   4.126  11.978
47701W        W20126  31.494  17.700   0.715
47702W        W20127  11.207  24.684   3.613
47703W        W20128   1.378  10.200   1.462
47704W        W20129  12.781  12.164  14.648
47705W        W20130  36.496  31.848   1.133
47706W        W20131  18.055  25.557   0.225
47707W        W20132  31.568  41.067  11.479
47708W        W20133  44.716   7.699  12.291
47709W        W20134  14.604  38.945   3.767
47710W        W20135  17.688   4.188  14.014
47711W        W20136   0.419  13.382  13.571
47712W        W20137  37.086  18.039  12.556
47713W        W20138  34.908  22.702  10.707
47714W        W20139  14.576  14.823  12.472
47715W        W20140   2.829  14.449   4.980
47716W        W20141  33.214  38.530   2.647
47717W        W20142  43.232   5.720   1.861
47718W        W20143  37.588  18.851  12.445
47719W        W20144  28.663  39.848   0.754
47720W        W20145  30.040  11.737   3.307
47721W        W20146  38.500   7.410  11.039
47722W        W20147   8.962  20.138  10.388
47723W        W20148  31.784  16.602   1.672
47724W        W20149  41.422  28.446  11.463
47725W        W20150  20.223  22.594   3.969
47726W        W20151  35.254   9.339  10.717
47727W        W20152   8.740  16.092   5.117
47728W        W20153  32.086  32.944   1.301
47729W        W20154   4.340  20.725  12.543
47730W        W20155   3.239   9.771   2.789
47731W        W20156  33.903  23.001  14.304
47732W        W20157  28.027  40.509  12.886
47733W        W20158  14.771  24.109  13.417
47734W        W20159  35.472  36.800  13.396
47735W        W20160   9.409  15.668  14.297
47736W        W20161  37.627   4.527   1.305
47737W        W20162  10.359   6.985   4.274
47738W        W20163   9.892  30.393  12.431
47739W        W20164   0.867  10.772   1.895
47740W        W20165  21.163  29.001   4.175
47741W        W20166  12.659  13.872  14.017
47742W        W20167  15.509  31.633  12.914
47743W        W20168  15.081  31.604   3.653
47744W        W20169  15.834  25.622  14.928
47745W        W20170  25.826  17.974   3.741
47746W        W20171  19.799  12.856  13.260
47747W        W20172   2.845  24.874   3.205
47748W        W20173   2.297  35.114   4.299
47749W        W20174   6.380   8.934   0.172
47750W        W20175  18.070   4.662  11.024
47751W        W20176  39.088  29.591   1.296
47752W        W20177   4.933  32.367   3.314
47753W        W20178  17.836  16.273   1.917
47754W        W20179  29.432  13.689  14.882
47755W        W20180  14.686  40.288  12.100
47756W        W20181  19.487  29.106  13.868
47757W        W20182   9.397  19.996   3.673
47758W        W20183  15.892  16.270   3.099
47759W        W20184  29.662  20.741   2.447
47760W        W20185  38.298  13.857  14.496
47761W        W20186  39.644  40.836  11.023
47762W        W20187  44.990  24.670   2.745
47763W        W20188  37.430  32.498   3.915
47764W        W20189   8.906  22.037  11.169
47765W        W20190   8.372  38.482   2.185
47766W        W20191   5.767  10.867   1.853
47767W        W20192  22.165  27.621   3.758
47768W        W20193   2.285  32.449  10.744
47769W        W20194  31.338  21.567   1.256
47770W        W20195   1.481  43.132  14.443
47771W        W20196  10.493  23.154   4.596
47772W        W20197  18.248  42.250   2.842
47773W        W20198  37.648  33.316  13.638
47774W        W20199   1.803   6.124  12.519
47775W        W20200  43.515  21.499  10.558
47776W        W20201  22.216  44.005   2.415
47777W        W20202  42.579  39.970   3.110
47778W        W20203  38.302  20.827  14.755
47779W        W20204   8.922  44.784  11.716
47780W        W20205  38.043  17.050  13.994
47781W        W20206  10.674  15.756  11.977
47782W        W20207  42.321  20.992   3.769
47783W        W20208  19.977  35.822   4.151
47784W        W20209  39.006  26.577   0.689
47785W        W20210  11.256   4.509   3.223
47786W        W20211  26.301  27.502   2.824
47787W        W20212   9.289   4.016  11.519
47788W        W20213  16.875   8.194  13.639
47789W        W20214  37.827  35.499   3.898
47790W        W20215  15.257  29.850   2.654
47791W        W20216   5.372  42.511   2.795
47792W        W20217   9.787  13.789  13.003
47793W        W20218  25.727  19.248  14.496
47794W        W20219  31.103   4.168   4.744
47795W        W20220  32.110  23.143   1.740
47796W        W20221   0.073  18.663  12.051
47797W        W20222  19.947  21.070   4.183
47798W        W20223   0.990  32.792   0.203
47799W        W20224  33.461  33.630  12.077
47800W        W20225  41.240   9.177  12.656
47801W        W20226  11.210  40.226   4.687
47802W        W20227  22.043  19.599  11.436
47803W        W20228  15.907  24.611  13.739
47804W        W20229  28.573  35.107  11.208
47805W        W20230  15.936  28.083  11.265
47806W        W20231  40.946   9.797  14.348
47807W        W20232  23.726  33.401   4.867
47808W        W20233   5.296  13.787   0.691
47809W        W20234  44.808  40.456  11.497
47810W        W20235  18.740   3.871  14.450
47811W        W20236  37.108  28.940   2.342
47812W        W20237  26.806  19.191  12.959
47813W        W20238  35.908  11.144  14.294
47814W        W20239  30.619  42.221  12.268
47815W        W20240  42.810  20.902   2.220
47816W        W20241  29.958  12.192   4.072
47817W        W20242   5.692  21.353   4.806
47818W        W20243  44.964  41.622   5.021
47819W        W20244   1.001  26.229   2.410
47820W        W20245   9.332  13.872  12.774
47821W        W20246  16.755  40.759   1.286
47822W        W20247   8.620   8.211  10.658
47823W        W20248  33.575   5.856  14.689
47824W        W20249   7.716  29.522   0.149
47825W        W20250  40.991  25.722   2.357
47826W        W20251  38.820  14.466   4.454
47827W        W20252  24.459  14.613   3.656
47828W        W20253  18.622  44.542   4.726
47829W        W20254   4.128  25.107  14.552
47830W        W20255  13.786  20.848  12.188
47831W        W20256  44.036  18.146   4.078
47832W        W20257  19.662   7.831  10.673
47833W        W20258  21.234  40.084  12.065
47834W        W20259   1.230  41.382   3.934
47835W        W20260  28.511  15.209   4.050
47836W        W20261  22.192  23.714  11.600
47837W        W20262   4.377  12.188   3.585
47838W        W20263   7.410  37.841  13.971
47839W        W20264   5.762  38.379   0.926
47840W        W20265   1.911  38.771  10.905
47841W        W20266  32.376  41.873  13.534
47842W        W20267  44.574  27.120  10.968
47843W        W20268  21.956  35.302  12.479
47844W        W20269  38.853  16.997   4.359
47845W        W20270  28.176   4.406   2.891
47846W        W20271   6.580  22.472  11.097
47847W        W20272  37.902  32.470  12.873
47848W        W20273   2.920  17.174   3.767
47849W        W20274  17.594  29.629  13.996
47850W        W20275   4.831   3.460  11.449
47851W        W20276   4.638   2.236   3.633
47852W        W20277  37.293  37.690   3.190
47853W        W20278   1.718   7.671  11.664
47854W        W20279  11.100  38.905   0.400
47855W        W20280  11.713  16.316  12.544
47856W        W20281   1.521  16.733   3.399
47857W        W20282  24.007  14.099   4.718
47858W        W20283   5.244  15.003   2.544
47859W        W20284  42.810  15.192  11.580
47860W        W20285  25.697  12.999  12.411
47861W        W20286  33.432   1.071  12.972
47862W        W20287  23.136  42.431  12.333
47863W        W20288  31.526  35.207   2.391
47864W        W20289  29.529  38.599  12.360
47865W        W20290  33.035  22.220   4.457
47866W        W20291  35.976  21.225   4.081
47867W        W20292  28.633  21.125   1.135
47868W        W20293  22.498   4.860   1.203
47869W        W20294  14.205  13.285  11.645
47870W        W20295   0.242  37.816  11.992
47871W        W20296  23.337   4.148  14.368
47872W        W20297  42.424   4.808  14.481
47873W        W20298  21.485  25.220  10.681
47874W        W20299  20.749   7.004  13.500
47875W        W20300  40.864   4.897  14.467
47876W        W20301  17.778  26.010   4.167
47877W        W20302  36.619  31.378   1.361
47878W        W20303  22.724   3.548   1.285
47879W        W20304  37.002  15.152  12.449
47880W        W20305  37.153  25.491  11.152
47881W        W20306  16.128  15.576   0.857
47882W        W20307  13.298  23.792   4.367
47883W        W20308  22.447  20.504   2.779
47884W        W20309  14.244  14.049   4.948
47885W        W20310  19.974  32.580  10.198
47886W        W20311  21.286  26.973  11.031
47887W        W20312   4.549   3.837   3.231
47888W        W20313  20.242  32.029  14.677
47889W        W20314  12.933   3.887  11.695
47890W        W20315  35.158  27.167   1.100
47891W        W20316  28.994  39.258  12.790
47892W        W20317  40.268   9.869  13.294
47893W        W20318  14.700  41.171   5.083
47894W        W20319  22.785   5.425   3.802
47895W        W20320   8.707   5.299  10.486
47896W        W20321   8.913  37.614   1.388
47897W        W20322  26.478  37.155  14.933
47898W        W20323  23.504  10.528   3.235
47899W        W20324  19.259  20.039   2.205
47900W        W20325   6.344  29.926   0.435
47901W        W20326  24.174  24.476   2.804
47902W        W20327   1.188  31.162  13.434
47903W        W20328   4.836  40.678  13.301
47904W        W20329  39.778  24.992   3.664
47905W        W20330  35.071  23.182   2.131
47906W        W20331  39.392   2.650  13.329
47907W        W20332  33.390  13.645  11.599
47908W        W20333   5.137  24.814  12.159
47909W        W20334  17.528  14.535  14.864
47910W        W20335   4.694  44.487   3.692
47911W        W20336  32.525  12.031  14.844
47912W        W20337   6.907  32.852   3.319
47913W        W20338   7.200  17.662  12.157
47914W        W20339  30.420  10.244  13.604
47915W        W20340  43.833  14.120   1.535
47916W        W20341   6.678  18.587  11.360
47917W        W20342  31.118  17.239   3.713
47918W        W20343   5.120  15.821  11.691
47919W        W20344  33.287  38.080  10.935
47920W        W20345   7.703  21.165  11.490
47921W        W20346   9.294  37.770   5.796
47922W        W20347  37.123  10.679  12.534
47923W        W20348  10.166  17.788   0.455
47924W        W20349  27.994  40.470  10.821
47925W        W20350  19.170  22.154  14.701
47926W        W20351   1.059  35.188  14.395
47927W        W20352  17.575  17.074   2.280
47928W        W20353  31.285  27.960  10.686
47929W        W20354  40.400   0.472  12.463
47930W        W20355   0.980  20.686  12.626
47931W        W20356  27.089  34.766   2.492
47932W        W20357  16.013  21.397  14.119
47933W        W20358  23.082  24.927  13.453
47934W        W20359   2.813  21.811   0.356
47935W        W20360   5.778  13.067  11.940
47936W        W20361  36.034   4.060  14.104
47937W        W20362  19.837  28.650  14.916
47938W        W20363  13.447  18.755  12.258
47939W        W20364  24.722  20.066   2.709
47940W        W20365  23.333  22.921  14.468
47941W        W20366  21.536  12.386  14.041
47942W        W20367  41.979  30.017   1.867
47943W        W20368  27.864   9.222  14.961
47944W        W20369  15.677  16.084  13.330
47945W        W20370  31.003  13.273  12.490
47946W        W20371   5.669   3.147  11.995
47947W        W20372  31.907   2.221   0.276
47948W        W20373  37.997  27.161   2.391
47949W        W20374   6.701  39.794  14.395
47950W        W20375  22.241  16.131  10.863
47951W        W20376  38.476  12.619   4.436
47952W        W20377  27.662   1.121   4.225
47953W        W20378  25.073  11.311  10.689
47954W        W20379  44.407  28.476  14.284
47955W        W20380  19.997  32.415  14.930
47956W        W20381   6.477   2.183  11.163
47957W        W20382  15.594   1.507  14.835
47958W        W20383  37.863  12.360   1.645
47959W        W20384   2.022   8.242   2.295
47960W        W20385   5.916  34.939  12.977
47961W        W20386   2.215  37.072  14.391
47962W        W20387  25.100  31.342   2.371
47963W        W20388  18.436  18.787   1.898
47964W        W20389   7.385  44.475   1.847
47965W        W20390  18.793  25.754  14.807
47966W        W20391  17.636  25.059   3.716
47967W        W20392  15.478  38.440   2.708
47968W        W20393  21.811  20.725  13.347
47969W        W20394  19.062  22.593  14.386
47970W        W20395   3.548  33.259   3.242
47971W        W20396  26.534  23.724   0.522
47972W        W20397  37.142  28.544   1.268
47973W        W20398  38.446  44.198  13.874
47974W        W20399  28.524  15.340   4.980
47975W        W20400  35.432   1.737  11.021
47976W        W20401  41.279   1.988  13.560
47977W        W20402  13.906  20.963   2.804
47978W        W20403  13.653  34.001  12.589
47979W        W20404   5.435  37.669   1.112
47980W        W20405   5.338   4.276   2.262
47981W        W20406  31.183   2.684  12.154
47982W        W20407  28.316   3.791  14.303
47983W        W20408   3.476   9.703  12.802
47984W        W20409  17.693  37.668  11.713
47985W        W20410   1.511  40.964   0.402
47986W        W20411  33.362  32.045  13.958
47987W        W20412   2.240  37.888  13.826
47988W        W20413  35.085  32.616   3.174
47989W        W20414   9.540   4.443   1.157
47990W        W20415  24.509   3.301   0.473
47991W        W20416   3.561   9.672  10.622
47992W        W20417  26.412  15.818  13.598
47993W        W20418  13.829   7.378  10.717
47994W        W20419  37.075  26.596   1.221
47995W        W20420  14.021  14.385   4.155
47996W        W20421   1.798  23.438   1.424
47997W        W20422  17.471  39.329  13.154
47998W        W20423  25.581   0.949  12.042
47999W        W20424  41.514  28.691  13.836
48000W        W20425  22.771  40.364   1.159
48001W        W20426  44.559  27.961   2.732
48002W        W20427   2.441   6.437   2.774
48003W        W20428  32.053  36.030   4.384
48004W        W20429  18.213  33.511   2.073
48005W        W20430  34.982  29.429   0.530
48006W        W20431  12.381   7.670   2.492
48007W        W20432   0.240  22.510   4.035
48008W        W20433  32.170  11.225   0.740
48009W        W20434  32.536  13.805   1.451
48010W        W20435  21.102  16.126   4.663
48011W        W20436  16.087  29.592  11.161
48012W        W20437  16.426   7.558  12.060
48013W        W20438  18.858  34.006   1.204
48014W        W20439  26.245  14.993  13.897
48015W        W20440  40.256   4.743  13.448
48016W        W20441   9.855  35.925  14.297
48017W        W20442  33.880   5.466  10.294
48018W        W20443  16.935  25.746   4.807
48019W        W20444  16.146   0.769   4.592
48020W        W20445  14.794  20.553   3.211
48021W        W20446  31.541  10.266  13.108
48022W        W20447  38.846   4.025   5.072
48023W        W20448  25.601   4.685   2.627
48024W        W20449  21.051  26.932   1.324
48025W        W20450  22.310  33.240   1.042
48026W        W20451  40.443  22.683   1.375
48027W        W20452  22.087  24.021  12.930
48028W        W20453  26.221  43.879   3.842
48029W        W20454  43.450  25.931   2.959
48030W        W20455  31.584  23.735  11.151
48031W        W20456  36.837  31.833  11.534
48032W        W20457   4.205  36.150  12.746
48033W        W20458  25.688   4.644   3.686
48034W        W20459   9.864  18.791  11.593
48035W        W20460  42.644  14.670   2.304
48036W        W20461  34.528  31.554  12.924
48037W        W20462   7.546  12.845  12.999
48038W        W20463  15.592  26.435   3.392
48039W        W20464  15.797  32.921  12.497
48040W        W20465  31.181  22.717   1.717
48041W        W20466  15.178  19.554   0.686
48042W        W20467  44.524   0.985   0.486
48043W        W20468  17.790   4.620  11.710
48044W        W20469  31.687  22.186   4.774
48045W        W20470  29.597  16.619  11.672
48046W        W20471  33.308  14.700   3.197
48047W        W20472  37.560  42.314   0.672
48048W        W20473   7.130  41.964   5.102
48049W        W20474   5.313  30.102  13.878
48050W        W20475   4.277  36.430  13.597
48051W        W20476  24.673  31.861  11.176
48052W        W20477   1.593  29.483   3.952
48053W        W20478  38.011  16.635   4.277
48054W        W20479   5.402  13.722   1.189
48055W        W20480   6.898  35.329  12.536
48056W        W20481  43.794  38.044  13.914
48057W        W20482  11.638  10.790  12.069
48058W        W20483  38.843  42.207   1.236
48059W        W20484  38.084   2.435   0.411
48060W        W20485   1.843   5.386   0.977
48061W        W20486   0.076  44.784  13.251
48062W        W20487  28.569  25.780   0.989
48063W        W20488  36.273   5.714  11.933
48064W        W20489  27.040  17.496  11.123
48065W        W20490  29.968  38.590  10.718
48066W        W20491  42.768  28.959  13.858
48067W        W20492  17.150  28.139  14.484
48068W        W20493  33.323  16.131   2.464
48069W        W20494  32.192  14.590  12.537
48070W        W20495  27.211  23.573   2.771
48071W        W20496  26.551   5.813  11.887
48072W        W20497  22.060  10.665  10.732
48073W        W20498  17.082   9.091  13.519
48074W        W20499  26.399  40.394   1.003
48075W        W20500  26.916  40.296   0.914
48076W        W20501   8.672  22.004   0.827
48077W        W20502   2.403  15.777  12.042
48078W        W20503   9.925   4.091   1.175
48079W        W20504   9.892  16.964  14.811
48080W        W20505  30.524  26.022  11.658
48081W        W20506   0.211   5.438   1.513
48082W        W20507   9.880  16.975   1.849
48083W        W20508  37.521  24.116   0.782
48084W        W20509  15.267   2.667  13.842
48085W        W20510  18.609  17.525  14.692
48086W        W20511   4.692  17.626  14.394
48087W        W20512   2.062  31.969  14.364
48088W        W20513  37.408  25.636   0.672
48089W        W20514  31.654   1.916  11.243
48090W        W20515  19.787  15.718   4.458
48091W        W20516  27.865   3.953   3.175
48092W        W20517  30.917   0.745  12.375
48093W        W20518   9.649  41.375   0.841
48094W        W20519  15.232  26.086  10.636
48095W        W20520   7.681  14.188   1.038
48096W        W20521  28.447  31.396   1.558
48097W        W20522   9.552   4.263  13.329
48098W        W20523  31.579  35.045   1.421
48099W        W20524  26.973  27.948  11.876
48100W        W20525   2.217  22.989  11.525
48101W        W20526  16.180  24.461   4.225
48102W        W20527  17.022  29.964  12.922
48103W        W20528   5.940  36.985   2.624
48104W        W20529  44.860  41.957  13.926
48105W        W20530  29.164  17.941   0.710
48106W        W20531   4.350  10.514   4.135
48107W        W20532  34.206  43.835   1.671
48108W        W20533  34.720  19.036   0.014
48109W        W20534  40.342  32.095  14.541
48110W        W20535  27.160  22.150  14.891
48111W        W20536  12.697  28.098  14.801
48112W        W20537  20.473  27.008  13.748
48113W        W20538  33.304   9.145  10.668
48114W        W20539   5.861  25.495   4.130
48115W        W20540  25.219  26.091  13.668
48116W        W20541  16.620  27.639   4.554
48117W        W20542  17.759  11.810  10.699
48118W        W20543  17.655  37.324   0.394
48119W        W20544  39.904  12.133  14.014
48120W        W20545  26.722   7.345  10.656
48121W        W20546  42.774  23.204   2.479
48122W        W20547  15.412  40.733  11.486
48123W        W20548  33.042   7.171  12.978
48124W        W20549  18.608  25.089  13.756
48125W        W20550   8.903   8.489   2.447
48126W        W20551  18.542  28.011  12.566
48127W        W20552  43.871  27.061   0.395
48128W        W20553   3.501   5.667   2.427
48129W        W20554  25.804  36.538   0.257
48130W        W20555  10.041  21.580  11.677
48131W        W20556  33.032  14.890  13.674
48132W        W20557  10.452  31.145  11.662
48133W        W20558  10.657   7.314   2.576
48134W        W20559   8.352  25.106   4.347
48135W        W20560  38.992  36.151  12.077
48136W        W20561  43.782   5.652  12.559
48137W        W20562  33.446  43.967   1.285
48138W        W20563  30.950  44.502  11.943
48139W        W20564  36.588  40.875  10.703
48140W        W20565  21.432  35.596  14.025
48141W        W20566   5.468  20.531   0.314
48142W        W20567  17.697  44.745   4.891
48143W        W20568  39.175  39.755  12.152
48144W        W20569   7.950  43.058   0.969
48145W        W20570  24.206  40.854  11.651
48146W        W20571  27.078  36.870  10.705
48147W        W20572  42.380  30.835   1.347
48148W        W20573  28.820  31.046   0.500
48149W        W20574  30.042  18.418  13.329
48150W        W20575  38.255  38.793   1.203
48151W        W20576  36.127  30.549   1.945
48152W        W20577  37.694  17.561  12.456
48153W        W20578  44.943   2.359   3.403
48154W        W20579  44.372  24.884   5.001
48155W        W20580  27.155  37.396  11.608
48156W        W20581  17.000   6.422   5.129
48157W        W20582   1.328  10.749   1.316
48158W        W20583  14.501  32.783   2.167
48159W        W20584  20.709  40.000  14.238
48160W        W20585  39.822  12.750   0.766
48161W        W20586   6.282   1.752   3.491
48162W        W20587  12.310  29.662   2.167
48163W        W20588  36.289  36.373   2.980
48164W        W20589   2.930   3.889   2.660
48165W        W20590   7.884  32.687  14.299
48166W        W20591  10.209  28.651  14.842
48167W        W20592  30.319  37.864   1.192
48168W        W20593  10.399   3.639   3.396
48169W        W20594  36.311   3.052  11.569
48170W        W20595  16.502  31.167   2.447
48171W        W20596  29.469  12.040  14.403
48172W        W20597  31.031  23.202  14.828
48173W        W20598  44.233  39.128  10.150
48174W        W20599   7.278  37.371   4.583
48175W        W20600  16.507  40.565   0.817
48176W        W20601  35.551  25.634   2.940
48177W        W20602  19.189  24.051   3.261
48178W        W20603  37.549   3.502   1.399
48179W        W20604  36.861  34.921  13.850
48180W        W20605  27.043  28.193   4.694
48181W        W20606  25.093   5.885  14.569
48182W        W20607   3.405  15.862  13.995
48183W        W20608  41.762   8.182   0.839
48184W        W20609  22.102   1.235   4.775
48185W        W20610  17.013   1.712  13.979
48186W        W20611  20.334  39.984  13.423
48187W        W20612  27.745  13.358   3.675
48188W        W20613  25.641  44.160  10.687
48189W        W20614  14.002  10.174   2.418
48190W        W20615  11.762   8.477  12.853
48191W        W20616  39.322  38.093  13.420
48192W        W20617  38.546  15.642   2.533
48193W        W20618  40.449   8.382  12.814
48194W        W20619  15.551  27.708  13.128
48195W        W20620  11.736  21.681  10.579
48196W        W20621  34.102   1.214   3.775
48197W        W20622  37.095  17.102  13.426
48198W        W20623  15.042   8.858   1.408
48199W        W20624   7.966  38.536   0.909
48200W        W20625  29.148  12.289   2.951
48201W        W20626  41.412  22.041   1.351
48202W        W20627  43.104   7.997  12.897
48203W        W20628  38.674  20.489  14.822
48204W        W20629  34.961  16.567   3.804
48205W        W20630  41.128  16.584   3.171
48206W        W20631  41.402   7.199   1.306
48207W        W20632  41.837  33.138  11.135
48208W        W20633  34.388  41.075  14.311
48209W        W20634  34.910  11.333   4.499
48210W        W20635  30.944  29.693   0.478
48211W        W20636  39.575   1.156  13.373
48212W        W20637   5.727  11.239   3.751
48213W        W20638  35.810   4.169   3.437
48214W        W20639   4.679  20.539   3.866
48215W        W20640   5.665  20.033   1.292
48216W        W20641  24.980   6.093   0.430
48217W        W20642  16.798  13.659  10.787
48218W        W20643   9.612  33.553  12.127
48219W        W20644   6.263   8.917   5.061
48220W        W20645   3.922  33.647   4.133
48221W        W20646  21.761   1.541  13.313
48222W        W20647   8.973  37.957  10.414
48223W        W20648  18.725  23.080  14.436
48224W        W20649  11.698  25.323   4.143
48225W        W20650   9.242   5.333   1.213
48226W        W20651   2.716  31.073  10.609
48227W        W20652  29.114  26.239   0.370
48228W        W20653  13.331  36.108   3.690
48229W        W20654  24.040   2.158  10.917
48230W        W20655  43.423  17.390   4.128
48231W        W20656  27.163  38.951   4.855
48232W        W20657  32.009   1.981   4.627
48233W        W20658  13.431  24.618  11.132
48234W        W20659  21.003  44.876   1.914
48235W        W20660  30.915  19.519   0.754
48236W        W20661   6.569  33.451   0.446
48237W        W20662   7.770   4.676   3.894
48238W        W20663  11.502  35.133   0.551
48239W        W20664  18.971  42.540   5.020
48240W        W20665  29.084  43.338  10.831
48241W        W20666  37.271   3.344   1.820
48242W        W20667  37.666  23.710   4.826
48243W        W20668  25.757  14.676   1.565
48244W        W20669  11.623   3.702  13.034
48245W        W20670   9.864  42.514  11.930
48246W        W20671  11.739  34.976  12.023
48247W        W20672  12.751  23.965  13.514
48248W        W20673  15.243  32.982   3.109
48249W        W20674  39.162  44.755   3.788
48250W        W20675  37.472  29.808  11.832
48251W        W20676   3.242   8.170  11.726
48252W        W20677   2.993   6.819   3.124
48253W        W20678   5.411  19.380  14.472
48254W        W20679   9.317  17.390   1.361
48255W        W20680   7.595  40.090  13.487
48256W        W20681   3.284  32.689   2.413
48257W        W20682  34.503   2.927  12.079
48258W        W20683  33.332   4.801   4.704
48259W        W20684  15.149  24.020   2.147
48260W        W20685  15.645   0.494  10.746
48261W        W20686   9.171  17.484  14.278
48262W        W20687  24.236  25.705  14.377
48263W        W20688  42.788   9.878  10.697
48264W        W20689  37.559  30.625   1.857
48265W        W20690   7.152   5.189   0.326
48266W        W20691  26.334  44.426  12.024
48267W        W20692  32.937  21.297   4.250
48268W        W20693  42.497  40.436  13.114
48269W        W20694   1.900   1.356   4.144
48270W        W20695   6.231  41.054  11.489
48271W        W20696  29.519  41.496  10.653
48272W        W20697   3.300  18.470   2.926
48273W        W20698  22.031   0.316   2.144
48274W        W20699  37.426  12.565   1.809
48275W        W20700  23.011  42.204  11.869
48276W        W20701  16.662  33.687   0.289
48277W        W20702  30.582  25.039  11.298
48278W        W20703  37.500  34.488   3.280
48279W        W20704  28.708  39.169   1.207
48280W        W20705  27.693   0.590   0.365
48281W        W20706  43.087   1.927   3.156
48282W        W20707  44.677   4.130   2.189
48283W        W20708   8.369  31.112   1.411
48284W        W20709   5.838   9.104   2.614
48285W        W20710  12.616  14.814  14.043
48286W        W20711  16.983  33.482  11.173
48287W        W20712  42.501  43.937  13.330
48288W        W20713  33.612   0.840   0.430
48289W        W20714  40.250  22.032   2.102
48290W        W20715   8.827  31.920  10.731
48291W        W20716  17.658  21.051   1.749
48292W        W20717   5.682  11.778   4.693
48293W        W20718  23.288   1.628  11.486
48294W        W20719  29.906   8.170  11.722
48295W        W20720  14.079  19.885  13.852
48296W        W20721  34.875   0.362   4.651
48297W        W20722  22.424   6.619   5.146
48298W        W20723   9.175  41.865  12.933
48299W        W20724  22.079   6.233  13.840
48300W        W20725  28.317  32.185   4.267
48301W        W20726  13.272  32.828   0.629
48302W        W20727  25.245   3.176  12.033
48303W        W20728  10.402   3.078  11.957
48304W        W20729  30.421  25.769  10.629
48305W        W20730   1.137  31.163   1.894
48306W        W20731  20.971  10.331  12.963
48307W        W20732   2.964  28.986  12.337
48308W        W20733  26.674  23.323  11.477
48309W        W20734   6.621  38.937   5.230
48310W        W20735  22.030  30.151   0.923
48311W        W20736  25.536  20.878   0.881
48312W        W20737  22.509  36.444   4.109
48313W        W20738  16.978  31.679   0.403
48314W        W20739  31.419  21.940  12.126
48315W        W20740  34.499  21.988   1.875
48316W        W20741  39.504   2.789   0.787
48317W        W20742   3.283  42.451   4.165
48318W        W20743   7.877  28.547  11.357
48319W        W20744   7.681  32.093   2.790
48320W        W20745   2.228   3.999  10.988
48321W        W20746  11.252  36.937   1.804
48322W        W20747  32.749  14.432  14.978
48323W        W20748  44.530  25.254  11.073
48324W        W20749  14.762  33.571   3.629
48325W        W20750  16.362  33.298   0.461
48326W        W20751  20.068  23.937   3.367
48327W        W20752  20.123   4.885   1.223
48328W        W20753  37.166  35.052  10.730
48329W        W20754  34.903   7.361   1.341
48330W        W20755  42.075  40.747  12.267
48331W        W20756   2.791   0.059   2.232
48332W        W20757  15.469  44.275  14.981
48333W        W20758  28.372  23.101   1.723
48334W        W20759  24.687  30.705  14.718
48335W        W20760  41.743  32.207   5.093
48336W        W20761   4.412   6.351   1.643
48337W        W20762  31.834  40.935   2.154
48338W        W20763  24.033  25.521   2.992
48339W        W20764  20.020   3.241  12.427
48340W        W20765   9.200   7.320  13.913
48341W        W20766  23.015   0.859   1.553
48342W        W20767  37.360  24.818  13.417
48343W        W20768  24.197  13.186   3.736
48344W        W20769  16.638  12.728   2.902
48345W        W20770  34.580   7.395   1.776
48346W        W20771  34.102  32.461  11.437
48347W        W20772   1.007  24.735   2.691
48348W        W20773  26.615   3.166   0.891
48349W        W20774  27.835  30.482   4.832
48350W        W20775   7.771  21.637   0.025
48351W        W20776   4.290  16.037  11.962
48352W        W20777  21.476  38.270  12.533
48353W        W20778  41.748  24.000   2.897
48354W        W20779  25.722  11.147   4.238
48355W        W20780   9.818  21.403   3.713
48356W        W20781  24.502  14.058   3.776
48357W        W20782  27.588  12.416  13.836
48358W        W20783   2.250  17.447   3.796
48359W        W20784  29.024  16.540  13.355
48360W        W20785  35.644   3.698   0.001
48361W        W20786  36.496   4.159  10.671
48362W        W20787  34.956  11.322  13.309
48363W        W20788   1.567   1.712   4.334
48364W        W20789   1.409  17.719   1.495
48365W        W20790   5.289  15.877  10.807
48366W        W20791  13.617  23.463   4.698
48367W        W20792  43.736  37.864   1.701
48368W        W20793   3.913  22.438  11.196
48369W        W20794   9.627  33.487   1.692
48370W        W20795   7.637  44.120   4.124
48371W        W20796   2.619   0.873   1.876
48372W        W20797  42.266  23.890  14.332
48373W        W20798  10.332  10.780  13.339
48374W        W20799  44.252  40.570   1.691
48375W        W20800  40.942  32.520   0.035
48376W        W20801  43.360  20.679   0.569
48377W        W20802  12.769  22.026   4.835
48378W        W20803  19.585  19.992  10.945
48379W        W20804  16.690   1.344   1.233
48380W        W20805   1.413  36.628  11.190
48381W        W20806  24.147  10.934  10.656
48382W        W20807   4.689  25.781  10.199
48383W        W20808  37.937   7.259   2.792
48384W        W20809  43.407  37.441  12.068
48385W        W20810  18.425  35.574   0.205
48386W        W20811  17.270  20.419   9.941
48387W        W20812   9.047   3.838   0.962
48388W        W20813  26.598  27.206   4.019
48389W        W20814  30.799  13.600   3.140
48390W        W20815  44.024  42.998  13.921
48391W        W20816  39.331  31.022  10.464
48392W        W20817  36.871   6.921   0.249
48393W        W20818   5.340  34.657   2.905
48394W        W20819  20.716  11.294   3.306
48395W        W20820  33.599  21.683  13.585
48396W        W20821  36.701   8.806   0.328
48397W        W20822  38.958  39.105  14.538
48398W        W20823  13.833  19.095   2.905
48399W        W20824  19.874   0.294  12.485
48400W        W20825  40.488  32.464   0.409
48401W        W20826  37.533  12.560  14.017
48402W        W20827  16.070  34.836   3.843
48403W        W20828  11.330   7.263   3.676
48404W        W20829  36.892  16.279  11.395
48405W        W20830  42.931  39.331   1.201
48406W        W20831   0.406  11.263   2.008
48407W        W20832   5.824  16.852   1.023
48408W        W20833  17.304  21.034   1.315
48409W        W20834  37.835  34.409   2.882
48410W        W20835  19.743  36.903  12.092
48411W        W20836  19.038  35.037   0.863
48412W        W20837  11.873   4.115   0.321
48413W        W20838  42.367   2.722   0.000
48414W        W20839  43.496  18.739  11.995
48415W        W20840  30.506  44.771  12.980
48416W        W20841   8.977  35.369   3.604
48417W        W20842  43.364  15.338  10.156
48418W        W20843  30.914  11.163   1.420
48419W        W20844  32.287  22.095   0.350
48420W        W20845  39.018  32.774  14.180
48421W        W20846  11.874  43.554   1.433
48422W        W20847   2.840  25.584  10.592
48423W        W20848   3.885  13.574   1.672
48424W        W20849  21.676  30.929   3.621
48425W        W20850  29.405   3.796   2.779
48426W        W20851  12.597  12.350   0.528
48427W        W20852  34.433  12.079  13.200
48428W        W20853  38.425  15.137  12.900
48429W        W20854   3.387  28.572   3.827
48430W        W20855   5.325   2.738  10.515
48431W        W20856  37.457  44.917  13.417
48432W        W20857  26.178  15.287   0.951
48433W        W20858  16.631  17.688   2.862
48434W        W20859   3.890  30.642  10.861
48435W        W20860  27.565  34.033   2.003
48436W        W20861   0.993   5.412  14.998
48437W        W20862  35.395   4.268  12.897
48438W        W20863  16.946  32.134  11.935
48439W        W20864  18.535  10.126  12.135
48440W        W20865  25.991   4.866   3.352
48441W        W20866  28.025  40.265  13.325
48442W        W20867   9.648   2.908   0.774
48443W        W20868  17.963  35.296  13.233
48444W        W20869  34.061  41.753   0.191
48445W        W20870  44.998  22.984  14.842
48446W        W20871  16.077  44.934  14.519
48447W        W20872   1.802  26.666   4.145
48448W        W20873   7.231   5.477  13.978
48449W        W20874  11.408   6.987   0.740
48450W        W20875  40.868  11.773   1.921
48451W        W20876   2.974   0.872  10.771
48452W        W20877  31.446   4.760  10.950
48453W        W20878  35.149  14.133  12.890
48454W        W20879   7.642  35.189  14.512
48455W        W20880   6.275  44.466   2.177
48456W        W20881   8.701   4.824   2.841
48457W        W20882  18.664  12.148  10.373
48458W        W20883  39.534  18.248   2.755
48459W        W20884  37.623  26.006   2.723
48460W        W20885   5.151  24.478   1.231
48461W        W20886  35.098   6.764   0.516
48462W        W20887   8.663   8.159  14.770
48463W        W20888  23.681  31.765   0.051
48464W        W20889  37.087  17.990  13.477
48465W        W20890  31.435  28.530  13.265
48466W        W20891  31.055  31.710  13.292
48467W        W20892  33.116  12.151  13.641
48468W        W20893  10.209  44.700  11.268
48469W        W20894  34.615  32.394   0.484
48470W        W20895  38.862   6.419   1.153
48471W        W20896  27.628  36.400   3.421
48472W        W20897  15.761   2.259   0.335
48473W        W20898   5.553  36.904   2.294
48474W        W20899  24.496  28.217  11.975
48475W        W20900  27.490  33.945   5.031
48476W        W20901  35.889  35.046   4.918
48477W        W20902  22.799  16.786  10.763
48478W        W20903  29.107  27.929   2.927
48479W        W20904  18.593  14.266   0.456
48480W        W20905  37.756  19.340  12.516
48481W        W20906  11.662   8.669  13.332
48482W        W20907  35.596  43.926   1.010
48483W        W20908  28.327   6.306  14.422
48484W        W20909  13.620  39.879  10.729
48485W        W20910   4.338  11.205  12.198
48486W        W20911  10.146   4.923  12.086
48487W        W20912  21.690   6.933  11.205
48488W        W20913   6.019  34.874   1.275
48489W        W20914   9.852  27.034  13.498
48490W        W20915  34.067   0.250   2.159
48491W        W20916   5.008   5.801   1.677
48492W        W20917  25.098  28.798   0.212
48493W        W20918  18.587  37.902   4.325
48494W        W20919   5.354  10.814  13.139
48495W        W20920  24.199  24.444   4.173
48496W        W20921  21.203  15.386  13.457
48497W        W20922  26.715   9.224   0.723
48498W        W20923  18.317  17.184   1.768
48499W        W20924  11.091  32.964   3.140
48500W        W20925  28.983  12.624   0.503
48501W        W20926   3.460   1.901  12.127
48502W        W20927  20.045   3.689   0.704
48503W        W20928  14.309  43.306  13.111
48504W        W20929   5.851  13.743  11.615
48505W        W20930  21.595  21.204  10.883
48506W        W20931  17.612  23.917  14.862
48507W        W20932   9.936  16.533  11.587
48508W        W20933  32.071  32.145   4.151
48509W        W20934  13.922  32.483  11.148
48510W        W20935  32.629  23.438   4.286
48511W        W20936   2.178  28.546  14.723
48512W        W20937  19.822  27.759   2.943
48513W        W20938  27.180  33.623   4.577
48514W        W20939   8.977  38.595   4.594
48515W        W20940  21.202  44.708   4.604
48516W        W20941  37.441  28.233   1.685
48517W        W20942  35.103  11.637   3.598
48518W        W20943  13.367   1.321   4.347
48519W        W20944  20.313  43.037   3.306
48520W        W20945  33.010  24.055   3.407
48521W        W20946  40.387  41.368   2.483
48522W        W20947  27.890  43.442  13.333
48523W        W20948  26.071  20.772  11.748
48524W        W20949   4.728  39.856  13.518
48525W        W20950  35.701  18.161   3.779
48526W        W20951   8.444  22.268  14.023
48527W        W20952  24.320  15.709  10.795
48528W        W20953  32.038   2.697   2.196
48529W        W20954  30.412  15.061   3.313
48530W        W20955  10.726  28.086   3.604
48531W        W20956  18.221  21.119  10.660
48532W        W20957  42.471  10.865   0.826
48533W        W20958   3.638  20.160  13.470
48534W        W20959  43.890   6.932   3.761
48535W        W20960  12.526  34.405  11.042
48536W        W20961  25.012  43.537   0.980
48537W        W20962  42.808  30.454   3.202
48538W        W20963  29.119  26.525   1.834
48539W        W20964  44.552  14.050   4.417
48540W        W20965  28.675  26.028  12.773
48541W        W20966  30.965  18.879   3.223
48542W        W20967   6.220  26.244  13.075
48543W        W20968   6.094  38.951  12.273
48544W        W20969  33.861   5.683   1.392
48545W        W20970  28.925  27.132   4.631
48546W        W20971   5.619  19.850   2.794
48547W        W20972   1.427   8.574  13.274
48548W        W20973  12.358  12.242   2.832
48549W        W20974  21.529   7.542   2.521
48550W        W20975  32.632  41.932  12.132
48551W        W20976  34.941  41.440  12.108
48552W        W20977  42.087  17.346  14.051
48553W        W20978  15.308   1.804  13.056
48554W        W20979   7.273  25.086  11.033
48555W        W20980  24.729  15.130  13.807
48556W        W20981  31.421   5.786   1.418
48557W        W20982  22.516  23.394  14.420
48558W        W20983  29.854   2.723   0.796
48559W        W20984   2.016  38.936   3.245
48560W        W20985  37.536  34.997   3.208
48561W        W20986  42.189  43.493  11.136
48562W        W20987  35.429  15.812  14.633
48563W        W20988  12.868   7.182  11.676
48564W        W20989  35.894  26.139  14.924
48565W        W20990  40.356   1.725   2.859
48566W        W20991  31.904  44.389  10.636
48567W        W20992  28.728  14.337   3.763
48568W        W20993   6.727  30.993   4.255
48569W        W20994   6.814  18.509   3.432
48570W        W20995  34.673  43.988   4.108
48571W        W20996  13.543  44.378   1.690
48572W        W20997  22.080  12.172   2.782
48573W        W20998  24.139  34.406  14.273
48574W        W20999  26.539   3.443   1.337
48575W        W21000  25.094  19.165   0.906
48576W        W21001   7.626  10.602   2.240
48577W        W21002  24.109  18.136   3.560
48578W        W21003   4.976  16.089   2.719
48579W        W21004  36.638  40.862   0.844
48580W        W21005  37.074   1.552   3.851
48581W        W21006   8.710  11.383  10.659
48582W        W21007  15.918  30.551  14.604
48583W        W21008  39.416  13.062   4.225
48584W        W21009  30.491   7.460   0.682
48585W        W21010  44.789   5.959   2.863
48586W        W21011  36.136  23.527  13.154
48587W        W21012  11.834  25.089   1.696
48588W        W21013  18.943  41.002  14.765
48589W        W21014   7.735  22.786  10.696
48590W        W21015  21.536  39.855   0.457
48591W        W21016  22.465  39.603   3.276
48592W        W21017  38.853  35.386   0.867
48593W        W21018  17.026  40.306   3.633
48594W        W21019  38.372  38.862  12.004
48595W        W21020  17.279   6.366   3.715
48596W        W21021  29.688  20.714  13.813
48597W        W21022  12.800  41.426  14.929
48598W        W21023  24.172   6.693  14.410
48599W        W21024   3.814  41.889   3.648
48600W        W21025  10.051   0.196  12.064
48601W        W21026  44.463  17.318  11.852
48602W        W21027  19.241  43.699  13.037
48603W        W21028  44.492  19.370   2.939
48604W        W21029  19.751  42.247  14.091
48605W        W21030  27.179   5.674  12.930
48606W        W21031  23.279  42.774  12.959
48607W        W21032  11.919  16.163   3.319
48608W        W21033   4.530  31.216  11.108
48609W        W21034  26.845  44.811  13.289
48610W        W21035  24.506  14.144   0.035
48611W        W21036  13.765  39.315   4.634
48612W        W21037  22.280  26.534  13.901
48613W        W21038  26.580  16.282  14.355
48614W        W21039  43.835  44.109   4.170
48615W        W21040  28.792  19.653   3.010
48616W        W21041  32.705  11.569   4.045
48617W        W21042   5.892   0.725  13.317
48618W        W21043   7.738  23.807  10.737
48619W        W21044   8.692   8.256   4.586
48620W        W21045  34.405  25.963  14.366
48621W        W21046   0.926  10.194  14.395
48622W        W21047  44.291  23.526  10.693
48623W        W21048  10.593  44.219   4.118
48624W        W21049  10.246  17.240  10.520
48625W        W21050  42.242  15.911   3.770
48626W        W21051  13.601  23.805  11.901
48627W        W21052   6.764  24.648   4.832
48628W        W21053  42.309   8.867  13.842
48629W        W21054  26.536  25.108  14.352
48630W        W21055  28.532   5.820  14.009
48631W        W21056  35.966  37.827  12.967
48632W        W21057  42.701  21.194  14.511
48633W        W21058  44.685   8.256  12.480
48634W        W21059  25.158   8.226  13.185
48635W        W21060  25.080  14.793   2.844
48636W        W21061  25.353  14.761   1.197
48637W        W21062   0.960   9.195  14.475
48638W        W21063  32.578  32.606  13.300
48639W        W21064  18.809  35.408   1.836
48640W        W21065   8.163   6.171   0.388
48641W        W21066  14.057  17.326   1.800
48642W        W21067  27.891  43.318  12.361
48643W        W21068  36.937  18.112   4.387
48644W        W21069  28.965  35.664   0.932
48645W        W21070  29.402  27.094   4.848
48646W        W21071  23.685  33.664  12.081
48647W        W21072  42.871  23.556   1.700
48648W        W21073  32.065  10.381   3.915
48649W        W21074  40.994   7.210   0.444
48650W        W21075  40.655   2.853   1.458
48651W        W21076  31.888  11.405   3.857
48652W        W21077   2.263  41.381   3.220
48653W        W21078  30.632   0.047   0.817
48654W        W21079  17.220  41.448  10.461
48655W        W21080  10.916  28.455   3.275
48656W        W21081  28.414  10.782  11.876
48657W        W21082  43.770  30.203  11.387
48658W        W21083  13.625  23.371  13.131
48659W        W21084  40.530  42.487  11.507
48660W        W21085   8.301  35.628   2.452
48661W        W21086   5.175  36.444   1.170
48662W        W21087  26.484  34.488  11.615
48663W        W21088  13.193  39.566  10.676
48664W        W21089  16.429  17.635  13.442
48665W        W21090  19.824  41.734  11.103
48666W        W21091  43.750  44.775   0.640
48667W        W21092  12.615   0.901   4.126
48668W        W21093  25.512  32.996   4.101
48669W        W21094  30.454  17.781  13.991
48670W        W21095  41.024   7.652   4.488
48671W        W21096   2.711   3.724   4.567
48672W        W21097  34.915  29.620  10.956
48673W        W21098  34.582  32.323  11.540
48674W        W21099  33.171  31.642  10.405
48675W        W21100  40.247  16.171  14.995
48676W        W21101  17.576  35.055   2.736
48677W        W21102  36.360  37.646  12.494
48678W        W21103  36.314  29.278  14.937
48679W        W21104  30.100  11.251   3.588
48680W        W21105  16.247  26.078  11.644
48681W        W21106   3.098  32.820  10.985
48682W        W21107  32.126  10.764  11.609
48683W        W21108  18.059  36.515   4.500
48684W        W21109  42.337   2.376   3.307
48685W        W21110   6.503  24.172  13.852
48686W        W21111  14.652   3.254  13.044
48687W        W21112  10.092  15.724  14.820
48688W        W21113   9.383  43.214   2.910
48689W        W21114  39.566  17.638  14.867
48690W        W21115  35.478  36.055  13.874
48691W        W21116  14.101  24.041  10.726
48692W        W21117  28.412   3.802   4.220
48693W        W21118  10.562  16.046   0.320
48694W        W21119  17.599  11.191  14.881
48695W        W21120   0.540  10.587   5.011
48696W        W21121  22.976  35.372   2.297
48697W        W21122  35.985   9.395   0.369
48698W        W21123  32.062  32.564   1.972
48699W        W21124   9.871  35.677   2.787
48700W        W21125  41.842  19.741  11.933
48701W        W21126   7.399  22.110  10.961
48702W        W21127  20.118  19.808   1.837
48703W        W21128  32.701  40.431   0.180
48704W        W21129  24.126  44.214   4.122
48705W        W21130  40.334  12.755   3.322
48706W        W21131  13.372  23.804  11.441
48707W        W21132  14.139  42.609  13.269
48708W        W21133   6.287   5.261  12.070
48709W        W21134  23.959  33.925   0.497
48710W        W21135  16.990   8.810   0.297
48711W        W21136  20.583  43.859  14.084
48712W        W21137  37.359   0.522  14.307
48713W        W21138  43.472  30.591  12.914
48714W        W21139  36.011  24.747  14.044
48715W        W21140  38.630  30.272   2.921
48716W        W21141   5.091  10.018   3.730
48717W        W21142  15.208   4.860  13.787
48718W        W21143  23.734  10.525   4.522
48719W        W21144  13.676  23.599  14.976
48720W        W21145  40.075  40.450  12.167
48721W        W21146  37.268  15.566  11.078
48722W        W21147  12.285  30.021   2.923
48723W        W21148   5.672   4.675  12.498
48724W        W21149  44.780  36.963  14.405
48725W        W21150  35.641   3.880   2.212
48726W        W21151  15.702  23.357  12.946
48727W        W21152  24.110  36.297   0.300
48728W        W21153  17.709  13.039   2.173
48729W        W21154  44.563   3.635  10.185
48730W        W21155  44.530  39.036   4.716
48731W        W21156  30.071  30.170   0.176
48732W        W21157  15.368  25.799  12.132
48733W        W21158  15.269  24.022  13.389
48734W        W21159  33.929  31.400   2.967
48735W        W21160  39.811   3.743  14.986
48736W        W21161   4.198  41.392  13.373
48737W        W21162  34.463   7.259  12.848
48738W        W21163  38.514  21.675  14.836
48739W        W21164  19.746  23.995   2.829
48740W        W21165  10.175  17.464  12.494
48741W        W21166   5.313  17.406   1.584
48742W        W21167  38.474  25.979   1.412
48743W        W21168  16.139  27.932  10.808
48744W        W21169  12.135  18.075  13.498
48745W        W21170  39.127  21.950   2.883
48746W        W21171  16.366  31.902   2.279
48747W        W21172  38.087   2.788   1.266
48748W        W21173  17.058   9.141  14.064
48749W        W21174  35.547  31.684  11.630
48750W        W21175  41.366  13.819   1.867
48751W        W21176  33.547  19.598  14.840
48752W        W21177  38.869  23.051  13.509
48753W        W21178  27.044  23.001  13.142
48754W        W21179   2.252  27.696   2.300
48755W        W21180  37.369  10.697   3.659
48756W        W21181  36.394   3.740  14.329
48757W        W21182   1.829   0.472   1.871
48758W        W21183   0.575  24.470  12.073
48759W        W21184  23.945  28.495   0.078
48760W        W21185  44.408  20.614   3.720
48761W        W21186  16.376  32.668   3.707
48762W        W21187   3.313  33.420   4.919
48763W        W21188   0.233  13.190  11.050
48764W        W21189  11.791  28.109  12.466
48765W        W21190  25.708  35.532  13.238
48766W        W21191  41.793  32.174  10.031
48767W        W21192  10.911   3.425   2.490
48768W        W21193   9.234  12.136   4.204
48769W        W21194  23.560  35.082   3.597
48770W        W21195  38.528  29.745  12.475
48771W        W21196  28.181  14.553  12.065
48772W        W21197   6.203  20.121   0.404
48773W        W21198  25.138  34.495   1.187
48774W        W21199  29.118  13.841   2.743
48775W        W21200  12.841  20.728   3.107
48776W        W21201  33.067  18.239  11.929
48777W        W21202  10.921  40.310  12.037
48778W        W21203  18.076  14.859   1.501
48779W        W21204  26.157  21.559   0.783
48780W        W21205   8.828  12.615   3.770
48781W        W21206  15.800  32.517  14.070
48782W        W21207   8.632  32.738  12.540
48783W        W21208  17.546  34.003   3.601
48784W        W21209   7.404  44.221   1.235
48785W        W21210   9.047  19.881  13.525
48786W        W21211  36.487   4.924   4.577
48787W        W21212  12.902  34.418   4.699
48788W        W21213  27.178  27.860   4.284
48789W        W21214  34.921  17.100  10.360
48790W        W21215  16.754  30.972   4.133
48791W        W21216  23.475   5.323   0.986
48792W        W21217  38.381  20.039   3.788
48793W        W21218   5.185   0.689   0.904
48794W        W21219  35.164  27.505   2.142
48795W        W21220  36.841   0.672  13.100
48796W        W21221  23.911  35.859  14.568
48797W        W21222  27.014  42.818  11.998
48798W        W21223   1.992  35.028  12.665
48799W        W21224  28.470  21.703   3.832
48800W        W21225  15.342  40.051  13.927
48801W        W21226  31.220  19.425  12.886
48802W        W21227  26.576  29.418   1.017
48803W        W21228   7.748  39.845   2.809
48804W        W21229  27.011   9.138   3.964
48805W        W21230   6.901  44.496   2.630
48806W        W21231  43.631   9.941   0.435
48807W        W21232  18.742  26.733  14.804
48808W        W21233   9.354  14.357   2.841
48809W        W21234  42.686  16.660  13.077
48810W        W21235  37.358  20.708  12.103
48811W        W21236  44.243  27.471  14.080
48812W        W21237  24.089  22.626  11.418
48813W        W21238  13.124  20.482   0.879
48814W        W21239  38.296  36.892  14.944
48815W        W21240  37.047   6.169   0.929
48816W        W21241  40.777   3.916   2.867
48817W        W21242  40.255  43.627   4.225
48818W        W21243  20.139  44.551  10.139
48819W        W21244   0.460  42.013  11.672
48820W        W21245  33.450  35.337  14.337
48821W        W21246  23.460   8.324   9.738
48822W        W21247  25.630  42.379  14.397
48823W        W21248  40.881  22.138  13.802
48824W        W21249  28.493  26.665  14.743
48825W        W21250   1.898  17.062   0.478
48826W        W21251  32.294  32.274  11.474
48827W        W21252  28.493   1.527   2.723
48828W        W21253  33.004  26.027   4.211
48829W        W21254   4.001  22.504  13.371
48830W        W21255  35.774   9.319   0.888
48831W        W21256  12.317  44.910   1.878
48832W        W21257  24.204   9.109  11.942
48833W        W21258   0.867  27.579   2.605
48834W        W21259  37.145  42.882  13.405
48835W        W21260  15.663  30.674  13.793
48836W        W21261  12.387  28.046   2.848
48837W        W21262  16.424  23.694   3.901
48838W        W21263  35.171  19.694  11.561
48839W        W21264  23.800   5.391   3.426
48840W        W21265  20.824   9.359  13.966
48841W        W21266  42.703  15.176   2.571
48842W        W21267  13.163  33.453  12.057
48843W        W21268   2.717   9.050   2.403
48844W        W21269  44.136  38.323   1.351
48845W        W21270   3.442  43.407  11.096
48846W        W21271  24.193  17.304  13.429
48847W        W21272  34.465  11.105  13.202
48848W        W21273  31.797  18.456   2.774
48849W        W21274  35.303  21.983   1.355
48850W        W21275  18.246  36.563   4.002
48851W        W21276  18.825  41.791   3.668
48852W        W21277   0.803  34.004  11.757
48853W        W21278  37.845  23.125  12.919
48854W        W21279  20.432  37.947  13.284
48855W        W21280  13.759  12.764   4.692
48856W        W21281  15.069  43.311   2.875
48857W        W21282  14.197  23.665  12.425
48858W        W21283  18.304  40.303  13.617
48859W        W21284  37.370   7.797  14.529
48860W        W21285  37.494  22.569   3.846
48861W        W21286   1.917  19.672  12.358
48862W        W21287  35.309   9.989   2.971
48863W        W21288  36.484  36.098   1.357
48864W        W21289  40.781  43.997   0.046
48865W        W21290  34.031  11.333  13.982
48866W        W21291   9.175  11.148  10.532
48867W        W21292  40.387  39.127   0.757
48868W        W21293  44.340  10.615   0.425
48869W        W21294  43.389  12.416  12.573
48870W        W21295  35.541   7.042  11.042
48871W        W21296   9.446   0.800  10.925
48872W        W21297  24.076  39.886  11.588
48873W        W21298  25.697  10.640  10.486
48874W        W21299  42.188  16.047  12.314
48875W        W21300  30.637  28.154   3.116
48876W        W21301  42.156   7.214   1.981
48877W        W21302  22.493  29.461  10.579
48878W        W21303  32.718   9.140  12.899
48879W        W21304  11.883  17.618   3.063
48880W        W21305   9.108  30.830  11.176
48881W        W21306  20.629  36.829  10.718
48882W        W21307  14.805  16.607  10.704
48883W        W21308  14.824   8.716  13.046
48884W        W21309  27.276  37.363  12.580
48885W        W21310  42.613  34.400   0.366
48886W        W21311  42.083  27.460   1.877
48887W        W21312  27.621   4.230   1.805
48888W        W21313  33.052  29.220   2.733
48889W        W21314  32.589  23.132   1.985
48890W        W21315  40.522  12.550   1.382
48891W        W21316  24.062  14.902  13.023
48892W        W21317  11.598  21.978  13.759
48893W        W21318  12.326  35.804   2.587
48894W        W21319  23.364  15.252  10.685
48895W        W21320  25.621  40.207  14.873
48896W        W21321  29.111   2.673   3.235
48897W        W21322  12.731  24.180  11.030
48898W        W21323  19.617  37.587   0.488
48899W        W21324   1.797  11.120   4.228
48900W        W21325  26.620   0.229   3.309
48901W        W21326  21.254  33.521  11.791
48902W        W21327  13.353   5.682  12.471
48903W        W21328   1.004   3.236   4.201
48904W        W21329  19.068  42.314  12.777
48905W        W21330   3.822  28.009  13.351
48906W        W21331  36.516   1.376  14.984
48907W        W21332  32.517  41.868  11.622
48908W        W21333  44.243  40.722  12.350
48909W        W21334   1.289   2.456  14.327
48910W        W21335  29.158  12.244  12.890
48911W        W21336  38.356  14.418   3.788
48912W        W21337  42.897  30.652   1.182
48913W        W21338  17.688  44.464   2.188
48914W        W21339  41.757   5.211  14.042
48915W        W21340  39.098   1.151   5.072
48916W        W21341  15.957  35.666   1.301
48917W        W21342  32.985  22.545   4.047
48918W        W21343  18.341  31.459  13.134
48919W        W21344  29.453  26.293   0.752
48920W        W21345  30.978  10.898   2.721
48921W        W21346  44.763  42.320   3.771
48922W        W21347  29.737  18.818  11.634
48923W        W21348  12.919   2.775   3.456
48924W        W21349  12.781   9.122   2.699
48925W        W21350  14.795  12.062  14.886
48926W        W21351   9.448  34.923   4.287
48927W        W21352   8.659  21.184  10.889
48928W        W21353  15.017  23.551  10.703
48929W        W21354  34.217  38.359   1.836
48930W        W21355   8.762  16.297  13.068
48931W        W21356   5.122  21.066  14.113
48932W        W21357  41.520  14.089  10.671
48933W        W21358  22.312  24.208  11.460
48934W        W21359  40.289  39.055  10.148
48935W        W21360  14.771   8.335   3.853
48936W        W21361   9.607   2.650  12.373
48937W        W21362  39.221  29.998  12.047
48938W        W21363  30.001  39.566   1.879
48939W        W21364  12.936  19.057  10.805
48940W        W21365  33.769  11.791  13.987
48941W        W21366  43.446  15.546   0.403
48942W        W21367   3.009   2.837  13.927
48943W        W21368   2.919  28.660   2.854
48944W        W21369  10.849  14.079  12.502
48945W        W21370  41.323  16.663  11.479
48946W        W21371  25.050  35.060   0.979
48947W        W21372  40.776  21.108   0.841
48948W        W21373  42.244  44.005   0.825
48949W        W21374  30.209  33.155  11.871
48950W        W21375  13.774  40.093   1.465
48951W        W21376  36.356  24.948  10.524
48952W        W21377   5.481  12.842   0.725
48953W        W21378  15.029  11.375  12.625
48954W        W21379  29.104  25.960  11.671
48955W        W21380  39.791  25.782   2.802
48956W        W21381  26.371  35.369   5.287
48957W        W21382  28.126  43.366   1.282
48958W        W21383  17.074  22.726   0.777
48959W        W21384  37.421  28.093  10.643
48960W        W21385  34.074  37.602   2.328
48961W        W21386  22.050   6.586  11.054
48962W        W21387  16.298  32.167  13.020
48963W        W21388  17.027  11.731  12.397
48964W        W21389  40.797  30.736  11.269
48965W        W21390  20.562  39.903  12.412
48966W        W21391  21.857   3.534  10.611
48967W        W21392  16.313  17.838  11.491
48968W        W21393   2.480  28.572  13.353
48969W        W21394  42.925  19.391   2.232
48970W        W21395   9.400  35.898  11.937
48971W        W21396   6.189  19.674   2.126
48972W        W21397   7.862  36.790  10.746
48973W        W21398   0.408  43.442   1.948
48974W        W21399   7.037   3.248  12.775
48975W        W21400  19.113  43.422   3.291
48976W        W21401   0.775  13.861  14.962
48977W        W21402   4.735   1.359  10.263
48978W        W21403  30.872  40.316   2.115
48979W        W21404   0.910  31.940   1.355
48980W        W21405  33.952  20.280   1.189
48981W        W21406  28.374  29.988  12.106
48982W        W21407  12.836  44.910   4.174
48983W        W21408  35.823  19.218  11.095
48984W        W21409   8.406   5.440   1.722
48985W        W21410  40.260   5.384  13.895
48986W        W21411   8.935  28.841  13.959
48987W        W21412  37.439  38.783  14.150
48988W        W21413  18.787  26.055   3.211
48989W        W21414  17.621  35.399   4.470
48990W        W21415  36.446  13.361   0.365
48991W        W21416  36.814   7.827   2.418
48992W        W21417  11.720   1.681   4.525
48993W        W21418  13.277  42.776  13.810
48994W        W21419  41.089  11.759  12.872
48995W        W21420  32.201  27.639   3.694
48996W        W21421  43.051  19.037   3.145
48997W        W21422  10.537  18.149   4.352
48998W        W21423  23.759  34.903   0.800
48999W        W21424  17.812  31.401   0.761
49000W        W21425  32.146  10.264  13.966
49001W        W21426   6.266  41.374  13.588
49002W        W21427  38.961  28.834  11.572
49003W        W21428  41.516  36.859   2.482
49004W        W21429  25.539  22.997  12.061
49005W        W21430   4.409  25.525   0.321
49006W        W21431  18.870   3.823   0.373
49007W        W21432  14.104  23.721   4.555
49008W        W21433  18.037   1.246   2.292
49009W        W21434  12.270  15.297  11.458
49010W        W21435  18.753  18.218   1.586
49011W        W21436  33.482   7.419  12.938
49012W        W21437  33.240   3.745  13.428
49013W        W21438  36.576  18.548   4.724
49014W        W21439  37.012  28.128  14.920
49015W        W21440  16.526  27.915   3.282
49016W        W21441  28.641   0.450   1.805
49017W        W21442  18.603  13.697  11.445
49018W        W21443   3.784  32.528  13.277
49019W        W21444  38.790  30.702   4.675
49020W        W21445  42.795   9.589   3.664
49021W        W21446  38.355  36.554   3.577
49022W        W21447  12.301  19.453  14.857
49023W        W21448  43.697  13.916  11.986
49024W        W21449  35.543  40.494   0.905
49025W        W21450  10.187   3.456   0.239
49026W        W21451  29.895  15.381   2.228
49027W        W21452   1.711  37.377  10.787
49028W        W21453  34.410   0.264   4.450
49029W        W21454  35.067  39.832  13.576
49030W        W21455  12.385  21.591   5.572
49031W        W21456   7.302  14.248   3.308
49032W        W21457  14.805  22.694   0.465
49033W        W21458  26.488  39.883  12.580
49034W        W21459  37.080   8.348   4.276
49035W        W21460  27.927  36.926   0.948
49036W        W21461   3.146   8.381   3.630
49037W        W21462  26.288   6.655  13.386
49038W        W21463  22.362  23.309   1.327
49039W        W21464  39.514  10.846  13.842
49040W        W21465  20.708   3.555   5.142
49041W        W21466  31.724  27.857   5.094
49042W        W21467   9.312  11.625  14.867
49043W        W21468  24.088  37.913  11.137
49044W        W21469  17.826  18.414  13.913
49045W        W21470  34.042  11.816   4.822
49046W        W21471  17.154   0.504  10.626
49047W        W21472  43.919  27.839  13.645
49048W        W21473  12.819   8.649   4.206
49049W        W21474  27.429  42.359  13.362
49050W        W21475  15.265  17.397  14.309
49051W        W21476  15.760   6.928  11.206
49052W        W21477  20.070  14.804   2.819
49053W        W21478  13.691  32.582   0.354
49054W        W21479   5.541  41.775   3.262
49055W        W21480  43.072  44.797  11.977
49056W        W21481  33.454  41.439   3.150
49057W        W21482   0.305   4.341  10.471
49058W        W21483   7.432  38.451   0.806
49059W        W21484  17.863  39.345   3.684
49060W        W21485  24.470   1.995   1.773
49061W        W21486  20.042  36.088  12.655
49062W        W21487  28.882  21.731   4.188
49063W        W21488  21.744  16.041   1.786
49064W        W21489  33.104  21.602  13.764
49065W        W21490   7.935   8.935   1.741
49066W        W21491  13.721   9.117  11.200
49067W        W21492  20.203  27.140   4.602
49068W        W21493   4.663  14.212  13.551
49069W        W21494  14.091  10.267  12.649
49070W        W21495  32.453  41.355   3.617
49071W        W21496  19.745   1.020  13.833
49072W        W21497  43.786  14.458  11.093
49073W        W21498  41.852  24.631  14.530
49074W        W21499  30.143  30.192  13.327
49075W        W21500  20.591   8.703  11.342
49076W        W21501  43.270  40.360  10.462
49077W        W21502  35.446   9.312   1.299
49078W        W21503  39.993  19.134  10.690
49079W        W21504  28.966  11.382  12.328
49080W        W21505   6.733  13.126   2.185
49081W        W21506   6.392  10.217   1.861
49082W        W21507  31.185  20.248   2.849
49083W        W21508  15.603  21.221  13.826
49084W        W21509  21.530  19.632   1.816
49085W        W21510   4.213   7.650  14.589
49086W        W21511   5.404   2.639   2.352
49087W        W21512  31.580  22.597  11.904
49088W        W21513   4.797  19.737  12.358
49089W        W21514  43.753  29.644   1.525
49090W        W21515   9.531  27.903  10.719
49091W        W21516  33.908  32.998  12.500
49092W        W21517   2.275  31.828  13.899
49093W        W21518   4.264  29.406  10.414
49094W        W21519  17.688  43.911   4.693
49095W        W21520  35.579  41.818   3.925
49096W        W21521  32.139  14.991  10.826
49097W        W21522  15.658   9.999  11.135
49098W        W21523   0.495  24.711   2.634
49099W        W21524  39.558  22.218  14.497
49100W        W21525  43.185  22.260  13.074
49101W        W21526  27.501  25.662  13.515
49102W        W21527   7.537  31.992   3.738
49103W        W21528  40.031  14.768  11.012
49104W        W21529  16.768   3.384  12.624
49105W        W21530  26.093  42.030  14.855
49106W        W21531  31.381  44.985  13.961
49107W        W21532  39.736  24.565  10.707
49108W        W21533  12.157  32.930  11.919
49109W        W21534  32.775  15.629  13.810
49110W        W21535  38.043  17.372  13.504
49111W        W21536  16.734   2.843  12.393
49112W        W21537  10.304  34.621   0.833
49113W        W21538  34.991  44.245   3.687
49114W        W21539  19.132   2.296   9.710
49115W        W21540  23.215   5.226  12.015
49116W        W21541  36.696   3.259  10.392
49117W        W21542  15.244  22.463   1.377
49118W        W21543  40.683  27.184  10.873
49119W        W21544   3.510   6.434   1.197
49120W        W21545   3.734  28.948   1.769
49121W        W21546  22.535  44.726  14.829
49122W        W21547   6.842  43.977  14.219
49123W        W21548  28.597  35.843   0.305
49124W        W21549  32.954   2.089   3.580
49125W        W21550   7.154   9.489  12.906
49126W        W21551  32.593  19.280  10.039
49127W        W21552  21.323  29.113   2.653
49128W        W21553  19.705  24.558  13.676
49129W        W21554  24.019  25.168   0.326
49130W        W21555  42.641   8.706  14.885
49131W        W21556   6.443  36.383  14.824
49132W        W21557  28.546  36.215   3.346
49133W        W21558   0.279  16.275  11.593
49134W        W21559   3.860  35.459  13.760
49135W        W21560   0.150  26.637  14.298
49136W        W21561  44.401  20.615  14.296
49137W        W21562  44.208  34.944  11.969
49138W        W21563  16.318  22.732   4.556
49139W        W21564  36.931  21.874   3.836
49140W        W21565  31.680  11.960   1.843
49141W        W21566   2.473   3.049  13.113
49142W        W21567  39.954  19.623  10.899
49143W        W21568  12.240  29.459   3.146
49144W        W21569  26.621  30.422   1.072
49145W        W21570  36.052  13.310   1.749
49146W        W21571  37.970  37.609   1.933
49147W        W21572   7.285  40.053   2.822
49148W        W21573  32.435  13.315  11.157
49149W        W21574  34.565  44.856   2.973
49150W        W21575  36.602   5.917   4.447
49151W        W21576  42.763  30.540  10.788
49152W        W21577   4.419   7.685   3.226
49153W        W21578  23.010  41.970  12.547
49154W        W21579  22.115  24.252  12.423
49155W        W21580  11.313  31.274  12.934
49156W        W21581   5.839  24.137   4.937
49157W        W21582   6.956  38.112   4.997
49158W        W21583  44.690  43.932   1.422
49159W        W21584  41.590  32.196  14.902
49160W        W21585   7.814  16.335  11.185
49161W        W21586   5.309  37.194   0.945
49162W        W21587  35.941  34.991   2.646
49163W        W21588   6.316  33.536  11.093
49164W        W21589  39.841  36.860   4.207
49165W        W21590   8.710   8.855  10.040
49166W        W21591  13.254  12.835  12.162
49167W        W21592  44.944   1.508  14.836
49168W        W21593  41.625  38.317  12.781
49169W        W21594  27.701  38.458  13.716
49170W        W21595   8.220  39.725  12.841
49171W        W21596  11.360  12.039  12.619
49172W        W21597   1.082  43.028   4.115
49173W        W21598  15.052  11.961  13.210
49174W        W21599  37.552  32.181   2.934
49175W        W21600   0.437  41.958   3.173
49176W        W21601  35.421  23.562  13.943
49177W        W21602  44.042  36.426   1.007
49178W        W21603  14.079  37.603  12.359
49179W        W21604  36.875   3.138  13.015
49180W        W21605  11.596  38.350   2.804
49181W        W21606  40.732  22.530  11.895
49182W        W21607  20.576  13.736  11.227
49183W        W21608  35.859  21.651   1.404
49184W        W21609  42.488   9.368  13.814
49185W        W21610  28.718  40.000  12.058
49186W        W21611  44.240  14.176  10.400
49187W        W21612  33.863  19.739   2.281
49188W        W21613  16.634  21.443   0.758
49189W        W21614  30.877  18.171  11.189
49190W        W21615  19.745  42.752   1.413
49191W        W21616  33.554   8.236  14.424
49192W        W21617  36.960  35.538   0.369
49193W        W21618  27.571  10.590  11.950
49194W        W21619  16.186  19.856  14.337
49195W        W21620  19.340  35.272   1.615
49196W        W21621  21.481  27.528   3.224
49197W        W21622  24.980  36.898  13.921
49198W        W21623  22.284  32.334   1.928
49199W        W21624   1.305  11.640   0.705
49200W        W21625   2.753  18.360  14.157
49201W        W21626   6.368  27.228  12.924
49202W        W21627  35.838  40.028   2.915
49203W        W21628  24.193   5.224  11.844
49204W        W21629  36.725  37.815  14.770
49205W        W21630  28.138  20.188  11.587
49206W        W21631  39.010  32.532   2.651
49207W        W21632   1.197  37.780   0.544
49208W        W21633  38.982  22.740   1.793
49209W        W21634   9.592   7.253  10.318
49210W        W21635   9.301  23.949  10.764
49211W        W21636  30.141   3.395   1.310
49212W        W21637  35.804  29.435  14.857
49213W        W21638   7.712   0.669   4.328
49214W        W21639  39.064  40.291  11.474
49215W        W21640   0.139  10.660   4.650
49216W        W21641  26.944   6.799  11.671
49217W        W21642  31.045  32.314   1.453
49218W        W21643  16.195  31.123   2.903
49219W        W21644   0.844  24.648   1.209
49220W        W21645   0.269  16.123   0.292
49221W        W21646  13.745  43.227   0.674
49222W        W21647  15.250  16.185  14.256
49223W        W21648  39.501  38.975  14.458
49224W        W21649   1.847  20.826   0.454
49225W        W21650  31.219  23.316  11.481
49226W        W21651  37.558  39.056  13.345
49227W        W21652   2.040  39.813  11.586
49228W        W21653  17.282  40.396   3.160
49229W        W21654  22.763  32.624   4.682
49230W        W21655  11.860  21.495   2.206
49231W        W21656  44.366  30.496  14.308
49232W        W21657   0.179  24.050   0.465
49233W        W21658   0.218  35.396   1.789
49234W        W21659  15.901   3.347   4.990
49235W        W21660  11.219  39.582   3.787
49236W        W21661  26.242  31.091   2.147
49237W        W21662  13.714   8.686  14.553
49238W        W21663  15.737  32.402   1.881
49239W        W21664  29.171  16.323  11.615
49240W        W21665  13.117  21.913  11.538
49241W        W21666  19.711   5.387   1.261
49242W        W21667  32.407  19.688   3.866
49243W        W21668  10.394  34.838   1.828
49244W        W21669   2.733  34.638  14.914
49245W        W21670  10.018   8.322   4.153
49246W        W21671  33.777   9.579   4.302
49247W        W21672  42.500  24.304  12.570
49248W        W21673  23.544  39.077  14.486
49249W        W21674   7.176  12.165   1.956
49250W        W21675  25.145  22.007   4.193
49251W        W21676   9.098  23.702   0.441
49252W        W21677  11.944  25.550   1.932
49253W        W21678  39.457  38.852   0.756
49254W        W21679  38.558  24.057   0.821
49255W        W21680  32.306  35.308  13.458
49256W        W21681  18.134  21.637   1.402
49257W        W21682  20.350  37.943   4.657
49258W        W21683  42.257  43.314  14.822
49259W        W21684  36.711  26.522   5.332
49260W        W21685  39.370  41.716  10.152
49261W        W21686  34.046   5.362   4.757
49262W        W21687  17.712   8.971  12.900
49263W        W21688  16.464  21.117  14.005
49264W        W21689  14.240  24.526   0.863
49265W        W21690  19.764   3.028   0.263
49266W        W21691  15.735  17.043   0.824
49267W        W21692  26.318   8.691   1.604
49268W        W21693   3.426   0.945   2.225
49269W        W21694  29.916  31.536   2.100
49270W        W21695  29.054  38.357   1.395
49271W        W21696   5.729  20.535   3.274
49272W        W21697   4.220  35.334   4.943
49273W        W21698  22.929  36.981  10.671
49274W        W21699  12.240  27.859   0.963
49275W        W21700  26.021  18.782  12.035
49276W        W21701  12.200  22.207  11.623
49277W        W21702  24.760  25.976  13.414
49278W        W21703   5.748  44.698  13.796
49279W        W21704  31.490  19.990  13.596
49280W        W21705  12.237  24.119  13.442
49281W        W21706  22.389   0.941   5.088
49282W        W21707  35.332  38.562  11.099
49283W        W21708  17.840   9.799  13.481
49284W        W21709  28.459  11.414   0.382
49285W        W21710  42.110   1.276   0.101
49286W        W21711   6.877  17.342  12.436
49287W        W21712  34.083  17.115   0.027
49288W        W21713  37.760   8.396   2.231
49289W        W21714  31.736  24.451  12.554
49290W        W21715  34.487  42.462  14.471
49291W        W21716  20.584  41.585   3.269
49292W        W21717  35.815  29.585   4.724
49293W        W21718  36.485  18.314  12.374
49294W        W21719  27.976   4.700   3.792
49295W        W21720  14.520   9.661  14.872
49296W        W21721  18.594  30.597   2.105
49297W        W21722  21.306   8.689  12.432
49298W        W21723   9.547   0.200  12.177
49299W        W21724  38.070   2.947   0.349
49300W        W21725   6.807   8.989  10.641
49301W        W21726  17.556  19.888   3.223
49302W        W21727  23.050  33.150  10.668
49303W        W21728  26.686  31.587   0.560
49304W        W21729   6.436  19.301   1.820
49305W        W21730  10.233  27.406   5.046
49306W        W21731  10.137  43.338   0.009
49307W        W21732   3.087  40.312   5.103
49308W        W21733  26.072  12.883  13.560
49309W        W21734  13.269  11.839  11.917
49310W        W21735   0.048  28.430  12.591
49311W        W21736  33.615  17.325   3.997
49312W        W21737  17.058   6.336   2.565
49313W        W21738  41.330   7.685   4.082
49314W        W21739  13.878  16.675  13.304
49315W        W21740  26.651  41.648  10.104
49316W        W21741   0.439   5.088  13.321
49317W        W21742  42.255  26.969  14.923
49318W        W21743  42.428   6.629  11.983
49319W        W21744  25.738  15.280   3.710
49320W        W21745  41.413  25.652  10.643
49321W        W21746  10.781  27.183  10.704
49322W        W21747  41.572  19.813   1.921
49323W        W21748  43.723  23.434   4.519
49324W        W21749  10.616   0.204   3.272
49325W        W21750  41.818  31.902  11.754
49326W        W21751  18.830  29.428  10.919
49327W        W21752  39.907  37.052  12.933
49328W        W21753  20.247  17.884  14.844
49329W        W21754  12.399  17.689  14.966
49330W        W21755   1.387   0.400  12.807
49331W        W21756   3.177  22.046  11.829
49332W        W21757  35.598  27.189   2.863
49333W        W21758  12.064  34.980   1.433
49334W        W21759   6.932  35.980   4.741
49335W        W21760  29.448  24.290  10.613
49336W        W21761  12.606  18.603  14.926
49337W        W21762  42.046   6.261  13.818
49338W        W21763  31.452  10.338   2.613
49339W        W21764  40.866  37.602   0.550
49340W        W21765  24.033  34.057  13.886
49341W        W21766  31.435  13.025   4.266
49342W        W21767   8.776   6.955  13.384
49343W        W21768  28.488  18.212  13.087
49344W        W21769  20.478  22.272  11.089
49345W        W21770  44.394  35.112  13.285
49346W        W21771  29.690  32.495   0.516
49347W        W21772  39.266  43.400  11.920
49348W        W21773  26.140  16.524  13.073
49349W        W21774  11.117  28.171  12.076
49350W        W21775  11.524  15.127   3.717
49351W        W21776   9.283  29.121  14.944
49352W        W21777  42.864  40.099   1.002
49353W        W21778   0.948  30.882   1.506
49354W        W21779  16.089  28.852   1.233
49355W        W21780  34.394   3.850   4.129
49356W        W21781  39.598  44.242   0.251
49357W        W21782  44.592  11.634   2.119
49358W        W21783  41.307  41.050  13.909
49359W        W21784  13.285   3.863   0.533
49360W        W21785  39.007   7.367   3.037
49361W        W21786  43.512   5.761   0.311
49362W        W21787   0.881   7.637   4.024
49363W        W21788  33.581  40.348  14.677
49364W        W21789  36.486  23.279  12.095
49365W        W21790  17.099  25.188  11.531
49366W        W21791  31.534  22.260   2.363
49367W        W21792  26.955  27.965   3.827
49368W        W21793  42.858  12.601  10.984
49369W        W21794   3.370  26.099   4.694
49370W        W21795   5.907  17.152   2.798
49371W        W21796  24.500   2.524  13.901
49372W        W21797  28.566  11.662  10.984
49373W        W21798   6.501   9.132   4.166
49374W        W21799   7.639   5.736  12.983
49375W        W21800  11.740  20.445  12.012
49376W        W21801  38.292  37.638  12.593
49377W        W21802  33.140  36.905   0.696
49378W        W21803   6.913  25.669  12.065
49379W        W21804  26.525  35.156   2.463
49380W        W21805  14.737   6.327  14.482
49381W        W21806  19.019  40.681  11.036
49382W        W21807  29.712  33.405  11.559
49383W        W21808  22.203  20.371   1.230
49384W        W21809  36.497  14.308   4.562
49385W        W21810   7.622   9.262  12.910
49386W        W21811  22.986  29.292   0.428
49387W        W21812  13.635   1.911  10.803
49388W        W21813  29.874  41.963   3.256
49389W        W21814  35.347   2.663  11.451
49390W        W21815  23.027  28.497  12.399
49391W        W21816  38.505  32.933  11.378
49392W        W21817   8.510   9.091  12.908
49393W        W21818  18.157  23.565  14.948
49394W        W21819  28.221  44.509   9.755
49395W        W21820  20.994  42.344   0.945
49396W        W21821  18.605  24.630  12.315
49397W        W21822  12.906  16.230   1.387
49398W        W21823  26.300  34.395   2.423
49399W        W21824  19.460  36.123  11.158
49400W        W21825  41.839  23.110  14.823
49401W        W21826   3.386  10.202  13.902
49402W        W21827   5.445   9.663  12.489
49403W        W21828   8.373  39.410   1.919
49404W        W21829  37.391  12.056   2.628
49405W        W21830   3.218  10.444  14.337
49406W        W21831   1.762   5.262   2.437
49407W        W21832  39.824   2.013  13.504
49408W        W21833   8.730  31.181  14.351
49409W        W21834   8.114  44.985  13.032
49410W        W21835   9.316  36.943   1.187
49411W        W21836  21.487  24.067   2.378
49412W        W21837  31.575  21.269   4.469
49413W        W21838  22.799  11.334   3.284
49414W        W21839  32.105   3.524   4.244
49415W        W21840   9.529  34.330   2.684
49416W        W21841   0.109  16.996   0.766
49417W        W21842  41.244  11.901   0.044
49418W        W21843  43.611   0.623  11.194
49419W        W21844  29.215  21.511   0.340
49420W        W21845  41.871   4.969   2.295
49421W        W21846  35.927  39.810  14.754
49422W        W21847  27.963   2.461  12.105
49423W        W21848  31.963  38.792  10.623
49424W        W21849  17.642  10.719   1.500
49425W        W21850   6.232  24.884  11.136
49426W        W21851  28.643  38.671   1.312
49427W        W21852  44.034  40.907   3.767
49428W        W21853  14.309   2.190  14.404
49429W        W21854  43.866   4.120   2.348
49430W        W21855   5.791  26.106   3.157
49431W        W21856   8.283  37.489   0.791
49432W        W21857  29.788  34.203   0.481
49433W        W21858  22.072  32.432  10.676
49434W        W21859   9.792  27.457   2.648
49435W        W21860   0.684  37.104  11.905
49436W        W21861  13.052   2.636  11.135
49437W        W21862   7.735  14.755   0.812
49438W        W21863  33.055   5.784   3.209
49439W        W21864  18.444  35.504  13.317
49440W        W21865   3.952  40.764  12.158
49441W        W21866  27.088  35.817   3.185
49442W        W21867  11.754   9.991   3.173
49443W        W21868  33.523  11.247  14.081
49444W        W21869  19.333  24.727  11.139
49445W        W21870  22.342  10.644  12.879
49446W        W21871  17.624  44.235  14.424
49447W        W21872  12.613  19.168   4.832
49448W        W21873  28.689  10.666  10.929
49449W        W21874  11.714   2.967   4.114
49450W        W21875  37.909  36.077   3.075
49451W        W21876  37.902  34.474   1.392
49452W        W21877   1.384   3.872  12.643
49453W        W21878  44.981   1.973   5.199
49454W        W21879   5.893  16.544   4.451
49455W        W21880  35.591  24.481  14.991
49456W        W21881  23.198   9.690   4.696
49457W        W21882  39.430  26.461   0.984
49458W        W21883  35.814  24.580   4.069
49459W        W21884  12.840   3.365  13.502
49460W        W21885  21.776  35.342  14.947
49461W        W21886   3.974  37.924   1.995
49462W        W21887  12.542  32.977   1.306
49463W        W21888  35.452  39.986  14.944
49464W        W21889   6.500  40.005   3.367
49465W        W21890  41.217  21.161  11.088
49466W        W21891  34.517  35.529  12.291
49467W        W21892  26.738  16.594  12.486
49468W        W21893  11.224  31.995   0.212
49469W        W21894  23.385  21.164   0.652
49470W        W21895   3.933   7.274   1.159
49471W        W21896   5.001  14.076  10.935
49472W        W21897  24.577  44.512  13.830
49473W        W21898  36.127  36.823   4.521
49474W        W21899  35.843   3.782  13.291
49475W        W21900   8.783  44.240   3.884
49476W        W21901  24.066  32.605  13.920
49477W        W21902  22.577  14.602  13.409
49478W        W21903   4.577  36.355   3.838
49479W        W21904  44.248  18.096  10.380
49480W        W21905  18.138  25.317  11.989
49481W        W21906  34.544  35.922   2.335
49482W        W21907   5.335  30.945   4.907
49483W        W21908  19.474  23.322   4.134
49484W        W21909  18.619   6.630   4.633
49485W        W21910  38.869   6.237  13.951
49486W        W21911  14.068  24.764  13.454
49487W        W21912  41.837  39.562  14.002
49488W        W21913  12.052   5.975  11.560
49489W        W21914  10.645  22.116  10.407
49490W        W21915  35.897   0.505   4.605
49491W        W21916  43.611  17.767  12.439
49492W        W21917  13.592  41.362   1.755
49493W        W21918  14.328  31.587   2.361
49494W        W21919  19.909  12.909  12.757
49495W        W21920  26.158   0.300  13.073
49496W        W21921  32.795  21.053   2.797
49497W        W21922  42.326   6.802   1.719
49498W        W21923  33.355  38.729   0.762
49499W        W21924  25.204   0.939  13.952
49500W        W21925  12.584  30.558  14.366
49501W        W21926   9.169  40.135  14.397
49502W        W21927  32.957   5.318  10.441
49503W        W21928  24.506   4.991   4.136
49504W        W21929   2.290   0.379   2.748
49505W        W21930  34.062  35.088  11.943
49506W        W21931  42.773  27.593  12.070
49507W        W21932  28.896   3.673   4.040
49508W        W21933  20.789  10.692   3.713
49509W        W21934  31.843   8.833  11.606
49510W        W21935   7.726  30.535  12.193
49511W        W21936   7.010   7.714  14.464
49512W        W21937  22.246  12.895  13.808
49513W        W21938   1.795  14.116  14.278
49514W        W21939  39.496  38.350   2.199
49515W        W21940   7.221  22.344   3.607
49516W        W21941  18.279  20.645   1.411
49517W        W21942  16.102  30.515  12.196
49518W        W21943  29.645  42.838  12.837
49519W        W21944   3.698  30.336  11.216
49520W        W21945  24.320  40.455   3.711
49521W        W21946  18.338  18.587   1.409
49522W        W21947  29.736   5.427  13.905
49523W        W21948  17.057  10.956  12.953
49524W        W21949  15.166  34.965   3.402
49525W        W21950  35.693   8.718   3.624
49526W        W21951  34.204  28.592  11.244
49527W        W21952  35.933   3.334   4.565
49528W        W21953  21.260   6.839  11.489
49529W        W21954  15.531  17.520  13.597
49530W        W21955  17.660  35.072  10.683
49531W        W21956  43.831   0.120  14.690
49532W        W21957  19.674  17.786  10.467
49533W        W21958   7.108  27.538  12.294
49534W        W21959   9.039  29.465   0.595
49535W        W21960  20.037  19.660  13.184
49536W        W21961  16.214  35.355  14.898
49537W        W21962  42.542  23.386  11.849
49538W        W21963   1.386   7.436   2.729
49539W        W21964  31.633   3.766  10.649
49540W        W21965  44.979   8.203  14.082
49541W        W21966  37.378  31.901   4.782
49542W        W21967   2.272  36.309  11.188
49543W        W21968   0.705  35.853  11.681
49544W        W21969  25.428  42.982  12.111
49545W        W21970  10.919   0.738   4.092
49546W        W21971  14.343  31.981   3.214
49547W        W21972   9.149  44.983   2.796
49548W        W21973   7.241  22.817   4.372
49549W        W21974   3.671  17.927  12.526
49550W        W21975  26.157  20.089   0.941
49551W        W21976   0.777  17.841  11.093
49552W        W21977   0.867  28.670   1.067
49553W        W21978  19.570   6.882  12.559
49554W        W21979  44.976  36.046   2.198
49555W        W21980  35.044  16.330  13.046
49556W        W21981  14.566  24.116  13.900
49557W        W21982  37.492   0.272  11.197
49558W        W21983  16.854   4.295   1.208
49559W        W21984  32.571  29.569   3.708
49560W        W21985  33.459   4.787   3.750
49561W        W21986  33.467  38.816   2.289
49562W        W21987  18.395   7.544   4.855
49563W        W21988  38.443  39.454   2.293
49564W        W21989  27.591  40.788  12.635
49565W        W21990  28.486  12.750  12.386
49566W        W21991   0.787  25.461  14.339
49567W        W21992  12.900  37.407  14.959
49568W        W21993  22.813  13.587   1.482
49569W        W21994  14.165  16.738  14.203
49570W        W21995   6.751   8.439  13.599
49571W        W21996  41.617  41.424   3.347
49572W        W21997  31.001  42.596   3.308
49573W        W21998  39.559  28.572  11.082
49574W        W21999  28.730  33.838  10.244
49575W        W22000  22.665  22.494  12.089
49576W        W22001  21.657  21.457  11.711
49577W        W22002  42.444  41.281   2.865
49578W        W22003  32.407  21.208  14.335
49579W        W22004   9.641  10.413  10.240
49580W        W22005  35.494   0.781  11.619
49581W        W22006   4.202  18.020  12.495
49582W        W22007  12.683  36.904  13.742
49583W        W22008  19.973  44.819  12.662
49584W        W22009   7.210  16.632  13.503
49585W        W22010  31.402  22.109   2.847
49586W        W22011   4.236   3.370  14.525
49587W        W22012  22.103  22.570   0.290
49588W        W22013  10.115   6.775  14.755
49589W        W22014  13.837  36.360   4.692
49590W        W22015   0.729  23.921   4.616
49591W        W22016  43.508   4.126   0.265
49592W        W22017  15.222  22.176   4.272
49593W        W22018  39.430  26.682  11.268
49594W        W22019  38.897   9.261   1.224
49595W        W22020   9.324  20.328  13.357
49596W        W22021  18.708  36.321  10.669
49597W        W22022  33.663  33.319   3.106
49598W        W22023  20.585  37.327   2.790
49599W        W22024   8.424  39.099  11.050
49600W        W22025  15.471  23.060  14.163
49601W        W22026   2.402  16.072  12.464
49602W        W22027  15.939  42.676   4.887
49603W        W22028  23.663  15.257  12.529
49604W        W22029  18.261  30.122   4.977
49605W        W22030   2.476  16.858   1.723
49606W        W22031  14.158  20.922   0.780
49607W        W22032   0.840   3.949   2.696
49608W        W22033  18.758  38.020   3.819
49609W        W22034  13.808  13.143   2.364
49610W        W22035  41.973  25.565  12.583
49611W        W22036  34.879  28.115   4.833
49612W        W22037  42.921  24.022  12.452
49613W        W22038   7.835   5.815  13.945
49614W        W22039  20.582  34.851   0.258
49615W        W22040  41.055  40.901   2.171
49616W        W22041   0.939  28.977  13.103
49617W        W22042  18.349   8.487  13.530
49618W        W22043  24.401  10.072  13.572
49619W        W22044  15.072  35.951  13.375
49620W        W22045  43.586  30.488  12.066
49621W        W22046   4.761   6.991   0.864
49622W        W22047  33.819  18.641   0.836
49623W        W22048  35.404  10.647   4.639
49624W        W22049  19.731  41.342  11.967
49625W        W22050   1.871  21.532  10.892
49626W        W22051  33.418  23.858   4.987
49627W        W22052  27.512  35.468  12.120
49628W        W22053  16.852   8.641   4.929
49629W        W22054  35.038  14.310  13.363
49630W        W22055  10.457  23.165   3.700
49631W        W22056  14.711   0.965  11.125
49632W        W22057  15.995  21.277  10.598
49633W        W22058   2.751  30.823  12.600
49634W        W22059  36.088  29.970   3.555
49635W        W22060  25.243  13.580  14.907
49636W        W22061  32.447  16.717   3.798
49637W        W22062  26.946  31.159  12.553
49638W        W22063  24.960  20.747   3.830
49639W        W22064  20.010  22.905   0.746
49640W        W22065  20.984   3.014  10.910
49641W        W22066   9.214  36.773  14.862
49642W        W22067   7.199  29.538  13.320
49643W        W22068  15.363   5.848  11.480
49644W        W22069  36.359  13.204   2.164
49645W        W22070  42.996  36.024   2.308
49646W        W22071  40.421  36.907   3.791
49647W        W22072  20.092  37.296  10.093
49648W        W22073  16.243   8.596   4.669
49649W        W22074  26.331   5.178   3.613
49650W        W22075  29.893  20.547  14.429
49651W        W22076  20.109  28.905  14.064
49652W        W22077  18.954  31.118   2.715
49653W        W22078  38.025  31.791   3.614
49654W        W22079  22.673  28.643  12.038
49655W        W22080   6.885  15.886   0.052
49656W        W22081  35.703   0.348   4.154
49657W        W22082  38.981  43.870   5.083
49658W        W22083  27.577  32.365  14.938
49659W        W22084  29.964   7.935  12.158
49660W        W22085  16.184  14.032  11.548
49661W        W22086   3.616  18.686   3.804
49662W        W22087  37.049  35.583  14.628
49663W        W22088  16.822  36.646  12.110
49664W        W22089  41.927  33.629   3.727
49665W        W22090  35.678  35.831   4.190
49666W        W22091  14.004   4.326   2.671
49667W        W22092  41.078  39.768   1.896
49668W        W22093  23.702  20.245  11.172
49669W        W22094  43.834   6.414  11.886
49670W        W22095  18.490  24.732   4.655
49671W        W22096  27.064  36.091  11.177
49672W        W22097  44.840   4.120  14.105
49673W        W22098  35.291  20.138   3.327
49674W        W22099  30.975  28.121  14.799
49675W        W22100  17.371  24.141   1.194
49676W        W22101   1.952  38.010   1.771
49677W        W22102  38.744   7.203   4.686
49678W        W22103  13.087   3.355   1.779
49679W        W22104  25.141   6.307  13.845
49680W        W22105   6.550   1.365  10.634
49681W        W22106  18.692  23.961  14.037
49682W        W22107   8.177   7.820   2.330
49683W        W22108  16.871   3.429  13.507
49684W        W22109  17.768  27.219   2.026
49685W        W22110  33.144  23.070   3.633
49686W        W22111  28.971  21.007   3.795
49687W        W22112  37.999  14.254   2.863
49688W        W22113  11.391   8.128   2.213
49689W        W22114   4.953  17.113   2.949
49690W        W22115  31.635  33.379  10.463
49691W        W22116  23.715  26.527   4.180
49692W        W22117  15.311  10.605   2.880
49693W        W22118   5.899  25.425  13.072
49694W        W22119   3.239  19.449   3.736
49695W        W22120  27.042  39.522  13.297
49696W        W22121  19.562   9.730   1.613
49697W        W22122  29.964  22.571   2.854
49698W        W22123  38.721  31.889   0.806
49699W        W22124  27.019  26.841   4.450
49700W        W22125  17.494  21.593   0.782
49701W        W22126  24.117  22.933   5.451
49702W        W22127  41.743  15.272   0.314
49703W        W22128  18.646  27.383  13.910
49704W        W22129   3.242  26.537   1.348
49705W        W22130   4.722  39.910  12.999
49706W        W22131   4.199  30.208   0.338
49707W        W22132   0.974  13.547  12.409
49708W        W22133   9.825  19.603  14.917
49709W        W22134   3.165   7.864  13.966
49710W        W22135  23.597   8.274  12.650
49711W        W22136  12.936  11.320  14.400
49712W        W22137  34.813  35.519   0.360
49713W        W22138  32.610   0.484   1.005
49714W        W22139  28.646   0.545   0.450
49715W        W22140  12.822  14.422   4.142
49716W        W22141   5.492  35.534   2.921
49717W        W22142   4.676  24.929  10.070
49718W        W22143  41.232   1.485  10.598
49719W        W22144  32.869  17.255  13.591
49720W        W22145  12.279  39.530   4.950
49721W        W22146  12.400  24.578  10.877
49722W        W22147  42.258  20.014   3.661
49723W        W22148  14.061  38.859  12.704
49724W        W22149   5.817  34.530  11.105
49725W        W22150  31.312   9.802  11.540
49726W        W22151  44.411   0.836  10.707
49727W        W22152   7.849  23.515   2.304
49728W        W22153   8.627  25.184   1.168
49729W        W22154  24.927  29.987   2.653
49730W        W22155  26.670  34.462   0.947
49731W        W22156  24.063  18.860   2.182
49732W        W22157  43.347  20.192   0.824
49733W        W22158  26.700  26.889  14.736
49734W        W22159  17.827  22.006   0.699
49735W        W22160  42.128  21.505  12.572
49736W        W22161  18.626   1.886   0.689
49737W        W22162   5.784  18.285  10.942
49738W        W22163  43.299  44.026  10.379
49739W        W22164  44.788  38.511  13.429
49740W        W22165   2.162  34.337  12.107
49741W        W22166  10.616  33.031   3.391
49742W        W22167  22.648  43.220  13.309
49743W        W22168  24.796   5.438   4.205
49744W        W22169  37.046  12.438  13.402
49745W        W22170  41.338  38.886  12.443
49746W        W22171   5.438  17.549  14.822
49747W        W22172  17.217  10.262  12.497
49748W        W22173  27.586  29.485   2.782
49749W        W22174  10.234  26.985  11.956
49750W        W22175  16.707  23.987  11.479
49751W        W22176   4.737  25.650   2.944
49752W        W22177  19.614  40.064   2.382
49753W        W22178  37.908  42.945   3.552
49754W        W22179  43.080  28.165   4.551
49755W        W22180  30.029  18.706  13.750
49756W        W22181  16.779   6.184   1.452
49757W        W22182   0.850   2.319   3.872
49758W        W22183   1.436   4.772  13.347
49759W        W22184  31.443  19.693  14.083
49760W        W22185  12.782  15.663  14.193
49761W        W22186  34.572  36.673   1.014
49762W        W22187  38.526  18.680   4.278
49763W        W22188  29.495   4.131  10.850
49764W        W22189  32.687  23.236   3.821
49765W        W22190   8.793  16.554   2.689
49766W        W22191  32.300  33.933   3.263
49767W        W22192   2.281  17.717  14.377
49768W        W22193  24.119  20.613  13.046
49769W        W22194  10.320  34.333  10.619
49770W        W22195  18.529   6.777   0.890
49771W        W22196   7.905  16.342   1.723
49772W        W22197  23.223  33.159   0.934
49773W        W22198   4.744  29.659  10.361
49774W        W22199  16.750  12.282  12.487
49775W        W22200  20.352  24.084  12.127
49776W        W22201  19.845  10.735  13.951
49777W        W22202   1.853  44.359  11.530
49778W        W22203  44.290  29.152  11.272
49779W        W22204  35.002   6.875  12.766
49780W        W22205  27.111  36.487  14.322
49781W        W22206  37.849  29.661   2.882
49782W        W22207   6.691  43.829   1.732
49783W        W22208  42.220  42.626  10.686
49784W        W22209  44.556  41.781   4.774
49785W        W22210   6.427   3.513   1.907
49786W        W22211  41.535  43.457   2.869
49787W        W22212  38.873  44.921  12.977
49788W        W22213   4.432  26.136   1.531
49789W        W22214  30.184  14.411   2.117
49790W        W22215  38.245  11.317   3.762
49791W        W22216  14.267   4.449   2.228
49792W        W22217   8.855  25.082   4.287
49793W        W22218  26.061  28.215  12.955
49794W        W22219   8.525  23.658  11.910
49795W        W22220  19.301  23.131   0.367
49796W        W22221  37.665  33.819   3.143
49797W        W22222  33.244  41.004  11.163
49798W        W22223  41.587  20.415   0.052
49799W        W22224  34.525  16.813   0.576
49800W        W22225  43.160  10.063  12.534
49801W        W22226  42.026  26.307   0.380
49802W        W22227   9.946  20.628  12.400
49803W        W22228  33.090   5.879   4.219
49804W        W22229  12.254   8.817  12.643
49805W        W22230  39.013   4.823  10.101
49806W        W22231  30.132   2.956   4.666
49807W        W22232   2.761   7.623  14.544
49808W        W22233  38.501  29.879   4.538
49809W        W22234  41.776  17.741  12.037
49810W        W22235   4.776  18.445  11.094
49811W        W22236  25.779  13.805   1.214
49812W        W22237  36.543  23.066   2.222
49813W        W22238  15.361  31.560  13.823
49814W        W22239  33.913  18.085  12.454
49815W        W22240  24.797  43.793   2.139
49816W        W22241  28.093   3.311  13.805
49817W        W22242   3.205  24.682  14.439
49818W        W22243  18.044  31.061  11.876
49819W        W22244  17.748  23.742  12.328
49820W        W22245  12.781   5.401   3.719
49821W        W22246  41.773  15.133   0.810
49822W        W22247   5.579  10.732  12.371
49823W        W22248  32.152  17.450  10.376
49824W        W22249   6.792  43.050   3.383
49825W        W22250  14.139  20.182   0.304
49826W        W22251  18.405  31.854  12.217
49827W        W22252  15.821  39.332  13.512
49828W        W22253  21.326  10.070  11.556
49829W        W22254  14.151  28.516  14.340
49830W        W22255  35.591   2.003  14.393
49831W        W22256  39.592  28.965  10.762
49832W        W22257  19.146  12.144  14.493
49833W        W22258  36.354  41.326  14.288
49834W        W22259  32.469  43.107   3.286
49835W        W22260  23.347   3.387   3.607
49836W        W22261  19.070  20.731   2.758
49837W        W22262   3.980  38.987  11.101
49838W        W22263   7.863  36.844  13.831
49839W        W22264   0.176  23.627   1.600
49840W        W22265  40.310  37.744   4.183
49841W        W22266  34.287  27.071   4.125
49842W        W22267  24.136   5.438  11.374
49843W        W22268  28.022  37.344   1.798
49844W        W22269  25.104  20.059  14.001
49845W        W22270  41.114  32.933  13.912
49846W        W22271  22.046  44.832  12.768
49847W        W22272  18.782   3.035  13.069
49848W        W22273   6.270   7.695  12.052
49849W        W22274  11.273  28.242   2.401
49850W        W22275  25.746  41.780  11.514
49851W        W22276  18.261  26.022  13.704
49852W        W22277  28.654  16.236  12.383
49853W        W22278  39.776   7.768  10.952
49854W        W22279  36.440   5.337   3.686
49855W        W22280  18.608  24.727  10.554
49856W        W22281  38.102   8.248   4.057
49857W        W22282  33.698   0.854   1.421
49858W        W22283  34.117  17.744   4.668
49859W        W22284  28.864   1.468   0.306
49860W        W22285  22.210  24.747  12.624
49861W        W22286  20.866  19.746  12.176
49862W        W22287  26.630  30.440   2.635
49863W        W22288   1.657  39.559   4.239
49864W        W22289  37.981  36.147   0.081
49865W        W22290  37.449  26.761   4.938
49866W        W22291   7.708  11.256   0.654
49867W        W22292   1.684  27.279  12.876
49868W        W22293  42.922   0.259  13.536
49869W        W22294  28.947  32.932  14.510
49870W        W22295  12.763  44.080  13.674
49871W        W22296  23.743  35.517  13.352
49872W        W22297  10.381  28.534  13.514
49873W        W22298  26.574  12.193   2.008
49874W        W22299   9.751  20.687  14.073
49875W        W22300  38.064  30.960  11.634
49876W        W22301  37.435  41.449   1.260
49877W        W22302  11.169  28.695  11.531
49878W        W22303   7.247  14.568  12.468
49879W        W22304  35.886   1.451   2.272
49880W        W22305   9.209  27.054  10.776
49881W        W22306  12.735  34.902   4.896
49882W        W22307  23.423  11.257  12.350
49883W        W22308  15.648  30.213  11.103
49884W        W22309   0.779   7.071  10.068
49885W        W22310   1.851  41.382   2.069
49886W        W22311  22.938  20.107   2.278
49887W        W22312  25.550  17.973   4.163
49888W        W22313  30.553   5.418  11.590
49889W        W22314  12.944  22.976  13.519
49890W        W22315  42.454  37.424   2.395
49891W        W22316  36.619   8.348   4.548
49892W        W22317   1.884  19.057   4.138
49893W        W22318  21.949  37.472   0.666
49894W        W22319  30.882  32.964  14.920
49895W        W22320  34.054  23.979   4.253
49896W        W22321   4.406  40.249  11.476
49897W        W22322  31.907  34.795   3.655
49898W        W22323   2.947  44.916   0.461
49899W        W22324  34.062   9.198  12.070
49900W        W22325  11.349  38.630  11.155
49901W        W22326  17.725  28.127   4.799
49902W        W22327   7.329  33.971   3.648
49903W        W22328  32.381  35.611   2.132
49904W        W22329  44.092  15.700  14.956
49905W        W22330  24.548  29.407   4.427
49906W        W22331  30.348  18.085  11.197
49907W        W22332  39.790   1.854   0.221
49908W        W22333  18.802  26.844  11.724
49909W        W22334  11.317  36.448  10.608
49910W        W22335  15.745   8.797   4.648
49911W        W22336  10.673   6.929  14.834
49912W        W22337  42.245  13.647   1.846
49913W        W22338  43.222  30.465   4.176
49914W        W22339  10.807   7.697   4.928
49915W        W22340  22.527  15.715  14.914
49916W        W22341  30.005  23.968   0.374
49917W        W22342  24.981  26.953  11.521
49918W        W22343   5.216  16.584  12.090
49919W        W22344   0.819  43.578   3.688
49920W        W22345  22.011   9.267  14.821
49921W        W22346  38.668   1.235   3.208
49922W        W22347   9.892   8.477  14.553
49923W        W22348  34.490   1.207   2.265
49924W        W22349  26.736  16.227  13.821
49925W        W22350  42.016  18.834   4.176
49926W        W22351   2.725  15.107   4.546
49927W        W22352  31.184  26.590   0.707
49928W        W22353   2.391   5.470   3.635
49929W        W22354  26.011  36.493  13.825
49930W        W22355  26.033  17.052   4.905
49931W        W22356  15.064  14.703   0.782
49932W        W22357  11.131  32.957   1.671
49933W        W22358  37.767  26.061   3.234
49934W        W22359  39.488  26.527  12.648
49935W        W22360   7.098   1.425   1.770
49936W        W22361  11.170  34.461   1.234
49937W        W22362  33.658   2.324  13.234
49938W        W22363  18.452  27.321  10.595
49939W        W22364  15.700  16.731   3.711
49940W        W22365  43.315  36.755   0.457
49941W        W22366  22.115   5.784   2.186
49942W        W22367  43.266  41.826  11.539
49943W        W22368  21.598  12.657  11.553
49944W        W22369  24.883  12.895  12.875
49945W        W22370  23.545  42.428  11.878
49946W        W22371  19.233  18.639  13.909
49947W        W22372  22.866  21.131   2.264
49948W        W22373  35.980  18.021   1.919
49949W        W22374   6.484   1.152  14.923
49950W        W22375  26.466  16.324   1.307
49951W        W22376  44.025  26.506   4.373
49952W        W22377  25.262   7.694  12.528
49953W        W22378  14.405  22.709  12.849
49954W        W22379  11.843   2.083  11.594
49955W        W22380   1.285  32.815  12.942
49956W        W22381  27.879   0.376   2.630
49957W        W22382  33.184  30.099  12.524
49958W        W22383  34.121   6.353  11.394
49959W        W22384  15.588  33.859   3.876
49960W        W22385   7.308  38.819   2.213
49961W        W22386  21.756  34.337  11.499
49962W        W22387  13.688   0.433  10.576
49963W        W22388  22.027  14.364   1.454
49964W        W22389  16.979   5.084   5.057
49965W        W22390   6.385  40.320   0.997
49966W        W22391  34.393  36.441  12.674
49967W        W22392   6.510  27.154  13.880
49968W        W22393   9.626  28.214   1.644
49969W        W22394  37.418  36.193   2.784
49970W        W22395   5.811  32.984  12.819
49971W        W22396   1.052   0.745   0.007
49972W        W22397   7.131   8.332  13.939
49973W        W22398  39.074  22.314   1.410
49974W        W22399  36.990  18.733  13.068
49975W        W22400  29.599   7.228   4.192
49976W        W22401  43.243  20.154  12.868
49977W        W22402  36.187   9.309   4.515
49978W        W22403  29.884   3.289   1.746
49979W        W22404  26.154  30.212   0.929
49980W        W22405  32.567   5.571  10.885
49981W        W22406   9.088  42.482  12.300
49982W        W22407  20.018  11.839  14.057
49983W        W22408  25.125  17.691   4.171
49984W        W22409   8.916  37.091   2.666
49985W        W22410  10.856  18.483   0.439
49986W        W22411   2.955  44.565  11.106
49987W        W22412  26.077  31.082   0.063
49988W        W22413  14.085  15.313  13.946
49989W        W22414  41.273  10.141  12.356
49990W        W22415  23.927   1.300  13.942
49991W        W22416  44.538   3.061   3.669
49992W        W22417  37.522   4.909   2.620
49993W        W22418  29.520  20.773  10.613
49994W        W22419  16.742  35.741  12.942
49995W        W22420  35.033  19.469   3.249
49996W        W22421  14.622  44.374   2.671
49997W        W22422   9.049  30.586  12.031
49998W        W22423  20.699  38.817   9.879
49999W        W22424  26.994  13.377  14.338
50000W        W22425  35.496  17.520  14.012
50001W        W22426  31.704  26.487   4.703
50002W        W22427  29.748  23.181  10.509
50003W        W22428  22.240  35.165   0.861
50004W        W22429   3.168  13.078   0.689
50005W        W22430   7.797  18.260   4.353
50006W        W22431  31.193  37.599  14.314
50007W        W22432  28.116  40.838   4.780
50008W        W22433   1.665  12.389   0.366
50009W        W22434  12.088  26.174  11.126
50010W        W22435  29.650  21.214   1.987
50011W        W22436  25.575   4.737   4.687
50012W        W22437  17.328  20.196   2.204
50013W        W22438  38.528   6.497  12.806
50014W        W22439  37.092   4.703  14.855
50015W        W22440   2.735  28.416   4.814
50016W        W22441   2.380  26.669   1.407
50017W        W22442   4.749  40.510   1.900
50018W        W22443  29.135  30.908   0.918
50019W        W22444  30.534   2.786  10.827
50020W        W22445  30.889   3.565   0.877
50021W        W22446  22.496  20.721   2.305
50022W        W22447  17.339  40.970   4.610
50023W        W22448  24.032  16.835   1.201
50024W        W22449  21.111  33.107  12.627
50025W        W22450  37.255  43.795   4.012
50026W        W22451   3.269  35.488  11.293
50027W        W22452  41.407  43.452  12.813
50028W        W22453  27.604  20.219   4.069
50029W        W22454  23.119  37.306   3.215
50030W        W22455  26.617  23.465   4.083
50031W        W22456   2.979  12.418   1.188
50032W        W22457  12.319   8.862   1.408
50033W        W22458  24.159   4.395   3.314
50034W        W22459  42.115  24.551  14.987
50035W        W22460   8.218  25.173   3.444
50036W        W22461  25.169  19.260  13.457
50037W        W22462  26.555  26.963   0.272
50038W        W22463   2.862  39.510  14.517
50039W        W22464   8.417  37.998   4.197
50040W        W22465  32.016  44.810   4.622
50041W        W22466   5.844   6.024  14.920
50042W        W22467  14.362   3.540   2.242
50043W        W22468  38.288  40.746   3.673
50044W        W22469  21.765  23.809  13.267
50045W        W22470  21.078   3.744  10.948
50046W        W22471   8.068  17.211   1.755
50047W        W22472  21.174   9.451   1.894
50048W        W22473  18.751   5.074  14.824
50049W        W22474  23.669  15.096   2.633
50050W        W22475  40.870  31.052   4.097
50051W        W22476   0.460  41.923   0.406
50052W        W22477   9.740  26.080  12.116
50053W        W22478  40.316  22.807   3.746
50054W        W22479  11.683  17.317   1.271
50055W        W22480  38.930  37.567  10.591
50056W        W22481  20.163   3.487  11.999
50057W        W22482  14.859   7.949  11.058
50058W        W22483  18.442  31.381  11.729
50059W        W22484  33.123  29.212  13.139
50060W        W22485   8.000  12.952  11.378
50061W        W22486  27.462  42.199   0.985
50062W        W22487   8.801  42.739   1.068
50063W        W22488  23.014  17.179  11.040
50064W        W22489  39.440   1.953   3.056
50065W        W22490  18.703  41.245  11.960
50066W        W22491  15.639   1.527   3.758
50067W        W22492   3.450   3.731   2.652
50068W        W22493   6.586  38.959  12.392
50069W        W22494  35.371   8.219   2.356
50070W        W22495   8.667   7.797   2.463
50071W        W22496  42.912   4.977   2.348
50072W        W22497  34.594  41.753   4.141
50073W        W22498  42.538   5.087  12.004
50074W        W22499  31.435  12.135   3.933
50075W        W22500  29.439  24.573  11.618
50076W        W22501  24.474  29.033   3.117
50077W        W22502  40.989  37.966  13.966
50078W        W22503   8.416  26.554   4.241
50079W        W22504  28.595  11.720   9.966
50080W        W22505  32.026  35.541   0.270
50081W        W22506  14.792   4.151   4.344
50082W        W22507  18.022  20.703   4.691
50083W        W22508   6.687  43.709  11.130
50084W        W22509  36.419  10.654   3.735
50085W        W22510  43.019  21.939  13.476
50086W        W22511  23.429  10.752  10.295
50087W        W22512  28.703  40.560   0.125
50088W        W22513   5.886   1.692   1.206
50089W        W22514  39.202  18.115  13.332
50090W        W22515  12.417  40.524  13.371
50091W        W22516  38.314  20.742  10.572
50092W        W22517  42.204  13.933   0.322
50093W        W22518  25.042  34.417   1.690
50094W        W22519  34.023  12.929   2.351
50095W        W22520  38.513  43.600  13.252
50096W        W22521  23.604  25.453   2.260
50097W        W22522  18.169  15.582  12.005
50098W        W22523  41.519  13.394  12.452
50099W        W22524  15.660   7.209   3.014
50100W        W22525  25.190  14.373  11.623
50101W        W22526  40.453   4.165  12.602
50102W        W22527  27.456  32.445  11.072
50103W        W22528  32.565  41.314   4.529
50104W        W22529  28.832   7.725  12.096
50105W        W22530  27.292  26.768   2.124
50106W        W22531  10.046  44.963   2.440
50107W        W22532  34.654  31.039  10.665
50108W        W22533  42.879  18.253  10.662
50109W        W22534  12.791  31.713   4.549
50110W        W22535   8.960  25.470  13.289
50111W        W22536  40.825   2.324  12.478
50112W        W22537  36.529  27.075  14.441
50113W        W22538  25.072   8.085   0.462
50114W        W22539  29.570  23.422  12.874
50115W        W22540  36.892  13.209   4.962
50116W        W22541   9.777  12.204   4.821
50117W        W22542  27.515  32.127   0.395
50118W        W22543   5.824  31.008  12.906
50119W        W22544  20.830  12.886  10.729
50120W        W22545  24.742  30.093  10.718
50121W        W22546  25.880  36.006  13.057
50122W        W22547  43.948  35.353  13.083
50123W        W22548  14.591  23.142   4.817
50124W        W22549  35.778   5.793  12.044
50125W        W22550   2.643  15.410  11.050
50126W        W22551  36.986   0.116   2.929
50127W        W22552   0.934  22.560  13.230
50128W        W22553   0.300  33.331   1.303
50129W        W22554  11.874   8.803  14.012
50130W        W22555  25.488  25.178   1.725
50131W        W22556  10.176  29.170   3.321
50132W        W22557  18.412  22.491   4.569
50133W        W22558   6.237  23.555  12.151
50134W        W22559   8.907   3.228   4.884
50135W        W22560  33.322  34.922   2.641
50136W        W22561   1.849  35.401   3.856
50137W        W22562  33.288  41.897  14.049
50138W        W22563  17.620  15.795  12.012
50139W        W22564  24.241  14.143   0.972
50140W        W22565  30.987  31.168  11.856
50141W        W22566  39.302  29.060  11.221
50142W        W22567   7.669  32.581   0.766
50143W        W22568  26.273  30.522  13.461
50144W        W22569   6.326  32.831   2.184
50145W        W22570  32.953  39.011   1.082
50146W        W22571   3.752  29.894   1.661
50147W        W22572  10.516  11.077  11.579
50148W        W22573   9.161  25.964  13.391
50149W        W22574  18.141   2.323   2.369
50150W        W22575  44.782  37.623  12.104
50151W        W22576  44.916   0.875  13.372
50152W        W22577  25.235  35.015  13.892
50153W        W22578  26.953  18.716  10.468
50154W        W22579   6.840  37.028   5.177
50155W        W22580   5.820   6.041   2.199
50156W        W22581  25.156   8.629  11.281
50157W        W22582  29.599  27.209  13.796
50158W        W22583  35.619  35.446  14.882
50159W        W22584  30.431  18.964  12.556
50160W        W22585  14.236  41.010  11.745
50161W        W22586  29.991  16.722  10.202
50162W        W22587  38.309  29.914   1.712
50163W        W22588  41.082  21.690  14.743
50164W        W22589  18.403  40.894  11.623
50165W        W22590  38.517  27.215  14.675
50166W        W22591  34.582  43.002  14.454
50167W        W22592  25.736  25.025  12.805
50168W        W22593   7.452  22.534  13.388
50169W        W22594   7.275  41.066  12.489
50170W        W22595  18.712  40.489  11.742
50171W        W22596   3.349  40.564   2.908
50172W        W22597  22.091  33.468  10.651
50173W        W22598  41.315  24.618   1.861
50174W        W22599  36.782  20.513  13.273
50175W        W22600  11.185   7.193  14.339
50176W        W22601  38.928  43.414  14.830
50177W        W22602  37.903  12.223  13.924
50178W        W22603   4.028  33.216   1.714
50179W        W22604  41.799   1.571  12.125
50180W        W22605  33.139  24.163   4.657
50181W        W22606  38.030  25.682   2.974
50182W        W22607  34.594   1.321   4.270
50183W        W22608  41.625  24.664  11.655
50184W        W22609   8.972  22.152   4.053
50185W        W22610  19.401   3.126   0.675
50186W        W22611  44.299  19.973  12.025
50187W        W22612  29.982  35.933  10.721
50188W        W22613  18.913  23.521  14.939
50189W        W22614  35.104  14.814  11.645
50190W        W22615  38.927  23.346  13.977
50191W        W22616   7.750  29.031   2.350
50192W        W22617  18.114  43.283  11.464
50193W        W22618  20.065  37.399   0.271
50194W        W22619   9.111  14.186   4.664
50195W        W22620  44.275  13.828   0.843
50196W        W22621   5.360   6.889  14.532
50197W        W22622   9.682   9.292   4.174
50198W        W22623  42.276  42.310   4.673
50199W        W22624  16.074  17.561   0.367
50200W        W22625   6.256  12.843  14.461
50201W        W22626  35.426   9.827  11.523
50202W        W22627   9.122   8.886   4.679
50203W        W22628  44.732  12.132  12.829
50204W        W22629  21.215  25.470   2.327
50205W        W22630  30.228  13.054  13.971
50206W        W22631   2.464  27.272  14.053
50207W        W22632  27.812  32.670  13.971
50208W        W22633  17.559  33.602  14.888
50209W        W22634   3.063  43.534   0.457
50210W        W22635  44.104  32.610  14.195
50211W        W22636  14.165  28.692   3.234
50212W        W22637   0.246  24.624  14.330
50213W        W22638   3.514  15.696   2.685
50214W        W22639  31.088  22.294   1.403
50215W        W22640  44.869  12.710  14.175
50216W        W22641   4.370  22.989   3.102
50217W        W22642  28.020   5.905  14.398
50218W        W22643   1.707  14.169  12.794
50219W        W22644  18.297   3.237  14.908
50220W        W22645  26.502  36.611   1.246
50221W        W22646   5.712  21.029   1.903
50222W        W22647  31.101   2.979   3.649
50223W        W22648  23.332  34.783  12.797
50224W        W22649  32.250  44.410   0.076
50225W        W22650  28.068  23.528  12.931
50226W        W22651  34.060  29.262  13.971
50227W        W22652  36.976  15.335  12.977
50228W        W22653  11.209  16.054  13.092
50229W        W22654  23.808   5.458   3.934
50230W        W22655  24.883   2.864  10.502
50231W        W22656   8.150  32.996  12.529
50232W        W22657  20.850   0.482  11.170
50233W        W22658   7.916  33.480   4.708
50234W        W22659  18.531  18.099   1.142
50235W        W22660  40.055  40.720  12.795
50236W        W22661  33.156   9.954  12.116
50237W        W22662  12.998   0.010  14.391
50238W        W22663  32.939  13.772   0.422
50239W        W22664  27.491  43.760  10.597
50240W        W22665  44.011  32.440  12.927
50241W        W22666  12.271  19.504  12.498
50242W        W22667  26.969  27.497  10.861
50243W        W22668  41.770  15.880   1.281
50244W        W22669  34.194  33.383   1.834
50245W        W22670  30.033  33.616   4.698
50246W        W22671   3.749  31.586  11.191
50247W        W22672  11.665   9.589   0.720
50248W        W22673   6.994  27.643  14.039
50249W        W22674  11.632   3.261  12.614
50250W        W22675  17.071  20.661  11.405
50251W        W22676  36.980  11.831  10.431
50252W        W22677  39.630  33.098   0.462
50253W        W22678  27.596   0.872   2.866
50254W        W22679   0.991  25.468   0.673
50255W        W22680  33.948  43.378   0.867
50256W        W22681  43.254  12.862  10.727
50257W        W22682   9.461  23.018   1.812
50258W        W22683  36.282  37.480   3.125
50259W        W22684  20.864  38.090  11.841
50260W        W22685  33.139  21.639   0.362
50261W        W22686  35.047   4.842  13.112
50262W        W22687  20.252  11.452   3.599
50263W        W22688  42.722  21.173   4.965
50264W        W22689  34.103  31.571  13.832
50265W        W22690  26.387   0.935   0.331
50266W        W22691  42.357   3.042  12.972
50267W        W22692  39.547  28.568   1.388
50268W        W22693   1.181  26.009   3.144
50269W        W22694  35.444  37.841  12.865
50270W        W22695  26.449  29.420  11.971
50271W        W22696   7.445  18.333  12.877
50272W        W22697   8.204   3.073   1.910
50273W        W22698  31.814  34.086   3.256
50274W        W22699  12.242  29.601  11.313
50275W        W22700  43.012  42.073  11.951
50276W        W22701  40.853  33.409  12.870
50277W        W22702  21.008  24.984  13.085
50278W        W22703  36.896  22.106   0.256
50279W        W22704  43.046  12.812   0.196
50280W        W22705  19.371  30.341  13.530
50281W        W22706   1.753  42.468  12.952
50282W        W22707  44.991   6.089  10.892
50283W        W22708  21.665  31.206  11.103
50284W        W22709   5.928  12.651   2.887
50285W        W22710  40.910   7.341   1.332
50286W        W22711  23.604  11.167   0.229
50287W        W22712  23.694  34.874   2.207
50288W        W22713  31.115  27.092   0.028
50289W        W22714   2.011  14.054  13.234
50290W        W22715  19.780  16.325  14.020
50291W        W22716  29.066  10.818  13.966
50292W        W22717   2.468  17.310   1.935
50293W        W22718   9.069   6.608  13.599
50294W        W22719  19.807  28.435   3.282
50295W        W22720  10.144  22.147   2.185
50296W        W22721  39.165   2.017  10.230
50297W        W22722  29.188  40.388   0.167
50298W        W22723  18.967   2.509   1.770
50299W        W22724  23.158   1.883   2.839
50300W        W22725   0.347  34.087  11.057
50301W        W22726   6.846  31.138  10.562
50302W        W22727  30.610  31.921   4.032
50303W        W22728  21.577  33.851  11.574
50304W        W22729   4.225  38.365   0.063
50305W        W22730  38.787   4.920  14.436
50306W        W22731  20.775  19.986  14.289
50307W        W22732   9.323  16.807   2.698
50308W        W22733   5.874  12.834   1.059
50309W        W22734  37.091  21.453  10.857
50310W        W22735   9.332   1.477  13.088
50311W        W22736  30.126  10.398  12.539
50312W        W22737  16.250  43.503   3.340
50313W        W22738   1.864  15.474  12.946
50314W        W22739  27.049  10.344   3.430
50315W        W22740  19.089  44.947   1.889
50316W        W22741  11.728  20.718   3.830
50317W        W22742  30.551  32.018   3.532
50318W        W22743  13.704   9.187   3.256
50319W        W22744  18.659   1.242   1.756
50320W        W22745   6.481  13.671  10.994
50321W        W22746   5.819  38.541   3.774
50322W        W22747  25.100  18.858  13.783
50323W        W22748  20.943  41.708  13.585
50324W        W22749  19.033  37.810  10.576
50325W        W22750  23.078  17.454  11.501
50326W        W22751  25.444  44.193  13.454
50327W        W22752  31.826   7.787   1.870
50328W        W22753  37.287  19.350   4.211
50329W        W22754  32.602  34.732  12.856
50330W        W22755  38.575   8.620   0.251
50331W        W22756  18.135  24.005   0.813
50332W        W22757  22.718  36.927   3.986
50333W        W22758  40.037  10.916   0.092
50334W        W22759  28.638  42.512   0.403
50335W        W22760   3.280   8.367  11.251
50336W        W22761  41.333  39.400   2.206
50337W        W22762   6.998  28.603   2.586
50338W        W22763  44.071  14.174   4.305
50339W        W22764  35.771   6.794   3.808
50340W        W22765  28.718  33.785  14.964
50341W        W22766  34.827  19.627  13.276
50342W        W22767  21.259   6.526  12.053
50343W        W22768  33.234  10.371   3.837
50344W        W22769  32.388  41.978  12.571
50345W        W22770   7.486   7.655  14.257
50346W        W22771  27.686  34.397  10.511
50347W        W22772  25.496  41.020   1.899
50348W        W22773  21.168  26.503   3.668
50349W        W22774  20.476  20.095  12.461
50350W        W22775  10.333  26.135   0.388
50351W        W22776  38.368  17.889  14.924
50352W        W22777  13.793  30.832  12.003
50353W        W22778   2.473   9.873  10.691
50354W        W22779  36.792  41.729  13.047
50355W        W22780   1.516  26.583   1.309
50356W        W22781  38.442  12.642   1.370
50357W        W22782   8.166  22.197  14.452
50358W        W22783  28.704  28.144  13.123
50359W        W22784  18.800   1.452   0.934
50360W        W22785  27.645  12.247   2.313
50361W        W22786  44.962  37.803  10.722
50362W        W22787  32.618  10.897   0.708
50363W        W22788  11.212   7.172  12.396
50364W        W22789  20.201  12.316   0.249
50365W        W22790  26.443   6.437   4.094
50366W        W22791  27.460  30.158   4.691
50367W        W22792  44.747  17.687   0.489
50368W        W22793   1.598  23.708   4.716
50369W        W22794  44.960  31.714  14.036
50370W        W22795   4.731  30.896  10.741
50371W        W22796  12.745   6.439  12.178
50372W        W22797  26.259   3.412   3.045
50373W        W22798   9.858  12.078   1.256
50374W        W22799   7.768  37.614   4.617
50375W        W22800  14.834  35.333  12.834
50376W        W22801  15.866  40.994  11.581
50377W        W22802   9.331  43.295  13.418
50378W        W22803  28.613  25.002  13.883
50379W        W22804  37.064  26.907  12.289
50380W        W22805   9.690  22.647  13.848
50381W        W22806  26.034   7.246  11.210
50382W        W22807  27.201  32.590   4.936
50383W        W22808   2.469  37.858  12.472
50384W        W22809  34.812  36.730   4.227
50385W        W22810  36.762  38.938   0.355
50386W        W22811   2.365  11.374   4.517
50387W        W22812  18.565  21.480   1.628
50388W        W22813  27.587  24.986   3.321
50389W        W22814  15.050   6.725  11.426
50390W        W22815  29.552  41.472   0.160
50391W        W22816   6.628  34.032  11.866
50392W        W22817  14.617  24.708  14.304
50393W        W22818  32.695  26.068   3.351
50394W        W22819  20.015   0.438  14.098
50395W        W22820  13.829  38.071  11.197
50396W        W22821  41.180  41.503   3.654
50397W        W22822  15.781   3.897   2.893
50398W        W22823  30.342  42.480   4.131
50399W        W22824  40.826  41.839   1.169
50400W        W22825  22.772  36.028   1.784
50401W        W22826  29.627  36.347   2.305
50402W        W22827  22.728  38.070  14.277
50403W        W22828  17.595  23.668  11.853
50404W        W22829  42.527  22.630  14.032
50405W        W22830  39.341  21.007   3.358
50406W        W22831   0.231  20.090   3.194
50407W        W22832  44.267  15.432   4.681
50408W        W22833  39.331  29.622   2.486
50409W        W22834  28.204  10.757  13.406
50410W        W22835  24.635  27.569   4.779
50411W        W22836  16.290   4.113   2.272
50412W        W22837  16.799  28.456   5.082
50413W        W22838  21.688   9.246   3.237
50414W        W22839  12.116  42.448   0.392
50415W        W22840  13.166  39.582  14.965
50416W        W22841  18.752  18.873  13.814
50417W        W22842   0.056  37.581  12.947
50418W        W22843  42.691   2.728   4.967
50419W        W22844   9.012  21.136   0.468
50420W        W22845   6.405  35.430   2.621
50421W        W22846  11.261  35.512  11.471
50422W        W22847  40.111  34.203  11.492
50423W        W22848  32.676  34.147   2.373
50424W        W22849  28.432  32.042  12.939
50425W        W22850   5.828   5.453  11.906
50426W        W22851   2.354  44.018   4.119
50427W        W22852  30.548  16.505  11.663
50428W        W22853  32.498  10.169  12.890
50429W        W22854  24.063  25.787  11.378
50430W        W22855  28.139  38.827   1.347
50431W        W22856  37.625  15.302  14.467
50432W        W22857  25.268  40.652   3.657
50433W        W22858  16.815  37.319   2.300
50434W        W22859  43.840   4.696  14.919
50435W        W22860  32.659  17.120   0.366
50436W        W22861   2.762  34.135   4.644
50437W        W22862  13.609   7.842   0.113
50438W        W22863   3.763   8.393   4.510
50439W        W22864  30.120  13.188  12.078
50440W        W22865  25.935  24.258   1.702
50441W        W22866  38.451   5.965   2.246
50442W        W22867   8.516  27.113  12.414
50443W        W22868  39.347  22.064  11.707
50444W        W22869  36.610  42.355  12.427
50445W        W22870  11.308  19.368   5.227
50446W        W22871  16.164  15.138   2.758
50447W        W22872  41.061   2.495   1.861
50448W        W22873  36.463  30.548  10.373
50449W        W22874   7.106   9.888  13.243
50450W        W22875  23.999  41.589  12.647
50451W        W22876  42.715  39.983  14.792
50452W        W22877  20.143  31.560  14.440
50453W        W22878  13.184   0.293  13.545
50454W        W22879  24.831  13.909  13.480
50455W        W22880  17.228  16.070  10.598
50456W        W22881  31.954   7.309  10.610
50457W        W22882  33.936  13.618  13.342
50458W        W22883   5.376  27.964   1.758
50459W        W22884  19.204  28.476  10.467
50460W        W22885  26.659   4.222   1.875
50461W        W22886  11.360  24.172  11.721
50462W        W22887  41.351  11.724  10.795
50463W        W22888  39.822  20.797   4.176
50464W        W22889  18.346  35.018  11.229
50465W        W22890  22.068  43.986  14.107
50466W        W22891  28.298  25.992   0.215
50467W        W22892   1.142  11.150   2.684
50468W        W22893  42.465  36.142  14.950
50469W        W22894   3.700  27.442   1.908
50470W        W22895   2.278  37.085   0.710
50471W        W22896  30.083  30.086   1.211
50472W        W22897  19.733  13.902   3.695
50473W        W22898  31.504  17.344  12.905
50474W        W22899  32.466  40.445   4.560
50475W        W22900  20.496  21.728   3.865
50476W        W22901   7.958  10.202   2.224
50477W        W22902  10.643  13.205  12.553
50478W        W22903   2.948  25.035  13.833
50479W        W22904  24.746  30.652   4.004
50480W        W22905  16.861  17.251  11.638
50481W        W22906  11.737   8.119   4.341
50482W        W22907  38.418  28.724  12.443
50483W        W22908  31.703  36.345  14.484
50484W        W22909   2.373  32.898   4.640
50485W        W22910  37.463  13.855   0.339
50486W        W22911  33.701  40.818  11.354
50487W        W22912  13.706  27.474  14.022
50488W        W22913  18.803  40.566  14.484
50489W        W22914  31.078  27.828  12.940
50490W        W22915  17.814  43.723  11.437
50491W        W22916  39.854  17.101  11.091
50492W        W22917   7.846  13.313  11.978
50493W        W22918   3.357  21.992  10.545
50494W        W22919  32.989  17.259   1.741
50495W        W22920  38.546  35.583   0.446
50496W        W22921  33.480  32.089  10.332
50497W        W22922  16.561  23.647   3.357
50498W        W22923   8.621  26.458  13.386
50499W        W22924  41.736   9.637  14.842
50500W        W22925   3.759  33.961  12.886
50501W        W22926  11.704   8.420  11.390
50502W        W22927   4.021   2.798   1.237
50503W        W22928  15.527  41.258   0.374
50504W        W22929  41.396  38.820   1.010
50505W        W22930  20.784  29.651   1.587
50506W        W22931   9.692  21.031  14.439
50507W        W22932  14.614  24.500   3.175
50508W        W22933  37.382   6.800   3.301
50509W        W22934  16.377  19.615   4.573
50510W        W22935  35.567  26.434   5.082
50511W        W22936  27.645  32.164   4.959
50512W        W22937   7.295  19.607  14.753
50513W        W22938  21.696  36.537  13.677
50514W        W22939  12.412   4.237  12.083
50515W        W22940  44.722  13.620  11.995
50516W        W22941  39.236  24.289  11.230
50517W        W22942   2.206   7.981  12.508
50518W        W22943  14.091   7.243  11.133
50519W        W22944  15.145  18.127   1.909
50520W        W22945  35.977  29.170   3.995
50521W        W22946  32.703  16.292   3.723
50522W        W22947   7.318  37.667  13.502
50523W        W22948   7.858  10.279   4.042
50524W        W22949  40.907  34.352  14.628
50525W        W22950   4.033  39.891   1.778
50526W        W22951  10.883  21.736   3.789
50527W        W22952  31.556  10.356   2.093
50528W        W22953  13.087  10.268  11.920
50529W        W22954  38.528  44.100  13.044
50530W        W22955  26.678  34.071  11.401
50531W        W22956   4.637   6.365   4.793
50532W        W22957  17.514  32.117  10.140
50533W        W22958  16.508  27.457  11.638
50534W        W22959   6.832  36.952  14.575
50535W        W22960  15.337  37.678   4.152
50536W        W22961  38.820  28.944   3.203
50537W        W22962  13.763  24.553   2.068
50538W        W22963  12.727   7.165  14.023
50539W        W22964  18.204  28.064  12.182
50540W        W22965  20.773  25.400   2.901
50541W        W22966  20.818  21.584  11.748
50542W        W22967  42.007  15.613  11.088
50543W        W22968  16.207  43.285   2.853
50544W        W22969   1.880  41.125  11.876
50545W        W22970  42.760  40.925   4.502
50546W        W22971   3.859  13.810  13.327
50547W        W22972  24.816  37.967   0.960
50548W        W22973  25.292  36.618   0.043
50549W        W22974  39.843  11.072  12.808
50550W        W22975  24.330   6.783   2.338
50551W        W22976  33.013  22.575  13.432
50552W        W22977   9.547  10.081   3.059
50553W        W22978  37.283  30.164   1.001
50554W        W22979   0.327  28.849   2.366
50555W        W22980  31.898  32.424  14.301
50556W        W22981  10.817   5.472  13.081
50557W        W22982  28.881   1.324   0.809
50558W        W22983  18.189  18.962   2.335
50559W        W22984  23.191  26.132   1.950
50560W        W22985  40.052  14.291  14.419
50561W        W22986  10.160  23.019  14.969
50562W        W22987  42.941  16.284   0.245
50563W        W22988  39.649   9.341   3.357
50564W        W22989  28.342  35.089   0.871
50565W        W22990   3.950  22.577   4.147
50566W        W22991  10.271   5.780  12.211
50567W        W22992  35.089   9.174   4.649
50568W        W22993  14.201  10.565  10.937
50569W        W22994  43.981  37.569   4.231
50570W        W22995   1.855   3.251  11.257
50571W        W22996  43.197   5.438  13.838
50572W        W22997  23.245  40.881  14.532
50573W        W22998  14.654  27.791   0.883
50574W        W22999  20.564  33.524  13.612
50575W        W23000  17.175  28.486  14.103
50576W        W23001  40.792  13.088  13.339
50577W        W23002   5.735   7.357  12.443
50578W        W23003  35.365   7.114   2.641
50579W        W23004  25.637  19.157  12.111
50580W        W23005   3.245   5.312   2.749
50581W        W23006  14.227  29.287   2.316
50582W        W23007  28.670  18.786  10.975
50583W        W23008  41.950  38.104   2.948
50584W        W23009  10.856  24.094   4.683
50585W        W23010   9.186  11.236  12.016
50586W        W23011  44.956  43.944  14.386
50587W        W23012   0.299  42.508  14.807
50588W        W23013  11.387  36.584   2.558
50589W        W23014  42.688  35.402  11.919
50590W        W23015  12.101  18.859  12.886
50591W        W23016  17.094  38.848  14.816
50592W        W23017   6.805   2.739   0.451
50593W        W23018   2.714  37.073   2.020
50594W        W23019  20.273  18.903  13.360
50595W        W23020  16.611  27.686   2.731
50596W        W23021  17.962  36.575   3.596
50597W        W23022  27.310   9.727   1.130
50598W        W23023   7.729   6.953   5.347
50599W        W23024  12.139   2.052  12.029
50600W        W23025  14.224  17.223   0.267
50601W        W23026  31.823  10.662   4.521
50602W        W23027  26.446  15.661   4.532
50603W        W23028  34.808  22.306  11.581
50604W        W23029  20.499  26.597   0.452
50605W        W23030  17.197  37.019   1.039
50606W        W23031  13.827  44.141  14.493
50607W        W23032  16.553  16.860  11.618
50608W        W23033  12.507  32.534  12.867
50609W        W23034  36.321  18.677   0.747
50610W        W23035  14.664  44.406   2.139
50611W        W23036   7.183  39.029   4.102
50612W        W23037  43.348  21.039   3.777
50613W        W23038  18.689  11.157   0.877
50614W        W23039  42.068  43.065  13.408
50615W        W23040  10.405   1.016   2.783
50616W        W23041   7.221  21.001   2.579
50617W        W23042  41.453   4.892   3.216
50618W        W23043  24.249  39.674   4.140
50619W        W23044  13.251  31.615  11.593
50620W        W23045   6.003  38.550   1.339
50621W        W23046   4.871  44.753   3.276
50622W        W23047   8.743  38.831  11.711
50623W        W23048  30.069  41.734  14.807
50624W        W23049  33.216  31.348  11.286
50625W        W23050  22.720  33.244  11.059
50626W        W23051  36.876  19.046   4.142
50627W        W23052  24.584  42.555  13.502
50628W        W23053  34.838  39.788  10.747
50629W        W23054  37.912  44.059   2.712
50630W        W23055  44.362  16.792   4.458
50631W        W23056  44.427   0.488   2.858
50632W        W23057  17.150  36.924  10.691
50633W        W23058  16.636  32.213  10.254
50634W        W23059   6.821   6.322  14.089
50635W        W23060  11.874  33.581   0.374
50636W        W23061  31.913   5.550   0.837
50637W        W23062   7.266  25.874  12.388
50638W        W23063  28.618  38.921  12.892
50639W        W23064  39.714  29.652  10.864
50640W        W23065  13.215   0.052  14.902
50641W        W23066  10.649  30.492  13.832
50642W        W23067   3.690  20.879  12.025
50643W        W23068  31.718  41.276  11.042
50644W        W23069  27.953  40.403   4.593
50645W        W23070  31.792  41.340   0.331
50646W        W23071  36.645   4.640  10.652
50647W        W23072  39.062  43.853   4.183
50648W        W23073  38.248  23.080   3.707
50649W        W23074  14.149  24.862   4.739
50650W        W23075  44.367  36.107  10.358
50651W        W23076  41.817   2.391  13.919
50652W        W23077  24.105  44.488  14.513
50653W        W23078   6.876  35.100   3.725
50654W        W23079  21.731  15.647   4.347
50655W        W23080   7.267   6.863   1.162
50656W        W23081   6.969   3.898   4.741
50657W        W23082  16.812  34.429   1.708
50658W        W23083  43.942  28.829  13.063
50659W        W23084   9.843  37.932   1.690
50660W        W23085  26.086  23.039   2.311
50661W        W23086  40.339   1.016  12.364
50662W        W23087  24.179  13.259  12.698
50663W        W23088   8.846  36.812  11.597
50664W        W23089  31.125   1.004  14.083
50665W        W23090  15.702  33.601  10.748
50666W        W23091   7.845  15.717   2.833
50667W        W23092  42.325  33.162  12.807
50668W        W23093  14.103  23.935   3.748
50669W        W23094  42.184  20.026  12.886
50670W        W23095  31.117  32.152  10.792
50671W        W23096   9.310  40.441   0.908
50672W        W23097  28.755  41.331   2.784
50673W        W23098  34.979  13.723   4.824
50674W        W23099  12.657  11.742  11.218
50675W        W23100   9.865  44.506   2.762
50676W        W23101  35.015  33.899  14.005
50677W        W23102  31.037  39.120  10.420
50678W        W23103  44.299  37.783   2.542
50679W        W23104   8.834  10.295   3.076
50680W        W23105  37.176  34.002  13.947
50681W        W23106  24.033   7.879   1.369
50682W        W23107   4.632  25.142  13.352
50683W        W23108   6.253  10.170   2.796
50684W        W23109  30.776  25.385   3.223
50685W        W23110  29.679  33.661  11.069
50686W        W23111  30.232   7.169  11.751
50687W        W23112  44.707   7.382  10.729
50688W        W23113  28.442  42.960   3.715
50689W        W23114  15.725  28.432  14.539
50690W        W23115  26.482  24.190   4.524
50691W        W23116  21.123  25.971  12.585
50692W        W23117  25.457  36.308  10.718
50693W        W23118  24.310   7.684   0.966
50694W        W23119  27.735  14.399  10.941
50695W        W23120  26.316  16.786   2.570
50696W        W23121  17.638   4.799  12.577
50697W        W23122  27.796  12.704   3.837
50698W        W23123  22.668  43.246   3.858
50699W        W23124  23.351   1.101  13.534
50700W        W23125   9.874  37.512   3.287
50701W        W23126  23.618   5.665  13.428
50702W        W23127  18.045  21.037   4.310
50703W        W23128  34.922  37.046  13.474
50704W        W23129  21.395  19.001   4.221
50705W        W23130  26.088  35.377   2.224
50706W        W23131  24.781  41.068  12.811
50707W        W23132  11.337  27.435   0.765
50708W        W23133   7.323  20.730  14.095
50709W        W23134  31.398   8.190  10.614
50710W        W23135  36.346  34.343  13.783
50711W        W23136  28.607   3.438   0.419
50712W        W23137  26.031  18.517  12.874
50713W        W23138  18.634  44.589  11.951
50714W        W23139  19.739  19.110   2.533
50715W        W23140  34.804  20.605  12.341
50716W        W23141  17.736  28.948  14.253
50717W        W23142   3.416  16.839   4.753
50718W        W23143  12.188  41.279   2.160
50719W        W23144   8.309  18.855   1.346
50720W        W23145   7.223  30.488  12.457
50721W        W23146  14.123  16.222   2.893
50722W        W23147  13.910  17.593   0.071
50723W        W23148   5.767  35.846   3.240
50724W        W23149   5.933  10.568  14.403
50725W        W23150  24.578  23.082  11.959
50726W        W23151  18.794  28.949  10.697
50727W        W23152  22.079  39.178  11.527
50728W        W23153  32.409  23.694   0.708
50729W        W23154  18.847  13.713  10.997
50730W        W23155   4.738   8.214  13.510
50731W        W23156  25.104  14.064   3.760
50732W        W23157  34.822  23.237   1.174
50733W        W23158  20.608   1.251  13.803
50734W        W23159  28.822  32.323   4.093
50735W        W23160  25.542  15.132   4.228
50736W        W23161  17.396   6.315  13.258
50737W        W23162  27.038  11.846  12.846
50738W        W23163  19.685  30.863   4.327
50739W        W23164  23.493  11.598   0.493
50740W        W23165  44.219  13.431  12.469
50741W        W23166   5.715  16.038   2.538
50742W        W23167  28.118  10.212   2.798
50743W        W23168  29.461  14.795   4.696
50744W        W23169  41.748  38.581   2.087
50745W        W23170   0.688  36.378  12.935
50746W        W23171  29.402  19.582  11.641
50747W        W23172   8.215  19.949   4.235
50748W        W23173  40.321  16.506   0.433
50749W        W23174  34.542  32.574  14.718
50750W        W23175  20.156  18.312   0.225
50751W        W23176  32.490  22.970   1.460
50752W        W23177   8.506   2.648  13.400
50753W        W23178  38.346  34.055   2.250
50754W        W23179   1.898  31.992   1.293
50755W        W23180   1.189  10.339  11.637
50756W        W23181   4.854  22.819  12.995
50757W        W23182  13.891  21.998   1.374
50758W        W23183   9.193   7.847  13.349
50759W        W23184  37.464  15.696  10.619
50760W        W23185  30.975  25.381  13.102
50761W        W23186  31.539  35.599   2.005
50762W        W23187  16.084  21.713   1.877
50763W        W23188  20.572   9.338  14.595
50764W        W23189  42.831  44.748   1.104
50765W        W23190  30.604   7.407  13.307
50766W        W23191  21.258  19.177   0.797
50767W        W23192  17.735  15.569   2.188
50768W        W23193  27.539   0.872   4.695
50769W        W23194  24.433   4.582  13.488
50770W        W23195  40.295  42.032   0.248
50771W        W23196  29.557   7.308  14.433
50772W        W23197  40.531  31.623  14.911
50773W        W23198  35.582   8.537   0.207
50774W        W23199  32.169  36.796   2.392
50775W        W23200  31.354  15.173   3.163
50776W        W23201  37.189   0.922  13.444
50777W        W23202   7.098  37.796   5.752
50778W        W23203  31.243  36.098  14.428
50779W        W23204  29.549  39.399   2.062
50780W        W23205  34.015  34.745   0.487
50781W        W23206  23.828  18.428   1.383
50782W        W23207  20.778  24.057   1.527
50783W        W23208  32.072  10.725   2.329
50784W        W23209  27.966  31.293  14.334
50785W        W23210  43.237  36.550   3.264
50786W        W23211  18.438   0.448   0.355
50787W        W23212  33.296   7.589   0.746
50788W        W23213  22.920   0.444  13.706
50789W        W23214   6.707   0.431   4.727
50790W        W23215  26.416  36.939  13.956
50791W        W23216  22.329   8.846  12.435
50792W        W23217   3.419   0.299   3.757
50793W        W23218  41.731  43.307  13.751
50794W        W23219  39.951  35.401   2.298
50795W        W23220  29.566  30.411   4.657
50796W        W23221  19.779  40.310   0.720
50797W        W23222  27.613   4.441  12.045
50798W        W23223   1.283   2.757   4.520
50799W        W23224  21.789  32.423   1.858
50800W        W23225  27.989  21.013   3.865
50801W        W23226  20.639  26.402   4.743
50802W        W23227  25.079   5.937   1.500
50803W        W23228  37.073  18.593   0.299
50804W        W23229  35.542  36.104  10.419
50805W        W23230  31.640  15.938   5.542
50806W        W23231  30.110  41.707   3.663
50807W        W23232  31.973  31.064   1.662
50808W        W23233  28.382  17.311   0.422
50809W        W23234  11.247  18.299  13.977
50810W        W23235   8.334  16.050   3.265
50811W        W23236  18.098   1.060   4.608
50812W        W23237  24.819  40.859  11.068
50813W        W23238  41.032  31.208   0.386
50814W        W23239   7.902   3.197  12.928
50815W        W23240  26.665   6.612  12.068
50816W        W23241  16.477  12.149  11.208
50817W        W23242  28.071  38.893  14.577
50818W        W23243  18.006  44.957  10.990
50819W        W23244  19.910  33.635  11.048
50820W        W23245   8.127  10.736  13.441
50821W        W23246  25.058  39.582  13.850
50822W        W23247   1.714  38.593   3.677
50823W        W23248  30.528  31.422  10.512
50824W        W23249  33.808  10.192   2.815
50825W        W23250   2.616   8.105  11.584
50826W        W23251  26.109  13.344  13.293
50827W        W23252  20.745   5.663  10.553
50828W        W23253  29.214   7.793  14.311
50829W        W23254  22.065  24.144   0.820
50830W        W23255  19.968  38.862   3.586
50831W        W23256   1.831   9.956   2.698
50832W        W23257  32.114  35.540  11.024
50833W        W23258   6.355  29.624  12.013
50834W        W23259  35.989  20.761  12.723
50835W        W23260  23.345  19.539  13.409
50836W        W23261  23.320  32.851  13.732
50837W        W23262  21.468  12.843   0.436
50838W        W23263  29.055  25.916   3.138
50839W        W23264  40.358  32.585   2.430
50840W        W23265  42.842  23.531  10.720
50841W        W23266  29.485  18.561   0.959
50842W        W23267  32.709   1.348  10.712
50843W        W23268   1.779  38.330  13.105
50844W        W23269  13.249  24.941  13.391
50845W        W23270  36.909  28.579  13.973
50846W        W23271   4.620  27.610  10.791
50847W        W23272  34.654  36.085   3.654
50848W        W23273  31.892  21.335   2.799
50849W        W23274  17.973  41.114  14.723
50850W        W23275   1.119  37.441   4.177
50851W        W23276  38.502  35.675   2.775
50852W        W23277  44.750  26.697  11.189
50853W        W23278   8.878  26.661   1.965
50854W        W23279  11.379  37.489  14.730
50855W        W23280  18.945  36.041   4.243
50856W        W23281  10.977   1.213  14.470
50857W        W23282  29.035  21.215  12.282
50858W        W23283   0.768  24.737   0.273
50859W        W23284  10.578  24.543   1.869
50860W        W23285  39.034  27.025   3.108
50861W        W23286  27.537  43.018   3.622
50862W        W23287   5.516  37.944  14.831
50863W        W23288  10.829  16.027  10.652
50864W        W23289  22.302   0.863  11.916
50865W        W23290   4.374  27.516   2.682
50866W        W23291  16.105   2.782  10.258
50867W        W23292  35.997  15.169  11.986
50868W        W23293  33.549  23.983  10.663
50869W        W23294  29.623  37.500  13.955
50870W        W23295  24.798   1.976   0.490
50871W        W23296  37.561   6.299   1.078
50872W        W23297   3.657  34.052  13.981
50873W        W23298   7.785   9.893  12.524
50874W        W23299  31.406  10.705  12.873
50875W        W23300   4.069  44.757   1.866
50876W        W23301  29.115  20.653  12.955
50877W        W23302  40.517  31.324   1.740
50878W        W23303  11.411   9.746  12.403
50879W        W23304  29.550  40.539  10.191
50880W        W23305   2.263  30.874   2.723
50881W        W23306  35.085  33.889  14.552
50882W        W23307  15.172   7.099  11.076
50883W        W23308  29.898  36.868   3.669
50884W        W23309  20.214  14.624  13.858
50885W        W23310   8.716   8.161  12.978
50886W        W23311  11.138  17.386  12.563
50887W        W23312  41.630   4.272   4.886
50888W        W23313  10.494   8.744   9.825
50889W        W23314   1.264  37.344   2.810
50890W        W23315  29.187  24.446  14.969
50891W        W23316  17.985  25.671  13.443
50892W        W23317  36.120  41.524  13.848
50893W        W23318  43.253  41.936  14.022
50894W        W23319  36.187  28.800  14.440
50895W        W23320   4.937  26.803  12.969
50896W        W23321  23.719  17.133   3.731
50897W        W23322  43.810  43.796   1.439
50898W        W23323  40.812  16.083   2.289
50899W        W23324  36.481  27.890   3.176
50900W        W23325  20.298   7.921  13.192
50901W        W23326  23.702  15.070  13.851
50902W        W23327   2.185  15.591  12.514
50903W        W23328  26.078  15.648   2.437
50904W        W23329   2.078   1.911  10.342
50905W        W23330  29.234  36.760   2.763
50906W        W23331  11.794  12.718   1.287
50907W        W23332  29.736  32.323  10.921
50908W        W23333  21.056  12.524   2.257
50909W        W23334  22.205  13.898   3.815
50910W        W23335   2.346   9.798   3.632
50911W        W23336  37.783  20.805  14.801
50912W        W23337  11.892  19.427  13.039
50913W        W23338   1.166  26.699  14.843
50914W        W23339  13.792   6.688   4.328
50915W        W23340  24.528  33.569  11.084
50916W        W23341  35.346  31.034   1.539
50917W        W23342   6.970  20.555  11.635
50918W        W23343  10.196   0.790  12.542
50919W        W23344  42.301  19.723  11.166
50920W        W23345  32.565  41.614   4.098
50921W        W23346  31.171  23.676   3.718
50922W        W23347  25.175  14.926   5.005
50923W        W23348  42.468  35.695   0.928
50924W        W23349  12.401  42.869   0.292
50925W        W23350   0.397   0.537   3.720
50926W        W23351  23.126  37.035  11.991
50927W        W23352  37.185  28.134   3.694
50928W        W23353  41.015  30.415  13.026
50929W        W23354  41.754  44.096   9.619
50930W        W23355  22.722  28.336   4.093
50931W        W23356  38.513  20.066  12.190
50932W        W23357  32.455  39.590   1.671
50933W        W23358  31.561  38.674  13.851
50934W        W23359  22.496  37.115  13.982
50935W        W23360  17.865   9.982  11.001
50936W        W23361  32.317  12.166   4.534
50937W        W23362  17.570  41.039   4.119
50938W        W23363   0.827  32.569  14.234
50939W        W23364  36.395  18.656  11.193
50940W        W23365  43.587  14.346   4.205
50941W        W23366  27.530  11.572  13.539
50942W        W23367   6.159  16.288  14.329
50943W        W23368  39.619  11.398  12.148
50944W        W23369   9.835  29.942   1.161
50945W        W23370  36.522  34.437   2.876
50946W        W23371  42.195  27.633  11.232
50947W        W23372  37.007  44.017   2.800
50948W        W23373   5.481  22.654  14.489
50949W        W23374  27.510  29.993  14.070
50950W        W23375  38.334  25.955   2.324
50951W        W23376   3.283  17.696  10.678
50952W        W23377  14.188  20.971   4.176
50953W        W23378  25.254   1.276   3.135
50954W        W23379   9.335  32.992   1.788
50955W        W23380  34.063  12.081   1.309
50956W        W23381  11.768  31.182  12.413
50957W        W23382  25.156  16.774   2.721
50958W        W23383  10.699  39.343   2.840
50959W        W23384   0.349  38.826   3.930
50960W        W23385  42.249  16.605  11.898
50961W        W23386  44.746  40.357   0.208
50962W        W23387  21.606   8.107   9.544
50963W        W23388  38.487  18.174   4.983
50964W        W23389   8.717  15.686   4.010
50965W        W23390  10.657  41.740   2.961
50966W        W23391  21.755   1.059  13.116
50967W        W23392  17.266  20.269  14.372
50968W        W23393   0.678  32.461   0.485
50969W        W23394  38.448  22.190  13.639
50970W        W23395   8.598  21.976  11.591
50971W        W23396   8.250  36.892  14.505
50972W        W23397  33.084  31.099  10.447
50973W        W23398  15.767  36.445   0.456
50974W        W23399  44.806  44.290   3.290
50975W        W23400  33.834  30.192  13.038
50976W        W23401  29.026  16.349  10.716
50977W        W23402  14.973  20.344   0.393
50978W        W23403   1.721  11.360   1.836
50979W        W23404  31.755   8.285  14.320
50980W        W23405  30.494  26.025   4.284
50981W        W23406  28.170   7.311  12.881
50982W        W23407  16.256   7.095  11.180
50983W        W23408  42.711  16.764   0.239
50984W        W23409  19.779  44.591   0.714
50985W        W23410  24.744   7.887   1.696
50986W        W23411  44.767  40.040  12.144
50987W        W23412  26.551  22.681   0.487
50988W        W23413  34.163  11.728   2.436
50989W        W23414   0.361  38.576  12.985
50990W        W23415  31.409  31.164   2.294
50991W        W23416  20.142  35.318   3.321
50992W        W23417  32.084  35.010   2.278
50993W        W23418  43.874  26.567   0.056
50994W        W23419   4.795  18.324   4.352
50995W        W23420  31.653  43.531   1.760
50996W        W23421  33.147   2.282   1.040
50997W        W23422  41.122  10.793  11.528
50998W        W23423  35.379   3.887   3.403
50999W        W23424   3.656   8.708  13.029
51000W        W23425   2.458  41.935  10.694
51001W        W23426   1.484  25.313   0.783
51002W        W23427  31.429  38.566   0.537
51003W        W23428  30.501  30.558   3.379
51004W        W23429  27.644   8.834   1.521
51005W        W23430  39.069   4.961   4.157
51006W        W23431  30.543  33.383  14.836
51007W        W23432   4.721   4.526   1.833
51008W        W23433  33.232   9.229  12.902
51009W        W23434  35.023  26.708   3.694
51010W        W23435   7.534  32.266   3.291
51011W        W23436  36.049   4.507  12.609
51012W        W23437   6.443  16.339  11.564
51013W        W23438  43.799  21.536  11.549
51014W        W23439  24.765  12.327   0.054
51015W        W23440  36.869  37.319   4.412
51016W        W23441  16.003  42.250   2.897
51017W        W23442  32.951   7.332   3.662
51018W        W23443  22.768   4.015  12.584
51019W        W23444  32.988  16.579   2.429
51020W        W23445  32.552   5.730   1.989
51021W        W23446   1.389  15.128   4.017
51022W        W23447  24.010   8.442  13.568
51023W        W23448  17.775  13.704  14.848
51024W        W23449  36.001  38.204   3.817
51025W        W23450  36.961   1.675  14.983
51026W        W23451   7.942  44.506  14.413
51027W        W23452  11.081  18.809   0.756
51028W        W23453   3.829  13.833   4.014
51029W        W23454  21.470  19.325   4.779
51030W        W23455  22.708  23.505   3.850
51031W        W23456  29.682   1.762   3.181
51032W        W23457  34.481  10.884  10.898
51033W        W23458  15.550  39.957   3.851
51034W        W23459   0.758  37.036  13.405
51035W        W23460  24.554  22.171  10.975
51036W        W23461  14.304  31.063  10.845
51037W        W23462  33.618  38.025  13.630
51038W        W23463  13.946  13.582   0.049
51039W        W23464  22.962   7.392  10.232
51040W        W23465   3.688  23.028   4.032
51041W        W23466   4.962   4.952   3.336
51042W        W23467  44.364  32.225   2.728
51043W        W23468  10.766  19.547   3.182
51044W        W23469  12.348  29.405  14.812
51045W        W23470   1.391  18.271   1.360
51046W        W23471  28.980  20.300   0.181
51047W        W23472   3.882  10.068  10.750
51048W        W23473  36.804  33.929  11.789
51049W        W23474  40.914  42.787   3.109
51050W        W23475  12.655  11.082  14.011
51051W        W23476  30.477  36.030  13.389
51052W        W23477  39.837  30.451   0.015
51053W        W23478   9.746  12.410   0.357
51054W        W23479  16.787  39.929  12.964
51055W        W23480  33.369  20.104   0.943
51056W        W23481  22.834  32.892   4.010
51057W        W23482  13.593  28.515  12.552
51058W        W23483  11.286  18.689   2.325
51059W        W23484  27.057  35.544  11.172
51060W        W23485  17.541   4.950  13.538
51061W        W23486   6.275  38.644   1.767
51062W        W23487  37.323  30.885   4.670
51063W        W23488  37.405  36.356  10.642
51064W        W23489   7.580  44.380  10.618
51065W        W23490  21.842  44.873   1.480
51066W        W23491  14.616  34.931  10.658
51067W        W23492  33.383  37.493  12.458
51068W        W23493  28.927  12.545  13.673
51069W        W23494  40.932  21.847   1.528
51070W        W23495   9.287  24.259   3.845
51071W        W23496   0.966  43.831  13.267
51072W        W23497  19.729  15.819  12.156
51073W        W23498  26.750  35.986  13.744
51074W        W23499  20.571  38.197  10.778
51075W        W23500  32.174  19.487   5.358
51076W        W23501  33.991  38.306  13.335
51077W        W23502   2.494  40.345  14.055
51078W        W23503  36.655   1.519   4.166
51079W        W23504  18.869  21.824  13.421
51080W        W23505  36.943  26.172  13.353
51081W        W23506  13.809   2.957  12.880
51082W        W23507   3.932  11.049   2.175
51083W        W23508  20.016  41.830  14.963
51084W        W23509  12.630  27.502   1.691
51085W        W23510  30.631  30.412  13.423
51086W        W23511  32.572  28.186   0.390
51087W        W23512  26.784   9.557  10.798
51088W        W23513  27.693  28.641   4.827
51089W        W23514  40.182   1.479   1.560
51090W        W23515  11.630  42.513   4.749
51091W        W23516   3.754   2.311  11.539
51092W        W23517  19.316  11.611   3.689
51093W        W23518  29.434  18.047   3.788
51094W        W23519  15.820  42.685   1.361
51095W        W23520  15.221   3.169  13.970
51096W        W23521  28.734   2.092  11.959
51097W        W23522  23.289  11.831   1.733
51098W        W23523  30.453  29.168   0.780
51099W        W23524  13.181  44.824  11.656
51100W        W23525  28.469   7.714   2.358
51101W        W23526  15.691   3.747   4.433
51102W        W23527   4.799  35.977   4.457
51103W        W23528  17.673  43.319   4.573
51104W        W23529  13.610  14.237  11.139
51105W        W23530   8.874  29.855  11.361
51106W        W23531  28.219  33.877  10.105
51107W        W23532   8.651  21.448  12.585
51108W        W23533   0.551  30.492  11.971
51109W        W23534  26.040   1.273   0.533
51110W        W23535  11.261   1.844   4.310
51111W        W23536  15.281  42.884   1.307
51112W        W23537  29.954  26.995  14.535
51113W        W23538  10.027  33.580  14.932
51114W        W23539   9.441   9.772  10.033
51115W        W23540   8.648   9.202  12.091
51116W        W23541  30.916  44.899  14.872
51117W        W23542  32.612   6.791   0.839
51118W        W23543  10.248  36.770  13.868
51119W        W23544  40.978  23.086   0.889
51120W        W23545  22.930   1.333  13.285
51121W        W23546  41.798  16.315  14.863
51122W        W23547   3.223  43.019  11.863
51123W        W23548  12.418  29.809   4.156
51124W        W23549  25.582  12.101   1.266
51125W        W23550  39.790  15.255   3.717
51126W        W23551   5.966  28.445   3.040
51127W        W23552   8.060  36.329  10.705
51128W        W23553   2.478  26.417  12.076
51129W        W23554  37.173  19.718   4.547
51130W        W23555  37.008  44.726  12.994
51131W        W23556   0.218   1.516  13.900
51132W        W23557  13.196  19.651  14.283
51133W        W23558  22.023  16.884   4.494
51134W        W23559  17.309   1.489  10.718
51135W        W23560  33.037   0.159   2.358
51136W        W23561  42.021  43.927  11.399
51137W        W23562  37.925   0.810   0.126
51138W        W23563  24.738  22.193   3.791
51139W        W23564   3.822   6.679   3.908
51140W        W23565  19.030  30.350  11.145
51141W        W23566  33.583   2.833   4.398
51142W        W23567  15.684  40.050   4.848
51143W        W23568  37.496  31.300  13.971
51144W        W23569   4.640  38.907  12.055
51145W        W23570   4.469   1.801  11.074
51146W        W23571  41.022  24.060  14.319
51147W        W23572  12.707  12.750   3.412
51148W        W23573  26.578  39.926   4.719
51149W        W23574  31.126  32.946   2.649
51150W        W23575  32.417  10.944  14.753
51151W        W23576  26.031  19.363  12.737
51152W        W23577  36.024  30.000   0.958
51153W        W23578  23.864   0.348  13.774
51154W        W23579  26.909  21.682  10.819
51155W        W23580  31.455  15.310  13.288
51156W        W23581   8.757   2.295   2.857
51157W        W23582  13.604  35.377   0.884
51158W        W23583   2.255  26.673  11.697
51159W        W23584  44.406   2.317   3.254
51160W        W23585  20.818   4.917   1.752
51161W        W23586  12.095  29.941  12.750
51162W        W23587  11.226  23.089   0.021
51163W        W23588  19.738   2.003  13.827
51164W        W23589  16.505  19.577   1.193
51165W        W23590  37.126  22.253  11.140
51166W        W23591   5.880  13.849   2.218
51167W        W23592  23.214  41.937  10.796
51168W        W23593   4.695  20.753  14.851
51169W        W23594  11.221   8.889   0.706
51170W        W23595   3.323  37.541   5.024
51171W        W23596  15.247  26.315  12.116
51172W        W23597  26.737  27.922  14.880
51173W        W23598  36.545   7.853   1.936
51174W        W23599  41.138   6.245   4.227
51175W        W23600   4.376  28.373   0.936
51176W        W23601  11.396  19.767   1.637
51177W        W23602  13.060  30.919  10.345
51178W        W23603  18.756  28.695   1.796
51179W        W23604  41.227  38.745   1.938
51180W        W23605  38.569  29.517  10.467
51181W        W23606  40.084  36.839  10.645
51182W        W23607  26.933  17.228   4.102
51183W        W23608   9.886  14.403   2.852
51184W        W23609  43.769  20.498   0.957
51185W        W23610  35.172  24.727  14.241
51186W        W23611  15.228  29.855  11.675
51187W        W23612  28.396  31.482  11.077
51188W        W23613  19.552  34.040   0.972
51189W        W23614  35.376  36.500  11.659
51190W        W23615  44.863  20.780  14.477
51191W        W23616   5.423  10.329  10.674
51192W        W23617   4.819   6.606  12.896
51193W        W23618   2.376  33.838  13.908
51194W        W23619  12.979  42.029  10.661
51195W        W23620  14.237   2.350  10.407
51196W        W23621  44.187   1.412  13.818
51197W        W23622  27.234   8.454  13.456
51198W        W23623  27.028  43.041   2.337
51199W        W23624  23.140  23.183  10.612
51200W        W23625  11.843  15.372   4.451
51201W        W23626  31.155  33.893   1.917
51202W        W23627   2.711   6.413  11.083
51203W        W23628  36.804   7.171  14.410
51204W        W23629  22.239  11.638   1.735
51205W        W23630   1.405  26.490  13.755
51206W        W23631   1.778  16.715  13.809
51207W        W23632  25.678  33.632   1.798
51208W        W23633  24.784  43.574   2.921
51209W        W23634  38.405  21.659   4.841
51210W        W23635   2.240   6.779   0.939
51211W        W23636  19.428   1.889  13.409
51212W        W23637  12.431  33.646  12.489
51213W        W23638  16.853   3.108   0.745
51214W        W23639   9.663   4.218   0.198
51215W        W23640  38.550  13.780  10.751
51216W        W23641  19.028  35.638   1.420
51217W        W23642  20.524  41.660   0.726
51218W        W23643   5.273  37.606   1.739
51219W        W23644  11.399   9.615   1.879
51220W        W23645  37.947   5.504   2.657
51221W        W23646  39.816  32.382   4.294
51222W        W23647   6.163   1.645  13.040
51223W        W23648  17.503  21.523  11.826
51224W        W23649  25.241  32.655  12.013
51225W        W23650   0.978  37.923  12.411
51226W        W23651  40.652  18.576   4.977
51227W        W23652   9.096  10.886  13.694
51228W        W23653   4.152  31.413  14.709
51229W        W23654  22.629   8.116  13.817
51230W        W23655  44.576  27.400  11.467
51231W        W23656   4.150  44.813   4.035
51232W        W23657  25.261  27.068  13.507
51233W        W23658  12.782  32.454  13.319
51234W        W23659  34.403  37.358   1.988
51235W        W23660  43.830  22.896   4.498
51236W        W23661  35.487   9.874  12.465
51237W        W23662  39.598  40.441  10.710
51238W        W23663  33.050  21.754   1.400
51239W        W23664  34.488  23.805  11.597
51240W        W23665  36.124  17.645  11.072
51241W        W23666  41.623  44.213   4.277
51242W        W23667  44.299  12.377  11.522
51243W        W23668  27.781  21.512   2.238
51244W        W23669  25.065  44.635  13.729
51245W        W23670  13.955  24.670  12.066
51246W        W23671  34.467   1.920   2.059
51247W        W23672  27.158   5.124  12.104
51248W        W23673  40.532  28.483  13.146
51249W        W23674  30.105  44.560   4.623
51250W        W23675  17.206  33.846   2.858
51251W        W23676  34.544   9.006   4.744
51252W        W23677  25.131  32.163  11.918
51253W        W23678  31.029  14.091   3.187
51254W        W23679  19.004   0.478   4.141
51255W        W23680  29.881   5.645   0.233
51256W        W23681  27.871   7.982  14.303
51257W        W23682  43.749   9.250   3.166
51258W        W23683   9.465   0.320  13.871
51259W        W23684   9.753   9.737   2.291
51260W        W23685  43.812   6.016  10.332
51261W        W23686  19.205  42.126   3.703
51262W        W23687  15.366  29.351  12.824
51263W        W23688  29.660  36.378   1.140
51264W        W23689  20.795  26.474   2.481
51265W        W23690  43.299  22.585   0.331
51266W        W23691  42.232  34.033   3.748
51267W        W23692  33.659  19.718   4.958
51268W        W23693  28.922   2.189  13.519
51269W        W23694  22.695   0.843  14.182
51270W        W23695  34.018   3.162  12.082
51271W        W23696  33.371  17.894   1.465
51272W        W23697   2.654   0.324   3.119
51273W        W23698  28.968  18.430  13.433
51274W        W23699  11.384  32.208  14.743
51275W        W23700   8.179  41.934   0.380
51276W        W23701   7.114  14.725   0.409
51277W        W23702  14.880  28.880   1.745
51278W        W23703  39.739  44.412  14.426
51279W        W23704  24.680  32.676  12.909
51280W        W23705   0.977  34.953  11.665
51281W        W23706  27.201  11.323  12.287
51282W        W23707  35.015  14.537  13.970
51283W        W23708  36.908  16.538   2.405
51284W        W23709  38.497  18.234  14.516
51285W        W23710   2.385   3.315   9.972
51286W        W23711   1.636   6.930   2.770
51287W        W23712  23.882  36.579  13.533
51288W        W23713  29.579  11.386  12.164
51289W        W23714  21.134   3.981  13.955
51290W        W23715  43.509  32.401   3.645
51291W        W23716  23.044  26.011   1.236
51292W        W23717  32.845  15.740   0.845
51293W        W23718  10.374  31.095  11.154
51294W        W23719  11.320   0.219  12.056
51295W        W23720  24.660  37.908   3.449
51296W        W23721  18.720  13.954   1.743
51297W        W23722  27.966   8.678   0.653
51298W        W23723  44.431  23.681   4.085
51299W        W23724  40.525  35.897  11.926
51300W        W23725  37.600   3.685   3.697
51301W        W23726  26.886  33.054   4.242
51302W        W23727  12.136  35.504  12.303
51303W        W23728  36.676  32.933  11.035
51304W        W23729   0.788  20.493  13.943
51305W        W23730  19.129   3.190   2.583
51306W        W23731  21.523  40.327   3.296
51307W        W23732  35.125   4.888  14.009
51308W        W23733  41.517   2.835  13.925
51309W        W23734  25.987  43.392  11.277
51310W        W23735  44.462  30.982  14.496
51311W        W23736  18.792  36.097  12.104
51312W        W23737  34.729  31.191   2.370
51313W        W23738  22.715  32.426   3.343
51314W        W23739   3.489   3.473   4.350
51315W        W23740   3.755  18.682  12.630
51316W        W23741  13.033  38.490  14.391
51317W        W23742  18.288  32.446   0.880
51318W        W23743  31.634  17.649   1.203
51319W        W23744  20.669  44.700   3.889
51320W        W23745   5.999  44.690  11.992
51321W        W23746   0.889   7.260   4.577
51322W        W23747  18.126  19.801   2.013
51323W        W23748  26.497  28.979  14.212
51324W        W23749   2.880  40.854  11.581
51325W        W23750  10.781  20.299  11.046
51326W        W23751  16.857  17.650  12.855
51327W        W23752   1.396   6.668  14.417
51328W        W23753  29.000  33.196  11.016
51329W        W23754   9.108   1.495  14.810
51330W        W23755  24.244  13.752   1.370
51331W        W23756  32.609  39.075   2.978
51332W        W23757  22.602  38.112  13.789
51333W        W23758  10.218  28.386   4.578
51334W        W23759   8.768  17.714   2.149
51335W        W23760  43.833  27.407   2.886
51336W        W23761  10.160  31.576  11.618
51337W        W23762  41.495  36.047  11.099
51338W        W23763  29.628  37.267   0.267
51339W        W23764  43.220  35.066  13.053
51340W        W23765   2.927  11.249  11.180
51341W        W23766   6.914  29.433   1.218
51342W        W23767  37.690  23.531  14.510
51343W        W23768  20.423  19.162  14.290
51344W        W23769   2.154  31.529   1.775
51345W        W23770  23.636  25.209  14.924
51346W        W23771   3.396   5.668  14.001
51347W        W23772  24.226   7.407  11.579
51348W        W23773  39.110  17.995   3.675
51349W        W23774  26.400  13.699   2.130
51350W        W23775  23.001  41.862  13.546
51351W        W23776   0.576  26.267   0.515
51352W        W23777  20.293   2.279   3.201
51353W        W23778  41.284  42.401   0.415
51354W        W23779   5.471  43.908  14.369
51355W        W23780  34.366   6.175   4.071
51356W        W23781  11.792  34.676  13.935
51357W        W23782  14.192  17.690   5.001
51358W        W23783  19.636  30.715   1.777
51359W        W23784  36.913  18.519   4.054
51360W        W23785   6.639  22.379   0.318
51361W        W23786  28.686  21.132   1.632
51362W        W23787  10.290  39.330   3.178
51363W        W23788  13.387  20.111   3.924
51364W        W23789  44.473  10.193   0.724
51365W        W23790   3.211  16.214   2.746
51366W        W23791   0.420  22.498  12.409
51367W        W23792  30.978   0.008  12.981
51368W        W23793  10.286  16.616  14.998
51369W        W23794  35.386  16.756  10.677
51370W        W23795   1.991   1.528  12.013
51371W        W23796   5.022   9.044   2.359
51372W        W23797   4.995  11.125   2.932
51373W        W23798   8.966  19.102  11.417
51374W        W23799  17.189  41.292  14.828
51375W        W23800  31.388  14.145  14.331
51376W        W23801  31.864   4.413  14.906
51377W        W23802  13.815  14.849  12.059
51378W        W23803  23.549   2.744  13.547
51379W        W23804   4.417  20.846  11.625
51380W        W23805  18.834  10.349  10.221
51381W        W23806  18.754  29.599  14.854
51382W        W23807  21.544  42.050  11.937
51383W        W23808  20.601  42.667   0.859
51384W        W23809   3.433  22.558   4.132
51385W        W23810   9.421   2.760   3.139
51386W        W23811  17.308  33.072  13.305
51387W        W23812  36.859  42.975   4.570
51388W        W23813  21.468  33.122  13.910
51389W        W23814   9.099   0.368  11.461
51390W        W23815  18.647  26.970   1.640
51391W        W23816  44.844   2.842   0.350
51392W        W23817  12.080  15.553  11.052
51393W        W23818  31.571  35.132  12.052
51394W        W23819   8.642  35.383   3.980
51395W        W23820   4.288   8.200   3.072
51396W        W23821   5.196   5.901  13.405
51397W        W23822  22.739  17.687  14.375
51398W        W23823  42.350  17.026   3.256
51399W        W23824  39.117  17.150   3.563
51400W        W23825  23.197  20.807  13.827
51401W        W23826  39.791  44.232   2.778
51402W        W23827   1.543  30.955   0.859
51403W        W23828  26.185   5.897   4.181
51404W        W23829  42.524  15.513  13.686
51405W        W23830  33.944  18.646  14.829
51406W        W23831  10.796  28.608   3.799
51407W        W23832  18.263  24.327  14.407
51408W        W23833   1.914  41.860  14.474
51409W        W23834   7.779  19.633  14.070
51410W        W23835   2.390  32.229   2.192
51411W        W23836  28.516   0.412   3.804
51412W        W23837  26.703  11.285   0.846
51413W        W23838  15.291  12.149   0.449
51414W        W23839  41.304   2.081   0.771
51415W        W23840  35.568  30.363   4.192
51416W        W23841  25.905  36.843   0.692
51417W        W23842   3.364  31.097   3.578
51418W        W23843  26.375  40.966  14.823
51419W        W23844  28.050   6.914   2.136
51420W        W23845  37.640  30.494   3.637
51421W        W23846   4.718  27.253  14.852
51422W        W23847  42.053   6.145   4.669
51423W        W23848  19.432  21.395   3.149
51424W        W23849  37.801   5.424  12.863
51425W        W23850  17.486  28.721   2.325
51426W        W23851   9.122   7.320   0.323
51427W        W23852  16.336  12.658  12.857
51428W        W23853   7.823  10.888   3.878
51429W        W23854  11.199  10.250   4.129
51430W        W23855  22.654  32.129  10.981
51431W        W23856  41.413   0.763   0.471
51432W        W23857  44.216  11.988   1.603
51433W        W23858  40.591  32.948   2.768
51434W        W23859  19.125  38.607   1.197
51435W        W23860  17.153  32.145  14.732
51436W        W23861  38.798  25.069  11.627
51437W        W23862   3.186   0.025  13.776
51438W        W23863  35.159  33.396   0.712
51439W        W23864  18.151  10.616   1.606
51440W        W23865  13.489  16.148  14.865
51441W        W23866  22.148  22.936  13.194
51442W        W23867   1.894   8.407  13.083
51443W        W23868  44.072   0.548   3.274
51444W        W23869  38.516  26.013  14.129
51445W        W23870   9.838  17.513  12.091
51446W        W23871  20.691  41.326   4.928
51447W        W23872  43.257  27.065   3.269
51448W        W23873  16.065  31.062   2.115
51449W        W23874   1.131  16.521  12.931
51450W        W23875   5.415  12.737  13.470
51451W        W23876  36.512   5.950  12.863
51452W        W23877  17.607  24.167  13.945
51453W        W23878  17.861   1.977   4.921
51454W        W23879   9.276   0.478   0.795
51455W        W23880  37.755  37.889   0.008
51456W        W23881  44.765  18.375  13.380
51457W        W23882  34.658  42.748  11.656
51458W        W23883  28.838  40.343   0.793
51459W        W23884  35.949  29.007  13.383
51460W        W23885  11.043  27.546  12.836
51461W        W23886  40.231  24.266   1.579
51462W        W23887  14.812  34.669  11.063
51463W        W23888  44.787   7.779   2.156
51464W        W23889   5.215   1.981  14.424
51465W        W23890  36.061  43.015   1.646
51466W        W23891  40.822  18.959   2.501
51467W        W23892  42.792  41.448  14.887
51468W        W23893  32.816   8.673   4.619
51469W        W23894  15.233   6.814  12.872
51470W        W23895  26.588  38.974   3.705
51471W        W23896  15.897  20.388  14.037
51472W        W23897  28.739  36.448  12.495
51473W        W23898  27.922  20.521  11.122
51474W        W23899  43.286   6.348   2.301
51475W        W23900  26.158   1.364   3.770
51476W        W23901  38.858   6.174  11.981
51477W        W23902   8.421  30.625  10.719
51478W        W23903  16.382  29.937  12.268
51479W        W23904  42.263  23.726  13.388
51480W        W23905  35.223  30.467   3.809
51481W        W23906  28.576  25.528   4.842
51482W        W23907   3.816   1.741   1.662
51483W        W23908   0.273  38.016   1.705
51484W        W23909  28.121   2.080  12.924
51485W        W23910   4.454  26.929  12.062
51486W        W23911   2.684   2.692  14.813
51487W        W23912  17.690  11.183  13.841
51488W        W23913  15.599  22.036   2.280
51489W        W23914  18.716  19.790   3.280
51490W        W23915  38.030  39.345   0.006
51491W        W23916  27.099  14.193   0.062
51492W        W23917  24.055   3.674   0.107
51493W        W23918   4.970  26.678   3.698
51494W        W23919  29.837  26.531  11.999
51495W        W23920   7.353  25.152   2.632
51496W        W23921  39.407  32.546  14.744
51497W        W23922  12.856  40.389   3.561
51498W        W23923  33.608  43.383  11.916
51499W        W23924   6.197  27.623   4.344
51500W        W23925  41.179  34.839  11.057
51501W        W23926  17.551  31.899   0.798
51502W        W23927  40.933   0.262   1.199
51503W        W23928  37.737  19.808  13.792
51504W        W23929  34.059   1.084   0.413
51505W        W23930  23.921  35.173   2.679
51506W        W23931  16.320  40.499  12.359
51507W        W23932  28.095  28.728   3.777
51508W        W23933   5.912  11.672  12.262
51509W        W23934  12.154  12.752   2.553
51510W        W23935   3.407  33.127   1.027
51511W        W23936   5.936   7.777   3.183
51512W        W23937  14.743   0.069  14.870
51513W        W23938  33.392  24.466  10.719
51514W        W23939  14.928  14.100   3.149
51515W        W23940  11.502   0.776   2.985
51516W        W23941  10.387   5.660   3.719
51517W        W23942   8.126  26.117   4.256
51518W        W23943  39.476  31.659   4.295
51519W        W23944   2.203  11.770  13.867
51520W        W23945  32.214  39.961   4.533
51521W        W23946  18.644  10.223  10.671
51522W        W23947   3.739   5.863  10.582
51523W        W23948  29.435  31.969  13.100
51524W        W23949  32.531  33.799  10.451
51525W        W23950  26.187   2.763  13.353
51526W        W23951   4.529   2.902   1.302
51527W        W23952  28.720  33.168   4.592
51528W        W23953  30.982   9.625   0.456
51529W        W23954  34.151   1.361  10.641
51530W        W23955  33.074  11.118  13.440
51531W        W23956   2.685  42.874  13.530
51532W        W23957  25.966  14.350   2.821
51533W        W23958  12.882  10.115  14.031
51534W        W23959  33.865  16.981   4.281
51535W        W23960  26.624  24.788  13.118
51536W        W23961   2.770  12.240  12.617
51537W        W23962  17.729  41.393   0.173
51538W        W23963  37.244  20.889  11.492
51539W        W23964   7.363  40.916  13.491
51540W        W23965  13.835  31.634   2.510
51541W        W23966   5.137  10.826  14.965
51542W        W23967   9.665  19.579   3.892
51543W        W23968  20.142  36.713   4.146
51544W        W23969   1.901  19.723  10.477
51545W        W23970  19.138   4.162   0.685
51546W        W23971  15.741   8.151  10.545
51547W        W23972  35.658  12.776  10.760
51548W        W23973  39.285   4.824  11.142
51549W        W23974   1.883  15.274   2.674
51550W        W23975   0.258   3.762  11.222
51551W        W23976  19.362  40.022  14.761
51552W        W23977   0.941  39.366   2.219
51553W        W23978  25.272  37.345   3.307
51554W        W23979  30.501   6.022  11.134
51555W        W23980  30.747   8.818  12.159
51556W        W23981  27.532   3.847  12.702
51557W        W23982  44.546  36.836  12.465
51558W        W23983   6.388   4.588  10.686
51559W        W23984  32.299  12.741   1.129
51560W        W23985  21.782  33.478   4.632
51561W        W23986  13.562  21.070   1.327
51562W        W23987  23.647  28.426  14.633
51563W        W23988  34.095   8.139  14.417
51564W        W23989  25.704   7.243  14.285
51565W        W23990  43.573  12.292  11.125
51566W        W23991  20.766  31.483   4.453
51567W        W23992  32.691  38.886  11.680
51568W        W23993   9.666   5.835   2.707
51569W        W23994  35.163  26.905  12.712
51570W        W23995   7.397   4.261  14.556
51571W        W23996  44.311  15.701  11.010
51572W        W23997  43.925  28.173   1.252
51573W        W23998  21.849  31.611   2.491
51574W        W23999  43.046  23.896   2.337
51575W        W24000  32.951  35.995   0.258
51576W        W24001   1.161  21.467   3.783
51577W        W24002  30.572  23.543  12.643
51578W        W24003  22.230  13.672   0.014
51579W        W24004  42.049  19.701  13.936
51580W        W24005  12.307  38.343   4.209
51581W        W24006   1.244  11.115   1.772
51582W        W24007  20.124  11.379  10.309
51583W        W24008   0.907  35.797   4.323
51584W        W24009  35.325  34.198   2.828
51585W        W24010  37.484  29.029  11.455
51586W        W24011  32.592  25.704   2.717
51587W        W24012  40.618  23.721   1.670
51588W        W24013  25.859  35.514  10.620
51589W        W24014  11.584  32.954   0.283
51590W        W24015  21.627   1.774   0.838
51591W        W24016  26.233  28.157  10.520
51592W        W24017  39.038   1.916  14.781
51593W        W24018  17.091  11.825   1.966
51594W        W24019  42.904  35.696   2.742
51595W        W24020  42.224  29.542  12.942
51596W        W24021  14.234   3.926   0.942
51597W        W24022  26.828   5.304   3.588
51598W        W24023   0.413  27.415   1.861
51599W        W24024  35.305   6.435  10.461
51600W        W24025  13.710   0.297  13.419
51601W        W24026   5.211   1.281   4.505
51602W        W24027  28.517  19.354   4.101
51603W        W24028  26.009  36.317   4.526
51604W        W24029  20.224  35.960  12.210
51605W        W24030  35.886  41.989  14.842
51606W        W24031  31.454  19.473  13.603
51607W        W24032  10.809  16.638   2.736
51608W        W24033  37.407  31.877  12.496
51609W        W24034   2.889  33.802   1.625
51610W        W24035  43.645  43.226  12.626
51611W        W24036   5.709  36.557   0.315
51612W        W24037  18.226  40.258  10.954
51613W        W24038  39.335  14.820   2.338
51614W        W24039   7.882  32.099  12.628
51615W        W24040  42.313  42.462   0.404
51616W        W24041  34.438  19.725  12.047
51617W        W24042  20.171  15.941  12.412
51618W        W24043  40.479  44.237  10.669
51619W        W24044   2.227  32.332  12.216
51620W        W24045  38.099   2.035   2.768
51621W        W24046  37.577  40.108   3.196
51622W        W24047  42.830  20.085  10.660
51623W        W24048  18.953  13.765  12.157
51624W        W24049   8.919  42.695   3.721
51625W        W24050   9.823   2.685   4.865
51626W        W24051   8.312  13.334  10.479
51627W        W24052  39.034   8.728   2.915
51628W        W24053   9.364  28.567  13.544
51629W        W24054  24.763  42.083  13.617
51630W        W24055  36.881  27.249  11.930
51631W        W24056  33.074   9.121   4.441
51632W        W24057  16.294   6.489   2.102
51633W        W24058  10.785  26.201   1.703
51634W        W24059  38.404   7.280   1.023
51635W        W24060  16.837   4.981   0.632
51636W        W24061  23.278  42.255  13.744
51637W        W24062  15.746  27.989   1.224
51638W        W24063  16.154  22.968  12.412
51639W        W24064   5.758   4.884  13.665
51640W        W24065  18.658   5.327   3.160
51641W        W24066   0.702   1.935  13.294
51642W        W24067  36.086  12.814   1.867
51643W        W24068  42.450  42.122   1.419
51644W        W24069  43.229  37.362  10.605
51645W        W24070   4.359  40.874  14.847
51646W        W24071   2.234  29.458  14.906
51647W        W24072   3.688  19.671   3.850
51648W        W24073  19.754   1.700  11.570
51649W        W24074  37.933  44.026   0.945
51650W        W24075   1.163  41.574  10.594
51651W        W24076   4.641  40.306  14.267
51652W        W24077   5.983  44.549  12.494
51653W        W24078   9.813  32.364   4.740
51654W        W24079  28.587  33.598   9.806
51655W        W24080   9.669  23.632  12.449
51656W        W24081  25.932  40.106  11.107
51657W        W24082  30.492  17.691  10.563
51658W        W24083   2.519  21.063   0.028
51659W        W24084  24.575   3.601  12.631
51660W        W24085  44.779   8.505  12.025
51661W        W24086  29.590  26.180  11.583
51662W        W24087  39.280  27.425   4.089
51663W        W24088  29.005  24.044   4.768
51664W        W24089  39.267  29.984   3.430
51665W        W24090  41.699  33.473   9.943
51666W        W24091  26.034  42.058   2.273
51667W        W24092   3.035  23.127  10.517
51668W        W24093  30.278  13.614  13.010
51669W        W24094  37.055  12.400   1.190
51670W        W24095  35.378  34.566  11.712
51671W        W24096   9.369  43.977  12.702
51672W        W24097  24.005  24.646  13.044
51673W        W24098   5.259  21.119  11.741
51674W        W24099  38.152   7.710  11.243
51675W        W24100   0.722  29.278   4.143
51676W        W24101   2.441  12.263   4.907
51677W        W24102  35.848  11.236   2.263
51678W        W24103  37.350  17.511  14.888
51679W        W24104  10.858   6.141   9.797
51680W        W24105  29.717  31.151  12.529
51681W        W24106   9.628  23.801   0.170
51682W        W24107  37.630  40.772  13.067
51683W        W24108  37.286  27.459  14.328
51684W        W24109  19.615  44.577  12.951
51685W        W24110  32.493  37.735  14.038
51686W        W24111  33.151  43.973   4.168
51687W        W24112  33.333  41.785  14.607
51688W        W24113   7.650  14.726   0.294
51689W        W24114   4.004   4.042   1.831
51690W        W24115  28.925  35.070  10.797
51691W        W24116  28.705  34.232  14.683
51692W        W24117  13.251   6.453  14.280
51693W        W24118   9.778  10.238  13.920
51694W        W24119   6.198  33.308  12.998
51695W        W24120  42.479   8.036   4.542
51696W        W24121  41.976   0.117  12.443
51697W        W24122  27.404  30.407   0.311
51698W        W24123  11.673   0.920  13.459
51699W        W24124   2.673  11.300  12.501
51700W        W24125  15.254  13.618  10.735
51701W        W24126  35.413   5.384  13.282
51702W        W24127  19.602  24.183  12.842
51703W        W24128  20.188  34.379   4.636
51704W        W24129  43.480  12.257   1.915
51705W        W24130  30.906  31.464  10.926
51706W        W24131  25.837  40.738  12.590
51707W        W24132  20.750  41.446  14.393
51708W        W24133   1.805  18.574  11.635
51709W        W24134  27.499   1.000  13.972
51710W        W24135  11.651   9.140   0.988
51711W        W24136  25.884   8.123  14.869
51712W        W24137  11.226   5.923  11.850
51713W        W24138  41.986  35.875   3.644
51714W        W24139   8.890  43.975  12.022
51715W        W24140  20.689   2.054   1.273
51716W        W24141  21.492  21.203  14.065
51717W        W24142  25.450  25.682  11.558
51718W        W24143  33.636  23.229  13.328
51719W        W24144  12.301  39.130   3.615
51720W        W24145  30.420  37.899   0.418
51721W        W24146  32.157  21.053   3.165
51722W        W24147  16.441  32.401   0.226
51723W        W24148   9.404  20.312  10.640
51724W        W24149  40.997  18.230  11.973
51725W        W24150  32.023   1.431  14.982
51726W        W24151  12.580  43.933  10.646
51727W        W24152  29.109  43.540  11.855
51728W        W24153  37.038  28.500   4.508
51729W        W24154  34.929   0.774  12.772
51730W        W24155  12.673  17.165  12.572
51731W        W24156  44.788  14.074   4.862
51732W        W24157  18.777  19.730  11.551
51733W        W24158  37.103  26.861   2.800
51734W        W24159  25.280  39.477   4.119
51735W        W24160  43.391  22.188   4.602
51736W        W24161  44.715   7.924  10.704
51737W        W24162  44.323  38.772   2.858
51738W        W24163  44.701  29.028   3.328
51739W        W24164  17.354  22.020   1.958
51740W        W24165   1.969   8.641   1.171
51741W        W24166  40.904  21.599   0.756
51742W        W24167  31.616  13.273   2.726
51743W        W24168   2.747   3.404  12.269
51744W        W24169   2.566  32.887   0.266
51745W        W24170  29.111  12.145   2.473
51746W        W24171   4.468  22.603   2.132
51747W        W24172  42.525  12.352   3.291
51748W        W24173  40.543  17.845  14.951
51749W        W24174  20.786   2.301   3.058
51750W        W24175   5.459   0.930   0.168
51751W        W24176  15.239  23.758  12.485
51752W        W24177  13.638  28.034  12.382
51753W        W24178  27.100  32.609   4.097
51754W        W24179  23.618  42.944  10.601
51755W        W24180  21.629  40.413   1.268
51756W        W24181  14.592  43.379  11.920
51757W        W24182  31.789  12.622  11.086
51758W        W24183   8.865  32.662   1.819
51759W        W24184  32.344  13.766  12.522
51760W        W24185  39.123  41.405  14.865
51761W        W24186  23.910  24.606  10.383
51762W        W24187  23.793  18.148  13.024
51763W        W24188  38.091  24.223  14.843
51764W        W24189   5.460   9.401   4.616
51765W        W24190   3.919   7.319   1.653
51766W        W24191  42.124  12.250  10.958
51767W        W24192  24.669   1.864  10.735
51768W        W24193  30.107   8.712   1.700
51769W        W24194  18.674   6.705  14.076
51770W        W24195  16.699   4.952  14.776
51771W        W24196  37.070  31.640   1.430
51772W        W24197   5.525   3.395  13.097
51773W        W24198   6.480  43.275  13.753
51774W        W24199  39.736  24.052  14.997
51775W        W24200   2.829  15.620   2.891
51776W        W24201  29.478   8.759   4.423
51777W        W24202  38.472   0.648  13.923
51778W        W24203  14.474  22.445   4.970
51779W        W24204   2.356  25.712  11.345
51780W        W24205  22.665  18.650  12.538
51781W        W24206  12.871  42.110  14.406
51782W        W24207  23.972  23.459  13.211
51783W        W24208  21.055   2.115  11.129
51784W        W24209  43.083  40.009   3.223
51785W        W24210   5.724  24.674   2.617
51786W        W24211  32.473  27.335  12.049
51787W        W24212  29.487  23.908   0.421
51788W        W24213  42.096  29.924  13.797
51789W        W24214  23.526  36.434   4.223
51790W        W24215   5.382  20.558  14.807
51791W        W24216   6.754   2.030  12.510
51792W        W24217  15.598  32.071  11.380
51793W        W24218  29.462   7.236  11.899
51794W        W24219   4.621  32.805   0.194
51795W        W24220  29.067  22.107   2.963
51796W        W24221  18.607   0.591   3.051
51797W        W24222   0.853  43.443  11.953
51798W        W24223  27.648  41.747  11.549
51799W        W24224   1.431  27.893  10.595
51800W        W24225  10.455  38.963  12.421
51801W        W24226  39.496  18.848   4.449
51802W        W24227   4.251   4.510  14.994
51803W        W24228   9.058  39.978  10.677
51804W        W24229  36.658   3.955  11.503
51805W        W24230  13.260  16.148  13.574
51806W        W24231  37.057  36.593  14.504
51807W        W24232  18.785  34.580  13.546
51808W        W24233  22.142  41.194  14.067
51809W        W24234  38.652   2.228   0.923
51810W        W24235   4.631  29.507  11.636
51811W        W24236  24.186   1.097   2.340
51812W        W24237  43.406  37.013   0.903
51813W        W24238  23.705   4.859   2.276
51814W        W24239  21.562  34.499   2.765
51815W        W24240  17.320  23.571   2.788
51816W        W24241   0.239   7.063  11.131
51817W        W24242  39.925  20.195   1.938
51818W        W24243  27.883  31.516  11.170
51819W        W24244  35.905  41.032   4.906
51820W        W24245  31.495   7.834  11.674
51821W        W24246  21.076   5.494  12.929
51822W        W24247  17.281  36.243   4.101
51823W        W24248  23.218  18.853  14.832
51824W        W24249  12.372  25.145   3.370
51825W        W24250  32.320   3.326   2.868
51826W        W24251  43.976   6.888  10.611
51827W        W24252  12.986  26.771   2.866
51828W        W24253  28.564  42.736   3.246
51829W        W24254  32.920   9.144   3.916
51830W        W24255  33.189  44.104  14.275
51831W        W24256  13.008  42.148   2.737
51832W        W24257  20.631  19.109  14.776
51833W        W24258  12.916  37.252  11.238
51834W        W24259  18.446   4.610   4.766
51835W        W24260  42.757  39.895   2.263
51836W        W24261   0.766   8.527  11.155
51837W        W24262  32.028  24.415  10.991
51838W        W24263  22.193  23.774  13.753
51839W        W24264  27.004  31.407   4.998
51840W        W24265  26.605  14.276   4.404
51841W        W24266  38.939  15.816   0.353
51842W        W24267  29.501  34.433   0.848
51843W        W24268  23.749  36.939  14.387
51844W        W24269  22.070  21.762  11.613
51845W        W24270  13.278  16.755  11.543
51846W        W24271  30.163  29.945  11.633
51847W        W24272   2.585  17.435  12.482
51848W        W24273  30.672  44.455  14.846
51849W        W24274   9.873  28.355   2.079
51850W        W24275  43.645  23.140  12.486
51851W        W24276  41.304  14.363   4.314
51852W        W24277  30.874  26.387   4.191
51853W        W24278  21.879  31.039  11.977
51854W        W24279   5.628  17.093  12.877
51855W        W24280   3.206   6.825   1.838
51856W        W24281  23.033   4.709  10.628
51857W        W24282  11.864   5.428   3.724
51858W        W24283  21.331   5.981   0.487
51859W        W24284  33.842   7.380  10.549
51860W        W24285  30.719  18.466   9.790
51861W        W24286  39.471  35.844  12.552
51862W        W24287   2.444  31.344  13.869
51863W        W24288  12.985  44.116   3.793
51864W        W24289  20.449  42.358  12.957
51865W        W24290  35.072  41.108   1.174
51866W        W24291  39.408  30.034  12.907
51867W        W24292  25.613  30.374   2.271
51868W        W24293  38.441  15.853   0.447
51869W        W24294  14.138  42.869   4.060
51870W        W24295  20.715  37.981  13.875
51871W        W24296  17.188  18.091  10.724
51872W        W24297  27.549  29.196  10.721
51873W        W24298   3.714  31.953   3.080
51874W        W24299  34.060   7.684   2.452
51875W        W24300  13.306  29.648  11.541
51876W        W24301  24.229  11.193  11.940
51877W        W24302  20.441  23.707   3.673
51878W        W24303  34.231  27.273   2.218
51879W        W24304  21.786  41.055  14.961
51880W        W24305   8.599  41.110  11.965
51881W        W24306   8.289  24.612   2.202
51882W        W24307  22.336  27.078   0.810
51883W        W24308  26.889  13.535   4.175
51884W        W24309  20.756  32.089  13.844
51885W        W24310  33.776  20.330   1.674
51886W        W24311  17.177  19.028   4.765
51887W        W24312  16.156  32.424  14.439
51888W        W24313  40.408  37.110  12.863
51889W        W24314  22.182  38.620  13.119
51890W        W24315   3.236  25.214   4.804
51891W        W24316  14.765  13.156   2.887
51892W        W24317   6.153  22.140  14.371
51893W        W24318  12.751  31.060   2.773
51894W        W24319  30.970  14.708   4.389
51895W        W24320   3.555  13.625   1.252
51896W        W24321  16.577   1.068   4.615
51897W        W24322  30.046   2.566  14.458
51898W        W24323  21.769  40.043   0.943
51899W        W24324   4.660  40.040   2.135
51900W        W24325   2.724  29.063  14.387
51901W        W24326  34.623  23.697   1.387
51902W        W24327  26.663  35.039  10.398
51903W        W24328   5.212   7.330  14.183
51904W        W24329  36.307  41.411  14.804
51905W        W24330  43.404   3.245   4.511
51906W        W24331  16.997   1.184  14.825
51907W        W24332   1.496   1.484  14.368
51908W        W24333  26.604   2.711  10.685
51909W        W24334  26.981  32.038   2.658
51910W        W24335  19.572  14.800   2.625
51911W        W24336  37.950   9.607  14.223
51912W        W24337  16.370   2.701   2.281
51913W        W24338  33.575  39.394   3.272
51914W        W24339  18.196  19.703  14.079
51915W        W24340  28.027  38.157   4.145
51916W        W24341   4.506  29.147   4.555
51917W        W24342  12.077  14.840   2.868
51918W        W24343  18.594  15.912   0.546
51919W        W24344   0.786  15.843  10.940
51920W        W24345   2.029  16.056  10.704
51921W        W24346  22.307  44.969   2.422
51922W        W24347  38.432  35.728   0.927
51923W        W24348  12.207  25.969   1.218
51924W        W24349  17.865  32.856  14.426
51925W        W24350  10.023  14.329   0.064
51926W        W24351  17.864   5.379  14.677
51927W        W24352   1.348  10.685  10.836
51928W        W24353   9.791  32.561   3.294
51929W        W24354   3.891  32.408  11.772
51930W        W24355  37.608  42.789  14.489
51931W        W24356   2.880  15.054  11.896
51932W        W24357   7.314  17.358  10.301
51933W        W24358  20.659  29.127  14.770
51934W        W24359  29.883  30.374  11.575
51935W        W24360  27.993  23.341  10.160
51936W        W24361  44.153  19.458  12.018
51937W        W24362  33.964  34.387  12.988
51938W        W24363  29.529  15.875  14.015
51939W        W24364  27.091  15.772  14.235
51940W        W24365  11.155  18.536  14.942
51941W        W24366  15.825   2.207  10.536
51942W        W24367   1.703  10.930   3.714
51943W        W24368  30.480  31.167  10.948
51944W        W24369  10.703  11.617   2.504
51945W        W24370   8.412  34.486   9.976
51946W        W24371  25.139  38.865  11.194
51947W        W24372  37.520  15.865  12.859
51948W        W24373  14.752  26.782  10.487
51949W        W24374  13.320   8.111   3.826
51950W        W24375  30.787   7.397  13.980
51951W        W24376  40.316  21.452  13.848
51952W        W24377  22.950  35.453   3.192
51953W        W24378  14.859   4.054  10.887
51954W        W24379  36.050  30.542  12.941
51955W        W24380   1.778  12.128   4.177
51956W        W24381  28.954  13.383  10.712
51957W        W24382  43.230   4.385  12.542
51958W        W24383  29.878  21.783  13.974
51959W        W24384  14.217  31.431  10.494
51960W        W24385  20.574  12.298   2.421
51961W        W24386  31.024   3.015  11.463
51962W        W24387  30.875  33.545   4.353
51963W        W24388  15.335   2.259   4.225
51964W        W24389  10.427  30.688   3.632
51965W        W24390   7.955  27.518  12.027
51966W        W24391  33.993  13.202   1.839
51967W        W24392  22.578  12.110  11.388
51968W        W24393  32.589  20.500  13.959
51969W        W24394  42.931   4.406   4.563
51970W        W24395  41.035  11.805   2.413
51971W        W24396  43.479   0.186   0.857
51972W        W24397  44.257  39.354   1.175
51973W        W24398  36.959  18.952  11.693
51974W        W24399  12.068  26.113   3.856
51975W        W24400   1.405  22.332  10.694
51976W        W24401  23.284  35.360  14.007
51977W        W24402  42.493  19.728   1.902
51978W        W24403  38.100  21.621  10.695
51979W        W24404  20.332  44.400   4.289
51980W        W24405  34.989  41.244   4.131
51981W        W24406   7.722  21.548  14.050
51982W        W24407  10.149  40.588   3.585
51983W        W24408   8.819   0.987   1.946
51984W        W24409   2.486  18.483  11.895
51985W        W24410   0.339  24.172  13.432
51986W        W24411  22.618  22.478   1.385
51987W        W24412  29.391  35.460  12.068
51988W        W24413  10.746  42.856   1.420
51989W        W24414   2.476  44.190  10.053
51990W        W24415   3.698   0.000   3.003
51991W        W24416  20.969  32.715  14.912
51992W        W24417   9.721  17.936   1.992
51993W        W24418  16.998  33.463  13.120
51994W        W24419  23.650  23.715  13.521
51995W        W24420  22.094  10.888  12.503
51996W        W24421  35.677  38.419  14.482
51997W        W24422  36.640  31.172   4.031
51998W        W24423  16.698  16.352  13.903
51999W        W24424  38.951   4.442  11.223
52000W        W24425   5.352  42.903   0.960
52001W        W24426  28.082  14.130   3.300
52002W        W24427  12.159  15.675   1.451
52003W        W24428  14.990  14.390   4.471
52004W        W24429  38.185   0.188  13.921
52005W        W24430   1.038  24.672  14.773
52006W        W24431  27.241  42.015  13.940
52007W        W24432  31.652  31.992  12.083
52008W        W24433  25.430  44.441   1.886
52009W        W24434  42.104  20.600   1.707
52010W        W24435  42.536  39.232   2.828
52011W        W24436  13.268  17.515   3.737
52012W        W24437  32.000  27.433  10.683
52013W        W24438  17.722   2.975  11.862
52014W        W24439  24.582   0.790  12.114
52015W        W24440  26.219  12.849   2.761
52016W        W24441  24.025  24.198   3.233
52017W        W24442   2.957  39.049  14.749
52018W        W24443   7.017  34.129   0.733
52019W        W24444  39.217   4.972  13.158
52020W        W24445  35.063  32.529  13.446
52021W        W24446  13.985  27.883  13.846
52022W        W24447  16.824  20.876  13.010
52023W        W24448  21.776  22.110   4.591
52024W        W24449  38.596  17.071   1.846
52025W        W24450  12.797  25.471   2.499
52026W        W24451   7.827  15.267   1.318
52027W        W24452   7.975  13.993  11.098
52028W        W24453  42.361  24.136   0.821
52029W        W24454  27.913  27.893   2.244
52030W        W24455  40.968  37.411  10.747
52031W        W24456   8.262  23.071   0.058
52032W        W24457   2.015   9.899  12.425
52033W        W24458  25.519  44.925  12.066
52034W        W24459   9.364  37.599   2.264
52035W        W24460  38.362  31.509  14.494
52036W        W24461  43.380  21.111  13.569
52037W        W24462  11.684  11.172  13.608
52038W        W24463  10.201  32.353  13.849
52039W        W24464  39.016  41.072  13.899
52040W        W24465  12.363  33.281   3.821
52041W        W24466  19.657   8.251   1.746
52042W        W24467   1.405  28.994  14.831
52043W        W24468  44.237   5.153  11.724
52044W        W24469  16.839  38.266  12.406
52045W        W24470  20.235  38.097   1.469
52046W        W24471  25.460  23.491   0.342
52047W        W24472  15.787  21.856  13.291
52048W        W24473  23.749  19.242  13.585
52049W        W24474  20.713  20.644   2.760
52050W        W24475   8.564  39.828   3.599
52051W        W24476  36.858  31.010   1.681
52052W        W24477  31.080  26.167  14.433
52053W        W24478  32.909  44.875   2.776
52054W        W24479  25.968  10.139   1.228
52055W        W24480  14.365  17.397  14.247
52056W        W24481   9.890  13.904   0.331
52057W        W24482  11.058  14.798  14.823
52058W        W24483   8.141  40.788   1.361
52059W        W24484  36.896  30.929   0.813
52060W        W24485   4.539  15.705  13.349
52061W        W24486  40.400  41.372   0.466
52062W        W24487  42.974  23.704   3.666
52063W        W24488   2.933   2.765   2.241
52064W        W24489  19.293  12.815  13.152
52065W        W24490  24.099  41.345   1.921
52066W        W24491  30.593  20.249   2.224
52067W        W24492  18.650  13.744  14.517
52068W        W24493  17.267  10.383   0.267
52069W        W24494  15.183   3.225  13.035
52070W        W24495  14.712   5.967   3.805
52071W        W24496   7.847  23.583  14.694
52072W        W24497  18.488  18.558   0.873
52073W        W24498  34.144  33.495   0.828
52074W        W24499  28.327  42.755  12.815
52075W        W24500   0.731   5.779  12.535
52076W        W24501  13.275  12.353  11.971
52077W        W24502  15.816   3.288  12.362
52078W        W24503  27.704   7.936  12.568
52079W        W24504  16.826  21.176  11.203
52080W        W24505  21.192  10.672   2.728
52081W        W24506  34.469  30.569  12.835
52082W        W24507  42.763   8.909   1.942
52083W        W24508  19.343   7.949  11.133
52084W        W24509  36.487  28.991  11.653
52085W        W24510  25.675  38.709  11.180
52086W        W24511  33.626  12.367   3.284
52087W        W24512   8.159  32.487  12.389
52088W        W24513  12.646  33.998   1.773
52089W        W24514  11.086   3.588   3.741
52090W        W24515  19.091  27.987  10.674
52091W        W24516  27.782   2.817   1.422
52092W        W24517  37.038  18.022  11.749
52093W        W24518  28.849  28.956   1.438
52094W        W24519   5.430  40.537   1.390
52095W        W24520   8.027  36.221   1.224
52096W        W24521   0.968  23.127  12.081
52097W        W24522  19.209   7.679   3.314
52098W        W24523  35.100  20.726  10.655
52099W        W24524   3.931   3.164  12.982
52100W        W24525  24.543  22.918  10.675
52101W        W24526  34.652  31.823   3.262
52102W        W24527   4.258   9.397  13.039
52103W        W24528  27.720   1.100   1.431
52104W        W24529  13.125  12.863   1.426
52105W        W24530  35.091  10.353   3.650
52106W        W24531  10.008  30.705   5.537
52107W        W24532  41.967   4.661   3.290
52108W        W24533  38.119  16.786   1.424
52109W        W24534  21.301  21.476   1.272
52110W        W24535  18.289   8.270   1.508
52111W        W24536   7.892   1.448  14.062
52112W        W24537  31.438  10.058  14.858
52113W        W24538  16.890  42.970   0.837
52114W        W24539  40.008   9.687   1.860
52115W        W24540  38.803  31.667   2.693
52116W        W24541  19.012  13.667   1.427
52117W        W24542  36.903  36.330  13.672
52118W        W24543   8.583   2.378   3.347
52119W        W24544   4.265  15.594   4.618
52120W        W24545  32.895  29.463  13.574
52121W        W24546  33.517  26.328  13.936
52122W        W24547  22.101  40.888  13.646
52123W        W24548  24.463  17.957  10.731
52124W        W24549  40.525   1.899   2.391
52125W        W24550  37.637  35.822  11.545
52126W        W24551   5.021  30.682  12.459
52127W        W24552  32.848  25.456   4.486
52128W        W24553  28.097  36.720   4.579
52129W        W24554  21.769   3.389  13.914
52130W        W24555  39.393   1.327  12.486
52131W        W24556  34.533   4.086   0.446
52132W        W24557  16.461  20.610   2.853
52133W        W24558   2.880  12.154  11.704
52134W        W24559  26.680   8.558  11.703
52135W        W24560  20.714  16.826  12.373
52136W        W24561  28.514  39.708  14.342
52137W        W24562  28.473  12.181  13.075
52138W        W24563  35.605   4.713  10.629
52139W        W24564  19.798  39.512  14.865
52140W        W24565  17.304  25.186   3.109
52141W        W24566  39.051  21.916  10.848
52142W        W24567  12.101   9.154  14.980
52143W        W24568  40.953  38.086   0.385
52144W        W24569  10.228  23.271   2.333
52145W        W24570  34.934   9.906  13.765
52146W        W24571  41.871   7.100   4.642
52147W        W24572  39.595  28.052  10.959
52148W        W24573  33.317  43.383  14.766
52149W        W24574   1.930  25.178   3.342
52150W        W24575  12.082  30.161  11.061
52151W        W24576  19.386  31.150   1.290
52152W        W24577   0.428  43.946   2.766
52153W        W24578  34.635  41.086  13.255
52154W        W24579  35.470   1.054   3.456
52155W        W24580  20.247  11.839   0.011
52156W        W24581  11.211  40.582   4.307
52157W        W24582  44.986  20.659   1.664
52158W        W24583  44.404  31.575   2.106
52159W        W24584   4.466  10.475   0.407
52160W        W24585  43.082  42.789  10.870
52161W        W24586  30.049   4.732   4.632
52162W        W24587   0.378  39.824  14.740
52163W        W24588  23.487  23.915  14.350
52164W        W24589  10.794  35.489   4.249
52165W        W24590  30.418   6.204  14.540
52166W        W24591  43.841  28.627   3.513
52167W        W24592   6.957  19.306   3.192
52168W        W24593   9.714   7.579   4.878
52169W        W24594  11.224   6.798   5.612
52170W        W24595  42.820  39.587  10.696
52171W        W24596  11.914  27.144  12.048
52172W        W24597  40.913  15.400  11.545
52173W        W24598  10.115  13.012   4.138
52174W        W24599  32.776   9.195  11.715
52175W        W24600  36.418   7.185  11.943
52176W        W24601  11.834  42.301   4.330
52177W        W24602  12.697  29.326   2.183
52178W        W24603  10.383  43.125   2.730
52179W        W24604   2.483  26.606   3.255
52180W        W24605  34.115   3.661  13.890
52181W        W24606   6.394   8.297   4.368
52182W        W24607  26.070   0.786  11.914
52183W        W24608  19.669  43.234   2.863
52184W        W24609  32.000  33.601   4.151
52185W        W24610  25.513  15.620   4.547
52186W        W24611  21.205   0.176  13.591
52187W        W24612  18.236   3.074  13.417
52188W        W24613  28.025   1.779  11.030
52189W        W24614  21.477  17.802   4.516
52190W        W24615   5.375  17.098  13.870
52191W        W24616  27.022   1.363   1.923
52192W        W24617  30.827  24.673  14.591
52193W        W24618  21.962  40.827   1.289
52194W        W24619  35.819  21.275   3.039
52195W        W24620  26.982  38.905   3.348
52196W        W24621  23.938  28.061   2.767
52197W        W24622  41.392   7.735  12.100
52198W        W24623   2.715   0.729   2.804
52199W        W24624   5.423  11.947   0.814
52200W        W24625  23.199  44.771   1.984
52201W        W24626  11.804  11.546   2.311
52202W        W24627   6.855  21.672  10.842
52203W        W24628   1.340  21.078   4.764
52204W        W24629  13.207  29.586  12.580
52205W        W24630   0.086  22.006  11.090
52206W        W24631  34.904  12.176  12.923
52207W        W24632  17.745  40.681   1.503
52208W        W24633  24.823  40.831   3.467
52209W        W24634  22.820  15.084   4.162
52210W        W24635  36.323  27.289   1.800
52211W        W24636  37.809   7.317   3.744
52212W        W24637  35.402  10.580   1.752
52213W        W24638   0.024  33.084   4.142
52214W        W24639  43.308  37.887   1.335
52215W        W24640  10.843  16.279  14.916
52216W        W24641  41.964  43.563  13.366
52217W        W24642  39.522  43.967  14.273
52218W        W24643  41.481   1.991   1.241
52219W        W24644  18.228  25.821  12.120
52220W        W24645  44.509  32.602  13.392
52221W        W24646  10.432   0.020  13.048
52222W        W24647  40.316  33.192  12.351
52223W        W24648   8.238   6.940  13.930
52224W        W24649  18.027  29.092  10.416
52225W        W24650  15.845  28.049   2.413
52226W        W24651  13.683  25.162   4.921
52227W        W24652  42.782  24.905   2.236
52228W        W24653  29.628  44.532   2.702
52229W        W24654  16.536   3.635  13.841
52230W        W24655   6.959  30.870  14.413
52231W        W24656  42.541  33.393  11.143
52232W        W24657  40.261   2.915  12.061
52233W        W24658  22.695  28.027   3.665
52234W        W24659  23.902  35.406   2.210
52235W        W24660  41.971  16.272   4.030
52236W        W24661  27.742  44.011   0.764
52237W        W24662  19.114   1.759  11.944
52238W        W24663  31.425  20.933  11.215
52239W        W24664   1.349  20.710   2.726
52240W        W24665  28.910  38.916  13.851
52241W        W24666   2.150   9.323   4.757
52242W        W24667  43.371  25.750  12.374
52243W        W24668   7.516  29.947  13.318
52244W        W24669  28.647  29.584  14.422
52245W        W24670  31.812  29.045   0.939
52246W        W24671  18.214  12.668   0.837
52247W        W24672  38.795  33.762   1.880
52248W        W24673  35.111  41.751   4.134
52249W        W24674   9.539   6.418  13.014
52250W        W24675  28.168  38.163   2.447
52251W        W24676   6.399  42.795  11.029
52252W        W24677  30.938  43.360  14.303
52253W        W24678  43.476  28.803  10.205
52254W        W24679  33.691  13.182  13.451
52255W        W24680  10.972  17.131  13.063
52256W        W24681  37.299  33.946  11.863
52257W        W24682  29.585  33.150  12.821
52258W        W24683  20.223  30.009  13.234
52259W        W24684  21.049  13.455  11.972
52260W        W24685  21.030  35.104   4.627
52261W        W24686  15.549  39.429  12.119
52262W        W24687  26.015  37.827  11.834
52263W        W24688   4.769   9.689   3.019
52264W        W24689  15.692  44.332   3.134
52265W        W24690   9.829   2.256  13.251
52266W        W24691  29.165   1.779   3.326
52267W        W24692  31.539   0.790   1.791
52268W        W24693  34.120  35.218  10.622
52269W        W24694  29.072  16.547  12.497
52270W        W24695  18.035  36.983  10.711
52271W        W24696  41.222  33.561  13.655
52272W        W24697  18.549  16.405  12.973
52273W        W24698   4.192  18.322   2.177
52274W        W24699  36.832  40.755   2.272
52275W        W24700  15.628  35.981   0.679
52276W        W24701  27.240   2.595  13.076
52277W        W24702  21.687  38.501  10.726
52278W        W24703  29.525  33.318   0.326
52279W        W24704  35.825  35.875  11.163
52280W        W24705  21.582  21.830  14.773
52281W        W24706  27.027  31.604   2.320
52282W        W24707  30.424  39.295  13.677
52283W        W24708  39.320   6.235   2.446
52284W        W24709   6.148  31.432  11.539
52285W        W24710   9.466  44.165  13.630
52286W        W24711  22.105  32.395   1.392
52287W        W24712   2.723  25.906  13.377
52288W        W24713   8.899   2.430  12.897
52289W        W24714   0.355  35.606   0.864
52290W        W24715   9.249  17.831  11.494
52291W        W24716  25.197  27.591   4.530
52292W        W24717  32.385  26.477   0.458
52293W        W24718   9.749  18.654   2.229
52294W        W24719  27.470  26.126  11.361
52295W        W24720  18.691  25.477   1.567
52296W        W24721  39.847  43.146  13.903
52297W        W24722  19.166  33.851  10.618
52298W        W24723  35.959   7.755   2.833
52299W        W24724   4.739  25.032  12.838
52300W        W24725   8.296  43.338   4.403
52301W        W24726  29.990  28.834   4.169
52302W        W24727  21.752  17.541   1.005
52303W        W24728  34.848  35.486   1.857
52304W        W24729  34.854  15.201  14.314
52305W        W24730  18.711  25.955   0.803
52306W        W24731   5.006   0.878  12.075
52307W        W24732  37.071  35.624  11.643
52308W        W24733   4.769  42.365  12.891
52309W        W24734  16.251  11.712  14.014
52310W        W24735  32.398  10.262  12.391
52311W        W24736  33.392   5.112   4.177
52312W        W24737  12.086  20.834  13.329
52313W        W24738  26.438  41.347   4.577
52314W        W24739   8.612  17.825   3.300
52315W        W24740  11.359   6.639  11.876
52316W        W24741  33.135  35.455  13.839
52317W        W24742  26.926  18.199   2.219
52318W        W24743   8.917  22.629   4.254
52319W        W24744  25.098  28.908   4.116
52320W        W24745  39.226  10.087   4.034
52321W        W24746   5.276  33.252   2.017
52322W        W24747   6.134  15.042  10.693
52323W        W24748  15.341  23.486  13.337
52324W        W24749  16.377  16.615   3.195
52325W        W24750  39.033  18.552  13.566
52326W        W24751  44.315  21.804   1.383
52327W        W24752  23.057  21.014  12.487
52328W        W24753   2.835  21.730  11.492
52329W        W24754   6.866  12.270   4.899
52330W        W24755  33.303  25.615   4.714
52331W        W24756   1.854  16.502  14.442
52332W        W24757   0.337  31.821   3.682
52333W        W24758   2.927   0.036   4.811
52334W        W24759  20.431  20.779   2.349
52335W        W24760  27.517   9.110  13.959
52336W        W24761  19.568  34.225  14.129
52337W        W24762  24.306  30.662   2.693
52338W        W24763  26.444  18.883  11.029
52339W        W24764   8.478  43.251   0.910
52340W        W24765  25.384  10.388   3.274
52341W        W24766   0.126  26.041   0.426
52342W        W24767  40.712   5.329  12.159
52343W        W24768  13.752  40.459  12.429
52344W        W24769  11.280  37.259  13.887
52345W        W24770  21.015  28.008  12.127
52346W        W24771  38.488   8.099   0.249
52347W        W24772  13.254  38.613   3.658
52348W        W24773  15.324  28.418   4.663
52349W        W24774  14.083  28.592  13.465
52350W        W24775  14.597  10.365  12.805
52351W        W24776  38.068   7.978   2.304
52352W        W24777   3.707  20.199   3.742
52353W        W24778  13.372  29.449  14.833
52354W        W24779  27.347  14.545  11.914
52355W        W24780  32.697  13.819  11.127
52356W        W24781  27.000  22.652  10.042
52357W        W24782  31.163  28.921  11.489
52358W        W24783  27.743  30.484  13.316
52359W        W24784  22.013  18.557   0.007
52360W        W24785  41.378  21.003   3.753
52361W        W24786  18.600   0.545  11.838
52362W        W24787   6.275  37.294   0.525
52363W        W24788  43.866  37.824   4.694
52364W        W24789  40.922  11.403   2.736
52365W        W24790  28.701  13.521  13.051
52366W        W24791   7.699  20.185   4.980
52367W        W24792  38.408  29.461  10.948
52368W        W24793  40.968  40.978   1.657
52369W        W24794  36.178  37.835   2.197
52370W        W24795  20.493  22.931  12.546
52371W        W24796   1.755   7.388  14.311
52372W        W24797  10.217  17.148  14.272
52373W        W24798   7.338   5.973  13.957
52374W        W24799   5.439  13.739  13.568
52375W        W24800  21.181  10.908  14.806
52376W        W24801  31.663   7.366  14.840
52377W        W24802   9.839   3.650  12.599
52378W        W24803  10.237  19.971  13.885
52379W        W24804   1.302   4.086   1.834
52380W        W24805  36.780  15.663   0.943
52381W        W24806  13.239  14.181  10.789
52382W        W24807  21.814  14.999  12.506
52383W        W24808  16.740   4.025  14.159
52384W        W24809  29.509  11.047   0.945
52385W        W24810   7.401  43.890  14.965
52386W        W24811  14.732  25.469   4.302
52387W        W24812   0.355   0.324  12.042
52388W        W24813  23.225  30.151   0.292
52389W        W24814  36.925  34.319   4.487
52390W        W24815   2.401  13.326  13.611
52391W        W24816  10.586  43.979   4.736
52392W        W24817   4.460   3.854  11.227
52393W        W24818  17.135  34.693   1.392
52394W        W24819  19.418  24.263  11.835
52395W        W24820  24.824  21.182   0.435
52396W        W24821  14.865  23.213   0.442
52397W        W24822   6.890  30.711   2.723
52398W        W24823  39.790  21.750   0.207
52399W        W24824   9.483  19.277  11.561
52400W        W24825   5.346  25.252  12.017
52401W        W24826  33.398  30.431  13.388
52402W        W24827  39.146  34.148   1.791
52403W        W24828   4.955  30.182  11.212
52404W        W24829   3.317  25.002  11.530
52405W        W24830  16.294   8.260   4.204
52406W        W24831   5.655  34.832  11.555
52407W        W24832  34.385  22.731  14.340
52408W        W24833  16.082   0.743  14.818
52409W        W24834   1.671  22.099  13.574
52410W        W24835  39.786   1.896  14.367
52411W        W24836  18.572  25.535  11.841
52412W        W24837  37.771   8.535   3.116
52413W        W24838  22.764  32.350   1.790
52414W        W24839  43.795  20.198   3.827
52415W        W24840  22.668  15.102   1.805
52416W        W24841  42.995  37.853  14.976
52417W        W24842   9.792  30.179  14.451
52418W        W24843  40.224  40.466  10.820
52419W        W24844  35.099  41.145  11.157
52420W        W24845  26.784  20.873  10.381
52421W        W24846  13.606   7.855   3.261
52422W        W24847   9.833  31.942   3.340
52423W        W24848  31.466  27.478  13.835
52424W        W24849  24.197   7.621  10.606
52425W        W24850  22.097  27.120   2.557
52426W        W24851  30.601   4.270   4.630
52427W        W24852  36.090   8.901   3.336
52428W        W24853  27.443  30.579  12.909
52429W        W24854  41.356  11.871   0.928
52430W        W24855  40.850   8.259   2.910
52431W        W24856  11.325   6.218  10.557
52432W        W24857  41.962  37.894  14.286
52433W        W24858  34.942  16.799  11.209
52434W        W24859  19.107  10.311  10.861
52435W        W24860  35.405   9.167  13.338
52436W        W24861  38.066  19.918  12.004
52437W        W24862   8.357  16.748   4.580
52438W        W24863   4.738  43.906   1.947
52439W        W24864  18.202  30.566   2.455
52440W        W24865  19.555  17.158   2.356
52441W        W24866   4.366  22.147   0.374
52442W        W24867   1.583  44.829  14.901
52443W        W24868  28.422  10.116   0.680
52444W        W24869  18.179   7.965  13.493
52445W        W24870  35.473  43.329  14.246
52446W        W24871  15.549  36.104   3.615
52447W        W24872  21.294  34.896  11.076
52448W        W24873  22.454  26.709   0.019
52449W        W24874  40.987  36.851   1.745
52450W        W24875  16.075  41.406   1.760
52451W        W24876   4.762  11.535  10.419
52452W        W24877   5.892   9.632   2.626
52453W        W24878  26.195  14.304  10.493
52454W        W24879  27.037  28.441   3.174
52455W        W24880  43.834   2.861   0.547
52456W        W24881  19.198  39.353   2.713
52457W        W24882   7.133  11.150   3.845
52458W        W24883  23.077  13.162   0.330
52459W        W24884  23.625  33.647  11.214
52460W        W24885  40.056  27.983  10.707
52461W        W24886  38.443  39.882  14.311
52462W        W24887  21.276   3.425   0.427
52463W        W24888  21.699  20.843  14.997
52464W        W24889  43.070  43.238  14.379
52465W        W24890  10.129   5.352  11.461
52466W        W24891  21.350  33.596   2.586
52467W        W24892  17.627  27.425   4.207
52468W        W24893  16.373   2.713   4.820
52469W        W24894   2.448  30.813  13.019
52470W        W24895  39.597  28.783  11.542
52471W        W24896  12.708  21.460  13.805
52472W        W24897  43.403  40.872   3.128
52473W        W24898  37.113  38.063   4.609
52474W        W24899  40.840  41.990  14.404
52475W        W24900  32.660   7.334  14.779
52476W        W24901  39.810   0.917   3.237
52477W        W24902  39.100  44.727  11.483
52478W        W24903  19.470  42.416   3.125
52479W        W24904   8.081   7.416   3.213
52480W        W24905  19.593  24.521   2.856
52481W        W24906  14.295  14.595  12.037
52482W        W24907  26.726  10.330   0.449
52483W        W24908  17.463  42.382  12.162
52484W        W24909  18.471  11.838   4.448
52485W        W24910   2.704  28.462   2.425
52486W        W24911   7.208  33.389   0.251
52487W        W24912  10.137  24.700  11.540
52488W        W24913   9.814   3.637  13.116
52489W        W24914  24.996  38.489  11.507
52490W        W24915  18.279  28.579   3.567
52491W        W24916  12.820  32.598   4.160
52492W        W24917  25.062   0.381   1.219
52493W        W24918  24.705  18.178   4.692
52494W        W24919  30.490  11.814  10.664
52495W        W24920  44.991  37.508   3.334
52496W        W24921  42.262  18.076  12.058
52497W        W24922  26.459   0.913   4.588
52498W        W24923   4.373  19.305  11.164
52499W        W24924  41.412  32.381   1.334
52500W        W24925   4.445  18.313   1.737
52501W        W24926   9.839   5.712   0.118
52502W        W24927   0.789   8.783   3.683
52503W        W24928   4.969  16.763  11.688
52504W        W24929  38.011  36.072  10.728
52505W        W24930  35.729  34.002   1.285
52506W        W24931   9.077  40.622  11.590
52507W        W24932   5.735  39.784  11.626
52508W        W24933  41.394  36.293  13.736
52509W        W24934  31.598   6.235  11.589
52510W        W24935  19.140  32.806  14.717
52511W        W24936  39.307  35.969  13.973
52512W        W24937  27.710  22.048   1.009
52513W        W24938  10.171  13.195   0.423
52514W        W24939  43.734  10.275  11.666
52515W        W24940  33.352  10.596  11.106
52516W        W24941  42.621  23.628   2.186
52517W        W24942  23.715  22.280   2.208
52518W        W24943  35.386   7.724  14.892
52519W        W24944  34.421  17.694   1.264
52520W        W24945  12.283   3.041  14.341
52521W        W24946  20.207  44.613   3.241
52522W        W24947  26.581  28.264   2.570
52523W        W24948  29.145  31.800  10.252
52524W        W24949  25.999  25.186   1.340
52525W        W24950  42.896  30.624   4.573
52526W        W24951  11.314   1.787   0.275
52527W        W24952  40.061  32.473   3.858
52528W        W24953   0.249   6.506  12.068
52529W        W24954  34.502  22.695   4.258
52530W        W24955  44.039  22.624  13.918
52531W        W24956  11.759  16.553   1.751
52532W        W24957  25.857  12.522  12.546
52533W        W24958   0.780  20.060   3.125
52534W        W24959  16.115  31.217   1.582
52535W        W24960  16.253  27.959  10.278
52536W        W24961  15.424  29.634   4.178
52537W        W24962  17.053  21.656  11.991
52538W        W24963  38.769  21.855  13.928
52539W        W24964   0.132  26.417   3.518
52540W        W24965  12.140   3.782  12.180
52541W        W24966  37.325  14.564  13.944
52542W        W24967  20.804   5.824   1.152
52543W        W24968  35.333  19.583  10.218
52544W        W24969  22.297  39.627  12.473
52545W        W24970  17.613  10.282  11.382
52546W        W24971  39.435  21.145   4.167
52547W        W24972  30.003  14.878   4.717
52548W        W24973  19.331   7.024   2.522
52549W        W24974   5.644  26.096   0.448
52550W        W24975  10.133   3.237   3.636
52551W        W24976  44.507   6.618   4.554
52552W        W24977   1.712  42.931  13.275
52553W        W24978  42.388  27.723  14.443
52554W        W24979  33.982   1.718   2.296
52555W        W24980  39.359  17.810  11.118
52556W        W24981  39.118  30.737   3.741
52557W        W24982   7.850  37.455  10.265
52558W        W24983  11.846   2.328   2.442
52559W        W24984  38.401  35.867  11.267
52560W        W24985  13.199  32.473   2.689
52561W        W24986  17.374  34.964  11.101
52562W        W24987  38.573   2.274   2.871
52563W        W24988   6.887  15.053  11.117
52564W        W24989  32.516  43.977  14.859
52565W        W24990  30.023  44.057   1.159
52566W        W24991  25.350  26.051   1.890
52567W        W24992  13.312  29.143  11.855
52568W        W24993   9.864  36.443   3.036
52569W        W24994  23.199  43.421  12.670
52570W        W24995  11.206  10.774   4.223
52571W        W24996  16.114  40.645  13.952
52572W        W24997  31.145  10.224   1.207
52573W        W24998  18.766  19.629  12.882
52574W        W24999  38.785  23.975   1.285
52575W        W25000  23.646  13.668  10.749
52576W        W25001  17.849  33.141  13.371
52577W        W25002  17.568  26.049   0.694
52578W        W25003   9.151  16.298   2.301
52579W        W25004   0.863  39.328  11.642
52580W        W25005  13.175   6.231  13.805
52581W        W25006  27.497  37.290   2.971
52582W        W25007  29.590  29.007   0.664
52583W        W25008  30.166  40.798   4.340
52584W        W25009  28.366  40.620  13.524
52585W        W25010   2.246  31.823  12.075
52586W        W25011   9.765  39.411   2.418
52587W        W25012  32.334  41.003   1.912
52588W        W25013  34.399   2.322   1.686
52589W        W25014  30.350  26.969  11.134
52590W        W25015   5.606  37.443   4.899
52591W        W25016  12.583  36.584  10.565
52592W        W25017  28.218  22.167   2.725
52593W        W25018  32.583  15.798  12.079
52594W        W25019  41.578  38.297   3.697
52595W        W25020   2.824  38.561  11.047
52596W        W25021  31.205  18.048   0.985
52597W        W25022  30.486   3.886   2.654
52598W        W25023  29.681   5.688  11.634
52599W        W25024   9.262  29.917   1.743
52600W        W25025  15.809  11.711  11.516
52601W        W25026  25.655  30.595   4.517
52602W        W25027  17.827  40.245  13.462
52603W        W25028  35.449  27.606   4.724
52604W        W25029  12.690  35.826  11.569
52605W        W25030  20.048  23.647  12.114
52606W        W25031   7.576   7.153   2.373
52607W        W25032  33.948  13.662  12.179
52608W        W25033  20.751  28.665   3.559
52609W        W25034  38.566  29.232  12.429
52610W        W25035  16.240  14.116   3.742
52611W        W25036  24.749  18.008   1.328
52612W        W25037  40.435  35.852   0.274
52613W        W25038   2.894  35.510  14.829
52614W        W25039   0.961  17.291  12.449
52615W        W25040  22.475  43.728  13.267
52616W        W25041  33.060  27.607   4.275
52617W        W25042  38.409  38.867  13.864
52618W        W25043  38.358  38.536   3.043
52619W        W25044  13.075  28.669  12.513
52620W        W25045  21.642   1.171   3.645
52621W        W25046  10.402  32.053  12.482
52622W        W25047  15.761  33.567  11.660
52623W        W25048  42.736  14.214   4.686
52624W        W25049  14.868  15.802  14.243
52625W        W25050   4.737  27.480   1.795
52626W        W25051  25.866  22.652  10.854
52627W        W25052  25.515  25.228   2.749
52628W        W25053   9.648   5.220   3.295
52629W        W25054  17.168  16.259  13.088
52630W        W25055  42.028  20.956  13.351
52631W        W25056  39.949   0.436  14.335
52632W        W25057   8.167  27.493   3.323
52633W        W25058  24.189  43.937   0.847
52634W        W25059  44.302  15.661   3.367
52635W        W25060  23.994   9.365   0.395
52636W        W25061  12.303  22.829   4.968
52637W        W25062   8.024   3.592  11.097
52638W        W25063  35.697  29.078   0.257
52639W        W25064   9.757  12.618   3.563
52640W        W25065  41.797  21.681  11.668
52641W        W25066   7.148  36.624  14.349
52642W        W25067   7.194  20.639  12.114
52643W        W25068  22.029   1.727   3.253
52644W        W25069  22.528   0.507  13.384
52645W        W25070   9.094  15.291   2.731
52646W        W25071  19.750  39.978  10.372
52647W        W25072  23.585  12.268  14.469
52648W        W25073  21.522  15.345   4.716
52649W        W25074   3.809   7.471  10.296
52650W        W25075  12.269   6.750   0.246
52651W        W25076  20.642   2.457   4.097
52652W        W25077  18.866   6.262   2.705
52653W        W25078  36.458   8.112  12.946
52654W        W25079  21.801  18.044   4.214
52655W        W25080  36.498  18.226   0.519
52656W        W25081  22.811  44.909   1.148
52657W        W25082  30.902  17.674   1.895
52658W        W25083  34.726  16.935  11.679
52659W        W25084  30.690  20.120   4.156
52660W        W25085  20.520  31.912   2.812
52661W        W25086  28.944  26.687  10.536
52662W        W25087  43.943  11.569   1.706
52663W        W25088  20.030  42.591  13.795
52664W        W25089  13.897  25.632   5.581
52665W        W25090  41.806  29.530   1.706
52666W        W25091  29.409   9.791   0.456
52667W        W25092  41.096  32.012  14.970
52668W        W25093  35.434  27.249  14.397
52669W        W25094   2.450  41.980  13.421
52670W        W25095   8.830  39.564  10.942
52671W        W25096  25.771  35.003  12.501
52672W        W25097  44.682  23.276  10.411
52673W        W25098   4.950  36.872  12.061
52674W        W25099   9.182   6.956   4.527
52675W        W25100  44.206   5.803  12.880
52676W        W25101  37.012  44.224  13.150
52677W        W25102  21.058  11.181   2.832
52678W        W25103   1.679   0.787  10.927
52679W        W25104  43.330  21.236  10.133
52680W        W25105  34.078  42.323  13.434
52681W        W25106  23.006  10.867   5.020
52682W        W25107  39.833  38.438  13.248
52683W        W25108  13.810  18.590   4.603
52684W        W25109  34.282  42.249   1.301
52685W        W25110  43.185  39.025  14.892
52686W        W25111  42.935  26.998   1.402
52687W        W25112  25.336  40.153   3.768
52688W        W25113  12.347  20.281   2.802
52689W        W25114  27.931   0.794   3.859
52690W        W25115  25.624  40.532  10.974
52691W        W25116  28.443   3.513  13.449
52692W        W25117  40.944   9.582  11.563
52693W        W25118  15.053  14.582  14.952
52694W        W25119  27.921  33.133  12.514
52695W        W25120  38.091  44.177   5.046
52696W        W25121   4.797  42.492  10.740
52697W        W25122  24.818  15.035   3.704
52698W        W25123   3.374  15.911  12.990
52699W        W25124   2.462  43.776   4.569
52700W        W25125   5.446  33.943   4.558
52701W        W25126  17.686  36.312  11.095
52702W        W25127   2.509   3.015   2.902
52703W        W25128  37.361  28.643   0.815
52704W        W25129  11.187  43.787  13.455
52705W        W25130  32.045   6.494  11.983
52706W        W25131  31.149  39.543   2.764
52707W        W25132   4.195  31.197   1.864
52708W        W25133  13.872   7.444   0.395
52709W        W25134   8.907  15.374   3.615
52710W        W25135  18.557   1.250  11.008
52711W        W25136  16.689  15.652   0.361
52712W        W25137  32.965  44.199  10.545
52713W        W25138   5.720  29.106  11.176
52714W        W25139  20.659  18.912  10.794
52715W        W25140  33.261  22.539   1.732
52716W        W25141  35.772  44.710   4.101
52717W        W25142  16.174   8.083   4.690
52718W        W25143   8.175  15.550  14.009
52719W        W25144  38.762  11.617  11.117
52720W        W25145  21.632  37.075   0.809
52721W        W25146  17.754  26.110  13.774
52722W        W25147  42.092   1.906  13.948
52723W        W25148  11.444  13.261  14.977
52724W        W25149  33.619  20.995   4.773
52725W        W25150  30.196  43.659  13.664
52726W        W25151   6.207   0.855   1.695
52727W        W25152  18.149  15.710  14.845
52728W        W25153  31.941  42.523  10.617
52729W        W25154  26.317  24.306   5.023
52730W        W25155  42.018  20.631   3.133
52731W        W25156  32.846   7.271  11.399
52732W        W25157  16.202  11.352  12.158
52733W        W25158  31.933  43.754   2.130
52734W        W25159  15.660  15.357  12.897
52735W        W25160   2.279   4.659  13.408
52736W        W25161  30.949  44.022   0.314
52737W        W25162   0.384  31.512   2.461
52738W        W25163  39.990  28.956  12.516
52739W        W25164   2.193  37.447  12.332
52740W        W25165   6.586  42.983   1.216
52741W        W25166  14.851  27.061   0.293
52742W        W25167   2.208   2.984  11.013
52743W        W25168  24.431  44.427  10.895
52744W        W25169  35.422  17.810  12.751
52745W        W25170  32.195  43.056   4.353
52746W        W25171  15.592   6.759   0.368
52747W        W25172  25.714   4.218   4.912
52748W        W25173  28.494  39.888   3.218
52749W        W25174  31.850  30.370  12.900
52750W        W25175  33.392  32.003   0.399
52751W        W25176  15.058  20.286   1.866
52752W        W25177  38.756   7.405   5.308
52753W        W25178  16.240  40.745   1.228
52754W        W25179  17.679   1.891  14.892
52755W        W25180  16.705   9.723  12.129
52756W        W25181  31.761  37.542   2.759
52757W        W25182   8.119  12.328  12.007
52758W        W25183  36.927  11.400  13.315
52759W        W25184  40.119  23.278   3.836
52760W        W25185  25.874  36.504   2.698
52761W        W25186  25.163  39.627  12.143
52762W        W25187  27.658  21.278   2.680
52763W        W25188  35.640  30.623   1.753
52764W        W25189  19.953  34.809   1.240
52765W        W25190  30.976  44.305  14.406
52766W        W25191  25.137  34.049  10.418
52767W        W25192  40.105  40.247  14.644
52768W        W25193  23.188  15.036  12.575
52769W        W25194  14.295  30.577  12.541
52770W        W25195  28.268   9.689   1.442
52771W        W25196  34.901  41.025   0.222
52772W        W25197  17.149  17.893   2.144
52773W        W25198   7.357   0.103  12.074
52774W        W25199   8.803  13.265   5.034
52775W        W25200  42.331   1.470   2.254
52776W        W25201  23.099  25.111  11.853
52777W        W25202  28.853   8.777  13.432
52778W        W25203  16.178  22.500  12.154
52779W        W25204  16.316  42.393   4.090
52780W        W25205   9.492  27.503   1.294
52781W        W25206  37.200  15.678   4.165
52782W        W25207  12.600   9.000  14.953
52783W        W25208  40.333  18.054  13.994
52784W        W25209  18.055  30.001  14.309
52785W        W25210   5.643  26.662   2.031
52786W        W25211  36.164  10.671  14.509
52787W        W25212  19.269  11.897  12.837
52788W        W25213  15.090   7.463  11.941
52789W        W25214   9.457  29.787   2.767
52790W        W25215  17.227  36.896  14.098
52791W        W25216  11.456  17.864   3.228
52792W        W25217  10.101  32.943  10.605
52793W        W25218  43.949  36.867  10.846
52794W        W25219  19.518   6.332   0.976
52795W        W25220  27.724  19.336   1.968
52796W        W25221  16.420  12.394  14.316
52797W        W25222  42.919  24.240   3.721
52798W        W25223   6.853   5.934   1.844
52799W        W25224  19.379  15.733  12.563
52800W        W25225  44.517  43.961  11.321
52801W        W25226  44.029   6.644  13.461
52802W        W25227  17.161  24.225  10.092
52803W        W25228  43.424  33.432  14.392
52804W        W25229  43.452   6.161   4.113
52805W        W25230  11.673  12.449  12.612
52806W        W25231  19.973  16.628   4.247
52807W        W25232  36.649  35.059   4.238
52808W        W25233  28.096   3.971   1.758
52809W        W25234   7.933   8.324  12.005
52810W        W25235  25.019  22.631  14.964
52811W        W25236  20.553  37.109   4.085
52812W        W25237  20.439  15.388  11.015
52813W        W25238  10.068  28.290   3.086
52814W        W25239  18.501   6.199  12.160
52815W        W25240  44.977  41.050   4.164
52816W        W25241  11.380   5.947  11.021
52817W        W25242  21.565  26.334  12.413
52818W        W25243   4.764  20.238   4.566
52819W        W25244  28.986  29.614   2.322
52820W        W25245  39.959  19.697  11.959
52821W        W25246  41.195  18.574  10.809
52822W        W25247  14.210  24.191   2.836
52823W        W25248  42.745  15.060   3.088
52824W        W25249  18.165  17.658  13.964
52825W        W25250  25.196   9.823  11.512
52826W        W25251  38.338   2.961  13.068
52827W        W25252  31.470  44.864   4.211
52828W        W25253   9.150  41.795   2.314
52829W        W25254  44.542  32.980   0.735
52830W        W25255  19.081  27.044  14.480
52831W        W25256   1.216   0.429   3.093
52832W        W25257  23.584  33.479   2.372
52833W        W25258  37.314  24.145   4.078
52834W        W25259  41.178  30.190  14.816
52835W        W25260   9.974  26.362   5.130
52836W        W25261  25.496  12.250   0.227
52837W        W25262  10.584  15.234   2.930
52838W        W25263   8.746  14.669  11.099
52839W        W25264  44.178  37.378  10.849
52840W        W25265  43.488   7.278  13.974
52841W        W25266   1.236  10.310   4.837
52842W        W25267  30.952   6.143   4.316
52843W        W25268  12.496  28.971   1.878
52844W        W25269   3.890  41.404   4.612
52845W        W25270   0.782  41.614  10.945
52846W        W25271  16.914   0.914  13.053
52847W        W25272  15.499   5.987   2.220
52848W        W25273   3.754  21.040  13.997
52849W        W25274  23.466  18.846   0.497
52850W        W25275  34.430  34.638  12.852
52851W        W25276   3.917  17.016   1.810
52852W        W25277  40.923  21.579   3.946
52853W        W25278  43.928   4.197   3.452
52854W        W25279  23.544   0.779   0.267
52855W        W25280  37.335  43.992   0.469
52856W        W25281   3.444  25.248   0.253
52857W        W25282  16.434  41.413  14.605
52858W        W25283  31.813  18.235  14.433
52859W        W25284  10.072  19.334  12.210
52860W        W25285   7.553   7.787   9.794
52861W        W25286   7.354  31.436  12.032
52862W        W25287  26.057  29.541  13.717
52863W        W25288   2.519  24.411   1.953
52864W        W25289  34.654  28.983   4.968
52865W        W25290  15.954  22.335  13.109
52866W        W25291  26.040  35.562   1.274
52867W        W25292   2.938   4.690  10.645
52868W        W25293  33.399  40.153  12.519
52869W        W25294  17.355  15.637   4.538
52870W        W25295   1.726  20.945   5.113
52871W        W25296  39.868  33.557  10.972
52872W        W25297   2.217   2.934   4.740
52873W        W25298  25.268  22.126   3.693
52874W        W25299  22.743  13.584   2.967
52875W        W25300  16.627  35.256  13.051
52876W        W25301  42.467  29.748  13.449
52877W        W25302  22.577  33.610  12.891
52878W        W25303  26.141  31.133  11.840
52879W        W25304   1.085  35.910   1.623
52880W        W25305   2.451  44.725  13.961
52881W        W25306  33.561   7.292   3.220
52882W        W25307  32.442  28.221  13.548
52883W        W25308  23.470  31.380  12.952
52884W        W25309  36.242  30.699  14.936
52885W        W25310  29.996  29.670   2.063
52886W        W25311  14.680  27.120  13.524
52887W        W25312  17.308  37.783  14.023
52888W        W25313  17.375  17.025   4.411
52889W        W25314   8.616  18.746   2.582
52890W        W25315  32.449  40.432   3.520
52891W        W25316  31.596  19.766   0.029
52892W        W25317   4.484  28.140   4.688
52893W        W25318  38.802  38.003   2.717
52894W        W25319  35.087   7.863  12.743
52895W        W25320  41.610   2.337  10.815
52896W        W25321  26.047  15.854   2.929
52897W        W25322   6.452  28.936   1.771
52898W        W25323  13.907  32.405   3.842
52899W        W25324  38.931  39.321  13.319
52900W        W25325  11.763  30.951  11.490
52901W        W25326  13.916  43.966  12.624
52902W        W25327  41.934  42.856   0.007
52903W        W25328  19.169   7.695  10.731
52904W        W25329  41.062   5.673   3.858
52905W        W25330  23.833  13.440   2.812
52906W        W25331  24.953  15.316  14.505
52907W        W25332  14.319  16.095   2.442
52908W        W25333  24.846   8.944  14.333
52909W        W25334  18.520  29.984  14.575
52910W        W25335  30.008  33.836  14.348
52911W        W25336  11.415  42.713  14.814
52912W        W25337  22.093  22.020  12.415
52913W        W25338  20.653   1.217   4.105
52914W        W25339  31.996   8.943   1.855
52915W        W25340  33.250   1.971  11.925
52916W        W25341  26.947   5.868  11.550
52917W        W25342  15.473  21.563   5.163
52918W        W25343  12.221  28.913   4.587
52919W        W25344  15.722  23.706   9.914
52920W        W25345  43.506   3.253   0.192
52921W        W25346   1.434  28.062  12.957
52922W        W25347  26.901  28.850   4.152
52923W        W25348  33.048  34.456   3.081
52924W        W25349   2.583  39.756  10.380
52925W        W25350  13.503  12.224   1.258
52926W        W25351  44.779   3.829   3.936
52927W        W25352   0.018  17.223   4.855
52928W        W25353  27.449  38.795   0.350
52929W        W25354  42.059  16.143  14.329
52930W        W25355  27.193  17.617  13.044
52931W        W25356  29.512   7.284   0.893
52932W        W25357   6.481  15.130   0.773
52933W        W25358  21.217  26.527   4.163
52934W        W25359  17.151   2.261  11.862
52935W        W25360  21.010   9.371   3.808
52936W        W25361  27.918   4.481  11.629
52937W        W25362  38.830  27.018  12.427
52938W        W25363  35.959  26.494   1.927
52939W        W25364  22.603  40.570  10.668
52940W        W25365   9.315   4.713  10.886
52941W        W25366   5.881   0.273   4.109
52942W        W25367  28.953  39.146  10.653
52943W        W25368  31.370   7.953  11.108
52944W        W25369   3.696  25.426   3.714
52945W        W25370  43.008  39.312  12.164
52946W        W25371  15.550  34.104  11.534
52947W        W25372   0.766   2.426   4.956
52948W        W25373  30.500   0.493   4.122
52949W        W25374  25.992  10.804  12.263
52950W        W25375  11.082  21.111   2.157
52951W        W25376  27.549  36.385  13.122
52952W        W25377  42.373   6.109  12.911
52953W        W25378   4.770   9.286   3.900
52954W        W25379  13.824  27.549  11.621
52955W        W25380  12.687   6.553   2.364
52956W        W25381   5.605  21.521   3.424
52957W        W25382  34.322  22.243   2.291
52958W        W25383  13.854   9.662   2.263
52959W        W25384   8.369  26.197   1.002
52960W        W25385   2.828  10.956  11.622
52961W        W25386  25.655  19.034  12.619
52962W        W25387  14.836   8.434  13.497
52963W        W25388  29.057  21.237  14.813
52964W        W25389  32.558  10.312   4.165
52965W        W25390  35.427  42.268   3.734
52966W        W25391  39.924   7.746  12.355
52967W        W25392   7.191  13.288   1.631
52968W        W25393   6.435  10.391   0.013
52969W        W25394   6.438  19.311   0.550
52970W        W25395  23.572  21.903   3.156
52971W        W25396   2.915  11.296  13.001
52972W        W25397  39.358   3.575   4.200
52973W        W25398  32.157  22.000  11.733
52974W        W25399   1.055  36.431  12.490
52975W        W25400  29.918   7.425  12.084
52976W        W25401  19.961  17.962  13.415
52977W        W25402  26.887  38.753   2.737
52978W        W25403  19.522  12.771   0.250
52979W        W25404  32.609  12.170   0.335
52980W        W25405  10.315  20.671   2.129
52981W        W25406   9.353  33.915  12.995
52982W        W25407  35.363  39.992   0.803
52983W        W25408   6.810  39.001  11.028
52984W        W25409  22.114   5.791   2.702
52985W        W25410  16.126  41.564  11.114
52986W        W25411  14.201   8.806   4.839
52987W        W25412  19.227  30.881   0.335
52988W        W25413  30.284  14.681   1.690
52989W        W25414  31.620  44.990  12.455
52990W        W25415  41.103  19.637   1.786
52991W        W25416  31.252  40.582  10.636
52992W        W25417  43.483  37.528   4.169
52993W        W25418  10.515  41.624  10.535
52994W        W25419   1.594  44.494   3.247
52995W        W25420   4.745  21.249   1.883
52996W        W25421  32.102   2.331  10.488
52997W        W25422  38.495  28.126  14.504
52998W        W25423  29.574   1.823  12.924
52999W        W25424  21.953  11.668   0.423
53000W        W25425  43.993  24.523  12.101
53001W        W25426  26.243  21.523   3.098
53002W        W25427  11.407  33.452   4.400
53003W        W25428   5.650  42.363  11.189
53004W        W25429  29.577  33.730   0.029
53005W        W25430  23.027  36.359   4.139
53006W        W25431   1.945  19.109   2.204
53007W        W25432  23.044  14.334   1.891
53008W        W25433  20.359  35.950  10.747
53009W        W25434  11.644  28.418  14.308
53010W        W25435  25.868  20.360  14.960
53011W        W25436  12.346  23.720  12.510
53012W        W25437  33.416   2.069  12.858
53013W        W25438  10.122  43.881  11.540
53014W        W25439  43.217   0.046  14.355
53015W        W25440   0.975  12.303  11.902
53016W        W25441  35.293  40.127   2.764
53017W        W25442  36.873  44.804  10.761
53018W        W25443  38.788  36.566  13.563
53019W        W25444  39.240  33.616  12.260
53020W        W25445  17.234  14.425  13.274
53021W        W25446   7.136   7.933  11.806
53022W        W25447  42.518  41.425   0.858
53023W        W25448  31.713  16.097  14.513
53024W        W25449  26.541  38.069   2.328
53025W        W25450  13.093  41.487   0.383
53026W        W25451  38.413  15.357   3.793
53027W        W25452  12.783  38.461   1.505
53028W        W25453  24.131  26.495  10.281
53029W        W25454  33.872  14.816  11.173
53030W        W25455  31.528   6.361  12.102
53031W        W25456  26.905   1.958   2.404
53032W        W25457  24.948  35.560   4.399
53033W        W25458  16.880  11.350   1.747
53034W        W25459  24.090  29.573   0.880
53035W        W25460   8.401   2.781  12.095
53036W        W25461  18.065   8.697  10.716
53037W        W25462   4.506  42.240  13.319
53038W        W25463  38.635  38.912  10.672
53039W        W25464   2.846   0.905  12.880
53040W        W25465  39.070  30.874  14.511
53041W        W25466  42.004  35.859  14.789
53042W        W25467  41.444  14.286   4.806
53043W        W25468  25.030  13.671  14.436
53044W        W25469  41.769   6.371  14.439
53045W        W25470   0.334  42.485  12.831
53046W        W25471   4.463  11.588  11.884
53047W        W25472  37.631  29.482   0.317
53048W        W25473  38.788  37.646   1.332
53049W        W25474  32.627  21.721  14.529
53050W        W25475  34.581  18.686   3.350
53051W        W25476  41.827   4.290  11.044
53052W        W25477  19.347  37.471  13.325
53053W        W25478  44.782   3.263   2.703
53054W        W25479   3.351  41.106  11.508
53055W        W25480  34.086  10.709  14.514
53056W        W25481  29.787  23.253   4.671
53057W        W25482  27.009  43.893  13.222
53058W        W25483  20.733  32.938   1.336
53059W        W25484  38.506  13.348  12.105
53060W        W25485  29.217   0.750  11.108
53061W        W25486  37.146  13.206   3.448
53062W        W25487   2.764  15.480   4.882
53063W        W25488  11.064  33.922   3.187
53064W        W25489  11.296  40.487   2.971
53065W        W25490  32.085   5.192  12.974
53066W        W25491  44.771   5.861  14.466
53067W        W25492  40.762  18.012   3.222
53068W        W25493  15.029  35.032  10.347
53069W        W25494  29.139  42.726   2.591
53070W        W25495   4.754  41.577   0.418
53071W        W25496  38.279  29.917   3.063
53072W        W25497  27.090  10.729  13.535
53073W        W25498  29.113  16.613   4.182
53074W        W25499   7.437  34.126   2.138
53075W        W25500   6.264   9.420  13.080
53076W        W25501  12.154  24.725  12.145
53077W        W25502   0.680  21.659  13.037
53078W        W25503  39.923  27.728  12.027
53079W        W25504  19.115  11.932  13.952
53080W        W25505  22.505   7.565   1.734
53081W        W25506  27.017  17.245   2.149
53082W        W25507  21.163  16.812  13.466
53083W        W25508  14.142  30.502  10.425
53084W        W25509  20.021  42.925  14.205
53085W        W25510  37.101  30.941  13.929
53086W        W25511  25.254   7.410   1.231
53087W        W25512   3.775  10.112   2.210
53088W        W25513  36.485  16.100   1.002
53089W        W25514  35.115  25.885  11.518
53090W        W25515  11.783   6.824  10.925
53091W        W25516  34.435  44.515  13.380
53092W        W25517  41.989  20.168   0.974
53093W        W25518   8.046   0.454  14.715
53094W        W25519   5.461   7.854   0.335
53095W        W25520  24.131  24.502   1.409
53096W        W25521  11.372  14.645   3.751
53097W        W25522  32.958  38.038  14.022
53098W        W25523  26.247  24.537   4.196
53099W        W25524  40.383  37.817  13.595
53100W        W25525  39.523  11.845   0.310
53101W        W25526  23.627   3.900  10.696
53102W        W25527  18.213  29.191  12.501
53103W        W25528   4.840   3.859   4.203
53104W        W25529  16.861  42.472   1.268
53105W        W25530  13.226  36.387   4.123
53106W        W25531   7.735  21.713  11.733
53107W        W25532   1.865  23.296   4.818
53108W        W25533   2.662  23.599   0.875
53109W        W25534  41.838  21.680   0.561
53110W        W25535  29.233  42.944  14.104
53111W        W25536   8.341  42.037   3.286
53112W        W25537   0.388  28.437   4.196
53113W        W25538  33.525  11.825   3.554
53114W        W25539  25.228  28.379   0.496
53115W        W25540  44.180  18.075   0.986
53116W        W25541  35.977  41.924   0.358
53117W        W25542  39.809   2.876  14.532
53118W        W25543  22.192  15.359  12.429
53119W        W25544  25.528  23.280   4.147
53120W        W25545  40.520  17.310   0.798
53121W        W25546  29.496   4.780  12.141
53122W        W25547  12.771  25.017  12.162
53123W        W25548  19.941  16.646  11.856
53124W        W25549   1.218  17.897   1.039
53125W        W25550   7.907  27.663   0.284
53126W        W25551  32.972   3.823   3.190
53127W        W25552  37.284   3.783   1.010
53128W        W25553  35.683  44.331  12.915
53129W        W25554  43.937  37.292  14.871
53130W        W25555  41.128  30.034  13.362
53131W        W25556   1.571  15.170  12.110
53132W        W25557   6.708  13.294  12.566
53133W        W25558  44.731  30.018  10.474
53134W        W25559  14.311   8.801   2.106
53135W        W25560   0.206  17.643  13.552
53136W        W25561  25.383  20.618   4.647
53137W        W25562  29.609   5.221   1.402
53138W        W25563  29.478  26.396  11.113
53139W        W25564   2.191  42.929   1.942
53140W        W25565  26.956  24.998   4.601
53141W        W25566   1.199  22.734   5.130
53142W        W25567  28.854  24.561   3.578
53143W        W25568  35.895  29.109   2.569
53144W        W25569  19.069  38.105  14.336
53145W        W25570  22.934  13.615  12.671
53146W        W25571  15.635  20.633  10.701
53147W        W25572   3.805   2.736  11.974
53148W        W25573  37.519  17.756   0.308
53149W        W25574  11.173  37.796  13.787
53150W        W25575   6.211  22.275  10.795
53151W        W25576  16.654  29.054  10.715
53152W        W25577  22.231  10.078  12.046
53153W        W25578  33.897  43.363   4.658
53154W        W25579  18.346  44.277   0.909
53155W        W25580  11.953  25.653   0.904
53156W        W25581  15.600  33.074  11.687
53157W        W25582  34.042  26.361  11.813
53158W        W25583  41.843  23.569   3.625
53159W        W25584  29.870   6.847   3.147
53160W        W25585  22.031  30.423  14.529
53161W        W25586   4.181   2.719  12.904
53162W        W25587  10.157  20.097   1.741
53163W        W25588   9.437  41.582  12.502
53164W        W25589  24.668  11.841  11.199
53165W        W25590  18.038  15.032   2.344
53166W        W25591  19.189  37.683   4.311
53167W        W25592  29.990  19.498   2.137
53168W        W25593  41.797  24.648   1.697
53169W        W25594  32.946  44.807  12.915
53170W        W25595  42.283  20.667  11.579
53171W        W25596  34.448  23.620  10.699
53172W        W25597  31.615   8.387   3.162
53173W        W25598  30.924  36.655  12.671
53174W        W25599   5.224  11.184   2.119
53175W        W25600  29.655  29.027   2.292
53176W        W25601  33.461  26.480   1.376
53177W        W25602  10.198  17.337  11.030
53178W        W25603  33.995  40.087   2.193
53179W        W25604  41.492  17.449   1.902
53180W        W25605   5.359  16.301  14.406
53181W        W25606  29.199  23.117  14.362
53182W        W25607  33.220  23.489  13.462
53183W        W25608  23.069   2.072  11.358
53184W        W25609  20.011  35.376   0.626
53185W        W25610  40.790  18.758  10.526
53186W        W25611  27.574  23.429  14.787
53187W        W25612  16.598  24.501  11.444
53188W        W25613  10.296  35.852  13.412
53189W        W25614  40.824  17.082   4.182
53190W        W25615  35.899   6.174   1.728
53191W        W25616   6.720  36.878   0.072
53192W        W25617  43.539  24.445  11.151
53193W        W25618  35.126  17.065   1.588
53194W        W25619  13.274  16.646  14.884
53195W        W25620  42.400  13.388  12.725
53196W        W25621   0.804  14.285   1.682
53197W        W25622   9.328   1.935  12.522
53198W        W25623  10.270  35.155  14.279
53199W        W25624  16.632  20.707  11.105
53200W        W25625  18.027  20.214   1.321
53201W        W25626   8.141  44.347  11.486
53202W        W25627  43.350  36.109  11.724
53203W        W25628  10.660   5.303   0.978
53204W        W25629  30.068  35.994   2.326
53205W        W25630   1.255  16.979   4.013
53206W        W25631  36.870   4.428  12.901
53207W        W25632  42.704   3.926   2.873
53208W        W25633  30.011  36.320  13.322
53209W        W25634  13.533  43.038  13.425
53210W        W25635  24.461  44.023   1.715
53211W        W25636   9.288  14.686   0.531
53212W        W25637  34.158  14.291  10.484
53213W        W25638  16.708  17.101   0.917
53214W        W25639  39.542  22.621   2.672
53215W        W25640  30.438  10.696   4.765
53216W        W25641   1.415  18.216  12.586
53217W        W25642  25.259   8.799   5.105
53218W        W25643   5.834  40.454  13.520
53219W        W25644  21.203  30.163   2.263
53220W        W25645   2.193   2.309  13.776
53221W        W25646  31.900   3.157   4.602
53222W        W25647  34.832  11.294   2.312
53223W        W25648   3.722  26.117  13.413
53224W        W25649  21.203  10.824   0.701
53225W        W25650  16.997   6.022  11.175
53226W        W25651   0.184  18.155  13.579
53227W        W25652  19.214  25.986  11.846
53228W        W25653  27.131   5.009   1.834
53229W        W25654  16.214  13.849  13.281
53230W        W25655  22.195  43.581   2.142
53231W        W25656  18.272   1.971   2.796
53232W        W25657  27.655   0.032   0.301
53233W        W25658  36.648   6.448  13.467
53234W        W25659  28.748  40.073   0.296
53235W        W25660  24.641  13.802   4.857
53236W        W25661  39.736  32.513  13.823
53237W        W25662  35.424  13.685   3.142
53238W        W25663  11.809   5.392   2.279
53239W        W25664  14.235  32.396   1.393
53240W        W25665  10.427  17.053   0.267
53241W        W25666  40.370   2.027  13.580
53242W        W25667  19.946  33.498  13.047
53243W        W25668  21.690   9.252   4.653
53244W        W25669  21.680  17.239  14.869
53245W        W25670  11.114  25.940  11.907
53246W        W25671  40.889  11.647   4.650
53247W        W25672  37.389  24.121  12.103
53248W        W25673  27.945   8.913  10.518
53249W        W25674  37.482  36.002   3.372
53250W        W25675   3.905  16.121   0.789
53251W        W25676  41.293  41.419  11.422
53252W        W25677  30.239  22.538   4.221
53253W        W25678  27.561  15.352  11.175
53254W        W25679  29.197  10.450  12.510
53255W        W25680  41.812  43.390   2.401
53256W        W25681   2.848  21.225  14.330
53257W        W25682  41.078  37.281  13.369
53258W        W25683   1.193  39.840   0.915
53259W        W25684   7.950   9.594   4.632
53260W        W25685  36.981  17.282  13.942
53261W        W25686  44.319  12.770   4.931
53262W        W25687  35.919   2.882  10.627
53263W        W25688  37.459  18.270   0.331
53264W        W25689   6.838  22.022   3.830
53265W        W25690  31.497  40.956   4.060
53266W        W25691  31.148  37.920   3.166
53267W        W25692  27.906  40.275   0.506
53268W        W25693  22.026   8.707   0.957
53269W        W25694   9.086  18.282   4.016
53270W        W25695   0.508  22.510  11.881
53271W        W25696   7.708   3.761   0.992
53272W        W25697  34.196   8.748  11.165
53273W        W25698  17.339  24.467  11.034
53274W        W25699  23.186   3.692  12.654
53275W        W25700  18.785  44.968  11.591
53276W        W25701  19.657  10.168   1.857
53277W        W25702  32.061  10.291  10.622
53278W        W25703  41.765   2.764  11.123
53279W        W25704  44.691  12.059  11.350
53280W        W25705   7.637  39.127  13.341
53281W        W25706   4.328  12.213  13.394
53282W        W25707  22.536  30.387   3.726
53283W        W25708  24.192  19.020   9.780
53284W        W25709  24.128   8.996   4.105
53285W        W25710   2.256   2.144   3.258
53286W        W25711  35.409  12.338  10.690
53287W        W25712  14.066  35.202   0.454
53288W        W25713  40.965   0.675  13.323
53289W        W25714  39.504  16.189   2.800
53290W        W25715  34.347  32.121   4.824
53291W        W25716   2.133  21.076  11.164
53292W        W25717  34.909   0.269   1.222
53293W        W25718  16.281  29.062  11.082
53294W        W25719  42.918  30.132   4.815
53295W        W25720  12.583  18.160  13.783
53296W        W25721  38.831  11.149   2.291
53297W        W25722  25.218  22.203  13.963
53298W        W25723  42.210  28.251   2.604
53299W        W25724   5.256   2.510   4.182
53300W        W25725   0.371  27.716  11.158
53301W        W25726   7.718  38.264   2.702
53302W        W25727   5.636  11.278  11.986
53303W        W25728  17.223  44.763  14.986
53304W        W25729  30.448  28.060   4.755
53305W        W25730  10.768  40.318   4.212
53306W        W25731  33.132  30.253  14.471
53307W        W25732  39.067  22.009  13.524
53308W        W25733  11.853  32.379   1.398
53309W        W25734  26.214  35.521   4.469
53310W        W25735  35.115  23.428  14.801
53311W        W25736  40.025  32.590  13.397
53312W        W25737  29.049   3.252  10.546
53313W        W25738  32.202  19.514   3.354
53314W        W25739  22.138  30.697   3.639
53315W        W25740  30.445   1.756   4.599
53316W        W25741  33.608   2.868   1.678
53317W        W25742  21.539  43.549  14.456
53318W        W25743  31.864  18.719   0.037
53319W        W25744  33.479  19.113  11.068
53320W        W25745  23.767   1.161   0.549
53321W        W25746  27.310  17.582   2.397
53322W        W25747  29.009  21.712   0.796
53323W        W25748  37.112  17.256   4.989
53324W        W25749  41.712  15.798   0.414
53325W        W25750   8.138  18.503  10.944
53326W        W25751  36.568  36.934   3.667
53327W        W25752  18.890  15.843  13.787
53328W        W25753  37.325  42.943  12.850
53329W        W25754  27.087  13.018   0.380
53330W        W25755  22.547  38.947  11.627
53331W        W25756  15.074  30.337   0.718
53332W        W25757  40.099  18.090  14.950
53333W        W25758  40.529   7.183   2.264
53334W        W25759  23.224  17.779   0.478
53335W        W25760  12.952  14.703  13.635
53336W        W25761  10.799  42.579  14.708
53337W        W25762   4.238  11.190  11.662
53338W        W25763  42.012  31.692  11.180
53339W        W25764  43.362  23.566  14.922
53340W        W25765  20.664  33.121   4.707
53341W        W25766  30.354  13.828  10.791
53342W        W25767  24.487  27.931  13.581
53343W        W25768   1.175  11.858   4.504
53344W        W25769  41.471  43.357  13.308
53345W        W25770  33.768  35.960  14.840
53346W        W25771  30.880  17.877  13.714
53347W        W25772  12.633   1.473  12.778
53348W        W25773   7.385   0.861  12.617
53349W        W25774  21.653  24.179  10.725
53350W        W25775   6.427  33.035   1.295
53351W        W25776  28.538  25.275  11.505
53352W        W25777  15.186  36.076   4.456
53353W        W25778  19.165  13.663   2.482
53354W        W25779   8.546  15.606  14.903
53355W        W25780  13.152  38.301   1.199
53356W        W25781  16.372   2.842  14.057
53357W        W25782   2.222  22.681  13.057
53358W        W25783  38.903  20.592   2.732
53359W        W25784  43.771  16.516   4.100
53360W        W25785  24.506  35.432   0.238
53361W        W25786  30.640   8.746  14.844
53362W        W25787  41.303  12.824   4.583
53363W        W25788  44.068  22.985  14.616
53364W        W25789   4.322  10.252  12.170
53365W        W25790  19.956  34.171   2.284
53366W        W25791  32.144   5.598   3.608
53367W        W25792   0.405   3.729   4.651
53368W        W25793  39.106  39.442   4.636
53369W        W25794  30.874  15.052  11.039
53370W        W25795  42.615  43.112   1.148
53371W        W25796  41.382  11.162   2.857
53372W        W25797  10.589  35.638   2.217
53373W        W25798   3.311  16.526   2.283
53374W        W25799  24.277   9.558   0.014
53375W        W25800  38.498  24.609   2.278
53376W        W25801  16.451  21.398  14.463
53377W        W25802   1.046   6.575  11.762
53378W        W25803  42.432  28.220  13.283
53379W        W25804   1.230  31.358  11.197
53380W        W25805  16.302  14.073  13.967
53381W        W25806  28.019  32.247  12.085
53382W        W25807  19.622   9.686   0.621
53383W        W25808  24.550  36.118   1.401
53384W        W25809  25.903  27.708   1.001
53385W        W25810   3.313  20.530  10.824
53386W        W25811  40.400  27.546  13.586
53387W        W25812  35.561   9.077  11.095
53388W        W25813  16.721  35.292  11.515
53389W        W25814  34.769  27.924  10.417
53390W        W25815  25.027  18.810  14.768
53391W        W25816  26.657  24.468   3.293
53392W        W25817  42.008  34.976   0.743
53393W        W25818  21.255  34.952   0.783
53394W        W25819  17.739  19.593   2.814
53395W        W25820  20.794   8.194   2.143
53396W        W25821  30.051  27.317   2.240
53397W        W25822  36.627  22.728  10.158
53398W        W25823  40.147   4.053   3.408
53399W        W25824  10.839  34.341  10.649
53400W        W25825  13.176   6.434   5.063
53401W        W25826  34.802  21.234  13.000
53402W        W25827  11.757  19.684   4.584
53403W        W25828  19.356  20.228   3.732
53404W        W25829   2.576  26.985  11.968
53405W        W25830  41.539  18.086  14.909
53406W        W25831  23.341  27.149  12.530
53407W        W25832   1.791  24.905   0.939
53408W        W25833  36.548  25.471   3.255
53409W        W25834  38.496  35.594   3.845
53410W        W25835  16.507  23.383   2.166
53411W        W25836   5.925  36.040  14.715
53412W        W25837  26.760  37.344  12.468
53413W        W25838   1.371   5.491   1.250
53414W        W25839  38.851  15.035  10.674
53415W        W25840  10.592  36.987   3.617
53416W        W25841  10.734  13.624   4.468
53417W        W25842  16.103  34.131   4.601
53418W        W25843  40.535  40.352  11.222
53419W        W25844   2.775  11.728  12.788
53420W        W25845  35.813   1.901   1.253
53421W        W25846  40.430   2.945  10.781
53422W        W25847  38.558  29.144  13.728
53423W        W25848  23.204   8.884  11.923
53424W        W25849  18.141  24.681   3.272
53425W        W25850  21.295  28.708  11.683
53426W        W25851  28.748  22.161   0.911
53427W        W25852   6.915  36.357  13.454
53428W        W25853  37.970   3.421   1.001
53429W        W25854  21.805  28.422   4.497
53430W        W25855  28.479  44.906  11.660
53431W        W25856   9.123  20.647  12.995
53432W        W25857   3.887  35.895   3.975
53433W        W25858  18.684  12.770  11.021
53434W        W25859  21.676   4.025   0.854
53435W        W25860  38.770  35.227   1.781
53436W        W25861  14.128  40.922  13.469
53437W        W25862  14.171  38.392   2.143
53438W        W25863  13.892  10.313  10.534
53439W        W25864  21.714   3.970   2.783
53440W        W25865  28.768  31.890   4.383
53441W        W25866  15.404  17.582  13.076
53442W        W25867  39.444   7.924   1.779
53443W        W25868  18.257   5.863  13.732
53444W        W25869  27.366  11.165  13.271
53445W        W25870  13.371  29.702  13.976
53446W        W25871  22.589  14.141  11.151
53447W        W25872  36.321   2.690   2.386
53448W        W25873  17.709  24.645   1.124
53449W        W25874  42.809   3.824   0.219
53450W        W25875  23.141   3.702   2.343
53451W        W25876  22.090  13.712   0.852
53452W        W25877  12.659  27.924  12.039
53453W        W25878  13.090  13.368  13.410
53454W        W25879   4.362  19.010   4.368
53455W        W25880  40.026  33.518  12.066
53456W        W25881   7.372  23.851  11.664
53457W        W25882  40.026  17.712   3.928
53458W        W25883  34.840  41.526  13.053
53459W        W25884   7.071  24.167  11.965
53460W        W25885  16.530   9.208   2.821
53461W        W25886   6.801  32.622  13.157
53462W        W25887  14.610  31.161   3.181
53463W        W25888  19.222  11.363   4.126
53464W        W25889  23.880  30.339  14.918
53465W        W25890  40.882  27.465   1.128
53466W        W25891   9.167  42.459   2.667
53467W        W25892  29.880  24.558   4.694
53468W        W25893  41.732  34.537   4.130
53469W        W25894  35.426  26.748  14.392
53470W        W25895  20.178  31.690   2.368
53471W        W25896  43.330  16.127  11.473
53472W        W25897   9.973   6.145  11.018
53473W        W25898  37.475  27.204   1.668
53474W        W25899  12.337  43.848   3.332
53475W        W25900  39.040  20.131  13.952
53476W        W25901   0.062  36.783  12.493
53477W        W25902  12.085  21.700  11.504
53478W        W25903  30.772   4.182   2.985
53479W        W25904  14.830  10.371   2.839
53480W        W25905  17.093  18.170  12.939
53481W        W25906  23.402  27.073   4.696
53482W        W25907  24.230  38.116  11.988
53483W        W25908  10.842  43.971  14.876
53484W        W25909  22.570  18.748  13.030
53485W        W25910  10.321   1.746   0.309
53486W        W25911  32.082   6.909  13.029
53487W        W25912  23.064  41.711  11.640
53488W        W25913   4.293  20.556  10.740
53489W        W25914  22.969  24.419   3.620
53490W        W25915  14.412  30.057   4.102
53491W        W25916  41.046  31.567   3.998
53492W        W25917  40.796  41.796   3.207
53493W        W25918  17.318  25.655  12.919
53494W        W25919   7.680  34.680  12.150
53495W        W25920  22.146  20.717   0.841
53496W        W25921  22.606  22.950   1.882
53497W        W25922  32.354   5.656  11.778
53498W        W25923   6.414  36.756   1.153
53499W        W25924  37.925  27.959  12.652
53500W        W25925  31.007  37.089   1.387
53501W        W25926   6.913  29.062   3.073
53502W        W25927  11.537  34.833  12.796
53503W        W25928  30.398  21.265  10.644
53504W        W25929  13.962  16.200   1.487
53505W        W25930   6.961  25.039   2.307
53506W        W25931   1.876  25.781  12.422
53507W        W25932  41.471  27.318   3.846
53508W        W25933   1.365   0.873   3.261
53509W        W25934  34.583  37.762   2.233
53510W        W25935  35.668  39.795   0.436
53511W        W25936  13.375   3.872  13.480
53512W        W25937  28.659  13.156  11.075
53513W        W25938  29.667  14.631  14.041
53514W        W25939  37.876  17.682   1.597
53515W        W25940   7.099  27.706   0.748
53516W        W25941  22.033  25.128   4.937
53517W        W25942  34.191  40.339  12.468
53518W        W25943   4.674  21.306  13.940
53519W        W25944   1.738   5.306  13.878
53520W        W25945  43.240  43.802   0.763
53521W        W25946   9.203  42.505  14.094
53522W        W25947  10.702   4.430   0.997
53523W        W25948  34.903  30.961  12.019
53524W        W25949  20.820  30.594   1.280
53525W        W25950   6.797  32.317  11.178
53526W        W25951  34.402  32.005   2.284
53527W        W25952  38.926  18.199   2.727
53528W        W25953   5.973  26.402   2.362
53529W        W25954  25.571  27.086   1.840
53530W        W25955  10.188   6.279  12.384
53531W        W25956  34.282  14.586  13.077
53532W        W25957  16.603   7.947   0.591
53533W        W25958  21.187  15.912   5.159
53534W        W25959  14.190  33.735   4.202
53535W        W25960  33.940  42.565  12.142
53536W        W25961  16.828  39.309   3.684
53537W        W25962  43.703   2.418  11.975
53538W        W25963   4.921   8.923  11.540
53539W        W25964  23.207  10.284   4.052
53540W        W25965  33.380   9.775   1.456
53541W        W25966   7.943  39.826  13.785
53542W        W25967  38.774  38.599   3.357
53543W        W25968  22.077  30.075  10.859
53544W        W25969  36.224  26.548   4.297
53545W        W25970  28.691   1.922  14.865
53546W        W25971  34.476  10.250   1.241
53547W        W25972  13.230   1.071   0.090
53548W        W25973  23.789  27.882  11.639
53549W        W25974   8.273  41.396  13.396
53550W        W25975  42.093  32.915   4.213
53551W        W25976  11.074   6.417  10.169
53552W        W25977  30.049  22.812   3.333
53553W        W25978   7.986  18.654  13.467
53554W        W25979  27.609  18.164  12.122
53555W        W25980  24.387  39.953   0.737
53556W        W25981  27.467  30.026  11.816
53557W        W25982  31.271  35.585   1.181
53558W        W25983  13.210   3.270  10.598
53559W        W25984  27.243  39.958  12.190
53560W        W25985  41.824  20.610  12.074
53561W        W25986  24.743  21.996  12.887
53562W        W25987   3.457  29.839  13.812
53563W        W25988   5.379  24.738  12.628
53564W        W25989  15.102  17.176  10.972
53565W        W25990  44.461   3.711  11.619
53566W        W25991  44.810  34.697  11.491
53567W        W25992  21.136  14.342   2.788
53568W        W25993   9.646  19.344  13.297
53569W        W25994  33.604   9.820   0.469
53570W        W25995  42.518   4.805   4.255
53571W        W25996  12.588  24.606  14.524
53572W        W25997   3.339  42.493  11.185
53573W        W25998  33.478  33.872  12.660
53574W        W25999  10.624  24.783   0.457
53575W        W26000  36.921  23.186  13.506
53576W        W26001   7.655  25.870  14.884
53577W        W26002   9.316  22.246  13.122
53578W        W26003   7.830   2.334  14.854
53579W        W26004  31.329  19.049  11.564
53580W        W26005  10.934  38.369  13.428
53581W        W26006  17.545  26.609  13.847
53582W        W26007  21.105   3.671  14.453
53583W        W26008  17.903  15.864   3.621
53584W        W26009  33.023  21.582   2.442
53585W        W26010  36.948   7.956  13.069
53586W        W26011   3.822   8.810  10.231
53587W        W26012  37.005   3.471   0.639
53588W        W26013  30.974  22.075  13.062
53589W        W26014  42.991   1.767   1.098
53590W        W26015   9.174   3.000   2.738
53591W        W26016   7.276  29.687   0.946
53592W        W26017  23.377  25.718   3.578
53593W        W26018   1.827  26.808  12.575
53594W        W26019   4.881   7.178   3.727
53595W        W26020   8.221  16.100  12.453
53596W        W26021  25.870  38.175   0.725
53597W        W26022  34.872  26.435  11.888
53598W        W26023  26.096   3.304   2.579
53599W        W26024   4.271  19.742  12.516
53600W        W26025  22.181  24.158   4.083
53601W        W26026  35.070  32.647   0.369
53602W        W26027  16.608   9.427   4.489
53603W        W26028  10.901   0.077   0.008
53604W        W26029  12.210   4.630  13.434
53605W        W26030  22.027   3.795   3.753
53606W        W26031  31.120  24.609   1.373
53607W        W26032  12.329  11.863  12.117
53608W        W26033  33.135  16.752  11.969
53609W        W26034  27.432  35.594   3.839
53610W        W26035  10.799  10.727   2.340
53611W        W26036  23.632  27.017   1.411
53612W        W26037  32.585  24.752   3.482
53613W        W26038  17.811  11.656  14.403
53614W        W26039  28.935  35.326   2.359
53615W        W26040  22.634  14.896   1.329
53616W        W26041   2.215   5.542   2.744
53617W        W26042  39.918   2.253   4.072
53618W        W26043  43.523  25.513   4.150
53619W        W26044  17.812  30.690   3.676
53620W        W26045   7.518  17.611  11.204
53621W        W26046  39.592  10.702  11.523
53622W        W26047  28.397   7.271   4.138
53623W        W26048  17.709  35.351  11.117
53624W        W26049   3.443  41.649  13.896
53625W        W26050  23.676  32.631  14.248
53626W        W26051  15.303  10.344   0.700
53627W        W26052  14.382  11.619  14.948
53628W        W26053   9.126   9.919   1.207
53629W        W26054  20.724  21.140   4.696
53630W        W26055  23.096   3.304  11.888
53631W        W26056   7.415  15.889   4.095
53632W        W26057  19.850  21.151   3.710
53633W        W26058  17.607  24.068   1.944
53634W        W26059  37.767  39.933  11.060
53635W        W26060   4.733   2.733   0.455
53636W        W26061   0.983  34.122  14.154
53637W        W26062  25.682  18.202  11.023
53638W        W26063  41.114  14.458   3.869
53639W        W26064  32.314  42.851  12.917
53640W        W26065  20.289  10.746  11.998
53641W        W26066   1.152  35.505  12.928
53642W        W26067  31.367  42.897  11.942
53643W        W26068  13.519  10.312   3.873
53644W        W26069   8.049  17.597  10.989
53645W        W26070  12.094  33.407  12.114
53646W        W26071  31.888  22.118   3.808
53647W        W26072   4.521   7.232  13.938
53648W        W26073  27.458  25.944  13.986
53649W        W26074  38.062  15.156   4.160
53650W        W26075  10.222  44.245  12.365
53651W        W26076  22.596  22.797  12.516
53652W        W26077   7.358  12.540   0.434
53653W        W26078  38.520   2.411  11.701
53654W        W26079  23.446  29.191  11.232
53655W        W26080  29.523  38.399  12.838
53656W        W26081  13.733  11.732  11.671
53657W        W26082  37.528  33.504  13.167
53658W        W26083  41.414  21.091   1.313
53659W        W26084   9.348  20.063   0.406
53660W        W26085   4.877  37.106  11.617
53661W        W26086  35.542  10.134   3.793
53662W        W26087  18.473  38.806  14.840
53663W        W26088  31.589  17.061  13.944
53664W        W26089   2.729   8.228   3.879
53665W        W26090  21.196  10.771   2.112
53666W        W26091  30.491  29.430  10.784
53667W        W26092  18.094  18.042  11.676
53668W        W26093   7.969  37.541   1.272
53669W        W26094  12.104   6.759   4.714
53670W        W26095  14.804  36.903  13.895
53671W        W26096  18.518  16.824  12.494
53672W        W26097   7.833   6.673   2.353
53673W        W26098  37.569   7.284  10.560
53674W        W26099   0.718  17.690  13.603
53675W        W26100  20.019   3.265   4.086
53676W        W26101  40.476  28.357   1.151
53677W        W26102  10.195  23.708   2.014
53678W        W26103   2.332  22.295  14.910
53679W        W26104  28.474  41.403  12.116
53680W        W26105  20.728  35.125   1.542
53681W        W26106  30.418  43.992  14.849
53682W        W26107  28.168  34.000  14.772
53683W        W26108  40.810  39.113   0.443
53684W        W26109  15.027  21.181   0.569
53685W        W26110  24.200  40.660  14.726
53686W        W26111  40.856  11.649   0.942
53687W        W26112  15.510  11.628   4.865
53688W        W26113  37.393  42.551  11.076
53689W        W26114  33.644   5.437  14.385
53690W        W26115   5.333   3.160   2.137
53691W        W26116  34.689  10.723   1.387
53692W        W26117   1.221  13.087   4.124
53693W        W26118   3.176  22.170   1.108
53694W        W26119  30.457  12.404  12.431
53695W        W26120  19.711   1.265  10.492
53696W        W26121  43.860   5.352  14.337
53697W        W26122  41.580  44.733  14.337
53698W        W26123  31.892  36.410  14.966
53699W        W26124  20.804  21.618   3.087
53700W        W26125  38.424  18.371   2.673
53701W        W26126  30.343  11.132  14.864
53702W        W26127   3.933  19.961  12.863
53703W        W26128  43.151  44.878   4.286
53704W        W26129   4.285  22.779  13.912
53705W        W26130   8.593  28.514  10.537
53706W        W26131  42.365  25.681  11.708
53707W        W26132  11.082  41.689  12.017
53708W        W26133  28.442  14.893  14.973
53709W        W26134  39.991  35.671  12.447
53710W        W26135  37.511  12.768  13.505
53711W        W26136  22.632  14.839  14.430
53712W        W26137  24.313  23.951   4.240
53713W        W26138  10.357  42.081  10.717
53714W        W26139   2.304   1.163  11.404
53715W        W26140  34.935   7.938  13.971
53716W        W26141  11.774  16.802   1.256
53717W        W26142  28.269  29.486  11.483
53718W        W26143  22.835  22.120   3.653
53719W        W26144  42.412  34.962  11.493
53720W        W26145  22.739  20.601   1.861
53721W        W26146   7.260  38.788   3.187
53722W        W26147  27.099  13.637   1.444
53723W        W26148  37.146   3.635   4.604
53724W        W26149  15.036  23.639   3.707
53725W        W26150  18.704  41.453  13.937
53726W        W26151  13.730   0.842  10.918
53727W        W26152   7.157  23.997  14.823
53728W        W26153   8.517  23.539  13.210
53729W        W26154   8.438   2.856   0.022
53730W        W26155  18.586  27.860  10.612
53731W        W26156  29.676   7.181   0.392
53732W        W26157  36.471  23.507   1.650
53733W        W26158  12.697  43.871  14.669
53734W        W26159  35.597  16.216   0.425
53735W        W26160  33.498  28.496   3.175
53736W        W26161  26.962  40.093  12.589
53737W        W26162  31.069  23.940   2.364
53738W        W26163  20.220  41.507  14.371
53739W        W26164   6.130   5.709  14.580
53740W        W26165  26.393  39.544   2.422
53741W        W26166  20.343  22.239  11.956
53742W        W26167   7.750  25.826  10.757
53743W        W26168   2.848   0.234   0.866
53744W        W26169   6.144   0.502  13.727
53745W        W26170  36.934   6.687  14.795
53746W        W26171   9.182  40.501   1.850
53747W        W26172  16.420  35.488   0.392
53748W        W26173  27.479  24.840  12.845
53749W        W26174  17.292  42.082   0.189
53750W        W26175  25.416  16.043   3.085
53751W        W26176  10.316   5.674  10.311
53752W        W26177  23.028   8.135  11.285
53753W        W26178   6.815  31.544   0.795
53754W        W26179  28.433   6.590   2.347
53755W        W26180  15.544   1.904  11.512
53756W        W26181  21.157  10.635  14.372
53757W        W26182   9.830  17.458   3.734
53758W        W26183  44.224  44.161   3.260
53759W        W26184   4.254  25.717  12.777
53760W        W26185  29.531   1.489   2.776
53761W        W26186  24.165  38.989  13.794
53762W        W26187  41.326  19.128   2.440
53763W        W26188  22.651  16.652   0.977
53764W        W26189  12.083  27.774  13.584
53765W        W26190  17.044  20.120   0.201
53766W        W26191  11.401  32.075   2.152
53767W        W26192   9.193  18.011  14.225
53768W        W26193   4.123   8.095  14.297
53769W        W26194  14.641  20.908  14.110
53770W        W26195  21.196  35.725   2.410
53771W        W26196   4.716   6.799  14.947
53772W        W26197  34.833  16.516  12.589
53773W        W26198  27.101  12.729   4.471
53774W        W26199  36.772  17.493  10.689
53775W        W26200  37.734  34.773  14.095
53776W        W26201  40.138  13.781  14.423
53777W        W26202  13.342  20.678  14.235
53778W        W26203  25.131  13.827   4.205
53779W        W26204  13.995  40.473   1.788
53780W        W26205   7.991  27.498   2.857
53781W        W26206  22.085  15.676  13.740
53782W        W26207  27.596  35.352  13.444
53783W        W26208  32.429  26.167   2.858
53784W        W26209  16.150   2.219   2.284
53785W        W26210   9.662   4.818   1.957
53786W        W26211  40.184  22.740   5.092
53787W        W26212  30.981  17.745   3.784
53788W        W26213  16.238   9.647  14.444
53789W        W26214  13.257  36.899  11.545
53790W        W26215  21.250  24.905   0.021
53791W        W26216  42.259  23.533   4.290
53792W        W26217  34.093  26.564   4.249
53793W        W26218   2.063  24.868  11.416
53794W        W26219  23.186  17.567  14.132
53795W        W26220  44.434   9.118  11.451
53796W        W26221   5.265  39.992  14.232
53797W        W26222  27.119  33.473  11.474
53798W        W26223  30.861  40.401   5.100
53799W        W26224  14.201  33.180   0.452
53800W        W26225  12.810  18.894   2.398
53801W        W26226  34.075  16.608   0.776
53802W        W26227  42.299   9.630  14.855
53803W        W26228  29.040   6.735  13.483
53804W        W26229   6.406   6.337  12.215
53805W        W26230  31.558   8.907  13.507
53806W        W26231  44.969   8.709  13.929
53807W        W26232  40.913  25.228  12.718
53808W        W26233  36.628  39.451   4.981
53809W        W26234   0.220  33.783   2.887
53810W        W26235   6.151  25.076  12.515
53811W        W26236  31.115  35.730   0.654
53812W        W26237  22.754  41.832   4.641
53813W        W26238  22.271   6.340  10.560
53814W        W26239  36.408  14.621  13.319
53815W        W26240  38.945   4.578   2.702
53816W        W26241  27.983  16.847   1.050
53817W        W26242  28.418  23.546   2.406
53818W        W26243  12.644  23.772   4.718
53819W        W26244   4.175  25.972   1.987
53820W        W26245   2.872  23.759   2.584
53821W        W26246  19.210  39.999   0.755
53822W        W26247  20.408  12.913   0.350
53823W        W26248  36.991   1.414   1.749
53824W        W26249  40.126   9.159   2.452
53825W        W26250  12.116  34.458   1.380
53826W        W26251   8.717  14.316  13.793
53827W        W26252  33.349  24.024  12.001
53828W        W26253  44.083   9.954  11.467
53829W        W26254  32.366  43.316   1.352
53830W        W26255   3.175  27.904  14.412
53831W        W26256   4.321  36.800   3.654
53832W        W26257  42.071  17.839  11.639
53833W        W26258  31.570  22.649   2.024
53834W        W26259  40.906  26.550   1.689
53835W        W26260  12.285  18.837  14.056
53836W        W26261  39.334  44.941   4.218
53837W        W26262  14.169  19.815   3.218
53838W        W26263  12.400   3.838   0.978
53839W        W26264  41.142  10.679   3.751
53840W        W26265   4.469  13.829  11.620
53841W        W26266   6.760   0.632  12.449
53842W        W26267  24.745  30.559  14.205
53843W        W26268  35.343  11.333   2.304
53844W        W26269  36.638  27.785   0.046
53845W        W26270  16.342  37.870   3.171
53846W        W26271  42.373  27.237   4.300
53847W        W26272  15.752  18.266  13.606
53848W        W26273  39.389  33.636  12.742
53849W        W26274   7.186  37.389   2.653
53850W        W26275  28.113  43.600   5.043
53851W        W26276  32.422  30.733  12.314
53852W        W26277   8.157  24.620   5.048
53853W        W26278  24.221  36.170   0.969
53854W        W26279   8.922  38.025   0.508
53855W        W26280  27.167   0.086  11.177
53856W        W26281  15.674  26.481  12.550
53857W        W26282  32.753  37.935   2.002
53858W        W26283   2.953  19.347  11.027
53859W        W26284  20.033  44.939   3.637
53860W        W26285  22.178  18.373   4.131
53861W        W26286  42.939  10.940  11.541
53862W        W26287  11.827  44.277   2.813
53863W        W26288  14.193  16.717  14.740
53864W        W26289  39.479  37.898   3.546
53865W        W26290  24.395  10.706   3.246
53866W        W26291  33.419   2.290  13.675
53867W        W26292  31.473  44.242  14.472
53868W        W26293  10.609  17.287  12.723
53869W        W26294   5.545   3.333  14.096
53870W        W26295  28.148   8.577  11.419
53871W        W26296  29.550  22.790   2.653
53872W        W26297  30.718  36.758  11.663
53873W        W26298  37.661  15.686   4.390
53874W        W26299  24.279  11.603  11.662
53875W        W26300  18.802  35.810   5.079
53876W        W26301  11.256  19.774  10.947
53877W        W26302   0.011  15.844   2.225
53878W        W26303   2.694  22.184  13.395
53879W        W26304   6.194  41.788   5.077
53880W        W26305  28.358  11.123  14.958
53881W        W26306   5.758  23.284   3.335
53882W        W26307  19.320  41.136  11.713
53883W        W26308  28.055   0.658   4.841
53884W        W26309  41.597  33.008   0.781
53885W        W26310  31.083  29.739   4.980
53886W        W26311  44.426   7.687  11.061
53887W        W26312   3.890  31.485  14.273
53888W        W26313   4.432  29.385   1.878
53889W        W26314   7.761  40.862   2.639
53890W        W26315  18.237  12.307   1.200
53891W        W26316  32.384  14.817  14.932
53892W        W26317  22.792  20.225   3.675
53893W        W26318  33.386  16.810   2.690
53894W        W26319  21.644  44.324   2.328
53895W        W26320   3.116  21.347  11.095
53896W        W26321  22.708  18.781   1.127
53897W        W26322   7.811  20.327   2.819
53898W        W26323  33.075  13.597  12.130
53899W        W26324  15.038  42.828   5.103
53900W        W26325  36.345   1.525   0.457
53901W        W26326  12.668   4.975  11.141
53902W        W26327   7.930   9.643  12.087
53903W        W26328  28.010  25.325   2.623
53904W        W26329  37.155  21.120   1.270
53905W        W26330   7.456  36.663  12.540
53906W        W26331  18.770  29.097   4.104
53907W        W26332   3.728  19.459  10.301
53908W        W26333  29.393  28.961   0.192
53909W        W26334  44.543  34.524   1.732
53910W        W26335  39.552  42.298  13.481
53911W        W26336  42.431  27.272   2.779
53912W        W26337  40.770  32.563  13.965
53913W        W26338   8.295   6.465   3.547
53914W        W26339  15.311   0.242   3.262
53915W        W26340  18.755  19.491   3.709
53916W        W26341   7.447  28.382  11.115
53917W        W26342  41.594  11.094  14.497
53918W        W26343  35.669  23.687   5.447
53919W        W26344  12.206  33.073  13.367
53920W        W26345  22.231  22.787  13.747
53921W        W26346  33.734  36.416   3.183
53922W        W26347  26.007  30.957   4.237
53923W        W26348  40.876  30.394  13.992
53924W        W26349  39.112  36.988   3.180
53925W        W26350  24.678  40.533  12.047
53926W        W26351  20.198  27.340   1.763
53927W        W26352  14.810  42.514   2.362
53928W        W26353  17.139  22.158  13.349
53929W        W26354  22.056   9.722  14.553
53930W        W26355   8.260   8.682  10.254
53931W        W26356   3.558   0.281  12.589
53932W        W26357  31.607  35.324   2.896
53933W        W26358  11.270   3.515   1.680
53934W        W26359  11.913  20.522   0.314
53935W        W26360  18.303  40.532   4.660
53936W        W26361  37.702   1.960  11.251
53937W        W26362  41.594  24.460  12.469
53938W        W26363  32.914  12.685  11.972
53939W        W26364   7.442  30.555  14.018
53940W        W26365  39.744  12.251   0.026
53941W        W26366   2.694  21.077   0.888
53942W        W26367  18.625   8.817  11.493
53943W        W26368  23.431  35.502  11.610
53944W        W26369  33.567  30.704   1.707
53945W        W26370  18.030  38.330   3.660
53946W        W26371  37.150   0.227  13.067
53947W        W26372  23.067  16.581   3.317
53948W        W26373  41.352  27.612  10.953
53949W        W26374  18.276  34.968  14.525
53950W        W26375  20.716   1.412   3.069
53951W        W26376  23.376  31.034   0.305
53952W        W26377  37.624  41.369  13.685
53953W        W26378  36.445  37.882  14.290
53954W        W26379   1.401  35.598  14.272
53955W        W26380  28.115  13.082  12.006
53956W        W26381  16.989  37.071   3.855
53957W        W26382  32.923  25.535   1.716
53958W        W26383  25.024  10.105  12.877
53959W        W26384  28.414   2.728   0.221
53960W        W26385  14.218   7.429  12.840
53961W        W26386  14.334  30.665   0.002
53962W        W26387   4.184  31.361   2.619
53963W        W26388   6.594  10.162  11.978
53964W        W26389  30.152  20.532  13.951
53965W        W26390  14.583  19.618  14.796
53966W        W26391  26.726  29.040  13.288
53967W        W26392   0.537  26.932  10.397
53968W        W26393   9.408  39.774   0.228
53969W        W26394   5.961  31.937  11.653
53970W        W26395  18.789  18.260  11.103
53971W        W26396   4.340  44.683  12.882
53972W        W26397  26.052  41.709   0.293
53973W        W26398  44.375  40.121  13.973
53974W        W26399  13.585  11.514  12.696
53975W        W26400  28.908  37.063  10.676
53976W        W26401  18.241  19.124  11.769
53977W        W26402  36.762  28.935   3.357
53978W        W26403   2.477  40.045   2.611
53979W        W26404  40.001  44.573   5.181
53980W        W26405  25.503  20.559   4.157
53981W        W26406   9.739  33.081  11.891
53982W        W26407  13.687  38.807   4.770
53983W        W26408  33.001   7.405  11.876
53984W        W26409  26.419  22.453   0.953
53985W        W26410  34.994  27.471  10.598
53986W        W26411   5.835  36.049  10.088
53987W        W26412  29.676  38.028   3.282
53988W        W26413  25.069  23.282  11.206
53989W        W26414  28.207   8.879   1.061
53990W        W26415  27.243  31.539  14.794
53991W        W26416   4.267  34.301  13.043
53992W        W26417  19.825  13.339  13.022
53993W        W26418  10.401  37.442   1.155
53994W        W26419  11.892   5.141  11.163
53995W        W26420   5.709  12.394   2.469
53996W        W26421  28.857  26.450   4.224
53997W        W26422  29.124   9.950  14.960
53998W        W26423   8.119  15.353  12.084
53999W        W26424  29.047  35.451  11.584
54000W        W26425   1.237   5.887  14.988
54001W        W26426  28.725  17.372  11.263
54002W        W26427   5.067  39.228   3.943
54003W        W26428  38.435  18.155   0.382
54004W        W26429  28.619   8.501  11.655
54005W        W26430  19.752  13.550   5.023
54006W        W26431  19.236  22.764  12.931
54007W        W26432   5.286  10.429  12.016
54008W        W26433   9.309   7.706  10.392
54009W        W26434   6.717  14.547  11.176
54010W        W26435   9.835  34.545   1.370
54011W        W26436  31.326  29.401  13.583
54012W        W26437  42.533  34.521  14.472
54013W        W26438  40.546   8.647   2.749
54014W        W26439  32.794  34.663   0.730
54015W        W26440  22.618  36.296   2.260
54016W        W26441  35.751   0.517   2.852
54017W        W26442  22.558  23.767  11.266
54018W        W26443  35.637  12.631   2.181
54019W        W26444   4.722  12.327   0.731
54020W        W26445   5.281   9.752   1.695
54021W        W26446  38.887  23.449  10.668
54022W        W26447  22.265  30.395   0.499
54023W        W26448  38.205  42.581   2.791
54024W        W26449  30.704  28.111  13.656
54025W        W26450  36.115  14.212   0.827
54026W        W26451  39.978  35.643   1.387
54027W        W26452  11.029  26.644   0.409
54028W        W26453  42.811  19.731  11.616
54029W        W26454   9.295   0.789  14.300
54030W        W26455  16.255  13.607  12.475
54031W        W26456  14.765   3.656  13.375
54032W        W26457  40.259  22.283  13.045
54033W        W26458  27.805  23.217   0.899
54034W        W26459   8.313  43.918  10.802
54035W        W26460  18.547  42.035  12.374
54036W        W26461  35.984  18.008  10.362
54037W        W26462  35.880  44.901  10.534
54038W        W26463   5.775  17.673   1.628
54039W        W26464  44.451   3.749   1.703
54040W        W26465  38.391  36.858  11.964
54041W        W26466  31.176  17.778   1.440
54042W        W26467  44.367  41.473  10.091
54043W        W26468  43.387   8.075  14.268
54044W        W26469  12.716  24.301   4.596
54045W        W26470  36.410  16.162   3.672
54046W        W26471  16.777   5.308  12.265
54047W        W26472  10.651  22.325  13.993
54048W        W26473   9.916  10.277   1.303
54049W        W26474  13.802   3.005   3.174
54050W        W26475   3.201  27.607  11.899
54051W        W26476   2.369  19.470  13.080
54052W        W26477  39.484   6.237  12.412
54053W        W26478  27.346   6.303   2.477
54054W        W26479  17.237  10.999  14.035
54055W        W26480  28.094  29.915   3.246
54056W        W26481  27.697  20.572   2.315
54057W        W26482  31.683   9.423   3.080
54058W        W26483  26.039  29.741  11.985
54059W        W26484   0.855  42.970   0.513
54060W        W26485   0.447  20.915  13.790
54061W        W26486  23.032  20.163   1.738
54062W        W26487   8.099  26.579   0.755
54063W        W26488  24.660  26.591  11.009
54064W        W26489  26.564  12.640  14.372
54065W        W26490  20.618  21.469  13.556
54066W        W26491  43.294  32.036  14.501
54067W        W26492  22.020  32.799   4.215
54068W        W26493  39.383  42.232  14.427
54069W        W26494   4.544  14.545  13.164
54070W        W26495  43.886  42.340   4.345
54071W        W26496  38.430  12.040   1.989
54072W        W26497  11.798   0.374   3.767
54073W        W26498  12.328  42.891   2.860
54074W        W26499   7.759  26.083  11.192
54075W        W26500  42.806   3.451  12.457
54076W        W26501  23.517  30.090   0.768
54077W        W26502  39.654  27.201  13.078
54078W        W26503  39.154  23.616   1.233
54079W        W26504  11.807  34.957   0.963
54080W        W26505   1.995  19.464   1.834
54081W        W26506  39.839   4.764   3.635
54082W        W26507  12.149  37.017  14.811
54083W        W26508  34.967  35.664  12.500
54084W        W26509   1.268   9.425  11.666
54085W        W26510  12.325   9.592   2.126
54086W        W26511  37.495  39.996   2.197
54087W        W26512  17.032  41.951   3.771
54088W        W26513  42.390  31.742   1.860
54089W        W26514   7.720  16.774   4.124
54090W        W26515  21.518  20.448   2.275
54091W        W26516  14.472  35.373  14.418
54092W        W26517   9.184  24.414  11.573
54093W        W26518  41.270  25.122  10.819
54094W        W26519  39.755  34.070  11.089
54095W        W26520  28.665  16.420  11.891
54096W        W26521   5.954  10.241  13.639
54097W        W26522  38.806  35.695  13.796
54098W        W26523  18.824  11.291   0.387
54099W        W26524  36.208  10.934  12.675
54100W        W26525  21.299  38.743  12.516
54101W        W26526  28.719  31.924  13.865
54102W        W26527  14.320  18.051  13.517
54103W        W26528   8.653  27.610   1.100
54104W        W26529  36.287   2.571  13.525
54105W        W26530  24.493  17.250   0.301
54106W        W26531  25.962   1.864   1.870
54107W        W26532   6.259  22.608   2.407
54108W        W26533   4.824  24.152  11.911
54109W        W26534  39.551  42.901   3.683
54110W        W26535   5.158   8.240   0.124
54111W        W26536  17.670   3.431  11.210
54112W        W26537  24.973   3.450   2.695
54113W        W26538  17.116  12.686   5.012
54114W        W26539   9.491  27.508   4.068
54115W        W26540  42.927  18.705   0.470
54116W        W26541  17.615  18.380  11.472
54117W        W26542   1.971  14.223  11.449
54118W        W26543  31.531  19.481  14.567
54119W        W26544   6.491  18.270  12.622
54120W        W26545  35.961  15.250   0.739
54121W        W26546  31.451  41.713   0.467
54122W        W26547  31.454  29.197   1.806
54123W        W26548  13.256  11.376  12.190
54124W        W26549  38.458   4.182   4.325
54125W        W26550  10.991  36.200  10.958
54126W        W26551  42.723  28.052  12.377
54127W        W26552  13.350  26.929   3.666
54128W        W26553  32.507  20.058   0.957
54129W        W26554  38.259  26.571   0.488
54130W        W26555   8.866   9.877   4.356
54131W        W26556  42.731  25.564  14.987
54132W        W26557  32.985  18.721  14.088
54133W        W26558  37.468  44.028   4.494
54134W        W26559  23.085  36.344   3.285
54135W        W26560  27.491  40.565   0.728
54136W        W26561  25.346  13.768  13.440
54137W        W26562  19.322  32.364   0.832
54138W        W26563  16.101  16.284   4.126
54139W        W26564  24.660  37.276   4.123
54140W        W26565  14.864  13.686  11.086
54141W        W26566  25.342  17.820  10.962
54142W        W26567  15.541  44.287   2.200
54143W        W26568  34.420  43.392   4.729
54144W        W26569  22.087   4.210  11.934
54145W        W26570  31.455  30.949   4.368
54146W        W26571  36.485  21.546   2.942
54147W        W26572  40.183  40.178   1.095
54148W        W26573  15.664  29.041  10.404
54149W        W26574   7.934  41.317  10.495
54150W        W26575  24.937  41.858   4.112
54151W        W26576   9.394  40.008  11.622
54152W        W26577   9.912  35.707  12.795
54153W        W26578  15.637   3.769   0.468
54154W        W26579  41.379  12.643   3.136
54155W        W26580  11.067  18.528  12.464
54156W        W26581  22.543  40.201  10.311
54157W        W26582  24.080  26.873   0.457
54158W        W26583  33.993   7.501   3.005
54159W        W26584  35.856  14.244   2.849
54160W        W26585  14.110  24.806   4.236
54161W        W26586   9.480  18.082   3.221
54162W        W26587   5.934   5.697  14.101
54163W        W26588   1.525  19.676   3.316
54164W        W26589  11.103   1.685   1.427
54165W        W26590   1.930  20.238   0.268
54166W        W26591  41.796  44.319  13.010
54167W        W26592  16.219  30.684   0.032
54168W        W26593   1.962  37.959   0.912
54169W        W26594  16.711  19.160   1.901
54170W        W26595  31.401  44.818   0.373
54171W        W26596  16.543  16.329  11.556
54172W        W26597   2.489   5.742  14.084
54173W        W26598  44.197   3.266   3.344
54174W        W26599   6.484  12.195   1.202
54175W        W26600  37.497   8.926  11.580
54176W        W26601  41.366  36.479   1.710
54177W        W26602   0.962  12.974  10.277
54178W        W26603  18.334  27.040  11.022
54179W        W26604  25.118  33.186  13.523
54180W        W26605  31.382   9.925   0.354
54181W        W26606  17.033  10.834   0.353
54182W        W26607   6.236   1.890  12.596
54183W        W26608  36.038  15.588  14.792
54184W        W26609  42.394  23.842   1.276
54185W        W26610  27.127   6.756   4.129
54186W        W26611  44.797  22.000  13.850
54187W        W26612  11.342  14.077  12.268
54188W        W26613  39.602   8.822  14.381
54189W        W26614  20.604  20.567   0.527
54190W        W26615  32.668  22.906   2.470
54191W        W26616  34.475  37.163   2.992
54192W        W26617  22.129  37.934   1.884
54193W        W26618  10.769  41.306   3.990
54194W        W26619  39.643   5.702   3.808
54195W        W26620  27.932  14.246  14.424
54196W        W26621   1.520  30.693  12.107
54197W        W26622  18.662  18.385  13.859
54198W        W26623  37.965  11.321  14.063
54199W        W26624   7.370  39.018  12.024
54200W        W26625  23.509   1.018   1.746
54201W        W26626  33.932  30.309   1.686
54202W        W26627  31.672  18.620   0.526
54203W        W26628  17.811   6.877  12.027
54204W        W26629  38.138  25.111   5.525
54205W        W26630  24.955  42.017   1.778
54206W        W26631  14.565  11.753   4.187
54207W        W26632  17.204  10.453  11.986
54208W        W26633  18.543   4.945  14.304
54209W        W26634  29.326  40.914   3.215
54210W        W26635  34.503  24.191  14.375
54211W        W26636  30.169  40.926  13.217
54212W        W26637  20.494   9.713  11.244
54213W        W26638  10.643  30.159  11.153
54214W        W26639  15.230  12.913  12.937
54215W        W26640   8.954  11.594  13.004
54216W        W26641  35.011  44.605   0.011
54217W        W26642  13.548  29.087  11.403
54218W        W26643  25.444  16.596  11.456
54219W        W26644  22.998  36.020  10.453
54220W        W26645  14.698   9.429   2.467
54221W        W26646   4.255  33.559   1.365
54222W        W26647   1.398  34.062   4.253
54223W        W26648  12.272  18.332   1.908
54224W        W26649  33.611   1.414   0.297
54225W        W26650  14.379  13.201   4.323
54226W        W26651  16.307  10.066  12.096
54227W        W26652  13.139   0.300   1.555
54228W        W26653  32.962  21.706   4.557
54229W        W26654  42.878  33.114   1.798
54230W        W26655   2.020  44.547   4.621
54231W        W26656  21.900  44.836  13.295
54232W        W26657  20.224   0.222   1.394
54233W        W26658  23.775  11.601   3.643
54234W        W26659  36.667  29.009  14.613
54235W        W26660  42.504  20.267   1.847
54236W        W26661  19.761  11.713  10.466
54237W        W26662  33.507  40.437   0.429
54238W        W26663  28.954  32.002  14.377
54239W        W26664  31.019  23.500  11.047
54240W        W26665  43.562  22.587  14.886
54241W        W26666  33.222  34.539  14.966
54242W        W26667  18.117  34.326   2.706
54243W        W26668  19.608  13.292   0.369
54244W        W26669  36.547   5.336   0.961
54245W        W26670  33.581  43.352  12.816
54246W        W26671   9.091  19.621   2.545
54247W        W26672  17.242  37.606   0.241
54248W        W26673  33.558  34.385  12.644
54249W        W26674   7.413  40.540  12.465
54250W        W26675  25.557  16.830  13.774
54251W        W26676   4.491  25.543  13.796
54252W        W26677  16.765  28.115   4.689
54253W        W26678  15.105  11.226   1.624
54254W        W26679  42.704  19.467   0.846
54255W        W26680   6.859  36.409   1.795
54256W        W26681  37.817   9.449  13.761
54257W        W26682  23.783  13.923  11.171
54258W        W26683  31.855  37.661  10.661
54259W        W26684   7.980  19.584   3.192
54260W        W26685  32.601  33.947  13.966
54261W        W26686   8.700  39.870   4.674
54262W        W26687  26.734  33.868  14.487
54263W        W26688  39.919  18.561  14.981
54264W        W26689   9.809   7.795   4.418
54265W        W26690  26.564  42.794   4.569
54266W        W26691  14.792  24.624  14.994
54267W        W26692   8.847  36.085   1.333
54268W        W26693  14.877  22.588   2.290
54269W        W26694  37.621   2.709   0.435
54270W        W26695  34.197  25.254   1.531
54271W        W26696   8.368  32.464   3.056
54272W        W26697   6.113  30.418  10.752
54273W        W26698   2.425  14.756  14.831
54274W        W26699   2.495  31.150   1.288
54275W        W26700  11.812  17.243  13.349
54276W        W26701  13.384  40.769  13.813
54277W        W26702  26.601  18.847   1.981
54278W        W26703  19.564   6.699  13.965
54279W        W26704  19.648  30.661   5.516
54280W        W26705  24.456   8.920  12.869
54281W        W26706  15.608  27.984   4.715
54282W        W26707  28.568  43.486   4.606
54283W        W26708  30.923  34.877   3.625
54284W        W26709  22.403  35.025  11.910
54285W        W26710  16.054   1.862   3.721
54286W        W26711  29.511  30.959   2.682
54287W        W26712  27.648  11.388  14.011
54288W        W26713  41.408  12.213  11.683
54289W        W26714   7.404  31.873  14.450
54290W        W26715   0.249   9.342  12.864
54291W        W26716   9.579  38.269   2.910
54292W        W26717  31.588   0.005   2.458
54293W        W26718   6.859  24.378  14.313
54294W        W26719  34.500  11.586  13.397
54295W        W26720  35.834  36.500   3.227
54296W        W26721  36.987  42.247   3.316
54297W        W26722  11.088  13.309  14.140
54298W        W26723  16.198  33.941  12.304
54299W        W26724  17.179  32.710  10.526
54300W        W26725  18.537  43.318   0.946
54301W        W26726  30.360  13.051   3.182
54302W        W26727  39.924  31.465  10.941
54303W        W26728   9.572  15.741  14.768
54304W        W26729  30.209  18.576   0.259
54305W        W26730   3.081  23.282   0.823
54306W        W26731  44.476  35.890  12.633
54307W        W26732  29.238  38.708   0.453
54308W        W26733   9.378  18.296   2.175
54309W        W26734  28.629   6.131   2.649
54310W        W26735  19.822  39.298   0.334
54311W        W26736  24.276   1.812   3.799
54312W        W26737  18.167  23.622   3.138
54313W        W26738  10.184   0.421   4.622
54314W        W26739  32.570  35.069  12.466
54315W        W26740   8.359  44.785  11.687
54316W        W26741  19.696  18.438  11.229
54317W        W26742  11.558  38.496  14.224
54318W        W26743  21.963  39.997  12.642
54319W        W26744  16.469   7.887  12.480
54320W        W26745   1.410   4.523   4.143
54321W        W26746  23.075  16.826   0.316
54322W        W26747  37.649  29.259  14.838
54323W        W26748  15.171  36.431   3.463
54324W        W26749  17.884   2.360  11.603
54325W        W26750  11.783  34.617  10.722
54326W        W26751   2.408  17.659  10.717
54327W        W26752  29.891  19.791   4.249
54328W        W26753  21.541   0.777   3.971
54329W        W26754  40.296  44.030   3.292
54330W        W26755  39.532  28.221   3.352
54331W        W26756  34.835  35.137  12.524
54332W        W26757  27.002  22.567   2.854
54333W        W26758   0.493  15.624   3.130
54334W        W26759  23.733  33.082  13.945
54335W        W26760  37.688  13.381  11.188
54336W        W26761  38.947  26.532  11.456
54337W        W26762  44.785  36.228   4.738
54338W        W26763  26.066  21.314   0.035
54339W        W26764  21.087  14.589  10.979
54340W        W26765  22.874  44.968   0.624
54341W        W26766  25.431  29.116   1.159
54342W        W26767  33.907  37.150   3.888
54343W        W26768   1.493  14.516  14.499
54344W        W26769  16.020  26.608   0.638
54345W        W26770  24.994  13.663  13.912
54346W        W26771  43.959  10.740  10.892
54347W        W26772  39.864   9.325   1.482
54348W        W26773  24.470  35.262  13.902
54349W        W26774   3.931  21.054   0.036
54350W        W26775  33.727  37.895  14.680
54351W        W26776  34.320  22.909   0.465
54352W        W26777  11.261  28.836   3.639
54353W        W26778  13.106  15.427   5.025
54354W        W26779   6.293  23.471   2.922
54355W        W26780  12.623  16.484   1.764
54356W        W26781  20.275  28.073  10.955
54357W        W26782  13.562  16.359   1.895
54358W        W26783  39.457  12.768   4.659
54359W        W26784  18.767  32.698  11.682
54360W        W26785  21.777  32.016   1.214
54361W        W26786  26.598  35.542  13.540
54362W        W26787  24.750   4.538   4.034
54363W        W26788  43.954  41.130   0.447
54364W        W26789  20.778  41.962  14.907
54365W        W26790   7.696  14.843  14.239
54366W        W26791   5.632  32.047  12.036
54367W        W26792  10.700  38.605  10.535
54368W        W26793  18.244  23.120  12.767
54369W        W26794  17.814  10.708  14.922
54370W        W26795  24.218  23.674  12.805
54371W        W26796  13.251  36.124  12.339
54372W        W26797  28.146  26.636   4.893
54373W        W26798  34.559  32.558   0.974
54374W        W26799  30.006  44.879  13.007
54375W        W26800  18.082  18.204  13.091
54376W        W26801  21.093  25.081   2.651
54377W        W26802  43.941  18.063  11.574
54378W        W26803  12.899  16.269   4.189
54379W        W26804   3.949  12.590   0.174
54380W        W26805  25.568   9.705   1.221
54381W        W26806  42.939  42.815   1.438
54382W        W26807   2.252  26.700  13.397
54383W        W26808  28.536   7.505  14.838
54384W        W26809  12.091  34.023   1.671
54385W        W26810  20.267  25.210  11.732
54386W        W26811   2.895  38.443   0.296
54387W        W26812  37.000  33.652   0.425
54388W        W26813  41.811  40.552  11.569
54389W        W26814  22.824   6.340  10.263
54390W        W26815  44.877  24.713   1.812
54391W        W26816  28.013  41.820  10.116
54392W        W26817   2.005   2.884  10.522
54393W        W26818   7.356   9.432   0.023
54394W        W26819  10.533   7.694  13.520
54395W        W26820   3.950  22.583   2.188
54396W        W26821  40.829  28.218   2.247
54397W        W26822  23.448  20.692  12.348
54398W        W26823  43.374  25.967   0.234
54399W        W26824  33.639  17.996  12.926
54400W        W26825  13.181   2.491   2.069
54401W        W26826  10.487  20.963   9.994
54402W        W26827  34.679  10.384   0.249
54403W        W26828  34.585   9.751   1.283
54404W        W26829  28.043   8.158  13.814
54405W        W26830  21.562  13.274  14.814
54406W        W26831  38.088   2.834  12.630
54407W        W26832  10.633  23.238  14.899
54408W        W26833  29.977  35.726   0.339
54409W        W26834  21.336   4.732  14.912
54410W        W26835  36.954  15.697  14.397
54411W        W26836  24.652   2.472   0.749
54412W        W26837   6.250   7.942   2.238
54413W        W26838  32.994  44.595   1.461
54414W        W26839  20.999  12.222  13.260
54415W        W26840  39.294  30.252  13.825
54416W        W26841  16.280  23.311   0.257
54417W        W26842   0.523  18.099  10.739
54418W        W26843  21.117  20.621  14.377
54419W        W26844   3.447  32.132  11.610
54420W        W26845   6.791  11.212   2.535
54421W        W26846  34.571  38.540   3.388
54422W        W26847  27.490  24.544   3.022
54423W        W26848  24.055  30.066   0.700
54424W        W26849   1.306  23.031  13.694
54425W        W26850  19.809  29.554  14.679
54426W        W26851   0.706  32.923   3.789
54427W        W26852  10.877  11.366  11.055
54428W        W26853  36.071  34.612   4.632
54429W        W26854  41.280  13.824  11.945
54430W        W26855  13.574  31.060  12.410
54431W        W26856   2.478   3.353   4.273
54432W        W26857  18.253  43.894  13.057
54433W        W26858  37.417  44.473   5.096
54434W        W26859  11.894   6.925  13.096
54435W        W26860  19.112   2.491   4.277
54436W        W26861   4.958   0.541  10.645
54437W        W26862  41.442  15.824   0.857
54438W        W26863  43.449  29.472   4.720
54439W        W26864   8.148  26.058   3.250
54440W        W26865  18.301  35.057   0.053
54441W        W26866  11.139  42.270  14.916
54442W        W26867  28.912  40.517  12.919
54443W        W26868   2.540  26.505   4.566
54444W        W26869  15.919  14.053   3.321
54445W        W26870   6.671  38.364   3.562
54446W        W26871  38.187  25.667  12.544
54447W        W26872  32.531  24.704   4.496
54448W        W26873  20.064   6.815  10.220
54449W        W26874   8.355  30.028  13.234
54450W        W26875  14.637   4.847   1.858
54451W        W26876   2.771  17.393  13.497
54452W        W26877  39.787  42.804  13.515
54453W        W26878   4.642  20.165   0.413
54454W        W26879  41.860  27.215   1.386
54455W        W26880   0.433   2.267  10.581
54456W        W26881  10.463  23.530   3.335
54457W        W26882   2.795  32.343   4.223
54458W        W26883   3.965  44.804   3.392
54459W        W26884   7.162   7.679   2.424
54460W        W26885   9.753  40.717  12.500
54461W        W26886  42.361   6.120   0.937
54462W        W26887  26.963   6.907   2.556
54463W        W26888   5.907  33.160  11.030
54464W        W26889   2.996  43.786  14.992
54465W        W26890  38.827  10.360   0.001
54466W        W26891  22.156  43.269   1.172
54467W        W26892  22.411  20.768  12.206
54468W        W26893   4.713   1.852  14.388
54469W        W26894  16.747  42.919  14.290
54470W        W26895   9.813  15.799  10.256
54471W        W26896  44.921  16.338  12.986
54472W        W26897  29.043  19.144  13.099
54473W        W26898  22.618   1.930  11.148
54474W        W26899  40.986  43.389  11.612
54475W        W26900  39.530   2.200  11.522
54476W        W26901  29.567  32.086   1.877
54477W        W26902  44.413  22.476   3.769
54478W        W26903  44.451  25.745  10.950
54479W        W26904  40.950   7.298  11.039
54480W        W26905  42.829  13.654   3.480
54481W        W26906  34.413   9.698   0.799
54482W        W26907  38.576  31.380   4.157
54483W        W26908  18.589   6.365   2.254
54484W        W26909  41.045  34.507   1.685
54485W        W26910  10.879   7.876  11.137
54486W        W26911  28.603  11.299   4.669
54487W        W26912  25.729   7.647  12.053
54488W        W26913  34.337  39.097   0.253
54489W        W26914  14.628  18.256   4.662
54490W        W26915  13.602   1.891  11.818
54491W        W26916  35.633  24.243  10.627
54492W        W26917  42.952   3.929   2.300
54493W        W26918  15.091   7.716  13.888
54494W        W26919   8.808  37.451  14.962
54495W        W26920  10.840  11.684   2.005
54496W        W26921   7.462   1.282   2.884
54497W        W26922  33.072  16.653   0.471
54498W        W26923  42.090  20.374   4.103
54499W        W26924  32.418  20.287  14.402
54500W        W26925   1.236  24.459   2.276
54501W        W26926   2.226  42.416  10.635
54502W        W26927  28.204   7.210   1.379
54503W        W26928  13.125   9.874  11.585
54504W        W26929  35.471   0.862  12.112
54505W        W26930  38.472  32.550   2.848
54506W        W26931  24.671  19.526   1.359
54507W        W26932  44.037  40.502   4.550
54508W        W26933   2.524  14.124   2.718
54509W        W26934  39.386   3.424  11.875
54510W        W26935  37.358  44.948  10.834
54511W        W26936  23.600  20.871   4.759
54512W        W26937  21.639  40.723   3.626
54513W        W26938  35.911  26.977  14.370
54514W        W26939   1.008   1.759   3.752
54515W        W26940  44.776  20.188   3.462
54516W        W26941  10.126   1.338   0.021
54517W        W26942  34.897  14.273  14.419
54518W        W26943  32.611  24.940  13.358
54519W        W26944  44.289   6.648  11.948
54520W        W26945  44.459  30.000   1.698
54521W        W26946  11.783  38.395  10.910
54522W        W26947  39.368  35.477   3.255
54523W        W26948  42.862  23.478  13.581
54524W        W26949  31.379  14.643  11.929
54525W        W26950   0.884   7.784  11.127
54526W        W26951  38.176   0.893   4.668
54527W        W26952  28.429   2.867  13.012
54528W        W26953  37.972  22.928   0.397
54529W        W26954  12.763  25.150   0.018
54530W        W26955   1.853   6.471  13.864
54531W        W26956   8.873  23.456   0.978
54532W        W26957  16.779   2.547   0.746
54533W        W26958  38.430  34.462   1.412
54534W        W26959  36.438  18.525  14.758
54535W        W26960  13.316  17.055   2.309
54536W        W26961   6.711  12.641  14.041
54537W        W26962  19.300   1.833   4.623
54538W        W26963  17.109  25.667  11.344
54539W        W26964  36.114  11.481  12.935
54540W        W26965   8.627  28.949   3.873
54541W        W26966  34.498  29.736  12.240
54542W        W26967  19.683  10.644   4.667
54543W        W26968  37.880  22.323   4.269
54544W        W26969  28.445  40.997  13.941
54545W        W26970   4.049  12.710   0.669
54546W        W26971   1.283  42.985   3.233
54547W        W26972  24.239  22.637  12.685
54548W        W26973  24.595  23.639  12.009
54549W        W26974  31.685  42.294   2.195
54550W        W26975  30.947  23.948  13.124
54551W        W26976  12.429  40.856   1.667
54552W        W26977  28.984  23.211  12.624
54553W        W26978  26.510   7.528   2.553
54554W        W26979   6.654  41.850   2.502
54555W        W26980  26.639  19.801   0.944
54556W        W26981  10.637   0.833  14.301
54557W        W26982  31.980  16.659   4.007
54558W        W26983  23.128  37.069   3.673
54559W        W26984  22.313  41.585   1.666
54560W        W26985  33.412   1.856   0.768
54561W        W26986  41.069  37.450  13.870
54562W        W26987  17.042  34.612   2.176
54563W        W26988  39.947  37.081   1.401
54564W        W26989  14.098  28.005  14.321
54565W        W26990  32.920  44.358   3.267
54566W        W26991  34.974  24.952  10.578
54567W        W26992  21.700   7.014  11.720
54568W        W26993  37.378  11.080  14.926
54569W        W26994   4.778  37.108   2.696
54570W        W26995  37.485  14.823  14.360
54571W        W26996   4.457  24.583   4.711
54572W        W26997  33.777  35.936  10.009
54573W        W26998  26.238  19.619   4.138
54574W        W26999  13.388  16.860  10.646
54575W        W27000  39.902  11.681   4.554
54576W        W27001  11.911  29.224  13.897
54577W        W27002  16.682  38.063  11.861
54578W        W27003  11.708  15.080   1.988
54579W        W27004  15.388  27.569  10.576
54580W        W27005  27.664  33.995   0.766
54581W        W27006  39.855   3.745   2.693
54582W        W27007  18.778  19.972   4.424
54583W        W27008   5.785  33.766  12.252
54584W        W27009   8.619   0.049  13.859
54585W        W27010   1.767   4.185  12.174
54586W        W27011  18.166  18.279  12.126
54587W        W27012  22.604   7.356   0.278
54588W        W27013  44.373  41.197   3.485
54589W        W27014  10.619  33.050   4.848
54590W        W27015  37.106  40.131  14.456
54591W        W27016  26.991  41.715   2.695
54592W        W27017  34.016  24.918   0.733
54593W        W27018  40.615  30.439   1.684
54594W        W27019  11.323   0.308  14.042
54595W        W27020   4.305  10.411  10.801
54596W        W27021  23.160  43.941  11.390
54597W        W27022   0.259  31.308   3.738
54598W        W27023   8.173  27.078  10.972
54599W        W27024   6.485  30.441   5.023
54600W        W27025  28.620  11.456  11.869
54601W        W27026  37.857   1.130  13.776
54602W        W27027  23.644  31.646  11.171
54603W        W27028  14.833  20.750  10.578
54604W        W27029  23.696  21.704  12.483
54605W        W27030   1.692   9.689   4.420
54606W        W27031  14.634  23.524   2.731
54607W        W27032  34.451  31.188   3.726
54608W        W27033  38.405  27.761  10.570
54609W        W27034  13.052  27.763  13.417
54610W        W27035  12.088  29.838  14.842
54611W        W27036   1.205   1.303  13.842
54612W        W27037   5.740  41.993  10.784
54613W        W27038   5.413  25.935   4.337
54614W        W27039   7.966  25.642  12.068
54615W        W27040   4.778  31.647  11.121
54616W        W27041   0.401  29.984  13.952
54617W        W27042   0.713  20.933   4.076
54618W        W27043   6.646   6.638   4.238
54619W        W27044  43.493   6.739  14.352
54620W        W27045   9.856  22.756   2.216
54621W        W27046  21.258  13.802   2.940
54622W        W27047  33.310  40.742  11.677
54623W        W27048  37.350  31.629  14.922
54624W        W27049   3.739   2.176   5.101
54625W        W27050   8.468  25.423  13.862
54626W        W27051  44.172  14.264   2.404
54627W        W27052  26.389  29.090  12.823
54628W        W27053  11.563  28.631   1.625
54629W        W27054   8.795   5.777   1.839
54630W        W27055  27.723  13.814   4.229
54631W        W27056  28.276  35.841  13.026
54632W        W27057  20.305  14.121  11.495
54633W        W27058  38.825  31.184   2.842
54634W        W27059  10.703  35.575   3.074
54635W        W27060  17.095  16.076   4.477
54636W        W27061  29.146  19.126   3.979
54637W        W27062  17.799   7.836  12.000
54638W        W27063   9.961  25.937   0.040
54639W        W27064  36.879   1.429   4.696
54640W        W27065  37.874  37.515  14.343
54641W        W27066  42.009  13.103  10.997
54642W        W27067   8.183   4.744   2.840
54643W        W27068   4.867  19.175  11.211
54644W        W27069  20.147  25.663   2.236
54645W        W27070  27.216  29.192  12.343
54646W        W27071  30.659   5.114  12.092
54647W        W27072  23.983   6.830   2.763
54648W        W27073  31.498   6.393  10.258
54649W        W27074  26.051  37.375  12.103
54650W        W27075   4.298   2.254   4.865
54651W        W27076  35.826   9.036   4.816
54652W        W27077   3.196  34.409   4.701
54653W        W27078   0.443  40.337   1.494
54654W        W27079  29.099  34.919  14.267
54655W        W27080  32.021  22.555  10.443
54656W        W27081  22.700   6.989   4.620
54657W        W27082  30.858  14.424   1.846
54658W        W27083  15.882  14.404  12.691
54659W        W27084   4.844   2.178   4.109
54660W        W27085  12.407  39.893   2.059
54661W        W27086   2.938  37.540   1.857
54662W        W27087  10.646  23.097   3.080
54663W        W27088  42.404   2.851  14.497
54664W        W27089   7.519  35.641   0.753
54665W        W27090   4.678  31.133   1.704
54666W        W27091  38.848  35.374   4.561
54667W        W27092   5.083  15.986   4.108
54668W        W27093  29.578   7.715  13.346
54669W        W27094  30.924  39.597  11.840
54670W        W27095  28.115  25.183   3.131
54671W        W27096  27.566  11.202  14.509
54672W        W27097  26.026  18.230   1.460
54673W        W27098  33.690   5.771   0.177
54674W        W27099  35.546   0.746   3.863
54675W        W27100  38.748  43.531  14.345
54676W        W27101  26.299  23.253  12.375
54677W        W27102  35.129   0.806   4.668
54678W        W27103  23.598  36.001  13.243
54679W        W27104  29.050   7.117  12.565
54680W        W27105   2.913  23.785   4.113
54681W        W27106   3.629   4.733   4.478
54682W        W27107  18.850   3.238  10.659
54683W        W27108  19.166  29.593   5.004
54684W        W27109  37.394  38.191   2.923
54685W        W27110  25.804  44.465  12.069
54686W        W27111  11.105  34.589   2.773
54687W        W27112  13.581  27.130  11.453
54688W        W27113   1.175   9.761   1.229
54689W        W27114  37.495  19.569  14.599
54690W        W27115  24.022   2.225   3.638
54691W        W27116  14.881  36.384   2.024
54692W        W27117  26.932  35.605   3.652
54693W        W27118  14.614  32.593   3.371
54694W        W27119  33.403   6.614   2.416
54695W        W27120   5.293   4.029   0.312
54696W        W27121  43.845  20.561   0.428
54697W        W27122  20.977  30.060  10.433
54698W        W27123  35.837  35.158  11.174
54699W        W27124  20.560  35.362   0.215
54700W        W27125   9.529  31.979   3.776
54701W        W27126   6.926   3.076   3.282
54702W        W27127  26.535  44.809   0.967
54703W        W27128  43.396  14.838  10.921
54704W        W27129  15.529  23.763   2.364
54705W        W27130  21.711   8.884   0.368
54706W        W27131  15.293  19.327   2.455
54707W        W27132  34.387   0.139   1.339
54708W        W27133  17.287  38.977  12.790
54709W        W27134   4.095  16.557   3.162
54710W        W27135  12.698  29.198   3.172
54711W        W27136  12.339  14.449  11.962
54712W        W27137  16.469  36.317  14.305
54713W        W27138   2.416  26.164  14.571
54714W        W27139   9.767   3.419  14.878
54715W        W27140  40.454  11.895  10.595
54716W        W27141  43.682  32.726   0.794
54717W        W27142  36.766  18.474  11.548
54718W        W27143  25.129  42.515   4.504
54719W        W27144  17.685  26.481   0.918
54720W        W27145  28.642  35.330   1.208
54721W        W27146  22.926  12.381   2.672
54722W        W27147  31.381  24.468  13.809
54723W        W27148  43.810  29.976  10.474
54724W        W27149   2.971  24.004   0.684
54725W        W27150   4.336  11.858  13.779
54726W        W27151  20.218  37.415   1.765
54727W        W27152  31.835  37.322  10.017
54728W        W27153  25.740   7.963  13.741
54729W        W27154  33.829   3.656  12.097
54730W        W27155  42.953  27.525   0.510
54731W        W27156  22.491   9.921  10.937
54732W        W27157   5.437  24.067   1.339
54733W        W27158  10.167  41.842  12.022
54734W        W27159  17.224  30.418  13.856
54735W        W27160  34.066   5.739   0.894
54736W        W27161  27.165  12.511   0.556
54737W        W27162  12.144   7.474   2.030
54738W        W27163   4.076  15.334  10.770
54739W        W27164   2.249  35.746  12.028
54740W        W27165  40.755  27.318  11.409
54741W        W27166  24.269  39.556   3.626
54742W        W27167  13.044  21.214   1.359
54743W        W27168  15.279  28.993  14.550
54744W        W27169  26.742  25.860  14.585
54745W        W27170  35.914  36.173  12.173
54746W        W27171   6.429  15.648  14.949
54747W        W27172   7.285   6.637  13.388
54748W        W27173  38.818  20.693   0.286
54749W        W27174  25.516  10.803  12.455
54750W        W27175  35.909  12.056  14.508
54751W        W27176  42.248   0.797   0.849
54752W        W27177  27.162  38.183  14.928
54753W        W27178   0.852  31.515   2.735
54754W        W27179  12.831   1.979  13.090
54755W        W27180   1.059  11.229  13.232
54756W        W27181   1.812  27.787  13.553
54757W        W27182  12.598  35.364  13.469
54758W        W27183   9.610  32.656  14.648
54759W        W27184  20.729   8.801  10.824
54760W        W27185  24.395   7.912  11.445
54761W        W27186  35.917   7.401  11.051
54762W        W27187  14.388  10.188  10.605
54763W        W27188  31.350   2.833  13.962
54764W        W27189   2.780   6.296   0.252
54765W        W27190  15.795  10.818   0.064
54766W        W27191  13.884  26.672  11.467
54767W        W27192  33.042   4.435   1.210
54768W        W27193  13.328  31.061  13.351
54769W        W27194  36.876  26.713  13.443
54770W        W27195  39.317  29.125   3.186
54771W        W27196  19.797  41.759  12.737
54772W        W27197  26.656  18.160   0.806
54773W        W27198   3.274   1.320   0.254
54774W        W27199  25.525   7.161  11.162
54775W        W27200  26.447  21.051   3.163
54776W        W27201  23.202   0.278  10.929
54777W        W27202  36.100  15.088  12.512
54778W        W27203   1.379  23.181   4.613
54779W        W27204  43.891  22.994  11.048
54780W        W27205  27.400  29.823  11.316
54781W        W27206  20.523  29.026   2.194
54782W        W27207  14.471  20.968  11.303
54783W        W27208  43.765  26.411   2.221
54784W        W27209  40.164  36.375   0.164
54785W        W27210   4.741  35.306   1.356
54786W        W27211  44.347  28.631  14.785
54787W        W27212  43.038   4.164   0.518
54788W        W27213  38.627  11.107  12.192
54789W        W27214  23.071  41.468  12.461
54790W        W27215   4.748   9.852  14.410
54791W        W27216   2.540  40.686   5.042
54792W        W27217  10.249   6.659   4.642
54793W        W27218   1.741  38.441   0.949
54794W        W27219  18.739  40.270  10.795
54795W        W27220  28.454   9.580   4.124
54796W        W27221   2.026  35.879   3.702
54797W        W27222  31.425   9.803  12.906
54798W        W27223  38.416  31.265  12.502
54799W        W27224  13.613   5.633  12.032
54800W        W27225  30.937  44.690   4.005
54801W        W27226  32.986   8.816  13.923
54802W        W27227  28.849  14.290   0.996
54803W        W27228  24.611   7.689   4.536
54804W        W27229   4.816   5.588  12.986
54805W        W27230  34.581   0.949  13.201
54806W        W27231  40.001  35.872  14.981
54807W        W27232  19.015  33.965   3.221
54808W        W27233   5.896  24.069  14.465
54809W        W27234  15.867  12.755   0.236
54810W        W27235  36.757  41.260   0.474
54811W        W27236  10.713  44.877   4.491
54812W        W27237   5.933   7.730   2.606
54813W        W27238  39.593  24.766   3.197
54814W        W27239  40.540  41.212  14.906
54815W        W27240  17.607  20.804  10.058
54816W        W27241  23.452  25.286  13.341
54817W        W27242   9.269  41.441  10.676
54818W        W27243  12.920  32.177  10.377
54819W        W27244   4.455  33.670  14.802
54820W        W27245  15.564  11.708   2.257
54821W        W27246   7.695  13.862  12.658
54822W        W27247   0.707  17.066  11.532
54823W        W27248  43.265   2.841  14.829
54824W        W27249  36.371   7.470   3.695
54825W        W27250  30.207  42.563  12.663
54826W        W27251  21.665  44.764  14.947
54827W        W27252   0.559   0.005  14.864
54828W        W27253  27.578  20.059   3.184
54829W        W27254   2.836   3.381   2.773
54830W        W27255   3.746   3.799  11.404
54831W        W27256  14.231  22.586   0.586
54832W        W27257  31.531  35.408   3.403
54833W        W27258  35.742  19.297   1.962
54834W        W27259  36.929  24.817   0.019
54835W        W27260  39.819  32.945   1.303
54836W        W27261  26.135  14.615   2.408
54837W        W27262  36.406  43.092   1.260
54838W        W27263  38.094   8.876   3.634
54839W        W27264  17.810   5.300  10.723
54840W        W27265  28.882  10.887  12.637
54841W        W27266  44.304   5.150   4.542
54842W        W27267  10.154  21.825  14.517
54843W        W27268  22.419  21.200  12.972
54844W        W27269  15.632  20.334  12.713
54845W        W27270  12.684  26.417  11.992
54846W        W27271  38.292  15.887   3.681
54847W        W27272  12.104  11.195  14.778
54848W        W27273   4.512  14.592  11.892
54849W        W27274  36.904  14.893  14.025
54850W        W27275  14.965  21.524   5.074
54851W        W27276   1.196   5.259  11.608
54852W        W27277   5.649  16.567   2.427
54853W        W27278   5.395  28.243  11.596
54854W        W27279  15.425  14.730  12.073
54855W        W27280  16.229  25.578   2.203
54856W        W27281  36.072  12.637   4.757
54857W        W27282  23.068  17.338   1.927
54858W        W27283  37.848  27.620   4.196
54859W        W27284  26.660  27.702   4.182
54860W        W27285  17.107  33.043  12.826
54861W        W27286  19.326  26.652   4.906
54862W        W27287   8.957  12.091  12.940
54863W        W27288  42.601  43.560   2.727
54864W        W27289  28.006  17.283   0.051
54865W        W27290  24.199  36.296  13.876
54866W        W27291  27.162  39.887  11.678
54867W        W27292  17.736  36.609  12.560
54868W        W27293  44.678  37.338  10.783
54869W        W27294  31.563  18.127   1.380
54870W        W27295  28.149  36.010   1.444
54871W        W27296  18.216  17.225   4.484
54872W        W27297  36.590  12.742  11.602
54873W        W27298  41.359  29.094   4.088
54874W        W27299   0.437  15.734  13.582
54875W        W27300  20.180   0.761  14.473
54876W        W27301  27.439  19.127  11.068
54877W        W27302  34.962  38.663  12.510
54878W        W27303  31.802  18.661   9.902
54879W        W27304  23.142  24.711   3.213
54880W        W27305  42.246   3.442  10.757
54881W        W27306   3.331  17.761  14.393
54882W        W27307  26.312   1.781   0.792
54883W        W27308  14.246  44.726  11.656
54884W        W27309  22.555  19.484  13.010
54885W        W27310   7.362  30.999   2.242
54886W        W27311   3.348  33.607   2.561
54887W        W27312  24.474  23.933   3.268
54888W        W27313  38.821   5.267  12.982
54889W        W27314  38.271  37.873   0.110
54890W        W27315  20.226   0.766   0.389
54891W        W27316   9.605  39.795   1.505
54892W        W27317   0.495  43.203   4.590
54893W        W27318  27.382  15.689   4.188
54894W        W27319  17.103  32.578   1.411
54895W        W27320  11.793  10.844   1.905
54896W        W27321   8.382  36.855  11.371
54897W        W27322  39.753   6.211  11.962
54898W        W27323  14.597  19.214   4.611
54899W        W27324  33.052  37.529   1.519
54900W        W27325  16.282  15.067   0.897
54901W        W27326  24.175  41.919   4.627
54902W        W27327  27.579  40.019  13.369
54903W        W27328  44.365  37.809   9.940
54904W        W27329  26.072  11.754   2.488
54905W        W27330  16.399  13.011   0.625
54906W        W27331  10.433   4.210  14.781
54907W        W27332  25.775  31.462  13.295
54908W        W27333  38.336  28.236  14.988
54909W        W27334  25.152  10.582  11.163
54910W        W27335   0.798   3.383   0.821
54911W        W27336  42.077   4.793  13.993
54912W        W27337   3.380  12.310  13.848
54913W        W27338  25.698  18.445   0.966
54914W        W27339  42.826  10.323  12.227
54915W        W27340  39.840   3.767   4.145
54916W        W27341   2.484  32.440  14.899
54917W        W27342  12.315  33.835   0.214
54918W        W27343  17.759   9.248   3.245
54919W        W27344  19.627  21.061  11.715
54920W        W27345   8.049  12.098  12.944
54921W        W27346  33.524  16.668   0.784
54922W        W27347  18.621   2.364   2.121
54923W        W27348  32.620   3.874  12.666
54924W        W27349   8.839  43.947  11.509
54925W        W27350  32.331  19.636   4.886
54926W        W27351  21.947  36.725   0.470
54927W        W27352   8.240  36.025  14.547
54928W        W27353  44.898  13.738   2.354
54929W        W27354   7.926  15.078   2.201
54930W        W27355  22.564  42.494  11.932
54931W        W27356  43.853   9.211  14.216
54932W        W27357  42.392   9.811   0.908
54933W        W27358  18.258  26.025  13.168
54934W        W27359  28.172  33.456  11.269
54935W        W27360  22.236  25.204  12.345
54936W        W27361   7.423  10.226   4.355
54937W        W27362   0.764  31.210   2.269
54938W        W27363   6.273   5.635   3.708
54939W        W27364  29.075  19.367  14.470
54940W        W27365  38.280  22.183   0.905
54941W        W27366   6.039  10.312   0.893
54942W        W27367  25.996  16.261  13.485
54943W        W27368  36.905  29.012   0.567
54944W        W27369  17.004  23.158   2.014
54945W        W27370  18.176  36.484   1.377
54946W        W27371   9.769  43.315  11.173
54947W        W27372  18.313  42.117  11.921
54948W        W27373  36.323  36.720   2.068
54949W        W27374  22.604   5.681  13.814
54950W        W27375  32.450  33.478  13.795
54951W        W27376  42.096  15.353  12.906
54952W        W27377   2.422  11.863  10.641
54953W        W27378  16.469  31.048  11.663
54954W        W27379  23.935  30.707  11.975
54955W        W27380  13.830  23.731   1.720
54956W        W27381  23.705  25.083  10.965
54957W        W27382  33.401   7.572   3.632
54958W        W27383  34.122  24.803   3.503
54959W        W27384  18.967  35.910   2.895
54960W        W27385  30.400  13.776  13.528
54961W        W27386  33.122  12.048   3.348
54962W        W27387  34.085   4.364   2.712
54963W        W27388  25.341  26.024  11.982
54964W        W27389  24.174  24.729   1.865
54965W        W27390   7.252  32.956   4.341
54966W        W27391  17.288  13.609  10.962
54967W        W27392  14.538  35.547  12.449
54968W        W27393  31.223  42.974  10.625
54969W        W27394  21.275   3.798  11.425
54970W        W27395  19.016  29.987   9.759
54971W        W27396   7.264  41.150   4.530
54972W        W27397  16.779  16.209   2.909
54973W        W27398  32.020  21.574   3.922
54974W        W27399  37.486  26.164  12.625
54975W        W27400  10.848   9.672  13.508
54976W        W27401  13.293  42.792  11.977
54977W        W27402  41.759  10.468  12.473
54978W        W27403  26.098   9.156  10.645
54979W        W27404   7.689   6.420   2.810
54980W        W27405  14.114  41.852  11.517
54981W        W27406   0.480  23.412   1.252
54982W        W27407  22.307  42.510  13.039
54983W        W27408  25.515  40.416   0.746
54984W        W27409   5.685  30.370   0.854
54985W        W27410  31.953  10.167  12.610
54986W        W27411  18.721   7.922   3.185
54987W        W27412  43.766  42.819  14.340
54988W        W27413  21.692  13.111  12.901
54989W        W27414  17.303  27.665  11.409
54990W        W27415  32.073  16.113  14.875
54991W        W27416   8.835   2.651   2.506
54992W        W27417  10.055  12.399  13.764
54993W        W27418  10.134  30.486  11.951
54994W        W27419   3.348  10.925  11.855
54995W        W27420  38.558  40.298   3.605
54996W        W27421  25.699  13.970  12.578
54997W        W27422   9.142  34.126  12.554
54998W        W27423   8.343   8.448  11.598
54999W        W27424  27.557   7.836   1.270
55000W        W27425  31.882  23.490  14.416
55001W        W27426   5.309  32.397  11.527
55002W        W27427  41.444  40.114  12.013
55003W        W27428  29.607  26.425   4.580
55004W        W27429  29.421   2.835  13.908
55005W        W27430   5.835  27.742  12.183
55006W        W27431  44.211  37.450   3.773
55007W        W27432  11.522  13.695  12.625
55008W        W27433  33.107  30.785  14.542
55009W        W27434  34.951  26.866  11.444
55010W        W27435   7.957  36.138  10.106
55011W        W27436   1.940  31.828  13.460
55012W        W27437  42.526  28.551  14.052
55013W        W27438  24.769  35.471  12.066
55014W        W27439  12.586   2.785  14.715
55015W        W27440   0.792  33.379   5.097
55016W        W27441   0.295  27.621  12.829
55017W        W27442  25.052  43.294  10.617
55018W        W27443  42.438  36.725  13.255
55019W        W27444  32.399  14.691   3.388
55020W        W27445  21.762  21.172   3.573
55021W        W27446  10.050  14.606  11.530
55022W        W27447  19.049   0.037  13.531
55023W        W27448  14.120  21.201   0.347
55024W        W27449  12.408  11.371  11.930
55025W        W27450  33.099  12.365   0.462
55026W        W27451  27.180  18.292  14.825
55027W        W27452  43.233  36.472   1.824
55028W        W27453  34.070  41.483  14.367
55029W        W27454  20.978  25.155  10.852
55030W        W27455   7.172   7.150   3.338
55031W        W27456   9.381  14.688   2.017
55032W        W27457   6.534   1.627  14.693
55033W        W27458   7.984  28.470  13.932
55034W        W27459   4.961  20.453   2.313
55035W        W27460   1.278   4.304   0.806
55036W        W27461   8.864  38.380   2.353
55037W        W27462   5.466  15.468   2.602
55038W        W27463  30.991  31.539   0.982
55039W        W27464  12.931  37.969  14.310
55040W        W27465  38.881   2.850  13.732
55041W        W27466  12.108   9.976   5.090
55042W        W27467   7.740  33.171  14.029
55043W        W27468  25.229  12.888  14.802
55044W        W27469  37.097  38.929  14.935
55045W        W27470   2.545  20.822   3.172
55046W        W27471  11.341   1.465   1.852
55047W        W27472  35.831  18.786   0.764
55048W        W27473   3.722  32.941   2.448
55049W        W27474  18.726  33.537   3.887
55050W        W27475  13.064  18.838   1.944
55051W        W27476  13.668  25.367   0.711
55052W        W27477   9.945  25.548   0.779
55053W        W27478  13.844  38.242  11.694
55054W        W27479   9.810  16.103   3.389
55055W        W27480   4.438  25.011  13.854
55056W        W27481  33.727   1.948   0.347
55057W        W27482  11.581  33.105   4.764
55058W        W27483  14.801  29.053  14.994
55059W        W27484  13.248  29.840   4.617
55060W        W27485  37.380  32.875   2.168
55061W        W27486   7.888  37.043   5.166
55062W        W27487  33.994  43.817  14.548
55063W        W27488  17.567  10.826   3.388
55064W        W27489   4.220  32.870  13.471
55065W        W27490   1.018  35.370   0.416
55066W        W27491  13.274   4.765   3.961
55067W        W27492  10.324  19.043   2.619
55068W        W27493  35.549   9.579  11.073
55069W        W27494  36.504  17.043  14.857
55070W        W27495  13.661   7.182   4.180
55071W        W27496  12.784  41.745   3.149
55072W        W27497  19.830  13.505   2.357
55073W        W27498  23.493  10.700   0.444
55074W        W27499  11.623  29.631  14.072
55075W        W27500  14.051  24.126  13.852
55076W        W27501  23.244  37.084  11.070
55077W        W27502  38.311  39.810   2.693
55078W        W27503  16.507  32.866  11.504
55079W        W27504  44.453  39.840   3.053
55080W        W27505  13.181  37.371  12.433
55081W        W27506  38.932  41.090   0.805
55082W        W27507   3.720   6.910   1.886
55083W        W27508   0.218  33.098   3.675
55084W        W27509  25.187   4.466   0.314
55085W        W27510  39.962  33.929  10.085
55086W        W27511  23.786  24.017   4.152
55087W        W27512  30.886  27.648  13.451
55088W        W27513  34.456  36.955   4.532
55089W        W27514  41.446  10.630   2.964
55090W        W27515  19.179   0.604  14.955
55091W        W27516  35.338  25.523   5.074
55092W        W27517  26.133  30.216  14.496
55093W        W27518   5.407  42.802  11.060
55094W        W27519  26.172  18.986  14.340
55095W        W27520  10.413  35.906  12.912
55096W        W27521  16.846  25.433   1.760
55097W        W27522  14.891   0.950  14.276
55098W        W27523  30.509  40.478   4.102
55099W        W27524  34.992  44.805  13.133
55100W        W27525  13.316   6.773   4.195
55101W        W27526  40.429  13.648   3.165
55102W        W27527  29.063  32.836  10.076
55103W        W27528  17.175  37.237   3.250
55104W        W27529   2.274  12.583  14.424
55105W        W27530  26.948  35.353   2.682
55106W        W27531   5.920  13.559   4.224
55107W        W27532  21.108  37.410   2.711
55108W        W27533  20.694  14.746   0.118
55109W        W27534  27.157  42.194  14.430
55110W        W27535   1.560  16.425  12.456
55111W        W27536   8.488   6.490   1.315
55112W        W27537  20.413  23.289  14.848
55113W        W27538  11.611  36.108  12.315
55114W        W27539  44.072  19.702   2.975
55115W        W27540   9.184  31.606  11.245
55116W        W27541  31.093   8.149  12.906
55117W        W27542   4.804   4.391   4.293
55118W        W27543  18.129  11.781   0.961
55119W        W27544  11.168  23.558  14.824
55120W        W27545  42.043  28.391  12.884
55121W        W27546  21.744   1.868   1.867
55122W        W27547  27.928  13.807  11.624
55123W        W27548  42.393  35.769  10.366
55124W        W27549  26.719  11.694   0.475
55125W        W27550   5.793  16.422  14.706
55126W        W27551  19.968  26.451   0.431
55127W        W27552  43.190  39.752  14.738
55128W        W27553  16.856  22.950  11.481
55129W        W27554  10.345  32.582   9.994
55130W        W27555  42.012  35.044  13.835
55131W        W27556   8.141  41.851  14.873
55132W        W27557   6.183  13.502  10.619
55133W        W27558  42.398  18.289  11.594
55134W        W27559   6.953   9.660  11.602
55135W        W27560  27.002  19.030  13.445
55136W        W27561  35.010  30.859   5.126
55137W        W27562   2.431   2.665   1.335
55138W        W27563  23.206  24.210   4.253
55139W        W27564  28.224  30.643   3.866
55140W        W27565  17.993  13.033   2.970
55141W        W27566  19.043   5.617   0.948
55142W        W27567  38.597  30.193  10.407
55143W        W27568   3.144  22.557  11.648
55144W        W27569  17.254  15.039   1.366
55145W        W27570  26.114  39.888  13.848
55146W        W27571   6.334  17.822   2.886
55147W        W27572  24.979  14.550   0.397
55148W        W27573  27.563  25.436  13.973
55149W        W27574  11.774  13.062   2.315
55150W        W27575  24.730  30.208  14.583
55151W        W27576  43.006  11.132  14.958
55152W        W27577  36.827  27.053  13.955
55153W        W27578  33.614  18.269   1.194
55154W        W27579  34.351  43.557   2.070
55155W        W27580  18.269  23.316  14.501
55156W        W27581   3.658  21.882  11.943
55157W        W27582  35.426   8.078  12.375
55158W        W27583  15.224  32.782  14.665
55159W        W27584  23.530  14.890  13.361
55160W        W27585  10.176  15.857   3.069
55161W        W27586  17.112  39.844  11.731
55162W        W27587  15.384  24.920   0.053
55163W        W27588  10.090  36.295   1.382
55164W        W27589  23.073   5.262   4.615
55165W        W27590  38.951  30.400  10.747
55166W        W27591  19.727   9.627  11.153
55167W        W27592   3.791  16.166  13.740
55168W        W27593   7.340   8.154   2.686
55169W        W27594  30.992  41.044   1.854
55170W        W27595   5.116  21.578  11.054
55171W        W27596   7.403  36.143  13.459
55172W        W27597  24.698   9.154   9.742
55173W        W27598   1.537  41.239  11.500
55174W        W27599  22.544  38.536   0.136
55175W        W27600  41.990  40.442  12.963
55176W        W27601   7.151  16.605  14.364
55177W        W27602  13.774   0.383  12.037
55178W        W27603  22.287  19.287  13.889
55179W        W27604  29.450  11.818   2.238
55180W        W27605  34.954  10.737   4.917
55181W        W27606  23.179  44.681  12.531
55182W        W27607  13.748  16.877   3.171
55183W        W27608  12.377  13.437  11.056
55184W        W27609   3.283  24.520   1.357
55185W        W27610  34.521  36.645  14.033
55186W        W27611  23.800  10.667   0.900
55187W        W27612   1.396   6.985  11.154
55188W        W27613  38.579   7.538   1.454
55189W        W27614   8.631  40.694   3.212
55190W        W27615   8.839   9.151  11.313
55191W        W27616  23.422  22.173   4.467
55192W        W27617  23.098  13.796   4.651
55193W        W27618  26.721   2.902   4.812
55194W        W27619  43.985   6.161   4.153
55195W        W27620  17.271  20.034  13.889
55196W        W27621  12.796   9.421   2.277
55197W        W27622  34.306  23.953  12.865
55198W        W27623  28.473  40.782  13.052
55199W        W27624  13.774  12.318   3.781
55200W        W27625   9.612  30.694  11.170
55201W        W27626  12.817  36.545   3.261
55202W        W27627  40.038  44.488   2.363
55203W        W27628  38.273  23.895  11.096
55204W        W27629  10.653  14.170   3.339
55205W        W27630  22.763  11.059   5.475
55206W        W27631  11.629  42.534   2.470
55207W        W27632  17.738   4.770  13.990
55208W        W27633  32.030  23.953   3.269
55209W        W27634  25.954  19.018   2.232
55210W        W27635  15.587   9.882  14.010
55211W        W27636   4.505  22.976  12.042
55212W        W27637  43.186  17.263  13.486
55213W        W27638  12.770  41.018  10.742
55214W        W27639  42.315  12.217  13.980
55215W        W27640   1.987   7.288  13.850
55216W        W27641  30.931  29.039  11.924
55217W        W27642  10.206  23.062  14.032
55218W        W27643  25.949  39.380   1.318
55219W        W27644  23.244  36.862  14.304
55220W        W27645  39.070  39.098   2.314
55221W        W27646  27.116   6.296  12.894
55222W        W27647  23.234  13.343   1.735
55223W        W27648   7.668  29.512  12.583
55224W        W27649   9.622  14.155   4.650
55225W        W27650  35.352   0.200   2.896
55226W        W27651   7.772  28.386  13.021
55227W        W27652  31.520  18.339  13.165
55228W        W27653  23.566  20.567  14.840
55229W        W27654  43.036   7.327  10.719
55230W        W27655   6.261  32.973  14.798
55231W        W27656  19.055   3.818   3.764
55232W        W27657  27.472   5.326   4.186
55233W        W27658  35.336  11.662  11.494
55234W        W27659  29.094  13.607  12.154
55235W        W27660  38.307  10.596  11.150
55236W        W27661  28.599   6.494  14.935
55237W        W27662  11.834   8.179  13.300
55238W        W27663  34.398   1.800   1.538
55239W        W27664  38.159  16.371  13.776
55240W        W27665   3.424   2.885   2.132
55241W        W27666   1.408   3.318  10.967
55242W        W27667  39.897  35.554   4.826
55243W        W27668  13.557  35.468  14.566
55244W        W27669  33.467  38.548   3.131
55245W        W27670   9.219   6.792  11.186
55246W        W27671  38.774  20.578  13.878
55247W        W27672  30.255  43.008  10.486
55248W        W27673   6.657   1.350   4.759
55249W        W27674  43.281   9.758   3.593
55250W        W27675  43.993   9.994   0.821
55251W        W27676  20.815  10.117  10.521
55252W        W27677   5.004   4.834   0.568
55253W        W27678  24.123  25.928  13.923
55254W        W27679   4.146  42.696   2.315
55255W        W27680  31.643  13.250   1.269
55256W        W27681  38.380  19.189  11.203
55257W        W27682  30.870   8.351   0.716
55258W        W27683   7.359   2.769   3.717
55259W        W27684   4.839   9.661  13.918
55260W        W27685  43.378  10.077  14.381
55261W        W27686   1.404  40.520  12.200
55262W        W27687  40.219   8.869  11.140
55263W        W27688  41.842  12.064  14.328
55264W        W27689  27.443  28.184  11.973
55265W        W27690  40.429  32.993   4.688
55266W        W27691  34.439   9.702   2.735
55267W        W27692  28.393  41.831   3.975
55268W        W27693  28.917  43.114  12.149
55269W        W27694  40.175   7.332   4.084
55270W        W27695  23.008  22.629  14.871
55271W        W27696  39.419  38.388  12.925
55272W        W27697  22.535  14.139   3.251
55273W        W27698   7.665  23.168   3.173
55274W        W27699  36.186  22.252  10.796
55275W        W27700   1.475   8.955   4.125
55276W        W27701  34.093  30.036  13.454
55277W        W27702  40.479  36.750   1.871
55278W        W27703  29.433  12.773  10.550
55279W        W27704   9.823   5.653  10.229
55280W        W27705  29.533  44.807   4.529
55281W        W27706   8.936  20.252   0.677
55282W        W27707  14.679  23.061   1.968
55283W        W27708  13.196  16.126   3.782
55284W        W27709  17.771  10.303   0.261
55285W        W27710  22.610  14.844   3.663
55286W        W27711  36.104  10.633   4.172
55287W        W27712  44.762  22.964   2.279
55288W        W27713  34.057   1.131  13.273
55289W        W27714  22.977  10.182   4.610
55290W        W27715  23.268  41.139   0.870
55291W        W27716  12.993  38.311   0.368
55292W        W27717  21.649   8.292  13.015
55293W        W27718  17.267  25.692   9.813
55294W        W27719  33.868  28.075  12.862
55295W        W27720  12.058   3.393   4.568
55296W        W27721  41.637   0.944   4.282
55297W        W27722   3.271  27.084  14.341
55298W        W27723  25.684   5.525   1.507
55299W        W27724  34.931  31.188   1.881
55300W        W27725  22.454  32.520  11.678
55301W        W27726  10.392   0.084   1.554
55302W        W27727  30.562   1.676  13.031
55303W        W27728   5.749  36.472   5.077
55304W        W27729  29.111  23.146   1.315
55305W        W27730  16.175  11.760   4.173
55306W        W27731  22.284  27.421   4.773
55307W        W27732   8.681  25.146  12.974
55308W        W27733   5.928  41.355   1.668
55309W        W27734  44.368  40.242  11.462
55310W        W27735   1.068  40.615  11.093
55311W        W27736  18.150  34.928  13.984
55312W        W27737  39.124  21.609  10.437
55313W        W27738  26.418   6.804   2.589
55314W        W27739  32.431  26.039  11.521
55315W        W27740  18.949  39.026  14.951
55316W        W27741   2.264   2.614   2.656
55317W        W27742  17.175  31.047   4.584
55318W        W27743   3.990  17.093   0.694
55319W        W27744  19.094   5.534   2.269
55320W        W27745  22.068  21.421  13.471
55321W        W27746  26.271  32.546   2.913
55322W        W27747  42.315  37.085   4.597
55323W        W27748  36.531  36.568  13.410
55324W        W27749  31.078   0.442  14.021
55325W        W27750  42.615  33.692   3.141
55326W        W27751  25.686   2.489  14.346
55327W        W27752   1.369   3.523  11.432
55328W        W27753  34.391  30.087  10.975
55329W        W27754  29.168  35.337  12.515
55330W        W27755  19.932  15.002   0.946
55331W        W27756  38.125  43.363  10.508
55332W        W27757   8.395  28.894   4.730
55333W        W27758  37.947  14.546   0.333
55334W        W27759   9.719   5.789   4.117
55335W        W27760  36.799  14.229  10.419
55336W        W27761  12.326  33.950  14.696
55337W        W27762  44.322  25.190  12.743
55338W        W27763   0.520  10.590   0.280
55339W        W27764  18.218   7.785   3.036
55340W        W27765   5.493  18.583  14.920
55341W        W27766   9.563  30.544  12.066
55342W        W27767  37.782  23.294  11.489
55343W        W27768  28.338  23.102   0.828
55344W        W27769   5.792   5.580   2.461
55345W        W27770  12.028  37.961  11.556
55346W        W27771  11.775   6.390   4.045
55347W        W27772  31.787  42.764   4.145
55348W        W27773  20.626  17.527  12.000
55349W        W27774  24.693  20.045   0.670
55350W        W27775  40.517  16.793   0.826
55351W        W27776  22.555  41.046  14.373
55352W        W27777   3.906   7.765   1.372
55353W        W27778  24.507   9.686  13.934
55354W        W27779   7.193  15.039  10.710
55355W        W27780  39.303   5.336   1.248
55356W        W27781  20.405  18.223  14.286
55357W        W27782  31.327  33.543   0.152
55358W        W27783  42.114   3.816  11.555
55359W        W27784   9.778  13.247  14.508
55360W        W27785  43.884  10.385  13.199
55361W        W27786  40.357  25.228   2.794
55362W        W27787  14.891  43.042  10.872
55363W        W27788  30.135  17.666   0.400
55364W        W27789  15.666  17.018  13.513
55365W        W27790  28.427  17.803  11.201
55366W        W27791  28.032  19.515  11.081
55367W        W27792  39.869  41.345   2.392
55368W        W27793  19.349   5.376  11.996
55369W        W27794   2.906  40.733  10.630
55370W        W27795  16.827  12.182  13.416
55371W        W27796  21.221   6.745  14.269
55372W        W27797  39.074  20.623  13.464
55373W        W27798  21.221   3.055   2.623
55374W        W27799  10.574  28.279  12.394
55375W        W27800  37.568  43.259   2.820
55376W        W27801   8.776   9.139   1.251
55377W        W27802  31.097  21.313  11.080
55378W        W27803  44.908  33.640  13.056
55379W        W27804  15.375  19.409  13.450
55380W        W27805  22.008  21.662   3.712
55381W        W27806  14.206  26.441   0.847
55382W        W27807  27.707   9.010   0.985
55383W        W27808  40.286  13.269  12.055
55384W        W27809  38.433  13.391   3.689
55385W        W27810  39.726   6.598  13.371
55386W        W27811  11.303   3.557  10.884
55387W        W27812  41.246  16.544  11.975
55388W        W27813   9.254  23.387  11.622
55389W        W27814  35.545  18.289  11.101
55390W        W27815  30.965  41.589  14.885
55391W        W27816   9.732  33.699  13.418
55392W        W27817  12.541  38.825  12.373
55393W        W27818  18.115  30.718   1.486
55394W        W27819  28.658  16.698  10.513
55395W        W27820  11.269  43.072  12.303
55396W        W27821  39.056  21.484  13.427
55397W        W27822  33.125  24.576  11.157
55398W        W27823  19.568  18.731   4.373
55399W        W27824  35.846  10.729   0.777
55400W        W27825  13.358  10.198  13.863
55401W        W27826  42.932  15.565   4.737
55402W        W27827  40.228  14.737   2.245
55403W        W27828  14.546  33.150  13.457
55404W        W27829   6.890  22.878  10.984
55405W        W27830   5.389  26.737   0.031
55406W        W27831  29.973  14.661  12.084
55407W        W27832  10.411  17.879   3.089
55408W        W27833  39.188  44.723   0.823
55409W        W27834  12.634  27.994   1.337
55410W        W27835   0.395  31.428  11.506
55411W        W27836  31.561  31.371   3.566
55412W        W27837  20.629  27.486  11.474
55413W        W27838  33.410   8.143   3.577
55414W        W27839  20.286  22.044  10.656
55415W        W27840   8.247  21.208   1.195
55416W        W27841  43.250  44.518   1.326
55417W        W27842  35.683  42.908   4.333
55418W        W27843   9.763  22.243  10.938
55419W        W27844  13.267   0.357   4.460
55420W        W27845  26.143   5.893  13.756
55421W        W27846  19.783   8.911   1.286
55422W        W27847   9.927   0.434   2.648
55423W        W27848  43.869  13.300   3.947
55424W        W27849   3.779  11.220  10.739
55425W        W27850  35.851  24.058   4.153
55426W        W27851  16.221  16.890   1.920
55427W        W27852  20.044   6.799  12.372
55428W        W27853   1.080   9.271   2.455
55429W        W27854  27.618  34.148  11.740
55430W        W27855  38.891  18.944  14.468
55431W        W27856  30.311   3.813   4.641
55432W        W27857  19.549   6.291   2.361
55433W        W27858  33.861   3.908   2.031
55434W        W27859  33.446  17.739  14.991
55435W        W27860  27.072  18.592  12.258
55436W        W27861  37.692  16.286  13.116
55437W        W27862  42.427  33.374   2.790
55438W        W27863  32.490   6.252   2.664
55439W        W27864  44.014  10.802   3.236
55440W        W27865  12.618  43.192   3.743
55441W        W27866   6.426  11.584   3.313
55442W        W27867  34.596  34.500  14.741
55443W        W27868  38.930   4.101   1.505
55444W        W27869  10.107  34.914  10.995
55445W        W27870  42.092  24.664  12.587
55446W        W27871  17.053  28.782  11.688
55447W        W27872   4.794  22.072   2.591
55448W        W27873  22.748  39.927   4.238
55449W        W27874  23.583  23.849   1.816
55450W        W27875  20.333  10.746   0.802
55451W        W27876  10.224  23.123   1.328
55452W        W27877  28.946  22.211  11.612
55453W        W27878  10.364  39.832   3.211
55454W        W27879  20.238   1.569   0.021
55455W        W27880  14.653  19.369  10.809
55456W        W27881  42.971   8.310   2.306
55457W        W27882  41.453   7.819   1.027
55458W        W27883  13.678  32.684  14.339
55459W        W27884  38.642  14.887   3.729
55460W        W27885  24.935   3.919  13.989
55461W        W27886  32.624  29.077   3.547
55462W        W27887  31.683  19.186  12.919
55463W        W27888  31.423  42.796   1.382
55464W        W27889  31.628  24.902  10.212
55465W        W27890  38.355   1.708   1.677
55466W        W27891   8.586   1.483   3.845
55467W        W27892  13.678  28.170   5.029
55468W        W27893   1.521  16.314   4.691
55469W        W27894   4.929  33.572   2.260
55470W        W27895  23.632  32.409   0.675
55471W        W27896  16.363   4.747   2.370
55472W        W27897   0.790  13.325  14.930
55473W        W27898  22.385  31.167   1.454
55474W        W27899  13.586  18.330   1.161
55475W        W27900  26.599  30.003   0.723
55476W        W27901   3.812   0.895  14.374
55477W        W27902  16.567   5.292   2.744
55478W        W27903   5.288   6.231   2.230
55479W        W27904   3.186   8.824  13.898
55480W        W27905  23.241  11.425   0.958
55481W        W27906  33.169  44.338   2.821
55482W        W27907  22.133  43.192  13.842
55483W        W27908  33.576  25.135   1.994
55484W        W27909   9.555   6.098   1.063
55485W        W27910  34.945  18.443  10.928
55486W        W27911   0.907   0.426  14.503
55487W        W27912   6.375  15.087  11.155
55488W        W27913  19.193  19.238   2.688
55489W        W27914  27.059   7.403   2.347
55490W        W27915  34.145  40.585  11.564
55491W        W27916  43.842  30.181  14.330
55492W        W27917  34.762   2.165   0.212
55493W        W27918  34.741  20.073  12.343
55494W        W27919  16.241  12.338   2.258
55495W        W27920   2.862  41.858  13.030
55496W        W27921  41.940   3.744   0.791
55497W        W27922  43.232  35.469  10.568
55498W        W27923  11.622   7.210   3.212
55499W        W27924  33.097  38.928  13.546
55500W        W27925   9.274  37.128   4.046
55501W        W27926  41.400  27.408   4.520
55502W        W27927   5.369  34.331  13.401
55503W        W27928  35.385   8.549   1.925
55504W        W27929  32.498  26.538  13.238
55505W        W27930   4.681  21.173  13.002
55506W        W27931  11.139  19.971   3.294
55507W        W27932   8.386  35.084  12.490
55508W        W27933  44.342  23.727   2.710
55509W        W27934  28.684  37.916   4.612
55510W        W27935   8.651  29.482   0.218
55511W        W27936  26.220  28.317   2.202
55512W        W27937  23.233  31.899  11.382
55513W        W27938  14.113   6.208  10.978
55514W        W27939  34.682  25.078   1.438
55515W        W27940  15.849  24.976  13.365
55516W        W27941  31.579   8.483  13.834
55517W        W27942  32.444   1.895  13.111
55518W        W27943  19.623  29.450   1.269
55519W        W27944  30.101  20.766   3.227
55520W        W27945  38.920  27.610   3.659
55521W        W27946  39.927   7.212  13.948
55522W        W27947  25.044  17.883  13.318
55523W        W27948  13.789  27.553  12.222
55524W        W27949  39.316  44.966   2.447
55525W        W27950  20.427  17.223   0.867
55526W        W27951  42.635  15.049   4.105
55527W        W27952  12.192   8.279  11.264
55528W        W27953  18.617  24.270   0.794
55529W        W27954  42.597   5.775   3.268
55530W        W27955  21.805  23.082   4.699
55531W        W27956  16.188  18.279  12.940
55532W        W27957  36.467  39.117  12.057
55533W        W27958  10.397  17.801   0.936
55534W        W27959  16.601  42.785  13.819
55535W        W27960  35.480  24.230  11.113
55536W        W27961  30.490  24.104  13.331
55537W        W27962   8.815  43.227   3.200
55538W        W27963  11.187   9.715   4.294
55539W        W27964  17.076  10.779   3.617
55540W        W27965  38.838  28.431  10.773
55541W        W27966  24.906  23.509   2.421
55542W        W27967  25.533  27.206   0.295
55543W        W27968  44.803  17.593  13.210
55544W        W27969   0.337  39.087  12.872
55545W        W27970  30.643  31.657   1.847
55546W        W27971   3.200   9.282  10.621
55547W        W27972  26.729   5.507  11.287
55548W        W27973  27.086  39.451   0.296
55549W        W27974  29.479   0.896  12.418
55550W        W27975  39.751  44.325   4.800
55551W        W27976  26.489  20.248  14.271
55552W        W27977  36.473  41.935  12.661
55553W        W27978  30.718  37.133  12.592
55554W        W27979  33.494  44.477   0.565
55555W        W27980  40.463  30.626   2.660
55556W        W27981  34.080  15.151   4.496
55557W        W27982   8.765  24.264  12.563
55558W        W27983  21.728  10.839   2.639
55559W        W27984  28.187  11.434   1.010
55560W        W27985  35.025   1.773   3.694
55561W        W27986  10.821  11.853   1.534
55562W        W27987  12.690  22.808  10.969
55563W        W27988   0.715   1.423   4.145
55564W        W27989  27.693   1.238   3.686
55565W        W27990  37.508  26.141  13.167
55566W        W27991  14.309  24.825   0.053
55567W        W27992  15.059  21.096  14.444
55568W        W27993   5.174  33.195   0.501
55569W        W27994  33.233   9.377  11.594
55570W        W27995  13.705  22.964   4.925
55571W        W27996  23.575  36.119   0.346
55572W        W27997   8.901  42.470   0.437
55573W        W27998   7.488  39.872  14.873
55574W        W27999   6.144  28.392  12.471
55575W        W28000  18.795   9.786  11.347
55576W        W28001  38.431   5.283  14.500
55577W        W28002  35.581  11.274  11.941
55578W        W28003  12.874  28.858  13.962
55579W        W28004  11.969  25.005  13.309
55580W        W28005  42.773  12.778   0.774
55581W        W28006  20.033   4.652  12.579
55582W        W28007  28.681  21.817  11.793
55583W        W28008   2.962   8.339  13.826
55584W        W28009  27.122  17.669   3.898
55585W        W28010   1.633  10.968   2.602
55586W        W28011  13.206  32.183  11.563
55587W        W28012  24.032  38.581   3.904
55588W        W28013  19.052  43.070   2.709
55589W        W28014  40.549  18.061   2.707
55590W        W28015  12.556  41.573   0.397
55591W        W28016  15.727  14.302  11.831
55592W        W28017  41.342  19.448  11.248
55593W        W28018  26.556  15.367   2.449
55594W        W28019  31.105  33.921   0.811
55595W        W28020  29.140  36.083   1.871
55596W        W28021  11.735  22.982   1.334
55597W        W28022  21.433  27.086  11.982
55598W        W28023  30.299  28.417   0.299
55599W        W28024  29.095   1.143  14.994
55600W        W28025  15.206  11.319   2.679
55601W        W28026  43.469  44.408  11.724
55602W        W28027  16.073   0.353  11.988
55603W        W28028  29.260  29.503   3.269
55604W        W28029  21.374  16.381   1.909
55605W        W28030  12.729  33.839  14.371
55606W        W28031   3.858  29.034   0.769
55607W        W28032  15.837  19.780   3.705
55608W        W28033  33.070  33.353  11.078
55609W        W28034  24.698   0.964  13.889
55610W        W28035  42.655  24.545  10.918
55611W        W28036  24.853   8.442  14.540
55612W        W28037  20.289  14.535   3.231
55613W        W28038  43.853  19.712  14.814
55614W        W28039  10.381  11.385  11.189
55615W        W28040  42.369   2.928   1.983
55616W        W28041   6.917  17.734  14.308
55617W        W28042  31.880  14.650  14.019
55618W        W28043  17.300   4.546   1.302
55619W        W28044  17.804  31.162  13.960
55620W        W28045   9.276   9.591   4.286
55621W        W28046  12.597  38.922   2.181
55622W        W28047  23.635  32.543   4.305
55623W        W28048   9.799  22.859  11.496
55624W        W28049  38.954  18.100  11.034
55625W        W28050  37.073  40.733  10.664
55626W        W28051  24.857  40.013   2.523
55627W        W28052   0.516  44.286   3.277
55628W        W28053  37.508  10.870  13.013
55629W        W28054  18.540  27.392   3.204
55630W        W28055  22.987  25.155  14.517
55631W        W28056   2.104   0.606   2.290
55632W        W28057  28.424  26.869  12.567
55633W        W28058  39.075  36.561   1.254
55634W        W28059  14.125  43.438  11.203
55635W        W28060  28.528  29.178  14.861
55636W        W28061  25.770  37.750   3.675
55637W        W28062  17.784  12.323   0.964
55638W        W28063  16.293   2.426   0.940
55639W        W28064   3.442  29.089   3.655
55640W        W28065  20.858  21.766   1.402
55641W        W28066  38.608  10.182  10.979
55642W        W28067  34.005   7.388   4.395
55643W        W28068  32.610  30.227   0.267
55644W        W28069  23.629  43.202  12.538
55645W        W28070  12.948   2.335  12.463
55646W        W28071  17.464  37.237  10.977
55647W        W28072  33.599  34.904   2.208
55648W        W28073  24.580  16.023   0.346
55649W        W28074  23.263  23.133   4.913
55650W        W28075  14.230  22.780   4.636
55651W        W28076   7.099   3.780   2.694
55652W        W28077  30.038   7.254   3.899
55653W        W28078   8.280  26.450  11.518
55654W        W28079  38.377  14.684   0.708
55655W        W28080  33.323  26.593  11.190
55656W        W28081  25.456   9.474   2.623
55657W        W28082  20.788  11.130  11.024
55658W        W28083  18.296  26.141   3.301
55659W        W28084  38.456  31.835   3.270
55660W        W28085  39.396  44.371  11.714
55661W        W28086  20.596  10.076  14.725
55662W        W28087  44.970   7.932  11.163
55663W        W28088   0.643   7.360  12.074
55664W        W28089  40.330  29.484  14.773
55665W        W28090   2.055  19.727  10.968
55666W        W28091  33.326  40.456  12.087
55667W        W28092  20.538  38.318   1.115
55668W        W28093  29.606  40.845  13.267
55669W        W28094   0.350   4.289   3.482
55670W        W28095  32.900  44.247  12.920
55671W        W28096   9.976  18.035   3.351
55672W        W28097   5.301  16.383   1.805
55673W        W28098  28.660  43.521  11.035
55674W        W28099  28.482  20.297  12.573
55675W        W28100  17.832  44.183  13.617
55676W        W28101   3.736  41.842   0.824
55677W        W28102  44.875  38.377  12.912
55678W        W28103  15.677  12.660  13.084
55679W        W28104  12.395   6.812  13.074
55680W        W28105  26.865  44.268   4.402
55681W        W28106  23.979  34.434   0.508
55682W        W28107   4.494  21.550  14.518
55683W        W28108  19.718  14.947   3.768
55684W        W28109  16.841  23.041   4.065
55685W        W28110  24.188  21.004  11.023
55686W        W28111  26.566  28.168   3.574
55687W        W28112  38.459  39.298  14.706
55688W        W28113  24.135  18.749   1.146
55689W        W28114  25.740   0.977   0.901
55690W        W28115  32.902   9.872   1.657
55691W        W28116  24.361  11.806   5.367
55692W        W28117  20.181   7.954  14.961
55693W        W28118  34.863  30.915   1.418
55694W        W28119   1.039  26.237  14.031
55695W        W28120  19.285  21.596  14.897
55696W        W28121  12.072   3.851   4.890
55697W        W28122   5.724  12.191   2.946
55698W        W28123  40.838  40.449  10.732
55699W        W28124  16.728   4.273   2.749
55700W        W28125  36.788  29.895  12.915
55701W        W28126  14.169  20.722  13.998
55702W        W28127  35.886  10.387   1.662
55703W        W28128   5.754  24.678  11.086
55704W        W28129  13.602  18.535  13.000
55705W        W28130  17.969  24.796   4.545
55706W        W28131   6.758  41.250   2.948
55707W        W28132  18.975  34.507  14.733
55708W        W28133  18.010  25.093  12.918
55709W        W28134   7.734  27.980   4.526
55710W        W28135  43.341  24.433  13.742
55711W        W28136  33.926  26.563  12.812
55712W        W28137  32.971  39.892  11.990
55713W        W28138  33.744   6.301  10.563
55714W        W28139  24.046  24.001   1.482
55715W        W28140  34.404  10.773   2.655
55716W        W28141  25.456  24.183   1.881
55717W        W28142  19.452  14.759   0.956
55718W        W28143  12.763  36.016   3.259
55719W        W28144  27.416   8.187   2.934
55720W        W28145   2.224  40.868  12.181
55721W        W28146  31.384   5.421   1.793
55722W        W28147  14.888  32.960   1.880
55723W        W28148  29.457  25.163  14.712
55724W        W28149  13.279  11.362   0.715
55725W        W28150  16.272  37.030   1.902
55726W        W28151  24.166  27.920   3.218
55727W        W28152  13.906  18.901  14.770
55728W        W28153  17.646   8.574  10.441
55729W        W28154   7.214  40.456  11.311
55730W        W28155  34.132  43.366  12.821
55731W        W28156   8.232  17.647   4.518
55732W        W28157  33.116  44.912  11.159
55733W        W28158  10.213   7.955   1.805
55734W        W28159  38.098  37.474  13.878
55735W        W28160  42.892   6.608   0.459
55736W        W28161  19.783  34.135   2.781
55737W        W28162   2.203   0.357  14.573
55738W        W28163  29.872  38.497   1.766
55739W        W28164  18.683  44.354   2.439
55740W        W28165  20.680   4.783   5.017
55741W        W28166  35.045  30.427  14.509
55742W        W28167  13.899  27.911   2.398
55743W        W28168   5.768   4.012   2.358
55744W        W28169  24.581  29.961  13.460
55745W        W28170  34.373  11.296  12.706
55746W        W28171   2.275  34.590   2.383
55747W        W28172  43.897  16.793  13.906
55748W        W28173  18.058  19.798   3.277
55749W        W28174  38.490  25.641  13.725
55750W        W28175   9.417   9.332   2.119
55751W        W28176  43.324  35.585   4.033
55752W        W28177   7.803  42.457  14.141
55753W        W28178  16.443  35.834   4.056
55754W        W28179   9.890  32.569  11.096
55755W        W28180   1.732  11.768   1.436
55756W        W28181  29.979  13.312  11.569
55757W        W28182  17.421  32.193  13.304
55758W        W28183  16.156  33.075  12.862
55759W        W28184  20.209  16.205  13.754
55760W        W28185  23.778  34.021  14.330
55761W        W28186  29.098  14.761  13.333
55762W        W28187  21.602   1.447  12.290
55763W        W28188  29.728  29.521  14.382
55764W        W28189   5.403   3.977  11.134
55765W        W28190  16.932  18.494  12.536
55766W        W28191   6.212   6.644   3.919
55767W        W28192  36.644  35.853   2.313
55768W        W28193   4.254  23.216  12.893
55769W        W28194  38.448  17.227   3.444
55770W        W28195  15.249  36.628   0.702
55771W        W28196  40.984  27.766   0.559
55772W        W28197   1.351  11.118   0.740
55773W        W28198  34.933  11.854   4.566
55774W        W28199  35.978   9.939  13.677
55775W        W28200  29.899   3.752  11.114
55776W        W28201  39.036   2.506   2.777
55777W        W28202  39.888  10.135  13.876
55778W        W28203  36.350  43.584   0.413
55779W        W28204  41.989  22.655  13.957
55780W        W28205  44.289   1.414  11.215
55781W        W28206  26.000   2.373   3.610
55782W        W28207  31.310  28.677   1.775
55783W        W28208  39.811  23.952   3.147
55784W        W28209  37.312   7.681   2.445
55785W        W28210  22.580  26.174   2.867
55786W        W28211   7.804   3.319   4.138
55787W        W28212  16.014   4.893  13.068
55788W        W28213  28.951  11.663   2.417
55789W        W28214  40.084  12.619  14.863
55790W        W28215  28.387  41.994  12.463
55791W        W28216   5.614  25.056  13.410
55792W        W28217   0.864  27.736   4.196
55793W        W28218  13.234  32.507   1.671
55794W        W28219  38.925  36.712  11.219
55795W        W28220  30.907   8.452  12.539
55796W        W28221  36.409  37.643  13.808
55797W        W28222  18.695   9.811   1.290
55798W        W28223  37.610  19.530   2.460
55799W        W28224  43.511   5.377   2.591
55800W        W28225  14.693  35.975  11.568
55801W        W28226  25.268   5.811  10.666
55802W        W28227  40.808  20.625   4.364
55803W        W28228  43.807  18.286   3.253
55804W        W28229  10.335  29.741  11.249
55805W        W28230   2.816   5.182  12.422
55806W        W28231  28.207  29.732   0.365
55807W        W28232  22.985  39.947   2.394
55808W        W28233  28.218  35.160   3.705
55809W        W28234  43.958  10.324  12.666
55810W        W28235  18.675  21.074  10.916
55811W        W28236  24.657  44.487  10.445
55812W        W28237   8.854  14.854  11.924
55813W        W28238   9.694  14.624   3.256
55814W        W28239   8.899  43.325  14.347
55815W        W28240  36.159  26.542   1.452
55816W        W28241  22.478  43.820   0.517
55817W        W28242   1.435  10.764   4.139
55818W        W28243  12.378  22.316   1.475
55819W        W28244  40.891  34.268   3.589
55820W        W28245  44.221  39.790   4.482
55821W        W28246  11.853  13.793   3.837
55822W        W28247  20.441  34.932   1.153
55823W        W28248  33.879  40.056  14.398
55824W        W28249  19.617  16.756   0.831
55825W        W28250   2.310  24.256  14.847
55826W        W28251  32.846  21.798  12.335
55827W        W28252  28.972  13.867   3.666
55828W        W28253   5.674  29.240  14.997
55829W        W28254  13.523   7.785   0.624
55830W        W28255  28.232  44.254  14.344
55831W        W28256  12.924  25.750  13.224
55832W        W28257  35.085  33.131   3.224
55833W        W28258  22.987  42.841   2.249
55834W        W28259  23.135  32.375   1.323
55835W        W28260   9.776  29.196   1.870
55836W        W28261  36.928   6.172   1.727
55837W        W28262  29.516  22.423   4.528
55838W        W28263   7.884   5.868  12.331
55839W        W28264  34.104  15.636  12.079
55840W        W28265  28.113  19.323  13.058
55841W        W28266   7.143  32.653   0.690
55842W        W28267  22.085  42.170  12.042
55843W        W28268  22.170  29.348  12.397
55844W        W28269  25.774  29.430   2.544
55845W        W28270  40.849  36.712  12.894
55846W        W28271  20.651  36.001   0.994
55847W        W28272   2.702  34.834   0.811
55848W        W28273  24.431   0.789   4.554
55849W        W28274  11.464  25.524   0.909
55850W        W28275  26.580  15.561  11.674
55851W        W28276  10.530  33.861   4.590
55852W        W28277   0.470  44.749   2.547
55853W        W28278   6.872  34.418  12.155
55854W        W28279  27.731  11.199   0.871
55855W        W28280  17.850  23.538   2.745
55856W        W28281  31.963   0.751   4.583
55857W        W28282  39.120  17.533   3.931
55858W        W28283  26.110   3.292  14.227
55859W        W28284  21.020  23.077   1.034
55860W        W28285  33.333  38.392   4.639
55861W        W28286  32.143  27.565   2.769
55862W        W28287  24.074   3.450  10.016
55863W        W28288  41.802  41.951  13.975
55864W        W28289   1.453  30.639   3.832
55865W        W28290  19.710  29.959  13.361
55866W        W28291  32.355   9.317   0.794
55867W        W28292  27.551   7.202  12.059
55868W        W28293  20.565  32.597   3.255
55869W        W28294  43.820  19.158  11.106
55870W        W28295  30.195  14.279  13.353
55871W        W28296   3.223  39.145   0.193
55872W        W28297  27.556  25.793  10.568
55873W        W28298  41.209  20.157  12.912
55874W        W28299  24.079  32.205  11.985
55875W        W28300  29.827   0.858   2.098
55876W        W28301  39.539  21.106  11.964
55877W        W28302  26.831  28.546  13.465
55878W        W28303  32.975   4.934   1.314
55879W        W28304  30.465  27.005  14.698
55880W        W28305  35.795   4.843   0.296
55881W        W28306  23.064  18.339  12.436
55882W        W28307   2.546   1.133  11.839
55883W        W28308  24.529  33.640   1.304
55884W        W28309  33.335  29.984   1.320
55885W        W28310  41.021  13.772  10.737
55886W        W28311  35.641   1.855   1.728
55887W        W28312  24.429  41.398   4.584
55888W        W28313  15.828  38.119  10.376
55889W        W28314  13.005  18.037  13.523
55890W        W28315  12.759  42.478   4.460
55891W        W28316  32.494  15.837   3.513
55892W        W28317  42.682  42.260  11.594
55893W        W28318  43.024   0.972  12.412
55894W        W28319  23.588   5.822   3.589
55895W        W28320  25.001  39.978  13.411
55896W        W28321  41.304  43.459   2.416
55897W        W28322  33.140  34.952  13.213
55898W        W28323  14.696  23.495   0.844
55899W        W28324  31.797  27.156   2.803
55900W        W28325  31.000  10.352  12.390
55901W        W28326  22.222  22.447   2.374
55902W        W28327  17.054  23.745  10.595
55903W        W28328  20.807  16.059   0.827
55904W        W28329   7.092   5.889   3.953
55905W        W28330  24.122   9.179   0.852
55906W        W28331   9.013  24.087  11.179
55907W        W28332   5.936  30.565   1.791
55908W        W28333  13.400   5.935   1.933
55909W        W28334  42.667   9.286  13.304
55910W        W28335  24.006   6.663   4.298
55911W        W28336   6.946   4.463  12.422
55912W        W28337   1.649  27.800  14.181
55913W        W28338  32.439  42.121   3.097
55914W        W28339  28.657  25.447  12.563
55915W        W28340  20.657   3.799   0.828
55916W        W28341  16.644  31.514   1.596
55917W        W28342   0.783  23.417   4.800
55918W        W28343  16.388  28.570  13.468
55919W        W28344  36.956  30.037   3.196
55920W        W28345  25.263  35.622  11.974
55921W        W28346  20.985  38.027   3.256
55922W        W28347  40.307  20.227   0.877
55923W        W28348  44.679  20.579   1.037
55924W        W28349  10.211  18.866  11.992
55925W        W28350  36.487  44.793   1.833
55926W        W28351  28.070  20.591  14.323
55927W        W28352  10.794  24.538  14.109
55928W        W28353  10.949   9.177  14.491
55929W        W28354  24.104  20.901   3.711
55930W        W28355   7.803  11.146  13.389
55931W        W28356   3.970  42.589  10.276
55932W        W28357  18.536  26.568   3.079
55933W        W28358  11.728   8.415  14.879
55934W        W28359  11.575  42.849  10.862
55935W        W28360  29.293  35.561   2.686
55936W        W28361   3.374  36.619  13.955
55937W        W28362   2.869  40.361   2.195
55938W        W28363  16.257  18.811   4.224
55939W        W28364   6.838  30.516   4.102
55940W        W28365  38.852  33.500   1.399
55941W        W28366  42.524  28.605  12.948
55942W        W28367   7.423  34.617  10.983
55943W        W28368  35.538  10.385  12.485
55944W        W28369   9.495   1.753   1.593
55945W        W28370  42.814  40.061  11.584
55946W        W28371  35.505   1.532   3.626
55947W        W28372  39.093  39.016   4.092
55948W        W28373  31.699  11.332   3.374
55949W        W28374  16.236  43.665  11.213
55950W        W28375  40.992  42.918  14.755
55951W        W28376  37.467  23.445   2.451
55952W        W28377   6.350  25.317   4.085
55953W        W28378  43.771  13.683   0.784
55954W        W28379  25.581  26.937  12.447
55955W        W28380   7.267  43.876  14.473
55956W        W28381  33.493  27.038   3.314
55957W        W28382  39.032  24.160   2.862
55958W        W28383  18.600  21.825   1.244
55959W        W28384  12.758  36.883  12.760
55960W        W28385  13.663   7.714   3.748
55961W        W28386  13.985   5.268   0.780
55962W        W28387  30.050   6.612  13.557
55963W        W28388   7.756  15.417   4.144
55964W        W28389  37.741  32.785  13.663
55965W        W28390   5.012  22.755  14.212
55966W        W28391  24.554  35.265  10.750
55967W        W28392  12.664  28.174  11.573
55968W        W28393  36.952  44.063   1.830
55969W        W28394  24.975  18.720   2.200
55970W        W28395  35.932  30.460  11.528
55971W        W28396  17.736   7.276   4.290
55972W        W28397  29.549   2.233   4.733
55973W        W28398   7.360   6.961  13.808
55974W        W28399  28.106  23.094  14.632
55975W        W28400  23.729  30.275  14.444
55976W        W28401  38.532  13.175   2.634
55977W        W28402  17.088  28.010  13.585
55978W        W28403   0.584  15.006  11.463
55979W        W28404  30.435  43.003  11.684
55980W        W28405   4.712  15.127   5.129
55981W        W28406   5.163  21.082  13.599
55982W        W28407  39.023   9.607  12.161
55983W        W28408  15.335  14.455  11.297
55984W        W28409  22.674  29.143  13.991
55985W        W28410  28.824  26.081   3.566
55986W        W28411  22.186  11.375   5.021
55987W        W28412   4.398   8.837  10.914
55988W        W28413  16.156   8.352  12.481
55989W        W28414   2.792  31.064   2.863
55990W        W28415   0.926   8.403  13.821
55991W        W28416  10.730  15.667  10.218
55992W        W28417  40.088  43.216  13.418
55993W        W28418  36.569  17.825   4.176
55994W        W28419  42.860  29.416  14.600
55995W        W28420  40.942  17.857  14.509
55996W        W28421  33.978  17.062  10.419
55997W        W28422  35.772   2.367   1.835
55998W        W28423  23.945  31.975   2.654
55999W        W28424  36.631   5.700   3.968
56000W        W28425  34.959  18.656   3.772
56001W        W28426  12.238  31.172   2.133
56002W        W28427  43.327   7.077  13.026
56003W        W28428   0.723  23.157  11.592
56004W        W28429   4.973   4.036   0.980
56005W        W28430   2.940   9.216   1.501
56006W        W28431  24.820  27.006  13.249
56007W        W28432  26.735   9.163  11.628
56008W        W28433  19.093  40.818  13.288
56009W        W28434  38.511   0.299   0.658
56010W        W28435   9.891  19.140   3.674
56011W        W28436  14.690  31.419   2.724
56012W        W28437  43.494  32.377  14.842
56013W        W28438  31.643  37.348  14.374
56014W        W28439  21.861  41.990   4.273
56015W        W28440  24.274   4.927  14.955
56016W        W28441  33.350   3.296   4.535
56017W        W28442   9.982  22.574  12.439
56018W        W28443   6.365  43.553   2.328
56019W        W28444  15.580  37.328  11.123
56020W        W28445  38.595  33.430  13.070
56021W        W28446  19.556  30.170  12.011
56022W        W28447  31.449   8.935   1.406
56023W        W28448  15.568  17.334  12.531
56024W        W28449  39.396  14.296   1.375
56025W        W28450   2.337  40.250   4.866
56026W        W28451  27.964  28.552   2.787
56027W        W28452   6.134   1.192   0.319
56028W        W28453   4.616  17.565  10.950
56029W        W28454  15.624  21.139   2.452
56030W        W28455   0.361  30.577   0.327
56031W        W28456   9.560  37.154  14.886
56032W        W28457  34.163  31.067   4.162
56033W        W28458  28.746  13.253   2.324
56034W        W28459   8.520  29.494  11.986
56035W        W28460  12.256  11.126  10.671
56036W        W28461   8.683  26.089   3.359
56037W        W28462  11.244  29.442   1.385
56038W        W28463  21.012  12.087   0.595
56039W        W28464  14.127   1.955  11.909
56040W        W28465  21.996   6.200  14.796
56041W        W28466  24.481  20.623  12.336
56042W        W28467   6.686   3.968  13.986
56043W        W28468  12.069  14.716  14.905
56044W        W28469   0.632  18.320   4.856
56045W        W28470  10.842  23.765  11.018
56046W        W28471  10.683  32.363  10.327
56047W        W28472   6.538  11.847   9.886
56048W        W28473   8.674  25.300  10.932
56049W        W28474  24.640  13.311   4.675
56050W        W28475  26.742  11.795   1.093
56051W        W28476  10.936  31.177  12.231
56052W        W28477   0.307   6.679  13.310
56053W        W28478  17.809  32.131   4.187
56054W        W28479  36.809  20.215  13.938
56055W        W28480  12.606  33.389  13.415
56056W        W28481  25.032  26.581  13.517
56057W        W28482   5.858   4.451   4.127
56058W        W28483  38.858   2.345  13.482
56059W        W28484  34.730  26.712   1.044
56060W        W28485  31.869  27.255  14.056
56061W        W28486   8.595  30.472  12.315
56062W        W28487  39.052   0.456  13.902
56063W        W28488   0.773  11.381  11.995
56064W        W28489  30.570  43.909   3.550
56065W        W28490   4.471  37.952  12.129
56066W        W28491   4.768  19.086  13.603
56067W        W28492  17.289  12.083  10.680
56068W        W28493  11.214   4.907  12.045
56069W        W28494  42.804  38.229   4.112
56070W        W28495  24.255  34.788  11.053
56071W        W28496   4.332  34.610   4.068
56072W        W28497  10.946  17.665   1.800
56073W        W28498   9.208  30.332  11.118
56074W        W28499  35.204  28.461   1.838
56075W        W28500   8.437  42.520  11.948
56076W        W28501  39.896  29.347   0.772
56077W        W28502  40.311   2.556   4.177
56078W        W28503  20.054  32.893  13.899
56079W        W28504   3.651  42.119  13.573
56080W        W28505  14.435  33.153  14.907
56081W        W28506   2.125  24.090   1.850
56082W        W28507  35.773  29.964  11.641
56083W        W28508   7.880   9.688   2.270
56084W        W28509   8.412  15.727  11.608
56085W        W28510  31.934  39.731   3.217
56086W        W28511   4.335  40.581   3.393
56087W        W28512  11.377   0.234   2.221
56088W        W28513   0.968  17.549   3.282
56089W        W28514   8.183  18.813   3.797
56090W        W28515  14.507  31.118   0.718
56091W        W28516   9.857  25.646   3.629
56092W        W28517  30.792   1.871   2.291
56093W        W28518  41.590   3.907   1.428
56094W        W28519  35.014  22.119   1.782
56095W        W28520   6.890   3.227   4.261
56096W        W28521  37.943  35.529   0.908
56097W        W28522   4.860  13.781   2.481
56098W        W28523   6.988  44.401  13.307
56099W        W28524  17.201  44.379   0.342
56100W        W28525  16.111  39.934   0.075
56101W        W28526  15.020  40.921  11.789
56102W        W28527  39.308  42.949  12.791
56103W        W28528  37.004  34.536  10.735
56104W        W28529   6.275  32.353   2.893
56105W        W28530   4.318  21.088  14.713
56106W        W28531  35.370  43.165  13.764
56107W        W28532  34.943  17.018  12.523
56108W        W28533  44.521  19.368   4.231
56109W        W28534  32.966  40.094   3.339
56110W        W28535   6.647  26.131  14.518
56111W        W28536  27.483  22.459  12.595
56112W        W28537  26.539  10.787   0.679
56113W        W28538   8.872   9.895  12.120
56114W        W28539  44.986   9.196   4.122
56115W        W28540  11.185   9.357   0.992
56116W        W28541  39.431  34.500  13.973
56117W        W28542  21.930  35.741  14.065
56118W        W28543  25.833  11.645   4.637
56119W        W28544  17.597   6.420  14.285
56120W        W28545  40.471   1.926   1.463
56121W        W28546  39.833  20.075  11.631
56122W        W28547  27.142  14.158  10.637
56123W        W28548   7.217   1.377  12.863
56124W        W28549  11.177  17.737   2.266
56125W        W28550  34.413   4.656  14.537
56126W        W28551  16.349  17.719  12.926
56127W        W28552  24.738   8.261   3.820
56128W        W28553  28.033  31.407   2.467
56129W        W28554   8.787  15.987   3.560
56130W        W28555  23.155  32.158   3.637
56131W        W28556  29.168   3.191   2.272
56132W        W28557  14.544   8.377  11.145
56133W        W28558   1.476   8.085  13.044
56134W        W28559  20.204  37.867  12.448
56135W        W28560  44.960  34.614  14.231
56136W        W28561  28.590  20.335  10.745
56137W        W28562  37.468  25.499   4.467
56138W        W28563  11.989  25.043   4.485
56139W        W28564  31.917  18.289  10.627
56140W        W28565  20.841  40.039  11.471
56141W        W28566  15.329  13.805   1.859
56142W        W28567  11.816  21.221  10.767
56143W        W28568  23.730   6.206   4.877
56144W        W28569   1.256   8.790   2.484
56145W        W28570   0.579  25.426   3.948
56146W        W28571  32.333   3.359   4.766
56147W        W28572   3.806  12.070   1.133
56148W        W28573  39.209  15.249   3.108
56149W        W28574  30.617  38.714   4.287
56150W        W28575  37.974  28.545   0.813
56151W        W28576   7.689  37.344   2.834
56152W        W28577  13.691  33.194  14.363
56153W        W28578  30.358   4.477   0.855
56154W        W28579  25.746  13.159   4.822
56155W        W28580  37.768  24.539   4.668
56156W        W28581  31.896  10.355   0.757
56157W        W28582  31.996  39.216   3.206
56158W        W28583  32.944  32.405  11.994
56159W        W28584  31.540  20.588  10.826
56160W        W28585  30.574  33.104  13.283
56161W        W28586  39.981   4.892   0.544
56162W        W28587  31.211  23.619   3.183
56163W        W28588   4.249  12.431   4.415
56164W        W28589  19.323  43.366   3.776
56165W        W28590  34.476  19.295  13.488
56166W        W28591  29.250  42.884  14.935
56167W        W28592  23.683  16.883   2.469
56168W        W28593  19.041  27.627  11.904
56169W        W28594  12.289  26.271  13.490
56170W        W28595   2.887  13.119  13.838
56171W        W28596  24.260  31.039  10.613
56172W        W28597   6.357  29.129   2.244
56173W        W28598  28.132  43.224  12.793
56174W        W28599  44.347  30.409   3.577
56175W        W28600  35.801  21.160  14.385
56176W        W28601   2.993  17.201   2.795
56177W        W28602  36.144  24.381  10.652
56178W        W28603   2.353  29.934  13.162
56179W        W28604  27.549  44.501   3.127
56180W        W28605   5.231   9.687   3.324
56181W        W28606  14.772  19.818   0.894
56182W        W28607   9.629   4.877  11.228
56183W        W28608  33.151  23.673  11.061
56184W        W28609  11.190  35.892   3.250
56185W        W28610   5.590  36.645   4.636
56186W        W28611  24.645  11.842  12.642
56187W        W28612  44.474  34.126   4.125
56188W        W28613  34.960  22.940  14.651
56189W        W28614   4.291  41.974  12.924
56190W        W28615  23.612  16.720   1.512
56191W        W28616   3.022  24.568   0.467
56192W        W28617  22.694  16.613   4.612
56193W        W28618  37.058  41.010  13.826
56194W        W28619  39.729  17.552   1.651
56195W        W28620  42.892  33.365  13.796
56196W        W28621   5.312  34.111   0.302
56197W        W28622  18.465  16.117   1.015
56198W        W28623   2.301   8.701  12.862
56199W        W28624   3.517  42.820   2.246
56200W        W28625  33.455  15.138  13.855
56201W        W28626  22.895   2.234  12.513
56202W        W28627  44.376  23.260  12.832
56203W        W28628  39.778  30.185  13.672
56204W        W28629   8.803  43.007  14.803
56205W        W28630  18.694   6.148  10.386
56206W        W28631  24.426  11.801  10.736
56207W        W28632   5.007  22.153   4.708
56208W        W28633   3.061  34.168  11.204
56209W        W28634   5.276   5.762   2.995
56210W        W28635   0.985  32.667   4.725
56211W        W28636   0.792   3.545  13.573
56212W        W28637  32.928  20.249   0.682
56213W        W28638  27.603  40.006  11.379
56214W        W28639   3.441  39.580  13.745
56215W        W28640  12.723  23.448  13.606
56216W        W28641   5.159  23.116   1.415
56217W        W28642   9.762  29.379  10.639
56218W        W28643  38.549   6.589   3.803
56219W        W28644  34.169   3.144   2.200
56220W        W28645  17.210   2.727  14.985
56221W        W28646   3.361  23.552  14.797
56222W        W28647  34.450  27.400  14.836
56223W        W28648  19.188   5.880   0.275
56224W        W28649  28.491  18.139  10.785
56225W        W28650  17.182  18.284  14.361
56226W        W28651   6.220  19.766  12.715
56227W        W28652  10.305   9.882   0.980
56228W        W28653  30.129  20.724   4.560
56229W        W28654  26.547  26.379   0.254
56230W        W28655  43.060  27.541   3.316
56231W        W28656  24.247  28.774   1.453
56232W        W28657  28.896  33.266   4.111
56233W        W28658  18.059   5.128  14.269
56234W        W28659  40.548  35.067   1.168
56235W        W28660  31.093   5.335  11.026
56236W        W28661  23.521  12.745  11.113
56237W        W28662   5.161  14.619   0.969
56238W        W28663  31.358   8.432  13.354
56239W        W28664  20.998  15.025   3.980
56240W        W28665   3.450  16.250   1.835
56241W        W28666  15.852  26.996  14.952
56242W        W28667  10.654   9.187  12.766
56243W        W28668  22.222  24.206   1.308
56244W        W28669   6.194  37.473   4.761
56245W        W28670  13.288   1.021   4.774
56246W        W28671  20.159  33.905   3.674
56247W        W28672  26.922  29.067  11.926
56248W        W28673  21.608  44.979  11.625
56249W        W28674  11.649  22.770   3.270
56250W        W28675  31.893  23.593   1.670
56251W        W28676  25.727  42.317   3.119
56252W        W28677  38.340  40.350  12.974
56253W        W28678  38.562  44.289   3.087
56254W        W28679  29.944  17.419   1.631
56255W        W28680  13.341   7.312  10.238
56256W        W28681   0.980  21.580  10.736
56257W        W28682  12.578  29.618  10.609
56258W        W28683  25.061  28.878   1.782
56259W        W28684   1.415  16.958   1.998
56260W        W28685   8.957   0.768  11.774
56261W        W28686  15.332  13.912  13.197
56262W        W28687  20.474   4.916  12.528
56263W        W28688   3.502  11.476  13.436
56264W        W28689   1.820  40.902   4.395
56265W        W28690  44.806   1.583   4.265
56266W        W28691   6.373  38.802  10.154
56267W        W28692   9.714  21.219   3.124
56268W        W28693  35.113  31.428  13.848
56269W        W28694  22.417   7.980  11.488
56270W        W28695  12.640  15.257  12.906
56271W        W28696  39.420   6.974  11.085
56272W        W28697   2.631  20.266  13.461
56273W        W28698   5.227  15.765  10.307
56274W        W28699  42.853  21.544   0.876
56275W        W28700  33.117  14.327   0.337
56276W        W28701  11.768  40.588  12.829
56277W        W28702  43.349   6.378   1.217
56278W        W28703   4.968   3.348  12.959
56279W        W28704  11.921  26.127   3.128
56280W        W28705   6.373   9.744   2.389
56281W        W28706   3.941   2.150   3.281
56282W        W28707  14.668  21.538   4.647
56283W        W28708  12.427   6.090  12.392
56284W        W28709   7.599   0.353  12.498
56285W        W28710  30.561  35.434  14.316
56286W        W28711  24.590  10.948  12.852
56287W        W28712  20.486  36.308  14.891
56288W        W28713   0.318  20.724  14.237
56289W        W28714  36.146  36.763   3.962
56290W        W28715   6.404  41.901  11.062
56291W        W28716  24.055  11.347   1.982
56292W        W28717  23.715  20.299  12.114
56293W        W28718  27.930  41.010   3.908
56294W        W28719  18.647   7.806   2.211
56295W        W28720  38.420  24.609   9.776
56296W        W28721  22.127  24.642  14.512
56297W        W28722  18.462  30.568  14.801
56298W        W28723  34.625  10.481  11.145
56299W        W28724  27.357  20.244   3.605
56300W        W28725  21.767  28.712  12.142
56301W        W28726  10.167   4.068  11.854
56302W        W28727  20.171  18.264   4.498
56303W        W28728  27.367  34.413  10.908
56304W        W28729   1.456  37.838  14.940
56305W        W28730  24.177  29.651   1.396
56306W        W28731  42.937  18.386   1.355
56307W        W28732  27.500   5.953   3.763
56308W        W28733   2.393  20.129   0.044
56309W        W28734  41.318   9.355  13.140
56310W        W28735   8.635  30.474   1.284
56311W        W28736  43.159  44.461   2.711
56312W        W28737  36.179   2.624  14.281
56313W        W28738  43.969  39.892   0.924
56314W        W28739   4.711  40.862  11.650
56315W        W28740   7.229  30.976  14.855
56316W        W28741  21.451   5.634   1.703
56317W        W28742   0.882  12.658  12.586
56318W        W28743  22.378  14.606   4.975
56319W        W28744  41.363  30.151  11.512
56320W        W28745   0.425  13.594  10.697
56321W        W28746  19.120  18.734   3.683
56322W        W28747  30.374   7.224  12.265
56323W        W28748  39.403   9.948  13.784
56324W        W28749  37.064  25.248  13.355
56325W        W28750  19.230   7.168  13.044
56326W        W28751  40.296  22.297   3.733
56327W        W28752   3.757  24.046   1.372
56328W        W28753  24.665   6.261  12.956
56329W        W28754  22.334   0.324  11.142
56330W        W28755   9.276  28.248  14.520
56331W        W28756   9.566  41.974  14.750
56332W        W28757   5.394  27.197  11.509
56333W        W28758  31.575  35.988   0.750
56334W        W28759  40.626  13.914   1.132
56335W        W28760  21.995  13.026  14.523
56336W        W28761  19.352   6.371  13.431
56337W        W28762  34.144  39.898  13.400
56338W        W28763  18.722  32.547   1.817
56339W        W28764  13.277  18.433  12.617
56340W        W28765  24.669  41.786   0.473
56341W        W28766  37.797   8.301  14.776
56342W        W28767  30.699  24.532   3.247
56343W        W28768  39.215  39.911   3.942
56344W        W28769  35.964  31.741   2.981
56345W        W28770  30.489  40.650  12.032
56346W        W28771   9.222  27.901   1.457
56347W        W28772   8.568  37.638   0.380
56348W        W28773  16.234  29.481  12.592
56349W        W28774  10.717  13.160  10.686
56350W        W28775  32.461  24.731  12.916
56351W        W28776  36.087  24.532  11.131
56352W        W28777   2.199   2.018  11.100
56353W        W28778  36.418   6.715  11.057
56354W        W28779  22.035  21.489  10.749
56355W        W28780   8.285  22.705  13.785
56356W        W28781  11.896  20.325  12.856
56357W        W28782  21.052  43.741  14.365
56358W        W28783   0.467  26.280  13.490
56359W        W28784  16.263  20.054  11.175
56360W        W28785  23.079  41.241   2.252
56361W        W28786  14.576  32.949   3.818
56362W        W28787  38.044  42.835  10.255
56363W        W28788  39.591  33.127  10.775
56364W        W28789  11.634  41.886  13.806
56365W        W28790  18.147  10.220  13.442
56366W        W28791  19.039   1.732   3.200
56367W        W28792  41.822  28.296  14.452
56368W        W28793  42.207  37.094   0.921
56369W        W28794  12.507  29.180  11.468
56370W        W28795  44.821  16.663   2.825
56371W        W28796  33.507  27.378   2.913
56372W        W28797   9.705  35.811   0.844
56373W        W28798  29.840  16.632  14.447
56374W        W28799  43.440  29.348  12.553
56375W        W28800  39.766   5.693   0.797
56376W        W28801  20.172  10.669  11.511
56377W        W28802  35.848  10.111  12.157
56378W        W28803   8.865   5.237   4.563
56379W        W28804  16.512  19.540  11.349
56380W        W28805   6.660  36.360  12.422
56381W        W28806  27.734  29.074   3.596
56382W        W28807  42.805  21.629  11.611
56383W        W28808  12.659  10.392   0.367
56384W        W28809   5.372  26.523   0.500
56385W        W28810  20.258  34.285  12.455
56386W        W28811  28.477  28.042   4.585
56387W        W28812  36.918  10.830   0.858
56388W        W28813  11.891  24.041   1.523
56389W        W28814  37.955  36.803   4.152
56390W        W28815  41.510  29.416  13.350
56391W        W28816  43.060  29.232   0.792
56392W        W28817  27.713  29.922   0.419
56393W        W28818  28.915  36.482   3.086
56394W        W28819   5.732  33.428   1.256
56395W        W28820  26.702  25.662   0.913
56396W        W28821  10.608  40.978   1.861
56397W        W28822  12.278  16.761  14.097
56398W        W28823  39.003  21.764   0.724
56399W        W28824  42.914   7.010   3.631
56400W        W28825  25.554  44.489  13.848
56401W        W28826   1.500  20.374   4.063
56402W        W28827  33.152  20.825  13.267
56403W        W28828  26.782  22.525   4.103
56404W        W28829   4.815  17.818   0.334
56405W        W28830  43.936  35.596  12.642
56406W        W28831  18.112  29.712   4.116
56407W        W28832  20.979  40.099   1.375
56408W        W28833  40.686  42.411   1.105
56409W        W28834  34.553   6.760  12.073
56410W        W28835  40.562   3.421   4.549
56411W        W28836  41.085  17.328  14.509
56412W        W28837  39.541  31.039   2.533
56413W        W28838   8.264  38.899  13.901
56414W        W28839  36.122  30.954  13.280
56415W        W28840   6.478   5.905   1.471
56416W        W28841  15.712  44.734   1.294
56417W        W28842  35.342  38.825  12.862
56418W        W28843  33.493  40.760  10.794
56419W        W28844  28.906  28.869   2.809
56420W        W28845   9.088  33.208  13.699
56421W        W28846  24.071   7.343   4.672
56422W        W28847  44.873  19.557   2.620
56423W        W28848   1.891  39.300   0.448
56424W        W28849  19.306   9.457   2.309
56425W        W28850  30.004  21.058   0.334
56426W        W28851   4.364  34.024  10.569
56427W        W28852  12.183  18.862   1.907
56428W        W28853  31.256   4.294   2.744
56429W        W28854  32.555  15.106   0.512
56430W        W28855  34.649  30.445   1.346
56431W        W28856   2.902  34.174   0.056
56432W        W28857  38.596  31.957  10.520
56433W        W28858  14.739  39.922   3.064
56434W        W28859   1.526  35.401   0.359
56435W        W28860  25.556   7.680   0.628
56436W        W28861  17.026   8.433   2.377
56437W        W28862  35.949   7.266   0.072
56438W        W28863  16.071  41.938   4.145
56439W        W28864  29.408   2.998   0.881
56440W        W28865  30.999   9.769   1.430
56441W        W28866  10.356  30.882  13.961
56442W        W28867  19.490  23.244   3.291
56443W        W28868  40.077  25.530  12.615
56444W        W28869  22.981  37.898  10.568
56445W        W28870  12.253  39.640  10.759
56446W        W28871  14.780  11.657   1.802
56447W        W28872   9.711  11.900  13.319
56448W        W28873  11.302  20.619  14.266
56449W        W28874  20.720   3.442   0.406
56450W        W28875  10.950  29.866   1.240
56451W        W28876  17.501  17.652  13.345
56452W        W28877  32.355  40.937  13.529
56453W        W28878  15.316  23.825   4.578
56454W        W28879  40.740  28.392  14.072
56455W        W28880   6.212  37.878   4.161
56456W        W28881   2.334  37.383  10.414
56457W        W28882  34.651   1.358  12.426
56458W        W28883  13.283  24.962  10.481
56459W        W28884  11.157   3.750   4.437
56460W        W28885  23.298  23.129  11.126
56461W        W28886  34.861  32.297   1.305
56462W        W28887  41.908  41.556  14.309
56463W        W28888  44.363  22.834  13.102
56464W        W28889   8.626   5.121   0.745
56465W        W28890  15.046  22.645   1.816
56466W        W28891  26.739   4.959  14.919
56467W        W28892  15.719  12.193  14.849
56468W        W28893  26.046  41.491  11.192
56469W        W28894  15.071  34.489   2.113
56470W        W28895   4.823  44.198   3.282
56471W        W28896   5.018   8.363   4.634
56472W        W28897  14.093  16.588   0.876
56473W        W28898   5.791   2.094   1.808
56474W        W28899   8.329  36.004  14.042
56475W        W28900   7.806  23.267   0.591
56476W        W28901  41.489   8.577  14.195
56477W        W28902   6.272  12.897  13.931
56478W        W28903  18.219  44.993   4.551
56479W        W28904  34.343   8.277  12.345
56480W        W28905  25.626  22.240  14.391
56481W        W28906   4.812   7.680  13.995
56482W        W28907  37.321   0.054   1.233
56483W        W28908   2.917  16.055   3.172
56484W        W28909  19.723  16.866  14.032
56485W        W28910  10.158  29.409   4.660
56486W        W28911  12.621  25.090   1.475
56487W        W28912  10.740  24.864   3.403
56488W        W28913  21.566   9.785   4.037
56489W        W28914  40.323  29.110   1.400
56490W        W28915  18.665  33.216  13.864
56491W        W28916  14.739  39.122   1.742
56492W        W28917  18.525  42.914  13.870
56493W        W28918  32.402  31.695   0.032
56494W        W28919   0.773   6.688   4.254
56495W        W28920  17.814  40.071   0.901
56496W        W28921   3.318   1.515  13.924
56497W        W28922   7.072  28.122  14.215
56498W        W28923  24.726  25.887   3.799
56499W        W28924   8.727  13.232   2.277
56500W        W28925  41.487   7.345   3.716
56501W        W28926  15.348  25.433  14.970
56502W        W28927  32.620   6.125   4.239
56503W        W28928  34.574  25.092  12.059
56504W        W28929   7.722   6.103   4.133
56505W        W28930  14.897  26.136  14.437
56506W        W28931  10.778   5.412  10.371
56507W        W28932  10.781  24.667   4.436
56508W        W28933  15.975   2.876  14.443
56509W        W28934  34.568  44.413  11.229
56510W        W28935  22.140  16.462   0.427
56511W        W28936   5.995  37.381   4.283
56512W        W28937   8.831   5.757  12.713
56513W        W28938  37.114  10.537  13.044
56514W        W28939  28.952  43.854   1.918
56515W        W28940  40.917  22.660  13.908
56516W        W28941  24.469  26.161  12.082
56517W        W28942  41.290  33.072  14.401
56518W        W28943  23.215  34.378  14.234
56519W        W28944  19.629  43.246  14.210
56520W        W28945  14.380  34.525   3.131
56521W        W28946  39.125  41.785   2.369
56522W        W28947   5.543   0.247   3.715
56523W        W28948   5.245  11.149  11.492
56524W        W28949  24.978  37.476   3.730
56525W        W28950  23.199  15.670  14.551
56526W        W28951  25.960   0.037   2.245
56527W        W28952  33.108  15.118  10.494
56528W        W28953  28.885  35.863  12.547
56529W        W28954  16.593  24.530   3.303
56530W        W28955  19.727  37.889   0.067
56531W        W28956  25.017  12.007   1.979
56532W        W28957  42.455   7.730  11.109
56533W        W28958   1.964  43.382   0.730
56534W        W28959   9.460   1.677   3.751
56535W        W28960  38.529  12.464  11.073
56536W        W28961  34.645  11.600   3.851
56537W        W28962  32.150   7.110   3.050
56538W        W28963   8.389  34.056   0.356
56539W        W28964  23.532   9.871  11.875
56540W        W28965   6.713  44.770  13.543
56541W        W28966  13.276  43.912  12.049
56542W        W28967  35.021  39.874   1.953
56543W        W28968  26.004  32.048   3.062
56544W        W28969  13.848  28.127  13.377
56545W        W28970  19.132  42.594   3.917
56546W        W28971  27.159  27.564   2.854
56547W        W28972  40.326  38.478  11.890
56548W        W28973   4.476  16.592  11.034
56549W        W28974   3.051  29.881  13.408
56550W        W28975  23.072  20.824   4.301
56551W        W28976  17.996  21.458  11.659
56552W        W28977  38.117  25.191   1.494
56553W        W28978  37.297  12.112  14.019
56554W        W28979  23.716   6.302   3.326
56555W        W28980  38.998  22.676   2.692
56556W        W28981  30.095  20.758   1.694
56557W        W28982  27.843   4.657   1.367
56558W        W28983  31.898   0.943   0.832
56559W        W28984  42.508  29.269   4.029
56560W        W28985  37.210  33.647   2.927
56561W        W28986  44.807  38.013  13.839
56562W        W28987  14.573  30.925  13.884
56563W        W28988   0.378  24.931   1.195
56564W        W28989  41.012   3.244  11.174
56565W        W28990  43.832  11.219  14.109
56566W        W28991  23.022   2.955  13.774
56567W        W28992   1.891  27.643  10.484
56568W        W28993  43.893  12.758   4.349
56569W        W28994   5.710  37.376  12.060
56570W        W28995  38.136  33.581   3.149
56571W        W28996  20.250  40.521  14.308
56572W        W28997  18.023   3.752   3.771
56573W        W28998  39.245  21.745   0.221
56574W        W28999  34.051  38.506  12.838
56575W        W29000  26.161  36.427  12.381
56576W        W29001  10.538   3.754  10.090
56577W        W29002  28.921   4.921  13.987
56578W        W29003  32.074  27.927   4.123
56579W        W29004  33.110  11.577   0.843
56580W        W29005  34.940  36.345  14.258
56581W        W29006   8.844  21.307   1.698
56582W        W29007  42.056   1.491   0.583
56583W        W29008  35.008  32.373   4.559
56584W        W29009  44.053  27.644   3.285
56585W        W29010  38.418  43.406   2.544
56586W        W29011  33.018   8.235   4.415
56587W        W29012   6.251  29.365  13.341
56588W        W29013  22.477  25.046  10.524
56589W        W29014  24.133  20.236  12.467
56590W        W29015   8.726  24.246  10.768
56591W        W29016   5.804  36.325   4.184
56592W        W29017  43.386   6.955   3.399
56593W        W29018   0.951  24.113  12.048
56594W        W29019  39.830  14.341   4.521
56595W        W29020  17.692   0.183   1.442
56596W        W29021  34.361  20.280   0.783
56597W        W29022  31.136  30.161   0.384
56598W        W29023  39.060  11.542   3.132
56599W        W29024  24.969   8.940  12.826
56600W        W29025  10.271  27.467  13.348
56601W        W29026  19.551  33.185  11.944
56602W        W29027   1.464  37.334  12.388
56603W        W29028  29.030  41.338  13.769
56604W        W29029  32.467  13.334   0.956
56605W        W29030  30.505  42.984  11.172
56606W        W29031  26.400  36.509   4.782
56607W        W29032   6.894  14.626   4.651
56608W        W29033  31.139   8.410  11.009
56609W        W29034  17.115  20.219   3.639
56610W        W29035  42.256  35.482  13.982
56611W        W29036  15.965   9.842  14.841
56612W        W29037  42.829   3.242   3.144
56613W        W29038   4.333   4.110  13.011
56614W        W29039  23.306   2.400   2.828
56615W        W29040  14.213  37.369  13.896
56616W        W29041  20.188  30.886  12.968
56617W        W29042  19.036  21.000  12.022
56618W        W29043  11.773  14.185   1.456
56619W        W29044  29.017  44.310  12.693
56620W        W29045  16.100  41.844  14.600
56621W        W29046  24.594   6.707   4.167
56622W        W29047  16.067   0.477  14.384
56623W        W29048  29.461  30.211  12.876
56624W        W29049  19.992  38.471   3.209
56625W        W29050  31.939   4.323   2.814
56626W        W29051  33.625  16.080   2.921
56627W        W29052   8.224  13.984   2.298
56628W        W29053  36.071   7.947   4.540
56629W        W29054   1.520  23.733  14.519
56630W        W29055  21.914  26.173  13.875
56631W        W29056  41.402  19.804   5.161
56632W        W29057   0.848  25.525  13.452
56633W        W29058  38.099  34.041   0.524
56634W        W29059  39.589   0.733  10.308
56635W        W29060  14.837  14.693  12.046
56636W        W29061  33.394  33.546   3.987
56637W        W29062  33.150  14.222  10.432
56638W        W29063  24.637  24.692  13.810
56639W        W29064  20.183   4.906   3.219
56640W        W29065   4.899  19.591  10.349
56641W        W29066  26.053   2.882   3.859
56642W        W29067  36.504  24.584  14.244
56643W        W29068  38.923  17.303   0.254
56644W        W29069  13.731   4.768   2.716
56645W        W29070  18.168   0.989  13.532
56646W        W29071  11.867   1.941   2.068
56647W        W29072  12.833  32.076  14.093
56648W        W29073  16.328  38.855  11.727
56649W        W29074   8.286  35.088   3.784
56650W        W29075  15.729   6.762   3.297
56651W        W29076  21.124   3.676   4.628
56652W        W29077  28.191   5.269  13.882
56653W        W29078  25.944  15.161  14.818
56654W        W29079  21.575   3.417   4.195
56655W        W29080  29.003   7.861  10.746
56656W        W29081  27.825  14.885  11.117
56657W        W29082  30.168  43.595   3.724
56658W        W29083  19.170  23.958  14.296
56659W        W29084  36.095   1.577   1.769
56660W        W29085  15.361  20.522  14.430
56661W        W29086   8.670   5.420  12.349
56662W        W29087   5.266  31.929   1.246
56663W        W29088  39.547  34.419  10.755
56664W        W29089  34.486  35.994  12.927
56665W        W29090  27.703  27.532   4.672
56666W        W29091  35.447  39.807   1.671
56667W        W29092  41.299  29.472   0.811
56668W        W29093  40.394  43.889   1.955
56669W        W29094  18.793  40.884   1.300
56670W        W29095  14.514  30.779  11.210
56671W        W29096   7.581   3.541  13.827
56672W        W29097  43.344  16.524   4.585
56673W        W29098  18.784  39.576   3.316
56674W        W29099  44.520  13.113  10.515
56675W        W29100  11.791  11.699  11.371
56676W        W29101  16.798  38.797  14.073
56677W        W29102  24.555  21.660  13.823
56678W        W29103  23.229  13.287   3.677
56679W        W29104  44.693  34.977  12.888
56680W        W29105  37.045  30.560   1.836
56681W        W29106  18.296  13.134  13.019
56682W        W29107   3.451  30.650   2.175
56683W        W29108   7.900  13.049  12.439
56684W        W29109  19.580  36.328  11.663
56685W        W29110   2.321  12.123  11.081
56686W        W29111   9.936  12.236   3.252
56687W        W29112  12.170  16.071   2.376
56688W        W29113  16.068  15.574   1.842
56689W        W29114  30.352   6.613  11.928
56690W        W29115  19.249  29.419  12.602
56691W        W29116  43.512  28.458   1.095
56692W        W29117  31.911  19.543   2.354
56693W        W29118  24.279  11.174  11.080
56694W        W29119  39.292  26.183  12.981
56695W        W29120  38.513  17.539   4.386
56696W        W29121  44.573   2.659   0.942
56697W        W29122  33.047  35.576   4.580
56698W        W29123  18.757  39.366   3.843
56699W        W29124   8.857  26.350   1.147
56700W        W29125  33.865  32.064   5.031
56701W        W29126  26.029  29.824   3.664
56702W        W29127   7.259  21.237   0.743
56703W        W29128  16.131   5.001   4.698
56704W        W29129  13.791  15.078   1.451
56705W        W29130  37.466  33.335  10.511
56706W        W29131  30.417   3.864   0.392
56707W        W29132  44.906  39.825   3.363
56708W        W29133  26.941   3.328  13.485
56709W        W29134  36.424  40.937   4.168
56710W        W29135  20.955  44.374  12.595
56711W        W29136  23.324  17.756   2.881
56712W        W29137   1.979  41.451  13.159
56713W        W29138  19.612  36.944  10.754
56714W        W29139   6.661   8.579   0.457
56715W        W29140  38.973  35.824  13.005
56716W        W29141   8.984  12.550  14.704
56717W        W29142  20.662  34.670   0.749
56718W        W29143   7.716  36.245   2.061
56719W        W29144  21.144  32.198  12.579
56720W        W29145   0.361  17.813   2.483
56721W        W29146  18.026   7.294   2.892
56722W        W29147  29.204   5.472  13.958
56723W        W29148   2.382  21.533   0.224
56724W        W29149   1.026  13.117   3.369
56725W        W29150  20.727  40.540  14.030
56726W        W29151  34.153  39.868   2.720
56727W        W29152   2.747  28.480   3.306
56728W        W29153  36.475  27.994  14.315
56729W        W29154   3.054  10.102  13.517
56730W        W29155  28.247  12.370  10.729
56731W        W29156  24.292  43.404   4.476
56732W        W29157  29.728  10.108   3.820
56733W        W29158   7.377  26.561   1.957
56734W        W29159  23.603  24.973  14.313
56735W        W29160   4.735  12.289  14.670
56736W        W29161   2.920  14.569  14.812
56737W        W29162  13.581  30.874  12.895
56738W        W29163  13.604   6.913  14.493
56739W        W29164   3.800  25.614   1.162
56740W        W29165   2.925  24.601   2.772
56741W        W29166   6.449  43.339   4.140
56742W        W29167  31.903  19.582   9.840
56743W        W29168  35.184  28.481   2.407
56744W        W29169  22.647  34.558  10.637
56745W        W29170  28.922   0.312   4.156
56746W        W29171  44.983  17.561   0.951
56747W        W29172  27.030  42.503   1.437
56748W        W29173   3.387   9.672   0.366
56749W        W29174   6.175  22.194  12.018
56750W        W29175  39.455  26.149   2.860
56751W        W29176  28.617  11.350   1.770
56752W        W29177  13.762   1.124   3.578
56753W        W29178  22.385  44.962   0.819
56754W        W29179   2.167   2.135   2.497
56755W        W29180  13.047  34.814   1.180
56756W        W29181   9.292  27.306   4.536
56757W        W29182  25.544  16.719  10.957
56758W        W29183  26.941  22.128  13.168
56759W        W29184   2.176  16.079  11.543
56760W        W29185  21.198   2.250  12.568
56761W        W29186  28.301   2.805   2.321
56762W        W29187  31.374  26.011   4.792
56763W        W29188  17.041   1.425   5.245
56764W        W29189  11.402   0.010   1.735
56765W        W29190  43.002  24.020  13.561
56766W        W29191  27.845   5.493   0.906
56767W        W29192  10.386  29.586  13.052
56768W        W29193  13.226  40.060   4.644
56769W        W29194  44.576   0.665   3.325
56770W        W29195  37.458  17.347   3.323
56771W        W29196  31.386  18.674   4.835
56772W        W29197  11.214  41.068   4.081
56773W        W29198   6.086  13.735   0.312
56774W        W29199  43.210  43.914   3.377
56775W        W29200  32.552  23.170  10.872
56776W        W29201  40.121  23.939  11.132
56777W        W29202  13.654   2.727  14.776
56778W        W29203  32.653  12.071  13.415
56779W        W29204  26.719  22.534  11.905
56780W        W29205   3.648  23.218  12.710
56781W        W29206  27.074  27.725   1.154
56782W        W29207  33.827  12.143   1.942
56783W        W29208   6.453  26.422   2.083
56784W        W29209  22.053  11.695  10.372
56785W        W29210  42.859  37.097   2.428
56786W        W29211  22.515   3.124  14.403
56787W        W29212  30.419  13.536  13.994
56788W        W29213   3.701  28.728   2.214
56789W        W29214  40.219  27.611   0.087
56790W        W29215  34.029   8.840   4.748
56791W        W29216   0.747  37.921  14.907
56792W        W29217  26.254  31.332   1.329
56793W        W29218  18.109   2.772  10.711
56794W        W29219  42.016  29.092   1.888
56795W        W29220  19.040   1.352  11.081
56796W        W29221  12.570  28.984  13.143
56797W        W29222   3.884  15.635   0.994
56798W        W29223  41.119  39.102  13.909
56799W        W29224  19.607  36.320   2.735
56800W        W29225  11.334  26.068  13.779
56801W        W29226  15.513  20.716  13.961
56802W        W29227  14.330  35.017  12.659
56803W        W29228   5.678  39.501  13.427
56804W        W29229  12.109  35.340   3.753
56805W        W29230  35.494  21.695   3.100
56806W        W29231  17.700  40.924   1.970
56807W        W29232  13.137   5.727   0.265
56808W        W29233  17.023  36.283  12.399
56809W        W29234  37.901  32.666   0.418
56810W        W29235  12.292  17.543  12.093
56811W        W29236  18.267  44.299  14.958
56812W        W29237  31.379  16.187   0.997
56813W        W29238  43.823   8.222  12.333
56814W        W29239  10.107  35.120   9.942
56815W        W29240  13.794   2.982   4.844
56816W        W29241  32.863  14.291   0.785
56817W        W29242  39.823  22.999   2.875
56818W        W29243  38.388  41.515   3.255
56819W        W29244  11.369  20.500  11.658
56820W        W29245  21.633  18.535  13.515
56821W        W29246  31.889  11.881   1.343
56822W        W29247  26.019   2.429   4.127
56823W        W29248  28.168  25.023   0.783
56824W        W29249   1.315   5.342   2.916
56825W        W29250  13.320   9.857  12.558
56826W        W29251  37.168  29.688  12.498
56827W        W29252  39.831  40.006   3.183
56828W        W29253  17.329  19.531   4.759
56829W        W29254   5.764  30.291  12.099
56830W        W29255  11.314  29.312   3.892
56831W        W29256  25.142  28.704  11.590
56832W        W29257   3.871  36.661  14.925
56833W        W29258   4.454  14.016   5.157
56834W        W29259   2.916   4.242  13.798
56835W        W29260  37.397  23.709  10.821
56836W        W29261  33.030  11.305   2.877
56837W        W29262   0.386  22.901  12.927
56838W        W29263   3.302  19.059  11.957
56839W        W29264  42.311  12.802   3.176
56840W        W29265   4.398  10.885  11.041
56841W        W29266  31.095  34.779  10.708
56842W        W29267  31.057  40.922   1.319
56843W        W29268  16.411  16.302  12.428
56844W        W29269  37.920  11.291  10.655
56845W        W29270  24.084  26.073   2.755
56846W        W29271  27.561  40.022  10.371
56847W        W29272  26.521  21.571  11.632
56848W        W29273  25.479  12.752  13.483
56849W        W29274  44.184   6.379  11.488
56850W        W29275   7.806  32.199  12.114
56851W        W29276  26.446   5.297   0.928
56852W        W29277   8.518   8.544   2.785
56853W        W29278   0.459  24.427  13.892
56854W        W29279   7.423  41.951  13.449
56855W        W29280  24.438  10.589  13.630
56856W        W29281   1.253  40.629  14.465
56857W        W29282  35.337  27.489  10.999
56858W        W29283  38.838  26.018   2.276
56859W        W29284   6.260  38.126   1.756
56860W        W29285  26.115  38.253   2.600
56861W        W29286  34.125  13.052   1.330
56862W        W29287  13.884  26.704   2.714
56863W        W29288  38.875   7.214  14.806
56864W        W29289  43.553  19.098  11.581
56865W        W29290   3.642  39.044  12.120
56866W        W29291   6.272  33.908  13.705
56867W        W29292  32.097  41.883  12.080
56868W        W29293  17.110  24.572   1.428
56869W        W29294  28.157  14.080   2.396
56870W        W29295  13.278  20.828  11.930
56871W        W29296  10.956  29.943   2.189
56872W        W29297  26.541  20.564   4.980
56873W        W29298   0.487   6.669   2.302
56874W        W29299  28.555  35.833   1.192
56875W        W29300   1.418  19.750  12.343
56876W        W29301  17.683  28.575   3.043
56877W        W29302  33.527  42.499  10.391
56878W        W29303  26.627  11.232   3.272
56879W        W29304   1.665  41.799   2.798
56880W        W29305  39.938  23.289   1.439
56881W        W29306   8.637  38.885  10.620
56882W        W29307  17.218  43.722   3.406
56883W        W29308   9.361  41.289   0.376
56884W        W29309  29.841  22.758  12.939
56885W        W29310  36.400  26.777   1.855
56886W        W29311  30.103   4.248   4.451
56887W        W29312  18.457  29.174  13.915
56888W        W29313  20.959  22.174  11.179
56889W        W29314  29.086  35.117   3.743
56890W        W29315  28.246  33.501  10.755
56891W        W29316  43.537  28.708  14.752
56892W        W29317  12.401   4.148  14.714
56893W        W29318  21.676   0.319  13.416
56894W        W29319   5.164   8.633   5.190
56895W        W29320  14.637   4.644  12.971
56896W        W29321  10.718  40.783  12.071
56897W        W29322  29.075  11.103   1.693
56898W        W29323  24.809   2.024  11.639
56899W        W29324   2.281  20.564  12.104
56900W        W29325  23.449  13.694  12.593
56901W        W29326  14.343  35.385  14.923
56902W        W29327  14.831  42.657  12.580
56903W        W29328  39.932  26.052  14.826
56904W        W29329  18.032   8.843   3.775
56905W        W29330  18.783  23.028  12.890
56906W        W29331  35.897  43.340   1.259
56907W        W29332   6.463  17.873  12.987
56908W        W29333  13.308  19.889   4.966
56909W        W29334  26.305  36.677  14.795
56910W        W29335  21.228   7.919   3.436
56911W        W29336  35.335  40.735  14.417
56912W        W29337  37.836  14.341   1.239
56913W        W29338  41.332   0.315  12.020
56914W        W29339  40.449  11.840  12.528
56915W        W29340  12.774  32.637   0.907
56916W        W29341  20.567  22.719   2.375
56917W        W29342  40.923   9.067   3.748
56918W        W29343  36.593  42.261   3.675
56919W        W29344  17.008  40.783   3.383
56920W        W29345  29.639  19.642   1.320
56921W        W29346  43.127   2.966  13.369
56922W        W29347   8.386  30.179  12.746
56923W        W29348  23.090  41.844   0.433
56924W        W29349  29.113   8.909   2.610
56925W        W29350  29.198  22.333  13.335
56926W        W29351  43.101  33.618  13.373
56927W        W29352  13.830  32.939   0.734
56928W        W29353  17.699  10.350   4.600
56929W        W29354  40.318  15.187  14.737
56930W        W29355  29.338  38.446   1.838
56931W        W29356   6.151  25.653  11.617
56932W        W29357  44.601  11.566  13.992
56933W        W29358  39.366  31.990  14.489
56934W        W29359  42.387  35.496   1.851
56935W        W29360  26.412  35.083  14.309
56936W        W29361  30.126  17.234  10.259
56937W        W29362   0.866   2.440  12.839
56938W        W29363  28.897   6.752   3.576
56939W        W29364  22.155  22.706  11.446
56940W        W29365  23.848  29.574  13.952
56941W        W29366  25.235  38.304   2.459
56942W        W29367  14.792   9.939   2.133
56943W        W29368  14.371   6.661   4.338
56944W        W29369  27.134  30.196  13.510
56945W        W29370  15.312  13.413   4.344
56946W        W29371  38.561  19.733  13.461
56947W        W29372   2.485  15.040   1.013
56948W        W29373  34.746  14.342   1.906
56949W        W29374  40.370  17.391   2.195
56950W        W29375  30.349  23.674   4.969
56951W        W29376  30.036  12.099  11.051
56952W        W29377  31.547  26.596   3.618
56953W        W29378   7.269  44.200   2.368
56954W        W29379  28.690  38.262   4.165
56955W        W29380  33.899  35.448  13.405
56956W        W29381  23.185  19.916  14.721
56957W        W29382  20.222  36.882   1.811
56958W        W29383  22.631  24.603  12.364
56959W        W29384  34.955   7.962   2.191
56960W        W29385  20.286  10.805   3.783
56961W        W29386  30.070  16.819  12.465
56962W        W29387  37.838  11.373   1.947
56963W        W29388  26.051  17.111  14.577
56964W        W29389  41.154  26.258   3.294
56965W        W29390  19.138  24.628  11.598
56966W        W29391  12.744  32.957   0.452
56967W        W29392  43.637   9.513  13.748
56968W        W29393  30.688  14.777   0.016
56969W        W29394   6.374   6.769   2.457
56970W        W29395  28.170  32.469  12.964
56971W        W29396  30.439   4.722   2.622
56972W        W29397  44.219   5.395   2.099
56973W        W29398  34.947  38.934  13.731
56974W        W29399  12.847  22.261   0.744
56975W        W29400  25.162  37.817  12.122
56976W        W29401  36.397  27.571  14.625
56977W        W29402  38.852  32.414  12.846
56978W        W29403   6.942  25.179   1.785
56979W        W29404  31.608  27.209  13.359
56980W        W29405   4.920  17.233  14.112
56981W        W29406  20.314  34.524   2.452
56982W        W29407  30.070  12.600  14.778
56983W        W29408  19.945  43.288   2.425
56984W        W29409  36.626  31.201  13.960
56985W        W29410  22.983   7.310  13.969
56986W        W29411   0.782  16.578   1.241
56987W        W29412  37.200  30.665  14.887
56988W        W29413  36.017  38.722   3.751
56989W        W29414  32.430   2.927   0.379
56990W        W29415  41.650  36.374  11.476
56991W        W29416  13.085  40.778   4.133
56992W        W29417  41.917   4.945  14.475
56993W        W29418  22.103  34.044   2.843
56994W        W29419  23.478  42.874   4.128
56995W        W29420  18.288  32.064   0.510
56996W        W29421   7.910   2.317  12.858
56997W        W29422  11.204  14.857  11.629
56998W        W29423   9.522  13.742   1.665
56999W        W29424  16.339  22.731  13.080
57000W        W29425   0.988  14.473  13.725
57001W        W29426  36.410  42.034   2.215
57002W        W29427  10.970  12.241   1.854
57003W        W29428  37.283  25.149   1.792
57004W        W29429  23.392  35.486   2.000
57005W        W29430  12.362  25.616   2.760
57006W        W29431   9.461  12.814  14.585
57007W        W29432  42.962  44.532  14.135
57008W        W29433  17.732  18.329  14.860
57009W        W29434  44.223  38.361   0.275
57010W        W29435  36.993   7.358  12.185
57011W        W29436  14.064  21.680   1.831
57012W        W29437  26.555  37.439   0.778
57013W        W29438  32.889  11.154   3.750
57014W        W29439  16.016  33.539  13.052
57015W        W29440  42.914   3.708   1.818
57016W        W29441  22.503   1.466   4.188
57017W        W29442  24.964  31.064  13.483
57018W        W29443  31.647  24.108  10.746
57019W        W29444  14.479  32.933  10.215
57020W        W29445  30.938  12.833  14.809
57021W        W29446  24.379  13.293  14.763
57022W        W29447  34.439   5.461  11.599
57023W        W29448  41.943  44.039   3.609
57024W        W29449   7.575  15.537  13.352
57025W        W29450  26.234  18.112  13.957
57026W        W29451   0.296  29.527  10.458
57027W        W29452  40.391  34.502   4.327
57028W        W29453   7.656   8.785  12.680
57029W        W29454  25.947   9.904  13.322
57030W        W29455   3.558  11.188   1.673
57031W        W29456  12.698  27.189  11.709
57032W        W29457  17.878  44.750   3.046
57033W        W29458  32.773  12.863  11.096
57034W        W29459  27.741  30.907  12.040
57035W        W29460  18.821  25.568  14.324
57036W        W29461  14.740   5.338   3.738
57037W        W29462  13.533   0.323  12.502
57038W        W29463  40.515  14.277   0.770
57039W        W29464   0.294  44.204   0.241
57040W        W29465  19.146  41.119   4.061
57041W        W29466   8.512  42.932   4.630
57042W        W29467   3.242  35.874  14.967
57043W        W29468   4.972   7.156  13.753
57044W        W29469  18.739  16.134   2.777
57045W        W29470  30.721  44.909  12.523
57046W        W29471  10.718  33.146   1.400
57047W        W29472  16.401  18.172   0.020
57048W        W29473   8.698  30.899  12.567
57049W        W29474  33.882  32.647  10.484
57050W        W29475  40.704  40.636   4.126
57051W        W29476  17.760  13.272   0.651
57052W        W29477  27.530   7.367   0.645
57053W        W29478   5.206   8.536   3.560
57054W        W29479  22.778  33.385   3.865
57055W        W29480  33.488  34.956   3.126
57056W        W29481   1.988  26.172  12.863
57057W        W29482  15.565  19.523  11.210
57058W        W29483  18.764   8.304   2.197
57059W        W29484  35.590  24.062   0.325
57060W        W29485  36.094  43.145   0.784
57061W        W29486  19.495  36.091  10.310
57062W        W29487  19.592  36.418  10.726
57063W        W29488  44.258  43.023   1.239
57064W        W29489  15.511  41.272   1.212
57065W        W29490   8.810   9.240   2.239
57066W        W29491   0.609  40.089  12.865
57067W        W29492  18.730  15.741  10.184
57068W        W29493  31.401  34.948  11.561
57069W        W29494  40.264  27.043   2.306
57070W        W29495  40.613   4.837   4.278
57071W        W29496   2.999  31.157  13.827
57072W        W29497  33.446   0.104  12.072
57073W        W29498   7.239  33.877  14.352
57074W        W29499  19.822  10.117  13.900
57075W        W29500  17.228  33.629   2.387
57076W        W29501  28.166  29.440   4.778
57077W        W29502  21.284  17.645  10.629
57078W        W29503  19.021   4.488   4.121
57079W        W29504   3.176  15.884  11.624
57080W        W29505   7.496  40.023   3.300
57081W        W29506  21.634   5.875   3.111
57082W        W29507   7.120   5.463  14.861
57083W        W29508  44.891  29.716   4.433
57084W        W29509   6.996  21.459  11.285
57085W        W29510  31.903  22.313   2.742
57086W        W29511   8.685  17.517  14.011
57087W        W29512  18.048  37.456  12.106
57088W        W29513  30.865  42.763   3.771
57089W        W29514  27.515  42.954   2.771
57090W        W29515  21.219  32.657  12.371
57091W        W29516  42.859  10.852   1.167
57092W        W29517   6.770  44.466  10.794
57093W        W29518  36.390   0.644  14.405
57094W        W29519   1.289  13.153   1.247
57095W        W29520  29.452   0.333   1.539
57096W        W29521   4.479  16.269  10.591
57097W        W29522  40.207  20.939  13.712
57098W        W29523  21.941  25.459  13.077
57099W        W29524  34.135  30.510  11.632
57100W        W29525  14.290  29.661  11.533
57101W        W29526   5.995   5.134   4.772
57102W        W29527  20.082   4.669  13.430
57103W        W29528   6.706  34.427   5.520
57104W        W29529   8.242  40.565   1.904
57105W        W29530  25.663  38.317   1.196
57106W        W29531  19.153  29.043   5.040
57107W        W29532   1.054  16.287  12.464
57108W        W29533  44.012  32.118  14.257
57109W        W29534   5.901  10.384  14.953
57110W        W29535   6.962  20.686   0.081
57111W        W29536   2.255  15.193  14.533
57112W        W29537   2.458  13.278   3.746
57113W        W29538   5.878  10.789  11.976
57114W        W29539  37.883  18.379  13.414
57115W        W29540  39.395  21.774  11.226
57116W        W29541  17.669  29.635  14.937
57117W        W29542  42.626  20.614   4.175
57118W        W29543  43.910  12.939  13.983
57119W        W29544  22.249  13.295   1.702
57120W        W29545   2.849  32.188   2.879
57121W        W29546  19.502  23.100  14.861
57122W        W29547  14.171  15.689   0.242
57123W        W29548  39.374  38.764  13.919
57124W        W29549  44.367  33.007   4.954
57125W        W29550  36.465  11.803  12.174
57126W        W29551  21.164  34.137   4.317
57127W        W29552  11.516  12.317   1.875
57128W        W29553  13.401  10.325   4.373
57129W        W29554  15.109  44.663  14.873
57130W        W29555  23.400   6.794   2.640
57131W        W29556  15.208   8.777   4.510
57132W        W29557  21.960  18.101  13.313
57133W        W29558   7.814  43.933  10.609
57134W        W29559   8.655  21.764  13.940
57135W        W29560  21.079  16.199  11.155
57136W        W29561  26.077   4.203   1.437
57137W        W29562  40.358  26.978   3.322
57138W        W29563   0.325  41.393   4.378
57139W        W29564  18.108  30.216   4.163
57140W        W29565   4.969  44.840  14.536
57141W        W29566   7.546  41.668  12.544
57142W        W29567   1.507  40.475   3.785
57143W        W29568  35.252  14.293   1.936
57144W        W29569  16.090   8.583   3.840
57145W        W29570  18.186  41.323  13.441
57146W        W29571  10.671  41.964  11.989
57147W        W29572  37.302  34.830   0.836
57148W        W29573  32.911  31.250   2.721
57149W        W29574  13.662  24.122   9.859
57150W        W29575   0.342  24.711  13.448
57151W        W29576  10.815  18.022   3.947
57152W        W29577   5.295  36.812  13.849
57153W        W29578  37.865  19.777  10.771
57154W        W29579  10.359  20.033   2.882
57155W        W29580   5.393   9.860  14.889
57156W        W29581  24.202  40.164  10.540
57157W        W29582   4.447  40.043  11.964
57158W        W29583  13.804   5.382  11.622
57159W        W29584  21.207  35.958  11.246
57160W        W29585  36.450  12.673  13.370
57161W        W29586  10.461  24.111  14.993
57162W        W29587  32.423  25.781  11.071
57163W        W29588  11.847  23.152   5.432
57164W        W29589  29.671  38.568  13.809
57165W        W29590  35.314  28.684  12.708
57166W        W29591  29.537   7.133  12.397
57167W        W29592  23.660   8.203   0.636
57168W        W29593   3.793  43.213   1.404
57169W        W29594  42.869   9.719  13.574
57170W        W29595  17.627  43.252  11.598
57171W        W29596  40.826  44.649   5.417
57172W        W29597  11.611  15.186  13.389
57173W        W29598  20.586  34.641   3.051
57174W        W29599  36.056  36.337  11.301
57175W        W29600  12.437  32.215   0.779
57176W        W29601  44.986  36.796   0.931
57177W        W29602   2.418  15.716  10.686
57178W        W29603  39.829  28.589   3.802
57179W        W29604  19.448   0.480  10.204
57180W        W29605  38.908   2.804  13.235
57181W        W29606  40.446  38.449   2.610
57182W        W29607  38.463  41.279   0.981
57183W        W29608  20.954  11.340  13.412
57184W        W29609  23.991  17.336  14.593
57185W        W29610  13.581  18.705   3.103
57186W        W29611  13.300  32.389   4.147
57187W        W29612   0.299   1.686   0.502
57188W        W29613  39.591  29.293   2.202
57189W        W29614  40.338  26.028   0.821
57190W        W29615  28.006  29.981   1.406
57191W        W29616  33.503  31.048  14.244
57192W        W29617   1.591   2.848  12.006
57193W        W29618  38.836  41.213   3.251
57194W        W29619   4.941   6.785   3.330
57195W        W29620  30.764   1.524   1.915
57196W        W29621   5.397   6.945  12.470
57197W        W29622   6.668  17.244  12.934
57198W        W29623  22.764  10.470   3.745
57199W        W29624  15.775  28.381  11.672
57200W        W29625  33.214  18.297   1.895
57201W        W29626  21.754  28.837   2.714
57202W        W29627  27.976  11.348   2.811
57203W        W29628  16.349  38.104  14.090
57204W        W29629  14.933  18.746   1.256
57205W        W29630  37.849  38.477   2.903
57206W        W29631  17.135   7.694   1.789
57207W        W29632  24.182  13.745  14.936
57208W        W29633  17.799  18.712  10.662
57209W        W29634   0.732  25.176   2.728
57210W        W29635  42.351  20.011   2.788
57211W        W29636  31.630   0.954  13.996
57212W        W29637  31.933  33.709   1.228
57213W        W29638  18.810  27.683  11.463
57214W        W29639   2.688  28.109  13.515
57215W        W29640  20.160  21.996   0.712
57216W        W29641  23.995  39.078   0.748
57217W        W29642   7.851  21.440  14.540
57218W        W29643  44.837   0.828   2.892
57219W        W29644  42.908  22.712   2.602
57220W        W29645  33.525   4.718  13.875
57221W        W29646  13.572  15.591  10.638
57222W        W29647  25.138  33.202   3.810
57223W        W29648  30.455   9.869   3.300
57224W        W29649  19.603  23.159  11.439
57225W        W29650   6.971  16.889  11.645
57226W        W29651  15.613  22.073  11.129
57227W        W29652  38.378  17.009  12.361
57228W        W29653  39.269  34.872  13.632
57229W        W29654  43.347  42.069   1.239
57230W        W29655  26.029  44.687   0.873
57231W        W29656   5.258  39.814  12.473
57232W        W29657  38.239  33.784  12.110
57233W        W29658  10.728   6.833   4.814
57234W        W29659  24.924  16.119   2.371
57235W        W29660  26.127   4.993  12.083
57236W        W29661  12.496  16.588   0.528
57237W        W29662   4.950  11.524  13.428
57238W        W29663  40.250  33.366   0.650
57239W        W29664  27.428  32.487   1.935
57240W        W29665  33.016   8.798   3.142
57241W        W29666  41.613  10.179   2.222
57242W        W29667  13.264  14.283   0.734
57243W        W29668  21.526  43.200  12.652
57244W        W29669  41.268  34.826   4.057
57245W        W29670   2.457  20.038   3.681
57246W        W29671   5.358  38.954   0.268
57247W        W29672  19.009  30.489  10.641
57248W        W29673  10.353  30.159   4.899
57249W        W29674  30.372  24.424  14.567
57250W        W29675  35.771  38.617   0.339
57251W        W29676  12.281  10.244   0.713
57252W        W29677  19.791  38.809  10.433
57253W        W29678  16.299  37.613   4.059
57254W        W29679  17.187  30.138  14.292
57255W        W29680  34.131   2.253   0.797
57256W        W29681  40.671  14.039  13.924
57257W        W29682  40.926  41.260   2.572
57258W        W29683  37.127  32.780  12.501
57259W        W29684  41.412  25.176  14.855
57260W        W29685  14.204  26.964  12.117
57261W        W29686  28.201  42.701   0.623
57262W        W29687  43.947  11.048   2.646
57263W        W29688  33.410  15.601   2.541
57264W        W29689  19.007  33.397   4.381
57265W        W29690  12.648   1.679   4.147
57266W        W29691  11.533  14.038  14.435
57267W        W29692  42.707  36.436   3.225
57268W        W29693  37.714  19.378  13.509
57269W        W29694  36.136  41.117  12.654
57270W        W29695  10.244   8.532  12.150
57271W        W29696   8.000  14.431   1.391
57272W        W29697  15.090  27.089   4.708
57273W        W29698  28.349  30.449   4.853
57274W        W29699   9.438  18.789   1.385
57275W        W29700  17.500  36.974   1.445
57276W        W29701  35.386  36.192  11.202
57277W        W29702  43.564  37.658  14.457
57278W        W29703   3.798   3.314  14.900
57279W        W29704  17.324   2.729   3.143
57280W        W29705  21.556  24.758   1.238
57281W        W29706   5.749   1.093   1.638
57282W        W29707  32.895  23.746   2.399
57283W        W29708  22.107  37.002  14.428
57284W        W29709  40.923  42.736   1.462
57285W        W29710   5.355   2.011   4.137
57286W        W29711  27.603  38.490  14.941
57287W        W29712   5.675  18.511   1.291
57288W        W29713  30.619  39.886  11.550
57289W        W29714  38.346   4.281  12.036
57290W        W29715  34.029  42.471  10.484
57291W        W29716  35.532  12.141   4.157
57292W        W29717  13.413  40.284   3.309
57293W        W29718  42.220  15.196   2.423
57294W        W29719  25.898   1.890  11.122
57295W        W29720   9.773   0.460  12.560
57296W        W29721   0.565  36.612  12.504
57297W        W29722  24.180   7.303  12.867
57298W        W29723  42.300  41.100   1.223
57299W        W29724   8.907   6.287  11.873
57300W        W29725  25.797  32.897   4.931
57301W        W29726  41.570  25.141  13.516
57302W        W29727   5.763  33.614   4.810
57303W        W29728  44.029  10.177   3.783
57304W        W29729   1.593  30.453   4.290
57305W        W29730  20.154  29.093  11.203
57306W        W29731  29.515  34.853  12.480
57307W        W29732  41.903  12.837   2.301
57308W        W29733  26.114  28.521   3.627
57309W        W29734  17.999   8.221   3.310
57310W        W29735   4.909  10.608   2.984
57311W        W29736  16.676  38.380   4.099
57312W        W29737  35.153  10.830   2.269
57313W        W29738  26.588  37.537   2.419
57314W        W29739   7.961  27.956  13.870
57315W        W29740  14.238  35.633   1.296
57316W        W29741  41.012  19.546  12.521
57317W        W29742  22.529  39.954   0.351
57318W        W29743  10.395  13.933   1.649
57319W        W29744  23.260   4.919  11.056
57320W        W29745  42.752  33.981   3.692
57321W        W29746  20.790  26.401  12.536
57322W        W29747  32.907  42.288  13.945
57323W        W29748  38.851  23.189   2.777
57324W        W29749  21.578  20.147   1.828
57325W        W29750   4.017  12.182  12.802
57326W        W29751   7.801  14.220  13.779
57327W        W29752  42.929  22.592  11.963
57328W        W29753   9.421  15.719   4.244
57329W        W29754  39.733  33.105   4.650
57330W        W29755  17.804  27.226   2.634
57331W        W29756  44.036  38.843   0.851
57332W        W29757   6.252  17.791   3.388
57333W        W29758  28.060   1.810   3.835
57334W        W29759   5.809   8.077  13.908
57335W        W29760  25.614  19.946   0.238
57336W        W29761  41.145   0.867   4.201
57337W        W29762  20.787  22.267  13.970
57338W        W29763   8.961  27.486  12.207
57339W        W29764  40.801  27.270   3.274
57340W        W29765  22.145  29.699   2.503
57341W        W29766   5.733  44.965  14.903
57342W        W29767   7.791  43.469   1.291
57343W        W29768   3.899  38.503  12.293
57344W        W29769   2.450  11.746   5.032
57345W        W29770  11.620  31.607   1.022
57346W        W29771  18.200  30.643  11.630
57347W        W29772   5.273  24.577  11.244
57348W        W29773  13.898  15.278  12.360
57349W        W29774   4.857  32.512  14.086
57350W        W29775  36.404  10.419   2.666
57351W        W29776  38.021  42.502   0.483
57352W        W29777  29.401   5.318  13.471
57353W        W29778  38.324  19.285  12.468
57354W        W29779   4.419  18.074  11.973
57355W        W29780  36.335  40.321   0.367
57356W        W29781  42.043   3.117   0.247
57357W        W29782  11.859  10.605  13.064
57358W        W29783   0.983  24.944  11.172
57359W        W29784  35.071  44.021   1.844
57360W        W29785  38.373  44.431  14.427
57361W        W29786  33.925  17.601  11.598
57362W        W29787  18.767  24.996   1.753
57363W        W29788  28.605  27.009   1.874
57364W        W29789   5.299  16.957  10.845
57365W        W29790   1.910  14.315   4.031
57366W        W29791  29.073  24.208   4.279
57367W        W29792  22.119  20.759  11.573
57368W        W29793  12.359  23.440  14.788
57369W        W29794  38.732  38.953   0.021
57370W        W29795  33.729  22.488  11.421
57371W        W29796   5.853  35.691  12.407
57372W        W29797  22.859  42.481  12.849
57373W        W29798  31.480   8.280   1.325
57374W        W29799  13.894  40.326  10.526
57375W        W29800  23.971  11.740  12.046
57376W        W29801   7.819   7.726   4.815
57377W        W29802  17.837  15.388   2.677
57378W        W29803   6.353  38.770  14.884
57379W        W29804  32.801  11.852  11.004
57380W        W29805  40.907  35.857   1.907
57381W        W29806  23.638  32.685  13.372
57382W        W29807  14.613  19.746   1.411
57383W        W29808  13.795  28.738   0.381
57384W        W29809  23.316  34.202   4.636
57385W        W29810  36.835  43.909  14.360
57386W        W29811  40.517  36.593  14.842
57387W        W29812  38.949  19.196   2.927
57388W        W29813  11.165  27.630  14.313
57389W        W29814  14.014  21.045  10.873
57390W        W29815  13.683  25.897   9.588
57391W        W29816   2.566  27.592  13.000
57392W        W29817  20.677  21.027   1.959
57393W        W29818  25.221  31.119  13.956
57394W        W29819   3.825  17.585  12.955
57395W        W29820   6.412  19.693  11.514
57396W        W29821   1.251   1.812   0.883
57397W        W29822   3.765  35.180   0.293
57398W        W29823   6.638  30.371  10.802
57399W        W29824  41.354  32.986   3.705
57400W        W29825  24.430   1.391  14.864
57401W        W29826  36.589  39.452   1.904
57402W        W29827  13.060   0.710  12.431
57403W        W29828  30.171  15.837  11.459
57404W        W29829  33.512  16.654   4.086
57405W        W29830  26.242   3.763   1.694
57406W        W29831  36.909  16.171   3.420
57407W        W29832  16.943   4.750  10.662
57408W        W29833  36.471  37.280   2.643
57409W        W29834  43.841  18.294   0.018
57410W        W29835   0.814   9.371  12.184
57411W        W29836  37.380   2.156  12.143
57412W        W29837   0.404   7.297  11.568
57413W        W29838  16.778  36.926  12.590
57414W        W29839   2.820  30.667   0.142
57415W        W29840  43.982  18.173   0.511
57416W        W29841  11.433  13.054   1.429
57417W        W29842  25.654  27.881  13.062
57418W        W29843  27.042  38.080  12.973
57419W        W29844  25.981  13.928   1.941
57420W        W29845   1.053  44.514  11.213
57421W        W29846   6.809  10.095   5.025
57422W        W29847  40.305   6.742   1.706
57423W        W29848  27.471  20.339   4.562
57424W        W29849   3.289  21.670   1.252
57425W        W29850  13.748  30.200   2.935
57426W        W29851   8.414  14.054  12.898
57427W        W29852  14.674  11.751   3.179
57428W        W29853  23.586  37.457   2.381
57429W        W29854   0.260  25.168   4.516
57430W        W29855  35.055  14.226   0.384
57431W        W29856   3.139  38.987  12.205
57432W        W29857  13.150  34.934  11.712
57433W        W29858  16.852  20.589   0.319
57434W        W29859  13.664  40.942   0.283
57435W        W29860  17.588  19.327  10.461
57436W        W29861  32.964  32.322   3.604
57437W        W29862   2.243  30.091  11.023
57438W        W29863  12.827   2.708   0.189
57439W        W29864   2.997  21.296  12.336
57440W        W29865  44.766  22.198   0.784
57441W        W29866   1.234  42.928  14.036
57442W        W29867  28.506  39.983  13.877
57443W        W29868  24.004   4.861  13.110
57444W        W29869   5.192  19.154  10.763
57445W        W29870   1.832  37.032   0.412
57446W        W29871   4.880  43.683   3.191
57447W        W29872   0.826  39.071   3.836
57448W        W29873  41.337   6.659   2.632
57449W        W29874  44.724  21.501   1.320
57450W        W29875  44.763   2.191  11.104
57451W        W29876  10.216   1.416   4.668
57452W        W29877  33.911  37.093  11.118
57453W        W29878  16.642  31.737  12.141
57454W        W29879  34.180   5.274   1.252
57455W        W29880   8.281  14.028  13.914
57456W        W29881  35.677  27.725  13.442
57457W        W29882   2.603   0.541   2.322
57458W        W29883  38.947  36.615   4.239
57459W        W29884  10.456   0.948   1.295
57460W        W29885  26.403  26.726  11.700
57461W        W29886  10.725  10.870  11.120
57462W        W29887  39.683  31.871  12.961
57463W        W29888  16.025   7.466  13.963
57464W        W29889  21.269  22.140  14.355
57465W        W29890   7.904  22.652   3.266
57466W        W29891  10.352  33.778  12.022
57467W        W29892  23.954  38.810   1.263
57468W        W29893   2.433  17.112  13.827
57469W        W29894  16.728  43.416  11.303
57470W        W29895   5.415  27.007  12.959
57471W        W29896   0.792  33.258  10.981
57472W        W29897  43.637   3.697   4.686
57473W        W29898  27.082  28.924  11.441
57474W        W29899  31.573  18.299  10.202
57475W        W29900  28.567  42.249   1.222
57476W        W29901  40.255  12.761  11.943
57477W        W29902  38.917  29.101  10.332
57478W        W29903  38.490  25.134  12.462
57479W        W29904  28.193  29.580  13.979
57480W        W29905  24.234  37.388   4.640
57481W        W29906   3.988  21.206   3.817
57482W        W29907   8.741   6.250  12.837
57483W        W29908  14.371  28.073   3.756
57484W        W29909  33.916  41.483  11.493
57485W        W29910  41.440  22.454  14.683
57486W        W29911  42.926  41.891   0.170
57487W        W29912   7.223  18.526  12.016
57488W        W29913  41.906  13.791  11.637
57489W        W29914  26.544   6.314   0.700
57490W        W29915   3.434  38.896  11.230
57491W        W29916  19.642  27.952   3.425
57492W        W29917  36.611  17.098   4.958
57493W        W29918  15.069  17.612   1.757
57494W        W29919  23.519  37.135  13.941
57495W        W29920  35.655   1.063  13.564
57496W        W29921  34.529  30.599  14.843
57497W        W29922  35.326  10.835  14.007
57498W        W29923  28.571  22.348  14.545
57499W        W29924   3.960  24.610   3.617
57500W        W29925  42.304  26.442  14.944
57501W        W29926  12.331  12.845   4.679
57502W        W29927  44.350  38.094  14.794
57503W        W29928  36.929  43.793  10.633
57504W        W29929  23.733   7.236   1.686
57505W        W29930  41.924  13.288   2.604
57506W        W29931  37.813  16.015   3.537
57507W        W29932  40.559  41.818   2.686
57508W        W29933  20.689  30.145   3.420
57509W        W29934  13.695  12.062   3.326
57510W        W29935   9.109   5.451  11.571
57511W        W29936  41.440  23.762  14.433
57512W        W29937  24.194  12.707   0.589
57513W        W29938  23.240  26.632   4.419
57514W        W29939   8.114  14.209   4.685
57515W        W29940  17.224  30.243   3.052
57516W        W29941  33.506  29.573  10.685
57517W        W29942  15.800   5.893  11.133
57518W        W29943  37.422   1.372   4.983
57519W        W29944  14.173  33.892   1.762
57520W        W29945  17.202   3.271  14.983
57521W        W29946  29.555  10.575  13.863
57522W        W29947   6.602  20.666   3.811
57523W        W29948  39.072   7.110   2.614
57524W        W29949  26.460  21.586  14.806
57525W        W29950  42.425  29.342  12.484
57526W        W29951  23.513  44.528  10.600
57527W        W29952  20.595  30.500   1.750
57528W        W29953  41.951  26.023   3.684
57529W        W29954   4.728  25.661   3.479
57530W        W29955  15.489  27.040   4.112
57531W        W29956   8.672   4.882  14.354
57532W        W29957  34.540   4.244  11.669
57533W        W29958   2.073   3.401   5.220
57534W        W29959  16.677   8.713  14.911
57535W        W29960  13.876  28.464  12.120
57536W        W29961  44.224  21.493  14.416
57537W        W29962  24.219  10.117  11.033
57538W        W29963   1.989   9.664   3.181
57539W        W29964  41.338  43.481  14.047
57540W        W29965   2.120   0.468  10.111
57541W        W29966   8.206  38.283  14.754
57542W        W29967  33.900  23.629  12.975
57543W        W29968  36.970   9.846  10.531
57544W        W29969  18.696   1.974  10.298
57545W        W29970   4.939  22.039   3.840
57546W        W29971  35.125  38.011   3.720
57547W        W29972  20.697  30.081  14.444
57548W        W29973  32.835  24.661  14.586
57549W        W29974  21.660  23.593   0.127
57550W        W29975  20.256   1.010  10.483
57551W        W29976  23.688  10.199   1.659
57552W        W29977  16.480  28.106  11.152
57553W        W29978  17.813   8.216  10.778
57554W        W29979  31.044  13.744   4.326
57555W        W29980   2.516   1.387  13.393
57556W        W29981   4.658   4.030  10.038
57557W        W29982  40.845  21.727  12.972
57558W        W29983   9.955   1.304   4.215
57559W        W29984  27.729  33.050   3.627
57560W        W29985   3.915  35.360  14.803
57561W        W29986  18.243  22.289   1.771
57562W        W29987  42.917  10.635   0.674
57563W        W29988  10.245  29.110  10.587
57564W        W29989  22.952   1.248  14.761
57565W        W29990  19.812  30.402   1.357
57566W        W29991  38.818   5.458   1.348
57567W        W29992   2.659  14.544   1.738
57568W        W29993  36.912  40.026  11.182
57569W        W29994  34.530  40.458   0.694
57570W        W29995  19.301  36.444   3.162
57571W        W29996  24.949  21.306  12.373
57572W        W29997   2.174  26.347   2.881
57573W        W29998  15.803  39.019   1.761
57574W        W29999  31.078   8.638  13.929
57575W        W30000  23.317  15.688  13.132
57576W        W30001  42.905  44.687   2.301
57577W        W30002  26.085  34.559   4.084
57578W        W30003   4.210  34.163   2.277
57579W        W30004   4.517  21.762   3.245
57580W        W30005   7.944  19.743   5.080
57581W        W30006  29.952  21.018   2.787
57582W        W30007  39.782  19.583   3.580
57583W        W30008   7.839  44.959  13.494
57584W        W30009  14.767   9.786  10.708
57585W        W30010   4.459  28.101  11.599
57586W        W30011   7.103   0.234  12.556
57587W        W30012   0.861  25.244  10.776
57588W        W30013  10.325  35.131   0.905
57589W        W30014   8.674   1.716  12.462
57590W        W30015  20.659  14.511  11.364
57591W        W30016  29.603  32.385   2.344
57592W        W30017  39.099  33.280  10.580
57593W        W30018   4.265  41.339   4.991
57594W        W30019   1.681  28.095   4.083
57595W        W30020   6.750  10.426   4.570
57596W        W30021   0.917  34.884  13.829
57597W        W30022  16.159  17.536   3.668
57598W        W30023   7.379  38.330   2.299
57599W        W30024   7.370  31.235   1.760
57600W        W30025  22.516   4.314  11.648
57601W        W30026  34.852  36.347  12.917
57602W        W30027  36.458   7.795   0.355
57603W        W30028  29.129  19.232   3.493
57604W        W30029   2.026  26.754  10.427
57605W        W30030  16.836  21.420  12.965
57606W        W30031  10.675  27.076   1.312
57607W        W30032  17.465   0.224  12.993
57608W        W30033  29.056  19.539  13.926
57609W        W30034   8.223  42.417   4.528
57610W        W30035  10.253  34.799  13.355
57611W        W30036  17.755  10.140   2.150
57612W        W30037   0.435  16.142   2.913
57613W        W30038  19.833  29.163  10.781
57614W        W30039   5.436  27.871  13.473
57615W        W30040  28.529  30.948  14.045
57616W        W30041  27.408  33.691   1.127
57617W        W30042  13.325  34.039  12.151
57618W        W30043  11.078  27.344  11.610
57619W        W30044   6.797  11.811  12.358
57620W        W30045   7.337   5.903   4.408
57621W        W30046   4.443  42.278   3.002
57622W        W30047  20.401  11.156  14.089
57623W        W30048   4.916  34.480  11.622
57624W        W30049  26.995   2.769   1.792
57625W        W30050  18.610  37.411   3.714
57626W        W30051   0.344  22.097   1.513
57627W        W30052  43.880  10.199  14.454
57628W        W30053  12.085  38.919   2.223
57629W        W30054  25.127  30.794   0.892
57630W        W30055  29.058  27.184  12.031
57631W        W30056  32.140  28.521   2.045
57632W        W30057  29.436   1.221  11.153
57633W        W30058  24.069   0.233  12.415
57634W        W30059  36.765  20.687  13.749
57635W        W30060  30.521  43.432  11.403
57636W        W30061  39.842  37.510   5.093
57637W        W30062  16.692  27.169   0.710
57638W        W30063   8.017  35.010  13.360
57639W        W30064  31.726  37.828  13.527
57640W        W30065  36.856   3.990  14.340
57641W        W30066  29.691  15.653   0.057
57642W        W30067   8.369   5.247   2.740
57643W        W30068   2.539  31.895   1.832
57644W        W30069   2.006  38.660  13.449
57645W        W30070   6.216  38.214  10.974
57646W        W30071  30.647  21.006  11.112
57647W        W30072   0.967  17.225   0.378
57648W        W30073   1.292  14.561   2.708
57649W        W30074  10.626  38.542   4.312
57650W        W30075  16.110   4.507  11.864
57651W        W30076  17.497   5.199  11.651
57652W        W30077  21.635   9.940   2.257
57653W        W30078  34.346  13.178   3.341
57654W        W30079  29.991  14.369   3.044
57655W        W30080  31.821  15.689   4.297
57656W        W30081  43.472   2.356  10.917
57657W        W30082  42.861   7.606   0.186
57658W        W30083  30.579   9.295   1.704
57659W        W30084   2.304   2.845   4.202
57660W        W30085  42.287  17.244   4.095
57661W        W30086   9.595  42.491  12.415
57662W        W30087  43.899  20.632  14.425
57663W        W30088   6.861  40.289   4.579
57664W        W30089   1.695  12.597  13.612
57665W        W30090  23.211  36.856   4.130
57666W        W30091   3.269  25.645  14.486
57667W        W30092  32.112  25.017  10.481
57668W        W30093  32.888  15.175  14.603
57669W        W30094   9.623  26.097   2.881
57670W        W30095   4.627  27.492   3.165
57671W        W30096   5.458   4.558   3.741
57672W        W30097   7.677  10.737  10.546
57673W        W30098   8.121  17.240  10.626
57674W        W30099  32.133   5.678  12.805
57675W        W30100   4.449  28.115   2.293
57676W        W30101  25.517  36.130   0.009
57677W        W30102  29.077   7.373  10.959
57678W        W30103  39.289  13.779  12.850
57679W        W30104   9.257  16.204  10.806
57680W        W30105  19.170  26.972  13.592
57681W        W30106   3.805  16.323   2.243
57682W        W30107  31.128  14.317  11.121
57683W        W30108  44.418  13.428   2.321
57684W        W30109  33.175   0.358  12.547
57685W        W30110  15.522  10.928   0.977
57686W        W30111   0.915  11.583   4.154
57687W        W30112  32.086  21.569  13.420
57688W        W30113   3.620  10.629   2.344
57689W        W30114  18.727   9.861  12.805
57690W        W30115  40.912  11.388   4.211
57691W        W30116  18.556  38.017  14.414
57692W        W30117  42.068   5.704  11.279
57693W        W30118  12.938   4.648   0.636
57694W        W30119  29.101  14.090  12.337
57695W        W30120  22.547  23.906   0.283
57696W        W30121  20.179  17.241   2.189
57697W        W30122  13.978  12.368  11.639
57698W        W30123  40.989  30.095  10.725
57699W        W30124   2.199  40.229  13.583
57700W        W30125  42.258  27.227  14.374
57701W        W30126  37.483  37.616  12.119
57702W        W30127   3.709  16.586  11.910
57703W        W30128  42.338  16.570  14.026
57704W        W30129  41.833  23.929   0.484
57705W        W30130  34.072  27.900  14.375
57706W        W30131  14.386  43.028  10.973
57707W        W30132  18.665  38.280   3.262
57708W        W30133  28.457   8.666   4.262
57709W        W30134  18.004   0.706  11.939
57710W        W30135  29.411   2.508   2.846
57711W        W30136  10.536  32.402   2.818
57712W        W30137   7.494  21.629  11.288
57713W        W30138   0.328  21.327   2.806
57714W        W30139  15.697  41.913  14.223
57715W        W30140  27.798  30.951  12.871
57716W        W30141  29.861  31.086  13.279
57717W        W30142  32.474  39.684  12.583
57718W        W30143  21.621  44.188  12.108
57719W        W30144  13.718  13.384  12.572
57720W        W30145  24.067  32.766  11.105
57721W        W30146  12.891  34.921  13.471
57722W        W30147  33.854  38.753   0.961
57723W        W30148  26.795   6.245   1.254
57724W        W30149  36.524  43.726  12.088
57725W        W30150  28.512  37.532   1.782
57726W        W30151  32.074  42.405  12.995
57727W        W30152  25.207  36.323  11.183
57728W        W30153  42.903  12.751   2.625
57729W        W30154  13.477   8.112  11.176
57730W        W30155  24.540   8.746  12.058
57731W        W30156  18.951  28.430   4.959
57732W        W30157   1.428  30.933  14.862
57733W        W30158  29.428  32.980   1.394
57734W        W30159  16.246   6.427  10.642
57735W        W30160  44.909  10.434  14.825
57736W        W30161  15.980  24.166  10.067
57737W        W30162  27.058  26.119   3.248
57738W        W30163  43.873  33.869  11.056
57739W        W30164  30.430   5.311  12.531
57740W        W30165  22.718  40.361  13.684
57741W        W30166  14.987  20.623   2.739
57742W        W30167  35.279  34.815   1.818
57743W        W30168  29.941  17.060   9.809
57744W        W30169  10.589   3.806  13.040
57745W        W30170  15.553  18.919   2.060
57746W        W30171   4.236  11.721   3.207
57747W        W30172  32.644  19.179   2.607
57748W        W30173  20.608  19.129   0.289
57749W        W30174  15.397  20.666  13.047
57750W        W30175  39.085   0.635   2.320
57751W        W30176   0.935  15.751  14.473
57752W        W30177  44.737  42.644  11.179
57753W        W30178  41.986   7.698   0.250
57754W        W30179  36.577  15.884  12.153
57755W        W30180  39.581  17.639  10.681
57756W        W30181   2.755  40.045  12.142
57757W        W30182  35.774  33.521  14.915
57758W        W30183  42.360  21.715   2.432
57759W        W30184  36.326  14.619   4.198
57760W        W30185  25.069  18.742  12.781
57761W        W30186  34.422  13.794   0.171
57762W        W30187  42.356  21.695   0.739
57763W        W30188  31.597  33.080   1.299
57764W        W30189   0.787  19.285  11.958
57765W        W30190  21.762  25.044  11.965
57766W        W30191  20.685   9.328   0.963
57767W        W30192  14.119   0.765  11.268
57768W        W30193  42.441  14.795  14.780
57769W        W30194   9.562  21.553   4.158
57770W        W30195  17.172  33.475  14.558
57771W        W30196  32.313  40.366   1.130
57772W        W30197  30.177  32.600  10.661
57773W        W30198  12.569   6.969  13.576
57774W        W30199   5.946  24.195   1.370
57775W        W30200  40.305   1.957  11.125
57776W        W30201   4.221   6.152  12.663
57777W        W30202   1.996  21.115   0.054
57778W        W30203  11.885  40.506  13.376
57779W        W30204   6.937  41.815  13.356
57780W        W30205   1.498  36.032   4.118
57781W        W30206   1.510  11.228   3.040
57782W        W30207  41.446  26.786  13.892
57783W        W30208   6.186  33.470   0.797
57784W        W30209  25.552  20.480   0.412
57785W        W30210   5.651  33.370   0.324
57786W        W30211  41.581  43.930  13.948
57787W        W30212  39.434  28.711   3.456
57788W        W30213  24.195  33.234  11.990
57789W        W30214  35.937  22.325   1.515
57790W        W30215  32.691  33.528   3.334
57791W        W30216  21.734  22.259   0.570
57792W        W30217   8.266  20.596   0.871
57793W        W30218  30.689  30.420   0.387
57794W        W30219  26.162  37.795  13.364
57795W        W30220   7.452   6.680   0.313
57796W        W30221  39.364  24.849  10.475
57797W        W30222   9.677  15.753   4.685
57798W        W30223  39.308  24.105   1.340
57799W        W30224   4.310  31.035   4.140
57800W        W30225  30.236  12.146  14.039
57801W        W30226  43.030  17.174   2.809
57802W        W30227  24.907   2.969   5.245
57803W        W30228  27.439  39.881   4.192
57804W        W30229   0.063  36.050  14.773
57805W        W30230  34.045  29.107  11.228
57806W        W30231  42.542  16.863   1.275
57807W        W30232  15.792  20.274   2.602
57808W        W30233  17.720  14.822  10.922
57809W        W30234  29.811  41.299  13.387
57810W        W30235  16.349  15.248  11.205
57811W        W30236  18.251   4.364   1.674
57812W        W30237  40.808   9.620  13.338
57813W        W30238  28.914  23.053   4.411
57814W        W30239  25.590  15.844  10.752
57815W        W30240   6.341  12.493  11.456
57816W        W30241  13.372  11.833   0.911
57817W        W30242  28.139  27.132  11.844
57818W        W30243  27.845  24.649   2.654
57819W        W30244  44.913  13.112   2.960
57820W        W30245  41.853   3.045  14.676
57821W        W30246  37.428  21.202   1.902
57822W        W30247  26.072  32.881  13.939
57823W        W30248  16.120  35.028   4.307
57824W        W30249  13.703  28.213  10.916
57825W        W30250  26.645  18.723  12.603
57826W        W30251  41.200   8.227  10.650
57827W        W30252   5.616  28.623   2.131
57828W        W30253  12.339   6.930   0.718
57829W        W30254  16.068  26.458   0.034
57830W        W30255  26.450   8.704   2.136
57831W        W30256  27.042   0.730   2.675
57832W        W30257  16.367  13.202   2.329
57833W        W30258  42.919  11.818   3.730
57834W        W30259  17.708   1.533  12.933
57835W        W30260  38.003  30.318  11.191
57836W        W30261  16.868  27.064  11.463
57837W        W30262  27.546  14.251   4.555
57838W        W30263  24.897  44.821  13.256
57839W        W30264  10.616  37.664  12.477
57840W        W30265   2.785  38.998   4.048
57841W        W30266   0.542  20.283  14.347
57842W        W30267  25.705   7.402   3.725
57843W        W30268  19.669  25.579   1.979
57844W        W30269  10.827   3.500  10.681
57845W        W30270   5.883   5.259   2.887
57846W        W30271  25.275   4.205   1.748
57847W        W30272  13.076   4.902  12.770
57848W        W30273  19.662  32.630  13.087
57849W        W30274  21.170   9.303   3.301
57850W        W30275   3.387  22.274  13.879
57851W        W30276  41.851   9.418   4.642
57852W        W30277  31.225  33.032   1.651
57853W        W30278   7.802  38.508  10.673
57854W        W30279   9.709  38.042   0.852
57855W        W30280  13.246  41.839   3.401
57856W        W30281  21.600   4.516  11.603
57857W        W30282  28.846  13.825   2.138
57858W        W30283  18.183  14.428   1.226
57859W        W30284  33.041  19.557   0.005
57860W        W30285  30.604  17.103   0.422
57861W        W30286  34.518  34.108   3.151
57862W        W30287  21.650  20.537  11.510
57863W        W30288  20.844  30.422  12.011
57864W        W30289  37.084  34.055   4.077
57865W        W30290   2.811  36.372   2.747
57866W        W30291  26.108  38.567  10.902
57867W        W30292  22.499  20.988  14.512
57868W        W30293  17.185  10.540   0.755
57869W        W30294  31.964   7.376  11.111
57870W        W30295  29.685   0.505  10.675
57871W        W30296   9.386   5.680  14.247
57872W        W30297   5.735   9.600  11.093
57873W        W30298  20.872  31.387   0.279
57874W        W30299  19.610  20.322  13.685
57875W        W30300  18.317  19.486  12.701
57876W        W30301  13.371  34.458   4.923
57877W        W30302   8.369  35.093   4.319
57878W        W30303  34.792  42.402  12.069
57879W        W30304  18.741  22.515  13.758
57880W        W30305  34.641  31.538  14.760
57881W        W30306  19.609  38.823   0.355
57882W        W30307  28.125  42.645   2.894
57883W        W30308  18.743  40.075   2.546
57884W        W30309   6.817  24.698  12.368
57885W        W30310  10.314   4.315  13.845
57886W        W30311  14.252  34.867   3.718
57887W        W30312  32.290  30.351   0.702
57888W        W30313  27.666  29.386  12.979
57889W        W30314  36.155  35.558   0.762
57890W        W30315  31.397  15.997  14.023
57891W        W30316   4.269   6.300  10.959
57892W        W30317   2.692  19.814  14.385
57893W        W30318  26.383  22.128   1.379
57894W        W30319  32.881  25.991  11.169
57895W        W30320  28.955  22.728  11.604
57896W        W30321  14.321  34.806  11.141
57897W        W30322  35.146  41.034   2.861
57898W        W30323  24.002  31.657   1.828
57899W        W30324   5.764  33.149   0.803
57900W        W30325   3.106   0.167  14.493
57901W        W30326   0.268   7.676  12.458
57902W        W30327  29.134  26.394   2.869
57903W        W30328  23.548  17.744   2.426
57904W        W30329   9.298   0.375   1.319
57905W        W30330  25.178  33.668   0.964
57906W        W30331  39.316  37.821  10.283
57907W        W30332  18.112  19.288  14.872
57908W        W30333   7.620  22.541  11.132
57909W        W30334   4.330  17.055  11.935
57910W        W30335  26.103  24.623  12.188
57911W        W30336  20.125  25.895   2.693
57912W        W30337  40.444  26.081  11.272
57913W        W30338   2.792  28.139  12.064
57914W        W30339  44.842  32.640   1.785
57915W        W30340  15.994  33.852   3.576
57916W        W30341  38.802   5.471  14.817
57917W        W30342   5.671   8.806   3.662
57918W        W30343  35.500   2.356  14.887
57919W        W30344   4.939  17.724   4.227
57920W        W30345  37.905  44.211   4.255
57921W        W30346  14.965  25.679  12.462
57922W        W30347  26.628  15.793  11.182
57923W        W30348  17.274   2.035   1.928
57924W        W30349  41.990  22.653   2.223
57925W        W30350   2.909  39.371  10.643
57926W        W30351  21.691   6.512  11.575
57927W        W30352  15.017  20.615   4.094
57928W        W30353  14.308  21.236   9.887
57929W        W30354  39.999  37.877  13.974
57930W        W30355  32.040  21.772   1.271
57931W        W30356  36.860  14.166  13.394
57932W        W30357  40.509  27.657  14.636
57933W        W30358  35.150   2.932   1.344
57934W        W30359  29.150  26.819   1.413
57935W        W30360  34.183   2.218  10.478
57936W        W30361  14.327  15.375   2.373
57937W        W30362  12.805  19.601  14.921
57938W        W30363  10.215  28.902   4.688
57939W        W30364  36.183  26.025   1.809
57940W        W30365   5.172   9.223  12.973
57941W        W30366   1.060  43.253  14.829
57942W        W30367  23.767  40.492   0.358
57943W        W30368   1.780  31.958  14.823
57944W        W30369  35.746  19.521   2.641
57945W        W30370  31.660  25.616  11.480
57946W        W30371   5.887  27.225  12.173
57947W        W30372  26.054   7.195   4.651
57948W        W30373  12.810  32.647  14.935
57949W        W30374   3.181  39.032  12.789
57950W        W30375   9.888  41.833   3.712
57951W        W30376  25.789   2.914   2.412
57952W        W30377   1.857  32.941   1.377
57953W        W30378  17.318  24.139   0.225
57954W        W30379  28.978  13.139  11.478
57955W        W30380  41.208  27.607   3.159
57956W        W30381  20.532  30.161  10.658
57957W        W30382  12.645  44.474  11.228
57958W        W30383  25.785  16.590  12.320
57959W        W30384  12.087  44.264   0.341
57960W        W30385   4.375  28.216   0.444
57961W        W30386   8.720   4.372   2.335
57962W        W30387  14.967  18.212  14.113
57963W        W30388  42.280  43.905  10.486
57964W        W30389  34.607  27.495  13.919
57965W        W30390  30.003   3.808  11.651
57966W        W30391  21.029  41.002  11.124
57967W        W30392   4.149   2.404   3.696
57968W        W30393  20.238  27.492  10.799
57969W        W30394  44.595  17.101   1.648
57970W        W30395   7.482  33.983   0.911
57971W        W30396  25.521  10.748   4.490
57972W        W30397  33.058  12.852  14.373
57973W        W30398  26.896  14.909  13.097
57974W        W30399   2.679  14.147  12.877
57975W        W30400   1.321  14.787  14.022
57976W        W30401  35.563   7.505   0.343
57977W        W30402  23.214  32.640  14.680
57978W        W30403  18.779  19.636   2.777
57979W        W30404  12.830  37.793  11.078
57980W        W30405  42.934   9.854  14.488
57981W        W30406  38.490  21.530   0.763
57982W        W30407  11.067  41.559   3.285
57983W        W30408  35.918   5.733  10.658
57984W        W30409   4.673  40.476  12.358
57985W        W30410   0.417  42.753   0.667
57986W        W30411   3.671  22.017  14.595
57987W        W30412  26.386   3.310   4.601
57988W        W30413  44.329   0.447  11.057
57989W        W30414  29.193   8.255   4.554
57990W        W30415  30.872  14.151  14.415
57991W        W30416  32.148  26.087   4.647
57992W        W30417  13.244  44.156   2.909
57993W        W30418   9.873  27.455   0.937
57994W        W30419   2.773   6.730   3.564
57995W        W30420  29.543   7.374   3.714
57996W        W30421  41.073  35.124  14.084
57997W        W30422   8.257  17.044   4.156
57998W        W30423  24.584  29.181  12.644
57999W        W30424  42.932  28.023  13.360
58000W        W30425  31.890  10.898   3.147
58001W        W30426  32.362  18.647   2.137
58002W        W30427  40.947  14.306   4.675
58003W        W30428  38.498  38.030   2.259
58004W        W30429   2.727   7.709  12.485
58005W        W30430  17.950  11.170  11.124
58006W        W30431   0.028  37.885   4.649
58007W        W30432  12.128  32.246  13.074
58008W        W30433  32.056  17.792   4.645
58009W        W30434   2.235  18.008  11.981
58010W        W30435   7.797  44.448   1.511
58011W        W30436  43.801  16.014  12.432
58012W        W30437  23.723  22.674  12.588
58013W        W30438  18.876  30.041   4.111
58014W        W30439  32.197   4.102  14.000
58015W        W30440  34.474  42.064   2.316
58016W        W30441  18.147   5.706   2.712
58017W        W30442  10.000  14.765  13.918
58018W        W30443   7.168  27.060   4.092
58019W        W30444   3.776  38.497   3.855
58020W        W30445  39.613   6.442   2.837
58021W        W30446  34.685  24.670  13.715
58022W        W30447  35.824   3.453  11.640
58023W        W30448  10.401  26.468  11.718
58024W        W30449   7.229   7.947  12.836
58025W        W30450  40.877  27.578  13.344
58026W        W30451  28.398  35.663  12.150
58027W        W30452  43.519  15.307  11.074
58028W        W30453   0.092  42.261  11.964
58029W        W30454   6.374  34.383  11.521
58030W        W30455  11.364  25.725   3.749
58031W        W30456   2.755   2.333  10.642
58032W        W30457   8.495  24.057  13.987
58033W        W30458   1.184  21.403  12.004
58034W        W30459   6.988  24.750   2.744
58035W        W30460  20.152  11.953   3.667
58036W        W30461   1.912  28.162  13.044
58037W        W30462  42.294  11.906   1.933
58038W        W30463   5.377  30.451  11.197
58039W        W30464  33.142  17.235  12.095
58040W        W30465  31.998  42.735   2.367
58041W        W30466  38.556   3.887  13.407
58042W        W30467  23.529   4.905   0.199
58043W        W30468  42.590  20.492  14.027
58044W        W30469  22.676  20.726   0.019
58045W        W30470  26.174  16.782  11.493
58046W        W30471  36.390  31.050  11.911
58047W        W30472  25.796  43.525  14.002
58048W        W30473  42.481  39.209   0.081
58049W        W30474  31.404  26.704   0.240
58050W        W30475  26.611  25.726   4.613
58051W        W30476  24.680  34.348  10.393
58052W        W30477  18.779   6.936   2.245
58053W        W30478  10.769  12.316  11.998
58054W        W30479  21.626  35.395  13.085
58055W        W30480  26.754  17.213  10.664
58056W        W30481   8.453  36.954   3.469
58057W        W30482   8.414   2.725   4.591
58058W        W30483   3.406  23.037   0.481
58059W        W30484  32.880  10.674   3.553
58060W        W30485  20.543  30.964   9.813
58061W        W30486  29.250  32.089  13.963
58062W        W30487   1.126  13.318   2.183
58063W        W30488   6.683  39.461  12.559
58064W        W30489  23.660  27.629   2.844
58065W        W30490   8.221  38.955   4.892
58066W        W30491  30.180  27.130  13.513
58067W        W30492  29.893  33.399   2.637
58068W        W30493  35.925  13.440  14.057
58069W        W30494  20.696  41.408   0.284
58070W        W30495  27.475  36.572  10.538
58071W        W30496  10.839  42.337  12.840
58072W        W30497  36.430  13.307   4.682
58073W        W30498  38.951  38.444   2.914
58074W        W30499   9.784  10.368  12.335
58075W        W30500   4.773   2.007   1.944
58076W        W30501  29.585   4.335   1.270
58077W        W30502  42.961   4.644   5.041
58078W        W30503  37.393  39.082   2.908
58079W        W30504   6.360  15.165   4.411
58080W        W30505  16.173  31.173  14.916
58081W        W30506  29.571   5.030  10.355
58082W        W30507  37.383  33.404   1.285
58083W        W30508  10.101  36.563   5.196
58084W        W30509  33.692  30.639  11.895
58085W        W30510  44.140  12.681   1.446
58086W        W30511  25.056  24.859   4.754
58087W        W30512  11.210  15.546   1.465
58088W        W30513  32.511  35.667   0.418
58089W        W30514  31.976  29.491   4.779
58090W        W30515  38.338   8.878  11.893
58091W        W30516  20.312  14.365   0.269
58092W        W30517  12.695   7.643  10.693
58093W        W30518  29.405  22.449  12.885
58094W        W30519  24.044  30.369   2.227
58095W        W30520   2.872   8.704  13.474
58096W        W30521  15.644  32.526  10.686
58097W        W30522  14.744  22.993   0.992
58098W        W30523  31.594  26.481  13.921
58099W        W30524  19.813  23.203   2.415
58100W        W30525   9.809  20.272   1.359
58101W        W30526  38.810   9.374   0.279
58102W        W30527  25.668  28.945   2.360
58103W        W30528  43.773  35.698   2.818
58104W        W30529  14.056   2.813   1.584
58105W        W30530  21.735  19.073  13.886
58106W        W30531  15.244   8.218  13.812
58107W        W30532  38.129  40.754  13.247
58108W        W30533  21.837   5.175   3.738
58109W        W30534  25.016  16.043   1.446
58110W        W30535  25.182  19.780  13.312
58111W        W30536  30.571  14.030  13.060
58112W        W30537   9.997  29.164  11.046
58113W        W30538  35.524  32.637   2.810
58114W        W30539   4.781  16.263  13.881
58115W        W30540   0.067   4.136  13.090
58116W        W30541   2.253  23.954  12.348
58117W        W30542  34.829   2.217  13.943
58118W        W30543  35.052  25.912   0.440
58119W        W30544  32.498  29.531   4.685
58120W        W30545  39.985  37.531   0.398
58121W        W30546  32.618  40.287  10.680
58122W        W30547  26.976  41.337  11.913
58123W        W30548  28.614  13.790  12.191
58124W        W30549  10.845  29.915   4.279
58125W        W30550  22.524  41.826  13.262
58126W        W30551  15.479  18.079   2.859
58127W        W30552  13.351  29.585   5.055
58128W        W30553  21.131  36.459  10.707
58129W        W30554  26.026  40.495   3.138
58130W        W30555  15.378  34.308  14.908
58131W        W30556  15.210   4.570  11.930
58132W        W30557  44.827  14.122   1.130
58133W        W30558  29.142  19.504  12.074
58134W        W30559   6.384  30.174   1.345
58135W        W30560   7.166  38.414  12.988
58136W        W30561  39.822   8.659  14.858
58137W        W30562  15.901   2.194   3.037
58138W        W30563  15.361  36.189   2.695
58139W        W30564   0.574  37.467   1.686
58140W        W30565   6.479   4.797   3.068
58141W        W30566  13.170  28.161  10.635
58142W        W30567  42.780  31.589  14.421
58143W        W30568  23.016  21.191   4.699
58144W        W30569  40.880  25.055  14.141
58145W        W30570   9.805   9.732  11.618
58146W        W30571   9.316  44.360   2.009
58147W        W30572   8.641  35.429   0.344
58148W        W30573  34.793   3.178   5.151
58149W        W30574  32.938  36.483   4.369
58150W        W30575  25.084  11.979   1.439
58151W        W30576  39.263  26.569   4.320
58152W        W30577  25.771  42.041  13.033
58153W        W30578  21.300  12.155  10.754
58154W        W30579  43.355   5.947  10.573
58155W        W30580   2.519   6.744   0.338
58156W        W30581  23.203  39.771  11.525
58157W        W30582  15.522  40.384   0.864
58158W        W30583  19.514   9.197   0.429
58159W        W30584  13.595  25.092   1.962
58160W        W30585   0.542   6.423  12.948
58161W        W30586  44.265  42.886  12.024
58162W        W30587   8.106   6.826  12.932
58163W        W30588  22.744  10.712   0.738
58164W        W30589  24.711  34.866   3.212
58165W        W30590  16.356   7.246  11.656
58166W        W30591  36.572  24.172   3.790
58167W        W30592  30.131   7.834   1.056
58168W        W30593   5.980  19.203  12.913
58169W        W30594  15.558   4.679  12.886
58170W        W30595   4.822  22.678  10.515
58171W        W30596  38.019  12.172  11.906
58172W        W30597  31.977  10.273   4.932
58173W        W30598   5.862  16.634   2.909
58174W        W30599   6.191  13.279  11.200
58175W        W30600   2.797  39.028   2.652
58176W        W30601  15.078  22.800  14.463
58177W        W30602   8.960  13.583  11.545
58178W        W30603  23.838  26.531   1.474
58179W        W30604  23.907   9.215  11.545
58180W        W30605   5.264  39.011  10.757
58181W        W30606  40.828  44.125   2.735
58182W        W30607  25.965   7.051   1.647
58183W        W30608  41.887  34.611  13.106
58184W        W30609  24.332  28.327  10.356
58185W        W30610  11.222  29.677  11.087
58186W        W30611  44.557  22.638   2.897
58187W        W30612  15.756   0.003   3.726
58188W        W30613  15.220  36.878  11.454
58189W        W30614  25.733  35.985   1.397
58190W        W30615  34.169   8.818   3.868
58191W        W30616  26.333  38.493  14.597
58192W        W30617  38.628   4.754   4.404
58193W        W30618  21.928  32.073   2.231
58194W        W30619   2.140  35.110   1.818
58195W        W30620  35.911  35.462  13.610
58196W        W30621   1.754  20.351   4.524
58197W        W30622  24.334  33.086   2.125
58198W        W30623  27.687  35.117   2.245
58199W        W30624  34.650  15.358   3.220
58200W        W30625  28.893  39.844   1.955
58201W        W30626  22.818   7.907  10.150
58202W        W30627  18.572  10.302  12.623
58203W        W30628  16.624   9.740  14.083
58204W        W30629   8.229  24.943   0.431
58205W        W30630  29.533  43.525   1.479
58206W        W30631  26.473  14.699   4.671
58207W        W30632  22.175  33.136  14.364
58208W        W30633   0.013  42.618  12.363
58209W        W30634  15.248  22.639  11.684
58210W        W30635   2.503  19.743  13.525
58211W        W30636   1.395  33.310   0.664
58212W        W30637   9.636  36.106   1.275
58213W        W30638  13.459  12.078  11.043
58214W        W30639   1.281  32.506   4.337
58215W        W30640  29.492   7.817   4.428
58216W        W30641  43.544  22.624  12.979
58217W        W30642   3.917  38.198   2.425
58218W        W30643  23.730   4.977  11.995
58219W        W30644  37.773   8.935  14.981
58220W        W30645  41.208  30.054  12.011
58221W        W30646  42.315  32.994  14.703
58222W        W30647   9.732  15.202  13.892
58223W        W30648  38.456   2.903  11.840
58224W        W30649  33.654   3.438  11.660
58225W        W30650  29.494   3.501   3.654
58226W        W30651  36.988   9.132   3.689
58227W        W30652  26.119  30.096  11.598
58228W        W30653   5.045  29.362   3.182
58229W        W30654   0.981  24.446  11.087
58230W        W30655  18.517   2.433   2.699
58231W        W30656  10.806  41.994  13.402
58232W        W30657  37.258  36.329   1.814
58233W        W30658  28.939  28.731   4.285
58234W        W30659   9.748  43.927   3.483
58235W        W30660  38.919   7.118  10.979
58236W        W30661  35.355  37.760  13.736
58237W        W30662  25.147  25.950   3.141
58238W        W30663  29.647  27.567  11.110
58239W        W30664   7.017  23.358  14.549
58240W        W30665  11.613  41.838  12.959
58241W        W30666  19.729  24.412   0.142
58242W        W30667  13.088   9.390  11.799
58243W        W30668  40.631  14.912   1.781
58244W        W30669  40.392  43.205  10.443
58245W        W30670   1.765  31.517  14.314
58246W        W30671   1.656   4.802  13.833
58247W        W30672   9.318  17.954  10.986
58248W        W30673   0.418  29.398   3.281
58249W        W30674  28.574  22.793  11.983
58250W        W30675   5.209  22.626   1.560
58251W        W30676  14.966  20.164  14.351
58252W        W30677  22.659  12.600  11.100
58253W        W30678  18.977  31.664   2.836
58254W        W30679   0.115  27.908  14.266
58255W        W30680  31.463  44.049  11.160
58256W        W30681  38.404  26.410   0.953
58257W        W30682  16.498  35.555  11.114
58258W        W30683  39.432  30.724   4.151
58259W        W30684  41.006  42.422  14.936
58260W        W30685  21.748  22.252  14.537
58261W        W30686   7.440   1.332  13.349
58262W        W30687  22.386  15.173   0.971
58263W        W30688  43.690  26.997  12.719
58264W        W30689  14.884   5.404  12.146
58265W        W30690  27.653  20.604  11.581
58266W        W30691   7.243  39.929  13.146
58267W        W30692  23.353  22.609   4.202
58268W        W30693  41.759  43.228   1.475
58269W        W30694  42.833   8.982  13.696
58270W        W30695  14.322   3.866   4.541
58271W        W30696  20.199  16.473  13.293
58272W        W30697  13.211  41.728   2.408
58273W        W30698   9.554  39.528  11.502
58274W        W30699  29.867  29.123   2.755
58275W        W30700  36.586  31.418  12.185
58276W        W30701  23.344   8.066   5.407
58277W        W30702  17.072  34.911  14.967
58278W        W30703  38.330  41.332   2.339
58279W        W30704  31.307  20.963  12.181
58280W        W30705   4.746  24.219  13.752
58281W        W30706   0.303  27.939   1.317
58282W        W30707   1.311  29.693  12.452
58283W        W30708  39.074  13.204  12.372
58284W        W30709  27.783  17.221  11.022
58285W        W30710  16.120  25.580  10.475
58286W        W30711  13.682  20.201   3.316
58287W        W30712  39.464  18.660  14.768
58288W        W30713  26.477   2.770  14.759
58289W        W30714  21.676  16.592   0.608
58290W        W30715  17.063   1.626   3.134
58291W        W30716  33.189   1.959   1.792
58292W        W30717  11.924  13.915   0.294
58293W        W30718   5.671   7.714   1.583
58294W        W30719  38.868  39.582  14.315
58295W        W30720  10.164  25.635   4.652
58296W        W30721   1.433  12.664   1.479
58297W        W30722  13.078  34.218   2.562
58298W        W30723   0.204  20.456  12.784
58299W        W30724  34.815  20.492  11.028
58300W        W30725  27.277  30.341   3.310
58301W        W30726  23.261   6.456   3.106
58302W        W30727  38.446  43.649  12.328
58303W        W30728  17.248  41.580   0.258
58304W        W30729  14.232  27.468   0.983
58305W        W30730   4.859  34.689   4.222
58306W        W30731  15.098  17.732   0.346
58307W        W30732   0.167  19.945  12.653
58308W        W30733   6.439  19.447  10.283
58309W        W30734  41.923   1.029  11.060
58310W        W30735  32.624  18.051   0.751
58311W        W30736  32.138   1.361  13.103
58312W        W30737   4.610  32.152  13.797
58313W        W30738  40.810  25.471  14.558
58314W        W30739  26.484  43.882   4.424
58315W        W30740   2.676  14.724   3.757
58316W        W30741  24.602  23.622   3.655
58317W        W30742  15.333  21.903   0.484
58318W        W30743  31.482   2.915  11.197
58319W        W30744  18.161  35.394  14.247
58320W        W30745  12.872  12.736  11.818
58321W        W30746  40.282   4.831   1.910
58322W        W30747  41.754   3.216   2.116
58323W        W30748  41.537  11.839   3.325
58324W        W30749   2.651  34.187  12.094
58325W        W30750  14.144   1.456  13.716
58326W        W30751  22.853  15.552   1.620
58327W        W30752  17.507  19.489   0.349
58328W        W30753  39.392   3.392  12.976
58329W        W30754  17.809  26.968   0.722
58330W        W30755  27.913  30.794  11.569
58331W        W30756  32.607  27.989  14.420
58332W        W30757   1.362  34.928  10.696
58333W        W30758   0.526   3.823  14.411
58334W        W30759   0.216  26.536   0.245
58335W        W30760  42.936  15.610  13.381
58336W        W30761  29.103  31.327  13.533
58337W        W30762  20.016  31.818   9.824
58338W        W30763   4.896  14.525  11.182
58339W        W30764  41.285  15.869   2.209
58340W        W30765  35.022   9.743  11.834
58341W        W30766  30.155  36.278   2.800
58342W        W30767  42.539  27.478   0.815
58343W        W30768   1.414  22.808  10.419
58344W        W30769  22.011  22.693   1.951
58345W        W30770  43.556  17.696  14.235
58346W        W30771  24.952  28.061  13.413
58347W        W30772  40.430  13.219  12.968
58348W        W30773  43.990  38.786  14.961
58349W        W30774  31.871  31.609   4.373
58350W        W30775  38.023  15.078   0.383
58351W        W30776   7.665  26.117  13.466
58352W        W30777  19.261  28.833   2.860
58353W        W30778   3.642  38.051  13.905
58354W        W30779  29.873  33.597   4.199
58355W        W30780   4.450  42.508  12.037
58356W        W30781  21.574   5.284  14.486
58357W        W30782  31.518  30.052  14.302
58358W        W30783   7.774   9.870  13.040
58359W        W30784   2.806  26.482   0.651
58360W        W30785   7.273  16.273  13.871
58361W        W30786  28.721  34.449  12.423
58362W        W30787  39.523  41.995   9.728
58363W        W30788  40.018  30.672  13.001
58364W        W30789  37.136   4.684   1.184
58365W        W30790  12.029  44.292  12.446
58366W        W30791  10.144  37.766  14.027
58367W        W30792  41.039  17.054  14.954
58368W        W30793  34.598  13.077  13.875
58369W        W30794  17.656  28.468   0.304
58370W        W30795  13.350  20.066   4.465
58371W        W30796  30.533  41.854   0.034
58372W        W30797  41.802  32.459  10.491
58373W        W30798   1.017  39.622   0.469
58374W        W30799   3.370  43.499  11.656
58375W        W30800  40.293  16.053   3.230
58376W        W30801  19.804  34.278   1.806
58377W        W30802  20.648  15.897   3.944
58378W        W30803  41.624  33.503   3.162
58379W        W30804  37.176  34.004   3.319
58380W        W30805  26.678  26.018  13.327
58381W        W30806  14.809  44.389  12.005
58382W        W30807  27.670   9.330  12.289
58383W        W30808   1.847  33.541  12.057
58384W        W30809  23.560  44.253   1.264
58385W        W30810   1.174  10.779   4.587
58386W        W30811  18.640   0.025   4.893
58387W        W30812  23.634  15.154   1.149
58388W        W30813   5.464  44.460   1.824
58389W        W30814  16.227  42.856  12.532
58390W        W30815   7.188  13.252  13.061
58391W        W30816  18.158  18.771   3.692
58392W        W30817  43.227  32.672   3.307
58393W        W30818  36.574  34.562   1.531
58394W        W30819  27.361  26.472   1.444
58395W        W30820  16.077  36.018   0.956
58396W        W30821  28.963   8.425   2.807
58397W        W30822  11.673  38.771  10.574
58398W        W30823  12.737  20.472  13.811
58399W        W30824   5.007  12.731  14.964
58400W        W30825  36.097   2.906  11.105
58401W        W30826  13.660   9.881   4.212
58402W        W30827  38.403   7.586   0.323
58403W        W30828  34.075  11.436   3.251
58404W        W30829  41.286  39.399   0.714
58405W        W30830  32.188  34.518  11.850
58406W        W30831  41.436  36.910  13.478
58407W        W30832   3.856  44.175   1.233
58408W        W30833  11.187  42.386   2.672
58409W        W30834  38.853  27.157   1.443
58410W        W30835   7.925  21.101   3.659
58411W        W30836   8.209   6.445  14.053
58412W        W30837  44.401  23.598  12.464
58413W        W30838  36.038   5.943  13.948
58414W        W30839  23.935  15.201  13.410
58415W        W30840  12.843  15.679   4.666
58416W        W30841  12.098  42.006   3.998
58417W        W30842   4.800   5.971   4.280
58418W        W30843   1.396  34.439   2.475
58419W        W30844  23.273   0.569  12.909
58420W        W30845   5.143  21.091  14.666
58421W        W30846  27.123  18.644  11.753
58422W        W30847  23.746  21.515  13.915
58423W        W30848   2.979  36.403   1.845
58424W        W30849   6.817  30.459   3.189
58425W        W30850   2.896  26.657  10.778
58426W        W30851   7.656  20.089  13.829
58427W        W30852  27.029  29.429  11.581
58428W        W30853  24.966   0.573   0.744
58429W        W30854   0.529  30.709   2.028
58430W        W30855  16.017  39.042   3.168
58431W        W30856  21.593   4.754   3.579
58432W        W30857  12.158  36.759  10.831
58433W        W30858  10.381   9.776  14.472
58434W        W30859  44.953  12.513   3.644
58435W        W30860   9.190   9.421   0.428
58436W        W30861  39.293  16.115   3.274
58437W        W30862  38.140  30.492   3.793
58438W        W30863  11.131  25.525  13.067
58439W        W30864  27.098  29.556   2.601
58440W        W30865   9.413  10.086  11.545
58441W        W30866  13.214  44.834   4.541
58442W        W30867  39.982  37.998   4.930
58443W        W30868  20.070  24.257  14.743
58444W        W30869  23.077  15.171   3.197
58445W        W30870   0.774  18.810   3.851
58446W        W30871  21.522  43.820  11.212
58447W        W30872  34.006   6.728   3.564
58448W        W30873   3.416  35.876  11.631
58449W        W30874  20.061   2.165  14.216
58450W        W30875  32.891  20.459  11.035
58451W        W30876  35.865  20.256  14.245
58452W        W30877  11.675  37.395   4.535
58453W        W30878   1.674  34.915   1.542
58454W        W30879  25.868   1.774   0.443
58455W        W30880   0.163  30.004  11.188
58456W        W30881  27.986  24.476   1.345
58457W        W30882  39.788   6.385  14.528
58458W        W30883  18.798  31.411   1.952
58459W        W30884  32.220  11.597   2.684
58460W        W30885  24.199  31.387   3.135
58461W        W30886   7.007   3.380  11.639
58462W        W30887  26.918   8.911  12.024
58463W        W30888  42.975  27.694   1.038
58464W        W30889   6.402  43.444  14.243
58465W        W30890  40.480  44.940  11.117
58466W        W30891  16.515  34.634   2.098
58467W        W30892  41.486  43.800   3.768
58468W        W30893  12.709  15.564  11.588
58469W        W30894  39.916  17.139   1.372
58470W        W30895  27.503  17.492   3.166
58471W        W30896   7.317  37.116  14.416
58472W        W30897  24.566   4.114  12.664
58473W        W30898  30.246   2.618   3.178
58474W        W30899  40.333  42.037   1.147
58475W        W30900   9.730  40.259   3.629
58476W        W30901   6.457  30.705  14.342
58477W        W30902  32.000  38.454   4.516
58478W        W30903  33.856  24.484   4.265
58479W        W30904  35.430  32.664   4.618
58480W        W30905   3.914  32.676  12.785
58481W        W30906  17.094  32.403  10.123
58482W        W30907  32.947  13.545  13.821
58483W        W30908  29.478  21.846  12.629
58484W        W30909  33.537  44.613  11.897
58485W        W30910  28.642   0.399  11.586
58486W        W30911  37.501  15.535  11.523
58487W        W30912  22.085   5.380  14.258
58488W        W30913   6.312  33.873  12.363
58489W        W30914   7.737  26.425   2.303
58490W        W30915  30.358  18.793  10.102
58491W        W30916  33.937  34.746  12.573
58492W        W30917  28.412  18.102  14.711
58493W        W30918  22.217  14.351  14.975
58494W        W30919  37.037  27.578   4.679
58495W        W30920   8.594  32.285  12.157
58496W        W30921   2.307  15.620   1.011
58497W        W30922  22.777  24.641  13.803
58498W        W30923   6.878  10.217  11.529
58499W        W30924   5.094  14.165   2.770
58500W        W30925   1.860  21.609   0.104
58501W        W30926  33.829   8.868   2.833
58502W        W30927  21.067  34.777   1.274
58503W        W30928   6.670  38.425  13.143
58504W        W30929  26.045  44.749  13.873
58505W        W30930  29.968   9.985   4.250
58506W        W30931   7.639   2.859   2.811
58507W        W30932  30.116   4.921   2.158
58508W        W30933  21.546  18.308   0.772
58509W        W30934  32.129  15.682  10.173
58510W        W30935  18.679  34.396   3.287
58511W        W30936  37.567  22.358  10.242
58512W        W30937  30.719  34.435  10.617
58513W        W30938  20.235  38.157  14.003
58514W        W30939  38.128  42.510   3.706
58515W        W30940   7.281  29.048   1.236
58516W        W30941  37.857  11.946   1.274
58517W        W30942  18.198  35.271   0.623
58518W        W30943  11.835  42.727  13.849
58519W        W30944  18.692  37.321   1.767
58520W        W30945  29.580  41.298  12.886
58521W        W30946  44.998  44.243   3.787
58522W        W30947  44.847   2.349  11.995
58523W        W30948  17.114   1.223  12.142
58524W        W30949  29.462  30.307   5.133
58525W        W30950  15.698  33.273   0.447
58526W        W30951  29.836  29.975  11.217
58527W        W30952  11.326  25.475  11.696
58528W        W30953  19.985  10.247   3.564
58529W        W30954   2.746  24.897   0.770
58530W        W30955  36.472  30.296   3.429
58531W        W30956  18.730  21.071  11.434
58532W        W30957  30.408  12.678  13.075
58533W        W30958  15.849  17.293  14.971
58534W        W30959  34.367  31.653   2.861
58535W        W30960  22.260  12.149  14.339
58536W        W30961   4.790  40.150  11.100
58537W        W30962  40.524   2.445   3.682
58538W        W30963   5.647  39.024  12.041
58539W        W30964   6.523  40.104   4.903
58540W        W30965  18.574  23.475   4.611
58541W        W30966   2.954  29.115  11.858
58542W        W30967   2.792  32.844   1.813
58543W        W30968  44.152  32.186   4.578
58544W        W30969  16.743  35.903   3.650
58545W        W30970  44.650  19.595  12.008
58546W        W30971  16.777  41.323  11.965
58547W        W30972  11.996  25.620  14.898
58548W        W30973   2.320   9.183  11.942
58549W        W30974   8.321  38.464  10.625
58550W        W30975  10.623  39.609   0.832
58551W        W30976  20.628  26.967   4.915
58552W        W30977  34.303  15.747  12.557
58553W        W30978  24.549  15.132   1.269
58554W        W30979  20.837  38.453   2.576
58555W        W30980  11.801  39.410   4.642
58556W        W30981  33.877   9.537  11.734
58557W        W30982  18.205  37.868   4.800
58558W        W30983  18.061  39.285  11.871
58559W        W30984  35.088  27.954   2.420
58560W        W30985  20.253  31.715  10.278
58561W        W30986  41.189   8.007   4.842
58562W        W30987  33.444  40.178   4.385
58563W        W30988  29.290  42.889  10.729
58564W        W30989  27.629  11.723   4.610
58565W        W30990  14.882  11.944  11.980
58566W        W30991  40.343   6.695   4.038
58567W        W30992  26.179   8.382  11.644
58568W        W30993  42.197  35.967   2.727
58569W        W30994  20.330  12.359  11.428
58570W        W30995  19.614  11.217  12.039
58571W        W30996  16.242  42.595  14.147
58572W        W30997  28.965   4.429   3.619
58573W        W30998  13.317  34.603   1.598
58574W        W30999   6.840  19.624   4.196
58575W        W31000  32.054  27.145   0.489
58576W        W31001  44.336  20.275  11.052
58577W        W31002  11.934  39.857  13.917
58578W        W31003   3.743  42.346  12.023
58579W        W31004  18.664  36.718  12.396
58580W        W31005  13.456  14.714   3.764
58581W        W31006  36.540  36.018   3.671
58582W        W31007   1.275  16.921   2.497
58583W        W31008  39.474  39.842  14.808
58584W        W31009   3.725  24.994  12.322
58585W        W31010   3.958  40.865  13.949
58586W        W31011  24.725  10.133   2.531
58587W        W31012  29.040   2.674  11.134
58588W        W31013  28.863  23.351  13.514
58589W        W31014  18.162  13.723   2.404
58590W        W31015  17.036  36.613  11.538
58591W        W31016  24.008  12.634  10.934
58592W        W31017   2.187  16.782  11.089
58593W        W31018  33.968  43.244   3.606
58594W        W31019  23.087  39.576  11.997
58595W        W31020   1.766  19.709   0.234
58596W        W31021  43.928  21.516   1.583
58597W        W31022  18.199  29.986   3.675
58598W        W31023   4.867   5.378   2.419
58599W        W31024  24.894  14.772   0.861
58600W        W31025  13.676  15.733   4.165
58601W        W31026  12.145   3.225  10.954
58602W        W31027  35.929   2.701   0.731
58603W        W31028  37.582  10.782  13.984
58604W        W31029  37.952  32.392  13.382
58605W        W31030  30.019  10.180  14.904
58606W        W31031   0.005  37.997   2.624
58607W        W31032  24.455  39.578   4.602
58608W        W31033   3.142  40.425  12.398
58609W        W31034   1.632  26.100   1.184
58610W        W31035  37.295  28.735  13.510
58611W        W31036  10.648  44.958  12.334
58612W        W31037   4.981  38.781   3.658
58613W        W31038  24.866   7.886  11.719
58614W        W31039  35.559  39.944  10.810
58615W        W31040   5.816   5.509  14.958
58616W        W31041  23.745  29.333   2.246
58617W        W31042  21.575  29.702  11.188
58618W        W31043  21.513   4.420  14.444
58619W        W31044  25.506  40.467   1.878
58620W        W31045   6.419   7.098  10.729
58621W        W31046  30.821  22.549  12.944
58622W        W31047  35.063  26.502  14.060
58623W        W31048  33.526  28.286   4.511
58624W        W31049   6.318  27.190  11.527
58625W        W31050  19.174  30.550   4.923
58626W        W31051  24.059   2.996  14.280
58627W        W31052  22.068  42.534   2.658
58628W        W31053  16.626  10.447   2.921
58629W        W31054  13.167  27.361   3.892
58630W        W31055   2.655  26.662  14.760
58631W        W31056   5.765  23.587  11.226
58632W        W31057  36.971   8.741   2.875
58633W        W31058  20.671  31.382  10.202
58634W        W31059  40.045   7.885   1.204
58635W        W31060  17.021   1.908  10.756
58636W        W31061  14.102  23.529  14.513
58637W        W31062  31.101  35.049   3.177
58638W        W31063   4.844  22.709   0.245
58639W        W31064   7.311  36.904   1.428
58640W        W31065  21.891  38.971  10.666
58641W        W31066   8.480  42.874   0.209
58642W        W31067  23.406  43.857   1.988
58643W        W31068  38.637  36.768   1.461
58644W        W31069  16.660  27.694   0.801
58645W        W31070  34.606  31.496  13.819
58646W        W31071  13.535  20.217  12.934
58647W        W31072  29.446  11.381  13.558
58648W        W31073  22.604   6.831   0.440
58649W        W31074  31.317  30.645   0.495
58650W        W31075  21.568   9.996  13.830
58651W        W31076  13.068   3.201  13.925
58652W        W31077  17.986  42.212  14.239
58653W        W31078  26.992  30.366  13.051
58654W        W31079  25.676   3.466   0.877
58655W        W31080  28.377  42.516  13.270
58656W        W31081  42.897  12.191  12.400
58657W        W31082  22.394  41.358   4.616
58658W        W31083  29.431  24.567  13.913
58659W        W31084   0.066  37.490   1.750
58660W        W31085  11.781  17.548  14.013
58661W        W31086   8.932  27.579   0.121
58662W        W31087  17.358  31.456  13.893
58663W        W31088  29.332   9.233  14.712
58664W        W31089  18.094  23.178   3.893
58665W        W31090  16.671  23.125   4.570
58666W        W31091  28.802  30.302   5.048
58667W        W31092  41.971  40.890   0.860
58668W        W31093  21.298   7.987   0.599
58669W        W31094  14.861  30.916   2.769
58670W        W31095  38.693  41.745   0.529
58671W        W31096   5.897  18.559   1.760
58672W        W31097  37.582  14.218   0.711
58673W        W31098   4.921   6.999   1.356
58674W        W31099  30.433   9.733   0.377
58675W        W31100  15.540  23.809   1.333
58676W        W31101   0.139  37.322  14.263
58677W        W31102  20.035  36.576  14.802
58678W        W31103  20.348  20.226   0.224
58679W        W31104  20.812  27.411  13.374
58680W        W31105  44.941  27.176   1.727
58681W        W31106  24.098  26.619   4.844
58682W        W31107  25.270  11.869  14.861
58683W        W31108  24.214  42.873   3.596
58684W        W31109  39.324   2.560   4.103
58685W        W31110   2.520  25.256  14.013
58686W        W31111  17.742  30.794   4.551
58687W        W31112  38.957  10.015  10.073
58688W        W31113   4.647  21.062  13.497
58689W        W31114  37.653  25.645  11.102
58690W        W31115  40.788  37.995   4.039
58691W        W31116  12.937  31.515   0.308
58692W        W31117  35.465  27.749  14.396
58693W        W31118  44.444  24.168   1.217
58694W        W31119  32.204   2.507   4.492
58695W        W31120  25.425   9.849   3.418
58696W        W31121  22.204   0.816  12.877
58697W        W31122  42.654  13.704   0.439
58698W        W31123  20.232  23.651  11.229
58699W        W31124  40.665   4.710  10.929
58700W        W31125  15.627  23.397   4.669
58701W        W31126  26.761   3.732   1.701
58702W        W31127  34.561  35.512   4.547
58703W        W31128  25.926  12.812   3.657
58704W        W31129  10.818  43.690  11.076
58705W        W31130  21.685  10.326   1.904
58706W        W31131  14.272  20.658   1.207
58707W        W31132  21.105   0.299  11.583
58708W        W31133  25.108  22.501   4.011
58709W        W31134  38.360  31.996   0.428
58710W        W31135  35.798  13.643   2.350
58711W        W31136  22.209  35.159   1.788
58712W        W31137  25.691  27.576  10.883
58713W        W31138  35.801  23.154   0.455
58714W        W31139  23.546   3.732   3.173
58715W        W31140  39.345   4.410  13.906
58716W        W31141  32.165   6.479  13.891
58717W        W31142   0.565  25.032   3.614
58718W        W31143   0.776  41.527   4.163
58719W        W31144  15.184   9.814  10.401
58720W        W31145  33.865  39.322   4.093
58721W        W31146  15.712  28.571   0.455
58722W        W31147   2.060   8.510  12.471
58723W        W31148  16.741  34.220   3.362
58724W        W31149   1.699   3.940   2.187
58725W        W31150  31.205   6.920   1.955
58726W        W31151  39.267  18.593  13.075
58727W        W31152  11.660  18.343  11.086
58728W        W31153  11.087  16.723   4.101
58729W        W31154  39.931  13.799  10.682
58730W        W31155   6.364  31.490  12.421
58731W        W31156  35.055  21.378  13.415
58732W        W31157  34.074  41.225  13.918
58733W        W31158  40.196   7.142   0.888
58734W        W31159   1.829  10.450   3.586
58735W        W31160  36.331  14.033   2.812
58736W        W31161  29.102  29.696   4.548
58737W        W31162  11.270   9.091   1.952
58738W        W31163  31.802  28.266  14.950
58739W        W31164  43.975  13.482   2.736
58740W        W31165   4.027  27.761   4.295
58741W        W31166  31.626  18.467   3.997
58742W        W31167   7.919  21.763   0.879
58743W        W31168  42.305  11.860   4.583
58744W        W31169  34.316   5.916   1.318
58745W        W31170   2.390   2.529   0.813
58746W        W31171   5.127   1.121  11.062
58747W        W31172  19.304  41.045   4.538
58748W        W31173  14.412  25.891   2.149
58749W        W31174   9.259   9.648  12.363
58750W        W31175  20.241  12.355   1.219
58751W        W31176  10.611  21.650  13.136
58752W        W31177  19.295  29.345   2.937
58753W        W31178  43.413  31.333  12.473
58754W        W31179  30.752  12.756  12.694
58755W        W31180   9.393  11.851   2.468
58756W        W31181  37.516  38.781  14.653
58757W        W31182  15.701  15.308   3.525
58758W        W31183  32.107  34.580   4.097
58759W        W31184  18.003   6.704  14.773
58760W        W31185   1.968   0.340  11.501
58761W        W31186  28.561  38.626   3.732
58762W        W31187  27.882   6.850   4.646
58763W        W31188  19.983  13.137  12.309
58764W        W31189  27.203  30.996  12.110
58765W        W31190  22.512  18.180   1.746
58766W        W31191  23.112   4.870   3.675
58767W        W31192  29.036  30.318  10.383
58768W        W31193  36.875  31.090  14.417
58769W        W31194  19.232  39.064  12.346
58770W        W31195  31.418  36.504   4.066
58771W        W31196  42.763  37.495  13.433
58772W        W31197  11.697  24.429  12.143
58773W        W31198  32.607   4.147   1.111
58774W        W31199  12.398  25.279  13.444
58775W        W31200  42.931  16.856   4.500
58776W        W31201  12.198   8.170   4.130
58777W        W31202  33.457   2.318   4.290
58778W        W31203  34.068  16.075  10.542
58779W        W31204  32.946   9.918   4.570
58780W        W31205   0.302  40.618  13.611
58781W        W31206   8.733  40.453   2.709
58782W        W31207  14.284  20.654  10.583
58783W        W31208  38.123  25.756   4.188
58784W        W31209  39.902  40.967  12.326
58785W        W31210   7.688  31.319  14.680
58786W        W31211   7.245  19.603   2.662
58787W        W31212  38.582   9.182  10.579
58788W        W31213  36.038  40.852   1.420
58789W        W31214  43.839  43.001  11.754
58790W        W31215  35.417  25.615  12.964
58791W        W31216  42.962  26.083   0.900
58792W        W31217  31.554   2.212   2.203
58793W        W31218  16.585  36.871   4.315
58794W        W31219  36.525  33.212   1.635
58795W        W31220   2.377  23.279  11.119
58796W        W31221  20.078  37.877   3.460
58797W        W31222  32.406  10.338  11.875
58798W        W31223   1.807  17.518  14.481
58799W        W31224  38.903  42.495   0.782
58800W        W31225   5.366  44.989   4.124
58801W        W31226  12.396  41.981   0.742
58802W        W31227   9.818  29.906   0.661
58803W        W31228  25.601  14.267  14.583
58804W        W31229  36.853  24.760   0.901
58805W        W31230  10.352  26.420  11.226
58806W        W31231  10.418   8.895   5.032
58807W        W31232  31.185  28.103   5.060
58808W        W31233   5.273  28.916  13.472
58809W        W31234  37.931  19.970   2.413
58810W        W31235  25.922  23.533   2.374
58811W        W31236  19.977  19.185   4.552
58812W        W31237  18.219  12.336   4.345
58813W        W31238   2.447  17.642  13.884
58814W        W31239  29.470  44.244  10.879
58815W        W31240   4.816  31.419   3.810
58816W        W31241  26.235  20.091   4.794
58817W        W31242  24.492  34.101   1.544
58818W        W31243  27.136   5.404   2.805
58819W        W31244  20.270   0.722   4.733
58820W        W31245  23.649  35.083  14.294
58821W        W31246  30.502  17.043  11.575
58822W        W31247  20.622  44.285  12.184
58823W        W31248  11.237   6.261  11.443
58824W        W31249  19.215  23.445   2.415
58825W        W31250  31.376  32.892   4.447
58826W        W31251   9.295  23.905  11.570
58827W        W31252  36.993  13.784  12.234
58828W        W31253  28.642  16.781   4.378
58829W        W31254  39.948   3.389  11.175
58830W        W31255  30.146  17.231  12.106
58831W        W31256  29.426  27.668  13.297
58832W        W31257  32.793  36.095  12.099
58833W        W31258  16.572   1.389   5.020
58834W        W31259  30.523  14.743   4.659
58835W        W31260  15.372   0.967  13.424
58836W        W31261  14.328  30.792   9.862
58837W        W31262  23.909  41.457   4.623
58838W        W31263  18.548  15.267  12.364
58839W        W31264  35.498  26.253  13.455
58840W        W31265  18.046  41.221   1.389
58841W        W31266  41.924  24.302  12.905
58842W        W31267   1.844  34.789  11.609
58843W        W31268  39.518   3.898  11.618
58844W        W31269  28.207  10.170  12.572
58845W        W31270  33.967  19.542   0.988
58846W        W31271  28.692  22.467  13.372
58847W        W31272  34.456  24.282   4.150
58848W        W31273  29.647  13.413  11.955
58849W        W31274  37.581   7.938   2.097
58850W        W31275  31.574  12.179   0.797
58851W        W31276  30.554  43.424  12.947
58852W        W31277  23.792   5.856  13.917
58853W        W31278  30.431  18.103   0.367
58854W        W31279  35.556  27.857   0.194
58855W        W31280   8.496  11.816   2.434
58856W        W31281   1.421   4.363  12.529
58857W        W31282   0.416  17.638  11.912
58858W        W31283  40.480  42.194  13.350
58859W        W31284  41.098  22.449   2.207
58860W        W31285   6.989  30.019   2.142
58861W        W31286   5.940  39.086  14.610
58862W        W31287  13.530  26.069   4.341
58863W        W31288  12.812  40.619  14.514
58864W        W31289  26.350  29.518   4.350
58865W        W31290   0.825   2.267   4.458
58866W        W31291  16.161   4.621  14.010
58867W        W31292   4.871  29.036  11.675
58868W        W31293  11.559  21.225  12.427
58869W        W31294  37.974   8.401  10.980
58870W        W31295   1.310  15.462   3.625
58871W        W31296  41.294   8.641   3.664
58872W        W31297  26.536   2.265  14.907
58873W        W31298  22.786  36.520   3.684
58874W        W31299   6.569  12.402  13.059
58875W        W31300  15.227  35.441  11.155
58876W        W31301  19.162  37.141   3.091
58877W        W31302  14.660  12.419  13.999
58878W        W31303  44.070  26.991   2.736
58879W        W31304  37.382   2.395   1.764
58880W        W31305   4.973  14.322  13.000
58881W        W31306  34.046  40.747   3.241
58882W        W31307  21.575  40.039  14.228
58883W        W31308  10.208  12.835  12.518
58884W        W31309  24.702  27.165  12.790
58885W        W31310  21.227  31.411  13.687
58886W        W31311  38.858   5.036   2.918
58887W        W31312   9.385  42.450  10.894
58888W        W31313   6.711  32.014   1.616
58889W        W31314   4.310  16.881   0.203
58890W        W31315   4.868  13.722  14.903
58891W        W31316  31.855  25.092   0.188
58892W        W31317   8.890  19.985  11.345
58893W        W31318  30.634  34.501   3.871
58894W        W31319  38.062  10.169   2.370
58895W        W31320   9.796   4.380   2.197
58896W        W31321  39.756   4.767   2.254
58897W        W31322  37.267  37.334  13.496
58898W        W31323  18.141  36.079  13.063
58899W        W31324  34.510  27.588   1.487
58900W        W31325   2.184  20.271   1.019
58901W        W31326  26.458  38.360  12.953
58902W        W31327  11.274  22.717  12.130
58903W        W31328   3.623  10.822  11.439
58904W        W31329  39.090  16.697   3.207
58905W        W31330   5.821  25.613   1.124
58906W        W31331  28.372   6.196   1.263
58907W        W31332  38.301   5.530  12.861
58908W        W31333   8.535  12.739   2.667
58909W        W31334   9.769  16.952   3.676
58910W        W31335  23.599  15.349   3.079
58911W        W31336  27.536  22.646   3.722
58912W        W31337  25.220  27.616  14.383
58913W        W31338   7.137   8.775  11.437
58914W        W31339  18.585  19.326  13.961
58915W        W31340   7.310  25.288  13.029
58916W        W31341  23.772  16.187   0.780
58917W        W31342  34.932   2.495  11.204
58918W        W31343  11.905   7.980  12.818
58919W        W31344  39.995  14.447   0.739
58920W        W31345  43.572   5.525   3.582
58921W        W31346   9.871  31.139   1.509
58922W        W31347  31.442  43.695  13.107
58923W        W31348  43.751  27.154   1.465
58924W        W31349  37.394   3.716   4.163
58925W        W31350   2.103  44.878  14.892
58926W        W31351  21.050  44.845  10.603
58927W        W31352  26.557  18.360   0.319
58928W        W31353  29.078   1.163   2.147
58929W        W31354  31.410   6.255   2.834
58930W        W31355   8.126  12.586   1.814
58931W        W31356  35.528  43.688  11.527
58932W        W31357  41.323  40.654  10.374
58933W        W31358  10.109   4.161  14.333
58934W        W31359  32.152  29.741   3.377
58935W        W31360  15.209  17.085   1.639
58936W        W31361  36.165   2.595   3.753
58937W        W31362   7.654  24.957   4.967
58938W        W31363  16.039  36.356  12.480
58939W        W31364   2.357  19.161  13.496
58940W        W31365  23.858  39.381   2.375
58941W        W31366  28.388  13.953   4.652
58942W        W31367  16.613  14.093  13.516
58943W        W31368  24.634  29.376  13.563
58944W        W31369  13.740  44.379   4.541
58945W        W31370  40.721  32.629  12.620
58946W        W31371  23.700  22.116   2.702
58947W        W31372   4.719   4.890   4.810
58948W        W31373  10.660  26.043  11.581
58949W        W31374  15.962  11.588  10.120
58950W        W31375  33.432  23.091   1.398
58951W        W31376  15.378  16.245   3.173
58952W        W31377  16.339  17.083   2.835
58953W        W31378  26.195   7.555  14.448
58954W        W31379   7.848  43.227  14.554
58955W        W31380  10.624  23.948  11.451
58956W        W31381   3.466  38.970   4.701
58957W        W31382  42.350  13.063  13.126
58958W        W31383   8.227  10.896   0.098
58959W        W31384  35.051  16.636  13.454
58960W        W31385  42.333  37.321  12.044
58961W        W31386  24.745  36.646  11.213
58962W        W31387   9.219  40.775   4.037
58963W        W31388  36.598   7.229   3.236
58964W        W31389  17.320   9.989  13.463
58965W        W31390  39.980  29.246   2.570
58966W        W31391  40.571   7.448   2.737
58967W        W31392  27.110  35.554  13.389
58968W        W31393  23.748  15.335   0.174
58969W        W31394  32.571   2.751  14.877
58970W        W31395  23.812  15.196   3.905
58971W        W31396  17.287  23.632  12.555
58972W        W31397  10.179   6.881   1.471
58973W        W31398  28.674  33.675  13.401
58974W        W31399  27.958  30.944   2.717
58975W        W31400  19.746  22.847  13.543
58976W        W31401   6.279  44.914   4.090
58977W        W31402  17.561  29.474   0.445
58978W        W31403  26.538  29.727  12.402
58979W        W31404  26.993   0.031  12.426
58980W        W31405  26.981  44.018  14.962
58981W        W31406  28.120   9.399   0.931
58982W        W31407  41.767  17.154   1.586
58983W        W31408  17.793   9.652   2.363
58984W        W31409   5.496  29.139  11.641
58985W        W31410  23.178  32.318   3.129
58986W        W31411  17.552  32.099  13.945
58987W        W31412  33.722  23.707   0.252
58988W        W31413  29.342  42.809  12.028
58989W        W31414  37.460  24.122   4.578
58990W        W31415  36.513   6.219   0.308
58991W        W31416  31.873  44.911  13.763
58992W        W31417  12.636  43.040   1.279
58993W        W31418  23.277  19.952   1.300
58994W        W31419  31.357   2.992  12.604
58995W        W31420   6.956   1.834   0.487
58996W        W31421  13.744   4.652   4.145
58997W        W31422  19.881  39.848   1.952
58998W        W31423  28.920  40.725  12.439
58999W        W31424  39.989  28.454  11.637
59000W        W31425   9.757   0.379   0.194
59001W        W31426  10.356  34.040   0.664
59002W        W31427   3.653  40.915   4.540
59003W        W31428  38.924   3.140   3.026
59004W        W31429  15.850  29.663   3.811
59005W        W31430  20.116  33.716  12.384
59006W        W31431  33.926  29.438  13.472
59007W        W31432  42.465  23.789  12.403
59008W        W31433  41.091   7.276  10.550
59009W        W31434  24.969  39.342   3.215
59010W        W31435  26.692  41.839   4.546
59011W        W31436  20.483  24.201   2.494
59012W        W31437  26.574   6.703  14.310
59013W        W31438  36.291  34.547  12.515
59014W        W31439  18.540   7.642   3.634
59015W        W31440  38.784   4.210   1.974
59016W        W31441   6.746   7.251  12.961
59017W        W31442  36.169  27.133  14.826
59018W        W31443  33.002  23.569   3.546
59019W        W31444   1.104   8.884   2.981
59020W        W31445  38.390  18.024  12.212
59021W        W31446  34.459   5.069   1.647
59022W        W31447  30.329  25.180   3.044
59023W        W31448  17.871  21.699  14.868
59024W        W31449  12.707  11.985   2.330
59025W        W31450  42.905  35.787   4.226
59026W        W31451  13.236  43.279   0.459
59027W        W31452  17.685   2.635  13.847
59028W        W31453  11.174  38.444  10.723
59029W        W31454  39.240  15.533  12.879
59030W        W31455  26.003  16.585   2.204
59031W        W31456   2.403  40.440   3.363
59032W        W31457   7.866  30.320  14.847
59033W        W31458  42.038  35.279  11.690
59034W        W31459   3.435  26.503   3.902
59035W        W31460   9.130  18.788   2.239
59036W        W31461  17.853  27.059  13.883
59037W        W31462  24.515  30.882  11.135
59038W        W31463  18.498  22.710  12.599
59039W        W31464  44.529  12.697   1.082
59040W        W31465   1.573   9.188   2.275
59041W        W31466  10.729   0.117  13.765
59042W        W31467  40.331  22.515  12.305
59043W        W31468   4.010   0.855   0.306
59044W        W31469  31.418  38.423   2.349
59045W        W31470  36.977  28.082  10.363
59046W        W31471  24.102   2.203  13.800
59047W        W31472  36.111  34.355   1.447
59048W        W31473   4.710  13.121   0.181
59049W        W31474   8.679  43.050   4.153
59050W        W31475  37.081  25.475  13.860
59051W        W31476  12.736  34.556   0.265
59052W        W31477   5.654  35.483  14.333
59053W        W31478  23.384  36.688   0.698
59054W        W31479  17.879  23.208   3.224
59055W        W31480  14.327  19.819  12.440
59056W        W31481   2.847  44.900   1.362
59057W        W31482  32.190  14.014  14.995
59058W        W31483  27.209  18.551  13.300
59059W        W31484   4.363  31.113   0.829
59060W        W31485   7.761   2.711  11.269
59061W        W31486  26.488  26.204  12.864
59062W        W31487  12.368  37.645   0.745
59063W        W31488  21.563  26.873   4.820
59064W        W31489   0.791  38.084   3.690
59065W        W31490  31.893  34.521   9.922
59066W        W31491  32.437  15.166  11.546
59067W        W31492  18.488  20.642  13.903
59068W        W31493  19.581   6.723   3.639
59069W        W31494  40.955  44.490  14.975
59070W        W31495   3.712  34.962   3.669
59071W        W31496   9.280  29.233   0.986
59072W        W31497  34.862  11.184   3.569
59073W        W31498  43.393  26.532  10.672
59074W        W31499  11.202  27.025  12.869
59075W        W31500  18.237  13.157  11.847
59076W        W31501   2.756   5.349   2.091
59077W        W31502   6.164   3.901  11.636
59078W        W31503  29.622  30.834   2.169
59079W        W31504  11.698  18.529  14.067
59080W        W31505   4.950   4.476   9.915
59081W        W31506  19.577  35.645   0.643
59082W        W31507  22.539  17.817  12.004
59083W        W31508  34.047  36.546   1.202
59084W        W31509  24.536   8.089  12.294
59085W        W31510   6.824   2.436   1.737
59086W        W31511   7.697   7.111   0.516
59087W        W31512  11.614  32.304  11.491
59088W        W31513  12.068  10.167  14.775
59089W        W31514  39.923  41.972  11.602
59090W        W31515  41.115   4.373   2.929
59091W        W31516  29.967   7.912   2.819
59092W        W31517  17.815  35.585  10.669
59093W        W31518  40.921  10.869  12.644
59094W        W31519  17.037   8.836  10.865
59095W        W31520   6.660  31.433  11.490
59096W        W31521  22.174  30.880  13.524
59097W        W31522  38.342  35.836   3.242
59098W        W31523  12.794  21.760  14.778
59099W        W31524   8.323  12.519  14.020
59100W        W31525  42.597  24.748  14.952
59101W        W31526  27.642  15.781  14.841
59102W        W31527  35.419   3.809  14.482
59103W        W31528  30.509  35.136   1.671
59104W        W31529   3.780  26.558  11.181
59105W        W31530  40.813  25.127   4.379
59106W        W31531  16.977  10.552  13.926
59107W        W31532  26.373  42.763  12.018
59108W        W31533   0.342  34.323   3.734
59109W        W31534   0.303  23.081   4.739
59110W        W31535  44.837  36.624   1.445
59111W        W31536  37.820  34.571   4.929
59112W        W31537   8.730  13.283   3.156
59113W        W31538   6.374  28.598  11.500
59114W        W31539  38.430  19.991  13.058
59115W        W31540  33.393   7.286  14.241
59116W        W31541  17.107   9.283   4.404
59117W        W31542   4.060   0.428  12.596
59118W        W31543   9.409  39.518  13.928
59119W        W31544  13.150  30.886   2.298
59120W        W31545   1.325   3.820  13.142
59121W        W31546  22.169  10.490   5.111
59122W        W31547  44.359   4.881   2.198
59123W        W31548   6.782  39.561  11.051
59124W        W31549  22.941  36.014  14.876
59125W        W31550  11.841  18.096   1.736
59126W        W31551   1.226  38.423  11.597
59127W        W31552  36.367  41.975   4.321
59128W        W31553   7.555  12.937   1.683
59129W        W31554  31.595   3.298   1.018
59130W        W31555  21.254  11.274   1.435
59131W        W31556  31.635  38.085   4.049
59132W        W31557  36.563  43.357   0.835
59133W        W31558  25.265  30.513  12.307
59134W        W31559   7.695  29.702  11.607
59135W        W31560  40.218  10.101   3.071
59136W        W31561  26.549  26.447   3.239
59137W        W31562   8.932  26.427   4.668
59138W        W31563  23.747  35.439  14.846
59139W        W31564  13.327   6.973   3.233
59140W        W31565  38.004  18.116   2.389
59141W        W31566  13.033  32.930   3.300
59142W        W31567  44.316  33.368  13.937
59143W        W31568  10.495  29.580  12.107
59144W        W31569  27.039  19.634  12.799
59145W        W31570  22.443   4.527   1.866
59146W        W31571  20.500   3.996   3.668
59147W        W31572  26.003  25.230  14.238
59148W        W31573   3.008   9.828  10.718
59149W        W31574  16.284  17.817   3.231
59150W        W31575  31.974  32.024   0.794
59151W        W31576  31.087  19.751   0.327
59152W        W31577  20.617  36.633   3.903
59153W        W31578  30.875  21.743  10.877
59154W        W31579  44.435  27.812  13.747
59155W        W31580  32.848  11.337  12.111
59156W        W31581  37.745  11.162   3.702
59157W        W31582  22.537  26.231  14.817
59158W        W31583  32.494  32.316   2.279
59159W        W31584  27.667   5.843   1.776
59160W        W31585  44.994  12.579  12.042
59161W        W31586  33.038  12.042   2.486
59162W        W31587  17.552  27.552   3.257
59163W        W31588  23.645  35.606   1.586
59164W        W31589   9.445  11.129  11.586
59165W        W31590  44.961   6.264   3.258
59166W        W31591  42.467   2.969  10.714
59167W        W31592  13.628  22.626  10.917
59168W        W31593  29.732  25.066   2.149
59169W        W31594   6.936  18.848  14.855
59170W        W31595   3.896  33.935   1.475
59171W        W31596  27.643  21.567   3.814
59172W        W31597  26.434  27.735   1.791
59173W        W31598  12.351  17.602  12.642
59174W        W31599  20.626  23.168   1.366
59175W        W31600  22.470  28.377   3.217
59176W        W31601  21.244  44.449  14.091
59177W        W31602   4.465   7.206   3.444
59178W        W31603  31.891  12.115  11.083
59179W        W31604   4.227   0.258  14.379
59180W        W31605  17.622   4.948  12.090
59181W        W31606  32.631  19.782   3.427
59182W        W31607  10.763  33.564   2.284
59183W        W31608  17.762  12.224   4.585
59184W        W31609   4.713  15.820   2.366
59185W        W31610  42.333  18.706   3.752
59186W        W31611  30.463  22.759  10.512
59187W        W31612  30.706  26.469  12.996
59188W        W31613   4.974  26.516   2.816
59189W        W31614  17.265  30.868   1.820
59190W        W31615  39.484  31.806   1.275
59191W        W31616  11.354  16.797  11.489
59192W        W31617  12.684   6.769  11.245
59193W        W31618  39.968   1.797   3.274
59194W        W31619  17.687  16.264  12.865
59195W        W31620  10.390  31.218   3.257
59196W        W31621  40.810  33.354  14.557
59197W        W31622  33.089  20.390   2.302
59198W        W31623  30.595  15.018  11.504
59199W        W31624  38.791  13.720   0.868
59200W        W31625  44.943   3.361   3.756
59201W        W31626   9.827  43.672  14.748
59202W        W31627  15.846  27.313   3.668
59203W        W31628   1.271  33.337  12.963
59204W        W31629  34.620  21.699  14.354
59205W        W31630  35.145   0.840  13.754
59206W        W31631  24.775  11.808   4.051
59207W        W31632  16.303  21.066   0.000
59208W        W31633  37.079  19.560   2.393
59209W        W31634  21.498  44.767  13.778
59210W        W31635  42.162  16.068   0.970
59211W        W31636  37.074   7.145   1.783
59212W        W31637  42.302  34.571   0.750
59213W        W31638  16.205  26.661   4.013
59214W        W31639   0.678  28.988  13.550
59215W        W31640   7.986  26.862   2.310
59216W        W31641   5.964  14.320   2.491
59217W        W31642  23.562  37.866   3.645
59218W        W31643   5.405  19.318  11.200
59219W        W31644   7.758   7.411  10.655
59220W        W31645  21.364  24.050   3.640
59221W        W31646  12.540  33.131   3.275
59222W        W31647  39.582  40.988  14.962
59223W        W31648  28.052   3.449  11.601
59224W        W31649  32.676  12.686   0.355
59225W        W31650  35.586  33.105  14.323
59226W        W31651   9.312  38.604   1.271
59227W        W31652  26.024   4.831  11.211
59228W        W31653  16.248   0.994  12.814
59229W        W31654  10.345  14.209  12.428
59230W        W31655  32.067  14.874  11.329
59231W        W31656  43.327  13.123   1.388
59232W        W31657  34.169  14.019  13.137
59233W        W31658  14.246   5.840   2.007
59234W        W31659  34.526   8.815   4.263
59235W        W31660  34.980  21.785   3.653
59236W        W31661  39.400  31.642   4.812
59237W        W31662  13.785  10.564  13.122
59238W        W31663  37.931  17.228  12.148
59239W        W31664  41.675  16.676  14.511
59240W        W31665  28.817  41.553  13.325
59241W        W31666  10.227  22.192  10.693
59242W        W31667   5.293  21.501  13.893
59243W        W31668  23.634  26.625   2.400
59244W        W31669  21.388  17.103  11.089
59245W        W31670   2.728  10.648   1.192
59246W        W31671  14.800  26.052  11.478
59247W        W31672  13.665  20.047  14.980
59248W        W31673  44.604   2.423   2.240
59249W        W31674   9.204  34.649  12.660
59250W        W31675  34.963   0.428   3.212
59251W        W31676  18.486   9.076   3.685
59252W        W31677  10.175  14.885   0.740
59253W        W31678  35.850  23.492   0.876
59254W        W31679   4.478  33.670  13.821
59255W        W31680  36.032   0.796  13.800
59256W        W31681   8.140   0.961   0.736
59257W        W31682   8.582  22.140   3.676
59258W        W31683  25.506  19.637   2.782
59259W        W31684  18.570  25.611   0.243
59260W        W31685  11.591  33.290   1.118
59261W        W31686  28.710  23.635  12.571
59262W        W31687   7.467   9.789   4.642
59263W        W31688   6.454  17.547  11.156
59264W        W31689  13.732   3.702   0.183
59265W        W31690  38.467  39.997   3.201
59266W        W31691  28.799  21.626   2.355
59267W        W31692   6.652  38.775  10.593
59268W        W31693   3.391  34.004  12.507
59269W        W31694  39.927  22.114   1.686
59270W        W31695  35.860   4.456  14.426
59271W        W31696  31.130  32.959   0.379
59272W        W31697  33.383   6.322  14.541
59273W        W31698   9.225  36.737  11.025
59274W        W31699   3.852  42.476   3.612
59275W        W31700  21.514  41.493  14.956
59276W        W31701  18.068  24.696  10.537
59277W        W31702  35.947  43.242   4.613
59278W        W31703  11.707  12.217   1.103
59279W        W31704  11.458  41.854   4.636
59280W        W31705  36.307   6.113   4.840
59281W        W31706  40.597  36.350   4.178
59282W        W31707   6.863  32.574  12.650
59283W        W31708  27.160  39.324   1.805
59284W        W31709   3.974  13.788  11.566
59285W        W31710   6.383  32.880   3.367
59286W        W31711  21.445  35.491   0.806
59287W        W31712  17.879   8.740   3.280
59288W        W31713   3.143  26.633  14.587
59289W        W31714   4.259  33.511   0.318
59290W        W31715  29.439   7.219  13.400
59291W        W31716   2.717  21.741   4.567
59292W        W31717  31.002  16.178   3.067
59293W        W31718  32.889  23.205  14.416
59294W        W31719   7.657  25.295  13.420
59295W        W31720  33.900  16.756   2.602
59296W        W31721  19.405  20.997   5.077
59297W        W31722   9.291  28.897   2.356
59298W        W31723   4.070  26.335   0.889
59299W        W31724  24.443  37.857   1.978
59300W        W31725  39.904  44.724  11.107
59301W        W31726  44.333  29.904   0.293
59302W        W31727   6.413  37.127  11.895
59303W        W31728   9.878  19.150  11.225
59304W        W31729  12.967  33.891   1.391
59305W        W31730  30.576  19.916   0.885
59306W        W31731  18.140   0.750  13.031
59307W        W31732  32.971  38.946  14.566
59308W        W31733  31.053  35.805  13.966
59309W        W31734  34.404   8.936  10.723
59310W        W31735  27.818  36.109   2.310
59311W        W31736  18.181   1.393  10.709
59312W        W31737  19.271   8.948   2.381
59313W        W31738  39.598  42.768   5.354
59314W        W31739  21.046  39.471  10.690
59315W        W31740   8.697  32.698   2.691
59316W        W31741  14.031  20.927   5.021
59317W        W31742  25.129   9.800  13.779
59318W        W31743  21.572  12.781   3.858
59319W        W31744  35.104  35.472  14.888
59320W        W31745  36.376  38.673   1.271
59321W        W31746  15.069  15.863   2.925
59322W        W31747  31.055   4.863  11.257
59323W        W31748  24.189  41.350  14.549
59324W        W31749  27.921  10.282  13.540
59325W        W31750  17.736   9.247  12.455
59326W        W31751  27.457  33.096  11.654
59327W        W31752  40.866   6.636   4.409
59328W        W31753  39.459  10.677   2.223
59329W        W31754  24.104  21.050  13.402
59330W        W31755  20.969  13.011  13.400
59331W        W31756  20.157  30.545  11.507
59332W        W31757   4.870  31.111   4.218
59333W        W31758   2.489   5.375  14.629
59334W        W31759   6.042  35.568  12.862
59335W        W31760  35.626  27.044  14.820
59336W        W31761  31.072  43.902  10.866
59337W        W31762  26.352  14.412   5.113
59338W        W31763  10.494  31.058   1.747
59339W        W31764  21.114  31.728  12.360
59340W        W31765   5.158  11.796  10.150
59341W        W31766  15.744  42.486   1.845
59342W        W31767  24.680  19.705   3.322
59343W        W31768   8.654  36.461   2.283
59344W        W31769   3.618  36.740  11.687
59345W        W31770  28.735  35.594  14.307
59346W        W31771  14.610   5.213   3.235
59347W        W31772  10.745  31.574   2.842
59348W        W31773  36.570  16.073  12.632
59349W        W31774  17.376   9.349   2.460
59350W        W31775  44.472   0.247   0.832
59351W        W31776  24.596  18.553  14.450
59352W        W31777  19.273  24.960  13.402
59353W        W31778  10.046   7.975  14.375
59354W        W31779  29.476  11.591  12.620
59355W        W31780  38.820  24.712  13.413
59356W        W31781  30.137  35.392   3.542
59357W        W31782   7.876   2.950   2.313
59358W        W31783  36.136  16.195   0.287
59359W        W31784  21.038  33.539  12.281
59360W        W31785  32.904   7.240   1.292
59361W        W31786   0.586  34.986   4.454
59362W        W31787  15.170  34.950   2.884
59363W        W31788  17.095   8.343   0.026
59364W        W31789  32.508   7.820   3.303
59365W        W31790  21.904  23.710  10.677
59366W        W31791  26.481  20.521  11.534
59367W        W31792  15.833  21.207  11.493
59368W        W31793  31.709  34.100  12.978
59369W        W31794   1.141  13.068  12.358
59370W        W31795   1.198   3.135   4.871
59371W        W31796  34.769   6.969  11.640
59372W        W31797  35.169   5.933  13.785
59373W        W31798  36.388  33.305  13.636
59374W        W31799   4.968  44.242  12.433
59375W        W31800  15.142  29.422  11.171
59376W        W31801  14.306  26.663   4.732
59377W        W31802   7.944   6.643   0.421
59378W        W31803   4.942  20.600   2.822
59379W        W31804  28.193  41.818   4.508
59380W        W31805  26.673  42.822   3.210
59381W        W31806  31.403  38.018  14.974
59382W        W31807  24.089  11.833  10.343
59383W        W31808  17.168  30.426   1.597
59384W        W31809  39.580  23.982   0.834
59385W        W31810  17.291  31.431   0.736
59386W        W31811  44.844   9.974  10.512
59387W        W31812  36.929  13.520   3.071
59388W        W31813  32.831  25.246   2.727
59389W        W31814  30.687  34.795  13.807
59390W        W31815   4.643  12.453  13.711
59391W        W31816  13.557   8.969   2.800
59392W        W31817  28.238  27.531   2.458
59393W        W31818  32.147  35.250  13.956
59394W        W31819  20.618   0.049   2.282
59395W        W31820  43.439  43.963  11.437
59396W        W31821  39.607  17.482   4.099
59397W        W31822  41.342  43.979   1.827
59398W        W31823  21.224  29.895   1.778
59399W        W31824  16.050  32.538  14.919
59400W        W31825   1.289  20.614  13.796
59401W        W31826  29.477   9.844   4.245
59402W        W31827  15.542  41.582   0.792
59403W        W31828  12.117  19.829   2.822
59404W        W31829   9.696  24.526  13.830
59405W        W31830   5.067  23.080  10.759
59406W        W31831  25.839  41.919  14.403
59407W        W31832   4.764  29.629   0.372
59408W        W31833  36.652  21.747   4.275
59409W        W31834  32.085  34.647  10.403
59410W        W31835   8.716  43.453  12.218
59411W        W31836  19.093  20.226   4.720
59412W        W31837  40.843  22.516  12.428
59413W        W31838  28.832  34.141  11.110
59414W        W31839   3.714  28.692  11.926
59415W        W31840  14.301   2.988   4.803
59416W        W31841   2.918  26.377  11.223
59417W        W31842  37.828  19.364   3.675
59418W        W31843  29.944  29.475  14.854
59419W        W31844   3.235  23.980  10.418
59420W        W31845  38.860   1.467  11.072
59421W        W31846  29.337  23.234  13.326
59422W        W31847  11.209  25.931  10.891
59423W        W31848  31.904  42.076   0.005
59424W        W31849  18.823  15.068   2.865
59425W        W31850  26.103  34.211  13.400
59426W        W31851  40.907  23.728   2.613
59427W        W31852  23.609   6.829   3.119
59428W        W31853   7.147  23.098  14.104
59429W        W31854  23.604   5.313   0.500
59430W        W31855  28.596  21.347  11.998
59431W        W31856  36.125  14.315   1.833
59432W        W31857   1.543  17.275  12.469
59433W        W31858  18.099  29.994   9.926
59434W        W31859   3.893  40.325   3.691
59435W        W31860   5.359  31.657  12.764
59436W        W31861   9.715  23.170  11.876
59437W        W31862  35.187   8.859   3.573
59438W        W31863   3.462  29.960  11.578
59439W        W31864   3.430   4.941   1.406
59440W        W31865  16.791  37.501   4.119
59441W        W31866  34.658  39.809  12.836
59442W        W31867   6.330   9.179   3.237
59443W        W31868  23.168  10.947   1.928
59444W        W31869   4.682  35.555   4.169
59445W        W31870  42.784  23.460   4.575
59446W        W31871  11.307  23.748   3.367
59447W        W31872  24.213  24.193   2.348
59448W        W31873  34.151  34.621  14.491
59449W        W31874  15.588  33.731   3.271
59450W        W31875  30.481   1.786  11.670
59451W        W31876  24.551   1.015   4.100
59452W        W31877  13.038  28.592   0.967
59453W        W31878  31.687   6.671   2.646
59454W        W31879  12.252  43.395   2.806
59455W        W31880  36.931  33.531   1.506
59456W        W31881  31.566  17.558   1.714
59457W        W31882  29.985  12.421   2.694
59458W        W31883   0.855  41.418  12.393
59459W        W31884  35.417  41.338  11.949
59460W        W31885   4.974  34.347   2.730
59461W        W31886  35.585  42.745   3.858
59462W        W31887  42.413  39.008  12.932
59463W        W31888   9.743  15.494  13.457
59464W        W31889  15.074  13.132   3.609
59465W        W31890   8.241  27.769  13.478
59466W        W31891   4.940  33.542  14.780
59467W        W31892  34.329  37.587  11.625
59468W        W31893  18.172  42.565   3.885
59469W        W31894   1.863   1.786   3.173
59470W        W31895  32.655  37.810   0.318
59471W        W31896  28.528   5.731  12.992
59472W        W31897   3.128  33.315  12.996
59473W        W31898   2.229  11.919   2.376
59474W        W31899  20.966   9.690  10.243
59475W        W31900  36.014  23.173   5.057
59476W        W31901   9.924   3.138  13.044
59477W        W31902  39.393  41.768   4.242
59478W        W31903  19.701  26.662  14.891
59479W        W31904  41.018   3.270  13.835
59480W        W31905  17.736  35.928   2.346
59481W        W31906   9.925  39.365   1.561
59482W        W31907  42.393  12.573   2.719
59483W        W31908  42.729  21.711   0.339
59484W        W31909  32.458   6.717   0.355
59485W        W31910  26.039  28.549  14.027
59486W        W31911   7.820   1.742   2.193
59487W        W31912  42.039  24.185   1.880
59488W        W31913  37.239  24.523   2.824
59489W        W31914  30.418  40.499  14.920
59490W        W31915  31.569  41.771  13.031
59491W        W31916  21.144  13.022   4.695
59492W        W31917  30.938  17.323  10.682
59493W        W31918  41.338  20.313   4.580
59494W        W31919   0.300  15.249  10.626
59495W        W31920  11.384  40.569  10.558
59496W        W31921  13.767  12.240  14.778
59497W        W31922  30.180  39.984   2.112
59498W        W31923  16.049   0.492   5.051
59499W        W31924  14.839  29.904   3.856
59500W        W31925  34.096  23.983   0.584
59501W        W31926   7.745   3.365   3.061
59502W        W31927  19.679  40.693  14.136
59503W        W31928  31.998   7.810   5.030
59504W        W31929  21.537  14.981  14.886
59505W        W31930   9.324  29.539  11.506
59506W        W31931  41.940  42.738   3.240
59507W        W31932  15.026   1.833  11.551
59508W        W31933  44.518  41.139  13.873
59509W        W31934  22.803   7.412   2.932
59510W        W31935  31.796  15.288   2.266
59511W        W31936  24.224  42.397  11.617
59512W        W31937   0.499  31.961  13.288
59513W        W31938  43.375   4.377   2.223
59514W        W31939   4.865  19.059  13.066
59515W        W31940  44.301  40.603   4.126
59516W        W31941  14.867   6.550   4.199
59517W        W31942  15.229   1.447   4.547
59518W        W31943   1.801  36.392   0.728
59519W        W31944  35.481  34.094  14.282
59520W        W31945   9.821  38.699   1.511
59521W        W31946  18.864  25.013   1.177
59522W        W31947  43.844  15.064  13.392
59523W        W31948   0.504  36.994   2.781
59524W        W31949  15.812  38.119  10.889
59525W        W31950  13.397  34.138   2.976
59526W        W31951   9.641  10.635   0.858
59527W        W31952  14.132  37.462   1.612
59528W        W31953  36.355   3.274  12.947
59529W        W31954  17.691  15.362  10.973
59530W        W31955  27.978  25.528  13.315
59531W        W31956  32.185  28.571   0.178
59532W        W31957  19.992  17.388   0.632
59533W        W31958  38.472  12.350  12.094
59534W        W31959  13.748   3.808   4.551
59535W        W31960   5.695  22.271  11.065
59536W        W31961  10.750  33.539  11.097
59537W        W31962  37.360  18.122   4.672
59538W        W31963   0.848   8.830   2.147
59539W        W31964  22.082  30.953  10.882
59540W        W31965  44.214   7.660   0.815
59541W        W31966  30.463  31.364  14.047
59542W        W31967   1.981  28.963   0.759
59543W        W31968  31.635   8.708   0.097
59544W        W31969  18.745  12.063   3.631
59545W        W31970   9.120  20.317   4.562
59546W        W31971   2.421  44.587   4.148
59547W        W31972  33.629  33.538  13.550
59548W        W31973  10.586  14.555  10.835
59549W        W31974   6.974  33.016   3.881
59550W        W31975  38.362  40.454   1.522
59551W        W31976  26.268  42.948  13.835
59552W        W31977   4.941   5.087   3.841
59553W        W31978  44.417  21.575   0.874
59554W        W31979  40.009   4.389   1.922
59555W        W31980  22.589   4.732  13.040
59556W        W31981  38.890  18.685  11.816
59557W        W31982   6.149   5.313   0.325
59558W        W31983  15.212   4.132  13.382
59559W        W31984  21.684  44.704  12.038
59560W        W31985  24.681   8.607   1.514
59561W        W31986  28.475  32.012   0.438
59562W        W31987  33.908  41.924  11.203
59563W        W31988   8.265   8.934  10.683
59564W        W31989  19.718  11.760  12.362
59565W        W31990  39.011  13.099  10.974
59566W        W31991  36.169  11.839  13.307
59567W        W31992  19.189  40.921  14.301
59568W        W31993  44.698   6.389  14.468
59569W        W31994  24.307  23.091  11.494
59570W        W31995  29.905  42.321  11.684
59571W        W31996  21.000  40.932  12.990
59572W        W31997  19.760  42.487   1.847
59573W        W31998  29.054  44.127  13.167
59574W        W31999  14.701  36.131   3.653
59575W        W32000  22.489  44.963  13.987
59576W        W32001  19.703  15.719   3.010
59577W        W32002  37.954   5.857  13.908
59578W        W32003  43.096  20.543  14.009
59579W        W32004  26.718  21.221  11.988
59580W        W32005  35.658  22.109  14.226
59581W        W32006  38.844  28.422  12.505
59582W        W32007  41.042  26.635   2.169
59583W        W32008   1.235  24.639  11.492
59584W        W32009  43.261  38.797  12.384
59585W        W32010  36.622  34.030  11.230
59586W        W32011  33.775  35.907   2.665
59587W        W32012  15.813  25.925  11.863
59588W        W32013  30.918  29.362  12.799
59589W        W32014  25.288  21.475   0.459
59590W        W32015  21.528   3.921  14.281
59591W        W32016  40.337  36.828  14.389
59592W        W32017  19.632   9.784  12.436
59593W        W32018  14.145  11.611  11.976
59594W        W32019  13.388  22.645   0.323
59595W        W32020  15.077  21.088  12.529
59596W        W32021  10.309  43.774   4.174
59597W        W32022  37.173  31.864   2.219
59598W        W32023   4.710   9.648  11.284
59599W        W32024  13.223  42.265   3.678
59600W        W32025  27.032  30.497   4.824
59601W        W32026  20.542   7.487   3.869
59602W        W32027  40.947   1.393   0.830
59603W        W32028   9.933   0.878   2.969
59604W        W32029  33.186  11.102   0.669
59605W        W32030  15.345   3.475  14.879
59606W        W32031   7.433  13.419   2.909
59607W        W32032  22.621   7.118  10.657
59608W        W32033  22.169  36.897  11.899
59609W        W32034  16.949   2.797   2.554
59610W        W32035   3.250  13.073  12.496
59611W        W32036  38.080  25.068  14.696
59612W        W32037  44.078   0.413   4.169
59613W        W32038  43.996  16.827  14.439
59614W        W32039  10.293   5.778   3.188
59615W        W32040  13.224  41.409  12.040
59616W        W32041   8.750  36.513  11.203
59617W        W32042  31.664  36.720  11.580
59618W        W32043  20.285   7.333   2.819
59619W        W32044   5.434  33.838  13.555
59620W        W32045  32.337  42.606   0.177
59621W        W32046  14.726  30.868   0.292
59622W        W32047   7.592  29.201  12.165
59623W        W32048   1.048  28.979   4.590
59624W        W32049  15.237  30.312  10.803
59625W        W32050   1.227  41.908  14.008
59626W        W32051   3.763  24.143  13.322
59627W        W32052  38.969  16.065  12.575
59628W        W32053  38.551  25.149  13.918
59629W        W32054  12.821   3.181   0.372
59630W        W32055  23.870  21.705  14.756
59631W        W32056  34.619   4.881   0.883
59632W        W32057  25.800  26.166   2.769
59633W        W32058  10.627   7.829   3.819
59634W        W32059  23.285   0.390  14.685
59635W        W32060  34.760  42.773  14.877
59636W        W32061  33.454  36.597  11.165
59637W        W32062  12.758  15.097   3.861
59638W        W32063  22.604  43.106  11.028
59639W        W32064   2.899  15.154   3.110
59640W        W32065  43.220   6.255   9.921
59641W        W32066  18.532   8.398  14.886
59642W        W32067  13.508   3.096  12.445
59643W        W32068  10.508  17.366   0.669
59644W        W32069  16.591  24.557   1.483
59645W        W32070  10.058  21.599   2.815
59646W        W32071   1.400  35.042   3.237
59647W        W32072  12.185   6.467   0.864
59648W        W32073  33.612  22.135   3.541
59649W        W32074  37.491  34.475  14.485
59650W        W32075  36.832  24.670   4.596
59651W        W32076  14.714  41.059   3.787
59652W        W32077  43.542  11.277   2.840
59653W        W32078   5.456  29.206  12.988
59654W        W32079  23.429  13.339  13.503
59655W        W32080   4.493  14.047   2.105
59656W        W32081  35.163   2.987  11.098
59657W        W32082  30.230  18.250  11.856
59658W        W32083   7.163  29.522  12.438
59659W        W32084   1.868  28.631  11.604
59660W        W32085  19.024  32.089   1.855
59661W        W32086  40.512  39.907   3.772
59662W        W32087  25.685  32.383  12.068
59663W        W32088  30.954  14.644  10.716
59664W        W32089  30.270  19.988  12.120
59665W        W32090  40.299  15.493  10.331
59666W        W32091   5.190   1.206   0.994
59667W        W32092  14.677  10.839   4.101
59668W        W32093  29.682  14.613   2.092
59669W        W32094  42.945  31.529  12.975
59670W        W32095   4.199  29.168   4.119
59671W        W32096  13.858  44.985   1.403
59672W        W32097  24.248  43.507  13.770
59673W        W32098  23.711   3.809  14.456
59674W        W32099   6.182  40.692  13.050
59675W        W32100   9.131  35.067   2.300
59676W        W32101   5.061  40.791  12.442
59677W        W32102   9.306  14.019  13.956
59678W        W32103  24.012  28.298   0.863
59679W        W32104  39.609   4.406  14.413
59680W        W32105  11.873  35.811  13.153
59681W        W32106  20.022  44.427  11.953
59682W        W32107  43.705  32.025   4.386
59683W        W32108  23.534  34.105   1.924
59684W        W32109  42.836   7.473  12.084
59685W        W32110  20.269   9.160   0.607
59686W        W32111  39.340  23.690  13.873
59687W        W32112  29.637   2.430  10.607
59688W        W32113  19.268  20.687  11.643
59689W        W32114  17.870  14.724  11.840
59690W        W32115  16.619  19.546   2.260
59691W        W32116   8.456   0.758  10.419
59692W        W32117   1.332  35.589   3.217
59693W        W32118  36.765   1.775  11.404
59694W        W32119  14.344  36.525   1.250
59695W        W32120  21.689  12.375  11.097
59696W        W32121  26.133   4.696  11.673
59697W        W32122   9.202  34.428   0.825
59698W        W32123   2.228  17.198  14.285
59699W        W32124  11.255  40.676   5.023
59700W        W32125  20.167  16.731  13.764
59701W        W32126  37.822  31.381   2.668
59702W        W32127  25.691   2.234  10.777
59703W        W32128   5.690   7.778   3.689
59704W        W32129  12.458  24.881  13.120
59705W        W32130   4.456  22.834  11.192
59706W        W32131  34.875  23.094   4.186
59707W        W32132  16.097  28.729   4.091
59708W        W32133  33.319  29.131   0.776
59709W        W32134  31.907  30.960  12.360
59710W        W32135  15.874  21.037   0.919
59711W        W32136  21.093   1.750   3.276
59712W        W32137  35.113  30.854  12.519
59713W        W32138  33.869  24.779   1.739
59714W        W32139  36.030  36.786   0.330
59715W        W32140  25.709   4.910  13.404
59716W        W32141  33.528   9.649  14.299
59717W        W32142   4.380  40.961   2.072
59718W        W32143  15.636  19.768   0.442
59719W        W32144  36.586   3.344  14.771
59720W        W32145  12.655  13.262  10.601
59721W        W32146  44.772   3.163   2.201
59722W        W32147  29.072  22.703  14.069
59723W        W32148  32.626  18.451   4.269
59724W        W32149  13.164  29.944   0.718
59725W        W32150  15.861  34.135  10.727
59726W        W32151  14.721  39.497   3.382
59727W        W32152  29.429   8.377  14.354
59728W        W32153  42.781   3.210   0.914
59729W        W32154  11.254  13.803  11.836
59730W        W32155  21.725  35.153  13.942
59731W        W32156  28.669  24.127   2.637
59732W        W32157  23.770  32.580   4.807
59733W        W32158   4.747  24.352   3.302
59734W        W32159   4.917  16.945   0.941
59735W        W32160   5.215  30.212  12.929
59736W        W32161  16.792  14.752   4.495
59737W        W32162   7.716  39.570  11.661
59738W        W32163  15.694  33.404   3.679
59739W        W32164   0.918  29.729  11.581
59740W        W32165  31.804   1.912  10.310
59741W        W32166   7.477  28.368  14.000
59742W        W32167  25.983  30.616  13.048
59743W        W32168  38.916  43.245   2.384
59744W        W32169  28.163  23.568   1.018
59745W        W32170  26.932  11.267  11.830
59746W        W32171  28.636   4.063   3.814
59747W        W32172   5.443  31.069   0.940
59748W        W32173  32.968  42.487  10.725
59749W        W32174   4.441  23.744  12.905
59750W        W32175   0.426  36.718   1.230
59751W        W32176  28.841  22.269  12.501
59752W        W32177   6.821  31.005   1.003
59753W        W32178  35.838  43.998   0.455
59754W        W32179  15.744  15.966   1.713
59755W        W32180  17.120  15.276   0.915
59756W        W32181  24.879  40.532  13.440
59757W        W32182  35.403  40.096   4.700
59758W        W32183  40.066  18.533   1.438
59759W        W32184  14.778   1.941   0.265
59760W        W32185   4.212  35.487   4.438
59761W        W32186  41.480  13.787  13.970
59762W        W32187  12.816  26.979   3.852
59763W        W32188   1.060   1.279   0.757
59764W        W32189   7.789   0.910   1.562
59765W        W32190  29.246  43.803   4.145
59766W        W32191  13.315  36.353   3.210
59767W        W32192  44.828   4.027  10.422
59768W        W32193  16.031  22.515  11.666
59769W        W32194  33.922   2.471  11.428
59770W        W32195   5.810  40.341  12.999
59771W        W32196   9.260   4.224   3.233
59772W        W32197  13.525  44.168   3.745
59773W        W32198   6.354   5.940   1.957
59774W        W32199  26.477  26.173  14.239
59775W        W32200  18.076  15.362  13.554
59776W        W32201  21.342  35.067  14.909
59777W        W32202   2.228  27.515  11.093
59778W        W32203  31.536  31.673   1.962
59779W        W32204  18.226  10.369  13.945
59780W        W32205  35.330  20.488  11.072
59781W        W32206  19.686  37.579  11.454
59782W        W32207  40.790   0.486  12.861
59783W        W32208  10.584   9.810  11.167
59784W        W32209  12.770   6.918  14.772
59785W        W32210  36.603  41.339  10.968
59786W        W32211   6.823   8.960  13.611
59787W        W32212  26.152  11.095   3.119
59788W        W32213  44.837  22.166   2.863
59789W        W32214  39.249  11.760  12.047
59790W        W32215   4.399  32.843   1.920
59791W        W32216  40.846  36.992   2.261
59792W        W32217  37.424  12.332   0.412
59793W        W32218  15.221  37.017   4.683
59794W        W32219  41.209  34.492   2.200
59795W        W32220  12.041  41.670   4.949
59796W        W32221   9.203  29.861  13.808
59797W        W32222  43.412  20.984   2.847
59798W        W32223  26.048  27.918   4.325
59799W        W32224   4.386  43.053   0.930
59800W        W32225   3.232   1.478   3.345
59801W        W32226  39.886  32.464   2.684
59802W        W32227  43.087  14.285   4.107
59803W        W32228  39.982   2.026  10.727
59804W        W32229  40.443  34.564  11.662
59805W        W32230  35.559   4.281  10.952
59806W        W32231  19.740   9.697   2.142
59807W        W32232  33.334  10.845   4.424
59808W        W32233  12.773  43.395   2.856
59809W        W32234   6.320   6.246   4.311
59810W        W32235  17.167  25.519   2.394
59811W        W32236   0.353   7.738   4.136
59812W        W32237  35.681   8.085  11.918
59813W        W32238  23.049   5.941   1.751
59814W        W32239  36.473  41.461   4.325
59815W        W32240  33.938   5.438  10.858
59816W        W32241   8.687  11.375  11.976
59817W        W32242  25.236  28.202  11.629
59818W        W32243  35.437  35.365   4.187
59819W        W32244  30.493  11.366  14.040
59820W        W32245  11.335   8.555   4.946
59821W        W32246  38.462  13.728   1.874
59822W        W32247  26.560  28.474  14.104
59823W        W32248  44.976   9.648   3.212
59824W        W32249  24.628  20.570  12.825
59825W        W32250  39.820   3.397   2.334
59826W        W32251  11.454  30.101   2.135
59827W        W32252  28.569  20.103  13.566
59828W        W32253  16.716   9.979   3.149
59829W        W32254  12.546  10.152  11.027
59830W        W32255  37.113  35.954   4.227
59831W        W32256   2.406   0.971   0.518
59832W        W32257  27.996  16.945   0.478
59833W        W32258  27.185  13.630   3.222
59834W        W32259  27.852  38.533   4.476
59835W        W32260  11.829   0.484  13.736
59836W        W32261  34.512  20.193  12.950
59837W        W32262  38.030  33.382   4.118
59838W        W32263  44.921  15.436   4.146
59839W        W32264  10.620  22.769   1.728
59840W        W32265  25.812  16.278   1.828
59841W        W32266  43.560  10.147  10.650
59842W        W32267   7.912  34.535  13.587
59843W        W32268   2.282  21.208  14.583
59844W        W32269   8.342  28.553  14.790
59845W        W32270  36.088  21.773  12.451
59846W        W32271  42.293  32.375   2.896
59847W        W32272   5.171  16.038  12.157
59848W        W32273  23.179   2.922   3.745
59849W        W32274  40.220  20.697  14.908
59850W        W32275  21.257  29.850   4.066
59851W        W32276  12.209  11.686   1.699
59852W        W32277  22.661   7.583   3.844
59853W        W32278   3.534  30.101   2.827
59854W        W32279  21.008  32.084   4.740
59855W        W32280  20.327  15.868  14.824
59856W        W32281  28.157  44.833   4.237
59857W        W32282   5.321  33.849  11.438
59858W        W32283  37.108  39.645   1.818
59859W        W32284  10.183  11.325  14.827
59860W        W32285   3.571  23.715  13.521
59861W        W32286  26.093  38.249   2.090
59862W        W32287   4.408  44.526   3.228
59863W        W32288  16.553  13.072  11.413
59864W        W32289  43.569  41.768  14.968
59865W        W32290  15.164  11.273   2.143
59866W        W32291   1.696  35.063  14.995
59867W        W32292  44.960  39.480  12.903
59868W        W32293   7.749   4.694  13.350
59869W        W32294  44.609  39.870  13.117
59870W        W32295  22.269  35.179  14.949
59871W        W32296  43.526  13.282  13.770
59872W        W32297  30.145  33.100   2.242
59873W        W32298  26.924  11.848   2.221
59874W        W32299  16.754  13.051   3.680
59875W        W32300  26.342  16.057  11.905
59876W        W32301  36.131  10.810   2.436
59877W        W32302  42.326   5.268  14.260
59878W        W32303  37.151  10.166   2.326
59879W        W32304  24.966  36.940   3.256
59880W        W32305  13.558  42.864  14.340
59881W        W32306  38.009  15.837  12.386
59882W        W32307  18.447   2.422  10.466
59883W        W32308  35.958  30.386   4.990
59884W        W32309  21.055  17.912   0.207
59885W        W32310  25.438  43.445  11.382
59886W        W32311  40.901  32.107  10.127
59887W        W32312  16.206  19.275  10.697
59888W        W32313   0.745   2.767   0.009
59889W        W32314   2.748  21.102   1.927
59890W        W32315   3.644   2.669  12.789
59891W        W32316  26.561  35.766  11.894
59892W        W32317  20.219  39.232   4.158
59893W        W32318  15.580  27.396   2.432
59894W        W32319  15.256   2.324  14.384
59895W        W32320   1.528  25.222   3.755
59896W        W32321  37.954   1.346   0.254
59897W        W32322  31.136   7.424  12.174
59898W        W32323  31.895   0.763  10.435
59899W        W32324  13.434  31.654   4.564
59900W        W32325   0.965  37.383  13.075
59901W        W32326  44.258  12.357   2.401
59902W        W32327  12.543  29.898  11.057
59903W        W32328   1.181   2.217  10.808
59904W        W32329  30.754  18.993   0.745
59905W        W32330  28.972   9.309   1.166
59906W        W32331  27.962  15.079  14.836
59907W        W32332   8.891   7.924   1.481
59908W        W32333   1.483   9.799   3.102
59909W        W32334  23.934  15.605  11.923
59910W        W32335   4.353   2.722   4.069
59911W        W32336  38.073  26.152  13.310
59912W        W32337  11.988  19.301   3.808
59913W        W32338  33.536  22.094  10.375
59914W        W32339  32.615  29.040  10.853
59915W        W32340   9.251  26.950   3.193
59916W        W32341  12.672  38.291   3.439
59917W        W32342  16.711   5.257  13.262
59918W        W32343  37.780   9.343   4.853
59919W        W32344  13.291  16.108   0.895
59920W        W32345  13.130  34.204   1.912
59921W        W32346  31.186  18.709  11.940
59922W        W32347  36.913   5.115   3.658
59923W        W32348  11.111   8.201   1.790
59924W        W32349  10.657  29.725   1.640
59925W        W32350  21.684  30.886  14.297
59926W        W32351   7.636  36.650   2.383
59927W        W32352   3.514  24.027  14.947
59928W        W32353  31.580  35.567  12.893
59929W        W32354  30.387  17.670   4.210
59930W        W32355  18.616  19.504  14.834
59931W        W32356  15.310  22.629   4.587
59932W        W32357  42.944  33.474   5.253
59933W        W32358  19.645   8.992   3.187
59934W        W32359  43.866  23.633  12.447
59935W        W32360  30.035  25.618   4.700
59936W        W32361  19.477  16.552  12.608
59937W        W32362  13.724  12.633  12.056
59938W        W32363  19.080  34.952  13.759
59939W        W32364  33.476  22.168   4.058
59940W        W32365   7.135   9.908   0.213
59941W        W32366  33.376  12.672   4.127
59942W        W32367  22.245  19.506  13.421
59943W        W32368   0.968  33.398   2.861
59944W        W32369   5.241  24.235  12.787
59945W        W32370  20.374   8.773   0.288
59946W        W32371   9.900  30.294   0.340
59947W        W32372  34.179  37.960   4.881
59948W        W32373  27.852  33.945   9.708
59949W        W32374  39.399  13.279  13.323
59950W        W32375  27.191  32.138  10.199
59951W        W32376  10.140  14.114   4.690
59952W        W32377  26.666   8.227  10.506
59953W        W32378  22.032   6.361   1.136
59954W        W32379   0.299  43.896   4.707
59955W        W32380  16.391  35.654  14.025
59956W        W32381  14.519   4.404   2.680
59957W        W32382   5.791   3.165   2.711
59958W        W32383   5.324  36.541  10.414
59959W        W32384   8.155   7.636  11.125
59960W        W32385  43.283  20.256   0.282
59961W        W32386  36.332   7.880   4.097
59962W        W32387   7.881   9.886   0.876
59963W        W32388  40.409  33.758   3.208
59964W        W32389   9.181   6.185  10.595
59965W        W32390   9.071  14.661  12.368
59966W        W32391  32.601  15.711   1.322
59967W        W32392  36.594  25.651  13.925
59968W        W32393  30.135  11.611   1.788
59969W        W32394  35.138   1.577  14.954
59970W        W32395  23.253  22.195  13.538
59971W        W32396   6.819  15.390  12.426
59972W        W32397  41.508  11.971  12.136
59973W        W32398  29.148  38.804   2.742
59974W        W32399  27.174  25.397   0.833
59975W        W32400  11.158  29.213   2.683
59976W        W32401  11.374  21.195   0.800
59977W        W32402  39.448  23.849   4.167
59978W        W32403  10.712  32.446  11.657
59979W        W32404  16.140   5.637   1.940
59980W        W32405   9.537  27.886  11.464
59981W        W32406  42.560  20.791   1.778
59982W        W32407  29.508  16.079   0.994
59983W        W32408   5.301  35.995   1.484
59984W        W32409  30.938  32.478   2.391
59985W        W32410  38.375   4.580   4.004
59986W        W32411  17.135  11.658   4.180
59987W        W32412  15.749  23.970   3.389
59988W        W32413  15.083   4.986   4.583
59989W        W32414  15.086  20.537   0.878
59990W        W32415  35.655   6.326   3.243
59991W        W32416  31.331  22.181  14.061
59992W        W32417  41.038  11.750   1.435
59993W        W32418  44.728  26.459   0.382
59994W        W32419  25.639  38.436  14.224
59995W        W32420  13.280  21.040  14.955
59996W        W32421  12.860   5.415  11.669
59997W        W32422  38.468  20.638   4.560
59998W        W32423  27.459   3.666   3.357
59999W        W32424  19.928   3.157   0.734
60000W        W32425  11.206  28.117  14.497
60001W        W32426  43.982  40.500  11.654
60002W        W32427  23.052  30.879   3.002
60003W        W32428   7.298  14.537   4.931
60004W        W32429   4.318  13.289   4.092
60005W        W32430  32.903   1.506   4.420
60006W        W32431   4.469  26.440  14.755
60007W        W32432  25.138  33.319   0.077
60008W        W32433   0.684  16.556  11.458
60009W        W32434   6.274   4.066  10.750
60010W        W32435   6.522  34.496  13.931
60011W        W32436  24.011  38.841   0.269
60012W        W32437  21.347  14.770   4.259
60013W        W32438  23.991  31.037   2.829
60014W        W32439  43.619   2.820   3.308
60015W        W32440  27.000  34.508   1.373
60016W        W32441  39.477  20.496  12.671
60017W        W32442  23.442  36.917  12.818
60018W        W32443  18.127  13.222  12.371
60019W        W32444  30.918   3.649  13.826
60020W        W32445  42.944  40.608   0.955
60021W        W32446  30.051  13.388  13.619
60022W        W32447  13.515   0.250   0.294
60023W        W32448  28.138  18.659   1.226
60024W        W32449  25.514  42.372   0.781
60025W        W32450  10.167   7.733   3.605
60026W        W32451   3.370  19.449  10.722
60027W        W32452   5.190  18.794  11.151
60028W        W32453  32.790  33.097  13.260
60029W        W32454  28.059  43.572  11.376
60030W        W32455   6.748  33.363  13.609
60031W        W32456  30.242  41.625  13.473
60032W        W32457   3.047  11.295  10.277
60033W        W32458  12.556   9.928  11.512
60034W        W32459  10.173  24.216  11.347
60035W        W32460  15.136  26.221   3.291
60036W        W32461  37.332  18.548  14.846
60037W        W32462  20.998  16.525   3.713
60038W        W32463   9.221  11.271   3.756
60039W        W32464  38.415  12.867   3.701
60040W        W32465  13.188   0.611  10.661
60041W        W32466  15.558  19.755  12.146
60042W        W32467  18.542  34.503  14.436
60043W        W32468  42.847  15.104  13.367
60044W        W32469  11.625  44.571   1.377
60045W        W32470   8.856  17.005  12.453
60046W        W32471  34.554  33.389   1.404
60047W        W32472  25.703  43.938   0.782
60048W        W32473  37.890  19.233  11.060
60049W        W32474  21.084  32.202  14.954
60050W        W32475  28.550  42.310   3.592
60051W        W32476  29.136   0.464   0.360
60052W        W32477  34.994  14.390   2.373
60053W        W32478  35.551  35.011   3.421
60054W        W32479  33.228  17.821   0.516
60055W        W32480  35.198  23.784  12.959
60056W        W32481  30.379  19.753  10.658
60057W        W32482   7.801  11.712   0.930
60058W        W32483  10.938   2.957  14.274
60059W        W32484   1.796  37.801   2.227
60060W        W32485  30.027  15.908   4.800
60061W        W32486   9.718  34.801  12.626
60062W        W32487   5.408  14.845  12.376
60063W        W32488   3.528   1.779   0.366
60064W        W32489  17.789   9.879  12.979
60065W        W32490  38.390  21.735  14.331
60066W        W32491  15.575  16.780   0.381
60067W        W32492   3.685  11.239  12.524
60068W        W32493  28.319  43.614  13.069
60069W        W32494  36.376  22.254  12.386
60070W        W32495  33.543  16.501  12.111
60071W        W32496  12.171  20.761  12.837
60072W        W32497  15.232  41.116   3.292
60073W        W32498   2.870  39.861   2.873
60074W        W32499  27.926   1.317  14.044
60075W        W32500  33.329  23.729  14.317
60076W        W32501   5.518  24.696   5.138
60077W        W32502   2.144  13.180   1.382
60078W        W32503   0.518  40.939   2.913
60079W        W32504  21.977  19.141  14.344
60080W        W32505  36.771  13.802   2.665
60081W        W32506   6.046   9.608   3.451
60082W        W32507  21.719  29.010   4.134
60083W        W32508  10.199   7.235   2.301
60084W        W32509  41.852  35.230  12.358
60085W        W32510   9.013  12.615   2.925
60086W        W32511   5.784  20.031  11.500
60087W        W32512   2.762  33.587  10.856
60088W        W32513  10.331  30.379   2.710
60089W        W32514  20.992  16.381  12.460
60090W        W32515  42.218  26.600  12.510
60091W        W32516  11.869   3.758  14.952
60092W        W32517   1.895   7.336   2.605
60093W        W32518  17.540  27.191  14.308
60094W        W32519  22.449   2.403   3.025
60095W        W32520  17.152  30.558  10.791
60096W        W32521  38.020   9.696   2.101
60097W        W32522  23.665  27.750  13.804
60098W        W32523  39.466  27.922   1.923
60099W        W32524  19.701  12.984   5.000
60100W        W32525  40.619   1.183  11.297
60101W        W32526  36.067  12.943  14.022
60102W        W32527  22.561  14.283   4.605
60103W        W32528  32.446  16.924  12.914
60104W        W32529  22.265   5.164   4.626
60105W        W32530  13.234  28.696  11.555
60106W        W32531  35.156  18.084   3.249
60107W        W32532  12.232  41.401  14.470
60108W        W32533  32.309  21.081   2.624
60109W        W32534   6.126  35.502   4.994
60110W        W32535  17.318  29.707  12.561
60111W        W32536  16.105  31.176   4.200
60112W        W32537   6.871  23.148   4.524
60113W        W32538  32.976  24.516   0.817
60114W        W32539  32.861   2.626   0.301
60115W        W32540   9.054  15.204  12.235
60116W        W32541  10.955  29.675  14.847
60117W        W32542   3.196  32.425   3.756
60118W        W32543  17.996  24.262   4.194
60119W        W32544  10.339  24.687   3.698
60120W        W32545   5.012  19.550  11.559
60121W        W32546  38.171   0.290   0.272
60122W        W32547   9.886  34.845   1.859
60123W        W32548  31.597  36.614  12.086
60124W        W32549   9.679   8.383  13.968
60125W        W32550  39.251  32.828  11.058
60126W        W32551  43.270   7.849   2.225
60127W        W32552   7.903   7.179  11.107
60128W        W32553  30.620  22.191   1.194
60129W        W32554  37.007  33.601  10.605
60130W        W32555  27.176  40.885  10.719
60131W        W32556   1.964   9.584   1.375
60132W        W32557  32.277   4.626   4.776
60133W        W32558  14.251   0.964   1.363
60134W        W32559  30.654  42.368  13.599
60135W        W32560  27.975  26.926   4.054
60136W        W32561  10.344  29.447  14.465
60137W        W32562  36.743  26.053  12.415
60138W        W32563   8.364  34.540  13.859
60139W        W32564  27.445   4.555  11.444
60140W        W32565   7.039  13.637  10.883
60141W        W32566  12.240   6.660   2.148
60142W        W32567  30.081  25.734   2.662
60143W        W32568  30.920  40.915   2.385
60144W        W32569  28.479   8.698   2.003
60145W        W32570  16.165  41.850  10.701
60146W        W32571  29.519   3.014   2.695
60147W        W32572  22.808  38.863   2.249
60148W        W32573  19.302  18.724  10.578
60149W        W32574  40.292  18.017   0.443
60150W        W32575  33.758   6.506   1.785
60151W        W32576  15.081  37.311   3.730
60152W        W32577   8.640  23.466   0.497
60153W        W32578  40.080  41.508  11.396
60154W        W32579  29.187  26.235  10.689
60155W        W32580  43.835  33.548  10.660
60156W        W32581  39.470  27.882  11.833
60157W        W32582  43.283  26.277  12.429
60158W        W32583  28.377  20.990   2.618
60159W        W32584  39.881  14.277  10.497
60160W        W32585  20.957  33.304   2.786
60161W        W32586  13.312  13.212   2.256
60162W        W32587   8.499  22.869  12.300
60163W        W32588  18.597  17.142   2.922
60164W        W32589   2.404   8.133  10.754
60165W        W32590  35.576   0.809   2.446
60166W        W32591  34.474  43.370  10.637
60167W        W32592  33.060  12.187   1.481
60168W        W32593  15.790   6.004   2.702
60169W        W32594  16.425   7.754   4.370
60170W        W32595   8.658  20.436   1.574
60171W        W32596  43.991  35.143  12.400
60172W        W32597  18.089  12.663   4.735
60173W        W32598   8.086   2.325   3.313
60174W        W32599   3.236  15.089  10.774
60175W        W32600   3.359   7.340  11.236
60176W        W32601  34.883  23.517  12.542
60177W        W32602  33.483  17.037   4.616
60178W        W32603  38.135  27.926  11.174
60179W        W32604  35.305  41.111   3.743
60180W        W32605  43.753  25.903  12.924
60181W        W32606  27.399  43.166   4.073
60182W        W32607  44.894   4.986   0.470
60183W        W32608  43.041  17.771  14.034
60184W        W32609   6.155  38.678  14.335
60185W        W32610  32.013  23.714  11.932
60186W        W32611   3.781   4.932  12.805
60187W        W32612  12.835  44.007  11.125
60188W        W32613  29.260  40.409  10.626
60189W        W32614   6.406  32.393  13.384
60190W        W32615  35.057  40.305  14.478
60191W        W32616  15.829  35.047   0.925
60192W        W32617   4.150  26.222  14.383
60193W        W32618  43.499  40.062   1.607
60194W        W32619  39.938  20.544  11.387
60195W        W32620  43.938  26.220  10.130
60196W        W32621  20.081  39.218   3.249
60197W        W32622  41.825  44.921   9.309
60198W        W32623  40.845   1.697  13.538
60199W        W32624  31.964  32.553  12.409
60200W        W32625  15.652  40.872   3.394
60201W        W32626  13.373  37.907   4.350
60202W        W32627  40.965   6.167   1.382
60203W        W32628  39.789   9.162  11.102
60204W        W32629  38.066   9.210  10.631
60205W        W32630  36.532   4.349   4.414
60206W        W32631  31.512  39.491  11.531
60207W        W32632  37.014  24.504   0.482
60208W        W32633  26.945  20.924   4.993
60209W        W32634   4.428  40.760   1.607
60210W        W32635  12.425   9.876  12.609
60211W        W32636  28.614  29.736   2.696
60212W        W32637  36.860  28.325   4.048
60213W        W32638  16.863  10.611  12.617
60214W        W32639   3.661   9.456   0.777
60215W        W32640  26.939  19.819   1.829
60216W        W32641  29.696   1.457  11.548
60217W        W32642  12.690  18.081  11.938
60218W        W32643  41.999  30.451   1.225
60219W        W32644  26.484  22.728   1.837
60220W        W32645  24.105  26.501  12.212
60221W        W32646  24.356  10.472  10.673
60222W        W32647  13.326  31.086  10.757
60223W        W32648  17.684   6.655   1.267
60224W        W32649  31.432  32.381   4.394
60225W        W32650  23.582  24.457   3.197
60226W        W32651   9.565  21.340  12.401
60227W        W32652   8.329  22.198   4.763
60228W        W32653  29.432   9.700  14.487
60229W        W32654  22.393  22.072   1.187
60230W        W32655   2.086  18.107   1.934
60231W        W32656  29.787  10.587   0.991
60232W        W32657   0.961  38.048  13.626
60233W        W32658  31.626   0.716  14.454
60234W        W32659   7.269  12.893   0.825
60235W        W32660  37.369  42.806   4.598
60236W        W32661  40.994   0.485   3.708
60237W        W32662  21.225   9.638  12.584
60238W        W32663  29.631  10.317  12.779
60239W        W32664  29.776  30.556   4.213
60240W        W32665  40.036  41.444  10.757
60241W        W32666  26.959   6.443   2.809
60242W        W32667  37.888  15.368  14.934
60243W        W32668  22.079  21.585   0.519
60244W        W32669  32.881  30.705  10.717
60245W        W32670   8.605  22.741  10.799
60246W        W32671  12.249  22.024  12.557
60247W        W32672  27.406   6.310  12.026
60248W        W32673   6.208  16.806   3.296
60249W        W32674  11.651  41.367   4.768
60250W        W32675  34.391   2.563   0.303
60251W        W32676  39.716  37.816  12.336
60252W        W32677  20.226  35.355   5.026
60253W        W32678  44.069  33.356  11.136
60254W        W32679  11.837  28.620  12.534
60255W        W32680  15.858   2.096   4.194
60256W        W32681  31.550   0.836   4.263
60257W        W32682  34.545  15.985   4.188
60258W        W32683  43.327  11.318   2.241
60259W        W32684   5.548  28.446  14.353
60260W        W32685   2.844   9.750  12.091
60261W        W32686  24.534  35.810  10.761
60262W        W32687  25.964  32.121  11.516
60263W        W32688  26.835  30.629  12.094
60264W        W32689  22.021  43.841  11.962
60265W        W32690  36.047  25.415   3.379
60266W        W32691  43.152   6.586  13.027
60267W        W32692   8.827  19.273   0.926
60268W        W32693  11.815  15.562  14.217
60269W        W32694  43.398  38.332  13.142
60270W        W32695  38.081  13.606  10.626
60271W        W32696   9.269  22.870  11.626
60272W        W32697  40.055   3.962  11.804
60273W        W32698  18.259  21.761   0.281
60274W        W32699   7.210  30.090   3.315
60275W        W32700  13.900  13.757   3.710
60276W        W32701  33.734  27.158  12.948
60277W        W32702   5.999  39.393  14.157
60278W        W32703  36.818  19.525  12.563
60279W        W32704   7.227   1.064  13.879
60280W        W32705  19.624  19.577   3.855
60281W        W32706  15.048   8.335   1.359
60282W        W32707  17.297  15.085  10.742
60283W        W32708  20.937   9.206  12.509
60284W        W32709  27.954  11.743   4.188
60285W        W32710  26.526   3.971  14.285
60286W        W32711   2.784  16.872  13.486
60287W        W32712  36.940  14.702  12.671
60288W        W32713   8.755  41.796   1.966
60289W        W32714  17.312   2.878  13.148
60290W        W32715  31.097  11.673   3.153
60291W        W32716  11.336  26.349  11.587
60292W        W32717  39.351   5.413  12.934
60293W        W32718  22.019   1.822   2.354
60294W        W32719  13.616  38.982  13.963
60295W        W32720  33.464   4.749   1.232
60296W        W32721   0.392   5.378  13.926
60297W        W32722   0.197  37.352  10.749
60298W        W32723  12.771  27.626  14.976
60299W        W32724  19.079  28.529  11.861
60300W        W32725  20.918   2.166   0.068
60301W        W32726  23.797  39.970   3.259
60302W        W32727  23.258  12.080   0.440
60303W        W32728   9.428  28.771  11.036
60304W        W32729  36.128  38.774   2.403
60305W        W32730  13.412  10.814   2.707
60306W        W32731  32.383   8.857  11.604
60307W        W32732  14.744  38.988  11.264
60308W        W32733  42.242  35.019  14.345
60309W        W32734  18.294   1.358  14.022
60310W        W32735   4.651  17.717   4.632
60311W        W32736   6.462  32.386   2.434
60312W        W32737  32.995  42.567   1.244
60313W        W32738  19.456  38.869  13.652
60314W        W32739  17.614  16.514  14.581
60315W        W32740  23.978  44.536   3.727
60316W        W32741  32.906  19.076   3.421
60317W        W32742   4.053  44.314  13.087
60318W        W32743  23.129  34.717  13.263
60319W        W32744  22.268  30.673   1.426
60320W        W32745  40.546  30.479   3.153
60321W        W32746  36.413   5.874  11.427
60322W        W32747  39.433  31.148  14.893
60323W        W32748  37.910  12.505   0.287
60324W        W32749  40.022   7.313   2.771
60325W        W32750  25.248   7.090   0.187
60326W        W32751   2.672  42.488  11.911
60327W        W32752  35.504   1.742  11.534
60328W        W32753  43.113  12.119  10.956
60329W        W32754   3.291  26.727  11.154
60330W        W32755  16.702  35.147   2.204
60331W        W32756  14.148   1.426   3.727
60332W        W32757  30.951  23.644   1.946
60333W        W32758  10.443  28.936   1.294
60334W        W32759  37.982  17.635   4.169
60335W        W32760  21.229   2.845  11.750
60336W        W32761  34.678  43.329  12.954
60337W        W32762  33.441  18.298  12.529
60338W        W32763  37.127  35.568  10.705
60339W        W32764  35.020  34.176   2.346
60340W        W32765  32.277  23.859   4.558
60341W        W32766  41.712  20.225  12.796
60342W        W32767  35.538  14.480   3.715
60343W        W32768   2.271  16.715   4.218
60344W        W32769  32.174  25.077  14.312
60345W        W32770  42.663  25.678  13.939
60346W        W32771  18.820  12.183  12.979
60347W        W32772  43.802  16.038   2.201
60348W        W32773  33.556  24.952   0.990
60349W        W32774   6.612  16.620  12.104
60350W        W32775  20.669   5.397  12.499
60351W        W32776  25.696  13.081   1.001
60352W        W32777  35.563  18.684   2.948
60353W        W32778  18.535  25.066  12.993
60354W        W32779  16.543  16.839  10.659
60355W        W32780   5.925  21.496  12.033
60356W        W32781  44.829  29.348  12.645
60357W        W32782  33.656   8.395  13.001
60358W        W32783  25.025   8.198   1.998
60359W        W32784  14.154  17.099   1.284
60360W        W32785  33.286  34.540   0.827
60361W        W32786  21.972   6.170   3.665
60362W        W32787  33.351  10.118  13.157
60363W        W32788   5.789  15.988  12.022
60364W        W32789  25.872   5.470  13.907
60365W        W32790  25.514  37.911  12.492
60366W        W32791  41.762  25.144  14.449
60367W        W32792  13.864  22.674  14.386
60368W        W32793  43.795  17.528  11.635
60369W        W32794  29.351   1.600   1.500
60370W        W32795  43.392   3.910  12.244
60371W        W32796  10.524  30.635   4.604
60372W        W32797   4.821   5.144  11.200
60373W        W32798  22.335  16.296   3.747
60374W        W32799  42.747  24.009  11.974
60375W        W32800   3.720   3.460  14.385
60376W        W32801   3.424   4.780  11.498
60377W        W32802  34.877  27.674  14.899
60378W        W32803  11.263  19.785  13.835
60379W        W32804  39.067   1.899  13.820
60380W        W32805  27.109   0.776   0.740
60381W        W32806  19.597   4.006  11.362
60382W        W32807  18.709  44.536  14.068
60383W        W32808  10.251   3.901   4.364
60384W        W32809  24.185  41.212  13.360
60385W        W32810  22.473   1.461   3.309
60386W        W32811  16.233  33.507  14.990
60387W        W32812  32.967  26.055   2.909
60388W        W32813   4.919  26.269   2.351
60389W        W32814   6.305  41.597   2.806
60390W        W32815  21.750   3.246  11.025
60391W        W32816  34.341   4.690  11.485
60392W        W32817  18.051   7.356  12.039
60393W        W32818   4.906  14.773   3.422
60394W        W32819  25.226  29.953  12.954
60395W        W32820   2.553   1.303   2.789
60396W        W32821  42.051  16.534   3.591
60397W        W32822  26.141  37.971   4.396
60398W        W32823   2.920  13.265   3.100
60399W        W32824  28.076   3.756  12.036
60400W        W32825   4.443   5.279  12.812
60401W        W32826   4.907  36.475  13.915
60402W        W32827  30.354   8.327   0.724
60403W        W32828  17.277  25.119   0.005
60404W        W32829   4.867  16.916   0.000
60405W        W32830  24.404   2.125  12.512
60406W        W32831  33.997   6.029   1.771
60407W        W32832  38.829  36.201  13.931
60408W        W32833  31.143  33.592  12.557
60409W        W32834  40.229  17.764   1.713
60410W        W32835  33.952   5.423  12.397
60411W        W32836  24.057   0.529  14.260
60412W        W32837  34.962  18.507   1.330
60413W        W32838  44.508  25.149   4.557
60414W        W32839  14.794  37.357   4.699
60415W        W32840  30.680  20.013  11.019
60416W        W32841  43.520  31.073  14.438
60417W        W32842  15.309  23.531  10.288
60418W        W32843  14.296   6.665   3.109
60419W        W32844  42.754  28.182   1.931
60420W        W32845   9.557  31.161  12.461
60421W        W32846   9.584  42.072  11.211
60422W        W32847   0.622  18.650   2.397
60423W        W32848  16.624  29.008   1.398
60424W        W32849   0.502  13.605  12.627
60425W        W32850   8.209  27.602   1.440
60426W        W32851  31.336  11.623  12.022
60427W        W32852  13.966  39.353   1.123
60428W        W32853  19.157  35.426   0.036
60429W        W32854  12.135   9.322  12.633
60430W        W32855  25.222  31.128  13.008
60431W        W32856  24.152  41.194   5.042
60432W        W32857  10.853   1.757  12.669
60433W        W32858  35.459  41.299   3.235
60434W        W32859  43.594   5.976   3.339
60435W        W32860  34.956  40.545   2.714
60436W        W32861   1.156  11.801  12.871
60437W        W32862   5.168   5.808   0.913
60438W        W32863  40.462  34.481   3.806
60439W        W32864  16.255  28.595   1.648
60440W        W32865  24.416  24.112   0.739
60441W        W32866  42.824  25.220  11.140
60442W        W32867  33.249  25.776  12.895
60443W        W32868  24.304  33.502   1.771
60444W        W32869  35.889  10.897   4.577
60445W        W32870  23.530  43.564  13.094
60446W        W32871  39.748   0.751  12.051
60447W        W32872  27.399  27.684  12.093
60448W        W32873  23.785   5.960  12.100
60449W        W32874  11.593  20.962   2.180
60450W        W32875  14.235  32.072  11.095
60451W        W32876  37.825   8.435   0.780
60452W        W32877   0.465  28.984   0.961
60453W        W32878  40.601  12.777  12.576
60454W        W32879  14.701  30.346   0.367
60455W        W32880  17.619  14.076  14.469
60456W        W32881  14.578  12.218   3.465
60457W        W32882  33.081  12.545   2.276
60458W        W32883  10.148  32.981   3.620
60459W        W32884  30.448  29.658   0.719
60460W        W32885  10.211  10.319  12.632
60461W        W32886   4.600  41.724  13.291
60462W        W32887  40.827   2.842   2.925
60463W        W32888   5.429  10.857   2.837
60464W        W32889  33.567   7.181   4.586
60465W        W32890  10.887   0.886   0.988
60466W        W32891  28.276  26.299  12.958
60467W        W32892  40.795   9.392   0.894
60468W        W32893   1.436  21.091   3.557
60469W        W32894  15.691   7.359  12.498
60470W        W32895  17.222  44.854  14.022
60471W        W32896  37.658  28.328  13.542
60472W        W32897  14.411  11.904   0.869
60473W        W32898  30.142  28.883  13.054
60474W        W32899  24.016  42.418   4.589
60475W        W32900  38.820   1.851  11.871
60476W        W32901  43.818  20.196   0.048
60477W        W32902   8.663  16.704   1.745
60478W        W32903  39.036  18.804   4.160
60479W        W32904  29.488  32.637   5.441
60480W        W32905  38.941  16.058  10.708
60481W        W32906  44.312  34.046   1.695
60482W        W32907  20.449  20.464   4.103
60483W        W32908  23.154  16.046  12.491
60484W        W32909  38.188  23.228  11.904
60485W        W32910   6.144  35.882   4.585
60486W        W32911  36.977  36.010  10.901
60487W        W32912  11.787  31.552  11.866
60488W        W32913  16.123  14.588  10.686
60489W        W32914  17.615  19.443  13.933
60490W        W32915  41.884   4.430   2.334
60491W        W32916  37.464   8.563   4.739
60492W        W32917  37.977  16.633   3.305
60493W        W32918  26.866  20.218   2.151
60494W        W32919  25.609  32.006  14.900
60495W        W32920  24.480  43.079   2.143
60496W        W32921  26.426  33.902   3.178
60497W        W32922   8.383  44.032   3.634
60498W        W32923   1.332   0.523  13.327
60499W        W32924   7.685  28.693   0.307
60500W        W32925  31.539   5.918   0.933
60501W        W32926  31.132   3.986  11.678
60502W        W32927   8.466  26.528  13.874
60503W        W32928   2.809  36.348  14.517
60504W        W32929   5.203  26.658  12.556
60505W        W32930  22.625  30.436   1.156
60506W        W32931  15.295   1.352  10.454
60507W        W32932  13.631  40.513  12.935
60508W        W32933  28.336  25.537  14.035
60509W        W32934  35.760  17.473   5.168
60510W        W32935  20.629   7.698  14.973
60511W        W32936  26.072  28.097  11.917
60512W        W32937  33.130  19.657  13.559
60513W        W32938   1.746  32.576  12.995
60514W        W32939   5.432   5.476  13.569
60515W        W32940  23.535  34.553   3.431
60516W        W32941  30.343  12.425   1.348
60517W        W32942  39.653  37.893   3.022
60518W        W32943   1.028  19.992   3.570
60519W        W32944  15.387  21.565   4.209
60520W        W32945  19.331  38.877   0.780
60521W        W32946  17.105  20.704  11.926
60522W        W32947  42.917  34.948  11.352
60523W        W32948  36.193  23.536   5.402
60524W        W32949   4.212  34.537  13.517
60525W        W32950  20.683  16.140   3.151
60526W        W32951  11.347  22.271  11.705
60527W        W32952  30.524  19.068  14.410
60528W        W32953  35.218  18.139  10.107
60529W        W32954  17.247  32.107   0.262
60530W        W32955  44.802  13.988  12.851
60531W        W32956  12.234  30.915  12.989
60532W        W32957  37.363  30.922  13.364
60533W        W32958  27.999   7.906   2.460
60534W        W32959  17.239  18.063  11.614
60535W        W32960  30.368   2.464   1.499
60536W        W32961  44.427  18.411   2.524
60537W        W32962  22.050  33.513   0.316
60538W        W32963  32.561   9.673  13.045
60539W        W32964   3.861   3.305  11.602
60540W        W32965   8.456   9.859  13.410
60541W        W32966  42.032  38.442  12.380
60542W        W32967  14.633  36.028   1.758
60543W        W32968  39.943   3.904   1.236
60544W        W32969  12.309  16.377  11.372
60545W        W32970  15.671  11.190   2.342
60546W        W32971  25.129   1.752  12.931
60547W        W32972  33.982  30.100   3.713
60548W        W32973  27.450  19.821   0.555
60549W        W32974  37.892  28.406  11.928
60550W        W32975  33.426  18.211   0.199
60551W        W32976  19.614  35.475   2.458
60552W        W32977  34.832  33.888   3.646
60553W        W32978  37.040  18.153  11.242
60554W        W32979  25.321  38.971   3.184
60555W        W32980   4.396  44.675   0.773
60556W        W32981  19.558  22.744  14.503
60557W        W32982   8.174  18.529  12.234
60558W        W32983  44.840  44.818   3.247
60559W        W32984  27.136  33.736  14.900
60560W        W32985  31.395  21.232   2.700
60561W        W32986  16.297   4.215  14.377
60562W        W32987  21.685  31.522  12.044
60563W        W32988  19.855   2.790  11.596
60564W        W32989   8.475  18.647   4.665
60565W        W32990   0.904  44.648   3.285
60566W        W32991  25.149  24.954  10.456
60567W        W32992  26.595  40.502   3.766
60568W        W32993  34.507   8.439   1.947
60569W        W32994  29.689  25.266  10.730
60570W        W32995   2.805  28.678  10.630
60571W        W32996  41.138  13.100  13.716
60572W        W32997  42.243   3.706   2.893
60573W        W32998  28.895   3.855   0.212
60574W        W32999   7.922  18.297  10.494
60575W        W33000  14.511  28.516  12.348
60576W        W33001   4.932  25.527  13.539
60577W        W33002  31.665  36.591   2.404
60578W        W33003  41.829   9.868  11.579
60579W        W33004  36.005  16.253   2.475
60580W        W33005  14.072   3.249  13.968
60581W        W33006   3.682  24.187  10.687
60582W        W33007   3.374  19.556  14.565
60583W        W33008  21.840  38.164  12.183
60584W        W33009  42.048  13.902  13.092
60585W        W33010  16.747  29.631   2.788
60586W        W33011  18.946  36.057  11.186
60587W        W33012  30.561  27.936   0.363
60588W        W33013   7.392  42.523   0.457
60589W        W33014  43.257  17.629   0.269
60590W        W33015  22.734   5.820   0.159
60591W        W33016  34.439  37.830   2.711
60592W        W33017   0.517  26.492   1.800
60593W        W33018  34.655  34.146   0.773
60594W        W33019   8.830  19.073   4.575
60595W        W33020  38.356  16.859  13.615
60596W        W33021  31.692  19.847  10.248
60597W        W33022  42.478  26.080   4.832
60598W        W33023  31.563  10.184   4.658
60599W        W33024   1.879  27.891   1.726
60600W        W33025   8.745  27.116   0.917
60601W        W33026   3.913   8.882   4.342
60602W        W33027  29.895  30.930  13.776
60603W        W33028  36.797  22.669  11.005
60604W        W33029  24.605   5.634  14.562
60605W        W33030  24.761  25.456  13.435
60606W        W33031  18.216  33.298   1.605
60607W        W33032  32.206  23.143   4.304
60608W        W33033   5.168  43.488   2.799
60609W        W33034  41.350   3.842   1.884
60610W        W33035  30.004  16.478   2.024
60611W        W33036  38.958  31.725   1.242
60612W        W33037  43.029  41.305  11.468
60613W        W33038  38.666   9.291   2.426
60614W        W33039  44.836  29.703   3.910
60615W        W33040  22.252  12.054   0.270
60616W        W33041  40.578   4.305   3.204
60617W        W33042  27.738   9.422   1.840
60618W        W33043  29.135   5.337   3.731
60619W        W33044   1.757  12.182   2.347
60620W        W33045   7.444  17.089   2.735
60621W        W33046  10.196   8.723   0.387
60622W        W33047  20.223  11.723   2.784
60623W        W33048  21.496  33.201   2.905
60624W        W33049   6.814   4.421   1.699
60625W        W33050  29.721  19.614  12.899
60626W        W33051  33.904  31.897   3.117
60627W        W33052  34.260   4.497  12.001
60628W        W33053  38.403  38.449  10.640
60629W        W33054   0.367  32.382  13.042
60630W        W33055  44.320  22.629   0.402
60631W        W33056  39.307   4.749   3.569
60632W        W33057  30.972  42.846   2.302
60633W        W33058   9.111  23.483  10.684
60634W        W33059  38.375  29.204   1.468
60635W        W33060  10.724  42.385   2.310
60636W        W33061  17.842   9.814  11.503
60637W        W33062  31.442  16.402   5.608
60638W        W33063  42.890  41.215   2.587
60639W        W33064  16.902  31.164   0.488
60640W        W33065  17.598   7.569  14.080
60641W        W33066   7.695  16.189   3.552
60642W        W33067  22.697  18.286   4.793
60643W        W33068   0.092   3.239  11.017
60644W        W33069  37.340  33.502  14.018
60645W        W33070  23.695   8.222   4.550
60646W        W33071  43.238  21.608  11.922
60647W        W33072  14.651  43.559  12.391
60648W        W33073  34.921  18.053   4.617
60649W        W33074  32.601  34.519   2.834
60650W        W33075  42.346  37.074   3.715
60651W        W33076   0.719  35.571   1.888
60652W        W33077  15.913  43.255  11.517
60653W        W33078  37.362   0.702  12.998
60654W        W33079  21.947   0.585  13.881
60655W        W33080  36.334   2.016  13.446
60656W        W33081  39.705  10.884   2.782
60657W        W33082   9.614  39.048  12.103
60658W        W33083  38.647  34.275   1.866
60659W        W33084  17.598  29.905   2.875
60660W        W33085  18.833   5.699  10.613
60661W        W33086  43.834  16.728   4.556
60662W        W33087  43.148  18.946   0.026
60663W        W33088  35.951  26.073   2.288
60664W        W33089   5.228  32.064  14.756
60665W        W33090  40.930  14.698   1.305
60666W        W33091  16.616  36.986   4.821
60667W        W33092   2.809   6.839  11.942
60668W        W33093  18.293   3.754  12.787
60669W        W33094  20.893  10.309  11.385
60670W        W33095  10.305  35.969   4.839
60671W        W33096  38.838  35.608   5.145
60672W        W33097  20.785  38.987  12.334
60673W        W33098  36.272  31.895  14.309
60674W        W33099   8.435  39.521   0.070
60675W        W33100   8.823  33.122   4.175
60676W        W33101  37.913  43.472  11.434
60677W        W33102  27.242   9.250  14.373
60678W        W33103  33.928  20.153  14.300
60679W        W33104  24.616  20.258  11.992
60680W        W33105   8.291   5.544  12.668
60681W        W33106  30.920  36.801  14.813
60682W        W33107  30.700  23.183   2.170
60683W        W33108   3.977  21.300   2.420
60684W        W33109   2.366  18.664  10.883
60685W        W33110   9.200  38.551   2.710
60686W        W33111  39.776  38.562   3.646
60687W        W33112   9.171  12.258   2.187
60688W        W33113  41.314  28.905  10.716
60689W        W33114  15.513  29.459   4.660
60690W        W33115  12.599  23.140   1.247
60691W        W33116   0.866  11.320   0.685
60692W        W33117  26.229  38.318  13.408
60693W        W33118  33.594  22.100   9.833
60694W        W33119   3.297  26.292  12.114
60695W        W33120  20.700  35.099  13.020
60696W        W33121  39.081  12.432  14.198
60697W        W33122  29.040  24.439   1.729
60698W        W33123  11.958  35.908  11.087
60699W        W33124   1.821  17.028  12.115
60700W        W33125   5.212   5.365   0.239
60701W        W33126  20.148  42.483  11.490
60702W        W33127   0.110  12.291  11.572
60703W        W33128  12.927  23.208   0.858
60704W        W33129  22.415  28.878   2.411
60705W        W33130  27.201  40.977  11.234
60706W        W33131   5.657  30.478  11.621
60707W        W33132  20.695  42.356   0.239
60708W        W33133   2.012  34.192  14.822
60709W        W33134   8.669  31.990  13.917
60710W        W33135  36.035  31.410  11.913
60711W        W33136  21.632  37.744   4.671
60712W        W33137  44.968  18.191  12.576
60713W        W33138  26.092  35.806  11.601
60714W        W33139   7.121  44.967   2.735
60715W        W33140  20.447  42.277  14.703
60716W        W33141  14.285  19.780  11.599
60717W        W33142  15.826  16.343  10.664
60718W        W33143  37.982   0.214  10.563
60719W        W33144   6.838  28.107  10.360
60720W        W33145  18.790   1.440  12.926
60721W        W33146   9.279  16.015   0.907
60722W        W33147  12.071  37.894   2.968
60723W        W33148   4.033   6.724   0.440
60724W        W33149  26.771  26.635   2.199
60725W        W33150  19.538  40.075   2.900
60726W        W33151   9.720  36.688  11.905
60727W        W33152  28.637  42.055  13.328
60728W        W33153  44.322  40.138  14.815
60729W        W33154  10.401  20.039   4.981
60730W        W33155  12.220  12.980   1.132
60731W        W33156  23.526  39.825   0.857
60732W        W33157  44.930  40.087   2.915
60733W        W33158  12.566  10.124  13.076
60734W        W33159  12.295  39.543   3.240
60735W        W33160  17.187   8.821   4.191
60736W        W33161  14.784  35.093   4.204
60737W        W33162  22.601  43.028   1.006
60738W        W33163  34.831  29.467   4.873
60739W        W33164  35.378  15.365   1.565
60740W        W33165   1.084  32.889  11.165
60741W        W33166  39.087  26.597   3.620
60742W        W33167  37.298  43.467  14.228
60743W        W33168   5.040  40.204  13.276
60744W        W33169   4.231  32.211  11.206
60745W        W33170  10.316  34.333   1.280
60746W        W33171   5.205   4.814  10.242
60747W        W33172  26.515   9.498   3.850
60748W        W33173   1.359  19.924   0.434
60749W        W33174  44.853   1.905   0.410
60750W        W33175  28.180  14.291  13.507
60751W        W33176  43.069   3.274   4.114
60752W        W33177  12.761   7.512  12.152
60753W        W33178  35.781  38.070  12.515
60754W        W33179  38.601  32.068   1.438
60755W        W33180  16.453  11.093   0.936
60756W        W33181   2.639  21.297   4.002
60757W        W33182  43.692  14.038   4.649
60758W        W33183  33.657   9.093  11.602
60759W        W33184   4.807   6.305   2.445
60760W        W33185  31.887  32.566  10.670
60761W        W33186  37.161  43.797  12.867
60762W        W33187   9.775   4.930   2.881
60763W        W33188  37.594  22.744  12.328
60764W        W33189  44.542   7.384  14.963
60765W        W33190   4.869  10.817   1.886
60766W        W33191  44.272   3.463  13.491
60767W        W33192  42.587  35.867  12.140
60768W        W33193  38.743   2.844   4.151
60769W        W33194  37.290  31.525   3.717
60770W        W33195  15.254  41.385   2.362
60771W        W33196  20.535  10.171   2.171
60772W        W33197   2.833  38.844   2.160
60773W        W33198  43.272   3.451   1.107
60774W        W33199   7.292  14.734  11.161
60775W        W33200  11.250  13.342   3.263
60776W        W33201  38.837  23.642   3.630
60777W        W33202  34.079  13.708   1.832
60778W        W33203  44.356   2.740  10.479
60779W        W33204  34.963  27.886  13.576
60780W        W33205  25.084  17.993   3.106
60781W        W33206   2.070  44.414  11.068
60782W        W33207  16.844   2.562   4.657
60783W        W33208  43.286  20.372   4.503
60784W        W33209  42.550  36.325  11.071
60785W        W33210  19.227  34.419   3.183
60786W        W33211  17.163   2.207   4.962
60787W        W33212   2.943  43.379  11.388
60788W        W33213   7.287  30.165   3.820
60789W        W33214  26.931   4.273  14.428
60790W        W33215  15.290  32.065   3.121
60791W        W33216  44.122  31.528   2.817
60792W        W33217  38.135  19.085   1.946
60793W        W33218  28.020  19.229   3.268
60794W        W33219  11.111   3.722  12.923
60795W        W33220  44.776  21.483  11.705
60796W        W33221   7.681  18.049  11.442
60797W        W33222  44.192  16.311   1.228
60798W        W33223  29.748   9.118  13.387
60799W        W33224  14.788  44.341   3.680
60800W        W33225  40.523   0.519   0.967
60801W        W33226  23.404  38.100   0.428
60802W        W33227  23.169  41.004   4.179
60803W        W33228  36.096  38.578   2.920
60804W        W33229  27.207  27.249  13.315
60805W        W33230  25.065  20.735   1.045
60806W        W33231  37.324   7.663   3.570
60807W        W33232  19.486  20.770  13.995
60808W        W33233  33.163  13.710  12.963
60809W        W33234   2.889  42.029  12.021
60810W        W33235  28.082  20.490   1.431
60811W        W33236  28.847  12.743  12.037
60812W        W33237  31.938   5.868   1.546
60813W        W33238   9.015   3.910   2.270
60814W        W33239  27.951  13.850   3.768
60815W        W33240  41.558  17.246  11.081
60816W        W33241   4.009  30.342   1.545
60817W        W33242   7.418  30.012  12.424
60818W        W33243  40.219  37.113  12.385
60819W        W33244  31.650  23.295  13.116
60820W        W33245  11.693   7.964  11.653
60821W        W33246  42.193  41.276   3.370
60822W        W33247  17.758  13.019   3.918
60823W        W33248  17.872  29.536   3.686
60824W        W33249  15.843  20.114   0.749
60825W        W33250  10.628  39.122  10.653
60826W        W33251   5.826  33.819   4.182
60827W        W33252   1.194  22.039   2.379
60828W        W33253  14.172  12.118   1.294
60829W        W33254  30.472   5.130   3.001
60830W        W33255  21.492  14.776  11.304
60831W        W33256  10.647   2.859  14.691
60832W        W33257  20.647  36.644  12.983
60833W        W33258   5.778  18.126  11.988
60834W        W33259  22.598   3.347   0.814
60835W        W33260  23.074   9.828   4.223
60836W        W33261  22.313  42.084  11.167
60837W        W33262   2.478   3.460   0.714
60838W        W33263  36.135  14.817  10.701
60839W        W33264  41.097  16.420  13.882
60840W        W33265  30.130  25.735  13.372
60841W        W33266  33.395  13.714  14.057
60842W        W33267  15.141  41.299   1.861
60843W        W33268   2.805  15.730  12.961
60844W        W33269  36.782  29.565   2.995
60845W        W33270  20.198  32.877   4.703
60846W        W33271  25.424  14.621  13.884
60847W        W33272   0.495  10.432   2.085
60848W        W33273   1.940  25.387  11.449
60849W        W33274  32.949   9.998   4.059
60850W        W33275   9.156  35.603   3.198
60851W        W33276  37.066  41.794   3.126
60852W        W33277  37.930   5.681   3.562
60853W        W33278  28.506  17.578   3.297
60854W        W33279  39.411  32.709   2.913
60855W        W33280   9.214   8.875   1.300
60856W        W33281  21.269  11.218  10.806
60857W        W33282  38.505  13.363  14.407
60858W        W33283  10.654  32.947   3.877
60859W        W33284  36.502  11.772  10.228
60860W        W33285  42.397  37.588   1.903
60861W        W33286  38.031  30.649  13.796
60862W        W33287  22.465  22.494   4.163
60863W        W33288   9.328   6.830   5.004
60864W        W33289  34.064  42.904  12.536
60865W        W33290  34.898   7.739   5.338
60866W        W33291  27.031  39.524   2.266
60867W        W33292   8.123  30.514   3.882
60868W        W33293  32.630  31.322  11.346
60869W        W33294  43.384  22.644   3.907
60870W        W33295  16.967  36.763   3.413
60871W        W33296   8.468  16.757  12.938
60872W        W33297  39.476  43.425   3.607
60873W        W33298   3.001  31.997  14.323
60874W        W33299  27.644  22.998   1.356
60875W        W33300   3.503   5.711   0.549
60876W        W33301  21.561  39.497  14.221
60877W        W33302   6.734  12.962   3.234
60878W        W33303  27.448   8.743  10.656
60879W        W33304  34.994  41.366   2.382
60880W        W33305  19.725   4.374  14.483
60881W        W33306  10.163  42.000   1.272
60882W        W33307   4.251  29.328   2.726
60883W        W33308  40.082  10.356  13.410
60884W        W33309  22.794  33.627   1.829
60885W        W33310  38.884   1.779  14.301
60886W        W33311  26.674   0.089  14.461
60887W        W33312  40.860  38.245   4.498
60888W        W33313  20.627  13.130   1.466
60889W        W33314  43.717   7.330  10.731
60890W        W33315  31.477  31.995  11.158
60891W        W33316  11.380   7.746  10.354
60892W        W33317  43.376  39.308  10.610
60893W        W33318   6.275   5.521   5.015
60894W        W33319  29.597   1.910  14.932
60895W        W33320   3.288  14.127  12.459
60896W        W33321   2.689  38.782  12.877
60897W        W33322  31.053  21.765   3.303
60898W        W33323   5.969  36.001   5.062
60899W        W33324  37.581  14.887   4.881
60900W        W33325   2.892  15.574  11.983
60901W        W33326  15.233  15.263  14.881
60902W        W33327  26.131  11.212   4.683
60903W        W33328  21.001  35.532  14.908
60904W        W33329   8.795   3.175   9.926
60905W        W33330  20.106  21.257  13.463
60906W        W33331  14.604  20.722  11.908
60907W        W33332  26.426  23.416   4.872
60908W        W33333  39.475  40.612  10.189
60909W        W33334   8.215  10.753  14.092
60910W        W33335  21.612  40.490   1.790
60911W        W33336  17.827  27.512   0.122
60912W        W33337  36.593   2.312  14.405
60913W        W33338   8.787  39.530   1.409
60914W        W33339  26.996  28.537   3.706
60915W        W33340  17.712  11.375   0.839
60916W        W33341  33.574  22.037   5.177
60917W        W33342  44.863  26.664  13.003
60918W        W33343  31.251  24.459   3.239
60919W        W33344   0.700   1.424   1.689
60920W        W33345  39.832  23.132  13.864
60921W        W33346  41.674   7.287   1.843
60922W        W33347  32.424  10.765   3.891
60923W        W33348  39.490  43.482  14.497
60924W        W33349   0.540  31.485  13.069
60925W        W33350   4.827  11.094   1.454
60926W        W33351  24.164  12.856  14.046
60927W        W33352   5.932   7.757   4.201
60928W        W33353  18.762  35.126   4.143
60929W        W33354  19.013  40.810  11.980
60930W        W33355  14.765   7.055   4.181
60931W        W33356  35.904  22.084   3.310
60932W        W33357  33.562  39.183   1.006
60933W        W33358  26.594   2.341  11.547
60934W        W33359  32.712  42.007  10.627
60935W        W33360  43.785  40.332   0.003
60936W        W33361   1.481  31.989   4.352
60937W        W33362  11.823  33.591  14.522
60938W        W33363   0.369  26.705  13.187
60939W        W33364  39.355  16.034  12.917
60940W        W33365   2.635   9.139   4.775
60941W        W33366  43.432  32.300   0.923
60942W        W33367  43.944   4.030  10.541
60943W        W33368  31.443  41.364  14.716
60944W        W33369  23.228  17.117   3.577
60945W        W33370  15.134  28.107  12.392
60946W        W33371  38.127   0.832   2.310
60947W        W33372  40.034  29.916   0.459
60948W        W33373  27.887  10.704   4.511
60949W        W33374   4.900  42.898  11.066
60950W        W33375  24.449  17.501  14.375
60951W        W33376  31.138  14.776  12.378
60952W        W33377   1.871  22.507  10.411
60953W        W33378  43.701  25.580   1.321
60954W        W33379  41.517  22.618   4.865
60955W        W33380   4.881  38.241   0.732
60956W        W33381  41.799  24.856   3.062
60957W        W33382  19.770  18.597   0.005
60958W        W33383  22.759  41.829   1.619
60959W        W33384   0.785  39.952  11.160
60960W        W33385  21.205   1.760  12.416
60961W        W33386  34.441  10.162   4.281
60962W        W33387  42.537  20.034   2.311
60963W        W33388  33.499  28.367   0.052
60964W        W33389  10.683  34.315  11.487
60965W        W33390   6.709  40.498   3.488
60966W        W33391  22.986  28.131   0.234
60967W        W33392  36.135  33.281   0.739
60968W        W33393   4.971  26.224  13.849
60969W        W33394   7.794  14.244   3.134
60970W        W33395  17.331  19.682  12.508
60971W        W33396  44.052  35.418  13.574
60972W        W33397  22.655  24.788   3.336
60973W        W33398  32.644  18.299  10.966
60974W        W33399   5.560   1.877  13.981
60975W        W33400   9.311  26.279  12.986
60976W        W33401  20.709  12.927  12.668
60977W        W33402  16.688   3.862  12.463
60978W        W33403  26.721   9.259   3.420
60979W        W33404  39.358  10.429   2.668
60980W        W33405   1.506  14.800  10.479
60981W        W33406  21.307   0.811   2.338
60982W        W33407  37.895   2.674  10.731
60983W        W33408   0.847  13.631   1.893
60984W        W33409  27.579   9.286  10.563
60985W        W33410  10.654  19.400  14.371
60986W        W33411  28.407   4.716   2.431
60987W        W33412   7.146  23.710   2.760
60988W        W33413   0.951  11.299   3.713
60989W        W33414  39.717   6.178   3.266
60990W        W33415  33.430   1.781   4.221
60991W        W33416  10.233  41.380   1.663
60992W        W33417  44.448  39.127   0.753
60993W        W33418  11.755  21.096   3.493
60994W        W33419   7.211  35.950   1.879
60995W        W33420  29.488   8.852   5.376
60996W        W33421  37.269   2.420  12.574
60997W        W33422  31.141  34.429   0.934
60998W        W33423  18.547  11.668   0.630
60999W        W33424   2.104  26.012   1.391
61000W        W33425  14.193  22.520  13.288
61001W        W33426  29.504  16.300   1.956
61002W        W33427  15.103   0.214  12.080
61003W        W33428  14.889  22.273   9.727
61004W        W33429   5.772  18.126  11.435
61005W        W33430   6.401  34.347   4.694
61006W        W33431  33.827   2.995   0.371
61007W        W33432   9.395  44.224   2.828
61008W        W33433  44.475  35.617   1.047
61009W        W33434  27.927  12.331  12.022
61010W        W33435  12.610  29.901  14.852
61011W        W33436  40.243   3.019   3.434
61012W        W33437  11.790   6.195  11.189
61013W        W33438   3.848  34.519   0.809
61014W        W33439  15.092   6.939  11.900
61015W        W33440  18.289  35.926  11.527
61016W        W33441  34.899  28.681   3.421
61017W        W33442  14.581  30.206   4.567
61018W        W33443  29.173  27.639  14.285
61019W        W33444  40.777  31.835  14.355
61020W        W33445  32.081  35.220   1.407
61021W        W33446  20.097   9.025   3.797
61022W        W33447   6.154  16.503   3.725
61023W        W33448  33.378  33.408   2.167
61024W        W33449  37.142  35.923  13.405
61025W        W33450  29.942  35.495   4.535
61026W        W33451  19.239  43.488  14.514
61027W        W33452  18.204  33.880  11.943
61028W        W33453  19.798  39.379   1.685
61029W        W33454  25.973  26.541  11.508
61030W        W33455   7.680  42.736  13.289
61031W        W33456  23.788   7.654   2.283
61032W        W33457  34.966  38.611  14.857
61033W        W33458  37.048  23.177   4.507
61034W        W33459  28.612  13.618  13.898
61035W        W33460   9.983  15.922  13.263
61036W        W33461   1.755  37.244   2.472
61037W        W33462  16.778   8.071   4.122
61038W        W33463   5.700  36.204  10.559
61039W        W33464  23.710  36.878   1.540
61040W        W33465  12.186  16.505   1.408
61041W        W33466  42.891   4.722   3.255
61042W        W33467  11.976  44.728  13.021
61043W        W33468   9.588  15.332   2.788
61044W        W33469   9.318  38.366   0.764
61045W        W33470   4.721  32.804  12.341
61046W        W33471  44.533   0.751  12.049
61047W        W33472   2.319  32.084  10.306
61048W        W33473  16.591  43.668  10.817
61049W        W33474  43.442  43.073   4.794
61050W        W33475  39.092  43.849  14.552
61051W        W33476  19.268  30.014   2.210
61052W        W33477  26.442  34.810  12.082
61053W        W33478  16.649  26.201  11.915
61054W        W33479  18.192  29.606  10.304
61055W        W33480   7.623   9.371   2.675
61056W        W33481  43.591  11.275   0.297
61057W        W33482   7.875   8.686   1.107
61058W        W33483   9.712  22.335   4.573
61059W        W33484   6.544  36.560  10.304
61060W        W33485  35.038  16.563   1.746
61061W        W33486  39.931   5.936  11.560
61062W        W33487  26.391  12.310   4.188
61063W        W33488  25.572  44.428   0.407
61064W        W33489   0.666  34.045   2.280
61065W        W33490  14.724  25.665   1.218
61066W        W33491  32.444  37.560   3.691
61067W        W33492  11.093  30.308  12.842
61068W        W33493  16.644  13.238  12.430
61069W        W33494  33.029  36.766  14.879
61070W        W33495   9.639  38.793   2.886
61071W        W33496   5.149  35.694  12.834
61072W        W33497  34.287  12.566  12.996
61073W        W33498  44.315  11.882  11.640
61074W        W33499  38.260  15.582   0.867
61075W        W33500  14.610  36.421  10.699
61076W        W33501  36.497   6.778   0.604
61077W        W33502  32.130   9.647   3.183
61078W        W33503  42.225   7.075   0.849
61079W        W33504  31.868  13.614  14.946
61080W        W33505  17.768  24.582   2.787
61081W        W33506  43.049   3.768  13.893
61082W        W33507  33.895  12.586   1.371
61083W        W33508  37.541  31.141   1.853
61084W        W33509  33.851  41.738  12.655
61085W        W33510  10.135  27.389  12.845
61086W        W33511  23.171   2.015  11.848
61087W        W33512  23.611  11.727  14.007
61088W        W33513   7.160  27.046  12.132
61089W        W33514  42.302   4.364   1.210
61090W        W33515  12.237   4.180   2.339
61091W        W33516  21.365   4.209   2.015
61092W        W33517  35.500  33.967   3.265
61093W        W33518  34.879   1.307  14.094
61094W        W33519  24.182   0.362  14.741
61095W        W33520  26.641   6.450  13.087
61096W        W33521  15.388  31.517   3.233
61097W        W33522  33.486  41.731  10.685
61098W        W33523  21.076  34.492   2.939
61099W        W33524  37.707  34.951  14.656
61100W        W33525  42.832  27.581   2.842
61101W        W33526  13.744  29.011   2.437
61102W        W33527  11.311  40.241   1.947
61103W        W33528  33.639  19.098  13.897
61104W        W33529  29.166  10.065  13.486
61105W        W33530  44.883   6.124  14.031
61106W        W33531  44.858  12.098   2.339
61107W        W33532  33.256  20.949  12.030
61108W        W33533  21.212   0.426   0.752
61109W        W33534  37.330  11.807  11.849
61110W        W33535  31.492  12.807   1.830
61111W        W33536   0.998   0.447  12.451
61112W        W33537  18.542   8.750  12.513
61113W        W33538  13.306   4.297   4.163
61114W        W33539  38.422  42.391   9.643
61115W        W33540  40.839  36.370   1.861
61116W        W33541  31.665   9.735  11.916
61117W        W33542   7.621  28.226   3.252
61118W        W33543  16.519  12.250   3.103
61119W        W33544  28.324  44.941   3.745
61120W        W33545   0.440   6.198  11.119
61121W        W33546  27.737  35.175   3.934
61122W        W33547   2.289  31.857  13.010
61123W        W33548  22.227   6.412   3.252
61124W        W33549  27.157  40.032   1.327
61125W        W33550  40.155  44.071   5.009
61126W        W33551  20.827  12.816  14.550
61127W        W33552  10.731   0.442  10.472
61128W        W33553  40.786  17.120   2.117
61129W        W33554   4.977  14.225   4.223
61130W        W33555   7.593  26.430   0.974
61131W        W33556  40.390  28.151   9.890
61132W        W33557  11.130  10.171  13.127
61133W        W33558  10.182  23.588   4.699
61134W        W33559  23.464  36.972  10.612
61135W        W33560   3.762  17.073  12.701
61136W        W33561  23.639  44.930   2.292
61137W        W33562   3.404   9.909  11.037
61138W        W33563  36.474  36.526  11.568
61139W        W33564   0.407  43.448   2.942
61140W        W33565  15.735  14.156  11.332
61141W        W33566   8.938  10.688  13.083
61142W        W33567  34.462  18.722   4.425
61143W        W33568   8.899   7.614   2.889
61144W        W33569  11.817  23.005  12.106
61145W        W33570  40.410  40.268  12.577
61146W        W33571  34.107   6.771  13.962
61147W        W33572  10.628  35.147   1.482
61148W        W33573  30.948  13.926   1.833
61149W        W33574  35.510  10.639  13.571
61150W        W33575   7.268  21.550   4.452
61151W        W33576  25.028  23.150  10.713
61152W        W33577  26.738  43.346   3.177
61153W        W33578  32.013  10.683   0.035
61154W        W33579  26.211   7.280  11.705
61155W        W33580  41.460  23.280   0.992
61156W        W33581  20.274  43.290  11.104
61157W        W33582   5.710  38.331   2.733
61158W        W33583  34.039  36.407  14.804
61159W        W33584  28.883  20.225   2.530
61160W        W33585   3.697  14.700  14.339
61161W        W33586  31.478  31.507  10.985
61162W        W33587   7.115  11.626   4.086
61163W        W33588  35.892  31.907   4.822
61164W        W33589   1.648  15.628  12.479
61165W        W33590  15.359  34.920   1.232
61166W        W33591  31.041  42.435   0.442
61167W        W33592   7.626  33.094  13.464
61168W        W33593  40.086  14.767  12.682
61169W        W33594   3.491  34.043  10.579
61170W        W33595  33.534  17.257  10.210
61171W        W33596  36.580  39.323   3.456
61172W        W33597  28.074  25.151   0.279
61173W        W33598  18.664  19.014   0.621
61174W        W33599  37.463  15.330   2.420
61175W        W33600   3.690  16.775   1.369
61176W        W33601  13.723  39.128  12.055
61177W        W33602  11.250   3.218  12.939
61178W        W33603   8.463  11.545   3.951
61179W        W33604  16.197  25.599  11.497
61180W        W33605  22.705  40.065   3.358
61181W        W33606  23.065  28.985   4.502
61182W        W33607   0.456  42.592   1.231
61183W        W33608  35.038   2.022  11.425
61184W        W33609  11.671  42.389  12.486
61185W        W33610   5.379   0.504   4.121
61186W        W33611  21.176  17.607   4.136
61187W        W33612  15.558  41.490   4.731
61188W        W33613   6.439   5.024   5.063
61189W        W33614  29.192  30.785  12.056
61190W        W33615  42.333  35.841   2.244
61191W        W33616  40.513  38.858  14.492
61192W        W33617   4.759  31.943  14.909
61193W        W33618  30.438  23.033  12.572
61194W        W33619  21.125  32.009  10.652
61195W        W33620  41.443   0.866   3.762
61196W        W33621  23.638   9.634  11.411
61197W        W33622   1.817   7.855   1.857
61198W        W33623  16.192  14.626   3.875
61199W        W33624  13.274  17.546  12.418
61200W        W33625   3.689  22.750   0.851
61201W        W33626  21.264  14.835   1.912
61202W        W33627  30.510  43.458  11.917
61203W        W33628   7.841   3.005  11.667
61204W        W33629  20.065  30.656   4.041
61205W        W33630  11.807  17.068   1.711
61206W        W33631   9.578  12.168  13.748
61207W        W33632  11.834   5.758  13.927
61208W        W33633  27.929   9.336   4.502
61209W        W33634  20.139  28.848  13.549
61210W        W33635  11.939  40.122  14.338
61211W        W33636   0.481  38.020  12.384
61212W        W33637  22.808  14.164   4.149
61213W        W33638  16.031  10.785   0.860
61214W        W33639  40.743  16.593  12.096
61215W        W33640  32.740  28.621  13.585
61216W        W33641  22.038   1.260   4.264
61217W        W33642  36.170   2.978   1.543
61218W        W33643   3.219  42.248  12.883
61219W        W33644  35.965  39.694  11.022
61220W        W33645  15.252  15.499   3.303
61221W        W33646  22.190  25.346  13.969
61222W        W33647  20.075  21.569   4.213
61223W        W33648   3.729  42.694   4.072
61224W        W33649   3.197  27.609  13.899
61225W        W33650  14.714  23.309  11.113
61226W        W33651  40.476   1.660  11.502
61227W        W33652  38.842  40.173  13.063
61228W        W33653  38.454  32.115  12.725
61229W        W33654   4.034  11.395  10.300
61230W        W33655  31.701  36.247  11.390
61231W        W33656  41.347  43.165   0.035
61232W        W33657  23.315  30.862   3.463
61233W        W33658  25.832   6.435   1.397
61234W        W33659  36.083  28.660   2.775
61235W        W33660  10.610  37.906   0.918
61236W        W33661  26.401  41.383  12.086
61237W        W33662  21.488  40.480   0.754
61238W        W33663  17.987  18.525  12.550
61239W        W33664  21.988  35.846   1.386
61240W        W33665  37.835  32.162   0.391
61241W        W33666  25.109  43.318  13.197
61242W        W33667  43.509  39.401   2.421
61243W        W33668  31.107   8.070   2.314
61244W        W33669   7.839   6.136   1.178
61245W        W33670   9.135   5.223  12.057
61246W        W33671  36.398  22.071   1.661
61247W        W33672  23.976  36.592   1.921
61248W        W33673  42.334   8.279  14.504
61249W        W33674  32.470   9.445  12.034
61250W        W33675   1.717   6.756   4.542
61251W        W33676  20.820  42.909  13.614
61252W        W33677   8.418   5.533   4.524
61253W        W33678  24.876  28.594  11.104
61254W        W33679  21.541  27.993   4.374
61255W        W33680  24.772   5.024  14.980
61256W        W33681  36.335  32.989   3.703
61257W        W33682  18.666  41.697   0.316
61258W        W33683   8.224  31.067  12.528
61259W        W33684  36.133   8.376   3.785
61260W        W33685  28.103  19.540   1.354
61261W        W33686  28.161   0.430  10.710
61262W        W33687  20.186   2.383   2.240
61263W        W33688  26.544   5.868   0.987
61264W        W33689   7.164  31.181   2.672
61265W        W33690  37.043  43.492   2.725
61266W        W33691  14.537  18.330   2.610
61267W        W33692  44.762   7.754  11.620
61268W        W33693   4.776  33.994   0.967
61269W        W33694  28.141  39.952   4.930
61270W        W33695  32.157   7.364  12.174
61271W        W33696  12.333  30.111  14.469
61272W        W33697  25.152   5.520  11.910
61273W        W33698   2.779   1.238   4.756
61274W        W33699  21.569   7.259   2.098
61275W        W33700   2.968   1.521  14.362
61276W        W33701  34.132   3.194   0.797
61277W        W33702  13.158  22.174  12.524
61278W        W33703  19.243   0.972   0.321
61279W        W33704  10.146  37.378  11.504
61280W        W33705   0.136   1.297   2.954
61281W        W33706   5.142  29.524  11.653
61282W        W33707  14.680  39.950   4.729
61283W        W33708  16.904  17.192  14.099
61284W        W33709  10.782   6.687   9.834
61285W        W33710   7.172  39.332  10.818
61286W        W33711  34.340  38.937   0.772
61287W        W33712  16.633  24.264   4.099
61288W        W33713  34.905  36.533   1.767
61289W        W33714  12.201  12.382  13.845
61290W        W33715  16.586  35.984   0.268
61291W        W33716  10.895   9.174   1.414
61292W        W33717  27.060  30.611   2.898
61293W        W33718   2.070  43.057  10.905
61294W        W33719  20.638  18.241   3.158
61295W        W33720  10.922  23.687   4.334
61296W        W33721   6.668  27.630   1.958
61297W        W33722   3.501  18.076   2.667
61298W        W33723  38.394   9.104   0.332
61299W        W33724   4.272   0.244   1.784
61300W        W33725   9.700  12.952  13.488
61301W        W33726  43.299  36.076  14.531
61302W        W33727  39.511  21.322   0.337
61303W        W33728   8.683  29.411   4.113
61304W        W33729  42.876  40.391   1.434
61305W        W33730  22.568  44.011   4.138
61306W        W33731   3.868  39.596   1.281
61307W        W33732  35.306  28.965   1.719
61308W        W33733  19.606  18.767  11.627
61309W        W33734  29.418  17.683   4.882
61310W        W33735   0.232  44.101   4.240
61311W        W33736  24.798  27.237   3.632
61312W        W33737  27.187  20.977   4.117
61313W        W33738  13.673  38.768   3.051
61314W        W33739  23.019  31.003  13.881
61315W        W33740  32.078  42.671   1.424
61316W        W33741  13.807   6.110  11.948
61317W        W33742   7.119  19.218   1.417
61318W        W33743  38.880  11.661   3.606
61319W        W33744  20.113  21.966  14.714
61320W        W33745  24.198   7.475   3.640
61321W        W33746  36.400   3.481   0.774
61322W        W33747  31.611  34.607  13.039
61323W        W33748  21.535  13.213  11.924
61324W        W33749  41.814  15.391  11.644
61325W        W33750  34.189  36.400  13.708
61326W        W33751  14.606  18.265  14.494
61327W        W33752   4.197  43.413   3.341
61328W        W33753  21.947  10.239   4.733
61329W        W33754   3.904  16.253  12.747
61330W        W33755   9.740  17.559   2.370
61331W        W33756  27.984  28.452  13.154
61332W        W33757  18.032   7.740   3.514
61333W        W33758   3.650  39.095   0.477
61334W        W33759  19.992  21.503   0.695
61335W        W33760  26.458   0.612   2.969
61336W        W33761   4.963   8.228  14.109
61337W        W33762  32.345   5.643  14.037
61338W        W33763  44.568  26.751  11.968
61339W        W33764  30.379  27.628  13.469
61340W        W33765  29.896  10.072   1.670
61341W        W33766  36.958  16.247  14.262
61342W        W33767  44.881  28.522   0.384
61343W        W33768  24.624   9.554   1.272
61344W        W33769  18.072   3.535   0.315
61345W        W33770  43.468  43.967   3.821
61346W        W33771  34.585   2.676  12.545
61347W        W33772  26.018   1.293  11.987
61348W        W33773  32.426  37.044   1.452
61349W        W33774  12.093  34.897  11.640
61350W        W33775   8.939  44.006  13.019
61351W        W33776  43.809   2.644   2.471
61352W        W33777  11.700  44.297  12.884
61353W        W33778  40.923   3.532   1.854
61354W        W33779  14.232  42.919   0.803
61355W        W33780  24.465  39.421   0.810
61356W        W33781  36.296  30.002   4.871
61357W        W33782  16.905  39.323  11.664
61358W        W33783  30.608  42.912  14.919
61359W        W33784  11.278   8.285   4.514
61360W        W33785  30.257  21.546  13.735
61361W        W33786  42.324   7.838   3.206
61362W        W33787   0.793   2.387   1.963
61363W        W33788  20.990  20.630  12.098
61364W        W33789  20.723  28.243   3.250
61365W        W33790  26.857  10.919   2.148
61366W        W33791  13.733   2.358  11.655
61367W        W33792  38.627  38.096   0.427
61368W        W33793  25.708  21.643  14.365
61369W        W33794  31.879  20.275   1.951
61370W        W33795  38.436  30.837   2.118
61371W        W33796  20.164  20.187   4.442
61372W        W33797   8.909  36.042   4.573
61373W        W33798  43.592  23.816  14.435
61374W        W33799  26.843  17.466  13.433
61375W        W33800   9.105   0.736  13.279
61376W        W33801  10.315  42.785  10.042
61377W        W33802  28.307   9.494  13.476
61378W        W33803  14.793  35.936  10.596
61379W        W33804  27.011   1.047   1.184
61380W        W33805  11.578  42.154  14.679
61381W        W33806   7.256  18.143  14.419
61382W        W33807   9.270  39.523   1.221
61383W        W33808   4.246   3.336  12.553
61384W        W33809  40.204  11.453  12.814
61385W        W33810  13.059  26.478  11.112
61386W        W33811  31.875  25.572   0.416
61387W        W33812  35.867   5.946   3.517
61388W        W33813  10.192  13.493  12.873
61389W        W33814  18.317  15.213   2.744
61390W        W33815   5.218  15.221   4.504
61391W        W33816  33.482  43.449   1.146
61392W        W33817   7.817   4.189   1.282
61393W        W33818  28.653  35.189   3.241
61394W        W33819   1.715   2.256  13.974
61395W        W33820  21.095   4.340   0.171
61396W        W33821  39.908  33.436  10.467
61397W        W33822  38.647  19.001   3.868
61398W        W33823  10.728  39.433   3.870
61399W        W33824  37.684  21.194  11.555
61400W        W33825  41.536   8.789  12.812
61401W        W33826   7.919  24.157   0.351
61402W        W33827  15.496   9.733  12.445
61403W        W33828  23.509   7.289  14.019
61404W        W33829  21.169  22.018  10.752
61405W        W33830  19.543   8.313  12.887
61406W        W33831  31.842  35.026   0.971
61407W        W33832  14.246   3.735  14.954
61408W        W33833  19.293  44.417   0.690
61409W        W33834   8.152   7.744   4.121
61410W        W33835   1.306  44.928   3.125
61411W        W33836  21.156  43.068   0.378
61412W        W33837  22.805  41.407   0.412
61413W        W33838  13.198  14.340  10.303
61414W        W33839  40.050   6.253   1.888
61415W        W33840  31.609  28.682  14.682
61416W        W33841  37.911  44.877   3.248
61417W        W33842  29.533   9.204   0.188
61418W        W33843  26.119  29.461  11.562
61419W        W33844  29.546  29.964   4.427
61420W        W33845  20.640  31.001   1.030
61421W        W33846  19.825  35.005  12.080
61422W        W33847  35.434  35.611  11.947
61423W        W33848  27.260  33.378   0.250
61424W        W33849  10.643  19.147   1.940
61425W        W33850  23.744  23.660   2.797
61426W        W33851  19.731   3.326  10.733
61427W        W33852   2.355  33.586   4.573
61428W        W33853  29.091   2.727  14.320
61429W        W33854  27.668  19.618  12.991
61430W        W33855  33.389  14.024   1.796
61431W        W33856  43.231  11.218   1.273
61432W        W33857   2.389  11.125  11.132
61433W        W33858   0.533  33.164   2.319
61434W        W33859  41.815   9.200  12.992
61435W        W33860  35.314  29.586  12.269
61436W        W33861  26.998  24.438  13.100
61437W        W33862   1.003  43.337  13.804
61438W        W33863   3.488  10.811  12.325
61439W        W33864  23.504  11.267  14.739
61440W        W33865  38.438  41.330  12.582
61441W        W33866  16.119  17.973  12.525
61442W        W33867  39.403  36.138  13.034
61443W        W33868  24.626  12.755   0.896
61444W        W33869  30.706  31.440   4.206
61445W        W33870   7.151  39.254  13.461
61446W        W33871   0.093  22.230   0.404
61447W        W33872  21.317  37.350  12.656
61448W        W33873   3.307  25.454   1.304
61449W        W33874   4.459  44.018   3.738
61450W        W33875   6.805  18.185   0.677
61451W        W33876  17.526  33.926   0.275
61452W        W33877  22.995  28.891  11.275
61453W        W33878  37.577  13.925   2.117
61454W        W33879  33.480  34.378   1.275
61455W        W33880  37.999  14.859  14.896
61456W        W33881  30.582  18.541  14.431
61457W        W33882   8.782  27.164   1.846
61458W        W33883  43.959   0.885   4.874
61459W        W33884  36.622  18.434   3.333
61460W        W33885  35.034   4.143  11.659
61461W        W33886   0.718  14.823   0.975
61462W        W33887   1.419  31.072   1.381
61463W        W33888  33.524   1.831  14.875
61464W        W33889  10.800  27.988   2.338
61465W        W33890  37.763  44.417  12.575
61466W        W33891  13.212  37.488   4.637
61467W        W33892   1.236  15.649  11.112
61468W        W33893  28.693  29.141   3.195
61469W        W33894  25.647  27.545  11.391
61470W        W33895  39.457  20.332  10.829
61471W        W33896   1.914  32.335  13.452
61472W        W33897  30.155   0.448  10.490
61473W        W33898   8.337  32.182   2.206
61474W        W33899  31.932  17.284   4.620
61475W        W33900  23.144  35.329   0.369
61476W        W33901  11.378  38.804   2.672
61477W        W33902  27.742   2.767  14.668
61478W        W33903  41.178  26.581  11.516
61479W        W33904   5.802  15.204  12.657
61480W        W33905  32.515  24.114  10.803
61481W        W33906   6.236   8.963  12.393
61482W        W33907  26.259  41.885  12.910
61483W        W33908  44.257   8.030   3.093
61484W        W33909  19.742  32.332  14.465
61485W        W33910  19.168  24.492  13.600
61486W        W33911   0.773  32.693   0.943
61487W        W33912  30.985   0.495  11.954
61488W        W33913  27.655  44.214   2.157
61489W        W33914  11.841   9.798  13.545
61490W        W33915  26.129  12.353   3.745
61491W        W33916  44.261  10.161  10.232
61492W        W33917  34.779   0.079  12.115
61493W        W33918  23.302  40.860   3.144
61494W        W33919  40.748  10.241   3.642
61495W        W33920  27.113  19.778   0.012
61496W        W33921  24.544  41.301  13.721
61497W        W33922  29.060  25.414  11.665
61498W        W33923  43.441   0.886  14.722
61499W        W33924   9.705   4.293   4.158
61500W        W33925   5.776  20.330  13.509
61501W        W33926  14.781  34.669  14.883
61502W        W33927  39.918  30.924  14.817
61503W        W33928  12.574  44.810   2.793
61504W        W33929  17.272   8.961  11.303
61505W        W33930  28.961  24.860  10.419
61506W        W33931  39.449  44.319   5.210
61507W        W33932  10.585  29.025  13.071
61508W        W33933   4.948   0.183   2.153
61509W        W33934  37.915  10.157   0.912
61510W        W33935  26.606   8.827  14.221
61511W        W33936  36.886  21.178   1.738
61512W        W33937  22.354  26.893   1.717
61513W        W33938  37.960  35.929   3.594
61514W        W33939  42.118  44.985   2.781
61515W        W33940  30.677  43.747   1.886
61516W        W33941  40.894  38.600   0.396
61517W        W33942  24.221   5.702  12.072
61518W        W33943  23.112   7.419   4.622
61519W        W33944  43.284  17.758   3.618
61520W        W33945   9.634  42.093  12.908
61521W        W33946  25.966  22.014  13.352
61522W        W33947  28.081  23.587   1.570
61523W        W33948  28.693   2.328   0.321
61524W        W33949  43.015  26.082  13.433
61525W        W33950   1.700   7.287   3.153
61526W        W33951  28.111  31.746   5.031
61527W        W33952  23.176  15.075   1.406
61528W        W33953  21.116   2.725  13.275
61529W        W33954  36.484  21.751  14.314
61530W        W33955  43.237   8.435   2.905
61531W        W33956  41.235   6.347   3.183
61532W        W33957  41.487  14.043  11.482
61533W        W33958  23.009  42.345  11.029
61534W        W33959  43.496  38.031  11.151
61535W        W33960  15.850  42.458  13.434
61536W        W33961  33.052  13.173   4.771
61537W        W33962  17.651  21.231   3.631
61538W        W33963  24.331  11.179  10.201
61539W        W33964  15.831  37.846  14.064
61540W        W33965  19.949  42.989   3.698
61541W        W33966  12.853  32.134  14.941
61542W        W33967  25.267  42.600   3.177
61543W        W33968   2.809  27.791  11.650
61544W        W33969  28.941   4.398  12.459
61545W        W33970  14.371  27.640  10.734
61546W        W33971  25.466  28.166  13.438
61547W        W33972  44.965  34.690  11.990
61548W        W33973   4.766  33.410   1.272
61549W        W33974  34.407  33.912  10.615
61550W        W33975   5.920  10.681   2.741
61551W        W33976  11.358   3.491   2.200
61552W        W33977   7.735  40.361  11.242
61553W        W33978  12.791  19.840   0.394
61554W        W33979  26.496  22.762  12.315
61555W        W33980  29.181  11.819  14.961
61556W        W33981  39.921   4.832   4.146
61557W        W33982  15.120   5.745   1.431
61558W        W33983   2.801   2.279  12.956
61559W        W33984   5.476   7.194  13.739
61560W        W33985  26.163  11.829   3.840
61561W        W33986   7.175   9.364   4.773
61562W        W33987  44.009   2.560   4.366
61563W        W33988  32.644  36.009   3.881
61564W        W33989   8.334   0.538   3.705
61565W        W33990  32.632  38.565  14.872
61566W        W33991  39.898  37.641   3.846
61567W        W33992   1.500  42.156  14.525
61568W        W33993  27.158  35.171   2.189
61569W        W33994  25.657  19.571   1.411
61570W        W33995  42.879  16.666   2.642
61571W        W33996  11.752  44.067   1.433
61572W        W33997  25.091  34.401  11.333
61573W        W33998  14.783  42.970   0.001
61574W        W33999  11.674   6.247  10.190
61575W        W34000  29.004   3.426   4.488
61576W        W34001   2.347  19.283   0.770
61577W        W34002  33.864  31.471  14.814
61578W        W34003  22.631  40.268   2.174
61579W        W34004   2.248   5.035   2.701
61580W        W34005  10.750  12.339   1.345
61581W        W34006  38.993  15.591  12.380
61582W        W34007  21.510  22.689  10.499
61583W        W34008  17.996  26.223   1.900
61584W        W34009  41.899  31.519   1.783
61585W        W34010  33.376  31.535  14.972
61586W        W34011  15.139  35.118   0.778
61587W        W34012  14.182  41.554   4.330
61588W        W34013  35.578  28.069   0.688
61589W        W34014  16.645  20.092  14.213
61590W        W34015  33.459  29.526   3.174
61591W        W34016  18.707   1.074   4.002
61592W        W34017  10.268   3.840  12.376
61593W        W34018  12.779  16.039   0.899
61594W        W34019  24.990  19.727   4.775
61595W        W34020  28.340  32.849  11.618
61596W        W34021  17.519  44.828   3.392
61597W        W34022  43.775   1.497  11.206
61598W        W34023  29.127  17.555  13.327
61599W        W34024  41.263  32.026  14.471
61600W        W34025  17.211   9.808   2.296
61601W        W34026   0.256  13.684  11.171
61602W        W34027  41.871  10.255   4.562
61603W        W34028  40.304  26.533   1.044
61604W        W34029  23.441  12.748  10.584
61605W        W34030   7.442  28.564   2.327
61606W        W34031  24.565  36.983   1.974
61607W        W34032   6.959  32.549   4.192
61608W        W34033  28.889  43.325  13.417
61609W        W34034  29.152  39.316   2.798
61610W        W34035   7.258   2.919   1.137
61611W        W34036  31.145  32.624   3.368
61612W        W34037   3.170  33.444   3.589
61613W        W34038  23.149  10.716  11.879
61614W        W34039  43.255  21.818   4.950
61615W        W34040  29.984  12.639   0.295
61616W        W34041   7.456  27.849  11.076
61617W        W34042   5.876  18.616  14.484
61618W        W34043  16.782  43.286   0.234
61619W        W34044  41.322  42.379  10.228
61620W        W34045  37.496  14.712   1.685
61621W        W34046  15.793   3.650  11.955
61622W        W34047  11.750  26.581   1.736
61623W        W34048   6.455   3.279   1.454
61624W        W34049   7.743  33.978   4.591
61625W        W34050  23.697  32.360  12.983
61626W        W34051  18.550  41.852  11.507
61627W        W34052  24.574  25.217  13.896
61628W        W34053  25.144  19.859  12.417
61629W        W34054  27.833  29.093   1.264
61630W        W34055  43.835  32.084   2.865
61631W        W34056  35.707  35.308   0.829
61632W        W34057  11.237  29.369  12.561
61633W        W34058  30.359  12.261  11.450
61634W        W34059  32.483  14.148  13.344
61635W        W34060  34.017   0.415   4.749
61636W        W34061  36.326  11.816  11.677
61637W        W34062  25.461  35.441   1.223
61638W        W34063  12.347  27.774  11.660
61639W        W34064  36.905  25.502  12.921
61640W        W34065  23.888   1.243  13.425
61641W        W34066  19.544  26.052  14.109
61642W        W34067  18.317  38.906   0.715
61643W        W34068  35.556   7.135  14.119
61644W        W34069   7.142  35.934  10.620
61645W        W34070  27.166  15.873   0.755
61646W        W34071  28.087   3.273   1.439
61647W        W34072   2.271  37.016   1.741
61648W        W34073  18.321  40.626   2.185
61649W        W34074  36.189  10.164  13.095
61650W        W34075  21.651  38.631   1.088
61651W        W34076  17.263  16.778  14.335
61652W        W34077  24.285  41.935  11.837
61653W        W34078  11.627  41.121   3.742
61654W        W34079  35.667   7.268   0.787
61655W        W34080  20.064   0.511   1.797
61656W        W34081  10.944  37.077   3.256
61657W        W34082  34.103   2.895  11.108
61658W        W34083  28.080  29.987  11.695
61659W        W34084  18.640  32.590   0.489
61660W        W34085  39.259   5.848   1.808
61661W        W34086   0.548  10.293   1.566
61662W        W34087  10.604  38.971   0.891
61663W        W34088   7.830  39.754   1.888
61664W        W34089  11.698  35.930   0.613
61665W        W34090  16.103  11.199   1.330
61666W        W34091  34.449  39.196  13.930
61667W        W34092  16.958  23.552   2.377
61668W        W34093  22.124   0.694   1.282
61669W        W34094  30.790  42.740   2.860
61670W        W34095  44.335   0.119  14.536
61671W        W34096  36.070   4.741   2.644
61672W        W34097  29.106  25.482  14.962
61673W        W34098  42.024   2.302   0.373
61674W        W34099  28.123  37.825  12.169
61675W        W34100  23.003  43.364  11.214
61676W        W34101  42.864  22.669  14.420
61677W        W34102   4.294   5.148   4.172
61678W        W34103  22.178  10.837   0.496
61679W        W34104   8.406  26.788  14.340
61680W        W34105  24.603  19.020   0.895
61681W        W34106  27.107   9.530   3.660
61682W        W34107   1.505  19.849   4.175
61683W        W34108  36.271  44.673   2.340
61684W        W34109   5.270   4.423   2.759
61685W        W34110  43.681  22.113  12.127
61686W        W34111  20.087  36.098  13.978
61687W        W34112  35.876  27.474  14.556
61688W        W34113   1.105   2.223   1.530
61689W        W34114   5.163   0.213  14.251
61690W        W34115  32.830  35.325  13.446
61691W        W34116  40.561  18.625   1.279
61692W        W34117  28.678  18.329   3.081
61693W        W34118  39.547  41.955  13.034
61694W        W34119  17.757   5.204   1.964
61695W        W34120  29.288   3.580  12.436
61696W        W34121  37.991   6.928   0.875
61697W        W34122   6.297   3.276  12.366
61698W        W34123  11.680  26.076   2.647
61699W        W34124  44.096  27.762   1.771
61700W        W34125  41.955   0.307   3.593
61701W        W34126  16.481  13.096  11.924
61702W        W34127   5.513  38.830  14.772
61703W        W34128  16.504  10.720  13.755
61704W        W34129  20.502  41.958  13.464
61705W        W34130  14.175  41.506  11.899
61706W        W34131   7.698  20.845   2.713
61707W        W34132  36.970  21.861   5.009
61708W        W34133  36.789  29.230   2.029
61709W        W34134  44.442  28.940   2.893
61710W        W34135  15.937  38.625  11.496
61711W        W34136  31.901   6.588  13.449
61712W        W34137   1.331   2.104   4.628
61713W        W34138  19.221  32.104  10.933
61714W        W34139   5.518  10.044  11.093
61715W        W34140  18.654   6.562   3.659
61716W        W34141  34.556  23.112  10.657
61717W        W34142  24.297   5.868  13.788
61718W        W34143  40.116  41.042   1.250
61719W        W34144  43.436  14.326  14.631
61720W        W34145  39.962   0.691  13.114
61721W        W34146  34.225   2.085   0.312
61722W        W34147  31.210  38.951   0.809
61723W        W34148  24.033  36.622  11.946
61724W        W34149  21.205   9.135   2.336
61725W        W34150  37.074  43.034  14.434
61726W        W34151  18.977   8.451  12.829
61727W        W34152   8.393  13.946   5.053
61728W        W34153  20.743   5.969   4.116
61729W        W34154  29.951  23.461   0.331
61730W        W34155  13.319  12.680  14.277
61731W        W34156  13.937  24.379   4.458
61732W        W34157  38.077  27.646  11.621
61733W        W34158  17.430  21.461  14.996
61734W        W34159  40.238  14.836   4.440
61735W        W34160   3.875   2.346   1.479
61736W        W34161  38.513  35.969  14.565
61737W        W34162  21.144  13.349   0.185
61738W        W34163  37.965  15.535  12.856
61739W        W34164   1.449  42.902  14.905
61740W        W34165  17.795  33.041   4.484
61741W        W34166  43.402  42.836   0.735
61742W        W34167   2.742  15.391  11.535
61743W        W34168   7.945  41.481   0.243
61744W        W34169  33.694  44.807  12.426
61745W        W34170  39.499  42.872   2.798
61746W        W34171   0.462   3.677   0.371
61747W        W34172  39.246   0.929  11.912
61748W        W34173  30.705  13.405   1.389
61749W        W34174   4.391   5.978   0.365
61750W        W34175   5.270  25.777  14.815
61751W        W34176  35.854  20.821   2.348
61752W        W34177   4.351  34.545   0.969
61753W        W34178   4.181  32.326  13.551
61754W        W34179  37.560  13.786  11.465
61755W        W34180  30.923  18.129   0.520
61756W        W34181  14.889  30.681  13.533
61757W        W34182  12.696  43.209  11.813
61758W        W34183  12.245  38.093   3.763
61759W        W34184   3.347  12.241   2.403
61760W        W34185  22.158  32.316   4.074
61761W        W34186  39.411  19.091   3.149
61762W        W34187  20.178  33.931   1.802
61763W        W34188   1.975  15.750   3.393
61764W        W34189  43.764   7.758   2.220
61765W        W34190  40.496  18.870   3.684
61766W        W34191  36.080  14.671  12.209
61767W        W34192  26.297  31.435   4.243
61768W        W34193  39.155  26.656  12.293
61769W        W34194  42.976  23.275   3.962
61770W        W34195  36.832  14.859  13.135
61771W        W34196  32.795  24.804   0.421
61772W        W34197   8.783  41.632  10.695
61773W        W34198  37.494  21.138  13.928
61774W        W34199  36.026  38.357  12.167
61775W        W34200  31.842   4.735   4.464
61776W        W34201  24.105   5.241  14.316
61777W        W34202  44.102  24.183  11.731
61778W        W34203  23.572  22.243  10.957
61779W        W34204  13.535  28.439   3.153
61780W        W34205   4.204  41.541  14.738
61781W        W34206   4.365  16.761   1.670
61782W        W34207  17.222   2.190   0.012
61783W        W34208  16.626   2.051   5.494
61784W        W34209  14.366   9.230   1.315
61785W        W34210  13.454  14.257  13.001
61786W        W34211   8.253   4.165  12.140
61787W        W34212  11.186   9.257  13.497
61788W        W34213  13.162  40.076  14.876
61789W        W34214  42.347  40.480   3.771
61790W        W34215  29.003  32.956   1.939
61791W        W34216  35.843   8.885   1.818
61792W        W34217  36.554  33.423   3.889
61793W        W34218   0.418  26.927   3.141
61794W        W34219  23.913  22.210   1.410
61795W        W34220   6.789   1.196   2.388
61796W        W34221  31.947  11.064  11.174
61797W        W34222   4.490  11.257  13.097
61798W        W34223   7.500  24.205  12.979
61799W        W34224  14.276  25.301   4.140
61800W        W34225  24.506  27.169   3.146
61801W        W34226   8.135  16.676   1.413
61802W        W34227  18.742  25.231   3.670
61803W        W34228  25.636   1.004  12.962
61804W        W34229  31.124  12.077  13.131
61805W        W34230  26.989  25.045   4.089
61806W        W34231  36.984   6.234   0.047
61807W        W34232   8.573  34.949  11.619
61808W        W34233  18.205  33.319   4.646
61809W        W34234   0.399   5.218   0.478
61810W        W34235  17.373  28.047   2.168
61811W        W34236  44.764  15.794  12.123
61812W        W34237   2.895   6.423   4.288
61813W        W34238   6.212  10.725  13.852
61814W        W34239   3.232  10.888   2.725
61815W        W34240  12.049  33.050   1.138
61816W        W34241   0.524  13.198  11.499
61817W        W34242   8.430   4.560  12.501
61818W        W34243   2.229  41.687   2.797
61819W        W34244  19.183  15.906   9.956
61820W        W34245  18.724   7.383   1.276
61821W        W34246  37.052  17.509   0.329
61822W        W34247  40.825   1.856   0.602
61823W        W34248  30.962  26.165   2.457
61824W        W34249  22.765  28.031  12.524
61825W        W34250  38.908  23.858  14.123
61826W        W34251  10.693  13.297   4.850
61827W        W34252   7.698  13.321   4.252
61828W        W34253  20.261  20.778  14.361
61829W        W34254   7.403  28.569   4.265
61830W        W34255  11.225  10.351   2.234
61831W        W34256  36.821  10.948   4.589
61832W        W34257  11.779  15.120   2.506
61833W        W34258  15.339  15.148   0.905
61834W        W34259  42.873  20.489  11.908
61835W        W34260  38.010   5.441  10.262
61836W        W34261  40.519  34.955   2.844
61837W        W34262  17.733  26.654  14.344
61838W        W34263  11.346  15.166  10.766
61839W        W34264  26.229  28.445  11.551
61840W        W34265  22.721  37.052  11.152
61841W        W34266   3.013  10.286   1.843
61842W        W34267  40.588  42.605   2.274
61843W        W34268  29.425   4.933  13.051
61844W        W34269  14.931  22.628  13.013
61845W        W34270   3.419  23.499  10.538
61846W        W34271  26.767  10.130  11.488
61847W        W34272  31.465  24.044  12.838
61848W        W34273  26.003  38.969  14.512
61849W        W34274   1.433   0.257   1.096
61850W        W34275  12.612  36.077   0.344
61851W        W34276  14.583   1.000   1.855
61852W        W34277   0.955  28.624  12.137
61853W        W34278  29.447   1.905  11.547
61854W        W34279  18.648  11.697  13.823
61855W        W34280  12.856  32.876  14.040
61856W        W34281  41.876  25.981  12.908
61857W        W34282  29.119   1.289  10.420
61858W        W34283  37.511  37.823  14.554
61859W        W34284  24.204  28.696   2.778
61860W        W34285  30.425  11.644   4.706
61861W        W34286   2.168   9.446  10.734
61862W        W34287  24.026  13.133  13.169
61863W        W34288  11.302  21.298  10.577
61864W        W34289  38.628  44.646   5.474
61865W        W34290  11.083  25.222   3.700
61866W        W34291  26.648  13.623  10.585
61867W        W34292  43.049  34.408   3.675
61868W        W34293  12.157  22.713   9.935
61869W        W34294  17.347  23.560   1.981
61870W        W34295   6.190  17.312   1.652
61871W        W34296  13.078  17.726   4.164
61872W        W34297  36.484  25.724   5.555
61873W        W34298  24.199  39.016   4.631
61874W        W34299  16.511  33.701  11.094
61875W        W34300  29.473  27.244  11.491
61876W        W34301  33.865  38.485   0.523
61877W        W34302  17.823  36.071   1.406
61878W        W34303  25.225  11.392   4.203
61879W        W34304  44.907  30.089  13.833
61880W        W34305  15.569  42.483   4.584
61881W        W34306  15.823  32.599   4.725
61882W        W34307  34.196  41.741  13.946
61883W        W34308  31.418  18.852  10.219
61884W        W34309   2.713  20.860  12.104
61885W        W34310  25.416   8.361  13.852
61886W        W34311  20.284   8.928   2.142
61887W        W34312  29.643  43.742   0.473
61888W        W34313  24.512  34.314   3.900
61889W        W34314  20.450  21.696  14.407
61890W        W34315  26.033   9.893  11.084
61891W        W34316  15.700  31.428   1.949
61892W        W34317  31.062  14.122  13.918
61893W        W34318   3.014  30.075  10.564
61894W        W34319  37.601  38.871  11.509
61895W        W34320  23.019  29.073   1.709
61896W        W34321  20.193  20.985  13.901
61897W        W34322  10.874  21.206  13.097
61898W        W34323   4.031  14.068  11.144
61899W        W34324  16.607  36.517   0.300
61900W        W34325   5.862  17.612   3.070
61901W        W34326  30.623  36.055   2.853
61902W        W34327  19.662  42.573   0.955
61903W        W34328  23.990   5.027   4.158
61904W        W34329  14.131  29.414   4.676
61905W        W34330  25.655  38.924   3.588
61906W        W34331  28.162  43.307  10.075
61907W        W34332  18.686   0.387   4.539
61908W        W34333  26.769  22.999   0.069
61909W        W34334  30.426   7.295  14.758
61910W        W34335   7.792  25.100  12.950
61911W        W34336  44.031  40.521  14.591
61912W        W34337   7.762  15.250  13.883
61913W        W34338  25.616  32.379   3.863
61914W        W34339   1.759  44.970   3.366
61915W        W34340  13.933  36.027  10.219
61916W        W34341  14.995  16.866   9.882
61917W        W34342   2.452   7.663   0.008
61918W        W34343  40.366   9.753   3.419
61919W        W34344   4.801  12.805   1.963
61920W        W34345  30.501  38.489  11.911
61921W        W34346  21.794  44.393   0.322
61922W        W34347  29.559  28.804  11.099
61923W        W34348  35.232   4.636  14.889
61924W        W34349  26.124  12.800   0.382
61925W        W34350  42.957  25.142   3.857
61926W        W34351  40.303  39.734   3.321
61927W        W34352  34.816  11.702  13.823
61928W        W34353  25.053  24.323   2.672
61929W        W34354  32.924  30.920   1.076
61930W        W34355  42.874   8.291   0.903
61931W        W34356  31.634   1.919   4.200
61932W        W34357   1.323  30.073   4.523
61933W        W34358  34.382  21.536   1.417
61934W        W34359   3.057  40.352  14.088
61935W        W34360  43.033  43.315   0.901
61936W        W34361  17.343  10.214  14.295
61937W        W34362  11.378  32.098  13.263
61938W        W34363  38.154   3.292  13.935
61939W        W34364   2.827  11.622   2.394
61940W        W34365  13.364  30.489   4.175
61941W        W34366  38.348  17.745   3.375
61942W        W34367  29.931  41.453   0.494
61943W        W34368  38.468  42.537   3.250
61944W        W34369  23.723  38.291   4.245
61945W        W34370  21.090  20.345   0.427
61946W        W34371  36.780  44.384  14.606
61947W        W34372  16.858  36.242  12.911
61948W        W34373  25.656  14.203  13.590
61949W        W34374  15.705  22.642  12.478
61950W        W34375  36.015  37.263   4.301
61951W        W34376  31.907   0.948   5.076
61952W        W34377   1.130  40.292   5.166
61953W        W34378  10.548  33.829  11.494
61954W        W34379  21.357   2.770   0.744
61955W        W34380  26.467   3.294  14.629
61956W        W34381   1.415  35.533   1.750
61957W        W34382  17.648  36.880  14.395
61958W        W34383   4.828  15.694   5.141
61959W        W34384  35.572  14.357   4.594
61960W        W34385  41.779  25.196  10.934
61961W        W34386  13.140  10.260   3.527
61962W        W34387  25.881  39.773   2.655
61963W        W34388   0.223   9.713   1.504
61964W        W34389  43.241   2.015   2.251
61965W        W34390  27.446  44.015   3.347
61966W        W34391  29.397  44.522  10.456
61967W        W34392  15.051  18.986   0.491
61968W        W34393  20.730   2.788   1.791
61969W        W34394  35.598  40.860  11.942
61970W        W34395  35.644  19.732  13.396
61971W        W34396  13.786  15.337   4.522
61972W        W34397  29.615   1.236   3.829
61973W        W34398  33.640  26.009  11.529
61974W        W34399  18.337  40.528  12.595
61975W        W34400   1.559  17.378  13.268
61976W        W34401   8.374  36.897  12.339
61977W        W34402   6.674   5.943  13.423
61978W        W34403   5.635  31.026   0.345
61979W        W34404  44.207  23.054   0.133
61980W        W34405  37.061  24.335   1.855
61981W        W34406  32.854  34.953  11.431
61982W        W34407  15.578   4.839   1.982
61983W        W34408   6.881  24.123   0.230
61984W        W34409  37.961   4.435   1.698
61985W        W34410  38.366   3.197   0.687
61986W        W34411  11.767  24.042   4.939
61987W        W34412  38.960  10.877  14.946
61988W        W34413  11.610   8.909  14.936
61989W        W34414  20.513  42.743   2.469
61990W        W34415  40.240  30.106   0.021
61991W        W34416  20.069  35.650   1.066
61992W        W34417  24.651  41.358   2.770
61993W        W34418   0.737  17.097   1.344
61994W        W34419  27.873   5.017  13.084
61995W        W34420  22.032  27.750   0.250
61996W        W34421  25.677  42.792   4.605
61997W        W34422  32.660  31.939  10.621
61998W        W34423   1.477   2.994  14.312
61999W        W34424  27.982  22.396   3.756
62000W        W34425  10.178  39.064  14.321
62001W        W34426  36.779  32.059   4.893
62002W        W34427   8.096  42.854  12.505
62003W        W34428   0.951  38.897   4.338
62004W        W34429  32.855  42.842  13.970
62005W        W34430   3.768   2.751   1.781
62006W        W34431   1.075  10.128  12.665
62007W        W34432  12.576  10.753  13.584
62008W        W34433  29.363  25.482   1.316
62009W        W34434  33.264   4.533   5.177
62010W        W34435  15.676  22.673   2.882
62011W        W34436   3.761  44.681   1.339
62012W        W34437  20.304  37.135  11.015
62013W        W34438   7.067  37.410  13.973
62014W        W34439  41.012  30.539   4.305
62015W        W34440  44.656  38.823  14.433
62016W        W34441  28.840   4.761   0.407
62017W        W34442  19.478  37.952  13.531
62018W        W34443   7.400  18.050   4.585
62019W        W34444  12.710   6.813   1.918
62020W        W34445  17.848  23.260   2.288
62021W        W34446   2.629  13.734  11.989
62022W        W34447  19.753  20.736  11.324
62023W        W34448  39.064  39.384  10.136
62024W        W34449   1.350  29.537   1.002
62025W        W34450  28.415  25.380   1.334
62026W        W34451  17.662  18.128  11.916
62027W        W34452   8.369  23.154  11.005
62028W        W34453  26.543   9.715   0.510
62029W        W34454  28.773  10.259   3.179
62030W        W34455   8.939  23.065   3.636
62031W        W34456  41.694  19.099   2.809
62032W        W34457  28.879  33.404   5.491
62033W        W34458  33.770   3.652  13.359
62034W        W34459  22.613  42.280   3.425
62035W        W34460  22.235  38.746   3.316
62036W        W34461  14.325  13.722   0.427
62037W        W34462  44.983  30.417  10.676
62038W        W34463  17.831  20.673   0.417
62039W        W34464   4.780  26.490   4.609
62040W        W34465  14.158  28.148  10.637
62041W        W34466  42.843  42.472   0.417
62042W        W34467  32.870   6.363   0.171
62043W        W34468  12.849  23.516   2.703
62044W        W34469  29.992   2.663   2.271
62045W        W34470  38.707  23.504  14.440
62046W        W34471   4.215  39.903  12.890
62047W        W34472  16.254  23.778  13.523
62048W        W34473  20.991   3.732  13.030
62049W        W34474  24.048  32.355   2.972
62050W        W34475   9.250   3.162  14.150
62051W        W34476   0.508  40.054  10.736
62052W        W34477  24.968   9.332  13.562
62053W        W34478   1.074  27.911   1.635
62054W        W34479  42.847  32.926  11.128
62055W        W34480  44.250  39.986  11.047
62056W        W34481   9.271  13.416   4.717
62057W        W34482  28.983  33.939   1.876
62058W        W34483  11.668  17.394  11.950
62059W        W34484  26.723  30.969  10.164
62060W        W34485  20.634  27.407  12.467
62061W        W34486   2.424  31.563  14.339
62062W        W34487  41.891  12.500  14.019
62063W        W34488  43.805  39.990  12.524
62064W        W34489  21.159   8.134  12.687
62065W        W34490  32.338  43.501   4.116
62066W        W34491  44.032  37.794   0.736
62067W        W34492   7.767  27.284  11.577
62068W        W34493  13.176  22.184  12.000
62069W        W34494  35.530  40.759  13.946
62070W        W34495  30.292   1.269   3.809
62071W        W34496  10.868   9.495   1.853
62072W        W34497  14.331  43.526   3.667
62073W        W34498   8.882  23.527   3.400
62074W        W34499  20.685   4.848   3.078
62075W        W34500  22.995  38.420   1.841
62076W        W34501  34.118  19.048   0.978
62077W        W34502  29.898  28.601  13.403
62078W        W34503   8.202  39.760   3.963
62079W        W34504  40.434   8.378  11.292
62080W        W34505  43.322   9.275  11.099
62081W        W34506  18.885  23.231  11.722
62082W        W34507  27.001  27.118   3.052
62083W        W34508  27.780   7.353  10.663
62084W        W34509  27.995  16.498   3.965
62085W        W34510  37.574  17.349   2.299
62086W        W34511  43.010  29.229   5.159
62087W        W34512   3.952  32.897  14.284
62088W        W34513   5.793  36.651  11.556
62089W        W34514   1.909  19.156  14.420
62090W        W34515  42.738  13.139  14.934
62091W        W34516  44.432  24.583  13.909
62092W        W34517  12.102  25.114   1.225
62093W        W34518  28.642   9.012   3.901
62094W        W34519  43.286   6.592   4.350
62095W        W34520  37.861  40.599   0.247
62096W        W34521   9.366  38.400   0.227
62097W        W34522  14.274  26.455  12.130
62098W        W34523  40.018  23.120   4.569
62099W        W34524  35.841   7.745  10.521
62100W        W34525   7.860  39.439   0.982
62101W        W34526   9.777  19.145  10.717
62102W        W34527   3.400  29.465   4.086
62103W        W34528  12.686  35.199   1.826
62104W        W34529   1.521  18.589  14.965
62105W        W34530  23.227  16.430   1.746
62106W        W34531  38.479  12.553  14.948
62107W        W34532  12.563  15.475   5.065
62108W        W34533  33.606   8.834   1.820
62109W        W34534  21.445  22.286   1.511
62110W        W34535   9.834  44.553   1.273
62111W        W34536  34.586  22.615  14.798
62112W        W34537  13.872  20.753   0.369
62113W        W34538  15.718  38.035  13.148
62114W        W34539  19.125  19.910  14.423
62115W        W34540  35.973  15.115   4.879
62116W        W34541  36.703  25.863   1.790
62117W        W34542  11.407  23.244   1.859
62118W        W34543  10.191  28.057  13.457
62119W        W34544  11.550  23.994  12.654
62120W        W34545  39.367  36.588   4.898
62121W        W34546   8.477  18.937   4.215
62122W        W34547   6.790  36.155  11.945
62123W        W34548   0.504   0.349   1.911
62124W        W34549   7.752  35.443  11.200
62125W        W34550  30.147   3.364  10.847
62126W        W34551  19.079  19.417  11.295
62127W        W34552  31.711  13.569  11.017
62128W        W34553  23.101  24.187   3.187
62129W        W34554  23.020  36.026   1.317
62130W        W34555  33.219  25.427  13.767
62131W        W34556   8.339  17.141  11.075
62132W        W34557  13.930  33.315  14.851
62133W        W34558  40.916  44.819   3.213
62134W        W34559  27.494  34.634  13.989
62135W        W34560  37.023  42.898  13.915
62136W        W34561  37.952  21.969   5.123
62137W        W34562  44.386   4.059   3.672
62138W        W34563  44.039  41.718  11.171
62139W        W34564  26.205  25.230   3.198
62140W        W34565  36.392  34.122  13.314
62141W        W34566  10.538  18.963  14.021
62142W        W34567  12.147   7.236  12.787
62143W        W34568  27.165  21.501   4.150
62144W        W34569  24.264  26.951  13.885
62145W        W34570   9.766  41.288   2.672
62146W        W34571  41.492  20.845   1.814
62147W        W34572  18.770  31.490   0.764
62148W        W34573  25.238  21.057  13.885
62149W        W34574  28.888  33.114  12.498
62150W        W34575   5.269   4.878  11.172
62151W        W34576  12.550  16.108  14.029
62152W        W34577   5.827   3.464  12.357
62153W        W34578  44.948  10.378   0.859
62154W        W34579  32.084  30.160   3.824
62155W        W34580  20.972   4.854  11.600
62156W        W34581  43.946  35.853  11.128
62157W        W34582  32.891  10.816   2.766
62158W        W34583  31.485  40.900   0.986
62159W        W34584   8.661  42.405  14.970
62160W        W34585  37.612   0.915   2.386
62161W        W34586   6.176  29.450  11.574
62162W        W34587  43.042  32.562   3.821
62163W        W34588  15.113   7.697  12.884
62164W        W34589  24.039  21.593   0.230
62165W        W34590   1.258  34.000  11.519
62166W        W34591  25.351  30.615   0.381
62167W        W34592  20.012  18.098  10.222
62168W        W34593  43.410  10.931  12.477
62169W        W34594   6.109  11.616  10.468
62170W        W34595  38.813  21.081  12.619
62171W        W34596   7.424  16.237   1.861
62172W        W34597   4.941  32.658  11.275
62173W        W34598  35.300  43.791  14.400
62174W        W34599   8.613  22.056   1.365
62175W        W34600  10.207  33.142  12.666
62176W        W34601   9.555  13.150  14.973
62177W        W34602  17.961  11.778   2.254
62178W        W34603   5.587  19.795   3.705
62179W        W34604  18.171  22.132  12.336
62180W        W34605  13.241  44.815  13.970
62181W        W34606   2.370  22.659  10.253
62182W        W34607  20.716  39.236   0.999
62183W        W34608  30.621  24.960  13.273
62184W        W34609   7.870   6.140   4.925
62185W        W34610  36.283  13.819  13.971
62186W        W34611  31.931  11.171   0.249
62187W        W34612   4.387  32.654  13.911
62188W        W34613  32.413  13.656  11.538
62189W        W34614   7.547  16.681   1.258
62190W        W34615   0.885  13.811  10.596
62191W        W34616   0.509  23.804   0.790
62192W        W34617  38.047  36.349   4.422
62193W        W34618   1.185  37.562   3.305
62194W        W34619  23.228   2.716  14.166
62195W        W34620  26.898  21.982   1.417
62196W        W34621  44.826  27.964   2.267
62197W        W34622  32.447  39.553  13.460
62198W        W34623  11.795  13.731   1.734
62199W        W34624  32.387  19.995  13.966
62200W        W34625  44.299   9.140   0.502
62201W        W34626  20.237   4.730   0.699
62202W        W34627  14.658  43.915   3.424
62203W        W34628   4.447   1.002  13.347
62204W        W34629  39.731  31.990   4.618
62205W        W34630  25.084  40.763   0.229
62206W        W34631  20.131   3.447   2.315
62207W        W34632  43.309  38.749  12.876
62208W        W34633  36.230  44.931  11.643
62209W        W34634  16.719  22.967   2.403
62210W        W34635  36.572  29.489   0.402
62211W        W34636  12.069  16.279  13.986
62212W        W34637   8.234  26.197  11.057
62213W        W34638   0.839   9.348   4.610
62214W        W34639  20.580  27.634   2.010
62215W        W34640  22.252  44.751  14.399
62216W        W34641  14.472  38.114   1.819
62217W        W34642  30.076  21.746   0.727
62218W        W34643  33.410  26.913   0.869
62219W        W34644  19.049  30.548  13.131
62220W        W34645  17.609  30.425   1.847
62221W        W34646  16.258  23.079  10.867
62222W        W34647  19.694  44.053  12.963
62223W        W34648   4.894  29.085   0.296
62224W        W34649  15.338  23.081   4.350
62225W        W34650  13.081  32.073   1.387
62226W        W34651  44.269  31.828  12.155
62227W        W34652  17.670  42.772   3.826
62228W        W34653  36.693  29.446  11.471
62229W        W34654  30.168   7.620   2.410
62230W        W34655  43.483   6.202  13.002
62231W        W34656   5.203  12.663  13.013
62232W        W34657   5.504  33.477   2.421
62233W        W34658   1.778  43.074   0.297
62234W        W34659  44.756  30.308  13.375
62235W        W34660  21.235  28.765   3.727
62236W        W34661   1.723  34.561  13.875
62237W        W34662  34.664  24.639  11.215
62238W        W34663  41.872  43.323   0.224
62239W        W34664  31.869   2.545   3.098
62240W        W34665  27.923  20.714  12.021
62241W        W34666  43.487  14.756  14.330
62242W        W34667  30.654  27.658  11.930
62243W        W34668  13.709  39.836   4.683
62244W        W34669  28.159  38.996  12.505
62245W        W34670  33.635  17.260   5.110
62246W        W34671  18.307  13.668  11.029
62247W        W34672  44.373  22.784  12.066
62248W        W34673  27.017  44.814  11.568
62249W        W34674  22.230   4.657   4.687
62250W        W34675  41.461  44.964   0.193
62251W        W34676  12.895  10.592  13.198
62252W        W34677  43.688   5.574  10.675
62253W        W34678  14.683   7.319   4.645
62254W        W34679  44.503  20.628   1.995
62255W        W34680  23.189   6.024  11.046
62256W        W34681   3.220  22.151  13.389
62257W        W34682  28.126  26.150   4.640
62258W        W34683  38.253  25.519   9.781
62259W        W34684  19.663  17.794   3.384
62260W        W34685  22.757  35.134   4.380
62261W        W34686  22.292  23.031   0.461
62262W        W34687  28.694   0.943  13.849
62263W        W34688   9.719   6.738   1.181
62264W        W34689  25.069  15.820   3.829
62265W        W34690  40.777   4.762   3.811
62266W        W34691   3.355  37.629   2.718
62267W        W34692  33.505  34.152  13.120
62268W        W34693  16.310   7.932   1.299
62269W        W34694  24.667  42.146   2.187
62270W        W34695  12.389  15.316   4.230
62271W        W34696  17.093  26.995  13.377
62272W        W34697  17.282  35.410  10.830
62273W        W34698  29.187  38.425   0.896
62274W        W34699  16.101  23.191   4.767
62275W        W34700  42.109  43.007   1.077
62276W        W34701  19.766  14.770  11.388
62277W        W34702  37.159  37.019   4.695
62278W        W34703  25.015  44.255  14.088
62279W        W34704  44.808  38.926  13.951
62280W        W34705  25.771  20.968  13.216
62281W        W34706  41.703  38.759  12.032
62282W        W34707  12.675  44.857  14.763
62283W        W34708  11.193   7.770   4.601
62284W        W34709   9.717   0.814   1.991
62285W        W34710  35.713  27.954  11.650
62286W        W34711   9.318   2.741   2.313
62287W        W34712   3.683   3.683   1.299
62288W        W34713   1.972  11.691   0.561
62289W        W34714  36.548   7.892   4.770
62290W        W34715  10.198   7.982   2.688
62291W        W34716   4.721  40.305  10.586
62292W        W34717   7.879  30.533  10.702
62293W        W34718  11.752  18.145   0.850
62294W        W34719  27.633  37.929   0.121
62295W        W34720  18.234  23.156  13.309
62296W        W34721  12.444  30.048   4.644
62297W        W34722  33.159  12.593  12.423
62298W        W34723  28.753  20.699   2.371
62299W        W34724  44.264  42.508   1.372
62300W        W34725  32.346  20.167   3.676
62301W        W34726  17.960   0.095  14.475
62302W        W34727  42.464   8.432   3.272
62303W        W34728  42.741  26.579   4.941
62304W        W34729  31.444   8.643   1.852
62305W        W34730  35.601  30.088  14.480
62306W        W34731  27.457  28.129  14.359
62307W        W34732   4.902  28.065  10.667
62308W        W34733  20.130  29.289   0.868
62309W        W34734  23.087  10.128   3.521
62310W        W34735   9.844  38.471  14.997
62311W        W34736  42.088  44.367   2.098
62312W        W34737  18.211  29.106  14.369
62313W        W34738  14.994  25.076   2.025
62314W        W34739  16.228  33.700  10.662
62315W        W34740  26.736  25.814   5.097
62316W        W34741   5.596   4.840   2.782
62317W        W34742  27.313  14.686  14.891
62318W        W34743  25.119  37.112   4.223
62319W        W34744  41.661  12.311   3.413
62320W        W34745  38.868  24.258  12.490
62321W        W34746  28.206  21.886  13.106
62322W        W34747  18.645  23.580  10.251
62323W        W34748  32.955  44.278   0.683
62324W        W34749  16.541  12.217  12.980
62325W        W34750  26.163   7.666   3.745
62326W        W34751  43.057  31.865  10.365
62327W        W34752  35.006  44.208   4.490
62328W        W34753  39.863  43.274   2.439
62329W        W34754  39.111  34.460  10.441
62330W        W34755  18.781   8.801   2.242
62331W        W34756   3.440  31.181   2.159
62332W        W34757  21.561  13.186   3.082
62333W        W34758   3.936  40.800   2.798
62334W        W34759  24.451  25.668  13.080
62335W        W34760  24.419   6.195  12.501
62336W        W34761   8.524   5.241  10.015
62337W        W34762  43.034  25.608   3.256
62338W        W34763  10.318  43.897  10.188
62339W        W34764   2.717  10.219   4.019
62340W        W34765  28.386   2.317   3.236
62341W        W34766  32.333  10.846   1.882
62342W        W34767   1.249  44.798   4.615
62343W        W34768  20.496   9.256   0.112
62344W        W34769  33.958  29.956  10.667
62345W        W34770  15.397   7.356  11.520
62346W        W34771  41.612  29.018   0.157
62347W        W34772  21.705  17.542   4.104
62348W        W34773  36.054   3.924  11.541
62349W        W34774  38.967  31.613   3.205
62350W        W34775  28.983  29.925   0.027
62351W        W34776  18.275  35.075   2.313
62352W        W34777  17.196  28.888  12.182
62353W        W34778  20.756  30.577  13.699
62354W        W34779  14.745  18.502  11.493
62355W        W34780   1.454  33.779   0.495
62356W        W34781  33.186  23.600   1.148
62357W        W34782   3.874  15.815   2.351
62358W        W34783  27.946  26.611  12.635
62359W        W34784  11.346  15.344  14.549
62360W        W34785   1.520   9.746  13.923
62361W        W34786  28.429  39.377  12.798
62362W        W34787  39.917  41.333   4.845
62363W        W34788  36.108   3.157   3.277
62364W        W34789  24.699  29.395  14.089
62365W        W34790  22.568   2.989  11.597
62366W        W34791   7.419   3.248  10.650
62367W        W34792  35.139  39.420   3.260
62368W        W34793  15.481  16.113   2.134
62369W        W34794   4.670  43.392  10.371
62370W        W34795   3.282  39.403  11.035
62371W        W34796  20.609  38.866   2.773
62372W        W34797  25.584  44.442  13.002
62373W        W34798  10.176   6.962  14.266
62374W        W34799   7.927  31.482  13.828
62375W        W34800  28.427   5.862  12.502
62376W        W34801  12.932  28.181   0.408
62377W        W34802  11.262  18.606  11.991
62378W        W34803  43.992  28.080   4.169
62379W        W34804   3.296  28.111  11.621
62380W        W34805   1.260  44.465   0.159
62381W        W34806   0.367   0.842   2.803
62382W        W34807  23.702  21.762   4.610
62383W        W34808   7.090  15.288   1.838
62384W        W34809   8.137  22.634  11.008
62385W        W34810   1.195  28.043   3.982
62386W        W34811  24.908  25.589  11.503
62387W        W34812  35.490   5.972   0.387
62388W        W34813  30.189  35.986  12.925
62389W        W34814   1.365  44.548  12.931
62390W        W34815  18.841  35.126  11.214
62391W        W34816  26.406   8.139  14.960
62392W        W34817   2.020  44.894  11.251
62393W        W34818  38.755  28.327  11.649
62394W        W34819  34.063  26.898  14.373
62395W        W34820   5.513   8.359  14.749
62396W        W34821  38.556  20.092   0.497
62397W        W34822  37.480   1.484  14.988
62398W        W34823  33.065  33.655  12.443
62399W        W34824   4.416  35.894   3.672
62400W        W34825  22.682  17.098   4.142
62401W        W34826  17.260  20.775  14.294
62402W        W34827  28.640   8.201   2.288
62403W        W34828  38.917  29.637  14.846
62404W        W34829   1.219  40.796  11.532
62405W        W34830  41.781   2.465  11.909
62406W        W34831  22.127  24.682  11.589
62407W        W34832   8.096   7.629  12.804
62408W        W34833  26.100  14.339   0.893
62409W        W34834  15.271  34.437  11.056
62410W        W34835  40.247  14.156  10.897
62411W        W34836  29.992  33.053  10.530
62412W        W34837  18.052  29.849   4.607
62413W        W34838  11.759  29.447  11.198
62414W        W34839  30.115  22.642  12.475
62415W        W34840  32.134  24.545  12.104
62416W        W34841  41.296   2.492  13.589
62417W        W34842  27.405  30.862  11.643
62418W        W34843  19.561  25.071  13.860
62419W        W34844  20.409  26.461  12.196
62420W        W34845  11.125   7.434  11.052
62421W        W34846  20.745  16.130  11.553
62422W        W34847  38.917  20.077  11.610
62423W        W34848  35.257  32.204  10.769
62424W        W34849   2.256   6.837  11.162
62425W        W34850  32.591  15.291  12.224
62426W        W34851  21.942   9.232   1.455
62427W        W34852  44.956  38.761   4.667
62428W        W34853  19.149  16.253   4.778
62429W        W34854   8.810  21.103  12.952
62430W        W34855  30.971  27.192  12.011
62431W        W34856   5.099  25.555   4.213
62432W        W34857  16.378  37.518  13.426
62433W        W34858  40.724  21.324  11.135
62434W        W34859  32.864  36.118   1.259
62435W        W34860  21.146  42.184  13.528
62436W        W34861  19.355   5.274   1.723
62437W        W34862  44.907  36.113   4.214
62438W        W34863  21.709  32.480  10.325
62439W        W34864  40.322   1.009   3.241
62440W        W34865  40.534  38.332   3.747
62441W        W34866  20.853  38.723  12.761
62442W        W34867   5.491  22.409   1.926
62443W        W34868  40.529  25.847  12.653
62444W        W34869  41.369  43.420   4.663
62445W        W34870   9.200  43.809  10.692
62446W        W34871  16.002  32.942  13.821
62447W        W34872  18.710  38.295   1.442
62448W        W34873  23.135  41.481  13.863
62449W        W34874  33.975  39.938   1.209
62450W        W34875   5.005  37.396  10.531
62451W        W34876  39.424  41.637  12.637
62452W        W34877  35.919  23.046  10.853
62453W        W34878   1.304  31.128   4.776
62454W        W34879  28.377  15.490   2.194
62455W        W34880  25.020  42.510  13.794
62456W        W34881  38.112  21.317  14.701
62457W        W34882  34.863  23.470  11.672
62458W        W34883  42.407  16.300   4.450
62459W        W34884  12.848  15.824  13.641
62460W        W34885  23.142  16.986  14.828
62461W        W34886  23.621  21.183  12.471
62462W        W34887  10.768  35.851   2.646
62463W        W34888  44.373  21.143   4.162
62464W        W34889  34.848  10.980   0.961
62465W        W34890  40.359  33.915   3.720
62466W        W34891  10.013   3.869   0.527
62467W        W34892  16.401   1.504   1.644
62468W        W34893  30.778   0.951  10.106
62469W        W34894   1.911  13.571  13.452
62470W        W34895  11.193  26.566  13.772
62471W        W34896   0.515   2.864  14.568
62472W        W34897   7.053   9.396   3.357
62473W        W34898   4.333   3.636  12.133
62474W        W34899   5.117  19.655  10.823
62475W        W34900  44.278  29.909  10.682
62476W        W34901  39.066   9.234   2.765
62477W        W34902   7.610  41.466   3.663
62478W        W34903  33.112   4.588   0.295
62479W        W34904  10.861  25.667   2.852
62480W        W34905   1.958  42.937  12.816
62481W        W34906   9.564  37.370  13.513
62482W        W34907  32.029  36.248   1.647
62483W        W34908  10.819  42.779   0.511
62484W        W34909  26.138  33.859   1.761
62485W        W34910   3.778  36.298  13.768
62486W        W34911  44.257  26.624  10.232
62487W        W34912  29.106   8.932   0.244
62488W        W34913   6.912   4.974   3.759
62489W        W34914  10.884  44.195  11.081
62490W        W34915  26.221  22.536  11.644
62491W        W34916  30.364  19.147   4.237
62492W        W34917  29.986  36.563   3.223
62493W        W34918   8.740  33.639   4.188
62494W        W34919  33.450  26.495  10.123
62495W        W34920  16.120  14.236   1.238
62496W        W34921   9.402   2.357  12.972
62497W        W34922  14.175  14.502   2.565
62498W        W34923  15.863  21.903   5.073
62499W        W34924  19.280  16.117  12.907
62500W        W34925  27.531  32.712  14.468
62501W        W34926  34.963   3.222  13.396
62502W        W34927   0.290  27.844   2.134
62503W        W34928  12.651  42.875   4.161
62504W        W34929  36.098  17.270   3.338
62505W        W34930   3.368  24.217  13.660
62506W        W34931   7.320   6.471  10.656
62507W        W34932  32.538  33.511   5.015
62508W        W34933  10.162  34.905  10.476
62509W        W34934  10.305  33.851   2.909
62510W        W34935   4.810   2.379  14.335
62511W        W34936  24.112  28.506   1.897
62512W        W34937  35.524  38.052   0.285
62513W        W34938  28.529  27.666  14.980
62514W        W34939  20.219  38.480   1.825
62515W        W34940  43.786  19.728  14.257
62516W        W34941  33.378  16.658   5.831
62517W        W34942   8.025   8.442  12.513
62518W        W34943  36.661  20.075  11.102
62519W        W34944  39.113  24.337  14.288
62520W        W34945   7.269  38.539   4.224
62521W        W34946   5.426  32.756   1.391
62522W        W34947  24.735  18.784  12.410
62523W        W34948  30.851  31.904   2.248
62524W        W34949  33.423  15.236   0.757
62525W        W34950  43.057   3.033  12.314
62526W        W34951  24.008   6.158   1.847
62527W        W34952  33.112  24.617  14.158
62528W        W34953  11.822  13.550  11.199
62529W        W34954  29.107  44.427   4.489
62530W        W34955  27.959   5.922  11.613
62531W        W34956  24.727  26.719  11.902
62532W        W34957  31.066  14.662   3.890
62533W        W34958   1.977  39.337  14.065
62534W        W34959  28.182  43.672   0.809
62535W        W34960   8.491  20.307  10.642
62536W        W34961   0.147  13.836  14.400
62537W        W34962  41.638   5.434  10.506
62538W        W34963  42.123  21.019  11.941
62539W        W34964  39.261  24.182   2.371
62540W        W34965  35.147  22.613   0.026
62541W        W34966   6.144  36.296   9.744
62542W        W34967  12.787  29.247  11.886
62543W        W34968   9.886  22.049   2.642
62544W        W34969   0.458  20.580  12.357
62545W        W34970   3.489  40.234  11.099
62546W        W34971  41.542  37.448   1.849
62547W        W34972  44.817  15.055   0.729
62548W        W34973  27.363  30.507  12.039
62549W        W34974  12.311   6.893  11.571
62550W        W34975  31.875  43.282   4.028
62551W        W34976  30.833  40.935  13.586
62552W        W34977  14.642   3.091   2.754
62553W        W34978  16.788  12.669   0.496
62554W        W34979   0.484  44.270   2.326
62555W        W34980  18.740  11.381   4.367
62556W        W34981  32.074  29.512  12.619
62557W        W34982  12.364  15.260  12.448
62558W        W34983  18.779   7.643   0.267
62559W        W34984  31.604   0.990   0.417
62560W        W34985  18.549  10.887  14.458
62561W        W34986  18.131  40.732  10.772
62562W        W34987  11.709   8.847   2.245
62563W        W34988  33.381   3.745   2.201
62564W        W34989   0.749   0.174   2.378
62565W        W34990  15.474  43.235  14.530
62566W        W34991   2.292  11.984   3.219
62567W        W34992  21.599  21.677   0.277
62568W        W34993  34.123  15.806  11.147
62569W        W34994  16.545   9.312  11.825
62570W        W34995  15.506  25.606  12.618
62571W        W34996  37.480  31.892   1.197
62572W        W34997   7.876  41.541   3.175
62573W        W34998  40.794  15.235  14.558
62574W        W34999  41.194  32.501  12.835
62575W        W35000  13.097  27.596   2.439
62576W        W35001  23.614   2.469   2.236
62577W        W35002  16.626  30.984   0.874
62578W        W35003   5.267  22.474   3.297
62579W        W35004   4.987  33.133   9.971
62580W        W35005  10.359   0.909   4.737
62581W        W35006  10.865  39.513   2.251
62582W        W35007  40.391  15.577   1.292
62583W        W35008  31.706   3.216  13.970
62584W        W35009   1.497  25.483  10.698
62585W        W35010  41.489  23.233  13.467
62586W        W35011  44.506  24.749  11.128
62587W        W35012   6.736  44.963  10.837
62588W        W35013  39.599  23.286   3.311
62589W        W35014  17.360   9.662  11.665
62590W        W35015  22.797  30.791   1.533
62591W        W35016   7.088  35.738  13.479
62592W        W35017  42.224  39.705   0.017
62593W        W35018  18.741  34.891   5.075
62594W        W35019  11.603  40.874   0.696
62595W        W35020  31.494   9.705   4.875
62596W        W35021  19.646  29.541   3.269
62597W        W35022  21.276   4.694   1.873
62598W        W35023  32.457  33.671   2.440
62599W        W35024  13.107  41.762  11.075
62600W        W35025   3.643  36.564  10.543
62601W        W35026   0.536   8.868   0.272
62602W        W35027  39.437   9.316  12.064
62603W        W35028  12.266  19.950   1.967
62604W        W35029  44.461  39.239  11.442
62605W        W35030   6.407   4.126  13.504
62606W        W35031  26.405  24.571  11.236
62607W        W35032  15.191  23.716   9.832
62608W        W35033  16.922  21.593   4.079
62609W        W35034  12.142  42.869  13.409
62610W        W35035   2.315  40.058   1.629
62611W        W35036  23.997  43.398   3.594
62612W        W35037   7.182  39.597   1.284
62613W        W35038   9.909  23.497  13.751
62614W        W35039  14.506  23.476  10.645
62615W        W35040  31.994  26.888  11.192
62616W        W35041  39.896  24.776   1.191
62617W        W35042  25.571  24.198   2.830
62618W        W35043  23.537   7.976  11.032
62619W        W35044  28.069  13.703   1.434
62620W        W35045  35.000  38.399   1.317
62621W        W35046  36.920  29.088  13.268
62622W        W35047  30.948  10.785   3.233
62623W        W35048  18.266  27.820   3.321
62624W        W35049   3.234  17.559   1.466
62625W        W35050  20.497  26.679  14.468
62626W        W35051  20.746   1.999  12.497
62627W        W35052  24.043  18.362   2.230
62628W        W35053   6.460   3.748  12.047
62629W        W35054  14.622  33.576  12.523
62630W        W35055  36.121  39.369  14.298
62631W        W35056  33.610   1.988   3.319
62632W        W35057  12.750  29.165  13.583
62633W        W35058  33.465  14.724   0.396
62634W        W35059  36.746  25.029  14.595
62635W        W35060  31.613  34.062   1.496
62636W        W35061  13.835  18.058  12.761
62637W        W35062  38.832   5.638  12.044
62638W        W35063   9.334  34.741   1.391
62639W        W35064  25.198  38.091   4.224
62640W        W35065  35.685   2.407  10.633
62641W        W35066  15.087   0.747  12.069
62642W        W35067  24.048   6.441   0.014
62643W        W35068  20.681  27.128   1.660
62644W        W35069  30.666  15.358  10.628
62645W        W35070  22.248  15.629   4.230
62646W        W35071  13.207  23.233   2.407
62647W        W35072  11.809  21.958   3.798
62648W        W35073  17.786  27.449  11.486
62649W        W35074  22.999  33.474  14.256
62650W        W35075   1.713  18.839   4.585
62651W        W35076   7.116   9.308   0.784
62652W        W35077  38.859  14.313  13.524
62653W        W35078   1.213  28.481   4.614
62654W        W35079  39.791   6.651   1.695
62655W        W35080  43.740  32.809  14.976
62656W        W35081  28.110  31.065  11.203
62657W        W35082  40.470  39.088   4.592
62658W        W35083  17.655   2.722   0.269
62659W        W35084  11.704  18.886   1.370
62660W        W35085  23.572  17.416  14.902
62661W        W35086  28.222  14.480  11.018
62662W        W35087  29.563  15.772   5.070
62663W        W35088  43.064  27.045  13.340
62664W        W35089  11.739  19.962  13.566
62665W        W35090   6.966  37.302   1.264
62666W        W35091   9.760  29.453   0.967
62667W        W35092  11.219  34.038   2.182
62668W        W35093   0.933  23.132   2.905
62669W        W35094   2.815   3.235   3.283
62670W        W35095  28.464   1.213   3.136
62671W        W35096  38.430  30.945  10.791
62672W        W35097  40.058  25.175  14.771
62673W        W35098   3.722  31.682  14.768
62674W        W35099  24.537  10.004  10.592
62675W        W35100   2.064   5.404  10.665
62676W        W35101  13.144   8.402   2.334
62677W        W35102  19.102  15.764  14.489
62678W        W35103  11.295   2.971   0.744
62679W        W35104   4.262  44.900   1.239
62680W        W35105  18.107  15.594  10.666
62681W        W35106  13.522  11.793  13.529
62682W        W35107   0.942  29.161  10.732
62683W        W35108   5.219  33.420  13.363
62684W        W35109  40.999  40.244   2.894
62685W        W35110   3.966  33.561  14.820
62686W        W35111  37.779  22.924  11.851
62687W        W35112   7.964  20.430  12.470
62688W        W35113  24.553  25.966  12.586
62689W        W35114  30.548  30.805   1.350
62690W        W35115  24.034   3.463   0.616
62691W        W35116   8.973  17.237   4.160
62692W        W35117  21.488  20.860   1.353
62693W        W35118  38.465  39.100  13.382
62694W        W35119  10.322  10.555   2.516
62695W        W35120  28.175   1.692   4.734
62696W        W35121  44.986   9.219  10.582
62697W        W35122  29.568  12.605   2.914
62698W        W35123  36.390  18.856   4.178
62699W        W35124  26.022  30.649  10.566
62700W        W35125  16.386  39.116   4.033
62701W        W35126  26.209   8.109  13.573
62702W        W35127  17.748   5.877  11.320
62703W        W35128  11.814  23.972  11.891
62704W        W35129   5.684  41.807   1.987
62705W        W35130  41.375  43.573  10.427
62706W        W35131  42.574  16.265  14.360
62707W        W35132  27.755  33.940   4.588
62708W        W35133  26.887  32.476   2.195
62709W        W35134  27.961  32.462   0.304
62710W        W35135   9.736  44.327  13.209
62711W        W35136  35.409  33.415  13.951
62712W        W35137  44.748  11.278  12.087
62713W        W35138  17.029  30.744   0.212
62714W        W35139  42.853   7.465  13.364
62715W        W35140  26.183  39.480   0.856
62716W        W35141   0.081  25.314  10.399
62717W        W35142   0.291   3.298  14.373
62718W        W35143   8.460  36.522   4.216
62719W        W35144  20.451  34.030  14.395
62720W        W35145   3.904   0.360  10.615
62721W        W35146   5.659  26.045   2.672
62722W        W35147  15.140   4.412   4.035
62723W        W35148  43.465   4.260  10.425
62724W        W35149  33.006  43.274   4.579
62725W        W35150  35.533  42.570  12.438
62726W        W35151  10.369  37.025   4.563
62727W        W35152  25.018  19.602  10.453
62728W        W35153   9.127  39.903  12.066
62729W        W35154  25.730   2.123   2.785
62730W        W35155   1.508   9.684   1.613
62731W        W35156  22.622   1.226  12.863
62732W        W35157  25.514  28.187   2.814
62733W        W35158   2.789  38.238  13.166
62734W        W35159  33.069  37.297   3.153
62735W        W35160  39.811  22.584   1.904
62736W        W35161   1.011  39.321  12.552
62737W        W35162  11.081   9.590  10.014
62738W        W35163  38.355  13.590  13.031
62739W        W35164  15.168   3.669  11.632
62740W        W35165   2.684   9.995  13.156
62741W        W35166  44.697  36.905   2.319
62742W        W35167  15.083   2.013  12.622
62743W        W35168  18.326   4.774  14.766
62744W        W35169  44.745  31.068   4.622
62745W        W35170  23.460  10.170   4.768
62746W        W35171  11.682   7.193   2.234
62747W        W35172  21.676  26.516  13.094
62748W        W35173  17.655  30.201  14.909
62749W        W35174  25.595  22.023   0.952
62750W        W35175  35.000  30.670  13.000
62751W        W35176  30.913   2.771   2.169
62752W        W35177   6.375  22.493   1.398
62753W        W35178   6.831   8.513   4.601
62754W        W35179  24.496  21.641  10.881
62755W        W35180   8.147  32.016   4.627
62756W        W35181   6.184  16.884  11.979
62757W        W35182   4.394  33.555  12.409
62758W        W35183  30.295  32.261  13.891
62759W        W35184  17.767  12.595  12.964
62760W        W35185  27.759  18.342   2.801
62761W        W35186  15.127   9.334  10.646
62762W        W35187  13.237  42.987   0.001
62763W        W35188  10.795  35.676  11.218
62764W        W35189  33.725  16.193   0.913
62765W        W35190  17.810  31.939   1.448
62766W        W35191  28.703  39.217  11.106
62767W        W35192   9.124  20.324   1.872
62768W        W35193   9.593   0.877  13.380
62769W        W35194   4.782  17.932   1.267
62770W        W35195  14.590  44.485  12.449
62771W        W35196  10.557  36.583  14.304
62772W        W35197   1.042  35.817  13.868
62773W        W35198   7.649   5.780  11.132
62774W        W35199  25.740  24.577  11.811
62775W        W35200   6.429  44.438  12.135
62776W        W35201  10.324  27.484   0.169
62777W        W35202  17.523  10.535   2.415
62778W        W35203  24.753  20.268   0.192
62779W        W35204  16.782  42.255   2.276
62780W        W35205  12.912   0.733   1.760
62781W        W35206  25.126   1.033   2.120
62782W        W35207  43.972  39.057  11.198
62783W        W35208  30.665  39.875  12.449
62784W        W35209  30.482   8.752  10.764
62785W        W35210  26.446  17.672   0.829
62786W        W35211  44.514  34.917   3.690
62787W        W35212  24.539   0.488   4.113
62788W        W35213  18.135  15.233  13.063
62789W        W35214  34.011  28.717   1.243
62790W        W35215  27.410  41.151   0.740
62791W        W35216  32.657   3.721   4.993
62792W        W35217  24.297  26.515  11.744
62793W        W35218  34.540  17.341  12.538
62794W        W35219  41.300  14.574  10.793
62795W        W35220  35.342  34.371  12.811
62796W        W35221  26.137   2.471  10.633
62797W        W35222  26.440  17.881   1.325
62798W        W35223  37.595   9.366   2.278
62799W        W35224  17.061  13.331  14.415
62800W        W35225  11.197  44.863  13.758
62801W        W35226  10.831  26.387   2.318
62802W        W35227  13.816  25.508  14.019
62803W        W35228   0.930   2.199   3.364
62804W        W35229   7.624  11.630  10.414
62805W        W35230  41.906  11.385  12.324
62806W        W35231  42.232  42.468   2.301
62807W        W35232  12.640   2.334   3.303
62808W        W35233   1.222  13.789   3.809
62809W        W35234  18.673   3.494  11.087
62810W        W35235  11.650   6.720   9.934
62811W        W35236  13.709  16.109   3.792
62812W        W35237   3.747  28.195  11.900
62813W        W35238  41.863  19.791   0.659
62814W        W35239  43.415   5.691   2.964
62815W        W35240  21.291  20.708  13.410
62816W        W35241  41.999   9.418  10.739
62817W        W35242   8.024  44.440   1.978
62818W        W35243  11.782  41.490   2.399
62819W        W35244  21.708   6.516   1.809
62820W        W35245   1.362  15.588  13.003
62821W        W35246  28.597   4.322   0.256
62822W        W35247   6.273  16.601   1.902
62823W        W35248  35.285  13.683   2.277
62824W        W35249   1.782   5.308   1.504
62825W        W35250   3.802  20.741  10.675
62826W        W35251   7.940  37.730  11.835
62827W        W35252  38.446   4.957   3.631
62828W        W35253  35.414  43.187   0.322
62829W        W35254   5.233   7.098   4.856
62830W        W35255  41.931   1.395  11.667
62831W        W35256  40.806  12.820  10.672
62832W        W35257  36.071  18.586  13.861
62833W        W35258  10.782   1.195  13.330
62834W        W35259   4.371  35.252   0.281
62835W        W35260  14.379  11.116  10.718
62836W        W35261   6.371  18.940  11.174
62837W        W35262  13.676  36.069  13.915
62838W        W35263  16.367  18.345   3.320
62839W        W35264  17.606  12.885  12.524
62840W        W35265  35.239   1.388   4.300
62841W        W35266   3.782  38.403   2.890
62842W        W35267  16.739  12.494   1.823
62843W        W35268  18.050  15.355  14.064
62844W        W35269  37.312  34.287   0.802
62845W        W35270  17.531  15.106   2.270
62846W        W35271  35.461  11.882   1.450
62847W        W35272   6.011  42.343   3.356
62848W        W35273  28.132  43.714   1.659
62849W        W35274   1.415  27.098   0.560
62850W        W35275   5.702  19.075  11.588
62851W        W35276  33.419  19.940   1.449
62852W        W35277   2.477  27.991   0.727
62853W        W35278  20.510   8.538   3.118
62854W        W35279  25.017  25.896   2.284
62855W        W35280  27.528  40.497  10.630
62856W        W35281   2.422  10.172  12.091
62857W        W35282  17.709  17.211  11.569
62858W        W35283  12.162  33.908  13.784
62859W        W35284  19.599  42.150  10.776
62860W        W35285  13.262   4.774   0.015
62861W        W35286  27.347   0.287   2.662
62862W        W35287  27.063  34.389   2.868
62863W        W35288  24.008   2.714  13.840
62864W        W35289  32.829  19.235  13.403
62865W        W35290  24.693  29.652   1.334
62866W        W35291  12.392  23.102   0.749
62867W        W35292  32.321  43.049   3.846
62868W        W35293  31.569   7.228  13.924
62869W        W35294  17.948  34.366  11.156
62870W        W35295   5.201  26.062   1.854
62871W        W35296  31.669  26.004  10.583
62872W        W35297  30.004  21.727   4.511
62873W        W35298  23.481  33.569   3.334
62874W        W35299  16.017  26.343  13.175
62875W        W35300  36.220  12.285  12.377
62876W        W35301  39.034  16.104   2.512
62877W        W35302   1.541  40.985   3.538
62878W        W35303   0.382  30.579  14.318
62879W        W35304  32.454  44.151   2.409
62880W        W35305  23.059  21.654   2.276
62881W        W35306  34.813  43.734   2.212
62882W        W35307  41.984  16.111  11.104
62883W        W35308  24.432  13.019  13.470
62884W        W35309  44.959  20.801  13.554
62885W        W35310  13.184  35.289  12.094
62886W        W35311   9.643   8.281   5.541
62887W        W35312  39.079  20.588   0.769
62888W        W35313  24.196  13.267  12.176
62889W        W35314  21.330   6.803   2.051
62890W        W35315   0.765   2.598  10.838
62891W        W35316  37.063  32.595  11.087
62892W        W35317   7.320   4.839  10.322
62893W        W35318  13.107   7.799  11.479
62894W        W35319  14.125  18.522   3.736
62895W        W35320  27.653  43.206   2.346
62896W        W35321  30.145   3.428   0.436
62897W        W35322  36.329   3.189  14.329
62898W        W35323  24.754   8.522  13.038
62899W        W35324  30.972  25.556  12.578
62900W        W35325  26.500  33.329  13.139
62901W        W35326  14.746   0.483  14.544
62902W        W35327  10.211  36.341  13.547
62903W        W35328  16.243   9.937  10.526
62904W        W35329   8.266   7.446  12.376
62905W        W35330  39.902  23.005   0.918
62906W        W35331  35.108  18.164   0.920
62907W        W35332   4.906  24.794  10.505
62908W        W35333  38.477   6.752  12.349
62909W        W35334   9.376   6.827  13.973
62910W        W35335  41.891  20.061  12.356
62911W        W35336  40.950   9.452  13.965
62912W        W35337  29.539  18.457  12.639
62913W        W35338  12.702  24.589   0.131
62914W        W35339  43.498  35.183   3.280
62915W        W35340   2.945  26.656  12.091
62916W        W35341  19.948  15.728  11.660
62917W        W35342  22.524  30.063   2.622
62918W        W35343  38.812  35.168  13.758
62919W        W35344  44.144   3.881   4.643
62920W        W35345  33.622  16.995  12.051
62921W        W35346  11.741  36.126  14.369
62922W        W35347  36.603   7.462  11.529
62923W        W35348  37.319  16.652  12.525
62924W        W35349  35.979  38.168   0.460
62925W        W35350  35.401   6.238  13.304
62926W        W35351  36.472  12.064   1.628
62927W        W35352  38.074  31.196  11.168
62928W        W35353  32.217  13.765   2.757
62929W        W35354  41.094  17.205   4.623
62930W        W35355  14.249  16.057   0.688
62931W        W35356  34.481  40.590   2.912
62932W        W35357   5.770   8.783   0.516
62933W        W35358  13.111  41.295   4.077
62934W        W35359   7.714  22.573   3.740
62935W        W35360   2.360  23.698  10.777
62936W        W35361  30.212  15.630   3.695
62937W        W35362  32.495  23.726  13.078
62938W        W35363   3.529  34.482   3.658
62939W        W35364  36.817   8.557   0.816
62940W        W35365  15.107   0.253  12.878
62941W        W35366  33.489  24.225  14.146
62942W        W35367  34.954   2.178  13.445
62943W        W35368  20.335  42.779  13.400
62944W        W35369  34.319  13.525  13.996
62945W        W35370   4.843  35.559  13.870
62946W        W35371  30.441  32.180   3.030
62947W        W35372  42.343  41.878  11.774
62948W        W35373  32.834  19.637   4.727
62949W        W35374   2.777   2.952  14.389
62950W        W35375  20.801  43.539   2.168
62951W        W35376  20.949   8.062  14.249
62952W        W35377  13.202  15.737  10.309
62953W        W35378  30.303  28.933  13.572
62954W        W35379  18.153  29.697   1.237
62955W        W35380  24.053  38.756  11.588
62956W        W35381  39.801   5.752   4.317
62957W        W35382  32.401  41.821   2.668
62958W        W35383  17.742  41.259   3.599
62959W        W35384  22.121  34.939   1.312
62960W        W35385  31.688  22.832  12.896
62961W        W35386  37.426   9.345   3.362
62962W        W35387  42.387  42.763  13.682
62963W        W35388  29.604  11.897  13.473
62964W        W35389  13.152   2.564  14.796
62965W        W35390  24.920   0.783   1.701
62966W        W35391  40.415  36.437   0.975
62967W        W35392  23.673   2.702  14.419
62968W        W35393   0.955  28.396  14.341
62969W        W35394  33.499  39.867   2.396
62970W        W35395  44.006  19.759   1.671
62971W        W35396  31.563  14.811  15.000
62972W        W35397  33.476   1.357   1.375
62973W        W35398  44.393   7.593  13.477
62974W        W35399  28.087  30.370  12.342
62975W        W35400  38.371  15.751  13.132
62976W        W35401  29.055  38.854  11.076
62977W        W35402  10.778  14.111   1.973
62978W        W35403  37.948  13.292   4.337
62979W        W35404  25.133  26.772  13.988
62980W        W35405  38.096  27.133   2.929
62981W        W35406  24.061  18.927  12.835
62982W        W35407  39.945  33.994   3.219
62983W        W35408   8.290   9.905  12.402
62984W        W35409   5.693  30.902  10.741
62985W        W35410  31.048  15.039   3.559
62986W        W35411  29.682  43.559  13.624
62987W        W35412  34.144  41.786  12.201
62988W        W35413  36.123  28.980  10.713
62989W        W35414  27.450  16.419  12.608
62990W        W35415  21.796  41.616  12.045
62991W        W35416  22.182  16.394   4.440
62992W        W35417  18.498  13.675   4.569
62993W        W35418  18.733  12.589   2.701
62994W        W35419  14.343  14.567   3.575
62995W        W35420   2.268  18.701   1.337
62996W        W35421  34.302  14.184   4.300
62997W        W35422  39.051  17.125  13.476
62998W        W35423   6.975  20.184   0.941
62999W        W35424  39.420  33.566   0.767
63000W        W35425  41.133  37.402   0.948
63001W        W35426  39.846  33.583   0.423
63002W        W35427   4.926  15.229  11.091
63003W        W35428   3.394  25.752   0.354
63004W        W35429   8.600  26.198  12.907
63005W        W35430   7.328  16.417   4.185
63006W        W35431   2.738  24.412  14.540
63007W        W35432   2.496   2.783  10.649
63008W        W35433  39.961   1.309   3.554
63009W        W35434  39.882  43.771  14.674
63010W        W35435  36.525  38.278   2.933
63011W        W35436   5.374   2.768  11.835
63012W        W35437  37.890  27.822   0.031
63013W        W35438   1.837   4.903   3.597
63014W        W35439  28.399  20.335   0.962
63015W        W35440   4.488   3.888  14.787
63016W        W35441  16.717  12.258  14.762
63017W        W35442  18.682  17.235   4.757
63018W        W35443  42.327  25.479   1.939
63019W        W35444   3.562  31.023  10.979
63020W        W35445  11.657  34.492  12.179
63021W        W35446  30.724   0.901   3.122
63022W        W35447  21.454  14.626  12.656
63023W        W35448  16.318  24.558  10.982
63024W        W35449  40.799  21.523  11.608
63025W        W35450   3.539  31.620  11.685
63026W        W35451  24.601  26.714   1.674
63027W        W35452  32.626  37.612  12.066
63028W        W35453  18.076  29.389   3.234
63029W        W35454  42.118  18.673  14.840
63030W        W35455  38.372  14.402   4.707
63031W        W35456  28.463   6.372  12.586
63032W        W35457   4.051  37.513  13.046
63033W        W35458  28.180  11.798  10.677
63034W        W35459  41.785  20.664  13.020
63035W        W35460  16.750   9.881   1.390
63036W        W35461  26.958  12.764  10.671
63037W        W35462  21.336  26.069  13.472
63038W        W35463  30.884  29.940   4.522
63039W        W35464  10.320   2.735   1.471
63040W        W35465  31.333  31.938  11.637
63041W        W35466  22.697  41.421   1.969
63042W        W35467   5.450   9.664  11.540
63043W        W35468  31.137  23.833  11.448
63044W        W35469   2.132  33.518  10.198
63045W        W35470  17.070   3.375   3.646
63046W        W35471  40.062   3.201  14.966
63047W        W35472  41.060  12.393   0.192
63048W        W35473  41.967  10.130  13.349
63049W        W35474  23.251  39.616   1.259
63050W        W35475  41.644   9.829   3.852
63051W        W35476  13.736   5.914  13.915
63052W        W35477  31.635   3.502   0.550
63053W        W35478  42.675  24.492   5.030
63054W        W35479  20.277  39.324  13.809
63055W        W35480   7.698  39.058   3.188
63056W        W35481  31.576  13.774  13.262
63057W        W35482  31.629  39.402   4.397
63058W        W35483  44.209  36.072  13.503
63059W        W35484  19.408  25.183  14.888
63060W        W35485  17.584  16.719   1.902
63061W        W35486  34.014   3.703  11.232
63062W        W35487  43.982   3.911  11.624
63063W        W35488  11.700  28.066  13.800
63064W        W35489  16.133   4.104  13.337
63065W        W35490   2.967  42.476   3.716
63066W        W35491   3.865  22.585   2.690
63067W        W35492   6.191  43.287   4.592
63068W        W35493  29.059  42.308   3.989
63069W        W35494  44.609  30.847  12.157
63070W        W35495  22.257  44.437   4.168
63071W        W35496  22.684  12.630  13.575
63072W        W35497  21.037   0.354   2.249
63073W        W35498  29.663  38.061   1.985
63074W        W35499  42.143  31.880   0.873
63075W        W35500  39.063  16.591   4.086
63076W        W35501  16.712   2.457  12.052
63077W        W35502  27.590  37.303   1.459
63078W        W35503  24.239   3.430   3.154
63079W        W35504  16.187  19.983   4.872
63080W        W35505  22.089  42.695  12.011
63081W        W35506   8.584  20.053  12.041
63082W        W35507  21.267  32.342   3.095
63083W        W35508   4.039  12.165  11.390
63084W        W35509  35.832   7.203   2.844
63085W        W35510  42.339   1.971  11.866
63086W        W35511  17.553  13.172   1.677
63087W        W35512  10.779  18.965  11.033
63088W        W35513   8.823  28.128   2.818
63089W        W35514  17.546  16.053   0.953
63090W        W35515  14.353  17.030  11.999
63091W        W35516  27.444  37.139  13.978
63092W        W35517  12.266  19.747  13.940
63093W        W35518  38.959  12.829  11.403
63094W        W35519   5.695   1.507  11.122
63095W        W35520  14.724   9.131   0.468
63096W        W35521  23.198  13.009  14.365
63097W        W35522   6.722  26.878  11.421
63098W        W35523   7.421  42.883   0.873
63099W        W35524  14.698  24.005   2.940
63100W        W35525  24.518   6.034   1.882
63101W        W35526  41.261  22.864   1.937
63102W        W35527  36.520   5.701  12.406
63103W        W35528  25.901  17.766   0.140
63104W        W35529   8.454  24.448  13.045
63105W        W35530   6.549  44.209  11.163
63106W        W35531   1.788  30.044   0.310
63107W        W35532  38.392   7.022  11.932
63108W        W35533   4.456   7.763  10.601
63109W        W35534  42.781  17.247  10.618
63110W        W35535  38.344  36.506  13.334
63111W        W35536  34.808  19.028  12.504
63112W        W35537  15.215  12.317  14.713
63113W        W35538  12.151  13.273   0.647
63114W        W35539  29.366   3.776  14.278
63115W        W35540   3.841  19.254  13.391
63116W        W35541  21.683  20.766  12.817
63117W        W35542  20.731  23.565   1.760
63118W        W35543  19.090  18.105  13.970
63119W        W35544  16.083   4.454   2.728
63120W        W35545  40.561  23.755   0.304
63121W        W35546  18.967   0.842   4.511
63122W        W35547  33.646  19.020  12.045
63123W        W35548   0.422  36.302  11.762
63124W        W35549  22.564  18.030  14.876
63125W        W35550  43.274   6.749   4.837
63126W        W35551   4.480  27.064  12.924
63127W        W35552  43.494  27.663  12.779
63128W        W35553   2.180   1.206   3.175
63129W        W35554  13.882   3.314  12.087
63130W        W35555  38.725  28.871  13.339
63131W        W35556   0.315  13.759   2.657
63132W        W35557   0.390  11.094  11.799
63133W        W35558  20.363  24.633  14.496
63134W        W35559  24.151  29.252   4.121
63135W        W35560   5.805  26.036  10.732
63136W        W35561   8.456   6.865  10.686
63137W        W35562   7.188   6.307   3.625
63138W        W35563  21.547  27.492   0.815
63139W        W35564  34.658   3.315  10.762
63140W        W35565  15.856  40.059   2.343
63141W        W35566   8.368  26.998  14.837
63142W        W35567   7.212  32.119   1.458
63143W        W35568   6.738  10.608  13.922
63144W        W35569   8.253   3.333   0.920
63145W        W35570   9.609  36.295  13.755
63146W        W35571  35.898  40.635   0.319
63147W        W35572  40.471   0.004   4.571
63148W        W35573  32.367  22.056  13.043
63149W        W35574  28.120  44.867   0.472
63150W        W35575  39.336   8.337  11.169
63151W        W35576  42.406  20.273   3.234
63152W        W35577  39.200  22.209   0.501
63153W        W35578  25.494  41.287   4.488
63154W        W35579   8.928  35.029   0.451
63155W        W35580   7.752  21.569  13.092
63156W        W35581   5.278  13.950  12.227
63157W        W35582  17.608  44.710   0.355
63158W        W35583  41.330  37.012  10.941
63159W        W35584  42.938  11.799  13.164
63160W        W35585   8.933  34.448   1.265
63161W        W35586  24.604  32.960   4.615
63162W        W35587  17.685  16.654   4.142
63163W        W35588  40.392   5.674  13.481
63164W        W35589  26.820  26.908  13.290
63165W        W35590  24.944  40.922  11.834
63166W        W35591  43.963  39.798  10.655
63167W        W35592  34.137  29.814   1.688
63168W        W35593  22.832  34.442   0.921
63169W        W35594  29.581  43.170  13.258
63170W        W35595  10.355   0.898   0.225
63171W        W35596  39.512   9.870  11.401
63172W        W35597  33.459  28.695  10.738
63173W        W35598  19.970  40.185   3.207
63174W        W35599  33.973  30.454  12.607
63175W        W35600  15.105   7.926   3.914
63176W        W35601  12.369  24.092  14.826
63177W        W35602  40.818  38.010  12.498
63178W        W35603  27.570  44.486   3.638
63179W        W35604  23.709   1.519   2.977
63180W        W35605   4.892   2.649   2.706
63181W        W35606  12.177   3.708  13.091
63182W        W35607  26.056  17.979  14.407
63183W        W35608  22.166   5.988  14.293
63184W        W35609   8.774  44.488  12.111
63185W        W35610  26.115   3.758  12.492
63186W        W35611  42.215   6.338  13.341
63187W        W35612   5.773  17.327   0.757
63188W        W35613  13.590  42.974  12.551
63189W        W35614   7.691   9.913   1.823
63190W        W35615  27.347  41.406   2.910
63191W        W35616  39.967  38.782  10.480
63192W        W35617  13.237  16.231   2.789
63193W        W35618  35.802  41.134   0.463
63194W        W35619  22.262  30.147  12.889
63195W        W35620  38.908  13.623   3.657
63196W        W35621  13.819   4.466  14.026
63197W        W35622  42.520  33.634  12.850
63198W        W35623  29.553  37.132   4.104
63199W        W35624  42.717  25.114   4.312
63200W        W35625   5.908   0.679   0.431
63201W        W35626  11.951  29.780   4.373
63202W        W35627  39.737   8.649  11.002
63203W        W35628  22.708  32.987   3.508
63204W        W35629   9.194   8.346   4.653
63205W        W35630   9.813  31.558   1.844
63206W        W35631  29.321   8.175  14.807
63207W        W35632  33.582  11.234   1.918
63208W        W35633   0.797  44.354  13.463
63209W        W35634  44.064  35.085   2.351
63210W        W35635  23.550  23.942   3.200
63211W        W35636   3.257  44.677  10.510
63212W        W35637  33.783  16.284  12.554
63213W        W35638  36.010  23.729   1.778
63214W        W35639  17.752  23.297   1.260
63215W        W35640   7.231  43.519  12.330
63216W        W35641  27.446  17.349   3.661
63217W        W35642  17.738  33.498  12.385
63218W        W35643  23.803   6.782   2.282
63219W        W35644   5.230   7.309  10.907
63220W        W35645  37.635  26.133   1.775
63221W        W35646  14.326  14.398  13.991
63222W        W35647  17.690   1.415   4.565
63223W        W35648  21.370  23.056   0.106
63224W        W35649  14.750  21.629   5.542
63225W        W35650  17.654  44.478  12.082
63226W        W35651   8.929  35.328  11.607
63227W        W35652  36.112  26.422   2.895
63228W        W35653  18.667  12.093   0.926
63229W        W35654  17.867   5.332   4.296
63230W        W35655   4.746  29.771   0.957
63231W        W35656  12.284  32.226   3.018
63232W        W35657  16.374  24.047  11.095
63233W        W35658  44.709  35.684  11.624
63234W        W35659  26.467  38.827   4.191
63235W        W35660  10.353  18.742  13.561
63236W        W35661  34.082  39.382  14.285
63237W        W35662  33.533  13.067   4.492
63238W        W35663  31.342   6.893   5.057
63239W        W35664  25.919  42.821  10.714
63240W        W35665  29.494  14.687  11.490
63241W        W35666  42.822  22.099  14.732
63242W        W35667  10.369  19.452  13.932
63243W        W35668  17.085  31.983   2.725
63244W        W35669  18.073  27.737  10.656
63245W        W35670  40.178  14.723   3.957
63246W        W35671  17.003   3.028   1.254
63247W        W35672  39.219  41.166  11.000
63248W        W35673   6.812  33.587   1.868
63249W        W35674  12.623   9.890   1.201
63250W        W35675  34.281  19.070   0.416
63251W        W35676  27.616  15.184  10.663
63252W        W35677  36.147  22.240   2.872
63253W        W35678  12.784   4.601   0.155
63254W        W35679  30.591  33.933   4.644
63255W        W35680  37.045   5.657   1.744
63256W        W35681  13.210  19.301  13.872
63257W        W35682  41.341  15.609  11.785
63258W        W35683  27.747  13.575  11.123
63259W        W35684   9.585   2.257   3.140
63260W        W35685  16.578  39.791  13.435
63261W        W35686  10.589   1.353  11.522
63262W        W35687  31.873  15.115   3.174
63263W        W35688  14.667  27.488   1.843
63264W        W35689   6.505   8.670   3.191
63265W        W35690  20.936  29.445   4.069
63266W        W35691   0.655  33.657   4.637
63267W        W35692  23.610  25.995  14.032
63268W        W35693   5.501  29.690  14.808
63269W        W35694   6.979  24.131  12.934
63270W        W35695  28.489  33.958  10.696
63271W        W35696  38.055  38.141   3.230
63272W        W35697  18.172  16.152  12.701
63273W        W35698  39.524  21.814   0.637
63274W        W35699  22.081   2.734  11.587
63275W        W35700  13.607  42.271   2.863
63276W        W35701  17.968  38.908  10.916
63277W        W35702   6.686   4.218   4.437
63278W        W35703  31.121   8.546   3.289
63279W        W35704  37.881   8.387   4.490
63280W        W35705  10.668  36.337   4.836
63281W        W35706  41.276  43.907   2.894
63282W        W35707  10.450  22.420  12.633
63283W        W35708  21.702  21.194   2.220
63284W        W35709  41.023  21.503  10.730
63285W        W35710  22.418  44.007   1.909
63286W        W35711  33.622   2.197   1.567
63287W        W35712  16.520  26.235  13.014
63288W        W35713   8.778  27.944  11.961
63289W        W35714   8.643  42.530   4.191
63290W        W35715   5.361   0.847  12.476
63291W        W35716  27.098  15.527  11.991
63292W        W35717  11.008  32.656  14.824
63293W        W35718   7.396  24.168   0.289
63294W        W35719  23.242   9.637  10.591
63295W        W35720  16.081  16.858  13.801
63296W        W35721  39.604  41.036  11.916
63297W        W35722  23.219  41.752   2.330
63298W        W35723  27.420  17.781  12.418
63299W        W35724  23.550  18.199   2.180
63300W        W35725  28.807   2.805   2.271
63301W        W35726  36.103  11.686   2.261
63302W        W35727  42.317  28.692  13.578
63303W        W35728  31.866  19.026  13.965
63304W        W35729  40.533   4.424   1.654
63305W        W35730   3.867  37.012   0.289
63306W        W35731   6.758   1.983  13.461
63307W        W35732  36.182  29.794  14.939
63308W        W35733  33.394  23.554   1.653
63309W        W35734   3.263  42.940   0.658
63310W        W35735   9.767   4.968   3.716
63311W        W35736  40.962  41.340  12.038
63312W        W35737   9.820  18.664   3.863
63313W        W35738  22.522  35.118  14.473
63314W        W35739   7.890  10.284   9.865
63315W        W35740  38.825  40.793   1.692
63316W        W35741  30.633  14.217   2.293
63317W        W35742  19.312  19.544   0.313
63318W        W35743  36.378  36.372  10.721
63319W        W35744  29.889  21.032  11.578
63320W        W35745   7.013  18.096   1.545
63321W        W35746  15.176  27.202  13.394
63322W        W35747  34.985  10.270   4.671
63323W        W35748  23.503   2.371   3.633
63324W        W35749   0.295  24.118   1.777
63325W        W35750  33.959   1.177   2.258
63326W        W35751  22.586  25.095   4.192
63327W        W35752  15.774  37.630   4.929
63328W        W35753  39.364  18.731   3.624
63329W        W35754  42.456  28.580  11.600
63330W        W35755  34.502  27.202  14.336
63331W        W35756  35.164  37.439   4.577
63332W        W35757   3.312  20.247   4.144
63333W        W35758  23.310   5.379   3.668
63334W        W35759  30.422  28.099  12.679
63335W        W35760  38.318   6.906   4.181
63336W        W35761  23.385  19.794   1.851
63337W        W35762  16.872  30.587   9.449
63338W        W35763  33.121  19.817  14.573
63339W        W35764  33.586  37.305   2.162
63340W        W35765   4.871  41.034   2.785
63341W        W35766  38.811  43.907  10.823
63342W        W35767  26.644   1.846   1.196
63343W        W35768   6.854  38.860  13.343
63344W        W35769  21.265   1.809  11.921
63345W        W35770  37.154  10.885   0.369
63346W        W35771  35.675  30.881   0.709
63347W        W35772  10.177   4.278  10.627
63348W        W35773  41.266  29.144   2.207
63349W        W35774  10.801  37.460  13.836
63350W        W35775  17.895  37.334  13.565
63351W        W35776  38.272   8.296  13.093
63352W        W35777  36.216  26.360  12.872
63353W        W35778  40.465  25.414  12.929
63354W        W35779   7.178  24.275   2.630
63355W        W35780  41.538   6.813   0.471
63356W        W35781  22.599  40.809  11.143
63357W        W35782  41.730  21.932  12.238
63358W        W35783   3.534  42.008   3.213
63359W        W35784  13.286  25.458  13.479
63360W        W35785   5.991  23.540   0.708
63361W        W35786  31.056   3.976  10.730
63362W        W35787  39.888  22.268  12.527
63363W        W35788  16.937  11.477   4.626
63364W        W35789  19.327  27.659   2.839
63365W        W35790   9.259  34.407   3.146
63366W        W35791  17.337   5.978  14.192
63367W        W35792   0.511  25.474  13.906
63368W        W35793  18.239  44.775  10.571
63369W        W35794  25.280  43.392  13.890
63370W        W35795  35.280   5.711   2.205
63371W        W35796   4.835  42.201   5.041
63372W        W35797  25.648  26.408  11.051
63373W        W35798   4.313  24.012   4.621
63374W        W35799  38.414   7.480   2.860
63375W        W35800  14.388   3.635  14.094
63376W        W35801  23.063   8.044  13.508
63377W        W35802  16.861  35.176  11.021
63378W        W35803  39.324  26.243  10.449
63379W        W35804  38.747  18.128  11.863
63380W        W35805  23.638   8.209   1.201
63381W        W35806   2.260  15.802  12.978
63382W        W35807  18.772  37.769  11.290
63383W        W35808  38.839  19.581  11.614
63384W        W35809  33.166  27.280  14.354
63385W        W35810   3.637   9.848  13.562
63386W        W35811  38.260  22.471   0.408
63387W        W35812  10.805  32.523   3.252
63388W        W35813   5.743   0.440  12.469
63389W        W35814  39.786  27.579   1.300
63390W        W35815  33.573   2.067  11.536
63391W        W35816  19.464  13.188  14.384
63392W        W35817  15.602  27.080  13.131
63393W        W35818  20.202  29.060  13.077
63394W        W35819  14.727   1.713   3.239
63395W        W35820  33.903  32.392  14.350
63396W        W35821  21.508  10.407  11.197
63397W        W35822  33.721  33.772  11.503
63398W        W35823  24.754  38.827  12.184
63399W        W35824  36.948  30.063   3.704
63400W        W35825  32.156  24.912  11.002
63401W        W35826   2.788  19.689   4.378
63402W        W35827   1.284  18.758   1.711
63403W        W35828  44.856  24.166   2.816
63404W        W35829  18.861  37.861  14.812
63405W        W35830  37.910   1.971  13.490
63406W        W35831  10.384   2.974  12.850
63407W        W35832   6.214  13.361  14.497
63408W        W35833   0.938  11.077   4.189
63409W        W35834   7.909  18.400  14.747
63410W        W35835  24.749  13.750  12.985
63411W        W35836  10.871  33.805  12.897
63412W        W35837  40.702  33.945   1.877
63413W        W35838  42.174  41.979   0.904
63414W        W35839  19.463   0.511   0.485
63415W        W35840  37.863  32.620  10.368
63416W        W35841  43.308  15.698  14.543
63417W        W35842  39.254  30.050   2.181
63418W        W35843  30.452   3.721  11.092
63419W        W35844  37.394   5.386  10.551
63420W        W35845  12.227  39.752   1.033
63421W        W35846  27.703  18.853  11.515
63422W        W35847  22.787  24.370  11.412
63423W        W35848  10.391   9.356   1.640
63424W        W35849  21.732  13.610   2.800
63425W        W35850   2.984  19.143  10.553
63426W        W35851   8.887   9.332  12.538
63427W        W35852  17.553  39.371   0.570
63428W        W35853   3.764  42.808  11.258
63429W        W35854  44.922  14.387   4.131
63430W        W35855   9.491   2.163  11.007
63431W        W35856  44.001  44.792   1.606
63432W        W35857  34.391   4.396   4.727
63433W        W35858  43.173  39.940   4.582
63434W        W35859  19.927  34.306  12.870
63435W        W35860  19.294  36.113  12.059
63436W        W35861  19.098  28.076  11.626
63437W        W35862  42.419  30.583  13.117
63438W        W35863  28.165  22.309   1.892
63439W        W35864  30.671   3.418   1.324
63440W        W35865  32.738  18.612  12.146
63441W        W35866  41.012  43.771   0.588
63442W        W35867  34.568  26.339  14.725
63443W        W35868  11.702  12.553   2.318
63444W        W35869   0.152  19.725   3.632
63445W        W35870  39.410  12.206  13.788
63446W        W35871  16.944  20.988  13.879
63447W        W35872   9.446  40.747   2.276
63448W        W35873  29.648  15.206  10.705
63449W        W35874   9.846   1.299   3.346
63450W        W35875  37.739  37.052   1.154
63451W        W35876   3.442  26.340  13.017
63452W        W35877   8.964  12.040  14.517
63453W        W35878  25.553  40.753   1.438
63454W        W35879  12.283  13.626   1.607
63455W        W35880  15.647  21.617  10.877
63456W        W35881  38.269  36.110   2.662
63457W        W35882  39.551  30.576   2.792
63458W        W35883  27.443  42.318  10.668
63459W        W35884  28.079  26.445  14.527
63460W        W35885   6.704   7.860  14.867
63461W        W35886  14.452  18.046  14.032
63462W        W35887  11.311  13.405  11.497
63463W        W35888   4.397  34.568  10.352
63464W        W35889  28.873  21.620   4.686
63465W        W35890  33.996  10.033  11.682
63466W        W35891  39.928  40.120  11.539
63467W        W35892  27.112  36.343   3.181
63468W        W35893   5.306   9.644  14.394
63469W        W35894  29.844  20.091   0.390
63470W        W35895  33.516  30.558  12.887
63471W        W35896  29.934  18.005   3.670
63472W        W35897  35.780  16.626  11.058
63473W        W35898   1.525  32.683  11.268
63474W        W35899  19.773  39.684  11.648
63475W        W35900  24.986  25.605   2.750
63476W        W35901  24.055   8.857  10.110
63477W        W35902  44.500  43.436   2.408
63478W        W35903   3.248  31.549  12.673
63479W        W35904  32.814  31.012  12.101
63480W        W35905  10.341  24.379   4.327
63481W        W35906  23.711  31.635  12.040
63482W        W35907  29.532  25.080   4.061
63483W        W35908  32.251  16.494   1.953
63484W        W35909  30.472  27.905   2.700
63485W        W35910   8.204  14.711  11.564
63486W        W35911  42.508  28.993   1.936
63487W        W35912  24.181  22.027   2.923
63488W        W35913  24.645  23.073   3.565
63489W        W35914  22.167  32.923   1.476
63490W        W35915  34.899  30.934  14.621
63491W        W35916  11.820  27.936  10.989
63492W        W35917  25.204  43.730  13.501
63493W        W35918  22.449  28.101   2.762
63494W        W35919  14.139  21.699   0.919
63495W        W35920  36.096  19.279   4.910
63496W        W35921   8.686  39.953  13.472
63497W        W35922   5.542   1.005   4.227
63498W        W35923  41.097   0.056  12.978
63499W        W35924  13.210   3.869   4.432
63500W        W35925  17.134  37.906  11.623
63501W        W35926  24.544  16.536   0.506
63502W        W35927  38.387  42.547   5.056
63503W        W35928  33.156   8.587  14.387
63504W        W35929  35.447  38.977  13.358
63505W        W35930  38.947   2.336   1.832
63506W        W35931  43.099  11.928   4.185
63507W        W35932   7.866  34.413  11.166
63508W        W35933  21.026   9.798   3.166
63509W        W35934  23.030   3.271  12.377
63510W        W35935  39.270  18.255   4.511
63511W        W35936  32.914  23.181   0.900
63512W        W35937  36.312   1.454   4.574
63513W        W35938   6.054  34.554  10.654
63514W        W35939  19.158   7.926   0.529
63515W        W35940  25.146  36.403  14.083
63516W        W35941   8.899  20.741  10.717
63517W        W35942   3.827  39.990   0.266
63518W        W35943  13.056  15.230   1.597
63519W        W35944  18.824  35.139   4.642
63520W        W35945  31.928  25.377  11.103
63521W        W35946  18.566  17.120  13.477
63522W        W35947  29.438  27.603   3.271
63523W        W35948  19.616  36.434   1.353
63524W        W35949  44.273   2.979   1.482
63525W        W35950  34.423  27.047   0.792
63526W        W35951   0.786   6.675  13.978
63527W        W35952  37.345  26.594  14.399
63528W        W35953  29.107  41.575  12.903
63529W        W35954  14.569  25.124  11.410
63530W        W35955   2.949  31.414   2.182
63531W        W35956  44.021  30.521  11.702
63532W        W35957  17.713  14.380  12.536
63533W        W35958  29.089  40.828  13.288
63534W        W35959  17.732  37.820  12.295
63535W        W35960  26.494  16.840   4.141
63536W        W35961   1.149  24.263   3.673
63537W        W35962  40.285  29.761   4.140
63538W        W35963  15.575   9.077  14.439
63539W        W35964  39.026   4.703  14.872
63540W        W35965  26.587  35.400   4.823
63541W        W35966  35.889  27.678   0.559
63542W        W35967  32.294  40.571  10.970
63543W        W35968  13.551  40.365  10.900
63544W        W35969  17.160   5.626  12.462
63545W        W35970  31.392   5.726   2.689
63546W        W35971  25.641  34.160   2.771
63547W        W35972  38.608  14.094  10.344
63548W        W35973  23.916  42.357   1.797
63549W        W35974  34.077   5.348   3.425
63550W        W35975   7.634   0.268   0.805
63551W        W35976  27.640   3.379   2.953
63552W        W35977  39.889  11.142   0.801
63553W        W35978  43.906  29.114  11.619
63554W        W35979  14.733   6.294   1.931
63555W        W35980  29.728  22.675   4.131
63556W        W35981  37.464  13.726  10.473
63557W        W35982  31.293  32.244  12.947
63558W        W35983  37.519  44.233  13.979
63559W        W35984   2.471  40.276  14.916
63560W        W35985  36.969  34.138  14.451
63561W        W35986  39.543  21.520  14.810
63562W        W35987  33.460  35.781  10.953
63563W        W35988  38.054  27.702  13.965
63564W        W35989  27.834  31.475  13.386
63565W        W35990  19.002  28.573   4.119
63566W        W35991   5.441  35.818   3.817
63567W        W35992  30.171  11.369   0.832
63568W        W35993   8.726  38.425   4.194
63569W        W35994  10.341  22.036   0.848
63570W        W35995  15.499  38.421  11.653
63571W        W35996  14.069   5.570  14.948
63572W        W35997  38.655  11.625   2.204
63573W        W35998  29.613  21.254  10.218
63574W        W35999  24.775   4.160   0.404
63575W        W36000  12.858  21.301  13.080
63576W        W36001  26.431  19.179   2.322
63577W        W36002  17.182   0.848   4.613
63578W        W36003   6.685  34.110   2.806
63579W        W36004   9.398  31.223  10.960
63580W        W36005  35.192  27.952  10.725
63581W        W36006  38.688  44.911   1.007
63582W        W36007   6.122  40.078  10.718
63583W        W36008  25.362  11.463   0.435
63584W        W36009  36.357  18.607   3.737
63585W        W36010  42.975  21.315  10.575
63586W        W36011  17.685  21.299  12.396
63587W        W36012  10.809   2.363   4.130
63588W        W36013  20.594  29.516   0.696
63589W        W36014  29.964   7.399   2.867
63590W        W36015  29.254  22.971  10.410
63591W        W36016  27.517  32.598   0.567
63592W        W36017  30.482  33.966  10.690
63593W        W36018  28.950  13.429   0.873
63594W        W36019  42.965  34.821   0.348
63595W        W36020  37.311  12.699   0.846
63596W        W36021  15.262  43.765   2.646
63597W        W36022  42.912   6.172  12.696
63598W        W36023  14.747   3.385  11.502
63599W        W36024  21.150  36.449   4.643
63600W        W36025  30.016  39.935   4.903
63601W        W36026  10.188  38.223  11.072
63602W        W36027  15.648  32.880  11.224
63603W        W36028  35.964   9.939   0.295
63604W        W36029  17.196  43.188  11.162
63605W        W36030  11.564  21.020  14.477
63606W        W36031  44.731  15.154   4.547
63607W        W36032  21.010  14.966  10.164
63608W        W36033  21.194   0.801  11.484
63609W        W36034  31.708  39.620  13.909
63610W        W36035  21.459  32.177  11.611
63611W        W36036  26.962   8.865   2.219
63612W        W36037  16.559   6.267  11.918
63613W        W36038  25.136   2.536   3.257
63614W        W36039  41.246  39.846   4.168
63615W        W36040   7.952  36.494   1.657
63616W        W36041  15.678   3.918  12.403
63617W        W36042  37.173  18.393   1.280
63618W        W36043  24.652  29.218  10.551
63619W        W36044  39.306  23.897   1.923
63620W        W36045  11.726  16.350  14.831
63621W        W36046  19.537   1.756   3.314
63622W        W36047   7.934   3.300  10.629
63623W        W36048  18.002  36.290   0.472
63624W        W36049  44.816  36.818  10.692
63625W        W36050   1.839   0.244  13.089
63626W        W36051  25.553   2.479  11.951
63627W        W36052   4.809   3.739   1.387
63628W        W36053  23.060  22.557  12.428
63629W        W36054  26.072   0.508  12.369
63630W        W36055  32.685  18.203   3.833
63631W        W36056  13.152   8.455  13.005
63632W        W36057   2.404   6.600   4.205
63633W        W36058   8.315  32.432  14.536
63634W        W36059   0.753  10.820   2.784
63635W        W36060  22.048  41.849   3.823
63636W        W36061  27.199  16.165   4.397
63637W        W36062  12.266  36.280  11.871
63638W        W36063  14.810  28.273  13.167
63639W        W36064  11.598  23.514   3.711
63640W        W36065  26.492  38.602  11.896
63641W        W36066  12.801  11.876   3.189
63642W        W36067  24.085  24.399  14.863
63643W        W36068  33.993  26.307   3.510
63644W        W36069  30.045  29.029  14.011
63645W        W36070   2.680  11.812   1.213
63646W        W36071   4.278  12.232   0.483
63647W        W36072   3.307  37.344  11.389
63648W        W36073   4.796  39.526  12.427
63649W        W36074  44.079  41.938   3.201
63650W        W36075   3.065   6.331   4.787
63651W        W36076  19.576  28.126  12.508
63652W        W36077  42.421  10.641   1.559
63653W        W36078  27.981   7.898  10.644
63654W        W36079   5.609  29.491   2.433
63655W        W36080   6.422   0.775   0.537
63656W        W36081  18.245  23.683  13.452
63657W        W36082  10.321  15.306   2.017
63658W        W36083   2.192  44.675   3.275
63659W        W36084  11.670  22.258   1.830
63660W        W36085   5.622  24.034   3.479
63661W        W36086  43.396   9.635  12.742
63662W        W36087  36.659  23.456   0.303
63663W        W36088  12.739  22.152  13.326
63664W        W36089  12.319  32.519   1.180
63665W        W36090  37.173  21.219   5.081
63666W        W36091  27.285  20.832   4.596
63667W        W36092  17.560   8.568   3.638
63668W        W36093  38.458  42.743  12.363
63669W        W36094  34.036  42.075   2.629
63670W        W36095  41.916  32.101   3.635
63671W        W36096  11.537  32.232   3.835
63672W        W36097  20.517  29.398   1.214
63673W        W36098  10.875  17.620   0.974
63674W        W36099  24.481   5.117   0.408
63675W        W36100  12.408  26.102   2.917
63676W        W36101  44.287  38.279  11.530
63677W        W36102  14.653  35.564   4.406
63678W        W36103  10.022  32.649  12.561
63679W        W36104   3.258  13.291  10.902
63680W        W36105   3.995  24.295   1.804
63681W        W36106  17.551  10.869   0.946
63682W        W36107  17.085  27.083  11.009
63683W        W36108  10.374  26.143   2.197
63684W        W36109  20.553  11.298  13.074
63685W        W36110  25.557  17.523   3.897
63686W        W36111  20.990  22.757  13.343
63687W        W36112   1.282  12.650   0.986
63688W        W36113  10.168  42.978  14.210
63689W        W36114  33.942  22.451  14.271
63690W        W36115  29.204  34.446  10.704
63691W        W36116  28.422  24.066   3.131
63692W        W36117  13.657  31.974  12.138
63693W        W36118  39.850   0.222  13.322
63694W        W36119   7.664   7.652  11.089
63695W        W36120   0.948  11.852   2.886
63696W        W36121  27.411   2.700   3.267
63697W        W36122   7.855   8.153  13.492
63698W        W36123  35.652  41.837  11.192
63699W        W36124  25.420  25.263  13.557
63700W        W36125  22.203  18.266  14.589
63701W        W36126  33.532  28.196  11.962
63702W        W36127  41.836  19.981   4.901
63703W        W36128   3.385   4.719  13.865
63704W        W36129  29.435  42.323   0.780
63705W        W36130   8.326   8.640   0.867
63706W        W36131  14.792  43.887  14.854
63707W        W36132  16.062  11.730  13.526
63708W        W36133  40.782  16.197   3.232
63709W        W36134  35.099  43.316   2.914
63710W        W36135   9.856  10.292   4.488
63711W        W36136  35.552  43.056  13.295
63712W        W36137  20.764   6.386  11.945
63713W        W36138  35.572   4.908  13.084
63714W        W36139  18.310  15.845   1.409
63715W        W36140   1.473   1.101   4.748
63716W        W36141  44.382  14.786   3.307
63717W        W36142  17.260  24.885   4.582
63718W        W36143  34.946  13.260   4.571
63719W        W36144  35.355  18.140  13.395
63720W        W36145  32.584  44.439   1.993
63721W        W36146  22.767  12.118  10.387
63722W        W36147  30.722  42.116  11.791
63723W        W36148  43.999   6.209  13.126
63724W        W36149  27.173  29.450   3.096
63725W        W36150   7.694  11.445   1.946
63726W        W36151  37.556  12.929   3.733
63727W        W36152   5.345  30.504   3.679
63728W        W36153   3.855  15.720  13.024
63729W        W36154   7.803  23.578   4.663
63730W        W36155  41.926  24.402   4.228
63731W        W36156  42.096  12.548   4.195
63732W        W36157  20.285   2.489  10.745
63733W        W36158  36.999   2.689   4.459
63734W        W36159  27.793  20.509  13.394
63735W        W36160  22.129  14.289  13.409
63736W        W36161  40.801  41.100  12.498
63737W        W36162  42.140  32.425   0.051
63738W        W36163   8.334  36.528   2.799
63739W        W36164  10.458  22.256  14.484
63740W        W36165  32.318  21.208   3.689
63741W        W36166   1.489  40.465  10.827
63742W        W36167  44.935  28.916  12.905
63743W        W36168  36.769  25.682  13.402
63744W        W36169  11.235   2.543   3.563
63745W        W36170   2.751  38.702  12.381
63746W        W36171  35.070  26.492   4.951
63747W        W36172  25.206  28.149  13.882
63748W        W36173  26.138  17.321  10.681
63749W        W36174  20.076  17.051   3.679
63750W        W36175  13.664  39.495   0.151
63751W        W36176  25.701  35.522   1.670
63752W        W36177  25.666  30.641   4.005
63753W        W36178  12.206  25.802  10.702
63754W        W36179  23.889  29.383  13.044
63755W        W36180  39.523  20.312   0.258
63756W        W36181  13.143  33.806  14.036
63757W        W36182  18.024  26.549  14.949
63758W        W36183  11.851  12.209  11.016
63759W        W36184  16.648   4.950   4.177
63760W        W36185   8.264  27.989  12.077
63761W        W36186  40.784  15.408  10.543
63762W        W36187  15.337   8.902   2.269
63763W        W36188  42.710  41.363   3.303
63764W        W36189  23.262   9.371  14.859
63765W        W36190  11.321  12.398  13.982
63766W        W36191  30.861  36.778  10.983
63767W        W36192  22.027  38.898  14.094
63768W        W36193  39.264   8.295  13.430
63769W        W36194  33.027  13.672   4.063
63770W        W36195   1.771   6.949   1.844
63771W        W36196   8.236  17.566  12.352
63772W        W36197  32.139  24.831  14.812
63773W        W36198  33.564  14.052  11.220
63774W        W36199  15.211  13.016  14.049
63775W        W36200   5.276   5.838   3.503
63776W        W36201  13.752  11.792   3.797
63777W        W36202  44.424  13.307   0.264
63778W        W36203  44.705  27.944  13.342
63779W        W36204  27.562  33.078   2.587
63780W        W36205  40.433  33.262  11.862
63781W        W36206  26.554   4.308  14.813
63782W        W36207  42.847  12.282  13.919
63783W        W36208   6.687  34.021  13.981
63784W        W36209  30.152   6.315  14.975
63785W        W36210  12.387   4.870  14.339
63786W        W36211   1.965  35.316   1.330
63787W        W36212  15.682   9.245  10.628
63788W        W36213  41.699  27.075   3.052
63789W        W36214  25.753  22.776  11.630
63790W        W36215  38.856  26.379  14.403
63791W        W36216  13.746  24.007   2.142
63792W        W36217   9.468  21.051   0.221
63793W        W36218  32.183  38.760  12.429
63794W        W36219  24.714   9.183   3.323
63795W        W36220  34.597   2.822  14.890
63796W        W36221  44.242  35.600  10.613
63797W        W36222  18.015  34.605  14.816
63798W        W36223  38.645  28.004  11.223
63799W        W36224   7.776   8.206  14.819
63800W        W36225  22.428  44.125   2.868
63801W        W36226  36.086  37.430  12.101
63802W        W36227   8.446  20.144   3.659
63803W        W36228  28.836  44.350   2.088
63804W        W36229  13.694  41.611   1.250
63805W        W36230  17.856   6.232  14.935
63806W        W36231  38.629  36.257  12.973
63807W        W36232  14.100  21.488   4.192
63808W        W36233  41.741  30.171   0.884
63809W        W36234  37.537  33.948  11.045
63810W        W36235  17.570  10.361   1.124
63811W        W36236  33.304  25.029  14.520
63812W        W36237  30.686   6.955   3.455
63813W        W36238   8.131  32.400   0.933
63814W        W36239  44.298  25.659  14.827
63815W        W36240  28.499  43.563   1.990
63816W        W36241  44.017   0.177  10.627
63817W        W36242   8.525  24.700   1.756
63818W        W36243  34.461  26.329   2.243
63819W        W36244  10.073  12.691   2.994
63820W        W36245  37.379  18.145   2.849
63821W        W36246  10.576  33.999   3.318
63822W        W36247  26.203  29.049   3.592
63823W        W36248  35.940  30.310  12.023
63824W        W36249  43.798  10.712  11.385
63825W        W36250  28.181  20.195  14.651
63826W        W36251  11.823  23.663  12.372
63827W        W36252  15.647  42.888   0.274
63828W        W36253  26.525  17.871  13.598
63829W        W36254  31.584  11.900  10.482
63830W        W36255  18.302  37.861  12.343
63831W        W36256  26.023  20.642   4.131
63832W        W36257  44.937  19.523  13.909
63833W        W36258  35.722  10.124   2.615
63834W        W36259  27.132  41.430  10.389
63835W        W36260  32.038  30.973   1.168
63836W        W36261  40.380   6.210  11.624
63837W        W36262  20.693  13.252   3.479
63838W        W36263  28.990   2.265   2.648
63839W        W36264  33.000  38.259  12.966
63840W        W36265   7.189  43.287   2.380
63841W        W36266   8.714  24.675  11.656
63842W        W36267  36.427  21.756   3.774
63843W        W36268   7.842  17.826  12.103
63844W        W36269  23.867  19.326  12.570
63845W        W36270   2.727  27.381  12.545
63846W        W36271   6.393  14.653   0.001
63847W        W36272  25.449  40.993  11.863
63848W        W36273  12.132   4.714  11.615
63849W        W36274  17.098  25.811   3.688
63850W        W36275  28.968  28.104   2.069
63851W        W36276  28.643   7.835   1.884
63852W        W36277  35.821  12.564   4.297
63853W        W36278  42.498  34.353   2.816
63854W        W36279  33.004  44.794   2.012
63855W        W36280  42.398   6.921   3.075
63856W        W36281   4.125   2.450   2.131
63857W        W36282  23.596  44.556  13.318
63858W        W36283  21.632  33.618  14.009
63859W        W36284   2.892  28.532   1.948
63860W        W36285  31.447   3.375   4.643
63861W        W36286   6.472  33.446  11.570
63862W        W36287  19.845  40.190  14.005
63863W        W36288  18.646  21.061   4.952
63864W        W36289  44.375  37.244   4.210
63865W        W36290  41.560  12.299  14.929
63866W        W36291   5.226  30.261   2.756
63867W        W36292  10.696   8.639  12.384
63868W        W36293  41.265  15.779  10.409
63869W        W36294  15.739  36.548  14.923
63870W        W36295  33.718  26.842  13.793
63871W        W36296  26.153  14.854   4.153
63872W        W36297  22.968  34.610  12.460
63873W        W36298   8.242  10.541   5.178
63874W        W36299   4.639  31.061   0.400
63875W        W36300  15.200  21.729  11.106
63876W        W36301  29.672  43.846   4.451
63877W        W36302  32.348  11.894  11.214
63878W        W36303  42.618  17.251  11.315
63879W        W36304  40.908   6.715   0.421
63880W        W36305  10.883  11.384   1.071
63881W        W36306  14.095  44.435  12.544
63882W        W36307  25.182  39.453   0.654
63883W        W36308  12.043  43.834   2.297
63884W        W36309  39.513  17.353   2.199
63885W        W36310   0.690  34.667  13.413
63886W        W36311  30.103  29.121   0.403
63887W        W36312  24.813  32.354   5.155
63888W        W36313   8.293   0.281  13.451
63889W        W36314   5.323   0.500   0.425
63890W        W36315  32.904  19.700  13.098
63891W        W36316  37.061  14.358  14.890
63892W        W36317  17.590  29.890  14.488
63893W        W36318  37.013   0.039  11.206
63894W        W36319  17.823  25.639  14.032
63895W        W36320  39.629  12.358   2.742
63896W        W36321  14.114  24.896  11.526
63897W        W36322  25.149  12.277  10.578
63898W        W36323  41.455  37.568   1.344
63899W        W36324  33.634  36.895  14.246
63900W        W36325  14.781  19.460   1.884
63901W        W36326  14.652   7.206  11.929
63902W        W36327  29.184  44.492   3.609
63903W        W36328  10.790  34.027  11.904
63904W        W36329   8.664  44.988  12.105
63905W        W36330  19.009  42.096  11.488
63906W        W36331  38.091   4.942  10.354
63907W        W36332  17.115   5.663   0.728
63908W        W36333  30.917  28.460  11.512
63909W        W36334  14.601  14.745  10.750
63910W        W36335  38.998   8.882  10.163
63911W        W36336   2.648   5.250  11.466
63912W        W36337  31.347  24.232  11.149
63913W        W36338  33.368  34.563   3.923
63914W        W36339  25.485  28.361  14.949
63915W        W36340  10.049  31.547   5.068
63916W        W36341   8.756   8.600   0.544
63917W        W36342  19.829  29.426  13.246
63918W        W36343  30.841  28.474   4.850
63919W        W36344   6.248  16.057  11.131
63920W        W36345  27.522  13.620  12.474
63921W        W36346  21.670  29.607  12.500
63922W        W36347  11.898  29.422   0.111
63923W        W36348  28.978  12.708   4.671
63924W        W36349  18.713   2.899   2.828
63925W        W36350  43.324   0.316   3.727
63926W        W36351  31.175   9.397   3.154
63927W        W36352  35.867  30.882   3.319
63928W        W36353  32.428  13.114  12.543
63929W        W36354  43.411   9.609   1.827
63930W        W36355  17.098  22.525   4.177
63931W        W36356  25.463  23.814  14.477
63932W        W36357   8.149   3.853   0.640
63933W        W36358  38.339  33.360  10.615
63934W        W36359  17.578  31.333   2.696
63935W        W36360  39.891  39.407   3.281
63936W        W36361  35.044  27.221   3.597
63937W        W36362  17.691  17.854  10.915
63938W        W36363  35.307  33.252  12.707
63939W        W36364  31.694  35.311  14.346
63940W        W36365  21.925   9.639  12.053
63941W        W36366   8.023  22.415  12.888
63942W        W36367   4.990  22.522   4.156
63943W        W36368  29.047   1.369  12.092
63944W        W36369  16.564  14.395  11.644
63945W        W36370   4.143  15.659   0.014
63946W        W36371  13.140  19.556   1.448
63947W        W36372   6.784  13.348  11.238
63948W        W36373  15.796  30.487   2.412
63949W        W36374  39.334  32.736   1.396
63950W        W36375  27.180  24.520  13.981
63951W        W36376  23.486  29.023  12.972
63952W        W36377   0.747   7.437  13.308
63953W        W36378  31.605  10.228  11.629
63954W        W36379  17.028  29.782   3.189
63955W        W36380  29.197  43.817  10.992
63956W        W36381  27.358  14.656   4.867
63957W        W36382  32.053   7.963   3.660
63958W        W36383  17.269  38.451  13.561
63959W        W36384  31.903  33.047   3.298
63960W        W36385  15.071  42.421   1.200
63961W        W36386  39.863  19.715  13.878
63962W        W36387  36.584  12.184   3.105
63963W        W36388   4.483  26.625  10.730
63964W        W36389   1.893  37.771  10.477
63965W        W36390   2.747  43.778   0.881
63966W        W36391  24.155  41.337  14.038
63967W        W36392   5.333   8.650  13.388
63968W        W36393  14.279  11.405   3.150
63969W        W36394  17.753  20.046  14.536
63970W        W36395  10.926  28.226   1.031
63971W        W36396   2.428  27.262   2.050
63972W        W36397  27.586  15.032  11.615
63973W        W36398   2.810  29.608  11.987
63974W        W36399  33.072   1.242  12.581
63975W        W36400  20.994  37.256   2.193
63976W        W36401  17.160  37.871  12.135
63977W        W36402  35.875  33.923  11.844
63978W        W36403  13.546  12.906  12.581
63979W        W36404  23.906  11.930  10.825
63980W        W36405  40.475  32.445  11.498
63981W        W36406  41.649  13.242   3.497
63982W        W36407  29.442  34.636  11.115
63983W        W36408  11.175  32.535  11.465
63984W        W36409  11.746  38.650   3.219
63985W        W36410  32.673  36.475   2.185
63986W        W36411  16.774   4.353   1.707
63987W        W36412  25.232  31.636   1.375
63988W        W36413  18.189  37.108   2.243
63989W        W36414  21.407  37.056   2.430
63990W        W36415  27.911  23.717   0.114
63991W        W36416  34.972   3.984  12.795
63992W        W36417  18.140   7.819  10.698
63993W        W36418  34.005  10.547  11.640
63994W        W36419  29.859  10.442  14.443
63995W        W36420  14.456  27.885   4.502
63996W        W36421  10.935  18.467   4.286
63997W        W36422   4.179  22.972   0.875
63998W        W36423  44.453  14.576   1.439
63999W        W36424  39.104  37.948  11.576
64000W        W36425  15.725   8.987   1.771
64001W        W36426   3.778  13.081   0.422
64002W        W36427  27.379  13.699   2.377
64003W        W36428  43.985  39.419   2.202
64004W        W36429  15.266  42.977  12.502
64005W        W36430  38.839   2.225  10.588
64006W        W36431  43.499   3.242  12.539
64007W        W36432  23.023  30.601  13.148
64008W        W36433  25.876  28.921   1.282
64009W        W36434  37.806  39.859   4.600
64010W        W36435  29.466   6.742   3.484
64011W        W36436  35.593   6.296   4.877
64012W        W36437  12.887  11.070   0.954
64013W        W36438  38.403  28.172  12.536
64014W        W36439  43.973  41.396   4.575
64015W        W36440  24.164  19.305  14.555
64016W        W36441  23.046  15.831  12.017
64017W        W36442  25.508  31.641  14.054
64018W        W36443  29.070  14.720   0.765
64019W        W36444  21.109  24.704   0.950
64020W        W36445  37.593   7.863  13.946
64021W        W36446   7.487  41.491   2.782
64022W        W36447  34.023  37.769  13.311
64023W        W36448  17.134  27.558  13.942
64024W        W36449   1.994  25.958  13.800
64025W        W36450  20.943  17.207  12.619
64026W        W36451  32.238  21.366  12.974
64027W        W36452  36.003   9.329  14.368
64028W        W36453  16.510  28.863  11.550
64029W        W36454  15.859   7.327  14.472
64030W        W36455  40.386  27.671   2.706
64031W        W36456   5.772  31.631   0.844
64032W        W36457  37.818  40.367   2.372
64033W        W36458  24.036  22.576  13.564
64034W        W36459   5.769  21.144  11.685
64035W        W36460  35.823   0.369   0.967
64036W        W36461  29.546  19.598  14.393
64037W        W36462   7.315  19.522  11.908
64038W        W36463  26.157  11.797  10.868
64039W        W36464  21.210  15.625   1.342
64040W        W36465  13.379  32.196   4.984
64041W        W36466  41.851  43.036  12.076
64042W        W36467  37.072   3.354   3.136
64043W        W36468  34.116   1.856   3.307
64044W        W36469  16.096  40.569   1.711
64045W        W36470  31.917  17.547   4.160
64046W        W36471  22.743  38.231  14.760
64047W        W36472  12.450  14.947  11.140
64048W        W36473  23.998  17.597  11.597
64049W        W36474  11.757  13.697   1.221
64050W        W36475  33.377  36.054   3.327
64051W        W36476  34.825   8.037  12.325
64052W        W36477  37.952  17.663   2.102
64053W        W36478  11.246   5.917  10.136
64054W        W36479   4.224  28.352  13.379
64055W        W36480  18.687  37.969   1.015
64056W        W36481  32.426   2.977   3.822
64057W        W36482  32.922  37.846  14.884
64058W        W36483   3.383  34.303  12.956
64059W        W36484  13.240  29.676   2.725
64060W        W36485  15.530   5.483   0.768
64061W        W36486  31.523   3.196  14.497
64062W        W36487  31.738  29.983   0.986
64063W        W36488  20.213  28.562   4.993
64064W        W36489  37.407   3.409  14.340
64065W        W36490  38.932  12.041  10.377
64066W        W36491  44.850   3.346   0.834
64067W        W36492  14.245  33.362   3.827
64068W        W36493  37.601  38.837  10.649
64069W        W36494  22.506  40.520   3.220
64070W        W36495  16.244  32.782   1.226
64071W        W36496  42.236  23.325   3.359
64072W        W36497  40.055  11.683  11.451
64073W        W36498  26.733  29.426  14.485
64074W        W36499  25.170  33.480  12.923
64075W        W36500   7.027  11.196  14.862
64076W        W36501  35.994  18.785  14.722
64077W        W36502  43.846  43.949   0.435
64078W        W36503  26.685   5.020  11.426
64079W        W36504  11.274  13.390   2.332
64080W        W36505  18.230  15.846  13.442
64081W        W36506  39.370   4.154   0.805
64082W        W36507  10.689   6.930  10.281
64083W        W36508  29.997  31.063   4.296
64084W        W36509  13.094  34.179  14.486
64085W        W36510  19.522  23.653   4.563
64086W        W36511   4.791  20.036   3.107
64087W        W36512  42.993  31.062  14.470
64088W        W36513   4.194  27.048   2.578
64089W        W36514  17.760  17.393   1.358
64090W        W36515  29.509  27.742  11.578
64091W        W36516  27.522  37.444   1.954
64092W        W36517   7.674   6.228   0.195
64093W        W36518  35.381  19.544   1.264
64094W        W36519  28.360   7.439   0.916
64095W        W36520  20.572   6.328   4.711
64096W        W36521  18.744  40.273   1.878
64097W        W36522  42.929  17.755  13.529
64098W        W36523  26.731  35.796   5.113
64099W        W36524  17.144   4.224  13.843
64100W        W36525  29.064  22.202   4.282
64101W        W36526  42.049   3.006   1.136
64102W        W36527  16.587  42.231  13.092
64103W        W36528  31.371   0.461  11.134
64104W        W36529  43.422  31.917  12.418
64105W        W36530  39.909  43.243   4.324
64106W        W36531  23.312  30.888   1.616
64107W        W36532   9.121   5.355  12.547
64108W        W36533  23.088  32.884   1.342
64109W        W36534  41.378  11.365   3.315
64110W        W36535   0.410  40.080   3.241
64111W        W36536   3.083  37.524   0.482
64112W        W36537  28.006  11.623   0.581
64113W        W36538  13.702   2.390   0.835
64114W        W36539  24.443   8.325   1.889
64115W        W36540  28.547  43.767  11.467
64116W        W36541  14.900   1.535  12.834
64117W        W36542  18.213   1.763  14.938
64118W        W36543  20.628  36.614   3.404
64119W        W36544   3.707   3.090  11.159
64120W        W36545  27.240  44.980   4.639
64121W        W36546  28.660   5.427   3.599
64122W        W36547  39.693  41.328  11.133
64123W        W36548  19.006  10.189   3.757
64124W        W36549  23.177   7.273  11.239
64125W        W36550  18.350  40.372  10.458
64126W        W36551   3.750  35.505   2.242
64127W        W36552  29.323  13.711  10.843
64128W        W36553  26.109   8.577  14.904
64129W        W36554  18.991  14.904   0.766
64130W        W36555  12.328  32.029  14.927
64131W        W36556   6.756  24.730   1.553
64132W        W36557  13.316  26.527   4.553
64133W        W36558  36.860  41.373   3.386
64134W        W36559   3.302   9.886   3.658
64135W        W36560  41.877  15.097   4.631
64136W        W36561  21.787  18.673  14.527
64137W        W36562  18.064  32.048   3.757
64138W        W36563  41.112  32.893   2.891
64139W        W36564  44.438  29.422   2.697
64140W        W36565  22.040  37.867  13.822
64141W        W36566  41.439   6.744  14.273
64142W        W36567  29.536  44.251  12.994
64143W        W36568  20.660  33.031  13.359
64144W        W36569  43.374  38.294  12.618
64145W        W36570  16.268  32.918   2.185
64146W        W36571   3.743  18.245   3.592
64147W        W36572   5.597  17.267   0.246
64148W        W36573  23.744  33.898   4.632
64149W        W36574  30.006   4.411  14.430
64150W        W36575  41.985  31.550   3.607
64151W        W36576  11.870  21.110   0.874
64152W        W36577  19.181  23.239   2.876
64153W        W36578   0.391  12.078  13.944
64154W        W36579  26.033  36.995  10.702
64155W        W36580  12.022  32.946  14.730
64156W        W36581  13.908  11.108  10.531
64157W        W36582   9.852  14.306  12.306
64158W        W36583  11.872  16.626  11.509
64159W        W36584  36.644  13.146   3.659
64160W        W36585  13.506  38.377   0.259
64161W        W36586  39.333   0.789  12.412
64162W        W36587  21.208  40.049   4.542
64163W        W36588  35.796  19.237  13.344
64164W        W36589  25.923  13.884  11.585
64165W        W36590  33.152  42.789   1.727
64166W        W36591  37.280   7.882   4.056
64167W        W36592  37.842  44.338  11.669
64168W        W36593   0.231  14.907   1.693
64169W        W36594  33.551  39.708   1.032
64170W        W36595   3.815  29.214  14.319
64171W        W36596  16.867   7.109   5.149
64172W        W36597  41.310  41.905   4.104
64173W        W36598  26.708  24.812  11.653
64174W        W36599  16.337   2.743  14.944
64175W        W36600  22.053   2.669   4.529
64176W        W36601  28.883  34.140   1.424
64177W        W36602  21.273   9.665   0.167
64178W        W36603   0.910  10.541   2.370
64179W        W36604   3.301  23.220  11.367
64180W        W36605  34.183  12.367   0.879
64181W        W36606  17.284  42.246   1.059
64182W        W36607  33.134  25.103   4.742
64183W        W36608  11.801  34.816  14.754
64184W        W36609  20.338  18.026   2.777
64185W        W36610  30.630   8.266   4.131
64186W        W36611   5.186   3.158  12.159
64187W        W36612  36.910  33.225  13.435
64188W        W36613  39.070  10.770   3.729
64189W        W36614  29.887  33.027   1.175
64190W        W36615  25.045  19.791  14.779
64191W        W36616  22.530   4.104   0.331
64192W        W36617  32.338   2.499   1.750
64193W        W36618  38.144  27.641   1.660
64194W        W36619   4.413  32.268  14.259
64195W        W36620  34.476  17.681  13.918
64196W        W36621   8.888  13.590   2.711
64197W        W36622  23.475  43.851  13.537
64198W        W36623   6.535  39.753   3.810
64199W        W36624  37.367  13.608   0.802
64200W        W36625  27.925  15.395   1.776
64201W        W36626  24.775   7.836   3.215
64202W        W36627   1.245  24.142   1.272
64203W        W36628  19.327  13.315  12.905
64204W        W36629  12.813   9.631   4.559
64205W        W36630  18.560  41.889  13.685
64206W        W36631  13.257  38.358   4.679
64207W        W36632   2.692  43.961   0.420
64208W        W36633  44.854   9.760  13.268
64209W        W36634  28.532  30.704  13.070
64210W        W36635  42.083   1.935  12.604
64211W        W36636  37.936   5.725  11.910
64212W        W36637   9.726  25.909  11.232
64213W        W36638  23.181  27.692  13.993
64214W        W36639  21.170  13.528   4.681
64215W        W36640  26.671  28.654  12.457
64216W        W36641   2.514  22.512   3.139
64217W        W36642   3.262  13.592   0.802
64218W        W36643  22.112  40.843  12.231
64219W        W36644   5.224  12.887   4.696
64220W        W36645  42.347  22.660  13.547
64221W        W36646  44.313  33.487  12.144
64222W        W36647  42.480  16.773  10.465
64223W        W36648  43.446   5.845   2.334
64224W        W36649  22.210   3.364  10.266
64225W        W36650  33.041  36.970   4.554
64226W        W36651  16.105  34.351   3.698
64227W        W36652  35.887  41.279  14.551
64228W        W36653  27.694  29.680   4.680
64229W        W36654  22.995  37.017  13.871
64230W        W36655  33.849  44.330  10.753
64231W        W36656  35.924   4.974  14.340
64232W        W36657  28.389   5.299  13.349
64233W        W36658  17.797  21.696   4.176
64234W        W36659  39.681  31.355   0.340
64235W        W36660  33.557  39.472   0.569
64236W        W36661  44.480  24.354   5.026
64237W        W36662  32.254   5.908  11.142
64238W        W36663   4.647  38.441   3.892
64239W        W36664  35.555  33.914   0.805
64240W        W36665  43.650  31.066  11.189
64241W        W36666  36.449  14.769   1.201
64242W        W36667  20.496  20.615  13.112
64243W        W36668  20.239  15.679  13.812
64244W        W36669  30.022  35.000  10.777
64245W        W36670  11.903  17.750  13.080
64246W        W36671  11.418  41.068  10.905
64247W        W36672  33.100  36.545   2.483
64248W        W36673   3.197  36.950   4.548
64249W        W36674  12.578   6.301   1.867
64250W        W36675  41.043  17.917   2.747
64251W        W36676  44.358  18.747   1.370
64252W        W36677  37.349  29.257  13.570
64253W        W36678  28.584   3.809  14.765
64254W        W36679  32.889  35.646   2.215
64255W        W36680   5.189  17.558   4.681
64256W        W36681   8.367  11.078   4.148
64257W        W36682  19.065  26.485  10.509
64258W        W36683  40.060  41.924   9.668
64259W        W36684  14.171  41.078  10.728
64260W        W36685   7.771  42.044  11.641
64261W        W36686  44.348  30.423   0.260
64262W        W36687  32.146  15.171  10.343
64263W        W36688  23.021  14.544   1.418
64264W        W36689  34.601   0.432  13.293
64265W        W36690  21.488  10.301  12.877
64266W        W36691  20.276  25.070   0.364
64267W        W36692  26.038   5.645  14.351
64268W        W36693  28.036  39.470   2.731
64269W        W36694  29.927  42.353   0.954
64270W        W36695  38.015  17.085   4.709
64271W        W36696  31.508  31.434   0.872
64272W        W36697  24.523  27.145   4.072
64273W        W36698  12.743  13.523   2.780
64274W        W36699  10.317   3.429  10.516
64275W        W36700  31.614  27.937  11.454
64276W        W36701  37.649  43.188  10.430
64277W        W36702  40.497  24.058  14.443
64278W        W36703  27.382   5.458  14.597
64279W        W36704  24.596   5.833   1.328
64280W        W36705  31.113  17.130  14.152
64281W        W36706  25.804   8.943   3.419
64282W        W36707  43.771  28.023   3.486
64283W        W36708  37.883  19.556   1.807
64284W        W36709  37.362   8.821  13.562
64285W        W36710  33.930  28.032   1.723
64286W        W36711   2.705  44.281  12.965
64287W        W36712  40.767  22.306  12.952
64288W        W36713  36.821   9.959  12.099
64289W        W36714  25.077   0.722  11.969
64290W        W36715   7.423  22.744  14.376
64291W        W36716  28.644  17.232   4.666
64292W        W36717  23.730  11.646   0.033
64293W        W36718  21.931   4.635  13.737
64294W        W36719  35.005  25.923  10.988
64295W        W36720  11.799  26.897  11.617
64296W        W36721  20.185  30.913   0.801
64297W        W36722   4.941  16.128   3.608
64298W        W36723  39.224  40.348  14.699
64299W        W36724  38.691  44.780  10.663
64300W        W36725  26.175  13.852  12.034
64301W        W36726  31.332  41.020  13.517
64302W        W36727  37.313  16.684   0.977
64303W        W36728  30.864  18.695  12.465
64304W        W36729  11.729  18.671   3.770
64305W        W36730   1.461  32.511  12.509
64306W        W36731  31.458   7.689   1.506
64307W        W36732   9.048   2.182   2.367
64308W        W36733   5.087   4.917   2.845
64309W        W36734   3.956  43.172   2.336
64310W        W36735  19.567  23.714  13.056
64311W        W36736  24.875   3.622  13.051
64312W        W36737   5.278  42.796   4.506
64313W        W36738  28.838  15.847  11.537
64314W        W36739  16.172  24.719   5.074
64315W        W36740  30.590   9.287  11.964
64316W        W36741   5.715   0.088  11.570
64317W        W36742  24.960   5.395  10.585
64318W        W36743  44.997  12.976   3.438
64319W        W36744  28.163  39.993  12.093
64320W        W36745  22.267  14.259   4.177
64321W        W36746  38.415  39.607  13.331
64322W        W36747  42.997  32.263   0.000
64323W        W36748  25.052  35.459  13.036
64324W        W36749  10.981   4.212   4.679
64325W        W36750  28.095  43.394   0.307
64326W        W36751  40.490   2.289   0.031
64327W        W36752   9.272  41.827   0.482
64328W        W36753   7.212  27.485  10.794
64329W        W36754  41.787  13.332  14.671
64330W        W36755  27.409  34.202   1.180
64331W        W36756  36.571   7.394  13.831
64332W        W36757  21.188  19.154   3.759
64333W        W36758  39.554  28.216  11.441
64334W        W36759  21.505  27.197   1.229
64335W        W36760  19.235  32.383   5.062
64336W        W36761  34.061  35.516  14.803
64337W        W36762  38.531  29.453   3.130
64338W        W36763  25.554   6.089   2.584
64339W        W36764   9.344   4.831  10.391
64340W        W36765  33.575  43.226  14.335
64341W        W36766   3.643  27.214   1.448
64342W        W36767   9.371  23.481   2.000
64343W        W36768   5.490  14.203   0.929
64344W        W36769   9.663   0.855   2.511
64345W        W36770  14.065  18.345  11.181
64346W        W36771  10.930  12.251  10.654
64347W        W36772  19.696  36.100   1.771
64348W        W36773  32.441  38.846  12.892
64349W        W36774  20.074  30.423  13.737
64350W        W36775   8.421  33.583  10.247
64351W        W36776  12.387   8.723  13.977
64352W        W36777   5.881  31.519   2.811
64353W        W36778  40.827  20.785  12.013
64354W        W36779  22.473  28.846   1.443
64355W        W36780  28.933  29.408  13.405
64356W        W36781  17.108  43.338  13.372
64357W        W36782  29.408   4.342   3.343
64358W        W36783  12.341  14.466   1.231
64359W        W36784   4.206  22.608  11.605
64360W        W36785   2.034  23.756   5.005
64361W        W36786   7.739  13.720  13.582
64362W        W36787  36.115  24.967  12.921
64363W        W36788  12.301   1.236  12.158
64364W        W36789  41.788  32.986  10.646
64365W        W36790  24.232  34.846  12.999
64366W        W36791  11.849   2.346  12.391
64367W        W36792  39.944  23.286  12.459
64368W        W36793  31.961  41.347   1.811
64369W        W36794  27.648  36.408   4.437
64370W        W36795  23.758  31.513   2.871
64371W        W36796  26.649  11.285   1.790
64372W        W36797  28.530  16.187  10.554
64373W        W36798  43.026  26.903   1.921
64374W        W36799   8.664  23.280  14.374
64375W        W36800  18.715  39.554   2.797
64376W        W36801  38.937  30.924   4.210
64377W        W36802  20.569  38.444   4.569
64378W        W36803  42.869  15.676   1.918
64379W        W36804   5.812  31.172   4.657
64380W        W36805  10.736   7.257  12.578
64381W        W36806   8.526  40.200   3.141
64382W        W36807   6.391  44.485   2.696
64383W        W36808  21.687  12.651   1.405
64384W        W36809  43.240  28.902  13.449
64385W        W36810  12.276   7.757  12.006
64386W        W36811   7.671   2.294  13.501
64387W        W36812  29.609  23.948  10.241
64388W        W36813  43.462   0.876  10.761
64389W        W36814  41.385   4.915  14.391
64390W        W36815  15.229   3.455   2.326
64391W        W36816  44.914  19.230   2.173
64392W        W36817  42.017  33.152   3.538
64393W        W36818  18.530  15.375   3.166
64394W        W36819  19.583  13.080  10.617
64395W        W36820  10.173  43.822   0.881
64396W        W36821  28.467   1.003   0.619
64397W        W36822  28.623  19.021  12.059
64398W        W36823  32.968  28.473   2.357
64399W        W36824  38.846   1.700   3.677
64400W        W36825  39.354  34.145  12.081
64401W        W36826  12.705  43.529  10.943
64402W        W36827   0.823  39.622   3.791
64403W        W36828  44.872  43.064  13.861
64404W        W36829  24.066   2.871  12.988
64405W        W36830  32.401   0.935   0.854
64406W        W36831  12.074  15.878   9.732
64407W        W36832  37.250   8.877   0.068
64408W        W36833   3.843  30.873   3.830
64409W        W36834  34.452  41.305  12.139
64410W        W36835  19.442  30.539  10.871
64411W        W36836   8.661  12.301   2.265
64412W        W36837  16.524  40.875   3.215
64413W        W36838  32.498  22.254  10.933
64414W        W36839   0.273  42.500   4.056
64415W        W36840   4.223  19.875   4.553
64416W        W36841  26.524  15.273   4.174
64417W        W36842  15.689  42.481  14.910
64418W        W36843  18.676   0.956   0.732
64419W        W36844  28.644  16.321  13.800
64420W        W36845  44.303  40.820   2.156
64421W        W36846  36.764   3.855   1.829
64422W        W36847  16.690  38.493   1.944
64423W        W36848   8.698  18.545   1.580
64424W        W36849  36.980  43.654   0.848
64425W        W36850  39.360  14.191  10.666
64426W        W36851   0.020  18.062  10.762
64427W        W36852  32.397  44.839  13.786
64428W        W36853   4.464   9.718   4.772
64429W        W36854  14.135  34.630   1.066
64430W        W36855  17.715  22.580  14.999
64431W        W36856  12.224  41.689   1.355
64432W        W36857  13.248  24.153  11.066
64433W        W36858   2.896  31.508  11.124
64434W        W36859  24.598   6.054   4.872
64435W        W36860  12.011  22.362   4.262
64436W        W36861  43.405  42.821   2.734
64437W        W36862  38.531   1.996  14.881
64438W        W36863  32.663  28.648   0.057
64439W        W36864  44.375  32.548  12.473
64440W        W36865  33.482  42.398   1.983
64441W        W36866  33.037  38.299   1.440
64442W        W36867  37.257  37.262   2.912
64443W        W36868  40.873  38.525   4.061
64444W        W36869  27.113  24.649  12.212
64445W        W36870  14.182  38.906   2.298
64446W        W36871  32.455  14.324   4.165
64447W        W36872  28.460  13.452   4.768
64448W        W36873  31.112  35.801  14.840
64449W        W36874   7.196  14.518  11.629
64450W        W36875  23.779   8.727  14.730
64451W        W36876  10.119  24.412   3.304
64452W        W36877  12.613  37.614   1.843
64453W        W36878  34.508  28.506   0.510
64454W        W36879  42.987   1.665   4.322
64455W        W36880  18.645   4.025   0.848
64456W        W36881  29.456   0.381   0.737
64457W        W36882  27.925   4.429  13.404
64458W        W36883  11.400  10.174   0.346
64459W        W36884   0.346  40.584   3.321
64460W        W36885  43.263  19.995   2.706
64461W        W36886  30.998  21.304   0.422
64462W        W36887   5.646  19.560  14.915
64463W        W36888  13.584  16.850  11.130
64464W        W36889  14.253  32.035   0.474
64465W        W36890  27.725  33.593   5.348
64466W        W36891  38.792  30.202  13.883
64467W        W36892  42.003  42.018   2.850
64468W        W36893  11.342  32.504   0.184
64469W        W36894  26.679  18.790  14.385
64470W        W36895  22.616   7.818  14.337
64471W        W36896  17.563  15.033   0.872
64472W        W36897  41.183   4.700  11.042
64473W        W36898  26.190   3.329   3.558
64474W        W36899  26.623   0.421  11.098
64475W        W36900  42.554  40.443   3.298
64476W        W36901  31.383  41.316   5.152
64477W        W36902  33.941   6.829   4.461
64478W        W36903  30.938   2.714  12.604
64479W        W36904   4.440  27.654   3.659
64480W        W36905  29.628  29.301  11.227
64481W        W36906  34.965  34.357  14.316
64482W        W36907  43.047  35.864  14.113
64483W        W36908  12.382  42.978   4.614
64484W        W36909   8.104  22.796   4.126
64485W        W36910  21.655  30.996   3.086
64486W        W36911  28.560  38.629  11.018
64487W        W36912  23.548  38.984   3.703
64488W        W36913  24.507  32.672  12.414
64489W        W36914  42.011  24.123   3.759
64490W        W36915   9.676  31.499   0.221
64491W        W36916  44.389  39.302   3.025
64492W        W36917  42.338   7.576  12.017
64493W        W36918  11.769  27.595  10.543
64494W        W36919  26.980  14.773   4.557
64495W        W36920  11.724   1.546   1.504
64496W        W36921   9.351  40.464   4.426
64497W        W36922  30.355  15.841  12.652
64498W        W36923  22.172  15.791   1.628
64499W        W36924  39.918   4.190   3.845
64500W        W36925  12.415   2.866   3.349
64501W        W36926  29.490  15.600  12.528
64502W        W36927  29.652   8.776  14.044
64503W        W36928  28.660  10.364   0.307
64504W        W36929  17.125  26.757   1.605
64505W        W36930   0.025  26.514   4.374
64506W        W36931  23.943   1.207  12.472
64507W        W36932  17.779  38.512  13.456
64508W        W36933  36.379   8.392  14.902
64509W        W36934  38.385  29.940  11.722
64510W        W36935  31.570  23.649  11.675
64511W        W36936  26.954  28.722   4.649
64512W        W36937  41.513   3.479   2.835
64513W        W36938   4.324  36.981  13.694
64514W        W36939  32.966  33.706   2.314
64515W        W36940  29.977  10.451  12.011
64516W        W36941  35.832   4.228   2.949
64517W        W36942  39.481  44.746   0.353
64518W        W36943   8.013  15.429  13.001
64519W        W36944  29.494  10.361   4.222
64520W        W36945  35.951  21.042   4.558
64521W        W36946  30.531   9.291  11.424
64522W        W36947   6.436   0.584  13.265
64523W        W36948   2.085  17.152  11.684
64524W        W36949  24.491  30.830  13.410
64525W        W36950  18.705  33.486  11.445
64526W        W36951  16.248  34.346   1.010
64527W        W36952  18.604  36.217  13.946
64528W        W36953  24.097  44.783   2.015
64529W        W36954  35.899  17.102   1.867
64530W        W36955  40.387   1.698  10.662
64531W        W36956   7.342  15.124   1.408
64532W        W36957   9.369  35.014  12.318
64533W        W36958  29.046   2.407  12.618
64534W        W36959   3.341  21.478  10.659
64535W        W36960  36.086  12.725   2.406
64536W        W36961  20.254  36.091   2.290
64537W        W36962  23.968   0.704  12.573
64538W        W36963  32.574  16.971   2.374
64539W        W36964  42.950  16.735  13.533
64540W        W36965  32.535   3.288  10.600
64541W        W36966  27.984  44.733  12.530
64542W        W36967   0.871  19.563  11.514
64543W        W36968  25.054   5.906   4.287
64544W        W36969  27.783  12.651  10.757
64545W        W36970   0.890  37.930   0.941
64546W        W36971  38.049  35.605  10.465
64547W        W36972   5.750  18.032   3.341
64548W        W36973  40.477   4.419   2.186
64549W        W36974  14.689  15.117  12.935
64550W        W36975  10.324  41.572   3.811
64551W        W36976   6.517  32.392   3.322
64552W        W36977  38.964  24.228   1.703
64553W        W36978  16.470   2.873  11.830
64554W        W36979  13.727  20.752  11.700
64555W        W36980  15.573  29.935  13.384
64556W        W36981  33.358   2.985   3.371
64557W        W36982   2.201   7.448  12.473
64558W        W36983  40.751   7.620   1.726
64559W        W36984  25.417  12.821   1.398
64560W        W36985   0.350  35.844  12.041
64561W        W36986   7.192  42.896  10.397
64562W        W36987  40.385  23.765   3.832
64563W        W36988  14.405  37.018  14.732
64564W        W36989  14.278   9.502  13.780
64565W        W36990  38.599  15.139  11.106
64566W        W36991  24.114  32.418   1.540
64567W        W36992  19.827  32.566  10.720
64568W        W36993  30.103  36.864  13.326
64569W        W36994  36.595  11.405   4.320
64570W        W36995   0.404  23.967  12.016
64571W        W36996   2.775   8.308  11.097
64572W        W36997  40.073  34.025  13.067
64573W        W36998   0.317  34.771  13.808
64574W        W36999  38.317  20.816   2.074
64575W        W37000  25.531  42.297  13.463
64576W        W37001  21.095   5.149   0.717
64577W        W37002   2.489  17.215   2.848
64578W        W37003  13.922  25.094   3.433
64579W        W37004  43.962  12.943  12.134
64580W        W37005  28.473  27.579  13.450
64581W        W37006  31.868   3.473  14.839
64582W        W37007  39.880   2.473  13.264
64583W        W37008   7.296   3.750  14.504
64584W        W37009  20.539  20.069  13.430
64585W        W37010  29.575   1.272   2.306
64586W        W37011  44.029   0.071  13.799
64587W        W37012  34.768  11.490   0.999
64588W        W37013  33.394   3.028  11.496
64589W        W37014   4.828  21.778   0.255
64590W        W37015  31.444  31.831  14.899
64591W        W37016  29.590  25.572  14.421
64592W        W37017   2.764   3.303   3.825
64593W        W37018  26.139  21.669   2.252
64594W        W37019   4.219  18.541  11.071
64595W        W37020   2.239   7.615   4.138
64596W        W37021  17.867  37.508   2.649
64597W        W37022  40.931  30.955  13.829
64598W        W37023  16.122   3.291  14.010
64599W        W37024  42.842  21.230   0.483
64600W        W37025   8.509   0.947  10.898
64601W        W37026   2.003  37.838   3.273
64602W        W37027  15.683  17.743  14.066
64603W        W37028  27.579   4.677  14.913
64604W        W37029  25.520  27.488   1.242
64605W        W37030  14.515   2.793   4.349
64606W        W37031  21.713   7.096   3.693
64607W        W37032  38.583  25.403   4.109
64608W        W37033  26.662  33.398   5.322
64609W        W37034  22.082  16.325  12.544
64610W        W37035   5.154  23.654   3.448
64611W        W37036  26.728  35.465  14.849
64612W        W37037  23.203  35.202   0.872
64613W        W37038  42.757   3.416   2.238
64614W        W37039  39.979  12.076  11.088
64615W        W37040  11.110   7.479   2.834
64616W        W37041   3.034  16.837  10.653
64617W        W37042  13.132  43.365   4.682
64618W        W37043  21.568  10.951  10.338
64619W        W37044  40.796  37.538  11.204
64620W        W37045  44.889  44.002   2.792
64621W        W37046  23.832  19.736  13.352
64622W        W37047  41.637  21.032   2.354
64623W        W37048  13.814  41.788   0.753
64624W        W37049  18.073  36.000  14.957
64625W        W37050  18.350  34.462  12.767
64626W        W37051  13.901   2.902   0.745
64627W        W37052  33.856  16.614  11.234
64628W        W37053  16.818  38.898   0.692
64629W        W37054  35.970  42.214  13.023
64630W        W37055   6.801  15.644  14.569
64631W        W37056  23.281  21.322  13.784
64632W        W37057   0.506  25.475  12.243
64633W        W37058  38.641  43.880   3.871
64634W        W37059  17.604  32.665  13.435
64635W        W37060  41.056   1.821   2.164
64636W        W37061  21.568  22.133  13.532
64637W        W37062  32.614  17.779  14.377
64638W        W37063  30.868  27.906   0.879
64639W        W37064  13.167  17.033  12.484
64640W        W37065   0.409  33.082   0.756
64641W        W37066  28.937  28.594  14.344
64642W        W37067   0.006  31.231  11.770
64643W        W37068  28.570  29.514  11.964
64644W        W37069  24.016  22.534   2.912
64645W        W37070  31.502  42.482  10.967
64646W        W37071   2.020  44.316  14.535
64647W        W37072  32.900  28.798  12.948
64648W        W37073  19.229   7.520  13.922
64649W        W37074   3.025  37.141   3.319
64650W        W37075   1.852  22.470  14.821
64651W        W37076  33.330  41.388  12.109
64652W        W37077   0.817  18.062   2.225
64653W        W37078  34.671  32.944  12.000
64654W        W37079  39.497  39.403   2.211
64655W        W37080  22.022  22.687  10.654
64656W        W37081   2.401  13.039  12.694
64657W        W37082  44.402  15.392   0.745
64658W        W37083  25.042  38.581   0.020
64659W        W37084   4.189   8.681   2.862
64660W        W37085  23.996  27.868  11.157
64661W        W37086  39.026  21.188  10.114
64662W        W37087  17.549   6.940  14.897
64663W        W37088  16.671  36.302   4.202
64664W        W37089   8.303  29.040  14.648
64665W        W37090  17.694  28.947   4.414
64666W        W37091  26.709  36.887   0.337
64667W        W37092  44.045  32.983   4.273
64668W        W37093  32.313  24.560  14.420
64669W        W37094  44.711  16.924   4.091
64670W        W37095  27.866  10.383  14.382
64671W        W37096  27.525  34.233   3.011
64672W        W37097  37.585  44.608   1.364
64673W        W37098   1.015   2.110   0.500
64674W        W37099  38.600  37.512   0.332
64675W        W37100   6.759  11.631   2.171
64676W        W37101  19.118  23.163  11.251
64677W        W37102   3.771   3.791   4.637
64678W        W37103  28.057  22.677  12.511
64679W        W37104  39.026  18.603  11.338
64680W        W37105   9.265  38.817   0.508
64681W        W37106  35.600  27.174   3.761
64682W        W37107  12.210   6.455  11.016
64683W        W37108  25.533  22.229  13.522
64684W        W37109  11.428  30.110   3.155
64685W        W37110  12.859  13.047  14.761
64686W        W37111  11.947   0.877   2.095
64687W        W37112  13.630  41.445  12.377
64688W        W37113  25.885  29.606  11.124
64689W        W37114  14.789   3.052  11.023
64690W        W37115  43.985  19.199   4.163
64691W        W37116  25.065  16.139  13.549
64692W        W37117  42.345  39.413  14.611
64693W        W37118  44.887  36.567  13.990
64694W        W37119  12.257  34.445  12.893
64695W        W37120  28.536  37.826  12.482
64696W        W37121   6.278  13.033  12.077
64697W        W37122  22.472  39.419  12.924
64698W        W37123  28.929  30.850  13.424
64699W        W37124  30.903   4.427  11.530
64700W        W37125   9.301  34.438   4.434
64701W        W37126  17.390   0.845   4.125
64702W        W37127   5.782  22.785   2.616
64703W        W37128  21.569  14.624   2.884
64704W        W37129   2.009  32.035   0.437
64705W        W37130  17.310  44.907   1.959
64706W        W37131  34.341  29.385   3.618
64707W        W37132   3.233   2.280   0.394
64708W        W37133  28.489  34.054   1.834
64709W        W37134  23.997  36.401   1.427
64710W        W37135  14.396  28.219   0.815
64711W        W37136   3.220  10.662  14.814
64712W        W37137  40.549   2.521  14.552
64713W        W37138  29.062   1.952   0.239
64714W        W37139  11.551  29.350   1.806
64715W        W37140  34.375  31.590  14.301
64716W        W37141  21.008  34.970   3.765
64717W        W37142  43.648   3.238  12.032
64718W        W37143  28.677   8.616   1.539
64719W        W37144  34.933  22.793  10.173
64720W        W37145  22.538  33.628   1.364
64721W        W37146  42.828   3.681   1.216
64722W        W37147   5.429  11.225   3.198
64723W        W37148  23.053   9.999   1.979
64724W        W37149   6.732  30.677  12.597
64725W        W37150  40.004  27.984   0.357
64726W        W37151  41.167  16.502  12.472
64727W        W37152   6.677  33.316   3.214
64728W        W37153  23.726  11.068   4.410
64729W        W37154  33.496  14.230  11.704
64730W        W37155  14.167  36.935  11.668
64731W        W37156  33.585  29.211  11.496
64732W        W37157   9.464  15.762  10.625
64733W        W37158  30.147  31.299  11.330
64734W        W37159  33.607  15.772  11.187
64735W        W37160  18.222  24.574  14.925
64736W        W37161  40.018  11.659  12.329
64737W        W37162   9.667  15.790  11.110
64738W        W37163  20.174  21.282  11.080
64739W        W37164  42.910  17.237  12.802
64740W        W37165  30.373  16.600   3.513
64741W        W37166  39.955  24.793  11.920
64742W        W37167  40.300  41.866  13.715
64743W        W37168   9.556  23.673  11.955
64744W        W37169   3.810  41.115  10.713
64745W        W37170  37.347  10.597   1.755
64746W        W37171  28.429   4.308  12.499
64747W        W37172   0.810   2.408  14.512
64748W        W37173  17.914  14.170   2.389
64749W        W37174  19.704   7.711  13.812
64750W        W37175   2.006  19.610  13.436
64751W        W37176   6.321  15.229   1.248
64752W        W37177  15.566  25.905   3.312
64753W        W37178  19.741  28.594   2.778
64754W        W37179  19.704  28.624  13.845
64755W        W37180  38.463  36.324  12.006
64756W        W37181  36.258  25.673  12.113
64757W        W37182  18.868  22.779   2.838
64758W        W37183  23.997  23.153  12.804
64759W        W37184  37.777   7.861   3.814
64760W        W37185  41.892  31.079   4.631
64761W        W37186  27.120  43.357  12.010
64762W        W37187  38.675  25.625   0.542
64763W        W37188  29.433   2.858  11.414
64764W        W37189  22.728  32.195  13.045
64765W        W37190   6.678  20.943  10.497
64766W        W37191  37.188  35.737  12.464
64767W        W37192  10.066  30.391   1.339
64768W        W37193  29.066  44.385  11.172
64769W        W37194  41.698  21.883   1.788
64770W        W37195  27.016   9.672  11.409
64771W        W37196  37.149  42.721  11.503
64772W        W37197   2.826  30.129   0.366
64773W        W37198  36.878  22.394   1.614
64774W        W37199  42.977   3.927  12.548
64775W        W37200  36.484  38.415   4.637
64776W        W37201  28.485  15.173   2.560
64777W        W37202  22.387  36.574   0.952
64778W        W37203  27.048   7.322   3.363
64779W        W37204   9.313  16.134  14.481
64780W        W37205  30.658   4.881  11.612
64781W        W37206   2.300  27.897  12.130
64782W        W37207  19.090  44.489  10.577
64783W        W37208   9.747  19.809  12.380
64784W        W37209  37.297  17.104   4.148
64785W        W37210  32.987  37.882  11.291
64786W        W37211  11.784   0.335   4.290
64787W        W37212  32.985  28.202  10.669
64788W        W37213  41.386   0.436   4.414
64789W        W37214   8.903   3.652  12.368
64790W        W37215   7.276  25.622   4.417
64791W        W37216   5.131   6.281   3.269
64792W        W37217  40.324   0.454  11.057
64793W        W37218  44.453  42.972   2.179
64794W        W37219  17.239  34.149   4.355
64795W        W37220  44.906  24.547  11.899
64796W        W37221   8.781  41.599  12.049
64797W        W37222  24.351  19.662  13.216
64798W        W37223   4.820  40.273   0.781
64799W        W37224  12.400  13.027  11.920
64800W        W37225  35.554  24.999   4.178
64801W        W37226  34.789  17.501   2.396
64802W        W37227  26.651  27.389  13.254
64803W        W37228  14.312   3.220   4.093
64804W        W37229  40.963  28.717   2.380
64805W        W37230  26.568  44.224  12.481
64806W        W37231  24.725  35.026  11.194
64807W        W37232   6.420   6.801  12.488
64808W        W37233  14.201  36.029  11.735
64809W        W37234   7.122  40.108  14.393
64810W        W37235  13.584  21.811  10.652
64811W        W37236  42.198  33.683   0.979
64812W        W37237  21.047  25.956  11.260
64813W        W37238   8.640  20.560   2.763
64814W        W37239  28.002  34.599  13.602
64815W        W37240  17.282  38.419   0.030
64816W        W37241  21.684  39.132  12.027
64817W        W37242   2.122  22.494   0.707
64818W        W37243   8.448  17.115  13.324
64819W        W37244   3.392  11.075  12.985
64820W        W37245  31.900  44.538   3.297
64821W        W37246  30.132  29.286  12.154
64822W        W37247  10.747   9.930  12.205
64823W        W37248  29.347  40.404  13.441
64824W        W37249  36.570  29.793   3.445
64825W        W37250  22.265  33.997  14.366
64826W        W37251  40.016  43.876   1.133
64827W        W37252  17.293   4.469   2.494
64828W        W37253  22.744  19.978  11.222
64829W        W37254  26.813   1.901   3.670
64830W        W37255  26.430  15.883   3.328
64831W        W37256   2.003  40.583  11.007
64832W        W37257  29.821  32.565   1.883
64833W        W37258  33.253  33.786   4.473
64834W        W37259   2.811  12.189  10.812
64835W        W37260  19.601  38.332   1.241
64836W        W37261  39.421  29.005   0.942
64837W        W37262   7.255  25.121   4.277
64838W        W37263  28.607  30.542   0.468
64839W        W37264  33.816  41.116   3.839
64840W        W37265  42.810  29.452  14.084
64841W        W37266   1.681  44.786   4.290
64842W        W37267  43.744  43.703   2.437
64843W        W37268  20.183  31.333   9.910
64844W        W37269  29.407  18.527  12.147
64845W        W37270  33.188  34.892  11.806
64846W        W37271  21.044   0.871  14.489
64847W        W37272  30.964  32.221  13.356
64848W        W37273  32.319  33.538   2.909
64849W        W37274  43.702   9.341   4.556
64850W        W37275  44.694   3.958  12.474
64851W        W37276  40.015   3.159   3.884
64852W        W37277   5.297  30.994  11.680
64853W        W37278   8.030  37.842  12.347
64854W        W37279  20.696   2.907   3.813
64855W        W37280  32.628  13.664   3.663
64856W        W37281  22.300  40.293  12.347
64857W        W37282  34.859  21.718   0.176
64858W        W37283  32.929   9.361  13.310
64859W        W37284   1.738   6.300  11.605
64860W        W37285   0.481   1.618   2.603
64861W        W37286  19.667  44.515  11.591
64862W        W37287  13.668   8.324   2.338
64863W        W37288  24.739  20.271   3.682
64864W        W37289  31.462  30.920   3.836
64865W        W37290  13.373  21.695   0.516
64866W        W37291  31.194   6.815  10.401
64867W        W37292  31.983  18.735   3.712
64868W        W37293   7.590  38.085  12.460
64869W        W37294  28.136   6.457   1.897
64870W        W37295  24.027  41.833   3.673
64871W        W37296  35.363  30.200   3.091
64872W        W37297  33.530  13.095  11.596
64873W        W37298  27.939   3.489   3.371
64874W        W37299  40.880   4.909  12.636
64875W        W37300  30.103  33.156   4.947
64876W        W37301  34.930  40.735   3.228
64877W        W37302  32.097  36.790  12.008
64878W        W37303  11.757  37.943  13.349
64879W        W37304  15.311   9.723  10.899
64880W        W37305  22.335  10.706  11.180
64881W        W37306  34.015   4.009   0.370
64882W        W37307   3.889  14.589  11.192
64883W        W37308   3.230  25.029   0.678
64884W        W37309  15.050  41.787   3.879
64885W        W37310  13.394  34.091   3.673
64886W        W37311  31.174  42.351   2.896
64887W        W37312   7.239  11.852  12.080
64888W        W37313  26.405   5.380  11.650
64889W        W37314  17.886   8.235   2.776
64890W        W37315  14.603  36.139  13.416
64891W        W37316  17.028  13.255   1.711
64892W        W37317  25.232  38.847   2.324
64893W        W37318  17.611  30.603   3.188
64894W        W37319  15.935  35.849   3.857
64895W        W37320  12.835  33.955  14.904
64896W        W37321  29.163  37.391   3.801
64897W        W37322   1.686  13.634  11.944
64898W        W37323  42.046  27.078   0.866
64899W        W37324  33.329   9.300   1.146
64900W        W37325  17.795   5.697  12.881
64901W        W37326  29.440  22.596  10.716
64902W        W37327  40.069  30.515  11.565
64903W        W37328  11.283  27.567   1.802
64904W        W37329  13.612   2.578   4.534
64905W        W37330  40.351  15.417   2.640
64906W        W37331  12.033  11.827   2.713
64907W        W37332  16.707   7.136   2.197
64908W        W37333  15.177  29.724   1.255
64909W        W37334  31.443  17.044   4.620
64910W        W37335  35.470   8.837   4.454
64911W        W37336  36.584  13.681  13.558
64912W        W37337  43.760  42.540  11.538
64913W        W37338  21.016  26.075   3.899
64914W        W37339  31.115   7.766  14.167
64915W        W37340  32.944   8.246   4.938
64916W        W37341  29.899  17.072  13.623
64917W        W37342  25.695  16.184  13.001
64918W        W37343  39.792  44.405  12.982
64919W        W37344  33.414   8.645  11.551
64920W        W37345  13.649  26.959   0.338
64921W        W37346  27.703  20.267   1.858
64922W        W37347  39.514  44.077   4.423
64923W        W37348  31.371  16.270   1.789
64924W        W37349  15.733   9.676  11.553
64925W        W37350  39.615   0.960   0.891
64926W        W37351  40.297  37.542  11.003
64927W        W37352  20.191   2.749   1.452
64928W        W37353  13.254  43.491  12.656
64929W        W37354  39.379  31.047   3.037
64930W        W37355  12.692  11.773  14.345
64931W        W37356  19.023   4.364  11.173
64932W        W37357  12.317   5.182   3.672
64933W        W37358  32.068  40.751  13.999
64934W        W37359  20.199  34.788   3.375
64935W        W37360   8.529  43.007   2.710
64936W        W37361  17.550  20.142  11.705
64937W        W37362  15.219  30.205   3.649
64938W        W37363  38.546   3.289   2.674
64939W        W37364  13.528  27.957  14.102
64940W        W37365   2.303  13.506  14.104
64941W        W37366  26.696  12.190  12.640
64942W        W37367  39.053  37.782   0.411
64943W        W37368  18.810  15.453   5.130
64944W        W37369  30.533   3.185  12.136
64945W        W37370  25.005  30.564  10.639
64946W        W37371   3.589  37.425  14.535
64947W        W37372  37.437  21.553   1.351
64948W        W37373  36.139  41.307   3.942
64949W        W37374   9.395  12.364   2.639
64950W        W37375  44.998  40.800   0.310
64951W        W37376  26.984  37.081   4.754
64952W        W37377   9.775   8.226   1.876
64953W        W37378   5.953   1.420   4.131
64954W        W37379  27.077  22.149  11.740
64955W        W37380   8.279   7.710   5.051
64956W        W37381  32.408  15.749  10.615
64957W        W37382  34.866  28.447  12.853
64958W        W37383   5.589   0.989  11.209
64959W        W37384   8.708  40.328   3.602
64960W        W37385   9.006  10.196   2.578
64961W        W37386   1.409   9.342   0.354
64962W        W37387  31.198   5.091  13.992
64963W        W37388  12.583  21.970  14.322
64964W        W37389   0.057   5.251  12.990
64965W        W37390  12.855  14.634   1.247
64966W        W37391  14.178  29.149  13.532
64967W        W37392  40.326  34.570   4.845
64968W        W37393   5.844   2.305  14.044
64969W        W37394  14.312  27.439  13.004
64970W        W37395   8.684   6.972   1.366
64971W        W37396  29.541  29.511  10.341
64972W        W37397   1.400  24.930  13.962
64973W        W37398  40.265  23.194  13.511
64974W        W37399   4.589  12.681   3.319
64975W        W37400   0.132  11.728   4.599
64976W        W37401  23.661   2.933   1.272
64977W        W37402   9.194  11.782  12.577
64978W        W37403   5.871  38.862   0.138
64979W        W37404  33.549  29.148  10.988
64980W        W37405  25.082  10.868  12.172
64981W        W37406  11.929  26.393   1.282
64982W        W37407  25.788  26.889  12.916
64983W        W37408   3.548   8.825  11.131
64984W        W37409   7.701   5.200  13.082
64985W        W37410  16.724  24.592  14.327
64986W        W37411  31.160  39.945  11.538
64987W        W37412  36.006  16.874   2.668
64988W        W37413   2.000  17.794  14.878
64989W        W37414  29.484  17.102   3.062
64990W        W37415  24.250   5.435   1.289
64991W        W37416  44.518  26.239  11.082
64992W        W37417   7.246  40.505   3.682
64993W        W37418   7.867  16.214   3.077
64994W        W37419  10.761  41.350   0.275
64995W        W37420  39.479   4.453  14.930
64996W        W37421  24.185  14.789  11.183
64997W        W37422  27.743  26.951  13.090
64998W        W37423  23.991  16.085   4.733
64999W        W37424  32.376  39.113  11.989
65000W        W37425  17.151  44.411  14.283
65001W        W37426  37.981   7.462   0.756
65002W        W37427   5.162  23.634   1.407
65003W        W37428  31.069   6.524  13.801
65004W        W37429  39.494  20.273  11.327
65005W        W37430   2.015   6.747   0.417
65006W        W37431   2.228   1.694  11.554
65007W        W37432  35.631  43.282   2.789
65008W        W37433  31.079  32.157   3.596
65009W        W37434   2.388  23.451   2.356
65010W        W37435  19.143   5.499   4.135
65011W        W37436  10.649   5.252   3.489
65012W        W37437   5.872  26.292  11.184
65013W        W37438   3.189   5.854   2.793
65014W        W37439  41.050  33.044   1.903
65015W        W37440  12.732  17.960  11.447
65016W        W37441  37.617   9.647   1.797
65017W        W37442  31.067  21.625   2.787
65018W        W37443  16.424  44.002   3.550
65019W        W37444   9.679  42.998  11.600
65020W        W37445  37.953  21.116   1.837
65021W        W37446  41.647   8.978   4.887
65022W        W37447   2.037  15.702   2.381
65023W        W37448  39.280  36.002   3.290
65024W        W37449  38.374  34.987  14.521
65025W        W37450   2.018  16.217  14.835
65026W        W37451   2.098  11.197   0.438
65027W        W37452  30.590   5.480   1.233
65028W        W37453   7.281  20.647   3.413
65029W        W37454  34.693  21.199   0.852
65030W        W37455  35.433   7.394  10.682
65031W        W37456   5.177  13.158   3.731
65032W        W37457   5.472  33.447   4.190
65033W        W37458  34.559  16.274   4.624
65034W        W37459  42.100  22.374  10.685
65035W        W37460  41.794  33.872  12.014
65036W        W37461   2.930  22.830   0.399
65037W        W37462  31.512  36.657  10.587
65038W        W37463   8.936  44.463  10.960
65039W        W37464  19.626   1.479  11.038
65040W        W37465   2.395  36.393  14.858
65041W        W37466   2.737   2.343  13.828
65042W        W37467  30.400  33.545  12.212
65043W        W37468  10.555  27.712  12.971
65044W        W37469  21.650  30.877  13.762
65045W        W37470   1.618  41.082  13.081
65046W        W37471  30.631  22.482  12.444
65047W        W37472   7.008  30.576  13.734
65048W        W37473  14.391   7.208  13.270
65049W        W37474  11.500  31.120   0.222
65050W        W37475  31.697  16.113   4.616
65051W        W37476  41.276  21.689  11.576
65052W        W37477  28.069  20.271  10.684
65053W        W37478  12.270  11.822  13.146
65054W        W37479  25.332   8.934  11.675
65055W        W37480  26.018  13.050   3.227
65056W        W37481  23.763  38.402  12.506
65057W        W37482  34.122  10.498   3.796
65058W        W37483  38.389  14.361  14.352
65059W        W37484  17.115   6.273  14.569
65060W        W37485  25.761   1.314   3.354
65061W        W37486  28.043  16.544  12.497
65062W        W37487  29.980  12.777   1.280
65063W        W37488  25.055  22.691  13.809
65064W        W37489  13.407  31.633  13.730
65065W        W37490  10.187  38.287   4.227
65066W        W37491  22.236  26.125   0.799
65067W        W37492  40.626  10.935  10.657
65068W        W37493  21.131  35.858   1.919
65069W        W37494  36.286  40.359  13.102
65070W        W37495  37.643   0.691  14.700
65071W        W37496  20.789  25.959   1.048
65072W        W37497  13.149  13.705  12.160
65073W        W37498  21.730  18.038  13.788
65074W        W37499  16.290  36.883   0.850
65075W        W37500   2.942  29.353   1.303
65076W        W37501  37.532  40.935   1.148
65077W        W37502  24.963  20.499  11.561
65078W        W37503  43.542  44.436  10.583
65079W        W37504   8.299  25.965   2.765
65080W        W37505  10.263  31.358   4.146
65081W        W37506  24.618  22.725   3.973
65082W        W37507   9.786  26.132  13.090
65083W        W37508  42.412  36.067  14.431
65084W        W37509  41.229  20.255   2.677
65085W        W37510  18.595  17.814   0.298
65086W        W37511  29.013  31.007  13.923
65087W        W37512   0.292   4.219  10.978
65088W        W37513  21.433  14.569   0.895
65089W        W37514   9.049   5.815   3.308
65090W        W37515   3.019  30.364  12.583
65091W        W37516  21.783   7.411  11.384
65092W        W37517  33.625  31.812  12.553
65093W        W37518  13.254  10.344   0.766
65094W        W37519   0.320   5.866   0.245
65095W        W37520  26.323  36.046   1.965
65096W        W37521  28.307  12.315  14.953
65097W        W37522  27.461  13.728   4.658
65098W        W37523  43.309   8.855   3.640
65099W        W37524  32.580   2.235  14.826
65100W        W37525   6.111  31.748  13.958
65101W        W37526  29.452  44.290   4.119
65102W        W37527   8.632  42.866  13.392
65103W        W37528  24.923  39.354  12.517
65104W        W37529  42.169  18.162   3.179
65105W        W37530  12.612  19.608   1.765
65106W        W37531   9.066  19.518  14.073
65107W        W37532  41.311  20.599   2.269
65108W        W37533  29.812   4.500   2.086
65109W        W37534  22.563  29.893   3.588
65110W        W37535  43.421  25.903   0.755
65111W        W37536  35.499   3.411  10.384
65112W        W37537  31.645  27.943   1.350
65113W        W37538  37.392  27.963   1.250
65114W        W37539  19.231  33.319  12.383
65115W        W37540  39.105  26.043   4.360
65116W        W37541  16.469   0.919   3.277
65117W        W37542  27.605  21.627   1.786
65118W        W37543   8.734  17.786  12.084
65119W        W37544  13.846  36.561   0.254
65120W        W37545  32.033  34.198   4.943
65121W        W37546  42.314  38.080   0.419
65122W        W37547  27.456  36.012   0.928
65123W        W37548  18.392  22.605  12.121
65124W        W37549   2.224   9.156  13.935
65125W        W37550   6.717  41.560  14.485
65126W        W37551   3.250  29.956  12.087
65127W        W37552  35.070   0.519   0.263
65128W        W37553  44.796  42.982  12.009
65129W        W37554   0.414  40.786   1.228
65130W        W37555   6.683  22.717  11.519
65131W        W37556   4.159  25.579  14.812
65132W        W37557  15.827  38.127  11.394
65133W        W37558  18.277  27.462   2.763
65134W        W37559  14.451   3.882   1.848
65135W        W37560  12.172  18.344  14.018
65136W        W37561  35.099   8.408  12.551
65137W        W37562   7.699  36.809   4.128
65138W        W37563  29.846  12.033   1.953
65139W        W37564  28.043   9.667   3.201
65140W        W37565   5.971  20.841  13.606
65141W        W37566  18.200  38.134   2.237
65142W        W37567  19.037  34.553   3.628
65143W        W37568   1.680  20.519  13.413
65144W        W37569  19.578  17.717   0.570
65145W        W37570  17.714  42.388   4.704
65146W        W37571   7.408  18.358   1.363
65147W        W37572  42.657   3.495   5.118
65148W        W37573   8.385   6.865   3.950
65149W        W37574  27.266  11.242  11.446
65150W        W37575  43.530  24.829   4.625
65151W        W37576   0.767  42.361  13.885
65152W        W37577  12.063  14.121  14.413
65153W        W37578  39.861  10.587  14.120
65154W        W37579  17.784  39.998   4.199
65155W        W37580   9.470  11.246   1.463
65156W        W37581   8.934   9.304   3.101
65157W        W37582  11.281  29.056  14.440
65158W        W37583  17.468  44.348   3.222
65159W        W37584  26.518  21.280  12.511
65160W        W37585  35.440   8.149  13.956
65161W        W37586   7.958  27.023   4.567
65162W        W37587  19.066  13.665   3.030
65163W        W37588  28.640  25.669  11.829
65164W        W37589  30.736  22.284  13.473
65165W        W37590  43.336  26.457   1.916
65166W        W37591  41.401  33.845   1.438
65167W        W37592  14.083  32.875   3.690
65168W        W37593  37.316  16.624  14.348
65169W        W37594   6.630  41.037  14.458
65170W        W37595  16.536  13.354  14.227
65171W        W37596  17.689  26.060  11.449
65172W        W37597  35.853  12.362  14.969
65173W        W37598  25.550  24.695   4.671
65174W        W37599   4.341   7.978   0.253
65175W        W37600  18.625  16.775   3.689
65176W        W37601  43.729  21.026  14.710
65177W        W37602  17.383   8.871   3.256
65178W        W37603  35.530   0.808   0.967
65179W        W37604  11.545   6.808  14.420
65180W        W37605  17.204  25.206  14.500
65181W        W37606  14.202  36.983   1.013
65182W        W37607  35.182  35.424   0.820
65183W        W37608   3.920  36.259  11.015
65184W        W37609  34.684  29.067   0.287
65185W        W37610  36.961   8.971   4.180
65186W        W37611  25.125  34.506  11.850
65187W        W37612  22.487  18.719   0.150
65188W        W37613   3.235  21.771  14.798
65189W        W37614  15.732  39.488   1.424
65190W        W37615  30.408  18.747   5.053
65191W        W37616  20.430  44.007   1.812
65192W        W37617  35.158  12.794   1.552
65193W        W37618  31.944  24.105  13.483
65194W        W37619  38.607  16.518  13.958
65195W        W37620  34.222   4.890  14.957
65196W        W37621   3.496  29.585  13.327
65197W        W37622  21.179  29.490   3.094
65198W        W37623  11.663  34.981   5.327
65199W        W37624  12.543  43.049  14.336
65200W        W37625   1.735   9.267  14.967
65201W        W37626  35.836  15.210  13.959
65202W        W37627  13.837   0.696   2.125
65203W        W37628  11.467  31.912   4.258
65204W        W37629  14.182  17.093   0.759
65205W        W37630  12.909  28.446  11.935
65206W        W37631  23.170  34.881   2.271
65207W        W37632  14.696  34.883  14.233
65208W        W37633  43.372  15.131   3.699
65209W        W37634  39.309  32.476  12.627
65210W        W37635   4.438   0.350   2.692
65211W        W37636  13.814   8.282  12.513
65212W        W37637  36.810  11.667  12.558
65213W        W37638  16.618   2.098   3.769
65214W        W37639  34.327  19.700   3.175
65215W        W37640   6.043   2.338   4.897
65216W        W37641  15.671  31.387   0.618
65217W        W37642  29.028   8.765   3.650
65218W        W37643  27.548  19.994   1.442
65219W        W37644  15.180  17.759  13.924
65220W        W37645  26.020  30.978   3.193
65221W        W37646  23.576  26.509   4.791
65222W        W37647  39.295  32.319   3.236
65223W        W37648  18.219  37.410  14.864
65224W        W37649  32.302  32.982  13.102
65225W        W37650  28.641  14.307  12.103
65226W        W37651   8.104  38.511  11.104
65227W        W37652   9.758   1.340   2.304
65228W        W37653  28.864   5.224  12.399
65229W        W37654  20.706   8.235   4.715
65230W        W37655  43.431  32.432   1.427
65231W        W37656  42.793  41.409  10.711
65232W        W37657  16.310   6.592  11.168
65233W        W37658  12.669   0.807   0.906
65234W        W37659  27.160  23.830   1.882
65235W        W37660  12.798  26.007  11.107
65236W        W37661  25.484  17.592  12.497
65237W        W37662  27.650  40.550   2.337
65238W        W37663  41.121  32.502   4.087
65239W        W37664  30.461   0.679  13.463
65240W        W37665  38.859  37.116   4.214
65241W        W37666  30.117  38.093  14.741
65242W        W37667  31.885  11.224  13.844
65243W        W37668  39.680   9.265  14.133
65244W        W37669   5.290  36.425  13.520
65245W        W37670  36.882  32.585   2.315
65246W        W37671  14.483  15.106  12.029
65247W        W37672  24.636   9.728   5.380
65248W        W37673  16.575  11.570   2.108
65249W        W37674   3.841  15.308   4.896
65250W        W37675  21.030  26.980   3.541
65251W        W37676  32.632  37.439  10.738
65252W        W37677  12.758  11.431   0.515
65253W        W37678   8.990  13.804   1.822
65254W        W37679   1.677   2.691   1.814
65255W        W37680  22.899  27.732  10.643
65256W        W37681  33.658  43.862   4.239
65257W        W37682   8.589  22.151   2.334
65258W        W37683  24.094  36.119  10.686
65259W        W37684   6.620  19.413   1.314
65260W        W37685  38.461  39.466   0.907
65261W        W37686  29.231   7.751   3.547
65262W        W37687  32.907  22.440   2.584
65263W        W37688  41.583  43.834  13.111
65264W        W37689   9.857  39.811  12.568
65265W        W37690  13.612   3.933  10.853
65266W        W37691  21.002  10.834   3.230
65267W        W37692  20.301  30.681   1.302
65268W        W37693  26.582  22.839  12.821
65269W        W37694   7.643  19.634   3.605
65270W        W37695  33.936  16.435   9.673
65271W        W37696  28.919  27.548  10.503
65272W        W37697  38.060  18.848  12.143
65273W        W37698   4.894  11.920  11.938
65274W        W37699  38.591  13.650   4.210
65275W        W37700  13.805  31.952  13.493
65276W        W37701  26.032  40.423   0.628
65277W        W37702  26.268  14.756  14.926
65278W        W37703  42.351  31.921   1.367
65279W        W37704  41.358  40.450   2.122
65280W        W37705  31.371  21.767  14.954
65281W        W37706  11.952  41.766   4.450
65282W        W37707  31.016  11.525  14.301
65283W        W37708  28.589   1.329   2.243
65284W        W37709  24.915  11.761  12.188
65285W        W37710  34.835  15.274   2.337
65286W        W37711  35.078  14.860   2.574
65287W        W37712  17.332  20.898  13.091
65288W        W37713  25.762  43.395  11.773
65289W        W37714  35.572  28.127  14.741
65290W        W37715  31.563  42.947  10.132
65291W        W37716  17.624   2.375  10.123
65292W        W37717  32.706   6.590   1.846
65293W        W37718   5.682   0.085  10.728
65294W        W37719  43.889  15.864   0.415
65295W        W37720   5.773  30.889  13.832
65296W        W37721  25.196  28.422   4.037
65297W        W37722  29.135  35.684  13.637
65298W        W37723  12.218  40.843  14.384
65299W        W37724  15.037  43.834  13.802
65300W        W37725  34.889   7.490  11.464
65301W        W37726   7.740  16.231  12.082
65302W        W37727  14.310   5.635  14.491
65303W        W37728  13.665  36.310  10.585
65304W        W37729  20.514  44.154  12.691
65305W        W37730  16.764  10.938   1.385
65306W        W37731  27.966   0.803   0.762
65307W        W37732  18.253  32.424  12.991
65308W        W37733   9.206  42.927   1.358
65309W        W37734  42.016  29.608   4.649
65310W        W37735  13.302  19.360  10.650
65311W        W37736  36.007  40.851  13.136
65312W        W37737  24.197  34.128   4.514
65313W        W37738   9.182   4.524  11.508
65314W        W37739  37.174  29.006  14.759
65315W        W37740   0.277  31.888   0.750
65316W        W37741  31.397  15.819  13.112
65317W        W37742  12.685  25.116   0.943
65318W        W37743  42.063   4.497  13.548
65319W        W37744  21.484   7.425  14.987
65320W        W37745  37.067  15.611   1.419
65321W        W37746  29.648  12.823   1.986
65322W        W37747  34.014  14.327  10.973
65323W        W37748  37.934  26.707   2.662
65324W        W37749   1.892  40.863  11.439
65325W        W37750  23.038   4.607   4.170
65326W        W37751   1.714  15.394  11.183
65327W        W37752   7.511  34.345  10.004
65328W        W37753   5.209   4.936  12.448
65329W        W37754  32.664  17.768  11.043
65330W        W37755   2.836  12.099   0.808
65331W        W37756  34.427  29.710  14.723
65332W        W37757  29.316  34.882  12.974
65333W        W37758   1.503   4.858   3.152
65334W        W37759   3.566  36.998   3.305
65335W        W37760  13.230  10.023   1.630
65336W        W37761  37.543   6.662   0.705
65337W        W37762  33.002  24.400  12.026
65338W        W37763  35.838  43.440  13.895
65339W        W37764  21.201  38.103   1.407
65340W        W37765  28.495   6.860   2.784
65341W        W37766  36.784  28.634  13.460
65342W        W37767  34.061  20.788   4.577
65343W        W37768  40.441  23.055   3.127
65344W        W37769  14.735  22.572   2.787
65345W        W37770  14.657  15.786  11.478
65346W        W37771  24.047   3.206   4.855
65347W        W37772  26.141  11.669  12.887
65348W        W37773  17.154  34.353  10.186
65349W        W37774  40.746   7.902   2.552
65350W        W37775  15.968  10.887   1.730
65351W        W37776  21.489   9.684   0.655
65352W        W37777   7.691  39.000   4.135
65353W        W37778  32.889  40.893   4.614
65354W        W37779  29.160  17.185   4.855
65355W        W37780  28.569  42.425  10.966
65356W        W37781  41.328  21.115  12.386
65357W        W37782  44.719  28.734  10.734
65358W        W37783  31.369  44.841  11.515
65359W        W37784  22.184  19.744  14.757
65360W        W37785  44.827  26.542   5.379
65361W        W37786  38.480  39.984   1.319
65362W        W37787   7.237  16.091   4.570
65363W        W37788  21.853  11.338   2.357
65364W        W37789  29.543  21.338  12.518
65365W        W37790  39.457   5.345  11.040
65366W        W37791  28.791  27.964   3.755
65367W        W37792  19.559  13.790  13.012
65368W        W37793   2.942   2.815   1.262
65369W        W37794  23.597   2.373   4.473
65370W        W37795  18.729  42.478   1.888
65371W        W37796  44.900  28.385  14.433
65372W        W37797  43.343   7.206  11.094
65373W        W37798  11.665  28.155  11.967
65374W        W37799  20.494  44.804  14.156
65375W        W37800  20.916  18.196  13.374
65376W        W37801  42.044   2.677   1.581
65377W        W37802  28.146  41.437   3.676
65378W        W37803  32.288  18.649  10.725
65379W        W37804  37.887  33.638  14.027
65380W        W37805   9.281  43.378   3.397
65381W        W37806  43.535  40.515  14.413
65382W        W37807   0.969  35.900  11.261
65383W        W37808  38.325   0.426  11.754
65384W        W37809  33.101  18.094  11.080
65385W        W37810  27.904   7.153   3.177
65386W        W37811  10.169   8.004  12.064
65387W        W37812  27.866  18.945   9.876
65388W        W37813  14.367  10.423  14.173
65389W        W37814   3.886  41.322   2.825
65390W        W37815  36.968   8.930  12.100
65391W        W37816   8.239   7.971   4.609
65392W        W37817   8.225  18.497   4.219
65393W        W37818   6.826  43.397   1.020
65394W        W37819  42.081  42.519   0.865
65395W        W37820   4.694   6.853   1.818
65396W        W37821  15.941  43.420  12.017
65397W        W37822   7.805  20.556  14.031
65398W        W37823  12.520  22.266   2.373
65399W        W37824   9.747  35.554   5.081
65400W        W37825   7.628  40.995  14.544
65401W        W37826  30.981  12.329  12.457
65402W        W37827   6.246   5.222  14.819
65403W        W37828  32.097  26.474  10.400
65404W        W37829   1.340  21.872  11.501
65405W        W37830  40.864   0.999  12.941
65406W        W37831  22.272   8.963   0.581
65407W        W37832  44.615  37.025   4.619
65408W        W37833  30.548  13.934   0.409
65409W        W37834  37.569  37.024   4.406
65410W        W37835  20.681   2.553   1.305
65411W        W37836   7.079  14.359   1.857
65412W        W37837  23.024  29.620  13.427
65413W        W37838  37.068  17.875   1.557
65414W        W37839  20.494  31.811  11.503
65415W        W37840  25.214   9.365   1.986
65416W        W37841   8.818  42.538  10.963
65417W        W37842  16.119   0.978   0.275
65418W        W37843  36.879  30.148   2.170
65419W        W37844  36.970  37.888  10.617
65420W        W37845  42.830  10.262  13.543
65421W        W37846  43.325   2.539  10.453
65422W        W37847  43.777  20.120   4.561
65423W        W37848  13.604  16.041  12.831
65424W        W37849  22.548   1.724  13.034
65425W        W37850  43.997  25.582  10.711
65426W        W37851   4.170  35.058  13.591
65427W        W37852   1.361  39.998   1.368
65428W        W37853   8.461  38.940   3.502
65429W        W37854  17.796  42.100  13.012
65430W        W37855  21.274  17.696  14.238
65431W        W37856  30.631  27.561   1.775
65432W        W37857   1.482   9.948  12.382
65433W        W37858  33.471  25.035   1.498
65434W        W37859  27.366  35.546  14.249
65435W        W37860   7.334   0.953   0.302
65436W        W37861  12.308  40.565  10.654
65437W        W37862  43.506   3.869   3.443
65438W        W37863  17.765  31.312   3.598
65439W        W37864  18.444  32.590   1.376
65440W        W37865  24.690   0.316   4.566
65441W        W37866  33.869  39.873  14.869
65442W        W37867  24.687  24.082  14.075
65443W        W37868  25.045  17.985   0.368
65444W        W37869  28.268   6.391  11.575
65445W        W37870  28.494  39.287   0.672
65446W        W37871  35.568  44.391   0.681
65447W        W37872   0.810  40.193   2.827
65448W        W37873  30.286  30.569   2.895
65449W        W37874  27.059  23.586  14.890
65450W        W37875  39.752  34.568  11.310
65451W        W37876  26.525  17.629   1.936
65452W        W37877  25.440  31.142   1.754
65453W        W37878   0.752  42.022   3.898
65454W        W37879   8.351  43.448  10.533
65455W        W37880  15.533  32.926   3.543
65456W        W37881  32.830  43.555   4.197
65457W        W37882  11.870  16.108  11.538
65458W        W37883   9.906  38.031   3.226
65459W        W37884  10.777  24.835   1.428
65460W        W37885  29.397  22.497  11.561
65461W        W37886  17.504  34.460  12.169
65462W        W37887  28.191  24.483   2.299
65463W        W37888  17.562  26.023   1.212
65464W        W37889  34.664  33.442   0.882
65465W        W37890  22.125   8.317   3.289
65466W        W37891  33.508  15.894   0.328
65467W        W37892  34.458  16.969  12.871
65468W        W37893   3.345  35.154  12.377
65469W        W37894   6.249  33.014  11.388
65470W        W37895   9.646  12.574  11.982
65471W        W37896  41.325  14.259  14.989
65472W        W37897  28.882   4.905   3.932
65473W        W37898  30.788   0.408   3.697
65474W        W37899   8.238  36.898  12.839
65475W        W37900   6.900  10.555  11.942
65476W        W37901  32.551  36.283  12.925
65477W        W37902  18.993  42.317   2.329
65478W        W37903   3.350   1.992   3.281
65479W        W37904  37.471  11.227   4.651
65480W        W37905   0.241   7.002  11.946
65481W        W37906  32.973  37.530   3.683
65482W        W37907  31.706  40.881  12.681
65483W        W37908  42.253  43.230  13.942
65484W        W37909  18.240  19.973  10.689
65485W        W37910   9.467  43.298   0.671
65486W        W37911  17.522  26.950   4.069
65487W        W37912   1.265  10.885   2.243
65488W        W37913  22.637   2.727   1.677
65489W        W37914  42.332   8.373  13.025
65490W        W37915  36.970  22.856  10.582
65491W        W37916  26.473   9.634  13.421
65492W        W37917  16.044   8.665   1.496
65493W        W37918  29.367  12.790   5.052
65494W        W37919  14.549   8.848  10.307
65495W        W37920   2.916  26.504   2.661
65496W        W37921   6.682   9.703  12.967
65497W        W37922  29.884  16.781   4.938
65498W        W37923  21.099   4.170  14.655
65499W        W37924  10.243  18.620   0.364
65500W        W37925  18.072  23.196  10.854
65501W        W37926  11.276  24.163  10.304
65502W        W37927  25.648   4.428  10.793
65503W        W37928  10.953   1.854   1.902
65504W        W37929  34.323  44.931  13.977
65505W        W37930  24.126  20.912   4.902
65506W        W37931  14.410  23.966  13.055
65507W        W37932  25.238   5.277   2.936
65508W        W37933  15.631  42.380  11.953
65509W        W37934  39.796   6.134  13.560
65510W        W37935  42.484  16.071  11.893
65511W        W37936   1.751  29.577   3.384
65512W        W37937   2.412  27.123   0.010
65513W        W37938  17.082  16.883   1.793
65514W        W37939  44.237  12.696  10.687
65515W        W37940  27.990   3.872   2.243
65516W        W37941  11.307  33.504  14.623
65517W        W37942  13.502  23.523   2.074
65518W        W37943   7.730  36.854  12.928
65519W        W37944  41.188  18.692   0.316
65520W        W37945  14.642   7.870   4.708
65521W        W37946  36.381   0.611   4.510
65522W        W37947  22.352  38.002  11.418
65523W        W37948  11.138  40.804  12.924
65524W        W37949  28.681   3.721   3.415
65525W        W37950  21.971  21.759   4.239
65526W        W37951   8.220   1.689  11.484
65527W        W37952  37.864  12.291   2.704
65528W        W37953   5.129  27.605  10.631
65529W        W37954  39.534   0.835   2.430
65530W        W37955  20.663  12.635  13.170
65531W        W37956  26.257  22.421   4.776
65532W        W37957  40.876  39.593   2.349
65533W        W37958  15.741  41.003   1.670
65534W        W37959  32.366  21.545  14.942
65535W        W37960  28.328  38.317   4.565
65536W        W37961   4.197  21.111  13.724
65537W        W37962  40.073  13.362  11.589
65538W        W37963  15.426   7.816  12.438
65539W        W37964  17.788   1.044  12.814
65540W        W37965   2.465  16.677   3.342
65541W        W37966   6.754  13.729   3.649
65542W        W37967  17.194  29.607  14.346
65543W        W37968  44.388   5.609  11.986
65544W        W37969   5.125  16.833  12.558
65545W        W37970  24.568  32.129   1.323
65546W        W37971  25.686  29.046   4.732
65547W        W37972   5.859  36.551  13.980
65548W        W37973  18.445  36.416  14.879
65549W        W37974  15.848  31.690  13.881
65550W        W37975  17.613  41.902  13.478
65551W        W37976   9.817  16.785  14.312
65552W        W37977  40.314  20.248  12.436
65553W        W37978   6.239  28.054   4.083
65554W        W37979   4.418  20.228  14.942
65555W        W37980  35.701  26.499   4.219
65556W        W37981  33.455   9.355  13.347
65557W        W37982  14.844  43.410   3.765
65558W        W37983  39.556   6.155  14.924
65559W        W37984  15.621  14.776  11.594
65560W        W37985  12.696   6.469  13.532
65561W        W37986  13.591   8.319   1.451
65562W        W37987  24.273  27.409  11.128
65563W        W37988  15.227  44.247  12.935
65564W        W37989   3.701  21.590  14.871
65565W        W37990  37.836  16.650   2.799
65566W        W37991   7.479  33.525  14.811
65567W        W37992  42.786  36.875  14.253
65568W        W37993  30.552  39.304  11.591
65569W        W37994  43.069  26.283  11.120
65570W        W37995   5.238  16.753   4.114
65571W        W37996  25.167   1.205  14.411
65572W        W37997   0.715  13.395  11.067
65573W        W37998  23.584   3.452   1.274
65574W        W37999  35.349   8.772  14.830
65575W        W38000  22.600   0.864   1.206
65576W        W38001  38.344   9.616  13.533
65577W        W38002  28.891  35.510  11.088
65578W        W38003  26.970  28.596   2.654
65579W        W38004  36.146   6.203   3.144
65580W        W38005  40.608  13.885   2.391
65581W        W38006  27.709  31.622   4.298
65582W        W38007  11.617  19.722  10.102
65583W        W38008  40.288  17.786   3.123
65584W        W38009  38.955  40.296   3.273
65585W        W38010  27.032   7.931   1.153
65586W        W38011  41.473  14.930   2.828
65587W        W38012  29.680  20.605   2.942
65588W        W38013  37.810  25.957   4.558
65589W        W38014  36.872   7.663  14.601
65590W        W38015  43.848   7.205   3.307
65591W        W38016  34.486  18.610  11.157
65592W        W38017  14.247  21.480  12.931
65593W        W38018  15.266   0.759   3.388
65594W        W38019  26.398   8.769  12.071
65595W        W38020  23.483   3.401  11.420
65596W        W38021  44.774   3.769   3.405
65597W        W38022  12.194   2.449  14.790
65598W        W38023  35.469  16.656  12.998
65599W        W38024   3.980  29.954  11.539
65600W        W38025  21.639  37.821   2.750
65601W        W38026  43.508  19.273  10.721
65602W        W38027  19.479  11.820   3.247
65603W        W38028  22.156   6.294  11.522
65604W        W38029  39.293  40.549   0.181
65605W        W38030  18.742  31.681   3.322
65606W        W38031  18.799  22.488  12.943
65607W        W38032   7.752  35.404   3.602
65608W        W38033  14.757  43.953   0.737
65609W        W38034   2.523   3.721   1.820
65610W        W38035  43.489   4.580  12.136
65611W        W38036  27.120   0.953   2.207
65612W        W38037  18.086  16.292  13.201
65613W        W38038   7.315  44.798  13.398
65614W        W38039  12.465   7.651   3.092
65615W        W38040  35.854   8.207  14.883
65616W        W38041  43.224  28.104  12.493
65617W        W38042   9.257  16.744  10.363
65618W        W38043   6.255  33.361  12.377
65619W        W38044  41.594  38.391   1.181
65620W        W38045   6.374  21.945   4.701
65621W        W38046   8.484  43.315  11.516
65622W        W38047  31.800  32.362  12.857
65623W        W38048  42.390  15.688  13.194
65624W        W38049  17.909  28.274  14.783
65625W        W38050  38.884  10.274   0.533
65626W        W38051  24.838   7.771   2.288
65627W        W38052  10.182   9.008  13.397
65628W        W38053  22.200   0.792  14.400
65629W        W38054  22.699  26.532   0.433
65630W        W38055  14.660   6.398   2.421
65631W        W38056   2.210  22.073   3.307
65632W        W38057  36.038  40.279  12.289
65633W        W38058   1.888  22.375   1.676
65634W        W38059  31.865  25.495  14.421
65635W        W38060   2.791  23.288   4.241
65636W        W38061  37.545  32.662   0.866
65637W        W38062   9.072  41.375  12.845
65638W        W38063  20.137   0.039   0.004
65639W        W38064   5.918  24.152   4.434
65640W        W38065  19.064  10.877  13.831
65641W        W38066  10.963   3.959   1.645
65642W        W38067  27.518  10.272   3.660
65643W        W38068   6.110  15.115   3.957
65644W        W38069  19.082  12.669  14.513
65645W        W38070  32.825  38.040   3.754
65646W        W38071  34.267  15.698   1.245
65647W        W38072  33.522  43.993   0.351
65648W        W38073  21.674  15.078   2.656
65649W        W38074  34.826   4.338  14.687
65650W        W38075  44.399  37.580  14.831
65651W        W38076  29.151  22.246  11.140
65652W        W38077  34.044  21.523  11.046
65653W        W38078   6.233  16.335   0.388
65654W        W38079  25.011  33.266   5.215
65655W        W38080   4.972  28.069  13.562
65656W        W38081  23.660   9.677   4.934
65657W        W38082  28.671  44.553   3.711
65658W        W38083  33.375  27.527   3.416
65659W        W38084  30.468   6.420  13.142
65660W        W38085  25.698  36.980  13.400
65661W        W38086  25.460  12.611   3.655
65662W        W38087  19.316  37.653   3.017
65663W        W38088  42.434   2.429   1.293
65664W        W38089   5.182  16.560  14.828
65665W        W38090  38.295  30.139  13.903
65666W        W38091  20.691  22.612  12.046
65667W        W38092  27.765  23.613   2.713
65668W        W38093  40.264  44.810   2.692
65669W        W38094  33.078  15.028  12.362
65670W        W38095  19.191  41.630   4.584
65671W        W38096   7.718   6.283  14.694
65672W        W38097  30.097  39.532   1.365
65673W        W38098  29.336  26.129  14.910
65674W        W38099  41.315  15.086  14.329
65675W        W38100   1.912  22.997  11.115
65676W        W38101  39.004  13.309   2.148
65677W        W38102  20.271   0.271  12.049
65678W        W38103  40.338  22.308   4.689
65679W        W38104  38.619  26.238   2.702
65680W        W38105  17.097   2.768  10.672
65681W        W38106  14.590  40.286  11.129
65682W        W38107  22.699  10.335   4.219
65683W        W38108  30.777  24.209  12.326
65684W        W38109  28.008  20.045   1.174
65685W        W38110  25.694  37.150   0.313
65686W        W38111  35.158  39.501  12.093
65687W        W38112  19.585  37.972   2.232
65688W        W38113  29.356  26.891  11.144
65689W        W38114  12.422  42.414  14.936
65690W        W38115  30.941  11.572  10.613
65691W        W38116  21.527  10.684  10.766
65692W        W38117   5.962  43.786  14.254
65693W        W38118  22.548  10.887   3.267
65694W        W38119   1.787  34.691  14.634
65695W        W38120  20.251   3.748   4.060
65696W        W38121  22.772  35.847  11.392
65697W        W38122   7.756  35.193  12.061
65698W        W38123   3.794   6.456   0.069
65699W        W38124  36.963  10.250   3.315
65700W        W38125   8.731  15.532   0.879
65701W        W38126  24.452  37.955  12.431
65702W        W38127   0.798  10.901  14.955
65703W        W38128  18.532  25.480  12.366
65704W        W38129   4.735   0.945   3.640
65705W        W38130   6.785   9.901  10.662
65706W        W38131  24.720  11.398   4.360
65707W        W38132   2.822  16.295   4.210
65708W        W38133  14.336  21.665   0.381
65709W        W38134  15.265  14.521   3.652
65710W        W38135  36.533   7.520   5.113
65711W        W38136   7.113  15.725   2.968
65712W        W38137  43.871   6.668   0.812
65713W        W38138  22.233   5.210  11.318
65714W        W38139   5.794  38.384  14.946
65715W        W38140  37.288  20.084   4.153
65716W        W38141  20.031  10.273  11.857
65717W        W38142  14.674  40.484  11.615
65718W        W38143  31.076   5.417  11.979
65719W        W38144  41.857  14.043   2.045
65720W        W38145  31.509  42.959  13.828
65721W        W38146  11.846  37.598   4.096
65722W        W38147  42.000  36.814  11.570
65723W        W38148  27.487  18.226  10.808
65724W        W38149  35.659  31.257   1.180
65725W        W38150  36.015  21.247   2.109
65726W        W38151  22.648   5.638  10.490
65727W        W38152  28.508  26.435   2.387
65728W        W38153  10.907  39.319   1.759
65729W        W38154  18.002  15.786   1.808
65730W        W38155  15.817   9.467  13.358
65731W        W38156  33.142  40.433  14.400
65732W        W38157   5.639  12.218  13.885
65733W        W38158  22.021  31.340  13.342
65734W        W38159   0.845  15.817   2.778
65735W        W38160  14.788  17.136  13.605
65736W        W38161  27.768  35.203  14.373
65737W        W38162  26.633  17.531  14.971
65738W        W38163   1.484  19.142   1.382
65739W        W38164  18.845  33.312   0.965
65740W        W38165  19.622   4.189  12.580
65741W        W38166  44.838  23.059   2.815
65742W        W38167   7.911  34.117  11.577
65743W        W38168  36.111  14.734   0.776
65744W        W38169  35.956  27.160  12.827
65745W        W38170  21.609  17.281   4.543
65746W        W38171  15.864   7.216  11.627
65747W        W38172  36.489   5.267  12.142
65748W        W38173  39.011  34.652   3.279
65749W        W38174  25.570  10.819  12.973
65750W        W38175  13.290  37.030   2.665
65751W        W38176  39.486  25.697  11.050
65752W        W38177   9.020  14.240   0.423
65753W        W38178   0.102  26.428   2.103
65754W        W38179   4.828  39.885  14.028
65755W        W38180  31.904  36.770  12.508
65756W        W38181   5.193  41.947   1.830
65757W        W38182  11.303  43.516   2.738
65758W        W38183  19.719  43.749  14.277
65759W        W38184  15.633  32.020  10.855
65760W        W38185  33.848  14.754  13.751
65761W        W38186  23.465  27.032   4.166
65762W        W38187  29.993  32.403  11.628
65763W        W38188  21.073  29.813  13.525
65764W        W38189  17.505  15.185   3.279
65765W        W38190   3.469  36.304   0.836
65766W        W38191   1.954  26.633  10.912
65767W        W38192  40.140   2.834   1.534
65768W        W38193  35.391  40.211   4.181
65769W        W38194  34.910  21.775  13.703
65770W        W38195  12.610  16.149   4.621
65771W        W38196  24.220  21.248  13.922
65772W        W38197  26.730  41.160  10.584
65773W        W38198  42.752  32.108  12.710
65774W        W38199  33.897  12.749  11.879
65775W        W38200  15.084   0.690  13.809
65776W        W38201   8.217   8.812   4.212
65777W        W38202   0.965  27.736   0.895
65778W        W38203  17.160  38.269  14.042
65779W        W38204  16.642  31.956  10.737
65780W        W38205   9.396  42.490   3.703
65781W        W38206  42.234  31.635  11.954
65782W        W38207  25.762  13.263  13.701
65783W        W38208  16.228   4.677   4.282
65784W        W38209  29.171  11.387   0.744
65785W        W38210  23.830  24.242   9.987
65786W        W38211  44.143  31.100  11.061
65787W        W38212   7.912  32.050  11.615
65788W        W38213  36.072  15.329  10.768
65789W        W38214  39.079  28.876  10.794
65790W        W38215  26.121  33.402  13.895
65791W        W38216  24.550  18.189   3.252
65792W        W38217  37.373  34.361  11.515
65793W        W38218  28.392  16.290   2.735
65794W        W38219  26.436  29.068  10.685
65795W        W38220   5.363  27.531  14.751
65796W        W38221  32.158   1.765  11.192
65797W        W38222  20.223  27.199  11.381
65798W        W38223  32.669  24.186   2.759
65799W        W38224  38.122  23.560  13.571
65800W        W38225   8.958   4.841   3.278
65801W        W38226  12.358  39.806  11.225
65802W        W38227  30.094  10.878   0.695
65803W        W38228  44.349   0.065  11.429
65804W        W38229  14.826  11.418  14.071
65805W        W38230  17.819   7.681  12.926
65806W        W38231  44.273   2.764  13.970
65807W        W38232  39.873  13.049   3.254
65808W        W38233  26.544  16.663  14.011
65809W        W38234  33.714   1.279   0.796
65810W        W38235  32.167  13.241   1.378
65811W        W38236   0.882  28.893   5.097
65812W        W38237  27.096  19.957  13.219
65813W        W38238  10.857  31.881  13.107
65814W        W38239  43.963  28.756  14.463
65815W        W38240   7.261   3.533   4.437
65816W        W38241  25.514  26.458  12.806
65817W        W38242   9.332  10.208  12.054
65818W        W38243  36.604  38.111   2.379
65819W        W38244   8.130  32.930   2.894
65820W        W38245  22.987  24.065   4.729
65821W        W38246  24.036   3.439  11.117
65822W        W38247  15.403  31.065   1.339
65823W        W38248   3.872  20.659   1.169
65824W        W38249  28.142  38.416  14.045
65825W        W38250   2.863   7.440  11.116
65826W        W38251  43.389  11.558   3.986
65827W        W38252  17.281   7.984   2.239
65828W        W38253  39.425   5.779  13.454
65829W        W38254  21.100  41.393   4.033
65830W        W38255  15.254  18.662  14.120
65831W        W38256  24.595  35.097   1.245
65832W        W38257  25.937   7.232  14.796
65833W        W38258  38.900  41.567   1.020
65834W        W38259  43.497  19.546  11.191
65835W        W38260  23.520  33.948  10.381
65836W        W38261  26.537  34.448  12.574
65837W        W38262  14.898   9.677  11.182
65838W        W38263  37.496  28.279  12.320
65839W        W38264  22.705  15.272  12.632
65840W        W38265  44.746  33.957  12.664
65841W        W38266   1.400   6.816   3.250
65842W        W38267  36.547  16.781   4.550
65843W        W38268  43.748  28.565   4.071
65844W        W38269  25.656  37.245   3.676
65845W        W38270  32.012   6.081   1.070
65846W        W38271  15.038  36.867  14.371
65847W        W38272  20.991  37.508   0.194
65848W        W38273  30.579  21.124  14.319
65849W        W38274  25.531  31.297  10.949
65850W        W38275  10.894  27.618   4.627
65851W        W38276   3.125  20.769  11.249
65852W        W38277   8.655  16.314   2.123
65853W        W38278  44.752  32.900  12.455
65854W        W38279   1.935  34.091  13.814
65855W        W38280  26.464  15.640   2.002
65856W        W38281   4.330   6.985  13.520
65857W        W38282  12.146  12.106   4.294
65858W        W38283   0.249   5.801  14.226
65859W        W38284   8.559  21.290   2.120
65860W        W38285  38.733  41.603  14.561
65861W        W38286  24.168  14.143  12.416
65862W        W38287  12.129  18.148   4.174
65863W        W38288  32.595   7.355  13.822
65864W        W38289   0.580  30.144  12.657
65865W        W38290  15.753   8.897   4.128
65866W        W38291   7.996  26.432   3.566
65867W        W38292  13.845  16.360   4.620
65868W        W38293   6.143   0.387  10.797
65869W        W38294  18.234   9.753   0.046
65870W        W38295  39.657  23.154  12.853
65871W        W38296  26.948  31.403   1.258
65872W        W38297   9.206  33.581  13.371
65873W        W38298   9.243  20.757   4.829
65874W        W38299  10.767  27.359  14.923
65875W        W38300  18.318  32.717  11.230
65876W        W38301  19.540  38.350  14.381
65877W        W38302  34.837  18.509  12.583
65878W        W38303   4.037   5.744  10.970
65879W        W38304  34.688  16.043  13.258
65880W        W38305  33.909  15.730   2.616
65881W        W38306   8.551   0.284  11.129
65882W        W38307  24.448   9.835  14.450
65883W        W38308  14.726  24.096  11.922
65884W        W38309  12.950  20.312   2.210
65885W        W38310  19.773  34.067   4.554
65886W        W38311  19.762   6.405  12.603
65887W        W38312   0.343   9.412  14.425
65888W        W38313   5.760  23.984   0.002
65889W        W38314  20.214   8.487  14.892
65890W        W38315  15.146   0.565   2.832
65891W        W38316  40.432  22.803   4.647
65892W        W38317   7.463  21.180  14.329
65893W        W38318  16.157  28.522  11.084
65894W        W38319   7.385  42.884   2.735
65895W        W38320  16.134  14.327  13.536
65896W        W38321  14.537  37.659  11.068
65897W        W38322  30.533  11.865  13.270
65898W        W38323  36.915   0.056   3.725
65899W        W38324  16.552  36.457  12.567
65900W        W38325  41.029  28.486  14.495
65901W        W38326   9.471  33.484   0.803
65902W        W38327  44.567  24.033  11.580
65903W        W38328  15.622  19.734  13.941
65904W        W38329  36.427  42.324   3.187
65905W        W38330  33.516  22.426  12.387
65906W        W38331  10.074  37.026  12.066
65907W        W38332  11.073  44.662   0.285
65908W        W38333  33.163  18.027  10.140
65909W        W38334  12.655  25.566   3.340
65910W        W38335   2.665  25.756  14.804
65911W        W38336   6.172  14.794   0.483
65912W        W38337  13.742  21.884  10.159
65913W        W38338  23.275  26.626  11.718
65914W        W38339  33.955  10.331   3.288
65915W        W38340  38.302   4.807  13.554
65916W        W38341  41.856  22.110  11.372
65917W        W38342  32.170   5.694   0.235
65918W        W38343  12.390  22.392  14.016
65919W        W38344  18.768  39.378  11.163
65920W        W38345  11.193  38.454   1.185
65921W        W38346  27.527   3.363   0.689
65922W        W38347  28.213  12.357   3.721
65923W        W38348   8.253  12.522   1.036
65924W        W38349  35.514  42.548  13.371
65925W        W38350  44.671  27.649   4.595
65926W        W38351  30.543  16.585  12.596
65927W        W38352  16.205  28.722  11.958
65928W        W38353   9.671   3.477   3.634
65929W        W38354   4.905  15.128  12.480
65930W        W38355  10.100   1.886   3.140
65931W        W38356  44.998  13.299  10.611
65932W        W38357   8.408  25.562   1.645
65933W        W38358  34.638  25.876  10.628
65934W        W38359   6.299  38.369   3.934
65935W        W38360  19.542  24.051  10.979
65936W        W38361  22.020   3.021  14.181
65937W        W38362  29.101  32.584   3.301
65938W        W38363  16.081  22.725   3.236
65939W        W38364  19.525  12.208  12.513
65940W        W38365  17.148  22.055   4.603
65941W        W38366   9.244  29.991  13.309
65942W        W38367  20.046  41.986  11.500
65943W        W38368   5.743  10.464   2.299
65944W        W38369  36.726  26.459  12.966
65945W        W38370  23.932  14.662  14.067
65946W        W38371   3.464  36.378   4.692
65947W        W38372  14.374  34.916  14.641
65948W        W38373  21.820  34.018   1.133
65949W        W38374   4.479  44.475  12.428
65950W        W38375  10.142  34.569  12.382
65951W        W38376  31.971  20.721   4.135
65952W        W38377  11.060  26.502   4.008
65953W        W38378  32.310  21.973   4.060
65954W        W38379  29.361  23.756  13.311
65955W        W38380  14.795  10.755   3.598
65956W        W38381   3.404  41.855  10.379
65957W        W38382  19.075  24.208  11.155
65958W        W38383  32.154   2.852   4.938
65959W        W38384  12.152  16.035   3.745
65960W        W38385  42.090  28.750  14.461
65961W        W38386  21.631  43.735  13.985
65962W        W38387  12.883  19.223  12.942
65963W        W38388   2.897   9.581   3.735
65964W        W38389  13.883  17.182  14.120
65965W        W38390  31.931   1.940   0.729
65966W        W38391  19.491   1.751   4.153
65967W        W38392  15.868   2.380   1.889
65968W        W38393   2.286   5.956   0.953
65969W        W38394   3.743  23.191  11.654
65970W        W38395  17.282  34.990  14.500
65971W        W38396   2.792  35.655  11.410
65972W        W38397  20.245  37.043  12.974
65973W        W38398  32.323  36.895   3.331
65974W        W38399  31.556  27.142   1.775
65975W        W38400  25.253   3.782  14.394
65976W        W38401  19.720  16.298  13.108
65977W        W38402  41.338   4.339   1.693
65978W        W38403   1.714  18.562   4.161
65979W        W38404   6.551  26.664   4.564
65980W        W38405  12.729  16.861  13.864
65981W        W38406   0.224  14.671  14.081
65982W        W38407   4.656  30.986   1.221
65983W        W38408  14.979   1.674  10.689
65984W        W38409   5.040   1.661  13.081
65985W        W38410  35.041   5.999  12.348
65986W        W38411   7.488  34.499   1.327
65987W        W38412  37.055  25.296   0.875
65988W        W38413  30.227  22.250   0.838
65989W        W38414  28.518  12.792  13.435
65990W        W38415  11.674  20.289  11.039
65991W        W38416  20.795  10.814   1.037
65992W        W38417  33.044   1.716   2.233
65993W        W38418   0.773  41.223   4.589
65994W        W38419   5.704  20.467  12.653
65995W        W38420  29.058  16.589  11.170
65996W        W38421  44.972   1.439  12.522
65997W        W38422  25.023   0.875   3.394
65998W        W38423  28.859   8.311   0.027
65999W        W38424  31.867   4.465   1.834
66000W        W38425  19.182  25.022  10.697
66001W        W38426  41.466   4.835   0.270
66002W        W38427  17.012  28.630   1.329
66003W        W38428  43.790  25.108  12.841
66004W        W38429  35.266  27.145  11.772
66005W        W38430   8.372   4.562   1.882
66006W        W38431  40.269  29.450  11.585
66007W        W38432  35.638  14.592  14.989
66008W        W38433  22.516  19.932  13.288
66009W        W38434  20.722  25.305  13.352
66010W        W38435  23.093  33.407   2.270
66011W        W38436  27.034   3.827   4.436
66012W        W38437   6.781  13.569  13.000
66013W        W38438   3.101  36.958  13.320
66014W        W38439  43.421   8.269  14.965
66015W        W38440  13.521   4.787  11.373
66016W        W38441  30.102  30.920  14.871
66017W        W38442   8.538   6.181  14.944
66018W        W38443  31.628  21.261  13.878
66019W        W38444  23.652  20.450   3.478
66020W        W38445   9.805  44.185  14.886
66021W        W38446  44.877  35.729   4.589
66022W        W38447  42.443  33.561   3.652
66023W        W38448  29.590  18.926  12.396
66024W        W38449  43.889   0.173  11.130
66025W        W38450  16.163  28.216  12.019
66026W        W38451  42.385  17.256  14.807
66027W        W38452  26.932  20.776  11.704
66028W        W38453  43.190  15.331   3.243
66029W        W38454  17.558  37.890  12.817
66030W        W38455   0.548  16.052   4.749
66031W        W38456   3.030   6.274   1.930
66032W        W38457   1.924  41.881   0.400
66033W        W38458  38.127   8.827   0.968
66034W        W38459  15.049  40.300   2.637
66035W        W38460  19.275  19.867   1.242
66036W        W38461  31.403  36.703   2.859
66037W        W38462   4.734  30.692   0.744
66038W        W38463  42.780  19.031   3.609
66039W        W38464  42.353  36.749  10.628
66040W        W38465  35.437  43.782   4.517
66041W        W38466  21.782  40.015  12.146
66042W        W38467  22.694   1.309   1.466
66043W        W38468   4.260  13.067  13.018
66044W        W38469  37.328  22.604   1.404
66045W        W38470   8.676   7.466   1.480
66046W        W38471  20.125  20.284   3.128
66047W        W38472  19.718  20.549   4.185
66048W        W38473   7.342  35.123  11.121
66049W        W38474  32.586  19.510  14.769
66050W        W38475  17.558  26.907  10.835
66051W        W38476  23.897  22.181  12.680
66052W        W38477   6.993  43.798   1.298
66053W        W38478  35.160  30.809   4.183
66054W        W38479  27.829  29.055   2.620
66055W        W38480   9.184  35.807  12.408
66056W        W38481  28.995  43.966   1.410
66057W        W38482  38.846  23.588   3.125
66058W        W38483  10.718   9.004  10.202
66059W        W38484  27.165   4.326   4.339
66060W        W38485  36.222  43.866   5.013
66061W        W38486  37.369  35.157  12.996
66062W        W38487   4.309  12.236  14.965
66063W        W38488  19.629  41.879   2.974
66064W        W38489  34.532   5.472  14.083
66065W        W38490  12.300  32.690  14.338
66066W        W38491  14.830  28.302  12.007
66067W        W38492   7.324  27.946   1.986
66068W        W38493  18.158  10.840  12.012
66069W        W38494  31.174  44.700  12.370
66070W        W38495  32.359  27.086   1.148
66071W        W38496  24.123  15.475   4.229
66072W        W38497   7.019  12.908   1.327
66073W        W38498   8.271  37.355  14.273
66074W        W38499  23.913  18.812  13.330
66075W        W38500  27.176  38.518  13.716
66076W        W38501   2.394  43.493   4.132
66077W        W38502  26.588   3.776   4.693
66078W        W38503  44.267  43.055   4.666
66079W        W38504  32.201  24.263  12.540
66080W        W38505  44.523  30.524   1.747
66081W        W38506  17.583  26.616   4.772
66082W        W38507  44.226  16.774   1.482
66083W        W38508  17.554  10.049   2.637
66084W        W38509  11.188  43.712  12.884
66085W        W38510   4.853   5.730   0.248
66086W        W38511  31.986  22.465  14.385
66087W        W38512  21.776  31.075  12.907
66088W        W38513  40.864  15.887  10.720
66089W        W38514  33.994  30.585   3.933
66090W        W38515  16.307  19.398   5.042
66091W        W38516   4.898  29.985  11.666
66092W        W38517   9.785   1.069  11.240
66093W        W38518  34.961  27.720   3.714
66094W        W38519  21.976   4.878   1.254
66095W        W38520  41.499  41.590  12.919
66096W        W38521  13.875  24.198   3.343
66097W        W38522  40.010   5.821  12.780
66098W        W38523  29.940  15.675   1.381
66099W        W38524  19.771  36.618   1.819
66100W        W38525  33.900  35.677   2.214
66101W        W38526  28.211   8.214   4.131
66102W        W38527  36.109  42.466  14.817
66103W        W38528  32.536  14.104   3.388
66104W        W38529  18.013  37.438  12.615
66105W        W38530   8.259  30.331   0.948
66106W        W38531  12.453  15.538  13.356
66107W        W38532  25.507   4.370   0.760
66108W        W38533  36.797  27.637  11.143
66109W        W38534  13.115  32.566   3.697
66110W        W38535  25.674  15.592  14.888
66111W        W38536  28.874  27.527  13.800
66112W        W38537  26.079   1.259  13.036
66113W        W38538  25.022  18.133  14.339
66114W        W38539  31.045  17.641   4.496
66115W        W38540  26.910  44.346  13.538
66116W        W38541  32.999  25.077   3.241
66117W        W38542  38.611  16.778  11.987
66118W        W38543  11.333   3.346  10.408
66119W        W38544  14.764   3.903  11.367
66120W        W38545   3.843  22.936  13.664
66121W        W38546   4.707  18.458   2.198
66122W        W38547   2.418  19.101   2.802
66123W        W38548  35.342   8.242  14.843
66124W        W38549  26.387  31.540   3.748
66125W        W38550  27.460  35.813  10.997
66126W        W38551   1.969  13.128  13.818
66127W        W38552  37.928  23.494   3.633
66128W        W38553  26.539  25.436   4.171
66129W        W38554   4.160  37.518  10.637
66130W        W38555  44.672  14.668   3.762
66131W        W38556  26.522  15.059  11.586
66132W        W38557  44.833   4.938  13.371
66133W        W38558  14.664  13.573  14.329
66134W        W38559  40.518  19.162  10.781
66135W        W38560  30.989  15.544   0.370
66136W        W38561   8.336  13.742   4.594
66137W        W38562  34.097   1.732  13.933
66138W        W38563  13.022   2.658   1.608
66139W        W38564  42.018  42.268  11.651
66140W        W38565  17.717  12.392  12.456
66141W        W38566  43.283  34.608  14.018
66142W        W38567  11.195   6.657  12.564
66143W        W38568  10.200  40.811  13.349
66144W        W38569   0.221  33.425  14.932
66145W        W38570  43.237  10.081  11.465
66146W        W38571   8.428  38.330   1.129
66147W        W38572  41.291  34.116  14.906
66148W        W38573   8.930  19.782   0.272
66149W        W38574  33.717  14.103   3.672
66150W        W38575  32.589   1.489  12.837
66151W        W38576  26.148   3.722  14.561
66152W        W38577   2.880   8.215   1.352
66153W        W38578   7.211  29.529  10.650
66154W        W38579  19.253   3.366   2.093
66155W        W38580   6.438  29.608  11.143
66156W        W38581  15.094   2.701  13.352
66157W        W38582  25.534  10.993   0.357
66158W        W38583  42.442  14.122   1.952
66159W        W38584  17.390   2.558   9.703
66160W        W38585   1.511  15.782   2.320
66161W        W38586  38.975  11.626  12.540
66162W        W38587   3.349  38.865   0.977
66163W        W38588  41.828  13.344   4.520
66164W        W38589   5.982  23.035   0.373
66165W        W38590  31.646  42.962   0.935
66166W        W38591  42.618  22.397  12.894
66167W        W38592  34.117  28.144   3.356
66168W        W38593   0.222  39.534  11.109
66169W        W38594  28.223   2.049  11.953
66170W        W38595  42.187   1.283  14.583
66171W        W38596  13.152   4.757   2.513
66172W        W38597  22.518  12.611   3.386
66173W        W38598  39.586  10.771  10.623
66174W        W38599  29.412   0.287   4.363
66175W        W38600   8.644  15.040   2.718
66176W        W38601  11.623  39.008   0.471
66177W        W38602  36.682  41.049   2.685
66178W        W38603  32.314  31.427   4.602
66179W        W38604  38.472  28.453  13.067
66180W        W38605  18.227  31.062  14.922
66181W        W38606  23.595  38.143  11.769
66182W        W38607  23.090  24.029  10.672
66183W        W38608  32.419  19.801   2.949
66184W        W38609   4.288  41.247  12.374
66185W        W38610  32.644  28.114   1.377
66186W        W38611  26.260  39.850  11.397
66187W        W38612  30.196  35.851   4.248
66188W        W38613  43.105  15.876   3.214
66189W        W38614  13.148  34.986   3.093
66190W        W38615  26.017  17.642   4.070
66191W        W38616  18.075  12.576   3.893
66192W        W38617   6.777   7.714  12.110
66193W        W38618   4.967  20.385  13.612
66194W        W38619   9.615  33.944  12.488
66195W        W38620   5.603  12.018   4.230
66196W        W38621  25.247  19.392   1.772
66197W        W38622   9.007   7.725  11.369
66198W        W38623  17.964  19.673   0.542
66199W        W38624  38.265  32.822  13.529
66200W        W38625  39.468  24.188  12.983
66201W        W38626  40.404   0.400   0.458
66202W        W38627  30.964  15.900   1.327
66203W        W38628   2.973  28.103  13.975
66204W        W38629  17.153  24.117   1.673
66205W        W38630  41.705  22.076  10.885
66206W        W38631  19.591  29.095  14.775
66207W        W38632  10.273  14.689   3.645
66208W        W38633  12.631  35.315   3.735
66209W        W38634  35.630  31.336   3.325
66210W        W38635  25.099  32.426  14.801
66211W        W38636  44.850  26.670   3.903
66212W        W38637  43.795  19.013   3.710
66213W        W38638  27.459  36.866   0.711
66214W        W38639   9.344  37.463   5.379
66215W        W38640  25.199   1.144   4.134
66216W        W38641  33.783  21.517   4.061
66217W        W38642  30.899  34.830  14.890
66218W        W38643   2.212  10.812   3.643
66219W        W38644  20.741  44.343  13.951
66220W        W38645  32.690   8.214   0.324
66221W        W38646  35.414  12.869   1.101
66222W        W38647  10.944  39.910  13.929
66223W        W38648   6.821  40.855   2.475
66224W        W38649   6.994   1.246   0.027
66225W        W38650  35.000  34.317  11.441
66226W        W38651  21.090  44.528   3.645
66227W        W38652  31.166   8.221   4.150
66228W        W38653  44.354  11.635   3.033
66229W        W38654  26.951  24.223   1.630
66230W        W38655  22.017  41.760   0.420
66231W        W38656  32.023  22.280   1.298
66232W        W38657  19.288  34.633   0.717
66233W        W38658  18.209  15.803  14.292
66234W        W38659  38.801   9.711  10.714
66235W        W38660  13.699   9.703   3.305
66236W        W38661  23.088  18.661  12.885
66237W        W38662   7.133  20.667   3.908
66238W        W38663  40.627  23.113  13.138
66239W        W38664  44.379  19.682  14.833
66240W        W38665   1.259  12.713   3.751
66241W        W38666  43.529  41.471  12.679
66242W        W38667  41.021  42.743   5.546
66243W        W38668   9.687   6.932   3.771
66244W        W38669  31.026  28.239  14.251
66245W        W38670  10.050  27.969  10.688
66246W        W38671  36.322  18.791  12.496
66247W        W38672  42.506   7.733   4.104
66248W        W38673   3.716  13.120   1.425
66249W        W38674  18.992  33.876   4.163
66250W        W38675  25.969  40.236   1.815
66251W        W38676   0.743   5.290   1.439
66252W        W38677  40.557  14.119  14.432
66253W        W38678   2.946  38.537   0.803
66254W        W38679  33.490   0.531   3.362
66255W        W38680  38.586  39.358   4.607
66256W        W38681  14.888  32.480  14.949
66257W        W38682  20.562  22.973  13.537
66258W        W38683  24.940   5.731   1.978
66259W        W38684  31.380  23.619   1.679
66260W        W38685  29.636  15.555   0.977
66261W        W38686   0.402  28.648  11.239
66262W        W38687  14.133  17.206  12.421
66263W        W38688   5.685  10.736   3.721
66264W        W38689  33.851  13.323  13.925
66265W        W38690  33.549   6.976   1.840
66266W        W38691   7.367  43.419  14.692
66267W        W38692   0.425  43.926   1.705
66268W        W38693  36.924  41.884  10.645
66269W        W38694  39.458   3.431  11.370
66270W        W38695  13.154  39.027   3.925
66271W        W38696  25.232  44.003   3.571
66272W        W38697  18.838  11.225  10.767
66273W        W38698  31.088  30.420   2.414
66274W        W38699   2.309  23.092   4.272
66275W        W38700  31.100  12.803   4.615
66276W        W38701  41.941  35.885  10.698
66277W        W38702  36.515  13.762  14.442
66278W        W38703  18.505  25.385   2.047
66279W        W38704  30.090  37.827  14.310
66280W        W38705  27.447  22.245  13.060
66281W        W38706   2.967  18.781   2.096
66282W        W38707  40.956  40.085  12.380
66283W        W38708   1.797  14.593   3.617
66284W        W38709  30.389   1.288   3.324
66285W        W38710  43.279  14.364   0.889
66286W        W38711   9.903  44.933   3.287
66287W        W38712   4.698  13.865   2.975
66288W        W38713  35.491   9.630  13.535
66289W        W38714   9.289  30.366  13.934
66290W        W38715   3.938   1.243   3.475
66291W        W38716  17.338   1.207  13.064
66292W        W38717  27.940   6.842   1.624
66293W        W38718  35.880  28.723  12.023
66294W        W38719  11.620  44.892   3.678
66295W        W38720  32.657  15.861  11.071
66296W        W38721  10.312  22.274  13.598
66297W        W38722  20.582  34.343   0.340
66298W        W38723  24.744   8.180   4.721
66299W        W38724  37.374  28.377  13.970
66300W        W38725  25.619  19.747   1.907
66301W        W38726   3.940  22.492   1.235
66302W        W38727   4.281   8.660   3.800
66303W        W38728   3.375  29.413   1.876
66304W        W38729  40.802   9.440  12.555
66305W        W38730   8.620   6.753  12.927
66306W        W38731  14.754   7.475  10.341
66307W        W38732  17.318  22.393   3.719
66308W        W38733  34.165  30.792   0.449
66309W        W38734  13.234  26.728   1.873
66310W        W38735  29.219  14.858   2.220
66311W        W38736   3.329  36.986   0.337
66312W        W38737  26.593  13.725   1.245
66313W        W38738  11.142  13.038   3.673
66314W        W38739  29.688  37.437   3.112
66315W        W38740  38.972  37.141   3.711
66316W        W38741  22.062   6.142  12.039
66317W        W38742  30.845  15.583   2.385
66318W        W38743  12.934  37.855   3.306
66319W        W38744  17.022  10.297  11.125
66320W        W38745  20.528   4.951  11.050
66321W        W38746   2.793  19.325   0.363
66322W        W38747  35.708   4.166   0.879
66323W        W38748   0.393  42.119  13.475
66324W        W38749  44.067  18.998  11.516
66325W        W38750   0.237  12.317   0.423
66326W        W38751  43.351  21.567  13.878
66327W        W38752  19.830  25.123  12.473
66328W        W38753   4.710  23.870  11.082
66329W        W38754  38.024  18.130   1.851
66330W        W38755  25.552  25.495  14.017
66331W        W38756   5.198  17.550   3.818
66332W        W38757  25.950  25.484  12.688
66333W        W38758  28.948  16.145   0.244
66334W        W38759  13.707  25.131  12.166
66335W        W38760  40.764  12.250   4.094
66336W        W38761  30.294  23.519   0.953
66337W        W38762  15.848  35.513   1.877
66338W        W38763  14.698  13.026  14.790
66339W        W38764  34.828   7.967  10.639
66340W        W38765  12.184  25.982   1.737
66341W        W38766  33.410  34.906  10.708
66342W        W38767  30.882  25.683   2.313
66343W        W38768  38.106  17.877  14.461
66344W        W38769  30.121  41.099   4.755
66345W        W38770  43.663   1.737  13.021
66346W        W38771   7.378  40.557   2.800
66347W        W38772   9.290   4.614   0.343
66348W        W38773  20.291  41.332   4.576
66349W        W38774  14.725  25.129   0.320
66350W        W38775  34.877  11.211   1.419
66351W        W38776  29.071   1.897   3.863
66352W        W38777   4.484  10.372   1.850
66353W        W38778  44.886   8.341   0.062
66354W        W38779  24.576  29.509   2.801
66355W        W38780  28.107   1.402   4.309
66356W        W38781  41.434  43.467   0.467
66357W        W38782  27.463   6.781  11.739
66358W        W38783  35.841   8.533   4.698
66359W        W38784  12.164  27.277  13.454
66360W        W38785  41.947  16.123  11.864
66361W        W38786  27.302  34.948  12.567
66362W        W38787  11.055   3.982  10.685
66363W        W38788  13.678  23.619   0.867
66364W        W38789  40.109   7.410   0.403
66365W        W38790   8.581  29.978   0.414
66366W        W38791  42.315   4.425  14.847
66367W        W38792   1.928  21.976  14.772
66368W        W38793  23.489  38.280   1.803
66369W        W38794  23.624  34.589  12.010
66370W        W38795  30.194  18.397   9.792
66371W        W38796  40.779  12.714   2.399
66372W        W38797  18.649  37.943   2.400
66373W        W38798  44.235  44.640  13.549
66374W        W38799  27.465  40.367   1.885
66375W        W38800  39.350  16.700  13.486
66376W        W38801   2.849  32.081  10.334
66377W        W38802  33.207  31.676   1.319
66378W        W38803   5.765   5.389   4.372
66379W        W38804  37.834  18.151   4.830
66380W        W38805  27.136  11.605   0.173
66381W        W38806  13.844  44.739   4.067
66382W        W38807  20.643   6.231  11.463
66383W        W38808   2.976  39.514  13.470
66384W        W38809   2.982  30.121  13.863
66385W        W38810   8.130  31.176   2.757
66386W        W38811  29.452   6.202   1.254
66387W        W38812   2.887  43.481  12.399
66388W        W38813  23.644  13.168   4.608
66389W        W38814  40.973  31.577  12.556
66390W        W38815  29.865  40.425  13.462
66391W        W38816  24.329  15.262   3.785
66392W        W38817  42.839  21.525   4.112
66393W        W38818  33.043  42.011   0.437
66394W        W38819   5.217   3.676   2.177
66395W        W38820  17.303  12.156   4.202
66396W        W38821  29.333  40.570  11.603
66397W        W38822  39.770  18.085   2.323
66398W        W38823  41.836  20.533   4.534
66399W        W38824  20.750   7.988  12.101
66400W        W38825   0.759  39.461  13.470
66401W        W38826  21.340   5.870   1.113
66402W        W38827  32.697  25.604  11.559
66403W        W38828  12.217   4.638  14.763
66404W        W38829  34.317  15.560  10.588
66405W        W38830  23.802  25.717   1.415
66406W        W38831   5.297  15.250   2.097
66407W        W38832  44.746  40.052  11.141
66408W        W38833  26.505   3.766   2.136
66409W        W38834  34.103  27.556   1.802
66410W        W38835   1.097   2.908  11.109
66411W        W38836   7.306   8.459  12.942
66412W        W38837  40.896  34.866  10.625
66413W        W38838  26.469   6.578   3.601
66414W        W38839  34.801   5.848   3.125
66415W        W38840  35.730  30.616   3.754
66416W        W38841   1.971  13.297   3.537
66417W        W38842   5.908  16.091   3.536
66418W        W38843  18.288   8.862  14.900
66419W        W38844  14.893  15.006   1.173
66420W        W38845  25.472  39.157   1.322
66421W        W38846  31.238   7.574   3.386
66422W        W38847  20.176  40.384   3.647
66423W        W38848  16.117   3.575  13.339
66424W        W38849   1.853  39.964   4.541
66425W        W38850  31.944   2.824   3.654
66426W        W38851  24.045  37.089  14.780
66427W        W38852  10.690  11.696  10.698
66428W        W38853  32.519   3.737   4.490
66429W        W38854   8.058  16.237  10.719
66430W        W38855  31.408  38.372  12.978
66431W        W38856  23.423  39.343   3.303
66432W        W38857   4.334  23.934   3.362
66433W        W38858  33.823  22.694  12.040
66434W        W38859  42.069  19.753  10.147
66435W        W38860   1.781  44.536   1.454
66436W        W38861  19.119  20.430  14.356
66437W        W38862   5.202  19.019  14.804
66438W        W38863   5.192   7.782  13.042
66439W        W38864  35.008  41.936   1.687
66440W        W38865  41.248  24.058   3.158
66441W        W38866  43.358   6.535   0.716
66442W        W38867  25.127   6.908   1.105
66443W        W38868  37.974  29.813  11.106
66444W        W38869  21.126  26.491  13.825
66445W        W38870  30.383   7.820   4.307
66446W        W38871  36.050  29.224  11.949
66447W        W38872  38.997  16.507  14.781
66448W        W38873  43.746  26.017  10.575
66449W        W38874  20.215  43.310   2.871
66450W        W38875  33.830  37.066   0.384
66451W        W38876  40.353  24.427   2.462
66452W        W38877   7.221  23.663  10.716
66453W        W38878   3.460   1.896   2.392
66454W        W38879  32.117   0.314  14.057
66455W        W38880  18.801  31.881  13.323
66456W        W38881  16.180  39.420   1.691
66457W        W38882  24.537  16.850  11.431
66458W        W38883  30.258   5.364  13.884
66459W        W38884   1.219   2.560   3.604
66460W        W38885   6.624  10.904   4.716
66461W        W38886  16.087  39.358  12.089
66462W        W38887  27.403  25.716   0.448
66463W        W38888  41.110   4.641   4.214
66464W        W38889   7.688   8.629   9.689
66465W        W38890  36.018  31.242   0.774
66466W        W38891  22.931   0.813   3.721
66467W        W38892  25.554  22.711   1.752
66468W        W38893  42.067  42.929   2.471
66469W        W38894  30.350  25.470  13.774
66470W        W38895  15.201   8.190  12.758
66471W        W38896  34.958  44.346  14.408
66472W        W38897   4.603  10.830  11.512
66473W        W38898  33.866  23.614   2.475
66474W        W38899  12.428  37.848   3.320
66475W        W38900   4.397  43.008   3.649
66476W        W38901  42.593  19.133  12.863
66477W        W38902  28.864  22.998   1.753
66478W        W38903  27.003  14.331  14.576
66479W        W38904  35.898  31.884  13.924
66480W        W38905  34.596   3.212  14.247
66481W        W38906  25.131  16.569   2.236
66482W        W38907  18.842  40.857   3.663
66483W        W38908  19.633  32.790   4.130
66484W        W38909  13.742  37.688   1.240
66485W        W38910  41.550  12.886  12.366
66486W        W38911  13.716  34.621   3.750
66487W        W38912  24.043  12.775  12.006
66488W        W38913  31.319  33.679  12.067
66489W        W38914  40.335   3.927  14.950
66490W        W38915  38.580   0.448  14.377
66491W        W38916  38.904   8.577   2.439
66492W        W38917  16.768   1.034   0.830
66493W        W38918   2.868  26.687   4.204
66494W        W38919  11.692  19.176  10.731
66495W        W38920   0.028   8.195   2.335
66496W        W38921  24.207  20.167   0.908
66497W        W38922   9.135   7.592  10.862
66498W        W38923   6.375  33.849   1.714
66499W        W38924   8.204  30.346  12.007
66500W        W38925   2.362  15.620   0.494
66501W        W38926   3.804   6.647  12.152
66502W        W38927   3.214  29.224   3.193
66503W        W38928  37.768  34.022   1.661
66504W        W38929  22.725  19.353  10.755
66505W        W38930   0.236  18.931   0.932
66506W        W38931  38.827  25.561  14.130
66507W        W38932  25.965  21.575   1.283
66508W        W38933   6.448  13.434   2.485
66509W        W38934  18.138  24.250  13.470
66510W        W38935  40.337  33.533  10.741
66511W        W38936   2.770  38.872   1.149
66512W        W38937   2.152   1.809   1.762
66513W        W38938  37.118  27.029   4.606
66514W        W38939  14.244  23.992   2.293
66515W        W38940   7.871  41.962  13.920
66516W        W38941  27.416  35.423   3.357
66517W        W38942   7.315  13.395  13.596
66518W        W38943  40.944  16.526   0.893
66519W        W38944  31.992   2.902  10.744
66520W        W38945  38.193   3.619  11.590
66521W        W38946  16.833  18.368   4.214
66522W        W38947  39.081  29.142   3.675
66523W        W38948   1.008  35.663   5.046
66524W        W38949  16.793  33.606  11.963
66525W        W38950  29.605  34.565  11.986
66526W        W38951  33.970   4.387   1.213
66527W        W38952  26.233   4.898  14.731
66528W        W38953  27.299   0.217  13.631
66529W        W38954  21.627  16.250  14.818
66530W        W38955  42.354  12.628  14.897
66531W        W38956  13.989   8.515  12.014
66532W        W38957  41.293  29.676  13.709
66533W        W38958  28.941  18.183   3.756
66534W        W38959  15.119  14.604   2.262
66535W        W38960  42.870  21.832  10.632
66536W        W38961  28.528  42.422  13.758
66537W        W38962   3.829  23.724   3.221
66538W        W38963  11.237  41.378  11.644
66539W        W38964   1.461  21.813  10.627
66540W        W38965   5.878  26.682  12.108
66541W        W38966  15.835  17.287  11.718
66542W        W38967  36.389  15.261   1.460
66543W        W38968  12.679  13.691   1.286
66544W        W38969   9.405  40.829   4.892
66545W        W38970  39.895   3.873   2.170
66546W        W38971  28.351  39.574  11.197
66547W        W38972   1.949  26.972   1.812
66548W        W38973  27.679  17.359  10.533
66549W        W38974   5.001  12.515   5.028
66550W        W38975  28.177  25.711   1.657
66551W        W38976  27.686  36.254   1.406
66552W        W38977  22.158  17.846   0.854
66553W        W38978   5.405  28.980  14.367
66554W        W38979   3.835  28.450  14.037
66555W        W38980  17.189   8.676   2.828
66556W        W38981   8.750  11.059   1.801
66557W        W38982  42.996  41.870   1.543
66558W        W38983  36.499   5.130  10.675
66559W        W38984  23.298  26.037  14.453
66560W        W38985  29.676  17.240   4.896
66561W        W38986  15.849  36.322  11.170
66562W        W38987  21.714  10.542  11.645
66563W        W38988  42.822  27.112   4.586
66564W        W38989  42.424  17.015  12.837
66565W        W38990  42.905   5.841  11.876
66566W        W38991  28.187  35.220  12.409
66567W        W38992  29.168  34.020   0.984
66568W        W38993  15.209  38.124   0.735
66569W        W38994   6.880  19.356  14.934
66570W        W38995  29.380   3.325   1.778
66571W        W38996  19.573  15.078   4.260
66572W        W38997  32.844  20.950  10.813
66573W        W38998  40.915  30.905  10.397
66574W        W38999   3.708  36.877   4.651
66575W        W39000  40.749  25.097   3.822
66576W        W39001  27.006  20.451   4.803
66577W        W39002  28.075  40.972  10.581
66578W        W39003  18.299  36.725   0.425
66579W        W39004  37.864  10.123   1.879
66580W        W39005  12.225  16.876  10.688
66581W        W39006  37.491   6.655   4.631
66582W        W39007  35.926   0.903  12.380
66583W        W39008  28.707  17.174   3.640
66584W        W39009  32.925  16.148  13.833
66585W        W39010  21.547  12.693   2.346
66586W        W39011  39.194  25.757  12.689
66587W        W39012   7.177  34.190  13.307
66588W        W39013  12.196   0.381   1.681
66589W        W39014  44.751   1.133  12.947
66590W        W39015   6.250  18.615   4.085
66591W        W39016   7.382  14.279   0.369
66592W        W39017  10.386  44.531   2.622
66593W        W39018  22.225  38.441  13.929
66594W        W39019   6.722  40.916  10.726
66595W        W39020  25.651   9.864  13.838
66596W        W39021   6.377  34.332   3.798
66597W        W39022  34.399  34.114  11.921
66598W        W39023   3.721  19.279   2.133
66599W        W39024  29.549  27.391   3.741
66600W        W39025  34.454  36.429  14.497
66601W        W39026  15.171  36.127   0.859
66602W        W39027   4.930  24.134  14.759
66603W        W39028  42.715   8.587   4.526
66604W        W39029  13.321  15.127   0.170
66605W        W39030  34.077   6.313  12.869
66606W        W39031  28.148  21.792   3.157
66607W        W39032  36.020  23.614  11.579
66608W        W39033   7.111  42.452   0.915
66609W        W39034  24.779  29.673   2.256
66610W        W39035  31.287   1.439   3.704
66611W        W39036  21.733  43.369  11.231
66612W        W39037  10.304  20.464   1.387
66613W        W39038  38.411   7.986   1.847
66614W        W39039  37.816   6.025   0.674
66615W        W39040  41.267  44.894   0.828
66616W        W39041   6.714  23.538   4.223
66617W        W39042  34.715  30.342   3.822
66618W        W39043  17.722  33.510   2.284
66619W        W39044  17.199  29.891  13.825
66620W        W39045  27.749  17.644   2.146
66621W        W39046  44.818  26.640  14.848
66622W        W39047   2.761  17.025   2.275
66623W        W39048  25.009   9.762  13.260
66624W        W39049  44.147  16.583  14.902
66625W        W39050  19.451   4.708   5.109
66626W        W39051  29.640  11.432   1.929
66627W        W39052  10.338  15.271  14.922
66628W        W39053  25.391  38.216  13.838
66629W        W39054  12.164  42.772   1.241
66630W        W39055   7.901  22.000  10.218
66631W        W39056  29.671  13.886   4.177
66632W        W39057  34.340   5.784   4.416
66633W        W39058  33.912  12.215  13.083
66634W        W39059   8.241  25.226  11.192
66635W        W39060   4.358  24.410   4.236
66636W        W39061  38.954  22.574  11.615
66637W        W39062  20.980  34.102  14.803
66638W        W39063  28.600  30.180  10.107
66639W        W39064  19.320   0.903   4.143
66640W        W39065  37.564   6.210  13.822
66641W        W39066  19.786  30.981  14.887
66642W        W39067  30.120   3.742   1.718
66643W        W39068  18.353  16.624  13.865
66644W        W39069  34.260  35.936   2.775
66645W        W39070  17.835  40.489   2.228
66646W        W39071  20.709   5.727   4.606
66647W        W39072  17.422  21.096  13.722
66648W        W39073   4.014   8.362  12.906
66649W        W39074   5.261  31.066   3.459
66650W        W39075  10.039   2.038   3.994
66651W        W39076  19.709  33.634   3.710
66652W        W39077  23.792  41.311   0.177
66653W        W39078  43.939   8.884  10.866
66654W        W39079  37.482  43.776   2.741
66655W        W39080  16.920   4.908  14.266
66656W        W39081   6.039  41.982  13.529
66657W        W39082  25.341  33.514  10.596
66658W        W39083   5.683  36.153   5.489
66659W        W39084  12.349   9.898   4.563
66660W        W39085  27.557  27.709   3.654
66661W        W39086   5.989  13.753  11.121
66662W        W39087  38.546  36.783  12.910
66663W        W39088   3.455  32.773  14.463
66664W        W39089  25.021  16.705   0.782
66665W        W39090  23.353  33.627  12.483
66666W        W39091  15.048  14.910   4.551
66667W        W39092  18.008   8.298  12.161
66668W        W39093  20.780  31.075  13.878
66669W        W39094  24.203   6.204   5.171
66670W        W39095  19.510  23.092   2.031
66671W        W39096  31.888  14.643   3.381
66672W        W39097   3.262  32.911  11.911
66673W        W39098  18.367  27.013   4.645
66674W        W39099  18.999  30.973  12.861
66675W        W39100  23.343  32.932   4.082
66676W        W39101  16.738  38.458  14.881
66677W        W39102  15.031  32.147   2.595
66678W        W39103   8.548  17.117   0.834
66679W        W39104  28.960  17.507   4.072
66680W        W39105  14.308  19.248  11.220
66681W        W39106  11.803  42.978   3.719
66682W        W39107  11.685   8.780  10.185
66683W        W39108  44.903  31.599  11.444
66684W        W39109   0.198  19.105  12.524
66685W        W39110  21.721   0.306   0.745
66686W        W39111   4.808  30.029  14.435
66687W        W39112  19.559  15.301   3.344
66688W        W39113  20.579  15.047   4.277
66689W        W39114  32.153  17.053  11.194
66690W        W39115  32.879  37.293   4.154
66691W        W39116   0.854  18.337   3.665
66692W        W39117  26.869   7.788   4.094
66693W        W39118  34.856  22.018   4.556
66694W        W39119   7.081  13.373   1.098
66695W        W39120  12.787  25.151   2.069
66696W        W39121  24.714  31.098  13.026
66697W        W39122  38.499  29.593   4.120
66698W        W39123  19.073  42.083  10.707
66699W        W39124  12.183  16.768   0.903
66700W        W39125  10.766  31.886   0.440
66701W        W39126  13.313   6.374  10.786
66702W        W39127  32.080  17.545   1.465
66703W        W39128  34.409  40.575  11.053
66704W        W39129  26.365   9.325   1.107
66705W        W39130  34.911  26.064   2.296
66706W        W39131  24.292   2.564   4.122
66707W        W39132  16.288  38.349   2.261
66708W        W39133  44.839   0.389   2.114
66709W        W39134  21.896  23.261   2.407
66710W        W39135  24.098  39.322   1.190
66711W        W39136  27.171  39.378   4.151
66712W        W39137  25.989  26.614  13.529
66713W        W39138  16.690  34.621  11.035
66714W        W39139   1.022  31.791   4.573
66715W        W39140  29.880  15.023  14.873
66716W        W39141  33.139  26.773  11.654
66717W        W39142   9.677  31.422  10.542
66718W        W39143  15.755   6.079   3.282
66719W        W39144  29.165  12.959   1.802
66720W        W39145  30.072  24.116  13.020
66721W        W39146   8.249  24.675   3.503
66722W        W39147  14.274  19.557   3.684
66723W        W39148  37.459  41.328   2.650
66724W        W39149  30.895   5.446  10.575
66725W        W39150  38.097   5.367   3.152
66726W        W39151   7.268  26.502   0.586
66727W        W39152  44.792  38.862   0.192
66728W        W39153  10.308  38.512  12.603
66729W        W39154  18.266  24.685   2.366
66730W        W39155   5.242   9.899   2.847
66731W        W39156  31.614   4.951   1.816
66732W        W39157   0.383   0.232   2.763
66733W        W39158  43.272   9.411   1.358
66734W        W39159  43.991  26.524   2.949
66735W        W39160  44.514   5.145   1.765
66736W        W39161  28.803   3.438  12.384
66737W        W39162  18.430   4.463  12.021
66738W        W39163  18.577   5.256  12.491
66739W        W39164  25.474  39.742   4.567
66740W        W39165  26.201  30.701   0.828
66741W        W39166   0.390  34.976  12.010
66742W        W39167  28.684  23.188  14.511
66743W        W39168  21.545  13.191   1.321
66744W        W39169  22.336  33.096   0.536
66745W        W39170  31.534  14.159   1.469
66746W        W39171  33.449   0.855   0.940
66747W        W39172   9.192  15.676   3.284
66748W        W39173  24.144  18.259  10.977
66749W        W39174  27.795  32.841  13.452
66750W        W39175  33.161  16.106  14.288
66751W        W39176  20.612  39.905   2.429
66752W        W39177   2.344  26.998   4.622
66753W        W39178  28.455   0.821  12.478
66754W        W39179  33.599  10.758   2.175
66755W        W39180   8.488   6.140   2.554
66756W        W39181  18.612  43.242   0.422
66757W        W39182  42.487  12.957  14.487
66758W        W39183  21.506  34.147   0.744
66759W        W39184  40.061  17.539  10.847
66760W        W39185  22.661  12.154  10.880
66761W        W39186  20.048  37.678   2.180
66762W        W39187  42.876  15.083  12.497
66763W        W39188  10.877   8.354  10.997
66764W        W39189  31.211   2.468   3.708
66765W        W39190  19.144  37.908  13.129
66766W        W39191  10.673   3.779   4.653
66767W        W39192  30.951  39.970   3.886
66768W        W39193  36.571  33.817   0.174
66769W        W39194  39.102  38.293   0.568
66770W        W39195  26.743  33.969  12.300
66771W        W39196  35.491  38.404   3.707
66772W        W39197  25.653   8.501  11.544
66773W        W39198  23.201  33.408   4.180
66774W        W39199  34.158  42.439  14.870
66775W        W39200  32.061  13.816  13.040
66776W        W39201  44.946   9.805   1.932
66777W        W39202  23.041  16.023   1.483
66778W        W39203  30.487  44.290   0.295
66779W        W39204   8.168  10.849   3.464
66780W        W39205  28.991   2.219   0.707
66781W        W39206  25.697   1.295   2.297
66782W        W39207  29.489  44.234   0.459
66783W        W39208  12.644  24.201   9.710
66784W        W39209   2.717  41.530  12.174
66785W        W39210  16.267   7.588   0.423
66786W        W39211  33.951  19.466   0.487
66787W        W39212   4.679  34.905  11.373
66788W        W39213  37.634  33.032   4.178
66789W        W39214  12.283  33.163   2.598
66790W        W39215   2.835  34.034   2.599
66791W        W39216   2.437  16.136   0.431
66792W        W39217   3.327  41.931   4.157
66793W        W39218  14.191  17.892   4.129
66794W        W39219  39.787  38.417  11.876
66795W        W39220  26.581  35.013   0.143
66796W        W39221  15.581  35.616  14.433
66797W        W39222  19.946   4.019  12.947
66798W        W39223  34.421  41.590  10.620
66799W        W39224  24.452  23.708   1.582
66800W        W39225  19.422  23.791   1.457
66801W        W39226  16.033  40.159  12.611
66802W        W39227  44.263  30.873   4.605
66803W        W39228  42.358   2.565  12.787
66804W        W39229   5.494   8.349   4.893
66805W        W39230   0.358  38.328  11.985
66806W        W39231  12.721  43.798   1.763
66807W        W39232  41.434   3.932  14.451
66808W        W39233  16.999  34.871  11.417
66809W        W39234  42.835  26.410  11.583
66810W        W39235  37.125  20.655   0.998
66811W        W39236  44.767  19.534   1.217
66812W        W39237  22.429  35.941  10.525
66813W        W39238  10.132   4.619   3.803
66814W        W39239  33.392  30.192  11.910
66815W        W39240   6.924   2.494   3.786
66816W        W39241  40.368   1.483  13.639
66817W        W39242  43.802  27.667   1.332
66818W        W39243   8.682  17.266  14.454
66819W        W39244  33.559  36.528  12.120
66820W        W39245  44.707  26.227   3.339
66821W        W39246  10.582   7.416   4.106
66822W        W39247  19.475  22.214   1.992
66823W        W39248   3.092  25.523  14.964
66824W        W39249  43.962  42.714  13.476
66825W        W39250  26.160  41.937   1.331
66826W        W39251   4.855  10.103   0.464
66827W        W39252  18.619  18.095  13.363
66828W        W39253  39.833  10.781  11.078
66829W        W39254  24.709  32.475  13.453
66830W        W39255  11.123  41.488  10.749
66831W        W39256  31.659  27.638   1.793
66832W        W39257  21.546  41.614   3.094
66833W        W39258  13.753  38.081   2.354
66834W        W39259  23.450  30.506  10.683
66835W        W39260  24.842  12.246  14.537
66836W        W39261  39.924  25.589  13.560
66837W        W39262  14.845  10.402  13.251
66838W        W39263  40.032  35.918   3.899
66839W        W39264  22.079  32.804   2.089
66840W        W39265  36.967  31.644  13.392
66841W        W39266   7.000  37.574   4.199
66842W        W39267  22.945  34.395   2.339
66843W        W39268  31.899  21.671  12.323
66844W        W39269  11.157   3.963  11.184
66845W        W39270   6.311  20.550   2.658
66846W        W39271  23.034  28.660  12.891
66847W        W39272   3.210  11.079   3.633
66848W        W39273   3.359  13.767  14.926
66849W        W39274  43.420  35.477   1.750
66850W        W39275  19.085  16.815   4.108
66851W        W39276  28.194   9.832   3.718
66852W        W39277  32.252  38.748   3.127
66853W        W39278  14.068   0.968  13.810
66854W        W39279  30.200  29.348   1.197
66855W        W39280  11.274  38.437   2.258
66856W        W39281  11.094   5.762  10.630
66857W        W39282  10.860  15.089   0.790
66858W        W39283  33.687   2.178   1.057
66859W        W39284  33.346  28.617   4.143
66860W        W39285  39.369   3.551  14.296
66861W        W39286   6.919  22.669   0.756
66862W        W39287  35.147  29.998   0.814
66863W        W39288  18.216   1.631  12.074
66864W        W39289  41.278  30.818   3.298
66865W        W39290  26.627  24.871  14.801
66866W        W39291  18.651   5.791  14.055
66867W        W39292  33.140  32.935  12.910
66868W        W39293  33.428  19.620  12.872
66869W        W39294  26.063  39.911  12.302
66870W        W39295  15.152   2.402   4.682
66871W        W39296  29.857  15.078  11.152
66872W        W39297  17.789  31.056  11.069
66873W        W39298  11.219  42.334   3.227
66874W        W39299  17.477  37.305   4.569
66875W        W39300  25.729  11.291   3.325
66876W        W39301   9.205  36.696   2.485
66877W        W39302  22.900  31.374  10.764
66878W        W39303  36.469  36.850   0.698
66879W        W39304   1.726  44.991   4.775
66880W        W39305  36.034  38.886  13.508
66881W        W39306  18.609  10.261   1.013
66882W        W39307   5.388  24.725   0.806
66883W        W39308   5.764  23.924  11.618
66884W        W39309  15.104  35.825   3.737
66885W        W39310  42.442   0.835   4.566
66886W        W39311  25.738   2.890  13.615
66887W        W39312  10.167  25.530   2.349
66888W        W39313   7.295   7.690   4.652
66889W        W39314  17.701  42.832   4.407
66890W        W39315  25.816   1.780   3.693
66891W        W39316   0.528  21.632  14.438
66892W        W39317  22.066  22.758   4.393
66893W        W39318  10.472  28.238  13.053
66894W        W39319   4.956  36.003  14.145
66895W        W39320  37.918  26.623  14.322
66896W        W39321   6.881   7.425   2.847
66897W        W39322  41.254  35.463   4.508
66898W        W39323   1.813  44.498  12.527
66899W        W39324  33.753  19.266   4.734
66900W        W39325  21.034   3.980   2.359
66901W        W39326  41.797  19.908   0.160
66902W        W39327  26.630  14.110   0.906
66903W        W39328  17.986  10.177   3.224
66904W        W39329  25.865  31.536  14.896
66905W        W39330  31.099  41.087  14.991
66906W        W39331  37.105  17.989   3.917
66907W        W39332  11.747  41.351  14.913
66908W        W39333   1.734   1.273  12.968
66909W        W39334  11.548  33.109   3.353
66910W        W39335  31.767  16.286   5.142
66911W        W39336  26.567  39.405   4.812
66912W        W39337  34.626  39.407   3.171
66913W        W39338   8.364   9.718   0.740
66914W        W39339  38.892  17.639  11.706
66915W        W39340  35.319  25.772  13.453
66916W        W39341  21.029  19.634   0.938
66917W        W39342  17.558  35.639  13.490
66918W        W39343  18.972  18.443  11.561
66919W        W39344  13.713   4.332  14.513
66920W        W39345  21.769   6.260  12.447
66921W        W39346  15.976  10.701   4.435
66922W        W39347   9.099  19.837   4.751
66923W        W39348  33.343  33.863  14.460
66924W        W39349  41.169   0.799   3.296
66925W        W39350  34.907   7.953  14.877
66926W        W39351  27.089   1.862  13.602
66927W        W39352  38.519  25.962  11.153
66928W        W39353  27.883   0.528  10.280
66929W        W39354  19.752   1.793  12.483
66930W        W39355  17.698  16.749  12.077
66931W        W39356  38.876  25.575   4.492
66932W        W39357  34.077  43.553  11.348
66933W        W39358  18.821  35.815  11.653
66934W        W39359  29.060  20.056  11.408
66935W        W39360  28.179  18.591  13.289
66936W        W39361   0.422   3.305  11.418
66937W        W39362  14.529  28.891  11.546
66938W        W39363  38.029  27.431  10.678
66939W        W39364  12.847  17.070  11.598
66940W        W39365  14.716  28.620   0.764
66941W        W39366  11.552  28.676   0.202
66942W        W39367  39.535   0.834   5.090
66943W        W39368  21.083  15.612   4.627
66944W        W39369   9.367  27.196   3.623
66945W        W39370  15.288  40.807   1.824
66946W        W39371  12.153  18.567   1.474
66947W        W39372  25.027  31.512  14.243
66948W        W39373  40.428  21.338   3.734
66949W        W39374  35.951  38.331   2.175
66950W        W39375  43.867   5.829   4.541
66951W        W39376  42.466  22.201  12.456
66952W        W39377  30.733   4.689   3.051
66953W        W39378  33.838  14.370   4.105
66954W        W39379  17.699  23.762   1.018
66955W        W39380  44.838   5.408  11.153
66956W        W39381  35.435   4.037   2.662
66957W        W39382  25.975  34.502  11.351
66958W        W39383  33.639  36.794  10.719
66959W        W39384  39.123  27.884  13.349
66960W        W39385   7.965  39.515  13.289
66961W        W39386  27.927  30.637  10.552
66962W        W39387  11.338  39.261   3.377
66963W        W39388  21.009  14.882  11.394
66964W        W39389  41.435  40.549  13.031
66965W        W39390  17.553  16.077   4.803
66966W        W39391  26.056  20.989  14.607
66967W        W39392  18.672  41.766   1.491
66968W        W39393  31.129  13.223   1.170
66969W        W39394  31.086  19.241  10.334
66970W        W39395   6.714  41.887   4.348
66971W        W39396  44.710  17.553   4.028
66972W        W39397  19.149   7.839   2.831
66973W        W39398  36.002  35.998   3.259
66974W        W39399   4.144  24.808  13.330
66975W        W39400  37.906  43.394   3.817
66976W        W39401  40.997  43.839   4.624
66977W        W39402  31.876   6.315   1.847
66978W        W39403  28.171  15.177  10.453
66979W        W39404  34.693  23.681  13.018
66980W        W39405  28.944   0.329   1.389
66981W        W39406  42.873  20.682   4.640
66982W        W39407  38.159   7.616  12.552
66983W        W39408  11.219   5.149  13.001
66984W        W39409   3.867  40.304  10.414
66985W        W39410   2.662  30.614  11.672
66986W        W39411   9.856  21.059   1.709
66987W        W39412  33.172  31.812   1.868
66988W        W39413   8.054  12.218  10.633
66989W        W39414  39.505  36.018   2.827
66990W        W39415   3.946  13.348   2.354
66991W        W39416  16.341  20.200   2.495
66992W        W39417  12.930  34.120  13.145
66993W        W39418  27.397   2.562  13.894
66994W        W39419  12.323  15.640   4.628
66995W        W39420  34.883  12.530  14.579
66996W        W39421  40.510   2.949  14.902
66997W        W39422  22.250  25.000  13.072
66998W        W39423  41.275   4.844   3.709
66999W        W39424  23.745  32.060  13.467
67000W        W39425  18.327  11.206   0.278
67001W        W39426  33.538  35.173  12.075
67002W        W39427  44.017  38.301   4.536
67003W        W39428   6.664  27.149   4.126
67004W        W39429   1.641  26.597   5.054
67005W        W39430   5.861  26.800   1.268
67006W        W39431   2.195  39.667   0.694
67007W        W39432   0.865   0.858   3.119
67008W        W39433  41.028  27.208  12.162
67009W        W39434  40.421   3.444  12.028
67010W        W39435  39.031   6.858   3.187
67011W        W39436  24.607   3.878  11.669
67012W        W39437  41.307  21.819  13.881
67013W        W39438  34.867  33.028  13.460
67014W        W39439  26.210  24.696   3.168
67015W        W39440  44.324   9.059  13.031
67016W        W39441   9.261  35.261   1.419
67017W        W39442  28.717  12.234  12.642
67018W        W39443  23.043  26.450   2.925
67019W        W39444  41.657  37.883   4.302
67020W        W39445  24.034  13.972  11.611
67021W        W39446  30.135  44.441  14.874
67022W        W39447   3.198  33.964  13.767
67023W        W39448   8.458  10.175   0.464
67024W        W39449   9.146  13.782  14.390
67025W        W39450  33.703   8.179   1.172
67026W        W39451  27.978  35.393  10.404
67027W        W39452  10.316  41.347   4.262
67028W        W39453   4.554  41.835   3.233
67029W        W39454  33.694  27.391   1.492
67030W        W39455  36.355  11.792   2.785
67031W        W39456  27.335  36.180   0.271
67032W        W39457  32.127   8.370  12.916
67033W        W39458  36.167  42.929   4.194
67034W        W39459  23.113  27.262  14.340
67035W        W39460  42.507  41.907  10.843
67036W        W39461   9.919  27.917  13.878
67037W        W39462  14.076  32.910  14.569
67038W        W39463   1.856   3.528   0.562
67039W        W39464  27.126  14.362   0.962
67040W        W39465  35.906   3.323   2.827
67041W        W39466   5.532   3.496   5.080
67042W        W39467  19.739  14.780  13.901
67043W        W39468  41.883  14.777   4.219
67044W        W39469  19.755   6.870  10.647
67045W        W39470   1.695  42.956   0.841
67046W        W39471  19.636  29.448   0.742
67047W        W39472  23.689  44.400  14.822
67048W        W39473  32.987  23.249   4.618
67049W        W39474   3.275   5.490  12.612
67050W        W39475  28.454  26.119   1.418
67051W        W39476  12.189  22.815  13.749
67052W        W39477  17.284  16.308  11.979
67053W        W39478  27.598  15.132   3.574
67054W        W39479  14.776  26.673   4.513
67055W        W39480  12.481  42.982  12.558
67056W        W39481  34.555  21.588  12.273
67057W        W39482  18.698  23.315  13.501
67058W        W39483   0.899  21.616  14.809
67059W        W39484  13.759  21.154   4.428
67060W        W39485   0.953  35.677  14.538
67061W        W39486   8.295  38.844  11.465
67062W        W39487  20.012  23.559   2.081
67063W        W39488  17.063   5.381   2.419
67064W        W39489  14.024  13.278   3.380
67065W        W39490  30.453   3.974  12.903
67066W        W39491  20.926  15.323  11.156
67067W        W39492  36.810  42.791  13.011
67068W        W39493  44.430   8.180   3.596
67069W        W39494  41.991   1.073  12.079
67070W        W39495  33.122  13.237   1.628
67071W        W39496  19.988   5.831  14.782
67072W        W39497  37.302  40.397  13.130
67073W        W39498   2.941  43.827   1.367
67074W        W39499  43.637  29.997   4.174
67075W        W39500  20.721  37.496  13.396
67076W        W39501  38.838  12.074  10.895
67077W        W39502  42.706  32.610   0.282
67078W        W39503  16.985   2.386   2.852
67079W        W39504  35.488  35.019  14.041
67080W        W39505   6.776  26.203   4.955
67081W        W39506  37.587  41.931   4.150
67082W        W39507  18.553  28.059   1.166
67083W        W39508  25.133  35.534  14.450
67084W        W39509   9.426  23.613  12.928
67085W        W39510  35.249  34.199   3.675
67086W        W39511  20.005  33.517   2.078
67087W        W39512  28.305  37.345  13.707
67088W        W39513  26.258  43.329   2.923
67089W        W39514   8.840  25.041  11.992
67090W        W39515  42.113  31.338  11.533
67091W        W39516   5.972  34.437   1.616
67092W        W39517  30.786   0.708  11.530
67093W        W39518  42.344  25.208  11.529
67094W        W39519  26.225   5.140   4.688
67095W        W39520  30.038  21.105   1.298
67096W        W39521  38.861  11.141  12.661
67097W        W39522   0.409  34.562  14.932
67098W        W39523  38.402  32.944   3.216
67099W        W39524  10.309  18.595   4.086
67100W        W39525  42.178  35.344   0.400
67101W        W39526   6.814  14.261   1.037
67102W        W39527  19.229  13.213   1.494
67103W        W39528  18.594  44.390  10.643
67104W        W39529  21.082  28.976  13.034
67105W        W39530  24.988  34.556   2.257
67106W        W39531  14.088  36.951   3.794
67107W        W39532   4.363  38.576   5.022
67108W        W39533   5.099  25.027  14.492
67109W        W39534   6.980  13.417   2.625
67110W        W39535  40.282   7.970  14.145
67111W        W39536   1.581  20.582   3.173
67112W        W39537   7.344   1.656   0.891
67113W        W39538  31.989  29.526   0.932
67114W        W39539  21.293  11.696  10.996
67115W        W39540  37.424   8.784   4.288
67116W        W39541  15.124  32.983  13.724
67117W        W39542   7.303  34.872   1.931
67118W        W39543  22.449  27.064   4.442
67119W        W39544   4.427  24.288  11.090
67120W        W39545  43.058  32.294   2.317
67121W        W39546  23.805   0.016   3.857
67122W        W39547  30.880  13.089   3.184
67123W        W39548  26.682  38.320  13.709
67124W        W39549   5.630  20.589   0.797
67125W        W39550  25.490   8.777  10.463
67126W        W39551  19.237  42.243  13.253
67127W        W39552  36.546   0.395   0.348
67128W        W39553  17.279  27.304  10.049
67129W        W39554  36.077  24.017  12.889
67130W        W39555   3.464   6.235  11.991
67131W        W39556  19.044  15.576   1.825
67132W        W39557   1.825   0.921   3.436
67133W        W39558  17.740  39.260  11.212
67134W        W39559  20.816   0.056  14.478
67135W        W39560  21.582  33.953   4.583
67136W        W39561   9.390  11.177  13.336
67137W        W39562  40.405  11.632  14.755
67138W        W39563  26.466  39.837  10.707
67139W        W39564  31.498   6.789  12.546
67140W        W39565  43.789  21.529   0.562
67141W        W39566  19.860  22.511   2.806
67142W        W39567  15.988  14.508   4.642
67143W        W39568   2.568  19.242  12.588
67144W        W39569  14.590  10.023  13.488
67145W        W39570  11.668  19.649   2.567
67146W        W39571   9.931  36.332   0.868
67147W        W39572  23.502  10.252   2.674
67148W        W39573  10.413  16.850   0.784
67149W        W39574  24.799  17.504   1.379
67150W        W39575   0.856  15.384   9.894
67151W        W39576  11.761  24.113  10.060
67152W        W39577  20.350  23.488  12.967
67153W        W39578  25.985  16.944  11.995
67154W        W39579  16.757  21.795  13.338
67155W        W39580  21.087  10.827  10.537
67156W        W39581  22.526   4.452   4.303
67157W        W39582  23.196  31.846  14.300
67158W        W39583  43.510  28.740  13.867
67159W        W39584  11.760  32.585  12.627
67160W        W39585   4.199  24.092  10.684
67161W        W39586  21.277  43.315  11.448
67162W        W39587   1.189  29.052  11.187
67163W        W39588  38.897  35.887   0.744
67164W        W39589  44.323   6.197   2.812
67165W        W39590  19.272   8.761  14.628
67166W        W39591  13.557  12.539   3.174
67167W        W39592  13.877  20.758   3.288
67168W        W39593   4.219  10.786   0.042
67169W        W39594   4.602  13.267  13.379
67170W        W39595  13.443  22.007   3.596
67171W        W39596  11.649  33.128  14.407
67172W        W39597  42.717  43.554  11.215
67173W        W39598  25.452   5.164  14.063
67174W        W39599  17.258  13.689  14.776
67175W        W39600  24.258  35.547  12.029
67176W        W39601   2.813  37.832  13.518
67177W        W39602  30.417  27.565  14.890
67178W        W39603  33.233  10.640  14.901
67179W        W39604  14.703  17.750  11.712
67180W        W39605   5.809  43.732   3.340
67181W        W39606  42.370  43.777   3.807
67182W        W39607   8.658  16.770  14.268
67183W        W39608  22.070   0.757   4.160
67184W        W39609   6.739  39.051   3.863
67185W        W39610  18.062  11.616   0.480
67186W        W39611  22.667  29.468  12.494
67187W        W39612   6.476  30.469  13.879
67188W        W39613  15.599  16.751  13.970
67189W        W39614  39.795  12.506  11.898
67190W        W39615  10.040  10.015   3.214
67191W        W39616  41.669  10.692  14.012
67192W        W39617  24.181   9.069   9.660
67193W        W39618  17.277  38.789   4.662
67194W        W39619   4.365  38.460  12.045
67195W        W39620  43.946  26.595   3.463
67196W        W39621  31.518  25.489  13.907
67197W        W39622  43.922  44.954   4.569
67198W        W39623   0.236   8.643   3.327
67199W        W39624   6.509  22.474   4.082
67200W        W39625   2.598  12.937   1.960
67201W        W39626  14.387  15.714   4.557
67202W        W39627  40.734  41.300   3.467
67203W        W39628   8.758  28.533   1.019
67204W        W39629  19.502  39.089  14.930
67205W        W39630  23.374   9.385  11.786
67206W        W39631  30.132  29.938   3.412
67207W        W39632   2.656  44.970  12.497
67208W        W39633  24.040  23.990  13.294
67209W        W39634  24.279  34.504   1.838
67210W        W39635  43.903  22.620   2.192
67211W        W39636  41.293  10.193   3.761
67212W        W39637  16.459  34.022  11.871
67213W        W39638  44.076  29.613  11.506
67214W        W39639  41.620  27.150  10.903
67215W        W39640  34.865  37.667   0.026
67216W        W39641  26.182   4.308   4.209
67217W        W39642  17.669  27.736  12.305
67218W        W39643  43.249   5.146  11.435
67219W        W39644  35.970  41.975   4.660
67220W        W39645  23.059  44.305   3.343
67221W        W39646   5.610  42.141   4.574
67222W        W39647  11.194  12.591  11.895
67223W        W39648  21.749   3.023  10.549
67224W        W39649  22.067  19.977  12.546
67225W        W39650  14.591  13.776  12.443
67226W        W39651   3.457   3.866   5.107
67227W        W39652  27.163   2.172  14.536
67228W        W39653  12.648  29.131  12.644
67229W        W39654  41.348   3.793   0.972
67230W        W39655  11.783  41.967   1.297
67231W        W39656  21.736  35.105   0.953
67232W        W39657  12.641  26.150   0.950
67233W        W39658  23.762  40.793   0.930
67234W        W39659  29.500  39.808   1.289
67235W        W39660  37.353  35.068  13.859
67236W        W39661  18.123  16.248   4.095
67237W        W39662  26.487  27.475   0.376
67238W        W39663  26.593  26.762   3.653
67239W        W39664  37.352  40.561   3.277
67240W        W39665  10.029  24.120   2.381
67241W        W39666  30.619  28.439  14.515
67242W        W39667  40.754  16.826   4.770
67243W        W39668  34.156  27.596   4.660
67244W        W39669  38.056   1.064   0.869
67245W        W39670   0.692  15.664  14.027
67246W        W39671  29.603  12.593  11.001
67247W        W39672  22.720  14.262  11.637
67248W        W39673  19.528  32.941   3.308
67249W        W39674  31.209  22.909   2.280
67250W        W39675   3.767  29.993  12.432
67251W        W39676   7.855  17.671   0.935
67252W        W39677   5.311  37.281  13.633
67253W        W39678   3.904   4.248  10.568
67254W        W39679   3.205  10.547   3.598
67255W        W39680  36.230  22.144  11.413
67256W        W39681   2.897  21.784  10.473
67257W        W39682  39.101  22.035  12.211
67258W        W39683  40.383  33.756   5.264
67259W        W39684  26.572  19.311  14.374
67260W        W39685  33.488  12.787  14.636
67261W        W39686  17.751  11.283   4.145
67262W        W39687  11.853   6.772   0.533
67263W        W39688  19.530  18.573   0.938
67264W        W39689  29.080  13.771   1.651
67265W        W39690  38.925  42.831  14.078
67266W        W39691  15.129  38.131  14.974
67267W        W39692  18.084  29.437  12.042
67268W        W39693   4.798  39.924  11.562
67269W        W39694  12.222  10.886  14.317
67270W        W39695  21.252  25.921   1.263
67271W        W39696   4.166  25.867  13.549
67272W        W39697  37.250  32.734  11.619
67273W        W39698  19.718   9.156   2.149
67274W        W39699  29.888  32.424  12.411
67275W        W39700  22.575  38.361   1.076
67276W        W39701  32.562  36.264  11.448
67277W        W39702  12.752   4.117   4.142
67278W        W39703   2.487   1.847  13.054
67279W        W39704  11.824  13.329  12.927
67280W        W39705  41.940  36.566  12.938
67281W        W39706  10.874  28.455  12.765
67282W        W39707   0.917  24.928   3.204
67283W        W39708   8.178  39.976  13.332
67284W        W39709  10.864  32.991  10.932
67285W        W39710   7.565  37.296   0.335
67286W        W39711  33.945  31.899   2.598
67287W        W39712  13.886   3.884  11.285
67288W        W39713  37.530  27.453  10.713
67289W        W39714  15.818   1.892  13.082
67290W        W39715  21.820  30.431   1.338
67291W        W39716   9.475  22.218  14.083
67292W        W39717  26.688  35.748   1.745
67293W        W39718   8.444  22.548   1.480
67294W        W39719  40.353  28.394  10.811
67295W        W39720   8.748   4.216  11.525
67296W        W39721  37.557  31.035  14.899
67297W        W39722  16.296  36.121   1.915
67298W        W39723  29.013  11.683  13.521
67299W        W39724  33.721   5.807   2.216
67300W        W39725  37.787   4.748   0.381
67301W        W39726   8.748  35.300  10.230
67302W        W39727  28.461  30.967   4.236
67303W        W39728   3.316  37.358   2.174
67304W        W39729   4.727  34.084  14.960
67305W        W39730  21.099  28.040   4.104
67306W        W39731  40.511  21.690   2.387
67307W        W39732  34.095  16.237   4.374
67308W        W39733  20.914  20.044  13.805
67309W        W39734   9.316   0.397   4.003
67310W        W39735  15.994  33.080  12.023
67311W        W39736  18.362  44.624   3.228
67312W        W39737  10.630  28.525  10.429
67313W        W39738   6.058  26.773   4.449
67314W        W39739  39.008  34.128   3.329
67315W        W39740  24.466  15.145   3.308
67316W        W39741   7.462  33.333  11.628
67317W        W39742  12.543  36.291  11.424
67318W        W39743  16.020  15.777   1.321
67319W        W39744  17.563   1.501   9.968
67320W        W39745   0.358  24.234   3.360
67321W        W39746   5.863  17.503   3.579
67322W        W39747  37.034  37.381  14.806
67323W        W39748  16.043  41.900   2.295
67324W        W39749  16.883  31.403  14.711
67325W        W39750  25.194  28.633  14.623
67326W        W39751  34.989  37.266  10.291
67327W        W39752   0.888  26.675   2.672
67328W        W39753  14.295   9.340   4.433
67329W        W39754  24.166  27.017   1.765
67330W        W39755   7.896  18.217   1.861
67331W        W39756  21.628  37.049  13.850
67332W        W39757  11.254  25.029   0.838
67333W        W39758  24.818  43.648   0.236
67334W        W39759  11.289  44.786  14.804
67335W        W39760  35.871  15.251   1.668
67336W        W39761  33.260  24.766  13.416
67337W        W39762   2.391  32.750   2.132
67338W        W39763  22.697   0.390   2.450
67339W        W39764   0.413  27.966  13.821
67340W        W39765  38.562   8.907  12.942
67341W        W39766  28.954   0.459  13.817
67342W        W39767  20.462  38.915   1.834
67343W        W39768  41.254  17.812   3.210
67344W        W39769  28.633  21.622   3.322
67345W        W39770   5.314   3.628  10.718
67346W        W39771  43.808   0.360   0.433
67347W        W39772   9.453   0.860   3.147
67348W        W39773   7.882  15.354  11.103
67349W        W39774  29.296  28.015  11.182
67350W        W39775  23.421  37.461   0.918
67351W        W39776  22.594  43.017  11.988
67352W        W39777  20.633  38.219  11.357
67353W        W39778  33.008   6.303   3.904
67354W        W39779  22.652  39.036  14.279
67355W        W39780  10.158  16.011   4.567
67356W        W39781  34.592  39.572   2.666
67357W        W39782   3.576  35.366  11.704
67358W        W39783   3.761  40.089  14.764
67359W        W39784  41.081  36.562  10.897
67360W        W39785   1.499  24.719   0.062
67361W        W39786  25.479  16.768  11.947
67362W        W39787  22.322  21.968   2.466
67363W        W39788  10.780   9.699   0.277
67364W        W39789  14.167  44.584   2.883
67365W        W39790  25.923  12.726   1.433
67366W        W39791  39.467  16.293  14.393
67367W        W39792  22.271  25.523   4.589
67368W        W39793  11.265  15.146   2.412
67369W        W39794   5.750   6.765   4.190
67370W        W39795  24.925   2.080   0.979
67371W        W39796  22.180  43.570   1.623
67372W        W39797   0.812   8.541   3.230
67373W        W39798   9.309  29.416   1.877
67374W        W39799  30.447  26.772  13.824
67375W        W39800  25.000   9.340  11.600
67376W        W39801  18.209  16.368   1.468
67377W        W39802  25.694  40.198   4.716
67378W        W39803   8.440  23.750   1.816
67379W        W39804  18.186  20.809  12.978
67380W        W39805  21.414  36.264  14.897
67381W        W39806  40.512  15.354  12.079
67382W        W39807  42.328  21.954  10.464
67383W        W39808   9.175   4.103   0.287
67384W        W39809   5.882   0.928  14.849
67385W        W39810  42.546  27.156  11.916
67386W        W39811  35.962  43.932  13.886
67387W        W39812   9.258   7.315  12.525
67388W        W39813   5.199  35.606   3.379
67389W        W39814   7.141  19.141  12.548
67390W        W39815  43.980   0.168   0.891
67391W        W39816  24.690  23.693   2.848
67392W        W39817  25.154  32.078  11.405
67393W        W39818   3.768  17.345   2.288
67394W        W39819  32.921  42.344  12.032
67395W        W39820   9.470  21.741  10.680
67396W        W39821  32.690   1.682  13.901
67397W        W39822  29.439  29.486   0.805
67398W        W39823  11.898  27.903   2.840
67399W        W39824  37.617  33.078  11.806
67400W        W39825  41.582   5.903  14.401
67401W        W39826  14.308  24.303  13.450
67402W        W39827  24.524  11.170  11.538
67403W        W39828   8.144  26.181  11.970
67404W        W39829  44.798   7.210  12.169
67405W        W39830  43.814  16.536  12.436
67406W        W39831  21.842  24.725  13.282
67407W        W39832  35.936  30.277  14.954
67408W        W39833   1.470  28.204   1.801
67409W        W39834   3.819  41.356   0.976
67410W        W39835   5.187   7.633   3.689
67411W        W39836  13.303  14.133   0.233
67412W        W39837  37.156   0.977   3.372
67413W        W39838  40.382  11.375   4.431
67414W        W39839  36.853   3.817  11.969
67415W        W39840  41.382  34.856  11.530
67416W        W39841   0.747   9.286   3.699
67417W        W39842  37.934  25.392  12.890
67418W        W39843   0.951  18.121  14.351
67419W        W39844  18.344  12.141   2.822
67420W        W39845  22.136  17.303   0.770
67421W        W39846  27.400  13.427   4.135
67422W        W39847  24.223  42.273  13.061
67423W        W39848  14.694  33.328   0.331
67424W        W39849  17.970  16.302  13.711
67425W        W39850  26.372  29.698  13.341
67426W        W39851   0.370   4.668  11.240
67427W        W39852  35.421   9.177  13.858
67428W        W39853  34.889  28.155   3.411
67429W        W39854   1.822   4.416  11.710
67430W        W39855   3.910  10.732   0.472
67431W        W39856   7.685  26.295  11.637
67432W        W39857  13.587   8.709  12.344
67433W        W39858   5.712   2.790   4.169
67434W        W39859  29.961  25.625   3.528
67435W        W39860  20.074  39.432  10.460
67436W        W39861  16.374  18.393   2.386
67437W        W39862  38.138  11.716   2.257
67438W        W39863   7.707   4.245  10.686
67439W        W39864   9.809  27.372   0.037
67440W        W39865  42.419  40.778   2.664
67441W        W39866  40.323  17.998  10.776
67442W        W39867  10.799  12.731  12.716
67443W        W39868  21.238  37.999   0.420
67444W        W39869   0.891  37.524  13.592
67445W        W39870   4.185  19.328  14.811
67446W        W39871  38.613  41.496  13.048
67447W        W39872  38.346  16.721  11.560
67448W        W39873  40.073  17.073  14.807
67449W        W39874  25.105  41.574  14.741
67450W        W39875  32.700  26.059  10.663
67451W        W39876  30.678  39.058   0.706
67452W        W39877  30.462   9.780  11.225
67453W        W39878  14.713  29.914  13.898
67454W        W39879  28.767  20.784   3.364
67455W        W39880  31.369  23.690   4.629
67456W        W39881  16.625   8.344  12.279
67457W        W39882   2.681  27.773  10.788
67458W        W39883  22.674  23.613  12.169
67459W        W39884  35.424   5.013   3.228
67460W        W39885  24.067  12.662  13.409
67461W        W39886  34.610  11.887  14.429
67462W        W39887   9.345  33.181   2.298
67463W        W39888  44.583  19.836  11.150
67464W        W39889  23.545  36.510   1.170
67465W        W39890  10.759  30.988   0.943
67466W        W39891   7.361  23.536  13.934
67467W        W39892  12.332  37.491   1.241
67468W        W39893   1.826  22.911   1.577
67469W        W39894   9.714  16.209   2.896
67470W        W39895  43.119   0.675   4.075
67471W        W39896  29.755   7.387   4.645
67472W        W39897  27.130  25.640   3.411
67473W        W39898  34.193  35.462   3.181
67474W        W39899  39.096  34.619   4.108
67475W        W39900  33.874  32.941   0.465
67476W        W39901  42.334  25.054   0.253
67477W        W39902  16.251  15.137   2.085
67478W        W39903  39.952  44.029   4.145
67479W        W39904   8.235   5.243  11.760
67480W        W39905  10.835  19.768   5.054
67481W        W39906  30.958  20.288  12.835
67482W        W39907  13.068  31.126  12.454
67483W        W39908   4.827  22.165  10.624
67484W        W39909  44.681   6.686  12.841
67485W        W39910   3.967  11.671  11.217
67486W        W39911  26.141  29.179   2.214
67487W        W39912  13.551  11.599   4.244
67488W        W39913   8.199  16.748   0.896
67489W        W39914  19.878  31.597  13.911
67490W        W39915  31.537  27.191   4.211
67491W        W39916  35.169  38.299  14.478
67492W        W39917  31.478  30.816   0.038
67493W        W39918  42.303  10.864   3.231
67494W        W39919  35.469  43.226   3.691
67495W        W39920  33.017  29.629   4.486
67496W        W39921   4.252  38.227  11.575
67497W        W39922  37.619   3.891  12.492
67498W        W39923  37.314  18.534   3.726
67499W        W39924  33.894  27.453   4.243
67500W        W39925  22.154   8.792   0.072
67501W        W39926  37.402  34.572   4.164
67502W        W39927  20.485  36.949  13.431
67503W        W39928  10.125  28.970  14.442
67504W        W39929   0.190  16.051   3.905
67505W        W39930  34.628  26.011  12.910
67506W        W39931  41.093  28.037  13.365
67507W        W39932  41.784   0.336   2.574
67508W        W39933   8.308  23.929  11.551
67509W        W39934  12.189  19.964  14.801
67510W        W39935  17.546  21.324   2.213
67511W        W39936  23.884  28.529  13.405
67512W        W39937  16.020  25.606   3.205
67513W        W39938  20.410  15.484  12.402
67514W        W39939   2.235  35.003  13.118
67515W        W39940  29.121  29.029   3.916
67516W        W39941  11.783  29.552   3.953
67517W        W39942  16.157  28.802   4.587
67518W        W39943   6.182  34.067  14.197
67519W        W39944  19.642  31.726   0.863
67520W        W39945  33.466  23.647   0.702
67521W        W39946  38.161  11.315  12.142
67522W        W39947  39.766  42.090   0.313
67523W        W39948  11.349  13.919   2.418
67524W        W39949  35.126  44.932  12.568
67525W        W39950  36.436   9.925  12.478
67526W        W39951  16.598  11.613   3.917
67527W        W39952  32.944  34.112   4.072
67528W        W39953   4.604  30.568   0.257
67529W        W39954  23.611   2.426   1.304
67530W        W39955  40.580  15.655  14.778
67531W        W39956  13.362   3.903  14.502
67532W        W39957  42.444  42.278  13.516
67533W        W39958  23.617   3.204  11.880
67534W        W39959  42.382   3.144   4.808
67535W        W39960  34.567  28.998  13.879
67536W        W39961  27.196  34.585  12.917
67537W        W39962  14.620  15.537   4.130
67538W        W39963   4.744  25.943  12.904
67539W        W39964  22.741   9.700  10.558
67540W        W39965  35.938  24.399   4.546
67541W        W39966  16.549  38.023  14.667
67542W        W39967   2.492  32.632  12.578
67543W        W39968  28.960  28.911  11.545
67544W        W39969  16.320  20.034  14.791
67545W        W39970  18.658   4.784   4.346
67546W        W39971  33.988  35.961   5.091
67547W        W39972  42.289  11.164  13.479
67548W        W39973  26.591  20.332   4.509
67549W        W39974  36.918  34.409  11.731
67550W        W39975  32.653  30.570   5.068
67551W        W39976  35.659  22.215  13.337
67552W        W39977  40.980  29.592   1.939
67553W        W39978   7.448  26.596  10.312
67554W        W39979  44.296  26.040   2.704
67555W        W39980   1.891  44.284   0.993
67556W        W39981  37.534  14.322   3.112
67557W        W39982   7.460  33.578  13.883
67558W        W39983  34.656  16.464  11.473
67559W        W39984  28.651  36.864   0.240
67560W        W39985  26.354  11.164  14.477
67561W        W39986  34.016  32.998   4.238
67562W        W39987   3.920  36.037   4.482
67563W        W39988  41.539  36.058  12.065
67564W        W39989  38.310  10.734  12.031
67565W        W39990  31.150  27.199  10.896
67566W        W39991  10.349  17.881  13.794
67567W        W39992  10.788   3.967   0.733
67568W        W39993  17.714  14.351  10.715
67569W        W39994   5.232   1.612  10.964
67570W        W39995  34.927  40.986   4.574
67571W        W39996  38.292  40.927  12.278
67572W        W39997  10.193   9.361   4.183
67573W        W39998  35.320  20.480   0.554
67574W        W39999  39.889  23.052  14.445
67575W        W40000  20.137  42.751  11.009
67576W        W40001  34.794  30.226  13.115
67577W        W40002   2.909  12.249   3.218
67578W        W40003  31.052  31.215   3.606
67579W        W40004  35.390  33.141  13.442
67580W        W40005   5.366  36.666   3.435
67581W        W40006  30.820   9.671  11.644
67582W        W40007  11.828  31.691  12.359
67583W        W40008  12.794  15.080   2.440
67584W        W40009  32.081  43.510   2.549
67585W        W40010  39.261   7.643  10.323
67586W        W40011   9.867   2.899   3.351
67587W        W40012  30.059  33.280  14.719
67588W        W40013  32.488  42.116   4.161
67589W        W40014   0.123  21.209   1.549
67590W        W40015  15.100  13.027   1.450
67591W        W40016  37.617  35.335  10.644
67592W        W40017  40.507  28.943   3.886
67593W        W40018  20.230  42.459  14.262
67594W        W40019  17.753  30.267   4.775
67595W        W40020  31.550  13.327   1.785
67596W        W40021  32.556  39.910   0.973
67597W        W40022  42.451  28.714   0.378
67598W        W40023  39.410  28.821  12.762
67599W        W40024  16.245  43.792   4.636
67600W        W40025   7.661  30.992   3.338
67601W        W40026  30.448  40.292   1.793
67602W        W40027  21.629  34.896  11.489
67603W        W40028  22.368  22.946  11.018
67604W        W40029  30.003  11.077   1.728
67605W        W40030  21.737  23.158   0.467
67606W        W40031  34.644  26.571   2.812
67607W        W40032  23.768  37.898   3.170
67608W        W40033  44.447   8.225   0.292
67609W        W40034   4.509   0.476   2.192
67610W        W40035  36.967  23.409   3.678
67611W        W40036  10.763  10.348  11.902
67612W        W40037  43.519  43.332   2.732
67613W        W40038  37.240  43.571   0.096
67614W        W40039   6.233  29.995  13.818
67615W        W40040  20.086  24.407  12.921
67616W        W40041  12.808  43.645   3.581
67617W        W40042  29.086  18.747   1.207
67618W        W40043  26.767   2.335  11.055
67619W        W40044   7.841   2.810  10.767
67620W        W40045  20.665  20.262   2.376
67621W        W40046   5.625  19.711  12.118
67622W        W40047   5.223   6.196   2.751
67623W        W40048  35.013   8.721  11.962
67624W        W40049  13.805  11.559   3.338
67625W        W40050   8.456   0.462   1.215
67626W        W40051  33.559  20.843  10.442
67627W        W40052  31.447  36.979  14.760
67628W        W40053   7.582   1.730  12.934
67629W        W40054   8.787   9.750   2.416
67630W        W40055  13.295   1.964   2.810
67631W        W40056  27.163  36.666  13.370
67632W        W40057  39.318  11.281  14.032
67633W        W40058   9.750  31.218   2.710
67634W        W40059  26.692  32.120  12.076
67635W        W40060   8.787  41.533  14.265
67636W        W40061  10.329  38.044   2.920
67637W        W40062  14.839  12.765   1.803
67638W        W40063  27.781  26.137   0.286
67639W        W40064  36.727  31.046   3.180
67640W        W40065   0.983  12.588   1.902
67641W        W40066  19.558  23.840  10.221
67642W        W40067  37.873  27.552  13.516
67643W        W40068  34.597  38.261   4.871
67644W        W40069   9.949  22.943   3.759
67645W        W40070  31.070  13.202  10.507
67646W        W40071  31.561  32.536  13.285
67647W        W40072   8.044   4.576  13.843
67648W        W40073   9.371   7.874   5.104
67649W        W40074  33.576  34.164  14.008
67650W        W40075  35.744   9.409   1.733
67651W        W40076  32.107  36.477   4.636
67652W        W40077  16.358  35.056  11.068
67653W        W40078  30.172  16.626  12.979
67654W        W40079  16.674  31.009  14.400
67655W        W40080  25.220  29.627   0.012
67656W        W40081  24.550   6.612   4.696
67657W        W40082  34.989  15.722  14.914
67658W        W40083  20.192   1.778  14.534
67659W        W40084   2.645  33.321   3.798
67660W        W40085  29.522   2.804   4.088
67661W        W40086  40.804   9.384  14.997
67662W        W40087  27.634  33.483   4.843
67663W        W40088  13.052  26.285  13.211
67664W        W40089   8.743  42.122  12.165
67665W        W40090  14.033  44.120  13.984
67666W        W40091  33.065  11.204   1.878
67667W        W40092  42.736  32.865  12.883
67668W        W40093   3.581  34.922  14.900
67669W        W40094  44.093  14.223  11.880
67670W        W40095  27.455  32.168   2.957
67671W        W40096   8.990  42.885   2.861
67672W        W40097  27.048  22.129  13.909
67673W        W40098  13.617  14.261  13.491
67674W        W40099   2.690   9.048  11.532
67675W        W40100  37.393  33.935  12.885
67676W        W40101  24.183  15.404   5.177
67677W        W40102  11.861  23.756   3.336
67678W        W40103   9.187  21.584  14.853
67679W        W40104  31.287  36.963   2.302
67680W        W40105  24.315  12.821  12.435
67681W        W40106   6.517   9.253  11.002
67682W        W40107  41.714  27.019  14.893
67683W        W40108  10.336  42.472   4.601
67684W        W40109  15.878  31.697   1.539
67685W        W40110  41.781  36.556   3.302
67686W        W40111  19.622  38.844   1.229
67687W        W40112   2.504  39.129   3.176
67688W        W40113   5.867   9.130   4.414
67689W        W40114  35.871  21.441  11.086
67690W        W40115  44.648  28.492   4.661
67691W        W40116  26.053  32.151  13.374
67692W        W40117  37.078  25.313  14.909
67693W        W40118  19.058  33.549   1.447
67694W        W40119  22.068  27.765  11.100
67695W        W40120  34.375  37.561   0.924
67696W        W40121  34.193  17.334  11.097
67697W        W40122  13.974   3.757   1.750
67698W        W40123   0.937   4.837  14.204
67699W        W40124   8.090  30.302   4.835
67700W        W40125  26.441  25.574   0.441
67701W        W40126  25.441  29.200  10.771
67702W        W40127  28.571  28.937   0.455
67703W        W40128  20.688  43.073   2.859
67704W        W40129  35.066  29.990   3.624
67705W        W40130  21.230  40.938  14.118
67706W        W40131   6.506  24.996   0.836
67707W        W40132   4.392  13.758  13.482
67708W        W40133  20.657  40.796  12.075
67709W        W40134  12.836  22.772   2.379
67710W        W40135  18.902  12.796  11.928
67711W        W40136  40.885  26.022  14.597
67712W        W40137   9.666  35.528   3.237
67713W        W40138   1.259  40.557  13.633
67714W        W40139  28.180  39.029   2.910
67715W        W40140  26.787  26.626  12.871
67716W        W40141  43.433   1.899   0.803
67717W        W40142  28.142  38.613  15.000
67718W        W40143  27.544  36.547   2.249
67719W        W40144   1.731  40.792   3.087
67720W        W40145  38.526   2.334   4.576
67721W        W40146   1.938   6.736   4.063
67722W        W40147  14.586   4.017   2.336
67723W        W40148  15.729  39.551   2.471
67724W        W40149   7.172  28.522   1.291
67725W        W40150  31.899  28.622  14.201
67726W        W40151   4.689  19.794  14.929
67727W        W40152   6.897  28.003   1.202
67728W        W40153  16.438   5.248   1.760
67729W        W40154  43.755   3.601   2.150
67730W        W40155  15.309  28.187   1.416
67731W        W40156  20.657   0.715   0.720
67732W        W40157  38.391   0.735  10.952
67733W        W40158  14.559  35.906   0.228
67734W        W40159  28.205   4.454  11.163
67735W        W40160  29.243   9.862   2.364
67736W        W40161  28.557  31.847   0.935
67737W        W40162  20.485  15.674   0.989
67738W        W40163  35.507  42.813  11.198
67739W        W40164  43.017  36.456   0.769
67740W        W40165  41.964  13.649   3.733
67741W        W40166  29.349   4.486   0.806
67742W        W40167  31.621  38.775  13.237
67743W        W40168  21.065  27.722   0.856
67744W        W40169  25.763  20.915  11.327
67745W        W40170  34.024  18.153   0.818
67746W        W40171  15.165  26.225  11.160
67747W        W40172  10.785  37.991  12.121
67748W        W40173  34.691  26.124   1.827
67749W        W40174  28.601   8.240   4.563
67750W        W40175  44.814  31.423   4.224
67751W        W40176   1.743   6.104  11.123
67752W        W40177  23.189  11.677   4.181
67753W        W40178   5.239  18.196   3.239
67754W        W40179  24.567  40.746   0.537
67755W        W40180  43.147  22.605  11.511
67756W        W40181  14.388   3.301  11.906
67757W        W40182  39.421   7.639   3.147
67758W        W40183  44.505  19.622   1.674
67759W        W40184  35.156  31.391  11.837
67760W        W40185  34.186  26.155   0.341
67761W        W40186   5.146  17.678  12.542
67762W        W40187  20.113  15.742   2.644
67763W        W40188  32.032  31.449  12.493
67764W        W40189  32.043  40.242   3.230
67765W        W40190   1.893  20.772   2.218
67766W        W40191  44.038  12.229  10.551
67767W        W40192  18.884  29.387   3.677
67768W        W40193  26.923  14.661   3.714
67769W        W40194  24.576  33.388   0.677
67770W        W40195  35.375  36.874   1.812
67771W        W40196  35.520  12.383   1.216
67772W        W40197  22.242  37.127   0.310
67773W        W40198  34.970  40.845   2.277
67774W        W40199   3.857  26.150   2.354
67775W        W40200  44.146  31.113   1.984
67776W        W40201  12.194  40.125  13.586
67777W        W40202  44.741   1.664   1.691
67778W        W40203  35.883  11.846   3.187
67779W        W40204  29.860  18.789   3.205
67780W        W40205  39.417  28.519  14.766
67781W        W40206  10.773  10.425   1.691
67782W        W40207  21.240  44.928   0.927
67783W        W40208  26.522   5.560   3.940
67784W        W40209  36.194  39.089   1.965
67785W        W40210  26.818  34.358   1.865
67786W        W40211  10.572  12.317  14.929
67787W        W40212   2.643  25.041   3.652
67788W        W40213   1.260  14.798  12.295
67789W        W40214   4.420  11.411  11.216
67790W        W40215  32.963  17.701  14.761
67791W        W40216  28.132   6.681   1.173
67792W        W40217  10.213  30.408  14.135
67793W        W40218  30.827  41.304   0.398
67794W        W40219   5.977  37.215   5.202
67795W        W40220  28.740  40.571   1.458
67796W        W40221  28.834  16.384   1.428
67797W        W40222   0.857  21.126  10.530
67798W        W40223  14.879  17.213   2.478
67799W        W40224  38.870  44.339  11.760
67800W        W40225  23.104  21.224  10.525
67801W        W40226  42.266   9.549  11.576
67802W        W40227  25.743  29.412  14.101
67803W        W40228  44.915   3.000   1.236
67804W        W40229  44.075  10.274   2.205
67805W        W40230   8.326   2.528   0.452
67806W        W40231  38.042  31.965  13.036
67807W        W40232  29.259   4.252   4.570
67808W        W40233  15.958  25.023   2.925
67809W        W40234  39.942  26.444  14.369
67810W        W40235  30.547  15.290   1.678
67811W        W40236   0.285  23.036   2.163
67812W        W40237  11.643   7.039   4.596
67813W        W40238  23.505  10.847  14.414
67814W        W40239  18.244  29.211   4.076
67815W        W40240  11.354  32.724  11.896
67816W        W40241  41.901  25.708   3.218
67817W        W40242  13.268  44.290   2.421
67818W        W40243  37.101   6.943   0.704
67819W        W40244  35.439  29.006   0.699
67820W        W40245  32.611  32.106   2.741
67821W        W40246  21.839  18.101  14.275
67822W        W40247  18.826  26.464  12.517
67823W        W40248  22.491  24.959   4.683
67824W        W40249   0.778  21.706  12.145
67825W        W40250   9.873  34.951   3.252
67826W        W40251  39.309  13.680   0.906
67827W        W40252  44.029  22.530  12.853
67828W        W40253  42.231   0.257   2.303
67829W        W40254  39.766  27.558  10.625
67830W        W40255   2.596   5.267  13.852
67831W        W40256  18.708  40.376   4.395
67832W        W40257  31.641  35.786   4.581
67833W        W40258  24.325  11.927   2.191
67834W        W40259   2.949  29.356   4.318
67835W        W40260  34.796  24.097   3.325
67836W        W40261  19.662   8.928  13.318
67837W        W40262   3.529   3.768  14.952
67838W        W40263  16.084  14.537  11.531
67839W        W40264  38.554  34.375   3.287
67840W        W40265   9.799  36.121  13.305
67841W        W40266  21.170   8.191  11.703
67842W        W40267  41.327   4.250  12.292
67843W        W40268  42.316  34.599  14.951
67844W        W40269  19.517  31.922  10.545
67845W        W40270   2.494  11.369   1.408
67846W        W40271  33.568   0.473  11.599
67847W        W40272  22.067  20.827   2.711
67848W        W40273  44.337  41.999  12.129
67849W        W40274   6.135  40.011   0.526
67850W        W40275  30.619  14.612  12.441
67851W        W40276  20.766  22.151  14.485
67852W        W40277  31.866   3.365  13.480
67853W        W40278  39.509   4.905   4.450
67854W        W40279   6.590  29.470   3.211
67855W        W40280  31.744  27.436   4.657
67856W        W40281   0.372  13.243   2.757
67857W        W40282  21.747  40.960   0.818
67858W        W40283  26.109   0.351  14.424
67859W        W40284  32.402  32.229   0.169
67860W        W40285  16.037  23.687   1.218
67861W        W40286   4.801  21.458  12.590
67862W        W40287  23.169  38.282  14.397
67863W        W40288  36.095  23.860   1.283
67864W        W40289  30.329  16.015   0.201
67865W        W40290  17.287   8.316  10.742
67866W        W40291  28.049  25.642   4.688
67867W        W40292   0.688  36.094  14.148
67868W        W40293  32.418   6.630  14.854
67869W        W40294  42.335  39.378  10.744
67870W        W40295  41.749   1.847   1.656
67871W        W40296  35.872  39.903   1.932
67872W        W40297  14.853  16.494  12.983
67873W        W40298  19.611   1.510   2.471
67874W        W40299  19.856  11.212  10.736
67875W        W40300  41.641  18.722  13.932
67876W        W40301  31.439   2.233  12.137
67877W        W40302  30.190  30.593   0.477
67878W        W40303  31.313  29.027   0.951
67879W        W40304  14.665  41.869   2.864
67880W        W40305  32.713  30.013   1.922
67881W        W40306  26.424  17.356  12.816
67882W        W40307  21.286   2.294   2.191
67883W        W40308  43.864  11.771  13.383
67884W        W40309  22.782  30.648  11.976
67885W        W40310   4.691   0.902  10.906
67886W        W40311  34.627   2.987   4.578
67887W        W40312  15.565   0.551  12.001
67888W        W40313  11.428  28.963   1.199
67889W        W40314   6.192  36.352  10.639
67890W        W40315  21.986  21.210  13.935
67891W        W40316  11.120  42.146   0.421
67892W        W40317   6.336  32.660  11.903
67893W        W40318  19.666   2.683   0.639
67894W        W40319  26.355  19.747  12.036
67895W        W40320  41.552  21.187  13.351
67896W        W40321  30.416  22.646   1.332
67897W        W40322  42.065  19.512  14.873
67898W        W40323  22.493  13.128   3.197
67899W        W40324  17.550  28.943  13.777
67900W        W40325  42.995   3.737  13.085
67901W        W40326  10.365  11.559  11.714
67902W        W40327  35.996  37.986  14.545
67903W        W40328  44.186  30.175  11.094
67904W        W40329  22.275  22.110  14.800
67905W        W40330  39.068  37.523   2.190
67906W        W40331  25.028  40.595   0.737
67907W        W40332  21.273  20.541  14.972
67908W        W40333  20.628  41.731   4.600
67909W        W40334  13.005  32.036   3.680
67910W        W40335  26.793  24.670   0.854
67911W        W40336  40.018  42.871   2.711
67912W        W40337  13.379  30.167  11.611
67913W        W40338  18.169   4.352  13.827
67914W        W40339  24.926  12.331   4.141
67915W        W40340  16.520  40.808  13.022
67916W        W40341  15.224  42.731   2.630
67917W        W40342  35.285  14.090  14.094
67918W        W40343  27.515  31.579  14.358
67919W        W40344  13.060   5.468   0.733
67920W        W40345  31.552   9.764  12.409
67921W        W40346  40.596  16.681   3.218
67922W        W40347  34.614  31.089  13.471
67923W        W40348  30.535  42.545   2.393
67924W        W40349   4.781  41.586   1.834
67925W        W40350  19.156  21.698   2.819
67926W        W40351  15.582  38.978  11.455
67927W        W40352  42.751  34.963   1.824
67928W        W40353  10.391  24.683  11.084
67929W        W40354  40.852  20.622   4.862
67930W        W40355   9.941  34.907  13.990
67931W        W40356  27.121  17.716  14.876
67932W        W40357  35.200  27.559  13.271
67933W        W40358  17.215  38.105   0.958
67934W        W40359  20.061  28.872   3.137
67935W        W40360  41.961  17.034   2.638
67936W        W40361  20.739  13.318   4.494
67937W        W40362  15.389  14.141   2.247
67938W        W40363  30.533   2.675  10.336
67939W        W40364  19.058  36.440  14.015
67940W        W40365  36.455  38.557  12.456
67941W        W40366  42.957  10.662  12.589
67942W        W40367  20.057  23.701  13.424
67943W        W40368  36.109  44.427   1.404
67944W        W40369  43.701  39.486  10.985
67945W        W40370   5.625   7.849   0.824
67946W        W40371  13.029   4.946   4.353
67947W        W40372   8.612  27.669  13.115
67948W        W40373   6.834   2.256   2.856
67949W        W40374  30.654  38.452  13.664
67950W        W40375  44.119  27.231   4.091
67951W        W40376  39.336   6.146   3.641
67952W        W40377  14.324   6.666  11.115
67953W        W40378   7.202  26.910   3.160
67954W        W40379  17.113  44.406   2.819
67955W        W40380   5.081   0.477   3.685
67956W        W40381  16.597  30.689  13.978
67957W        W40382  42.603   8.655  11.472
67958W        W40383  29.236  38.335  14.892
67959W        W40384  26.535  22.683   2.669
67960W        W40385  30.199   5.634  13.437
67961W        W40386  20.106  30.759  12.408
67962W        W40387  27.977  21.912   3.623
67963W        W40388  10.269   9.876   4.172
67964W        W40389   0.909  29.965  14.047
67965W        W40390  12.722   0.915  12.053
67966W        W40391  36.131  13.241   3.757
67967W        W40392  18.606  41.833  14.800
67968W        W40393   3.536   5.005  11.940
67969W        W40394   9.254   2.430   1.904
67970W        W40395   9.643  25.212  14.445
67971W        W40396  27.663  21.418   0.362
67972W        W40397  20.549   8.896   4.053
67973W        W40398   1.271   8.282   1.311
67974W        W40399   7.841  43.186   4.203
67975W        W40400  27.703  39.000   2.724
67976W        W40401  14.366  23.106   0.674
67977W        W40402  29.632  19.277  13.844
67978W        W40403  38.434  42.910   9.611
67979W        W40404   2.425  39.453  13.810
67980W        W40405  20.169  34.435   3.761
67981W        W40406  14.549  29.458   3.702
67982W        W40407  43.074   9.632   0.895
67983W        W40408  42.846  16.032  14.720
67984W        W40409  42.892  31.170  12.479
67985W        W40410  12.829  26.692  11.574
67986W        W40411   6.967  43.857   0.768
67987W        W40412  12.749  31.042   0.251
67988W        W40413  27.205  39.373  13.762
67989W        W40414  42.813  30.575   2.677
67990W        W40415  30.179   5.938   3.569
67991W        W40416  40.401  12.249  13.881
67992W        W40417  22.338  18.190  14.091
67993W        W40418   7.540   5.917   3.678
67994W        W40419  25.735  13.408  11.100
67995W        W40420  28.097  22.295   3.247
67996W        W40421  27.956   3.791   1.296
67997W        W40422  36.391  28.974  11.162
67998W        W40423   5.299  16.425  10.882
67999W        W40424  20.785  40.316  12.240
68000W        W40425   3.335   5.757   0.027
68001W        W40426  18.061  21.992   3.162
68002W        W40427  24.693  32.137   2.178
68003W        W40428   0.975   0.154  13.483
68004W        W40429  33.305  37.128   1.763
68005W        W40430  40.786  19.057  12.480
68006W        W40431  36.587  44.528   3.260
68007W        W40432  10.623  12.113   4.863
68008W        W40433  21.827   5.898   0.865
68009W        W40434  21.084   0.311   1.255
68010W        W40435  34.588  40.025   3.768
68011W        W40436  39.228   8.056   5.062
68012W        W40437  23.508  10.722  11.505
68013W        W40438  42.782   8.831   0.365
68014W        W40439  11.223  20.277  10.784
68015W        W40440  29.621  13.707   0.373
68016W        W40441   5.783   2.197  12.213
68017W        W40442  12.284  13.607   4.231
68018W        W40443   6.745  42.892   2.179
68019W        W40444  27.948  19.346  10.209
68020W        W40445  34.189  18.056   5.058
68021W        W40446  37.927  10.551   4.132
68022W        W40447  24.555  37.059   0.387
68023W        W40448  43.802  18.590  12.391
68024W        W40449  34.323  23.728  14.483
68025W        W40450  18.628  34.214  13.141
68026W        W40451  16.707  42.003  11.652
68027W        W40452  22.950  26.171  13.370
68028W        W40453  33.606  30.424   1.248
68029W        W40454   4.343  36.398  14.955
68030W        W40455  10.641  31.991  11.138
68031W        W40456  10.693  42.311   0.683
68032W        W40457   5.811  38.607  12.579
68033W        W40458  43.599  37.439   5.105
68034W        W40459  39.785   1.862   4.826
68035W        W40460  42.009  33.993  13.762
68036W        W40461  27.970   0.223   0.886
68037W        W40462  40.731  44.628   2.783
68038W        W40463   6.981   2.452   1.235
68039W        W40464  33.006  30.012  10.686
68040W        W40465  12.901  17.605   2.334
68041W        W40466   7.001  11.755   2.618
68042W        W40467  43.872  17.023  12.665
68043W        W40468  31.027   8.938  12.573
68044W        W40469  19.918   1.635  10.181
68045W        W40470   2.406   6.175   1.757
68046W        W40471  31.411  23.180   4.669
68047W        W40472  13.683  30.800  14.891
68048W        W40473  20.314  32.907  14.840
68049W        W40474   6.268  26.040   3.746
68050W        W40475  15.543   8.501  11.291
68051W        W40476  10.935   6.998  13.014
68052W        W40477   7.585  44.004   2.768
68053W        W40478   5.280   1.588  13.557
68054W        W40479  25.749  39.414  11.590
68055W        W40480  25.523   1.968  11.974
68056W        W40481  18.024   1.762   2.357
68057W        W40482   0.119  32.038   4.483
68058W        W40483  31.373   3.277  13.576
68059W        W40484  22.120  13.359   0.479
68060W        W40485  33.119  32.515   0.014
68061W        W40486  34.852   2.780   0.341
68062W        W40487  32.821  28.117  14.909
68063W        W40488  10.702  36.584   3.897
68064W        W40489   5.001  28.167   2.968
68065W        W40490  19.976   4.900   4.566
68066W        W40491   0.493  26.062  11.024
68067W        W40492  25.739  18.789   3.875
68068W        W40493  41.286  26.043  11.143
68069W        W40494  16.320  19.705   2.667
68070W        W40495   5.700  30.079  13.092
68071W        W40496  22.691   9.134   1.049
68072W        W40497  32.044   5.447  14.420
68073W        W40498  42.284  19.200   3.621
68074W        W40499  27.432  42.733   2.289
68075W        W40500  19.173   5.394   0.515
68076W        W40501   5.766  11.772   0.018
68077W        W40502  35.877   7.618   4.173
68078W        W40503  40.414  10.959  12.895
68079W        W40504  29.954   4.366  12.481
68080W        W40505  39.031  19.083  13.060
68081W        W40506  38.074  44.385   3.259
68082W        W40507  12.991  39.036  13.275
68083W        W40508  21.553  15.145   1.592
68084W        W40509  23.162   3.679  10.633
68085W        W40510  39.551  41.658   2.896
68086W        W40511  41.022  40.589  11.195
68087W        W40512   0.836  43.127  11.541
68088W        W40513   0.231  12.690  10.805
68089W        W40514  15.557  30.367  14.273
68090W        W40515  37.000  14.778   1.409
68091W        W40516  37.419  29.159   0.766
68092W        W40517  27.291  12.358  10.677
68093W        W40518   9.360  41.074  12.511
68094W        W40519   6.223   2.980  11.665
68095W        W40520   1.292  42.007   2.370
68096W        W40521  44.475  42.392  12.810
68097W        W40522  43.634  21.873   1.866
68098W        W40523  13.921  23.738   5.055
68099W        W40524  16.652  22.763   1.892
68100W        W40525   5.376   5.190  10.558
68101W        W40526  38.472   6.233   0.680
68102W        W40527   2.973  31.470  14.445
68103W        W40528  44.446  10.638  14.906
68104W        W40529  41.837  21.251   3.806
68105W        W40530  12.769  23.744  14.925
68106W        W40531  19.277  21.209   2.717
68107W        W40532  38.695  22.105   2.645
68108W        W40533  17.624   3.264   0.290
68109W        W40534  14.600  35.541  13.372
68110W        W40535  34.206  16.237  14.965
68111W        W40536  35.100   6.313   1.274
68112W        W40537  39.479  30.013   4.620
68113W        W40538  18.247   3.683   2.868
68114W        W40539   5.318  21.982   0.287
68115W        W40540   5.325  20.062  13.387
68116W        W40541  36.492  43.281  12.323
68117W        W40542   2.662   3.532   2.307
68118W        W40543   0.032  30.022   2.947
68119W        W40544  10.717  20.997   0.335
68120W        W40545  19.574  12.412   0.931
68121W        W40546  35.312   0.008  14.495
68122W        W40547   6.588  12.222  10.735
68123W        W40548  34.594   5.358   3.509
68124W        W40549  37.074  21.721  11.706
68125W        W40550  34.186   0.830   1.266
68126W        W40551  34.468  21.120  13.516
68127W        W40552   9.462   3.920   1.341
68128W        W40553  12.352  32.898  13.873
68129W        W40554  27.800  24.820  11.543
68130W        W40555  26.982  38.550  12.047
68131W        W40556  19.157  33.535   1.960
68132W        W40557   7.654  35.597  14.188
68133W        W40558  23.387  16.258   4.086
68134W        W40559  21.679   0.477   4.385
68135W        W40560  11.799  31.583   4.841
68136W        W40561   1.007  44.054   4.107
68137W        W40562  27.757  33.504   0.191
68138W        W40563  24.173   2.817   2.811
68139W        W40564  28.418  26.664  10.593
68140W        W40565  16.827  21.933  12.817
68141W        W40566  37.791  24.570   0.713
68142W        W40567  18.747   8.142   2.682
68143W        W40568  21.978  34.039   3.883
68144W        W40569   9.602  24.629   4.044
68145W        W40570  37.963  32.926  12.622
68146W        W40571  28.549  22.899   1.289
68147W        W40572  32.547  29.457   3.200
68148W        W40573  18.568  20.106   0.541
68149W        W40574   8.878   5.397   3.631
68150W        W40575  33.855  39.099   3.638
68151W        W40576  39.026  37.426   0.023
68152W        W40577  30.978  38.603  12.050
68153W        W40578   2.168  43.733  11.741
68154W        W40579  10.191  29.009  13.444
68155W        W40580  12.381  28.509  14.874
68156W        W40581  18.188  41.490  13.949
68157W        W40582   8.806  18.205  13.024
68158W        W40583  35.489   5.222   0.940
68159W        W40584  16.211  29.569  13.085
68160W        W40585  23.457  10.266   2.149
68161W        W40586  11.162  20.652   0.271
68162W        W40587  42.743   0.966   4.977
68163W        W40588   5.429  35.006  13.148
68164W        W40589  19.362  35.269  13.384
68165W        W40590  26.733  22.176   2.684
68166W        W40591  18.520  39.395  12.051
68167W        W40592  34.225  18.198   3.752
68168W        W40593   8.968  22.112  14.812
68169W        W40594  34.163   0.429  14.842
68170W        W40595  30.520  31.619   3.185
68171W        W40596  36.045   2.684  12.366
68172W        W40597  41.476  35.441  13.257
68173W        W40598  39.067  41.429   2.810
68174W        W40599  44.462  20.852   4.593
68175W        W40600  25.085  22.105  14.466
68176W        W40601  18.695  22.206  14.497
68177W        W40602  40.260  42.516   1.387
68178W        W40603  28.144  31.411   0.260
68179W        W40604  38.542  37.938   4.411
68180W        W40605  29.624   3.389   0.449
68181W        W40606  32.139   3.802   3.683
68182W        W40607  18.216  22.950   2.948
68183W        W40608  13.980   1.979   9.998
68184W        W40609  33.963   9.460   0.795
68185W        W40610  30.417  10.804   0.262
68186W        W40611  26.324   5.716   2.966
68187W        W40612  10.429   1.574  12.924
68188W        W40613  31.464   1.858   0.953
68189W        W40614   8.820  31.049   1.149
68190W        W40615  36.648  33.651  13.347
68191W        W40616  32.368  12.792   1.656
68192W        W40617  13.700  27.563   4.355
68193W        W40618  20.092   3.955   2.266
68194W        W40619  16.755   5.793  12.117
68195W        W40620  16.695  24.312  13.877
68196W        W40621  26.246  10.994  14.980
68197W        W40622  27.183   1.204   2.864
68198W        W40623  18.488  30.270  11.830
68199W        W40624  25.711  32.661  10.327
68200W        W40625  35.099   6.299   0.247
68201W        W40626  23.563  25.319  11.955
68202W        W40627  20.567  38.999  14.110
68203W        W40628  36.804   4.786   0.309
68204W        W40629   5.898  44.474   2.836
68205W        W40630  27.155  39.426  14.286
68206W        W40631  11.375  23.195  11.936
68207W        W40632  43.971  30.990   4.194
68208W        W40633  20.060   7.041   1.489
68209W        W40634  15.549  39.865  10.998
68210W        W40635   9.582   0.939   1.324
68211W        W40636  36.071  31.698  10.434
68212W        W40637  19.311  40.915   1.385
68213W        W40638  10.727  29.472  13.951
68214W        W40639  31.693  28.322  11.771
68215W        W40640   5.175  18.641   2.288
68216W        W40641  41.472   6.378   1.641
68217W        W40642  27.046  36.486  12.898
68218W        W40643   5.888  27.616  13.540
68219W        W40644  18.861   5.195  10.734
68220W        W40645  26.427  28.146   4.066
68221W        W40646  32.460  22.699  10.685
68222W        W40647  36.535  30.500  12.709
68223W        W40648  38.368  11.669  14.278
68224W        W40649   0.488  16.198   0.990
68225W        W40650  23.739  13.222   1.826
68226W        W40651  39.525  40.457  11.335
68227W        W40652   9.423  40.126   4.034
68228W        W40653  43.791  26.244   1.726
68229W        W40654   3.919  44.988   4.855
68230W        W40655  26.523  16.896   5.068
68231W        W40656  35.352  41.294   0.206
68232W        W40657  26.070  16.337   3.177
68233W        W40658  22.643  27.028  11.960
68234W        W40659   2.338  12.643  12.344
68235W        W40660  10.102  36.584  11.056
68236W        W40661  36.886  39.731   4.187
68237W        W40662  29.122  16.129  13.772
68238W        W40663  11.458  14.677   2.423
68239W        W40664  20.082  28.171  11.416
68240W        W40665  39.298  33.441   4.671
68241W        W40666  13.167   4.806   1.523
68242W        W40667  25.670  39.628  12.072
68243W        W40668  19.689   3.673   2.108
68244W        W40669   9.841  11.724   2.213
68245W        W40670  44.685   5.119   3.348
68246W        W40671  40.004  41.629  12.902
68247W        W40672  20.251   2.131   4.211
68248W        W40673   1.126  10.190  10.700
68249W        W40674  40.774  12.116   1.162
68250W        W40675  11.975  12.312   1.601
68251W        W40676  43.815  17.787   4.794
68252W        W40677  38.054  23.465   4.583
68253W        W40678   6.272   9.795  10.791
68254W        W40679   3.986  38.072  12.021
68255W        W40680  13.841   5.888  12.416
68256W        W40681  30.143  24.592   3.313
68257W        W40682  12.137  25.234  12.862
68258W        W40683   5.814   8.843  11.598
68259W        W40684   0.779  24.223   1.499
68260W        W40685  27.968  21.165   4.937
68261W        W40686  16.756  25.106  13.359
68262W        W40687  26.427  16.834   1.499
68263W        W40688  40.068  16.232   1.893
68264W        W40689  24.802  35.756   1.728
68265W        W40690  35.044   0.424  11.017
68266W        W40691  32.342  39.807  10.710
68267W        W40692  14.413  27.734   2.444
68268W        W40693  40.042  32.143  13.189
68269W        W40694  14.222   5.138  11.835
68270W        W40695  26.474  17.144  12.011
68271W        W40696  37.792  40.800   3.505
68272W        W40697  43.723  43.116  14.765
68273W        W40698  22.594  24.177  10.955
68274W        W40699  37.342   3.509  10.395
68275W        W40700  15.270  14.373  12.927
68276W        W40701  33.923  20.097   4.465
68277W        W40702  14.301  21.613   2.326
68278W        W40703  28.409   9.071  11.070
68279W        W40704   4.200  22.097  14.466
68280W        W40705  30.898  27.654   2.259
68281W        W40706  31.371  28.025   0.913
68282W        W40707  13.836  37.360  11.640
68283W        W40708  25.475  22.487  11.994
68284W        W40709   5.052  10.610  11.570
68285W        W40710  35.855   4.300   1.918
68286W        W40711  36.099   8.804  14.369
68287W        W40712  23.536   7.366  14.546
68288W        W40713  41.070  24.328   5.074
68289W        W40714  36.116  21.691   1.861
68290W        W40715  11.663  38.556  12.000
68291W        W40716  17.793   2.372  12.488
68292W        W40717  17.503  39.943  10.708
68293W        W40718   5.443  13.961  14.147
68294W        W40719  42.358   1.900   5.072
68295W        W40720  13.828  23.295   2.829
68296W        W40721  12.372  12.272  13.355
68297W        W40722  30.014  36.807  14.244
68298W        W40723  33.884  21.731   4.894
68299W        W40724  38.289  16.195   3.273
68300W        W40725  39.052   7.322   4.029
68301W        W40726   1.454   7.744   3.194
68302W        W40727  26.800  10.061   3.071
68303W        W40728   1.835  34.341   2.233
68304W        W40729   4.230   4.873  13.048
68305W        W40730   4.291   2.276   2.701
68306W        W40731  34.561  33.082   4.232
68307W        W40732  32.001  42.329   3.316
68308W        W40733  28.813  11.610   3.399
68309W        W40734  30.975  38.800   0.364
68310W        W40735  17.074   2.488   5.378
68311W        W40736  32.505   3.526   3.919
68312W        W40737  12.438  39.904  11.716
68313W        W40738  10.280  18.629  14.361
68314W        W40739  17.113  15.048   1.889
68315W        W40740  28.992  26.786   5.081
68316W        W40741  23.962   3.773   2.855
68317W        W40742  10.840  29.615   2.602
68318W        W40743   9.871  41.867   4.785
68319W        W40744  20.285  34.333  11.592
68320W        W40745   6.187  42.070  12.951
68321W        W40746  23.216  31.494  12.089
68322W        W40747  37.075   5.720  14.950
68323W        W40748  34.804   9.820   4.390
68324W        W40749  44.342  36.014   1.795
68325W        W40750  11.929   1.033   3.151
68326W        W40751  39.830   4.295   4.327
68327W        W40752  42.613  36.905  11.053
68328W        W40753  41.143  17.618  14.091
68329W        W40754  22.257   8.478  13.890
68330W        W40755  20.585  44.408   0.470
68331W        W40756  25.050  15.363   4.094
68332W        W40757  23.507   8.392  12.137
68333W        W40758  23.233  22.176  14.986
68334W        W40759  16.250  33.529  11.995
68335W        W40760  27.640  31.185   3.165
68336W        W40761  29.733  12.696  11.473
68337W        W40762  32.314  33.900  13.538
68338W        W40763   6.027   7.805  12.501
68339W        W40764  27.836  27.550  11.712
68340W        W40765  22.459  38.893   2.648
68341W        W40766   6.648  14.982   0.324
68342W        W40767  16.060  31.898  11.142
68343W        W40768  38.264  39.301   1.383
68344W        W40769  14.826  40.134  13.893
68345W        W40770  34.868  39.045   0.784
68346W        W40771  31.930  38.919  12.842
68347W        W40772   1.162  16.403  11.627
68348W        W40773  25.454  29.934   2.659
68349W        W40774   3.474  18.752   3.312
68350W        W40775  29.876  26.475   4.150
68351W        W40776  23.464  20.214  11.644
68352W        W40777  26.005  12.222   0.204
68353W        W40778  14.242  21.947  11.212
68354W        W40779  12.103  39.810  13.195
68355W        W40780  36.138   2.074   1.621
68356W        W40781  11.087  12.679  11.071
68357W        W40782  11.235  34.029  13.782
68358W        W40783  40.321  32.258   1.752
68359W        W40784  37.802  35.813   1.325
68360W        W40785  33.417  44.365  13.703
68361W        W40786  31.349   5.382   3.912
68362W        W40787  25.531  26.492  13.789
68363W        W40788  26.958  14.570  13.532
68364W        W40789  34.442  42.731   3.113
68365W        W40790  38.576  16.024  11.106
68366W        W40791  36.343  40.073   3.631
68367W        W40792  27.166  28.180   2.321
68368W        W40793  25.997  36.460   1.242
68369W        W40794   2.708  44.959  13.560
68370W        W40795  16.687  31.661   2.625
68371W        W40796   6.808  38.849   3.413
68372W        W40797   9.404  20.826  10.624
68373W        W40798  32.264  43.548  14.967
68374W        W40799  38.934  32.672   4.544
68375W        W40800  22.861  23.608   2.620
68376W        W40801  22.052  34.686  12.802
68377W        W40802  41.987  15.704   1.730
68378W        W40803  25.254  36.036   9.822
68379W        W40804  28.170  22.527  10.252
68380W        W40805  38.780   8.755  11.687
68381W        W40806  18.553  11.544  12.423
68382W        W40807  14.374  29.475   2.836
68383W        W40808  17.490  19.612  14.418
68384W        W40809   2.477  44.610   2.306
68385W        W40810   5.258  38.112  14.400
68386W        W40811  20.341  18.709   1.420
68387W        W40812  19.866  27.151  10.675
68388W        W40813   0.933   8.257   3.701
68389W        W40814  28.101  31.020   1.643
68390W        W40815  36.487   2.837  13.926
68391W        W40816  10.894  40.969  11.622
68392W        W40817  41.323   1.356   4.285
68393W        W40818  23.933   8.767   5.411
68394W        W40819  41.939  12.187  12.337
68395W        W40820  38.315  30.958   0.809
68396W        W40821  11.803  14.200   1.995
68397W        W40822  38.681  13.144  10.172
68398W        W40823  28.613  19.101  14.501
68399W        W40824  23.529  31.334   3.775
68400W        W40825   4.474  41.865   0.061
68401W        W40826  28.850   3.735  14.298
68402W        W40827   1.284  27.913  12.383
68403W        W40828  32.409  39.924  14.539
68404W        W40829  38.000   5.718   4.640
68405W        W40830   8.283  34.205  13.369
68406W        W40831  24.365  17.363   2.153
68407W        W40832  30.666  18.040   0.945
68408W        W40833   9.124  19.666  13.048
68409W        W40834   0.403  20.769   3.598
68410W        W40835  24.247  35.660   4.800
68411W        W40836  30.036   9.998  13.365
68412W        W40837  21.955   2.179   4.407
68413W        W40838  42.967  42.390   3.345
68414W        W40839  24.571   1.834  12.083
68415W        W40840  26.450  31.949  10.652
68416W        W40841  26.688  25.732  10.795
68417W        W40842  14.118  18.006   3.620
68418W        W40843  11.332  12.556   0.516
68419W        W40844  15.781  18.889   1.553
68420W        W40845  22.007  26.640  14.318
68421W        W40846  34.983  37.577  13.398
68422W        W40847  40.373  41.534   4.032
68423W        W40848  28.157   3.305   2.914
68424W        W40849  26.958  41.973   4.116
68425W        W40850  44.375   2.064   3.712
68426W        W40851   1.099  38.148   0.210
68427W        W40852  25.624  12.923   4.045
68428W        W40853  20.324  10.517  12.715
68429W        W40854  36.075  33.918  11.390
68430W        W40855  11.947   6.827   3.353
68431W        W40856  37.270  40.021   0.785
68432W        W40857  25.830  17.501  14.353
68433W        W40858  38.545  37.379   3.557
68434W        W40859  14.122   2.305  13.939
68435W        W40860  41.284   0.933  12.658
68436W        W40861  29.811  13.014  10.269
68437W        W40862  38.879  21.239   3.364
68438W        W40863  12.811  24.630   2.191
68439W        W40864  42.336  11.150   4.095
68440W        W40865   6.959  29.494  11.093
68441W        W40866  28.025   3.688  14.720
68442W        W40867  38.811  37.206  11.003
68443W        W40868  40.909   9.638   4.605
68444W        W40869  17.336  43.702   3.918
68445W        W40870  14.341   4.114   4.070
68446W        W40871  21.801   3.909   4.191
68447W        W40872  29.144  37.601   2.422
68448W        W40873  15.014  19.708   2.687
68449W        W40874  34.016   9.645   3.857
68450W        W40875  35.214  42.974   0.836
68451W        W40876  39.605  10.850   1.746
68452W        W40877  43.458  20.991  10.599
68453W        W40878  42.977  42.710  12.505
68454W        W40879  28.474  28.683   0.000
68455W        W40880   7.321  33.359   1.818
68456W        W40881  44.910   9.717   4.126
68457W        W40882   1.009  41.280  11.500
68458W        W40883  12.168  40.306  11.481
68459W        W40884  32.125  17.105   3.737
68460W        W40885   4.380   7.439   0.909
68461W        W40886  30.387  24.691   4.674
68462W        W40887  41.409  36.827  11.434
68463W        W40888  20.792  13.268  11.548
68464W        W40889   3.237   2.004   3.778
68465W        W40890  40.071  31.066   3.689
68466W        W40891  12.320   5.292   2.260
68467W        W40892  19.745  44.972   1.301
68468W        W40893  23.134   4.128  13.673
68469W        W40894  17.649   3.239   1.373
68470W        W40895  42.052  40.355   3.250
68471W        W40896  14.163  29.944   2.706
68472W        W40897  33.629  30.059   0.834
68473W        W40898   7.518   0.801   5.077
68474W        W40899  25.196  43.973   3.058
68475W        W40900  18.805   3.268   4.675
68476W        W40901  15.339  36.890  14.803
68477W        W40902  31.501  33.907  11.627
68478W        W40903  43.398  17.762   4.489
68479W        W40904  37.384  23.609   1.458
68480W        W40905  39.409  27.945  10.501
68481W        W40906   4.667  14.741   2.456
68482W        W40907   0.852  33.643  14.299
68483W        W40908  39.349  14.992   1.841
68484W        W40909  31.567  30.318   0.146
68485W        W40910  12.716  44.912   2.219
68486W        W40911   8.175  33.181  11.056
68487W        W40912  15.687   3.840  10.761
68488W        W40913  38.637  25.069  14.942
68489W        W40914  18.523  23.192  10.581
68490W        W40915  43.248  10.031   2.105
68491W        W40916  22.539  13.160   2.681
68492W        W40917   9.175  19.329   2.119
68493W        W40918  19.149   3.786  13.934
68494W        W40919   4.801   3.749  14.351
68495W        W40920  27.217  44.758  12.034
68496W        W40921   9.934  12.751   0.798
68497W        W40922  41.932  39.201  12.893
68498W        W40923  23.883  29.441  11.126
68499W        W40924  16.378  23.646   4.725
68500W        W40925  12.166  38.857   4.149
68501W        W40926  16.692  24.527  10.629
68502W        W40927  12.664  44.752   0.809
68503W        W40928  15.600  27.949  12.669
68504W        W40929  29.058   5.944  14.142
68505W        W40930  15.809   5.590   2.364
68506W        W40931  18.141  25.033   0.925
68507W        W40932   6.008  17.019   3.740
68508W        W40933   4.819  32.137   5.062
68509W        W40934  39.426  19.053   1.737
68510W        W40935  13.907  19.615  10.379
68511W        W40936  31.941  28.040   4.628
68512W        W40937  35.124   9.144  14.495
68513W        W40938  36.027  33.432   1.230
68514W        W40939  42.177   4.699  12.057
68515W        W40940  14.238   6.145   0.634
68516W        W40941  25.420   7.825  11.593
68517W        W40942   6.883  44.241  12.015
68518W        W40943  25.122  10.426  12.477
68519W        W40944  35.581  31.957  12.964
68520W        W40945  34.518  28.301  12.068
68521W        W40946  19.586  13.938   2.313
68522W        W40947  32.039  13.622   0.852
68523W        W40948  33.823  34.522   0.904
68524W        W40949  19.019  42.745  13.912
68525W        W40950  34.959  26.873  13.708
68526W        W40951  38.352  44.203   1.743
68527W        W40952   8.898  25.962  14.227
68528W        W40953   1.182   6.954  13.836
68529W        W40954  42.554  41.355  13.030
68530W        W40955   6.021  21.486  13.336
68531W        W40956  38.838  14.677   0.985
68532W        W40957  24.218  17.514  13.904
68533W        W40958  28.384  23.418  13.327
68534W        W40959  43.335  21.116   2.059
68535W        W40960  29.466   0.984  10.689
68536W        W40961   1.567  39.126  11.095
68537W        W40962  42.852   0.714   9.879
68538W        W40963  24.389  29.205  13.118
68539W        W40964   0.783  11.059   2.312
68540W        W40965  25.446   0.762  14.401
68541W        W40966  33.549  31.154  11.668
68542W        W40967  26.036  25.291   0.292
68543W        W40968   4.280  30.630   1.196
68544W        W40969   6.673  10.738  13.393
68545W        W40970   2.549  43.533  14.840
68546W        W40971   3.270  34.372  14.073
68547W        W40972  32.458  27.022  13.035
68548W        W40973  42.955  38.379  12.343
68549W        W40974  31.096   3.734   1.983
68550W        W40975   5.176  32.517  13.675
68551W        W40976  42.403  29.360   4.936
68552W        W40977  34.867  41.811   4.832
68553W        W40978  10.846   2.836   2.291
68554W        W40979  36.203  27.560  14.139
68555W        W40980  30.302  11.709   0.455
68556W        W40981  40.801  10.083  11.571
68557W        W40982  32.025   3.698   2.327
68558W        W40983  39.908  25.087   0.774
68559W        W40984  11.696   1.203  11.051
68560W        W40985  29.112  28.108  14.008
68561W        W40986  15.331   1.194  11.983
68562W        W40987  43.532  12.126  10.646
68563W        W40988  34.524  38.350  10.739
68564W        W40989  33.633  11.007  10.949
68565W        W40990   4.722  32.386   0.494
68566W        W40991   8.296  15.016  13.130
68567W        W40992  43.818   4.222  13.503
68568W        W40993   3.760  37.600  11.450
68569W        W40994  25.967  11.300   3.809
68570W        W40995  39.337  37.633  11.180
68571W        W40996  26.275  22.543   4.257
68572W        W40997  28.710  34.741   0.892
68573W        W40998  10.325  36.146  14.455
68574W        W40999  12.928  43.451   4.174
68575W        W41000  29.638  22.938  14.626
68576W        W41001  12.921  12.568  14.925
68577W        W41002   9.893  35.865  13.779
68578W        W41003  25.577  14.226   1.784
68579W        W41004   4.265  19.481   2.998
68580W        W41005  36.701   4.354   3.171
68581W        W41006  14.231  23.088  11.126
68582W        W41007  23.189   5.332  12.523
68583W        W41008  26.664  29.590   1.518
68584W        W41009  11.716  15.106   0.942
68585W        W41010  15.075  12.740  14.989
68586W        W41011  11.415   6.681   3.297
68587W        W41012  21.062  19.149  10.558
68588W        W41013  18.984  15.750  11.608
68589W        W41014  42.589  32.665   0.830
68590W        W41015  12.229  36.398   1.774
68591W        W41016   5.430  24.600  13.223
68592W        W41017  13.005  30.620   2.731
68593W        W41018  29.196  27.690  12.014
68594W        W41019  35.875  26.981   0.268
68595W        W41020  17.694  31.707   5.091
68596W        W41021  20.710  37.650  14.293
68597W        W41022  18.995   9.307   1.931
68598W        W41023  17.834  27.987   2.372
68599W        W41024  17.085   3.736   3.250
68600W        W41025   2.662  28.424   1.500
68601W        W41026  30.024  13.182  13.123
68602W        W41027  23.264  15.807   0.535
68603W        W41028  36.354  21.197   1.705
68604W        W41029  39.094  25.091   3.296
68605W        W41030   6.615  13.765   2.849
68606W        W41031   5.077  40.840  10.468
68607W        W41032  30.517  22.627  14.372
68608W        W41033   6.698   7.294   1.680
68609W        W41034  32.312  28.597   1.547
68610W        W41035  43.891  24.443   4.643
68611W        W41036  31.161  18.129   1.822
68612W        W41037   0.233  20.926  13.107
68613W        W41038  24.271  13.169   2.741
68614W        W41039  42.190  32.155  12.025
68615W        W41040  15.164  28.061   5.028
68616W        W41041  17.093  43.718  12.055
68617W        W41042  22.016   7.866  12.536
68618W        W41043  28.363  18.994   2.316
68619W        W41044  16.745  44.998  10.243
68620W        W41045  28.610  41.763  12.889
68621W        W41046   6.466  40.468   4.171
68622W        W41047  33.662  22.054  13.942
68623W        W41048  34.808  29.647   9.797
68624W        W41049  24.469  24.875  14.286
68625W        W41050  17.703  28.627  12.891
68626W        W41051  10.885  35.930   0.975
68627W        W41052  32.954  39.755   1.762
68628W        W41053  44.891   6.238  12.643
68629W        W41054  24.295  31.614  13.812
68630W        W41055   1.122  15.320   0.267
68631W        W41056  29.224  11.805   3.836
68632W        W41057  25.465  11.582   1.254
68633W        W41058   0.255  32.709  12.233
68634W        W41059  29.059  10.168  11.477
68635W        W41060  20.020  21.699   2.407
68636W        W41061  22.606  28.822  13.099
68637W        W41062  16.446   3.735  11.109
68638W        W41063  43.787  34.530  12.720
68639W        W41064   0.254   0.123   4.020
68640W        W41065  29.704  28.650  10.627
68641W        W41066  32.049  27.982  10.688
68642W        W41067  26.416  40.252   0.292
68643W        W41068  23.262   6.086  14.491
68644W        W41069  24.198   5.271  12.365
68645W        W41070  10.841  17.104   0.988
68646W        W41071   2.804   6.882   4.038
68647W        W41072  10.822  33.424  11.608
68648W        W41073  31.496  26.560  12.353
68649W        W41074  24.647  13.281   0.683
68650W        W41075   9.854  44.713   4.149
68651W        W41076  37.614   2.200   0.475
68652W        W41077  27.215  41.033   2.113
68653W        W41078   5.069  25.275   3.623
68654W        W41079  32.839  39.973  14.273
68655W        W41080  24.047   1.140  10.203
68656W        W41081  33.298   6.733   1.433
68657W        W41082   7.516  24.770   1.789
68658W        W41083   6.345   1.184  11.067
68659W        W41084  34.237   5.883   2.230
68660W        W41085  16.111  21.650  13.662
68661W        W41086  30.367  14.919   4.203
68662W        W41087  18.959  30.576  14.965
68663W        W41088   3.424   8.021   1.402
68664W        W41089  18.989  14.166   4.125
68665W        W41090  43.587  34.404   3.680
68666W        W41091   8.208   0.836   4.110
68667W        W41092   3.598   4.151  12.047
68668W        W41093   0.327  25.256  13.448
68669W        W41094  44.105   0.666   0.907
68670W        W41095  13.535   0.380  11.055
68671W        W41096  29.011  16.747   2.362
68672W        W41097  36.316  33.334   2.898
68673W        W41098   2.791  42.186   4.132
68674W        W41099  30.386  38.369  12.691
68675W        W41100  22.402  17.021  11.004
68676W        W41101  12.446  26.966  13.980
68677W        W41102  43.187  15.640   3.654
68678W        W41103   7.350  37.381   5.505
68679W        W41104   2.044   9.380   3.628
68680W        W41105  41.880  37.096   3.159
68681W        W41106  13.406  41.104   4.444
68682W        W41107  19.667  42.075   3.464
68683W        W41108  34.785   4.820   2.400
68684W        W41109   3.914  39.274   0.884
68685W        W41110  43.347  12.711   3.129
68686W        W41111  36.808  20.588  14.325
68687W        W41112  23.234   5.927   3.232
68688W        W41113  11.147  31.402  11.583
68689W        W41114  27.735  25.271  12.722
68690W        W41115   0.765  15.642   0.967
68691W        W41116  27.045  24.110  14.928
68692W        W41117   6.785  18.806   2.301
68693W        W41118  40.308  33.159   1.297
68694W        W41119  23.102  14.105  11.311
68695W        W41120  43.436  15.103  13.943
68696W        W41121   1.428  17.314   3.670
68697W        W41122  11.764  27.982   1.278
68698W        W41123  33.683  14.238   0.335
68699W        W41124   8.937  43.947   2.792
68700W        W41125  27.488   5.456   2.377
68701W        W41126  30.710  41.281  11.248
68702W        W41127  34.794  14.097  13.830
68703W        W41128  32.444  43.669   2.195
68704W        W41129  19.663  12.339  14.543
68705W        W41130  40.898  27.924  14.315
68706W        W41131  36.236   4.431   3.415
68707W        W41132  26.547  23.117  11.928
68708W        W41133  15.669  38.419   1.829
68709W        W41134  44.420  34.668   3.203
68710W        W41135  17.423  32.872  11.645
68711W        W41136   4.334   6.927  12.122
68712W        W41137  12.723  19.285  12.409
68713W        W41138  18.285  24.732  13.597
68714W        W41139  28.305  10.719   3.577
68715W        W41140  22.225  26.290   0.263
68716W        W41141  33.075  43.856   3.176
68717W        W41142  39.577  27.522   2.883
68718W        W41143  30.553  23.994  14.349
68719W        W41144   7.712  16.836   1.717
68720W        W41145  28.153  35.473   2.662
68721W        W41146   3.841   1.196  11.635
68722W        W41147  41.118  21.573  12.524
68723W        W41148  44.543  37.310   9.882
68724W        W41149  36.668   6.206   1.277
68725W        W41150  31.037  26.421  13.876
68726W        W41151  42.051  26.981  10.651
68727W        W41152  43.202  31.464   1.183
68728W        W41153  20.735   9.731   1.784
68729W        W41154  11.809   5.443  14.821
68730W        W41155   8.414   9.316  13.453
68731W        W41156  18.665  21.106  10.391
68732W        W41157  41.828   4.307  13.961
68733W        W41158   8.804  32.666   0.276
68734W        W41159   7.292  24.939  13.447
68735W        W41160  39.520   6.954  13.015
68736W        W41161  40.832  19.503  10.490
68737W        W41162  10.717   9.390   5.083
68738W        W41163  26.413   6.277  11.106
68739W        W41164  34.398  32.490  11.986
68740W        W41165  33.907   4.745  11.182
68741W        W41166  38.230  43.954  13.467
68742W        W41167  24.780  11.329  11.129
68743W        W41168  25.220  36.141  11.815
68744W        W41169  32.095  36.932   4.350
68745W        W41170  16.025  17.029   0.402
68746W        W41171   7.641  33.104   2.814
68747W        W41172  11.907  30.149   3.339
68748W        W41173  33.106  11.971  10.612
68749W        W41174  19.281  25.615  14.088
68750W        W41175   7.295  39.829   4.375
68751W        W41176   5.186  15.324   0.360
68752W        W41177  15.966  17.118  11.230
68753W        W41178  41.748   3.662  10.599
68754W        W41179  41.412  38.413  14.638
68755W        W41180  43.081   0.711   3.303
68756W        W41181   5.482  23.918   4.580
68757W        W41182  24.913  19.648  11.830
68758W        W41183  42.478   5.825   4.164
68759W        W41184  17.595  25.604   2.947
68760W        W41185  33.540   5.700   3.446
68761W        W41186  39.316  10.754  11.080
68762W        W41187  11.115  29.704   4.658
68763W        W41188  11.803  29.012  10.761
68764W        W41189  28.534  37.361   0.379
68765W        W41190   2.557   3.566  13.103
68766W        W41191  16.479  42.831   3.674
68767W        W41192  15.623  36.665   3.351
68768W        W41193  27.881  19.156   1.060
68769W        W41194  22.651  43.028  10.529
68770W        W41195  35.446  28.081   1.562
68771W        W41196   7.062  38.338  14.020
68772W        W41197   5.766  23.539   4.225
68773W        W41198  33.023  18.020  12.422
68774W        W41199  39.933  18.252   3.993
68775W        W41200  15.834  25.502  12.190
68776W        W41201  16.201  10.393   2.583
68777W        W41202  36.012  19.064   1.205
68778W        W41203  27.022  42.705  10.713
68779W        W41204   3.013   8.037   2.327
68780W        W41205   5.513  17.134   3.816
68781W        W41206  33.481   5.887   2.954
68782W        W41207  37.607  11.441   0.923
68783W        W41208  15.159  15.272  12.875
68784W        W41209  31.218   1.967   2.944
68785W        W41210   3.946  28.432   1.849
68786W        W41211  12.657  38.490   2.960
68787W        W41212  30.401  22.328   3.721
68788W        W41213  21.476  28.887   1.292
68789W        W41214   3.190  38.390   2.191
68790W        W41215  16.135   1.502  10.000
68791W        W41216  35.636  10.872  12.535
68792W        W41217  43.507  30.496   1.955
68793W        W41218  38.981   4.437  12.531
68794W        W41219  24.669  42.614   3.619
68795W        W41220  38.303  37.726   1.202
68796W        W41221  37.803  11.675  12.015
68797W        W41222  21.178  43.547  11.888
68798W        W41223   9.133  20.805  11.587
68799W        W41224  35.920  15.711  13.802
68800W        W41225  41.322  20.571   1.395
68801W        W41226  26.025  25.187   2.715
68802W        W41227  32.955  31.693  11.533
68803W        W41228   1.886  41.343   2.592
68804W        W41229  24.683  10.126  12.476
68805W        W41230  14.710   8.036   1.709
68806W        W41231  31.953   9.431   4.970
68807W        W41232  22.535  22.896   3.200
68808W        W41233  20.040  40.321   1.830
68809W        W41234   3.831   8.370   2.409
68810W        W41235  20.511  22.759   4.742
68811W        W41236  30.401  39.587  12.795
68812W        W41237   5.782   8.777  12.519
68813W        W41238  28.222   9.993   5.043
68814W        W41239  38.554   6.724  14.159
68815W        W41240   6.922  39.779   4.779
68816W        W41241  12.118  35.469   4.690
68817W        W41242  12.644   1.761  10.508
68818W        W41243  41.948   8.797   4.073
68819W        W41244   2.390  39.412  10.720
68820W        W41245  30.358  12.228   3.104
68821W        W41246  21.499  35.754  11.602
68822W        W41247  39.021  33.304  14.306
68823W        W41248  34.155   5.537  14.489
68824W        W41249  16.064  23.737  12.080
68825W        W41250  35.806  25.537  12.316
68826W        W41251   4.648  27.773  10.296
68827W        W41252  17.226  23.293   1.551
68828W        W41253  19.519  18.484   4.870
68829W        W41254  40.073  40.094   2.160
68830W        W41255  16.621  31.886   4.929
68831W        W41256  40.749  31.343  14.517
68832W        W41257  23.760  10.833  13.984
68833W        W41258  26.551  34.366  10.569
68834W        W41259  22.219  28.955   3.677
68835W        W41260   5.860  18.923  12.505
68836W        W41261  33.163  22.001  14.099
68837W        W41262   4.032  32.545  10.806
68838W        W41263  39.163  32.668   0.540
68839W        W41264  15.864   1.434  12.848
68840W        W41265   5.234   6.128  12.074
68841W        W41266  27.008   8.253   3.866
68842W        W41267  39.350   1.225   0.370
68843W        W41268  36.477  34.957   1.875
68844W        W41269  38.828  17.793  13.150
68845W        W41270  23.142   4.931   0.974
68846W        W41271   2.185  38.967  10.467
68847W        W41272  26.464  28.778  11.177
68848W        W41273  26.404  39.873   2.850
68849W        W41274  20.975  22.269   1.303
68850W        W41275  15.359   8.625   1.781
68851W        W41276   3.436  41.990  11.372
68852W        W41277  28.896  30.467   0.028
68853W        W41278  21.637   5.545  10.705
68854W        W41279  44.701  44.917   2.351
68855W        W41280  20.161  34.657  11.213
68856W        W41281   1.561  12.680   1.965
68857W        W41282  38.549   7.903  10.931
68858W        W41283  40.330  26.757  14.601
68859W        W41284  35.055  12.086   0.960
68860W        W41285  13.114  40.209   2.050
68861W        W41286  22.752  33.248  10.180
68862W        W41287  31.995   6.661  12.513
68863W        W41288  15.126  28.890   3.801
68864W        W41289   8.699  26.474   5.115
68865W        W41290   3.679  31.033  13.377
68866W        W41291  16.478  21.504  10.662
68867W        W41292   9.923   4.811  13.917
68868W        W41293  12.316  13.096   4.187
68869W        W41294  27.098  44.397  13.051
68870W        W41295  28.849  10.654  13.114
68871W        W41296  10.161  15.742  11.956
68872W        W41297  36.544  11.794  14.068
68873W        W41298  19.520  12.805  14.739
68874W        W41299  36.988  32.978  12.988
68875W        W41300  13.937  14.695  13.535
68876W        W41301  40.239  35.948   3.430
68877W        W41302  17.036  13.725   0.926
68878W        W41303  36.267   8.759  11.720
68879W        W41304  38.981  37.666   3.609
68880W        W41305  23.053  39.099   3.587
68881W        W41306  17.194   3.606  12.322
68882W        W41307   0.361  43.719   3.916
68883W        W41308  18.286  11.818  10.735
68884W        W41309  41.329  38.257  10.377
68885W        W41310  27.942  15.433   0.946
68886W        W41311  27.743  44.004  12.057
68887W        W41312  38.564  23.019  10.148
68888W        W41313  15.933  38.431   3.603
68889W        W41314  31.018  43.920   1.536
68890W        W41315   3.517  27.146   4.610
68891W        W41316  20.175  27.554  14.451
68892W        W41317  26.416  27.017   2.188
68893W        W41318   8.861  31.064   3.124
68894W        W41319  37.484  14.819  10.396
68895W        W41320  19.607  23.742   3.253
68896W        W41321  23.467  25.525  13.870
68897W        W41322  27.933  40.541   1.007
68898W        W41323  28.068   7.589  10.239
68899W        W41324  38.270   2.351   4.095
68900W        W41325  33.260  11.657  13.912
68901W        W41326  21.999  15.241   0.010
68902W        W41327  13.439  13.341   4.172
68903W        W41328  15.544   9.380  11.947
68904W        W41329  35.932  26.582   3.348
68905W        W41330  25.538  18.696  13.000
68906W        W41331   1.049  29.441  12.861
68907W        W41332  23.500  10.714   4.116
68908W        W41333  42.423  30.563   4.296
68909W        W41334  21.349  14.088  12.819
68910W        W41335  24.325  29.701  12.064
68911W        W41336  39.238  17.386  12.211
68912W        W41337  18.597  42.862   2.246
68913W        W41338  29.788  38.401   4.582
68914W        W41339  10.555  18.777   0.746
68915W        W41340   4.410  30.053   2.294
68916W        W41341  37.436   7.854  11.548
68917W        W41342  40.294   5.793   0.805
68918W        W41343  31.127  18.615  13.312
68919W        W41344  38.603   5.247  11.643
68920W        W41345  13.114  27.030  12.791
68921W        W41346  31.069  37.609   1.444
68922W        W41347   2.853  11.916   4.742
68923W        W41348  36.636  16.924   1.433
68924W        W41349  28.883  11.825  11.573
68925W        W41350  36.122   1.812  13.944
68926W        W41351  38.805  16.513   2.800
68927W        W41352  39.986   2.746  12.512
68928W        W41353  13.824  23.082  10.813
68929W        W41354   2.416  16.279  11.953
68930W        W41355   9.796  23.682  13.286
68931W        W41356  31.800   4.164   2.290
68932W        W41357  10.693  29.966   0.782
68933W        W41358  32.047  11.805  10.714
68934W        W41359  41.031  34.319  11.108
68935W        W41360  30.146  25.004   0.937
68936W        W41361  18.656  34.832  14.028
68937W        W41362   6.894   0.686   2.144
68938W        W41363  14.260  31.947  10.606
68939W        W41364  11.361  43.688   1.423
68940W        W41365  34.905  23.967   1.024
68941W        W41366  14.037  20.226  14.258
68942W        W41367   7.627  37.527   2.368
68943W        W41368   9.656  32.992  10.927
68944W        W41369   6.073  43.083   1.141
68945W        W41370  34.003  33.889  13.991
68946W        W41371  17.724  15.035  11.389
68947W        W41372  30.574  28.128   4.256
68948W        W41373  31.664  14.184  10.646
68949W        W41374  39.437  32.939  12.448
68950W        W41375  26.173   2.871   4.384
68951W        W41376  27.050  29.234  14.913
68952W        W41377  42.956  29.227   2.793
68953W        W41378  35.036  20.995   4.579
68954W        W41379  12.209   4.736  11.091
68955W        W41380  37.153  27.227   3.627
68956W        W41381  14.062  19.702   2.247
68957W        W41382   3.788  14.748  11.671
68958W        W41383   8.744  16.049   0.766
68959W        W41384   6.164  42.458  13.361
68960W        W41385  44.406  27.231  14.538
68961W        W41386  18.990   1.762   2.285
68962W        W41387  10.842  21.766  14.830
68963W        W41388  24.071   1.701  13.674
68964W        W41389   8.963  11.113  14.167
68965W        W41390  35.002  23.816  13.846
68966W        W41391  26.044  40.006   4.392
68967W        W41392  35.900  24.478   3.284
68968W        W41393   3.907  29.957   1.182
68969W        W41394  33.535  12.848  14.121
68970W        W41395   0.019  29.106   2.928
68971W        W41396  16.850   8.252  10.431
68972W        W41397  18.702  43.805   2.343
68973W        W41398  14.256  31.143   0.270
68974W        W41399  37.409  41.579  10.636
68975W        W41400  13.678  24.811  13.099
68976W        W41401  18.931  21.164   0.584
68977W        W41402   6.992  17.729   2.327
68978W        W41403   7.227  16.363  12.030
68979W        W41404   0.284   5.954  12.033
68980W        W41405  32.866   0.530   1.458
68981W        W41406  24.506  32.634   1.233
68982W        W41407  24.426  14.700  13.891
68983W        W41408   6.997  17.359   1.027
68984W        W41409  39.324  43.086  14.946
68985W        W41410   5.230  16.631  10.357
68986W        W41411   6.433  19.116  10.686
68987W        W41412  39.247   8.251  12.043
68988W        W41413   7.854  12.398   0.323
68989W        W41414  22.768  30.901  11.544
68990W        W41415  34.440  29.205  14.838
68991W        W41416  38.512  25.015   0.445
68992W        W41417  26.675  44.978   1.937
68993W        W41418  21.997  28.119  13.368
68994W        W41419  44.244  25.258   4.147
68995W        W41420  32.075  13.334  14.230
68996W        W41421   7.212   9.152   2.906
68997W        W41422  30.642  35.264   3.342
68998W        W41423  18.240  14.798   4.101
68999W        W41424  16.176   2.860   3.700
69000W        W41425  25.493  14.096  12.049
69001W        W41426  22.325  34.079   1.163
69002W        W41427   2.247   7.588   0.904
69003W        W41428  21.726  29.635   4.228
69004W        W41429  15.970  23.437   2.201
69005W        W41430  26.080  12.408   4.621
69006W        W41431  44.555  32.055  13.360
69007W        W41432  31.477   7.207   2.306
69008W        W41433  37.057   2.928  11.978
69009W        W41434  17.611  35.588  12.977
69010W        W41435  32.936  38.040   4.621
69011W        W41436  36.466   3.789   2.761
69012W        W41437  39.573  29.291  11.614
69013W        W41438  39.829  34.855  10.731
69014W        W41439   5.332  27.706   3.815
69015W        W41440  30.425  28.483  13.399
69016W        W41441  30.054   0.037   0.395
69017W        W41442  15.702   5.818  14.467
69018W        W41443  37.778  38.399  11.614
69019W        W41444  32.192  22.103   4.894
69020W        W41445  28.647  29.681  11.100
69021W        W41446  23.261  12.232   1.302
69022W        W41447   0.529  34.534  10.898
69023W        W41448  28.515  33.317   3.737
69024W        W41449  27.846  35.867  10.199
69025W        W41450  35.828  38.936   1.657
69026W        W41451  15.811  24.249  12.920
69027W        W41452  31.633  17.273   3.684
69028W        W41453  16.677  44.816  10.755
69029W        W41454   6.218  38.395  11.488
69030W        W41455  42.925   4.883  14.383
69031W        W41456  11.618  30.172  12.890
69032W        W41457   9.290  12.168  14.908
69033W        W41458  41.772  11.276  11.842
69034W        W41459  34.697   5.356   1.178
69035W        W41460  10.281  31.723   3.149
69036W        W41461  15.497  21.173  10.662
69037W        W41462  14.246  19.920   0.768
69038W        W41463  26.475  20.264  12.463
69039W        W41464  10.050  28.145   0.744
69040W        W41465   0.177  23.060  13.370
69041W        W41466   6.874  36.168  10.233
69042W        W41467  28.727  21.698   0.323
69043W        W41468   1.394  25.475   2.404
69044W        W41469  14.671  39.332   0.476
69045W        W41470  20.041  20.929  13.066
69046W        W41471  37.874   1.646   3.660
69047W        W41472  31.661  16.028  13.537
69048W        W41473  28.623  20.618   3.838
69049W        W41474  34.352   0.708   2.151
69050W        W41475  24.010  17.212   0.127
69051W        W41476   5.681   8.851   2.189
69052W        W41477  28.460  16.110  14.497
69053W        W41478  32.958  18.509   5.447
69054W        W41479  41.547  18.607  14.893
69055W        W41480   1.505  29.151  10.785
69056W        W41481  16.762   6.275   1.965
69057W        W41482  38.319  27.543  12.072
69058W        W41483  14.356   7.396  10.701
69059W        W41484  15.641  27.600  11.332
69060W        W41485  23.964  44.895   4.658
69061W        W41486  13.427  11.608  10.573
69062W        W41487  30.372  24.978   2.588
69063W        W41488   8.060  14.817   3.559
69064W        W41489   6.920  41.821  11.209
69065W        W41490  20.818  27.144  12.857
69066W        W41491  36.007   6.490   4.599
69067W        W41492  22.180   8.330  13.045
69068W        W41493  21.626  21.044  11.398
69069W        W41494   1.386  43.328   2.654
69070W        W41495  44.173  34.347  14.883
69071W        W41496  19.252  33.628  14.370
69072W        W41497  31.125  34.103   3.955
69073W        W41498  11.343  35.431  12.520
69074W        W41499   7.708  24.520   4.737
69075W        W41500  28.699  26.133   2.774
69076W        W41501   7.845  27.732   1.990
69077W        W41502  15.212  18.616  11.284
69078W        W41503  12.924  17.585  14.545
69079W        W41504  18.787  32.086   0.514
69080W        W41505  16.016  26.019   1.974
69081W        W41506  25.877  21.246   2.233
69082W        W41507  19.068  37.879  13.844
69083W        W41508  40.519  13.227   0.461
69084W        W41509  39.437  36.827  12.917
69085W        W41510  35.346  23.272   2.962
69086W        W41511   1.828  25.178   2.341
69087W        W41512  32.892  13.313  11.375
69088W        W41513  34.957  15.654   3.661
69089W        W41514  36.483   3.032   5.305
69090W        W41515  31.519   2.329  14.933
69091W        W41516  21.531  28.370   1.271
69092W        W41517  31.451  17.172  10.658
69093W        W41518  30.666  42.240   2.786
69094W        W41519  41.167  24.490  11.547
69095W        W41520  33.654  21.565  10.418
69096W        W41521  20.758   6.788   3.651
69097W        W41522  25.667  19.292   4.650
69098W        W41523  38.256  20.193  13.512
69099W        W41524   9.485   5.148  14.269
69100W        W41525  18.799  29.767   0.812
69101W        W41526  11.700  40.871  13.983
69102W        W41527   3.277  30.655   1.258
69103W        W41528  38.850  27.614  10.762
69104W        W41529  39.456   2.839   2.859
69105W        W41530  36.063  35.094   2.148
69106W        W41531  44.253  35.344  14.765
69107W        W41532  35.680   9.631  14.989
69108W        W41533  27.692   9.310   2.946
69109W        W41534  13.222  29.932   1.297
69110W        W41535  43.090   2.361   4.084
69111W        W41536   0.332  44.967  12.449
69112W        W41537  34.437  11.061   4.524
69113W        W41538  29.501  32.026  14.410
69114W        W41539  25.704  34.870  13.023
69115W        W41540   3.418  36.481   3.347
69116W        W41541  28.321   4.755   0.393
69117W        W41542  41.873   3.616   3.232
69118W        W41543  21.641   8.625   3.592
69119W        W41544  22.791  20.098  14.163
69120W        W41545  19.023   5.277   3.592
69121W        W41546  14.819  20.236  10.648
69122W        W41547  28.602  21.288   4.107
69123W        W41548  27.616  15.248  13.829
69124W        W41549  20.055   9.237  10.434
69125W        W41550  44.779  21.182   0.457
69126W        W41551  29.502  16.821  10.002
69127W        W41552   8.180  37.257  13.783
69128W        W41553  34.861   2.791  14.405
69129W        W41554  26.969  41.731   0.315
69130W        W41555   9.364  17.665   4.531
69131W        W41556  16.601   5.253   2.240
69132W        W41557  43.156  32.532  12.012
69133W        W41558  13.162  13.196  11.813
69134W        W41559  41.741  34.345   4.645
69135W        W41560  43.751   1.059   0.940
69136W        W41561   3.668  32.556  14.869
69137W        W41562  11.086  43.751   2.308
69138W        W41563  44.639  31.019   1.922
69139W        W41564  13.254  22.016   4.604
69140W        W41565  23.184  11.361   4.993
69141W        W41566  32.894   5.457  14.845
69142W        W41567   3.955  25.065   3.208
69143W        W41568  24.688   7.356   3.512
69144W        W41569  13.307  29.134  14.243
69145W        W41570  12.117  32.997  11.404
69146W        W41571   4.477  40.504   2.380
69147W        W41572  22.473  36.469  14.074
69148W        W41573  43.578  12.655   3.602
69149W        W41574   0.941  38.374   1.969
69150W        W41575  21.100  22.200  11.657
69151W        W41576   9.359  38.805   1.773
69152W        W41577   8.775  16.057   2.569
69153W        W41578  40.676   5.785   4.216
69154W        W41579   4.729  27.423  12.408
69155W        W41580   4.432  42.446  14.739
69156W        W41581  43.453  31.951   0.506
69157W        W41582  35.031  24.508  10.860
69158W        W41583  15.572   1.817  12.605
69159W        W41584  30.196  20.672  11.365
69160W        W41585  32.366  29.151  12.879
69161W        W41586  22.752  19.193   0.272
69162W        W41587   1.622  13.168   2.148
69163W        W41588  43.616   4.471   2.669
69164W        W41589  42.677  24.281  13.056
69165W        W41590  36.814  37.493  11.418
69166W        W41591  19.956  23.486   3.622
69167W        W41592   9.887   4.473  11.997
69168W        W41593  17.431  17.911   2.593
69169W        W41594  33.319  14.752   0.927
69170W        W41595  11.145  19.086   3.149
69171W        W41596  27.011   4.831   4.246
69172W        W41597   8.757  15.366   3.125
69173W        W41598  43.749  35.136   3.735
69174W        W41599  37.853  14.066  10.560
69175W        W41600   5.630   9.334   3.595
69176W        W41601  23.940  10.754  13.523
69177W        W41602  18.867  32.943  12.501
69178W        W41603  44.251   1.889  13.534
69179W        W41604  14.620  11.543  11.071
69180W        W41605  19.786  37.385  13.601
69181W        W41606  17.223  35.359   1.737
69182W        W41607  37.122  11.177   2.883
69183W        W41608   1.637  10.303  10.659
69184W        W41609  15.297   1.822  14.508
69185W        W41610  21.696  10.988   0.258
69186W        W41611  23.723  23.580  14.011
69187W        W41612   5.150  18.362   1.252
69188W        W41613  20.823  16.770   4.122
69189W        W41614  29.265  10.617   1.088
69190W        W41615  38.870  32.539  10.842
69191W        W41616  44.511  43.868  12.820
69192W        W41617  12.758  19.058  13.972
69193W        W41618  43.723  22.159  10.787
69194W        W41619  22.192  42.258   1.285
69195W        W41620  22.975  19.737   3.689
69196W        W41621  24.976   6.234  13.369
69197W        W41622  15.234  33.388   3.438
69198W        W41623   4.911  43.000   3.584
69199W        W41624   7.460   1.296  14.330
69200W        W41625  32.907  37.279  14.795
69201W        W41626  35.959  40.801  13.637
69202W        W41627  24.141  23.623  13.691
69203W        W41628   5.913  34.105   3.733
69204W        W41629   2.229  10.800  12.616
69205W        W41630  33.015  24.075  12.411
69206W        W41631   1.214   9.334  13.034
69207W        W41632   2.728  39.049  11.890
69208W        W41633  41.557  41.957  13.266
69209W        W41634  19.609  16.873  12.171
69210W        W41635  17.722  16.310   0.531
69211W        W41636  21.128   4.474  12.740
69212W        W41637  32.210  19.091   5.028
69213W        W41638   3.496  40.620  13.971
69214W        W41639  27.308  25.111  12.393
69215W        W41640  25.647  29.628   3.025
69216W        W41641  42.942  33.024   4.055
69217W        W41642  43.306  11.716   4.614
69218W        W41643  34.627  38.086   3.633
69219W        W41644  12.668  31.487   3.098
69220W        W41645   9.868  20.611   4.084
69221W        W41646   6.786  30.479  14.692
69222W        W41647  13.932  12.008  11.269
69223W        W41648  39.067  23.726  11.086
69224W        W41649  25.485  35.538   2.133
69225W        W41650  13.270  18.064   0.092
69226W        W41651  21.601   5.499   4.556
69227W        W41652  16.058  30.357   0.423
69228W        W41653  17.107  12.452  11.959
69229W        W41654  10.917   1.844  14.038
69230W        W41655   0.211  39.965   0.674
69231W        W41656  31.368  30.675  13.000
69232W        W41657  31.499  10.737   3.442
69233W        W41658   2.809  14.588  11.188
69234W        W41659   5.178  37.512   4.621
69235W        W41660  37.261  38.969   4.427
69236W        W41661  36.872  43.387   4.893
69237W        W41662  39.067   7.889  11.622
69238W        W41663  29.659  11.094   4.859
69239W        W41664  39.798  14.335   4.003
69240W        W41665   6.291  15.875  12.103
69241W        W41666  25.987  19.691   4.593
69242W        W41667  34.947  18.875   4.229
69243W        W41668  14.145  10.888   0.772
69244W        W41669  24.940  26.059   0.664
69245W        W41670  42.908  35.860  11.749
69246W        W41671  21.969  42.413  13.459
69247W        W41672  34.691  26.920  12.908
69248W        W41673  38.903   5.901   3.300
69249W        W41674   6.445   3.613   3.574
69250W        W41675  11.434  19.300  13.892
69251W        W41676  33.955  38.463  11.382
69252W        W41677  42.378  35.764   3.970
69253W        W41678   6.740  10.738  14.799
69254W        W41679  31.751  43.058  12.278
69255W        W41680  22.010  30.038  14.893
69256W        W41681  42.349  20.562   0.332
69257W        W41682  10.685  27.401  11.167
69258W        W41683  43.893  12.428  13.894
69259W        W41684  41.006  39.793   3.708
69260W        W41685   5.146  21.864  12.402
69261W        W41686   7.345  27.644   3.736
69262W        W41687   7.441  21.951  12.519
69263W        W41688  26.966  37.145  13.080
69264W        W41689  19.177  11.589  12.408
69265W        W41690  11.296  35.364   4.149
69266W        W41691  12.058  27.120   4.222
69267W        W41692  18.344  22.271  12.838
69268W        W41693  11.222  31.704  12.001
69269W        W41694  40.493  29.513   1.714
69270W        W41695  28.616  15.315   0.374
69271W        W41696  39.766  36.865   2.273
69272W        W41697  30.997  34.401  13.719
69273W        W41698  32.491  37.401  12.978
69274W        W41699   5.622   1.777  10.685
69275W        W41700  31.514  25.760  11.019
69276W        W41701  32.843   8.461  12.036
69277W        W41702  30.497  35.922  11.470
69278W        W41703  37.825  19.237  13.029
69279W        W41704   7.167  31.090   3.576
69280W        W41705  31.647  18.606  13.586
69281W        W41706  12.719   3.950   2.349
69282W        W41707  10.450  12.608  14.250
69283W        W41708  42.880  31.742  14.894
69284W        W41709  22.460   4.243  11.131
69285W        W41710   4.881  20.706   1.340
69286W        W41711  43.783  44.349  12.920
69287W        W41712  28.888   8.189  14.508
69288W        W41713   3.770  27.967   0.241
69289W        W41714  13.182  37.379   0.391
69290W        W41715  37.789  33.393   5.037
69291W        W41716  29.376  42.899   1.409
69292W        W41717   8.250  24.933  13.141
69293W        W41718  17.271   4.031  14.306
69294W        W41719  37.541  37.891   4.918
69295W        W41720  11.858   1.078  11.928
69296W        W41721  40.939  24.566  14.302
69297W        W41722   4.013  37.415   1.508
69298W        W41723  33.056   2.973  14.796
69299W        W41724   1.927   2.877  12.414
69300W        W41725  14.602  26.983   3.197
69301W        W41726   8.497  15.306  14.394
69302W        W41727  35.934   2.477   1.320
69303W        W41728  26.694  24.621   1.871
69304W        W41729  38.124  42.968   0.278
69305W        W41730  27.425  23.162  13.482
69306W        W41731  36.916  32.637   0.217
69307W        W41732  37.468  24.265   3.598
69308W        W41733  43.596  28.746  11.950
69309W        W41734   2.620  21.267  11.095
69310W        W41735  16.958  35.026   4.293
69311W        W41736  18.568  33.518  11.925
69312W        W41737  30.997  43.526  11.727
69313W        W41738  39.998  24.454   3.131
69314W        W41739   7.352   7.160  13.334
69315W        W41740   4.278  16.105   2.409
69316W        W41741  40.290  25.739   2.747
69317W        W41742  17.893  33.522   0.684
69318W        W41743  39.731  27.567   2.163
69319W        W41744  14.786  34.163  13.514
69320W        W41745  36.172   1.030  11.028
69321W        W41746   9.767  29.961  14.940
69322W        W41747  24.456  15.727   1.777
69323W        W41748  42.057   6.288   2.823
69324W        W41749   7.548  38.381  10.224
69325W        W41750  16.984  10.725   4.141
69326W        W41751   3.659   4.599  10.239
69327W        W41752  39.322  23.948  12.500
69328W        W41753   3.669  36.616   5.125
69329W        W41754  17.757  24.157  11.725
69330W        W41755  43.411   6.509  14.818
69331W        W41756  22.068   5.310   2.886
69332W        W41757   7.597  29.461  14.657
69333W        W41758  10.866  27.539   3.572
69334W        W41759  34.264  11.479   0.861
69335W        W41760  34.516   5.904  14.441
69336W        W41761  20.458  41.559  14.835
69337W        W41762  11.799  25.911  12.502
69338W        W41763   2.757  40.407  14.501
69339W        W41764  23.012   6.650   3.860
69340W        W41765  12.060  11.799   5.459
69341W        W41766   6.451  24.662  10.716
69342W        W41767  18.314   3.312  10.719
69343W        W41768  24.661  29.176   2.111
69344W        W41769  22.522  28.495  12.521
69345W        W41770  40.564   5.773   0.332
69346W        W41771   4.663   7.833  13.132
69347W        W41772  34.285  16.801  11.442
69348W        W41773  13.545  33.471  13.939
69349W        W41774  25.704   2.247  11.524
69350W        W41775   0.376   6.168  12.500
69351W        W41776  10.864  37.636   1.336
69352W        W41777   9.281  17.500  13.403
69353W        W41778   5.775   6.886   3.691
69354W        W41779   4.750   9.789   4.048
69355W        W41780  38.884  30.952  12.019
69356W        W41781  43.821   2.235   2.799
69357W        W41782   8.785  12.845  10.865
69358W        W41783  33.519  29.973   3.431
69359W        W41784  20.517  22.425  12.479
69360W        W41785  18.501  32.328   2.212
69361W        W41786  26.141   8.870  13.944
69362W        W41787  39.802  13.040  11.877
69363W        W41788  18.108   0.470  13.459
69364W        W41789  10.443  20.778  11.536
69365W        W41790   2.561  10.208   0.938
69366W        W41791  38.517   8.504   2.781
69367W        W41792   9.086   2.175   5.011
69368W        W41793  21.982  31.909   5.076
69369W        W41794  15.607  38.040   3.685
69370W        W41795  24.131  11.951  12.501
69371W        W41796   6.840  32.665   2.237
69372W        W41797  11.638   4.765  13.811
69373W        W41798  36.812  41.389  12.144
69374W        W41799  20.780  32.644   0.786
69375W        W41800   8.639   0.518   2.085
69376W        W41801  34.916  38.017   2.559
69377W        W41802  33.800  29.561   0.917
69378W        W41803  44.956   3.491   4.751
69379W        W41804  23.488   6.291   1.766
69380W        W41805  10.638  28.902  14.964
69381W        W41806  37.866  22.944   2.749
69382W        W41807  42.329  11.984  13.021
69383W        W41808  36.486  32.308  11.806
69384W        W41809  29.166  17.046   3.864
69385W        W41810  14.249  26.706  12.606
69386W        W41811  29.986  23.738   4.590
69387W        W41812  16.609  37.615  14.336
69388W        W41813   3.794  12.277   0.654
69389W        W41814  36.706  42.032  11.090
69390W        W41815  22.829  23.051   3.617
69391W        W41816  38.536   3.944  10.382
69392W        W41817  18.249   5.530   3.975
69393W        W41818  28.007  33.796   2.196
69394W        W41819  30.084  29.902  14.297
69395W        W41820   8.181   1.810   1.239
69396W        W41821   9.491   9.135   0.111
69397W        W41822  32.578   4.182   3.105
69398W        W41823  22.743  35.032   1.975
69399W        W41824  43.806  13.725  12.533
69400W        W41825  28.027  33.150   1.739
69401W        W41826  28.247  43.826  10.960
69402W        W41827  25.155  41.602   2.723
69403W        W41828   4.004  20.716   5.218
69404W        W41829  13.396  41.580   4.937
69405W        W41830  12.191  33.021  10.901
69406W        W41831  33.678  43.802  11.575
69407W        W41832   1.878  34.795   4.140
69408W        W41833  18.641  34.016   2.725
69409W        W41834  32.424  22.594   0.301
69410W        W41835  20.216  12.906   2.896
69411W        W41836  16.385  30.238  11.836
69412W        W41837  35.349  41.540  12.432
69413W        W41838   7.065   1.863  13.015
69414W        W41839   5.150  29.206  13.963
69415W        W41840  35.444  21.121   3.357
69416W        W41841  13.720  42.933   4.360
69417W        W41842  32.896  21.438   0.999
69418W        W41843  18.116  38.841   3.735
69419W        W41844  20.258  17.624   1.840
69420W        W41845   7.026  22.889  12.494
69421W        W41846   7.522  26.611   3.440
69422W        W41847  23.555  11.259  13.772
69423W        W41848  36.600  17.185   0.406
69424W        W41849  29.591  28.806   3.768
69425W        W41850  30.935   1.440  10.336
69426W        W41851  42.274  34.842  13.407
69427W        W41852  14.938   2.798  11.453
69428W        W41853  23.650  12.343   3.846
69429W        W41854  44.890  43.747  13.129
69430W        W41855  25.822  11.768  14.894
69431W        W41856  10.071  22.113  12.144
69432W        W41857  31.422  19.324  11.130
69433W        W41858   0.541  37.254   0.271
69434W        W41859  41.346  18.850   0.790
69435W        W41860  14.801  36.454   1.506
69436W        W41861  31.837  44.261   3.730
69437W        W41862  31.885   8.198  12.499
69438W        W41863   2.680  31.869   0.970
69439W        W41864  25.595  29.970   3.423
69440W        W41865  16.861   5.324  12.773
69441W        W41866  10.254   8.906  12.528
69442W        W41867   6.189  36.151   3.273
69443W        W41868  14.523   8.430   4.618
69444W        W41869   0.229  43.129  13.454
69445W        W41870  34.130  38.820   2.736
69446W        W41871  22.323  13.028  10.676
69447W        W41872  14.762  23.094   2.471
69448W        W41873   9.431  10.816   3.625
69449W        W41874   1.367  22.733  11.426
69450W        W41875   4.473  40.363  12.835
69451W        W41876  35.672  37.645   2.283
69452W        W41877  23.109  24.136   2.287
69453W        W41878   7.846   1.175   4.269
69454W        W41879  27.139   0.257  11.784
69455W        W41880  40.871  44.134   1.990
69456W        W41881  43.760  39.058   1.766
69457W        W41882  33.821  34.972  11.052
69458W        W41883  11.777  24.658   2.445
69459W        W41884  37.843  33.616   1.189
69460W        W41885  23.791  31.130   4.202
69461W        W41886  38.337  39.493   3.279
69462W        W41887  30.788  32.347  13.841
69463W        W41888  40.451  38.335   0.327
69464W        W41889   1.923  19.050   3.287
69465W        W41890   2.237   7.678  11.616
69466W        W41891   8.023  43.044   0.014
69467W        W41892   7.967  31.763   5.055
69468W        W41893  14.851  37.895   0.425
69469W        W41894  17.375  23.445  10.267
69470W        W41895   7.255  24.776   4.653
69471W        W41896  30.633  21.538   3.070
69472W        W41897  40.568  29.717   0.189
69473W        W41898  39.866  29.226  14.847
69474W        W41899  24.972  35.488  13.957
69475W        W41900  26.090   8.694   3.783
69476W        W41901   0.797   9.315   2.887
69477W        W41902  23.314  22.262  11.590
69478W        W41903  16.830  36.107   1.233
69479W        W41904   3.903  42.116  12.552
69480W        W41905   5.168   4.118   3.700
69481W        W41906  12.800  11.887  12.667
69482W        W41907  22.023  21.944  13.389
69483W        W41908  24.003  28.798   1.008
69484W        W41909  15.788   6.794   4.347
69485W        W41910  40.044  27.134  13.959
69486W        W41911  41.007  20.036   0.994
69487W        W41912   5.890  21.251   4.333
69488W        W41913  24.771  34.821  13.838
69489W        W41914  23.100  38.385   3.333
69490W        W41915  20.353  29.619  11.185
69491W        W41916  22.976   5.247  10.660
69492W        W41917  37.533  20.771  13.562
69493W        W41918  18.132   2.492   1.367
69494W        W41919  35.975  33.162  13.345
69495W        W41920  31.153   3.321   0.508
69496W        W41921  28.484  23.579   4.844
69497W        W41922   0.247  44.003  10.809
69498W        W41923  12.224  16.049  12.807
69499W        W41924  21.172  24.147  12.087
69500W        W41925  24.457  30.140  12.516
69501W        W41926   1.717  42.052   0.998
69502W        W41927  32.508  43.436  10.685
69503W        W41928  31.475  33.854  11.123
69504W        W41929  27.889  33.766  10.992
69505W        W41930  24.330  32.063   5.209
69506W        W41931  44.767  40.896  11.768
69507W        W41932  33.294  16.423  12.636
69508W        W41933  37.974  36.360   3.888
69509W        W41934  19.753   4.215  10.943
69510W        W41935  34.378  24.168  11.976
69511W        W41936  11.918   6.866   4.210
69512W        W41937  23.506  11.223   9.806
69513W        W41938  43.884  28.895  13.563
69514W        W41939   5.651   6.772   4.719
69515W        W41940  16.321  30.033   4.479
69516W        W41941   1.964  37.827   4.479
69517W        W41942   4.362  36.036  13.230
69518W        W41943  31.754   1.892  13.875
69519W        W41944  23.295  32.947   0.454
69520W        W41945  36.880  21.521  13.500
69521W        W41946   6.583   2.467  13.390
69522W        W41947  40.499   4.843   3.388
69523W        W41948  35.594  33.889   0.285
69524W        W41949  34.307  14.954   3.193
69525W        W41950  21.696  41.804  13.838
69526W        W41951  23.120  39.269   0.283
69527W        W41952  27.373  17.526  13.529
69528W        W41953   3.853  43.005   3.640
69529W        W41954  18.357  17.543  12.552
69530W        W41955  16.212  38.857  12.249
69531W        W41956  32.007   9.826   4.080
69532W        W41957   5.357  37.951   2.741
69533W        W41958   6.167   2.691  14.055
69534W        W41959  18.717  27.779  14.808
69535W        W41960   6.153   7.760   1.741
69536W        W41961  38.056  35.634  13.296
69537W        W41962  16.984  17.626  13.369
69538W        W41963  31.065  33.855   1.350
69539W        W41964  11.054  18.050  14.424
69540W        W41965   8.128  25.123   4.829
69541W        W41966  42.078  34.358   1.922
69542W        W41967  17.602   3.016   3.579
69543W        W41968  33.075   4.890  13.672
69544W        W41969   4.889  34.893   2.737
69545W        W41970  20.221  13.854   3.802
69546W        W41971  17.758  19.268   1.321
69547W        W41972  41.575  20.228  13.292
69548W        W41973  16.682  22.764  14.425
69549W        W41974   2.817  34.590  13.905
69550W        W41975   1.284  15.908  11.558
69551W        W41976  14.661  11.403   2.308
69552W        W41977  36.562  22.643   4.260
69553W        W41978  25.639  23.964   2.336
69554W        W41979  21.125  16.368  13.210
69555W        W41980  25.557  28.972   1.689
69556W        W41981  19.009  34.363  12.813
69557W        W41982  27.166   7.848   2.077
69558W        W41983  32.469   6.681   2.292
69559W        W41984   8.775  18.816  14.359
69560W        W41985  23.623  21.244  10.654
69561W        W41986   8.904  43.014  11.175
69562W        W41987   8.354  32.896  13.211
69563W        W41988  32.450   6.198   2.155
69564W        W41989   7.255   8.829   4.645
69565W        W41990  38.839  40.952   4.030
69566W        W41991  34.958  10.827   4.397
69567W        W41992  22.028  24.001   0.336
69568W        W41993   3.151  33.463   1.324
69569W        W41994  21.969  17.270  14.409
69570W        W41995  17.511  27.568   2.355
69571W        W41996   0.047  30.543   0.804
69572W        W41997  20.694  38.361   1.598
69573W        W41998  32.437   3.719   3.245
69574W        W41999   8.307  35.990  12.998
69575W        W42000  21.210   9.384   0.987
69576W        W42001  38.893  38.881  11.953
69577W        W42002  20.380  41.766   1.551
69578W        W42003   7.452  20.542  13.623
69579W        W42004  18.380  10.656  11.564
69580W        W42005   2.846  16.620  12.823
69581W        W42006  26.203  32.670   4.680
69582W        W42007  12.777  20.077  10.694
69583W        W42008  18.160   7.189  14.942
69584W        W42009  12.765  15.161  14.396
69585W        W42010  15.041  34.454  12.608
69586W        W42011  36.296  22.459   4.672
69587W        W42012  34.426   1.899  13.082
69588W        W42013  40.758  12.236  12.482
69589W        W42014  32.895  38.592  13.893
69590W        W42015  39.572  37.569   1.847
69591W        W42016  32.255  30.511  14.033
69592W        W42017  31.705  17.068   4.179
69593W        W42018  21.059  39.280  13.327
69594W        W42019   8.369  37.093   5.373
69595W        W42020  39.928  20.540  10.880
69596W        W42021  16.228  26.724  13.463
69597W        W42022  10.576  25.218   3.773
69598W        W42023  40.116   1.379   2.527
69599W        W42024  20.952  34.363  13.031
69600W        W42025  11.728  14.862  12.996
69601W        W42026   5.683  28.612  12.538
69602W        W42027  28.906  18.564  12.043
69603W        W42028  36.928  25.463   2.736
69604W        W42029   1.269  24.881   0.948
69605W        W42030  11.596  35.473  14.020
69606W        W42031  19.175  27.300  14.018
69607W        W42032  15.832   2.333  14.422
69608W        W42033  12.092  11.425  13.411
69609W        W42034  35.164  24.217   2.973
69610W        W42035  42.497   4.817   0.369
69611W        W42036  34.898  10.291  12.910
69612W        W42037  27.945  14.909   0.851
69613W        W42038  33.520  33.054  10.341
69614W        W42039  15.270  21.902  11.899
69615W        W42040   1.846  38.135  13.590
69616W        W42041  40.293  24.768   0.028
69617W        W42042  12.170  21.248   4.867
69618W        W42043   3.963  26.582   2.602
69619W        W42044  24.617  13.796   1.801
69620W        W42045  39.857  20.840  12.875
69621W        W42046   4.091  10.796   2.596
69622W        W42047   3.866  33.144   4.696
69623W        W42048   0.776   3.004   1.756
69624W        W42049  24.615  15.140   2.298
69625W        W42050  43.972  14.357   0.391
69626W        W42051   3.499  17.819   1.843
69627W        W42052  29.402  31.584   1.894
69628W        W42053   4.858  31.523  14.503
69629W        W42054  31.480  38.510   4.828
69630W        W42055  43.305  24.101   0.445
69631W        W42056   3.027  21.119   2.390
69632W        W42057  19.697  32.687  11.758
69633W        W42058  43.636  26.021  13.821
69634W        W42059  35.893  14.236  14.730
69635W        W42060   6.656  16.645  13.528
69636W        W42061  31.050  16.919   1.242
69637W        W42062   1.927  37.346   1.994
69638W        W42063  39.920  29.689   3.297
69639W        W42064  36.565  26.932  11.047
69640W        W42065  22.669  43.836  11.553
69641W        W42066  43.366   5.576  14.358
69642W        W42067   2.369  25.145  12.157
69643W        W42068  37.178  38.352  14.045
69644W        W42069  21.494  11.281   1.899
69645W        W42070  26.645   6.290  12.613
69646W        W42071  34.855  42.615  11.200
69647W        W42072   7.925  30.225  13.428
69648W        W42073  36.468  22.129  12.915
69649W        W42074  10.615  17.129   2.649
69650W        W42075  40.890  18.075   4.695
69651W        W42076  34.479  23.029   2.845
69652W        W42077   7.220  36.376  13.908
69653W        W42078   9.967   3.408   2.237
69654W        W42079  11.093  32.920   0.467
69655W        W42080  27.976  12.691  12.387
69656W        W42081  11.639  29.036  14.839
69657W        W42082   4.272  11.395   0.789
69658W        W42083  16.121  32.589  12.155
69659W        W42084  43.502   6.795  13.422
69660W        W42085  22.257  30.139   1.396
69661W        W42086  34.318  12.581  11.129
69662W        W42087  19.369  27.642  11.447
69663W        W42088   6.190  24.897   5.237
69664W        W42089   7.390  12.431  13.407
69665W        W42090  14.124  22.834  14.830
69666W        W42091  14.012  42.203  12.989
69667W        W42092  40.989  33.420   3.859
69668W        W42093   4.692  41.347   2.306
69669W        W42094  32.994  19.046  10.284
69670W        W42095  41.160  19.843   2.272
69671W        W42096  26.933  43.816  12.244
69672W        W42097  19.039  37.180   1.402
69673W        W42098   1.003   7.809  13.053
69674W        W42099  11.581   8.419  11.912
69675W        W42100  22.066  18.882   4.221
69676W        W42101  26.428   3.246  12.436
69677W        W42102  26.540   4.240   0.808
69678W        W42103  43.806  33.374  12.031
69679W        W42104  21.239  18.606  12.631
69680W        W42105  18.190   9.806  12.606
69681W        W42106  38.360  38.383   3.551
69682W        W42107  35.458  11.651   4.329
69683W        W42108  26.401  39.567   1.468
69684W        W42109  22.034   3.759  12.836
69685W        W42110  14.607  17.882   2.853
69686W        W42111  37.875   2.638  14.988
69687W        W42112  39.986  37.594   4.581
69688W        W42113  41.297   0.248   2.381
69689W        W42114  26.491  27.869  12.106
69690W        W42115  19.237  37.565  12.370
69691W        W42116  19.322  44.534   4.362
69692W        W42117  12.773  44.224  13.168
69693W        W42118  14.738  19.520  12.960
69694W        W42119  35.251  17.690  10.781
69695W        W42120  41.997  16.797   4.082
69696W        W42121  32.453   8.857  14.015
69697W        W42122   9.792  11.239  14.036
69698W        W42123  10.716  23.043   2.206
69699W        W42124  36.372  32.041   4.089
69700W        W42125  29.752  29.743  12.482
69701W        W42126  29.532  38.077  10.998
69702W        W42127  43.358  37.059   3.928
69703W        W42128  25.452  18.130   2.190
69704W        W42129  37.953  18.336   0.333
69705W        W42130  12.072  20.633   0.781
69706W        W42131   4.439  38.612   1.569
69707W        W42132  11.568   3.249   4.516
69708W        W42133  11.711   3.214  13.147
69709W        W42134  33.486  12.378  14.314
69710W        W42135  11.215  17.563   1.345
69711W        W42136  11.640  34.377   0.002
69712W        W42137  21.500  37.249  11.176
69713W        W42138  24.818  19.313   0.493
69714W        W42139   6.420  25.947   2.337
69715W        W42140   1.918  26.542   2.136
69716W        W42141  22.930  43.591   0.670
69717W        W42142   3.794   0.284  12.143
69718W        W42143  22.806   1.285   0.949
69719W        W42144  23.465  33.145   1.841
69720W        W42145   9.347  37.776   1.683
69721W        W42146  13.800  28.885  13.793
69722W        W42147  20.319  33.451   3.357
69723W        W42148  27.882  30.195   2.336
69724W        W42149  21.759  37.853  12.603
69725W        W42150  15.339  28.186  13.825
69726W        W42151  31.186   3.814  12.655
69727W        W42152  14.736   7.746   2.789
69728W        W42153  12.161  31.998   1.544
69729W        W42154   4.669   9.729  13.439
69730W        W42155   6.620  11.768   4.247
69731W        W42156   7.369   4.517  11.167
69732W        W42157  26.185  27.958  11.417
69733W        W42158  43.476  13.671  11.025
69734W        W42159  34.703   8.846  14.507
69735W        W42160  35.623  15.291  11.593
69736W        W42161  15.827   5.452  12.584
69737W        W42162  13.771  29.756   4.828
69738W        W42163   1.553  10.671  13.931
69739W        W42164  36.424  22.850  11.818
69740W        W42165   7.640  15.444  14.835
69741W        W42166  13.661  17.547  13.820
69742W        W42167  13.743  40.798   0.881
69743W        W42168   2.391  18.550  11.383
69744W        W42169  38.094  25.467   1.984
69745W        W42170  19.619  43.784  14.798
69746W        W42171  33.387  42.943   3.607
69747W        W42172  25.170   1.004  14.879
69748W        W42173  36.721  15.661   1.864
69749W        W42174   8.230  31.561   0.525
69750W        W42175  39.267  26.862   1.276
69751W        W42176  29.970  25.212  14.529
69752W        W42177   2.499  22.574  12.097
69753W        W42178   2.045  16.527   0.285
69754W        W42179  20.021  36.420  11.398
69755W        W42180   1.796  23.038   1.079
69756W        W42181  44.482  29.442  10.585
69757W        W42182   8.376  32.195  10.712
69758W        W42183  39.396   6.235   1.025
69759W        W42184  41.145  32.041   3.367
69760W        W42185  19.522  31.556   4.987
69761W        W42186  37.329   0.949  12.549
69762W        W42187   7.770  24.265   5.180
69763W        W42188  24.146   0.405   3.775
69764W        W42189  26.160  21.438   1.796
69765W        W42190  20.244  27.920   9.859
69766W        W42191  19.655  44.816  14.771
69767W        W42192   6.777   0.272   2.452
69768W        W42193  22.549   7.049   1.646
69769W        W42194   2.663  38.556  14.330
69770W        W42195  29.143   6.923  10.635
69771W        W42196  11.406  18.415  11.540
69772W        W42197   3.811  29.876  11.061
69773W        W42198  42.354  16.878  12.335
69774W        W42199  18.861  44.582  11.055
69775W        W42200   3.522   4.681   2.342
69776W        W42201  12.648  22.558   1.953
69777W        W42202  27.841   9.828   4.709
69778W        W42203  30.609  39.412  10.744
69779W        W42204  42.785  26.003   4.227
69780W        W42205  25.749   1.733  11.599
69781W        W42206  38.478  22.726   1.716
69782W        W42207  33.927  33.880  11.981
69783W        W42208  37.287  38.452   4.269
69784W        W42209  11.879  21.435   3.909
69785W        W42210   9.388  21.770   4.608
69786W        W42211  31.093  21.649  11.822
69787W        W42212  40.330  10.586  14.842
69788W        W42213  32.879  11.747   1.256
69789W        W42214  14.259  28.894  11.097
69790W        W42215   6.342   3.644  13.689
69791W        W42216  31.941  35.509   2.394
69792W        W42217   8.777  23.181  11.685
69793W        W42218  10.422  38.549   3.819
69794W        W42219  29.539  34.806   1.205
69795W        W42220  37.818   6.168  14.337
69796W        W42221  31.862  37.030   3.508
69797W        W42222  38.574  21.166   3.808
69798W        W42223  33.504  15.270  11.121
69799W        W42224  22.674   1.154   1.976
69800W        W42225  17.454  31.087  13.037
69801W        W42226  44.282  29.086   4.202
69802W        W42227  29.458  20.941   4.585
69803W        W42228  29.940  21.208   4.590
69804W        W42229  18.796   9.789  10.838
69805W        W42230  12.283  27.029   3.785
69806W        W42231  32.525  17.198   0.925
69807W        W42232   7.321  31.391   0.381
69808W        W42233  35.518   9.370  12.442
69809W        W42234  13.300  17.241  11.357
69810W        W42235  12.593   5.355  14.446
69811W        W42236  11.343  14.295   4.118
69812W        W42237  20.710  27.603  12.004
69813W        W42238  39.221   9.084   3.245
69814W        W42239   5.806   3.030   0.847
69815W        W42240  27.146  33.928   0.765
69816W        W42241  42.302   6.783   4.606
69817W        W42242   2.431   8.622   4.080
69818W        W42243  25.612  34.449   3.194
69819W        W42244  11.136   0.713  14.347
69820W        W42245  11.749  35.582  11.599
69821W        W42246  28.916  22.702  10.700
69822W        W42247  42.834   7.287   1.459
69823W        W42248  32.598  43.364  11.835
69824W        W42249  23.036  13.162   1.210
69825W        W42250  14.379  32.666  13.579
69826W        W42251  31.704  22.120  12.520
69827W        W42252   4.377  13.757   3.876
69828W        W42253  44.322  25.192  10.593
69829W        W42254  21.648   8.811  12.909
69830W        W42255  29.571   2.501  14.260
69831W        W42256  41.535   4.970  10.713
69832W        W42257  38.319   2.000  11.968
69833W        W42258   7.194  35.594  11.234
69834W        W42259  24.007  24.522  13.545
69835W        W42260  39.424  16.987   0.395
69836W        W42261   2.863  41.281   0.963
69837W        W42262  36.896  15.950  10.986
69838W        W42263   9.204   6.398  12.605
69839W        W42264  40.427  29.551  13.218
69840W        W42265  30.977   6.547   3.314
69841W        W42266  12.751  26.082  13.575
69842W        W42267  39.866  41.791   4.050
69843W        W42268   2.576  32.550   1.205
69844W        W42269   3.999  27.938   3.631
69845W        W42270  13.355  41.398   3.637
69846W        W42271  36.316  27.078  13.972
69847W        W42272   2.519  24.479   0.561
69848W        W42273  38.169  17.147   0.783
69849W        W42274  20.749  37.140  14.354
69850W        W42275  21.718  25.295  12.437
69851W        W42276  15.175  12.287  12.363
69852W        W42277  11.597  23.309   3.218
69853W        W42278   5.821  33.152   2.695
69854W        W42279  23.270  28.053  12.503
69855W        W42280  40.976   4.631   1.328
69856W        W42281  30.537  12.178  11.953
69857W        W42282  35.866  21.947  11.109
69858W        W42283  21.591  21.743  10.760
69859W        W42284  11.658  28.145  14.789
69860W        W42285  16.852  42.511  13.458
69861W        W42286  10.794  18.562  13.791
69862W        W42287  37.220  37.834  14.973
69863W        W42288  10.054  22.209   1.245
69864W        W42289   3.950   4.784   0.507
69865W        W42290   4.271  38.138   4.695
69866W        W42291  18.238  43.981   4.148
69867W        W42292   7.914  38.565  14.409
69868W        W42293  41.418  35.133   4.885
69869W        W42294  43.325  27.450   2.887
69870W        W42295   8.173  15.954  11.147
69871W        W42296  25.528  29.256   4.225
69872W        W42297  12.137  40.186  10.964
69873W        W42298  10.826  33.454   3.204
69874W        W42299  44.328  44.390   4.988
69875W        W42300   6.628  40.745  12.205
69876W        W42301  39.683  23.041   3.747
69877W        W42302  21.424  35.290  11.756
69878W        W42303   8.660   8.079   3.697
69879W        W42304  17.042  36.311   3.651
69880W        W42305  30.640  14.880   2.010
69881W        W42306  28.329   8.351   0.910
69882W        W42307  38.412  25.753  13.000
69883W        W42308  26.007   2.236  13.284
69884W        W42309  30.908  11.664   1.352
69885W        W42310  35.159  19.229   0.205
69886W        W42311  22.122  41.367  10.617
69887W        W42312   3.761  33.177  11.281
69888W        W42313  27.553  35.037  13.018
69889W        W42314  39.258  22.258  13.086
69890W        W42315  11.384  12.933  13.962
69891W        W42316   7.882  35.335  13.739
69892W        W42317  37.877   0.251  14.846
69893W        W42318   1.742  44.194   2.842
69894W        W42319  15.008  28.154  14.518
69895W        W42320   6.253  42.098   2.696
69896W        W42321  11.162   5.098   1.794
69897W        W42322  11.780  26.707   4.128
69898W        W42323  36.342  26.812  11.500
69899W        W42324   7.719  19.741  12.118
69900W        W42325   3.020  44.824  12.112
69901W        W42326  42.459  15.280  14.949
69902W        W42327  37.686  21.143  14.411
69903W        W42328   8.252   7.444  13.846
69904W        W42329  16.795  15.281  11.506
69905W        W42330  32.967  43.804   4.615
69906W        W42331  16.987  21.564  14.499
69907W        W42332  18.055  26.626  12.086
69908W        W42333  36.514  39.806   3.224
69909W        W42334  24.000  43.450   3.071
69910W        W42335  21.005  41.821  11.590
69911W        W42336  17.518   1.992   3.658
69912W        W42337   9.221  28.718   0.904
69913W        W42338  16.254  43.319   1.884
69914W        W42339   7.345  31.085  11.581
69915W        W42340  19.100   1.727   5.075
69916W        W42341  20.152  33.389  10.647
69917W        W42342  38.899  34.774  12.852
69918W        W42343  37.308  42.709   2.865
69919W        W42344  40.932  44.982  11.898
69920W        W42345   7.851  33.337  10.671
69921W        W42346  18.986  28.037   2.838
69922W        W42347  21.119  21.628  10.429
69923W        W42348   6.196   5.821  13.319
69924W        W42349  19.988  25.928   1.761
69925W        W42350  33.302  36.332  13.500
69926W        W42351  17.364  23.101  14.074
69927W        W42352  36.793  35.562   3.576
69928W        W42353   8.529  17.155   1.962
69929W        W42354  14.858  41.029  14.841
69930W        W42355  25.047  23.027   4.046
69931W        W42356  12.898  33.363  14.238
69932W        W42357  33.988   8.245  11.240
69933W        W42358  10.323   3.335  13.782
69934W        W42359  26.368  37.856   2.845
69935W        W42360  17.939  12.757  12.141
69936W        W42361  21.246  34.144   0.276
69937W        W42362  14.790  31.695   3.173
69938W        W42363  26.210  15.142   4.595
69939W        W42364  15.129  30.921  14.821
69940W        W42365   3.462   8.279  13.806
69941W        W42366   1.416  10.421   2.343
69942W        W42367  27.656  14.373  12.310
69943W        W42368  20.436  30.518   0.257
69944W        W42369  22.244  42.620   4.436
69945W        W42370  35.096  10.718  12.641
69946W        W42371  27.127  37.640  11.144
69947W        W42372  24.236  30.398  14.329
69948W        W42373  30.502  28.902   1.246
69949W        W42374  22.243  32.724   0.941
69950W        W42375  11.205  44.339  13.944
69951W        W42376   6.325  35.427  10.329
69952W        W42377  28.083  36.967  11.109
69953W        W42378   2.069  30.456  13.013
69954W        W42379  19.067  36.643  13.530
69955W        W42380   9.941  43.118  12.896
69956W        W42381  27.606  19.493   1.502
69957W        W42382  12.210  37.576   3.702
69958W        W42383   8.975  10.333  11.461
69959W        W42384  29.549  30.037   2.597
69960W        W42385  33.907  22.275   1.214
69961W        W42386  22.599   9.765   1.833
69962W        W42387  24.254  15.984   4.220
69963W        W42388  11.295  11.350  10.715
69964W        W42389  41.027  24.779  11.140
69965W        W42390  21.775  26.261   3.356
69966W        W42391  23.726  23.996  11.527
69967W        W42392  38.547  21.188  10.359
69968W        W42393  39.663  36.154   3.610
69969W        W42394  12.311  15.085   3.638
69970W        W42395   5.268  14.633   3.790
69971W        W42396  39.201  17.112  11.768
69972W        W42397  42.444  28.969  11.247
69973W        W42398  38.597  39.974   0.265
69974W        W42399  39.992  41.932   2.782
69975W        W42400   0.491  22.359   2.935
69976W        W42401   3.020  40.083   3.969
69977W        W42402   9.367  21.578   3.332
69978W        W42403  37.616  13.790  13.514
69979W        W42404  37.022  34.732  12.105
69980W        W42405  41.545  38.824  12.938
69981W        W42406   3.897  20.183  14.946
69982W        W42407  31.696   1.794  12.164
69983W        W42408   2.743  22.606  13.047
69984W        W42409  12.749   3.626  14.009
69985W        W42410  20.834  23.098   0.245
69986W        W42411  23.499  36.559  11.201
69987W        W42412  29.923  24.104   1.279
69988W        W42413  42.136  19.032  13.113
69989W        W42414  17.542  43.135  13.071
69990W        W42415  13.464  18.011  13.729
69991W        W42416  40.627  14.829  14.940
69992W        W42417  16.347  18.546  11.086
69993W        W42418  38.847  43.931   0.523
69994W        W42419  25.009   3.563  13.543
69995W        W42420  27.502  15.641   1.074
69996W        W42421  41.792  11.896  10.117
69997W        W42422  12.588  17.102  12.052
69998W        W42423  42.456   7.871  14.235
69999W        W42424  13.234  20.030   0.610
70000W        W42425   2.887   2.800   3.764
70001W        W42426  25.232   4.679  12.083
70002W        W42427  10.932  10.115   1.301
70003W        W42428  17.740  11.252   3.116
70004W        W42429   9.443   1.678   2.531
70005W        W42430  42.275  37.489  14.471
70006W        W42431  12.585  34.954   1.375
70007W        W42432  15.503   6.833  11.622
70008W        W42433  18.437  34.472   3.772
70009W        W42434  29.422  12.177   4.167
70010W        W42435  21.761   3.566   0.646
70011W        W42436  24.917   0.477  14.829
70012W        W42437   2.430  25.090  11.664
70013W        W42438  12.355   2.267  12.445
70014W        W42439  43.275  43.340  11.662
70015W        W42440   4.986  23.292   1.868
70016W        W42441  16.120  16.735   0.982
70017W        W42442   4.977  37.118   4.228
70018W        W42443  23.026  13.570  14.536
70019W        W42444   4.131  20.625  14.805
70020W        W42445  13.540   8.642  11.175
70021W        W42446  39.311  23.441   4.489
70022W        W42447  43.416  11.422  12.550
70023W        W42448   9.724   2.526  14.271
70024W        W42449  22.240  42.880  14.760
70025W        W42450  28.141  17.139  13.561
70026W        W42451  28.485  41.018  12.526
70027W        W42452  23.263  32.173  13.299
70028W        W42453  27.887  41.245  14.023
70029W        W42454  32.687  39.961   4.327
70030W        W42455  11.791  35.190   4.149
70031W        W42456  13.344   1.552  11.054
70032W        W42457  43.338  26.599  11.589
70033W        W42458  18.889  17.813   1.898
70034W        W42459   7.144  32.848   0.202
70035W        W42460   0.468   5.916   3.713
70036W        W42461   5.390   8.383  13.825
70037W        W42462  21.592  14.324   4.665
70038W        W42463  27.034  32.903  14.439
70039W        W42464  17.327  22.165  14.368
70040W        W42465  33.384  11.502   0.407
70041W        W42466  41.524  26.015  13.279
70042W        W42467  43.457  43.778  11.922
70043W        W42468  38.100   7.113  12.371
70044W        W42469  22.739  10.722   1.722
70045W        W42470  39.095  29.163   2.348
70046W        W42471  12.286  36.978  12.540
70047W        W42472  42.873  11.943  10.523
70048W        W42473   5.265  39.085  13.098
70049W        W42474  26.389  21.201   2.269
70050W        W42475  23.622  43.995  11.140
70051W        W42476  33.000  16.836  11.021
70052W        W42477  26.123  14.111  13.795
70053W        W42478  24.701  14.085  10.814
70054W        W42479  43.938  28.678   0.452
70055W        W42480  22.257  12.148   3.302
70056W        W42481  35.536  13.368   0.985
70057W        W42482  17.471   1.403  14.934
70058W        W42483  20.921  18.528   2.807
70059W        W42484   4.791   7.283  10.096
70060W        W42485  14.584  25.726   4.947
70061W        W42486  11.819  27.562   4.194
70062W        W42487   7.443   5.227   1.760
70063W        W42488  13.555  24.319  12.026
70064W        W42489   3.022  35.944   2.120
70065W        W42490  37.147   3.591  13.022
70066W        W42491  39.761  35.626  13.814
70067W        W42492  13.277  17.516   3.220
70068W        W42493  26.974  31.125  13.439
70069W        W42494   6.526  34.364  10.674
70070W        W42495  32.905  14.315   1.812
70071W        W42496   4.747  35.489   3.130
70072W        W42497   4.887  44.226   4.085
70073W        W42498  37.588  22.636  11.449
70074W        W42499  44.977   6.650   2.341
70075W        W42500  23.305  23.391   2.741
70076W        W42501  34.252  30.159  14.942
70077W        W42502  12.276  44.294  12.935
70078W        W42503   6.825  28.208  13.382
70079W        W42504  42.595  14.155   4.155
70080W        W42505  10.148  11.200   4.638
70081W        W42506  27.041  40.965   3.076
70082W        W42507  36.931  11.282   3.375
70083W        W42508  18.299  10.871   2.048
70084W        W42509  43.762   1.841  11.676
70085W        W42510   2.949  40.238   0.839
70086W        W42511  29.392  44.730   0.324
70087W        W42512   2.137   6.592   1.891
70088W        W42513  21.216  35.072  14.019
70089W        W42514   2.653  35.507   4.244
70090W        W42515  15.773   8.182  12.159
70091W        W42516  15.428  34.110   0.820
70092W        W42517  31.262  36.386  11.656
70093W        W42518  43.796  20.157   2.943
70094W        W42519   6.410  29.666  14.710
70095W        W42520   0.644  12.253  12.356
70096W        W42521  29.399  23.914   3.365
70097W        W42522  43.237  13.248  11.631
70098W        W42523  40.638  34.076  11.447
70099W        W42524  21.848   6.434   4.222
70100W        W42525  16.325   3.822  12.906
70101W        W42526  27.081   4.681  13.638
70102W        W42527   2.732  12.803  10.997
70103W        W42528   2.044  32.089   1.798
70104W        W42529  28.208   8.138   3.217
70105W        W42530  37.471  33.071  12.834
70106W        W42531  15.085  40.155  12.493
70107W        W42532  30.912   9.132  13.021
70108W        W42533  33.941   3.924  14.326
70109W        W42534  17.839  20.119   4.175
70110W        W42535   7.926  24.591  12.915
70111W        W42536  22.933  21.420   2.724
70112W        W42537  28.483  44.058   3.749
70113W        W42538  14.110  28.005   1.214
70114W        W42539   0.870  22.648  12.230
70115W        W42540  43.457  20.020   4.177
70116W        W42541  41.418  12.109  10.450
70117W        W42542  33.059  11.731  12.360
70118W        W42543  22.689   4.935   0.716
70119W        W42544  44.461  25.562   2.777
70120W        W42545  10.236   0.065   2.899
70121W        W42546   7.828   3.477  10.121
70122W        W42547  32.653  42.297   2.656
70123W        W42548  26.300  30.113   1.649
70124W        W42549  31.401   1.973  12.594
70125W        W42550  18.106  43.488   2.871
70126W        W42551  31.237  14.327  14.807
70127W        W42552  42.292  10.238   4.994
70128W        W42553  14.010  14.072   0.244
70129W        W42554  28.738  21.718  11.109
70130W        W42555  37.567  12.721  11.689
70131W        W42556  22.811  19.380  13.991
70132W        W42557  30.899  15.892  13.925
70133W        W42558  20.687  15.629  14.124
70134W        W42559  43.685   8.992  13.284
70135W        W42560  37.346  37.111   2.407
70136W        W42561  18.147  35.346  13.715
70137W        W42562   7.105  20.075   2.254
70138W        W42563   8.566  30.674  11.841
70139W        W42564  16.132  40.766   0.355
70140W        W42565  14.693   9.811  13.927
70141W        W42566  42.803  23.054  12.164
70142W        W42567  40.916  28.221   1.746
70143W        W42568  31.934  27.189  12.069
70144W        W42569  29.344  10.738  12.940
70145W        W42570   0.298  32.647   3.956
70146W        W42571  31.440  39.044   0.340
70147W        W42572  16.086  12.071  10.357
70148W        W42573  17.128  24.243  10.620
70149W        W42574  24.236  30.456  11.127
70150W        W42575  32.398  21.019  14.817
70151W        W42576   5.418  30.570   1.299
70152W        W42577  34.904   1.265   4.673
70153W        W42578   3.553   8.626   3.386
70154W        W42579  13.780  26.523   4.211
70155W        W42580  39.641   5.269   4.090
70156W        W42581  28.920  32.299  12.114
70157W        W42582  13.361  40.641   2.162
70158W        W42583  38.968  20.081  14.855
70159W        W42584  33.811  26.709  13.287
70160W        W42585  30.110   6.815  14.047
70161W        W42586  12.090  33.527  10.925
70162W        W42587   5.973  23.149   4.607
70163W        W42588  18.319  31.177   0.427
70164W        W42589  25.705   2.956  14.128
70165W        W42590  16.256  35.185   1.910
70166W        W42591  32.204  11.173  14.272
70167W        W42592  12.598  26.176   1.471
70168W        W42593  23.704  17.489  11.108
70169W        W42594  35.918  25.167   5.399
70170W        W42595  44.918  42.209   4.786
70171W        W42596  20.637  27.496  13.892
70172W        W42597  17.358  32.937  14.302
70173W        W42598  31.472  27.496   3.230
70174W        W42599   8.647  27.636   3.369
70175W        W42600   8.465  28.074  12.559
70176W        W42601  36.279  39.137   1.415
70177W        W42602  44.430   4.390   0.028
70178W        W42603   0.713  17.391   4.822
70179W        W42604  11.732  19.034   4.205
70180W        W42605  26.069  42.976  12.977
70181W        W42606  41.793   1.285   3.898
70182W        W42607  22.105  36.375   1.401
70183W        W42608  23.232  18.802   1.839
70184W        W42609  24.411   8.879   1.856
70185W        W42610  25.414  27.191  11.676
70186W        W42611  14.237  18.171  14.902
70187W        W42612  40.540   3.467  14.959
70188W        W42613  24.968  11.789  14.390
70189W        W42614  24.120   6.525  10.569
70190W        W42615  17.383  42.818  12.656
70191W        W42616  44.729  19.225  14.360
70192W        W42617  30.498   8.824   4.260
70193W        W42618  29.557  20.009   4.812
70194W        W42619   5.884   5.433   1.423
70195W        W42620  38.035   1.925   0.270
70196W        W42621  39.303  14.784  13.896
70197W        W42622  42.929  30.419  14.474
70198W        W42623  26.708  33.518   4.355
70199W        W42624  10.687  21.512   0.307
70200W        W42625   6.626  16.297   2.417
70201W        W42626   7.500  37.821   2.880
70202W        W42627  41.541  24.018   3.575
70203W        W42628   5.783  34.630  13.382
70204W        W42629  23.930  11.186  12.346
70205W        W42630  14.761  33.945   4.824
70206W        W42631  18.716  43.970   3.896
70207W        W42632   6.993  37.056   3.744
70208W        W42633  12.797  27.965   2.255
70209W        W42634   7.458   9.257  10.588
70210W        W42635  26.975  43.109   4.679
70211W        W42636  20.016  44.570  10.663
70212W        W42637  18.466  24.539   1.753
70213W        W42638   4.137  41.917  13.465
70214W        W42639  25.056  15.202   1.074
70215W        W42640  24.521  29.718  14.454
70216W        W42641  39.957  21.210   1.107
70217W        W42642  39.942   4.495   0.210
70218W        W42643  18.000  12.806   1.361
70219W        W42644  21.732  33.947  12.439
70220W        W42645  19.135   4.987   4.234
70221W        W42646  26.903  23.321   3.184
70222W        W42647   6.191  12.138  12.245
70223W        W42648  18.378  24.093   1.268
70224W        W42649  34.842  38.900  11.078
70225W        W42650   6.199  22.682  12.873
70226W        W42651  37.528  10.892  10.768
70227W        W42652  27.635   2.931  13.140
70228W        W42653  35.138  39.332  10.722
70229W        W42654  27.890  17.599  13.588
70230W        W42655   4.282  42.247   4.421
70231W        W42656  35.408  19.658  11.120
70232W        W42657  35.399  10.312   4.250
70233W        W42658  33.983  38.502   1.394
70234W        W42659  19.244  31.088   1.788
70235W        W42660  27.723  20.867   0.173
70236W        W42661  27.204  24.205  13.545
70237W        W42662  34.942  25.894   1.399
70238W        W42663   9.314  41.000   3.578
70239W        W42664  19.841   8.595  11.102
70240W        W42665  44.562  41.945   4.269
70241W        W42666  33.043   3.966  12.352
70242W        W42667  35.137   4.920   2.788
70243W        W42668  12.431  40.504   3.198
70244W        W42669  10.393   2.825  13.934
70245W        W42670  12.209  26.753   2.382
70246W        W42671  18.431  16.110  14.705
70247W        W42672  34.893  24.955   0.992
70248W        W42673  21.240  43.282   4.089
70249W        W42674  41.320  38.983  11.529
70250W        W42675  28.617  38.870  11.489
70251W        W42676  28.196  20.590   3.542
70252W        W42677  16.616  43.526  12.263
70253W        W42678  40.039   4.258  13.495
70254W        W42679  37.442  37.875   3.861
70255W        W42680   9.441   5.807  14.779
70256W        W42681  36.584  29.839  13.390
70257W        W42682  43.371  32.924  11.238
70258W        W42683   3.980  23.645  12.119
70259W        W42684  13.842  42.923   3.162
70260W        W42685  43.021   5.792   4.828
70261W        W42686  36.883   8.463  13.057
70262W        W42687  27.089  21.644  12.396
70263W        W42688   3.923  36.599   3.362
70264W        W42689  31.537  21.248   1.944
70265W        W42690  19.996  26.882   2.663
70266W        W42691  34.078  13.894  14.305
70267W        W42692   9.573  43.812   0.513
70268W        W42693   3.685  35.816  14.686
70269W        W42694  34.643  28.137   2.187
70270W        W42695   1.506  31.977  12.583
70271W        W42696  34.374  30.478  13.328
70272W        W42697   2.693  12.688  11.952
70273W        W42698  41.336  39.592  13.830
70274W        W42699  32.799  21.010   0.737
70275W        W42700  33.827  21.802   2.707
70276W        W42701   9.228   8.760   0.369
70277W        W42702   2.958  41.912   1.870
70278W        W42703  39.277  31.085  12.717
70279W        W42704   8.193  17.836  10.545
70280W        W42705  36.626   5.409  14.945
70281W        W42706   0.820  10.380   4.576
70282W        W42707   1.846  40.355  12.839
70283W        W42708  26.658  19.737   3.837
70284W        W42709  43.281  12.131  12.989
70285W        W42710   2.035  43.365   2.168
70286W        W42711  11.789  12.797   3.405
70287W        W42712  11.390   2.028   0.731
70288W        W42713   5.229  42.692   2.341
70289W        W42714  23.928  31.610   0.944
70290W        W42715   2.131  21.187   4.067
70291W        W42716   9.976  23.156   4.493
70292W        W42717   9.102  13.593  12.392
70293W        W42718  33.472  44.954   4.076
70294W        W42719  10.922  37.681   4.068
70295W        W42720  15.525  29.106   3.011
70296W        W42721  15.790  38.985  14.820
70297W        W42722  26.658  22.227   1.817
70298W        W42723  18.176  16.786  13.380
70299W        W42724  11.281  20.123   1.269
70300W        W42725   3.019  32.523   1.460
70301W        W42726   9.410  35.325   0.033
70302W        W42727  13.725  20.942  12.670
70303W        W42728   5.356  10.180  11.564
70304W        W42729  16.498  20.578  13.966
70305W        W42730   3.725  44.177   0.310
70306W        W42731  13.643  43.319   1.817
70307W        W42732  26.467  26.999   4.502
70308W        W42733  21.459  21.063  11.946
70309W        W42734  39.145  26.730  10.441
70310W        W42735  41.365  14.860   1.009
70311W        W42736  23.144   5.416   1.847
70312W        W42737  13.825  14.142   2.366
70313W        W42738  39.900   4.693  14.733
70314W        W42739   0.955  37.786  10.448
70315W        W42740  24.714  37.830  13.326
70316W        W42741  33.416   3.394  14.416
70317W        W42742  26.140  41.214  13.534
70318W        W42743  40.338  26.655   2.872
70319W        W42744  22.649   5.399   0.455
70320W        W42745   9.889  22.718   1.284
70321W        W42746  33.435  21.203  14.475
70322W        W42747  43.382  22.294   2.055
70323W        W42748   4.888  27.398   9.979
70324W        W42749   4.661  43.978   2.817
70325W        W42750  23.968   3.882  10.304
70326W        W42751   5.859  36.006  11.911
70327W        W42752   5.157  27.429  13.486
70328W        W42753  44.328  36.515  10.700
70329W        W42754  20.953  38.784  13.270
70330W        W42755  20.458  18.485   3.563
70331W        W42756  39.535  36.113   1.906
70332W        W42757  10.516  38.553  11.289
70333W        W42758   6.713  16.244  12.901
70334W        W42759  27.037  16.323  13.406
70335W        W42760  30.029  44.474  13.987
70336W        W42761  28.702  18.972   0.453
70337W        W42762   8.600   7.301   3.165
70338W        W42763  18.119  38.757   0.235
70339W        W42764  16.614  28.545   4.445
70340W        W42765   1.554  36.913   2.841
70341W        W42766   0.654  11.810  12.909
70342W        W42767  32.992  14.355   4.832
70343W        W42768  42.999  27.190  11.116
70344W        W42769  23.444  29.538  10.827
70345W        W42770  44.065  21.135  11.821
70346W        W42771   0.740  39.441  11.112
70347W        W42772  10.080  37.076  14.803
70348W        W42773  26.068   8.158   2.862
70349W        W42774  18.744   2.302   4.595
70350W        W42775  20.896  17.190  10.893
70351W        W42776  30.082   9.753   3.639
70352W        W42777  11.639  22.492   0.517
70353W        W42778  30.621  38.901  10.698
70354W        W42779  39.538   4.161  13.493
70355W        W42780  28.239  16.576  11.580
70356W        W42781  31.110  44.206   2.498
70357W        W42782  12.839  36.306  14.938
70358W        W42783  25.521   9.736  10.970
70359W        W42784   0.972  32.185  13.316
70360W        W42785  18.745  44.194   4.365
70361W        W42786  14.619  33.098  13.956
70362W        W42787  12.331  29.347  12.081
70363W        W42788  23.266  18.276   3.585
70364W        W42789  43.930  25.728   0.890
70365W        W42790  24.032   0.699   0.373
70366W        W42791  20.690  43.379  10.786
70367W        W42792  18.135  25.117  14.898
70368W        W42793   8.636  25.941  13.391
70369W        W42794  18.516  32.910   0.932
70370W        W42795  14.787  15.266   0.176
70371W        W42796  12.335  34.681   2.416
70372W        W42797  38.387  39.087  11.105
70373W        W42798  33.501  18.628   9.835
70374W        W42799  26.601  22.332  12.669
70375W        W42800  43.234  23.518   4.344
70376W        W42801   8.394  43.930  14.779
70377W        W42802  28.514  22.794  14.827
70378W        W42803   6.936  17.518   4.204
70379W        W42804  21.508  19.525   3.574
70380W        W42805   4.328   8.172   4.055
70381W        W42806  21.647  20.666   1.807
70382W        W42807  39.469  34.569   1.780
70383W        W42808  42.054   9.744  11.123
70384W        W42809  37.346  38.966  11.930
70385W        W42810   8.943   7.427  13.462
70386W        W42811   1.233  21.740   1.470
70387W        W42812  36.782  22.126  11.566
70388W        W42813   8.703   9.186  13.899
70389W        W42814  16.136  35.077  12.968
70390W        W42815  21.412  18.069  13.410
70391W        W42816  34.886  26.716   0.086
70392W        W42817  31.381  26.753  11.001
70393W        W42818  29.948  28.537  14.314
70394W        W42819  39.310  22.991   2.977
70395W        W42820  32.586  16.416   5.427
70396W        W42821  39.813  21.092  12.396
70397W        W42822  21.312  23.152  13.469
70398W        W42823  20.479  16.891  11.053
70399W        W42824  35.347  14.640   0.450
70400W        W42825  22.701   8.726  13.826
70401W        W42826  31.400  27.585   2.280
70402W        W42827  41.505  39.567   2.655
70403W        W42828  12.622  39.576   1.679
70404W        W42829   9.873  25.092   2.416
70405W        W42830  38.398  42.693  10.978
70406W        W42831  13.772  14.199   0.934
70407W        W42832  25.170   9.365   3.833
70408W        W42833  39.555   5.115  11.510
70409W        W42834  20.163   1.508  11.907
70410W        W42835  33.728  17.803   5.032
70411W        W42836  19.854  21.736   3.248
70412W        W42837  15.401  25.553   3.706
70413W        W42838  38.604  39.440   1.779
70414W        W42839   2.508  24.745  13.871
70415W        W42840  17.268  32.940   0.194
70416W        W42841  44.628  10.210   0.210
70417W        W42842  22.520  21.724  10.752
70418W        W42843  36.673  25.164   1.185
70419W        W42844  22.943   5.834   2.825
70420W        W42845   2.749  35.882   2.544
70421W        W42846  32.468  18.637   5.545
70422W        W42847  41.222  35.221   3.731
70423W        W42848  12.145   2.937   1.803
70424W        W42849   1.680   8.160  14.938
70425W        W42850  24.711  37.555  14.289
70426W        W42851   6.718  33.751  14.424
70427W        W42852   4.975  18.096  12.339
70428W        W42853  34.685   6.767  14.451
70429W        W42854  10.232   1.986  10.630
70430W        W42855  15.635   2.546  14.889
70431W        W42856   7.737  19.814  14.560
70432W        W42857  36.122  16.108   1.407
70433W        W42858  38.801  14.677  13.901
70434W        W42859  40.807  25.618   1.864
70435W        W42860  15.091   5.436  11.661
70436W        W42861  17.317  15.595  12.539
70437W        W42862  23.720  43.799   1.020
70438W        W42863   4.985  11.916  11.437
70439W        W42864  17.476   9.489  12.841
70440W        W42865   3.323  42.400   0.474
70441W        W42866  39.763  42.801  14.805
70442W        W42867  30.441  15.741  10.954
70443W        W42868  41.747  28.228   0.738
70444W        W42869  35.805   3.829  11.983
70445W        W42870  15.538  42.819   2.210
70446W        W42871  17.927  15.805  13.853
70447W        W42872  28.243  17.765   2.200
70448W        W42873  23.650  28.701   0.484
70449W        W42874   8.759  34.841  11.154
70450W        W42875   0.143   1.964  14.555
70451W        W42876  40.396  38.870   0.295
70452W        W42877   7.844  40.099  11.679
70453W        W42878  16.995  31.160  13.281
70454W        W42879  26.954  43.359   1.659
70455W        W42880  34.659  28.620   2.422
70456W        W42881  37.853  21.539  12.071
70457W        W42882  10.008  33.567  14.027
70458W        W42883  28.160  30.449   3.301
70459W        W42884  15.636   3.296  14.281
70460W        W42885   7.489  20.643  11.656
70461W        W42886  12.717  27.540   3.681
70462W        W42887  41.838   0.518   4.063
70463W        W42888  10.726  38.047   4.395
70464W        W42889  19.174  32.028  14.836
70465W        W42890   2.887  35.325   0.789
70466W        W42891  20.801   9.831   2.692
70467W        W42892   7.835  44.703  14.890
70468W        W42893  11.243  22.969  13.508
70469W        W42894  34.825  16.521   2.277
70470W        W42895  15.850  25.074   1.412
70471W        W42896   3.125  37.321   4.168
70472W        W42897  35.689  38.642  11.925
70473W        W42898  34.339  23.710   2.288
70474W        W42899   2.432  22.132   3.790
70475W        W42900  38.247   6.973  11.067
70476W        W42901   5.923  40.380  14.399
70477W        W42902  11.761  33.228  13.632
70478W        W42903  19.221  26.172   0.523
70479W        W42904  12.443  20.311   2.291
70480W        W42905  12.602  17.202   0.007
70481W        W42906  44.889  44.327   0.583
70482W        W42907  27.018  15.322  14.494
70483W        W42908  36.431   0.087  13.525
70484W        W42909  28.591  20.961  14.815
70485W        W42910  32.607  12.121   3.205
70486W        W42911   8.734  21.747  12.115
70487W        W42912  35.086  20.944  11.117
70488W        W42913  13.717  27.929   1.895
70489W        W42914  30.045   5.755  12.482
70490W        W42915  21.120  15.874  13.347
70491W        W42916  19.186  30.099  14.843
70492W        W42917  27.930  44.283  14.901
70493W        W42918  30.391  21.791  10.681
70494W        W42919  18.038  41.051   2.345
70495W        W42920  39.074  31.413   4.077
70496W        W42921   5.343  14.320   0.449
70497W        W42922  23.465  17.808   3.407
70498W        W42923   6.823  21.282   2.708
70499W        W42924   9.451  16.024  13.277
70500W        W42925   5.990   3.381  12.829
70501W        W42926  24.134  27.927   2.297
70502W        W42927  29.264  39.370  14.078
70503W        W42928  19.155   0.215   2.326
70504W        W42929  24.541  42.323  10.926
70505W        W42930  17.334  22.741   2.748
70506W        W42931  30.428  17.206  10.678
70507W        W42932  44.714   2.223  12.852
70508W        W42933  23.616  26.653   0.166
70509W        W42934   1.767  12.552  11.750
70510W        W42935  23.586   3.251  14.429
70511W        W42936   9.938   0.914  10.764
70512W        W42937  35.425   0.309  11.399
70513W        W42938  36.379  14.217   1.294
70514W        W42939  27.107  23.767   3.241
70515W        W42940  24.362  42.622   4.052
70516W        W42941  25.824   8.880   4.255
70517W        W42942  21.659  29.883   2.229
70518W        W42943   2.485  21.709  13.233
70519W        W42944  34.345  34.093   3.629
70520W        W42945  24.444  25.650  12.216
70521W        W42946  38.483  16.612  13.166
70522W        W42947  30.586   7.460   1.679
70523W        W42948   7.782  14.855  11.070
70524W        W42949  12.704  19.824   3.594
70525W        W42950  30.335   8.444  13.487
70526W        W42951   3.699  41.579   4.121
70527W        W42952   1.163  18.276  14.809
70528W        W42953  39.062  28.116  12.048
70529W        W42954  43.416  24.667   0.262
70530W        W42955  28.051  33.490   9.821
70531W        W42956   6.789  33.117  14.070
70532W        W42957  18.591  23.684   3.399
70533W        W42958   2.310  11.167  14.978
70534W        W42959  44.471   1.933   2.037
70535W        W42960  12.678   7.222  10.991
70536W        W42961  31.887  24.581  11.656
70537W        W42962  28.220  26.237  11.515
70538W        W42963  12.519   3.228  14.961
70539W        W42964   8.810  11.186   4.736
70540W        W42965  22.283  12.776   1.855
70541W        W42966  29.713  22.109  13.576
70542W        W42967   9.658  31.557   1.189
70543W        W42968  43.785  24.620   3.723
70544W        W42969  31.027  21.114   1.320
70545W        W42970  20.980  35.495  13.832
70546W        W42971  16.656   8.282   4.587
70547W        W42972  28.069  30.363  11.321
70548W        W42973  14.752   4.667   4.339
70549W        W42974  36.860  37.471  12.476
70550W        W42975  12.511  19.505  11.555
70551W        W42976  35.876   3.277   1.847
70552W        W42977  25.924  16.831  10.613
70553W        W42978  10.802  36.464  10.547
70554W        W42979  13.145  33.008   0.042
70555W        W42980  44.577  12.290   1.426
70556W        W42981   6.708  16.168   4.544
70557W        W42982  29.467  41.126   1.511
70558W        W42983  35.574  15.493   0.020
70559W        W42984  18.506   9.336  12.010
70560W        W42985  36.832  19.827  14.884
70561W        W42986  26.132  30.914  12.668
70562W        W42987  34.740  27.265   2.257
70563W        W42988  17.944   0.926   4.136
70564W        W42989  41.246   3.209   2.281
70565W        W42990  13.942  44.958   0.337
70566W        W42991   4.675  23.665   3.646
70567W        W42992  36.982   2.242  14.066
70568W        W42993  43.513   7.734   2.693
70569W        W42994  37.311  18.755   0.874
70570W        W42995  42.962  41.501   4.681
70571W        W42996  40.421  22.184  14.690
70572W        W42997  25.295  11.213   0.901
70573W        W42998  13.326  14.313   2.187
70574W        W42999  26.933   3.332  12.375
70575W        W43000  26.262  41.040  10.809
70576W        W43001  40.001  38.055   0.348
70577W        W43002  38.619  40.345  11.728
70578W        W43003  15.181  35.933   3.220
70579W        W43004   3.670  33.611   4.584
70580W        W43005   6.715  15.138  14.421
70581W        W43006   4.508   0.893   1.406
70582W        W43007  34.457  31.113   4.608
70583W        W43008  19.218  10.595  12.077
70584W        W43009  39.566  14.714  12.589
70585W        W43010   6.234   0.029  13.526
70586W        W43011  27.150   3.733   0.378
70587W        W43012  16.102  44.907   0.960
70588W        W43013  29.868  33.031   3.197
70589W        W43014  22.323  41.983  14.926
70590W        W43015  10.264  10.658  14.185
70591W        W43016  31.622  18.166   2.402
70592W        W43017   9.413  17.760   2.790
70593W        W43018   4.332   9.585   3.837
70594W        W43019  17.740   5.511   3.830
70595W        W43020  29.662  12.205  13.031
70596W        W43021  14.650  32.972  11.612
70597W        W43022   3.275  32.256   0.055
70598W        W43023   8.713  28.307  11.550
70599W        W43024  25.100  30.159  14.188
70600W        W43025  13.039  30.116  12.002
70601W        W43026  21.730   0.587  12.926
70602W        W43027  39.158  31.367  12.102
70603W        W43028  12.804  33.526   4.573
70604W        W43029  33.550  36.611  13.091
70605W        W43030  20.992   3.880   0.411
70606W        W43031  32.904  14.294  13.064
70607W        W43032   9.219  34.380  14.864
70608W        W43033  41.050  32.353   0.919
70609W        W43034  43.042  28.050  13.858
70610W        W43035  21.552  35.990   4.645
70611W        W43036  10.800  21.292  13.997
70612W        W43037  18.574  13.037  12.615
70613W        W43038  43.496  17.167   1.076
70614W        W43039  21.429  20.059  11.460
70615W        W43040  30.108  39.588  10.769
70616W        W43041  33.046   8.431   1.910
70617W        W43042  38.925  28.354   4.120
70618W        W43043  38.857   9.590  13.543
70619W        W43044  20.894  25.671   4.600
70620W        W43045  14.684  17.589  13.856
70621W        W43046  33.115  31.312  13.324
70622W        W43047  38.007  28.045   4.417
70623W        W43048   0.903  36.384   0.907
70624W        W43049  28.109  15.003   4.926
70625W        W43050   6.712  16.632   1.630
70626W        W43051  35.503  39.265  11.571
70627W        W43052  12.681  44.272   3.414
70628W        W43053  17.509  23.013  14.778
70629W        W43054  17.725   2.819  14.352
70630W        W43055  40.068  34.200   4.057
70631W        W43056   5.187  36.200  12.668
70632W        W43057  28.873   5.143   4.579
70633W        W43058   3.884  43.682   2.247
70634W        W43059  10.761  39.847   0.379
70635W        W43060  35.895  23.506  14.108
70636W        W43061  14.171  13.773   1.891
70637W        W43062  41.103  14.567   5.105
70638W        W43063  15.750  30.930   5.120
70639W        W43064  11.196  28.631  13.575
70640W        W43065  30.674   1.851  12.152
70641W        W43066  19.776  23.782  12.551
70642W        W43067   5.244  23.501   4.398
70643W        W43068   0.930  25.279   2.262
70644W        W43069  17.600  31.766  13.528
70645W        W43070   7.963  27.976  12.516
70646W        W43071   8.759  11.634  14.871
70647W        W43072  42.260  30.210  11.641
70648W        W43073  29.031  10.223  10.461
70649W        W43074  41.154  44.417   3.019
70650W        W43075  35.287   5.905   4.499
70651W        W43076  27.431  18.058   2.202
70652W        W43077  25.243  32.968  13.962
70653W        W43078  25.690  13.633  13.050
70654W        W43079   2.643  20.123  12.574
70655W        W43080  10.878  38.876   2.739
70656W        W43081  19.274   3.773  12.487
70657W        W43082  36.077  26.578  14.076
70658W        W43083   4.140  21.140  11.944
70659W        W43084  28.430  41.219  11.655
70660W        W43085  43.505  30.005   1.238
70661W        W43086  27.301  31.555  13.289
70662W        W43087  21.016   9.200   0.061
70663W        W43088   8.843   4.040  13.933
70664W        W43089  33.650   8.179  11.629
70665W        W43090  11.607  43.809  10.690
70666W        W43091  28.038  18.065  13.889
70667W        W43092  14.282  35.419  13.834
70668W        W43093  21.036   6.289  13.003
70669W        W43094  23.007  29.537   0.912
70670W        W43095  38.733  32.958   5.040
70671W        W43096  40.626  12.291   3.111
70672W        W43097  32.189  21.239  12.468
70673W        W43098  25.122  20.142  12.001
70674W        W43099  28.143   9.164   3.225
70675W        W43100  28.414  35.955  10.849
70676W        W43101   7.528  32.324  10.608
70677W        W43102   1.981   2.818   3.772
70678W        W43103   2.000   1.250   0.952
70679W        W43104  21.583  42.073  10.746
70680W        W43105   7.637  31.153   2.852
70681W        W43106  24.587  42.559  10.474
70682W        W43107   4.787  13.919  10.467
70683W        W43108  36.731  14.267   5.014
70684W        W43109  21.716  26.238  10.705
70685W        W43110   0.828  34.956  10.770
70686W        W43111  22.760  10.480  12.132
70687W        W43112  29.613  35.821   3.601
70688W        W43113  31.222  29.014  10.674
70689W        W43114  23.535   9.272   3.803
70690W        W43115  15.590  36.926   0.258
70691W        W43116  23.856   4.302  14.397
70692W        W43117  30.460  12.892   0.463
70693W        W43118  37.525  35.348   4.717
70694W        W43119  34.087  31.434   4.768
70695W        W43120  29.689  10.181   2.369
70696W        W43121  11.013  33.227   4.135
70697W        W43122  21.464  21.667   2.270
70698W        W43123   0.156  12.309  12.561
70699W        W43124  42.224  11.178   0.477
70700W        W43125  34.097  23.166   4.647
70701W        W43126   2.121   9.662  14.899
70702W        W43127  10.312  41.472  12.695
70703W        W43128   8.654   5.014  11.994
70704W        W43129  21.530   6.971  13.891
70705W        W43130  21.768  37.696   3.761
70706W        W43131  14.316  35.321  11.229
70707W        W43132  14.372   7.648  13.531
70708W        W43133  44.375  11.710  11.142
70709W        W43134  22.667  20.038  14.836
70710W        W43135  44.553  23.128   4.116
70711W        W43136   9.428  41.327   2.273
70712W        W43137  25.210  18.970   0.430
70713W        W43138   6.515  37.096  11.022
70714W        W43139  38.774  23.159   3.832
70715W        W43140  40.017  32.173  12.671
70716W        W43141  31.565  17.665   4.541
70717W        W43142  14.812  24.063   5.720
70718W        W43143  10.380  39.423  11.893
70719W        W43144  20.778   1.843  14.563
70720W        W43145   4.270   3.276  10.613
70721W        W43146  20.159  14.785   2.294
70722W        W43147  34.465   2.871   2.540
70723W        W43148  44.847  42.034  10.451
70724W        W43149  39.652  39.982  13.957
70725W        W43150  31.773  12.147   2.317
70726W        W43151  12.734  21.151   4.848
70727W        W43152   2.696  39.915   1.330
70728W        W43153  33.363  40.905  13.355
70729W        W43154   3.741   8.320  11.525
70730W        W43155   0.170  10.263  11.599
70731W        W43156   0.228  34.976  11.506
70732W        W43157   5.905  40.346   0.830
70733W        W43158   8.622   5.935  11.085
70734W        W43159   5.380   1.804   3.657
70735W        W43160  20.157  28.921   3.657
70736W        W43161  29.692  28.229  14.686
70737W        W43162  32.939  22.168  14.521
70738W        W43163  17.629  43.442   3.600
70739W        W43164  39.908   7.614   3.744
70740W        W43165  40.556  15.742   3.555
70741W        W43166  25.762  22.795  14.369
70742W        W43167  26.009  23.143  13.367
70743W        W43168  16.348  27.085   1.966
70744W        W43169  19.795  27.381  11.137
70745W        W43170  20.408  11.441   0.422
70746W        W43171  28.570   4.260   1.669
70747W        W43172  20.801   7.327  10.900
70748W        W43173  27.092  13.222  11.610
70749W        W43174  26.786  32.968  13.422
70750W        W43175  19.092  32.081  10.259
70751W        W43176  16.138  36.343  14.677
70752W        W43177  35.556  26.151   2.837
70753W        W43178  26.084  27.316  13.025
70754W        W43179  31.155  14.829   1.858
70755W        W43180  14.871  39.625   1.935
70756W        W43181  44.819  32.967  11.526
70757W        W43182  44.380  27.717  11.848
70758W        W43183  42.346  13.275   3.771
70759W        W43184  20.875  22.576   0.878
70760W        W43185  29.656  16.131  14.458
70761W        W43186  24.441  33.458  14.267
70762W        W43187  10.390  25.468  10.693
70763W        W43188  29.411  19.929   4.315
70764W        W43189  27.087   3.844  10.733
70765W        W43190  35.966  12.951  11.127
70766W        W43191  26.640  40.095  13.844
70767W        W43192  35.722  12.358  12.332
70768W        W43193  10.748  20.516  11.935
70769W        W43194  37.450  10.043   2.760
70770W        W43195  36.333  32.575   4.254
70771W        W43196   4.254  24.473   2.352
70772W        W43197   0.735  33.205   3.321
70773W        W43198   9.867  24.219   0.432
70774W        W43199  20.389  14.176  10.464
70775W        W43200  44.201  26.912  12.766
70776W        W43201  22.888  11.582   4.605
70777W        W43202   8.915  25.682  13.771
70778W        W43203  39.194  41.249  10.304
70779W        W43204  29.510   5.293   3.377
70780W        W43205  21.262  18.177   2.566
70781W        W43206   1.557  19.749  11.026
70782W        W43207  43.574  33.477  11.221
70783W        W43208   8.552  31.912   3.824
70784W        W43209  24.802  31.458  13.778
70785W        W43210   4.508  44.802  11.972
70786W        W43211   7.309  34.440  11.899
70787W        W43212   1.555  35.400  10.772
70788W        W43213  34.966  43.210   0.021
70789W        W43214   0.120  22.586   0.860
70790W        W43215  10.838  42.703   4.583
70791W        W43216  11.738  44.733  10.902
70792W        W43217  23.611  39.975  13.676
70793W        W43218  14.906  28.471   2.865
70794W        W43219  40.002  24.816   4.545
70795W        W43220  27.983   1.162   4.761
70796W        W43221  14.507   0.601   0.549
70797W        W43222  10.603  32.217   2.305
70798W        W43223  41.033  24.691   4.692
70799W        W43224  29.366  13.092  14.249
70800W        W43225  33.350  31.879  11.191
70801W        W43226   8.013   6.295  10.123
70802W        W43227  25.601  18.039   0.681
70803W        W43228   6.346  33.025  13.828
70804W        W43229   7.708  40.481   3.181
70805W        W43230   5.699  22.602   0.693
70806W        W43231   6.463   3.373   4.019
70807W        W43232  24.422  36.124  12.861
70808W        W43233  43.924   0.056   3.299
70809W        W43234  17.190  16.728  13.343
70810W        W43235  14.603  13.177   3.364
70811W        W43236  42.617  27.929   4.561
70812W        W43237   3.681  29.243   2.270
70813W        W43238  40.344  19.547  12.902
70814W        W43239  29.113   8.460   4.074
70815W        W43240  24.002  30.207   2.725
70816W        W43241  39.999  12.404   3.859
70817W        W43242  19.572  34.549  11.103
70818W        W43243  38.514  19.572  12.088
70819W        W43244  13.099  37.125   3.669
70820W        W43245   1.684  35.914  10.728
70821W        W43246  11.425  37.927  14.229
70822W        W43247  27.979  36.914  14.842
70823W        W43248  20.292  38.908   4.554
70824W        W43249  41.890   4.276  13.093
70825W        W43250  35.093  38.066   0.943
70826W        W43251  41.031   9.834  11.135
70827W        W43252  35.902  41.097   2.330
70828W        W43253  31.044  15.167   1.478
70829W        W43254  15.760  40.774  11.089
70830W        W43255  12.152  27.920   3.286
70831W        W43256  39.506   6.457  11.061
70832W        W43257  10.708   5.299   1.505
70833W        W43258  37.426   5.362   4.100
70834W        W43259  34.877  24.611   3.183
70835W        W43260  35.679  38.513  13.404
70836W        W43261  44.216  36.964  12.081
70837W        W43262  13.319  21.965  14.526
70838W        W43263   7.756  24.264  12.526
70839W        W43264  36.405  44.095   0.345
70840W        W43265  12.994   8.709  14.732
70841W        W43266  22.047   0.777   3.052
70842W        W43267   0.966  18.254  12.912
70843W        W43268   6.876  42.525   0.446
70844W        W43269  41.198  33.723  10.813
70845W        W43270  29.102   3.291  14.459
70846W        W43271  12.671  28.499   3.713
70847W        W43272  26.689   4.681  13.327
70848W        W43273   0.497  24.348   4.800
70849W        W43274  34.435  26.218   4.376
70850W        W43275   8.350  34.989  10.128
70851W        W43276  39.338  43.802  13.425
70852W        W43277  26.070  33.031   2.729
70853W        W43278  42.242  36.607   1.814
70854W        W43279  37.050  37.300  13.951
70855W        W43280   8.368  36.332  12.324
70856W        W43281  27.710  34.507   0.872
70857W        W43282   9.662  30.037   2.340
70858W        W43283   5.784  23.734   1.145
70859W        W43284  13.694  38.533   3.928
70860W        W43285  16.069  43.392   1.003
70861W        W43286  39.551  26.081  14.455
70862W        W43287  17.508  28.927  13.260
70863W        W43288  31.908  21.357   5.346
70864W        W43289  29.771  22.055   1.003
70865W        W43290  19.221   5.200  12.853
70866W        W43291  35.182  22.644  11.676
70867W        W43292  21.150  37.920  14.359
70868W        W43293  20.964  32.026  11.534
70869W        W43294  18.186  34.438  13.287
70870W        W43295  20.767  36.490  13.480
70871W        W43296  30.163  42.710  10.900
70872W        W43297   7.223  26.170   1.663
70873W        W43298  37.592  31.476  11.136
70874W        W43299  15.489  35.617   0.354
70875W        W43300  44.793  35.702   1.808
70876W        W43301  30.414  35.798  10.980
70877W        W43302  11.665  13.075  13.545
70878W        W43303  26.697  27.980   0.401
70879W        W43304  15.566  43.965   3.855
70880W        W43305  20.047  40.954   2.789
70881W        W43306  34.178  28.518   1.733
70882W        W43307  16.250  20.071  13.853
70883W        W43308  27.541  31.640   0.235
70884W        W43309  18.723   8.079   1.723
70885W        W43310  39.867  13.124   2.164
70886W        W43311  20.609   8.678   1.777
70887W        W43312  42.503   2.858  11.579
70888W        W43313  36.153   2.231  10.503
70889W        W43314  25.708  15.923   4.970
70890W        W43315  18.092  20.293  12.968
70891W        W43316  21.036   1.757  11.477
70892W        W43317  25.941   8.214  12.687
70893W        W43318  13.103  27.669   0.366
70894W        W43319   6.105  10.785  12.447
70895W        W43320   4.733   3.430  14.761
70896W        W43321  42.060  22.992  12.917
70897W        W43322   3.869  30.744   1.867
70898W        W43323  39.059  21.076  13.079
70899W        W43324   0.834  10.084   4.146
70900W        W43325  31.885   5.431   3.197
70901W        W43326  25.376  35.955  14.265
70902W        W43327  30.657   6.919  11.634
70903W        W43328  37.820  40.637   9.854
70904W        W43329  13.289  11.903   5.077
70905W        W43330   1.154  31.171  10.730
70906W        W43331  41.584  22.531  11.554
70907W        W43332  16.580  40.867  10.831
70908W        W43333   7.079  40.330  12.849
70909W        W43334  25.742  37.448  14.137
70910W        W43335  36.383  41.155  12.011
70911W        W43336  36.637  36.041  13.314
70912W        W43337  16.597  17.378   4.260
70913W        W43338  24.703  28.102   3.132
70914W        W43339  36.891  28.423   3.274
70915W        W43340  27.160  11.049   4.110
70916W        W43341  31.846  24.302  13.939
70917W        W43342  11.060   5.010  10.043
70918W        W43343  41.716  43.868   2.624
70919W        W43344  30.976  31.544  14.938
70920W        W43345  42.501  23.090   1.492
70921W        W43346   0.960  41.395   5.084
70922W        W43347  24.152  37.067   1.703
70923W        W43348  30.446  36.272   3.265
70924W        W43349  11.295  19.085   0.247
70925W        W43350  40.772   1.122  14.343
70926W        W43351  39.255  36.840  12.432
70927W        W43352  30.484  43.676   3.112
70928W        W43353   9.372  32.164   0.612
70929W        W43354  35.115  39.405   1.743
70930W        W43355  21.939   1.747   4.134
70931W        W43356   6.171  15.962  10.153
70932W        W43357  12.129   7.883   4.581
70933W        W43358   1.273  43.827   3.726
70934W        W43359   3.420  41.042   1.638
70935W        W43360   0.924  33.181   4.634
70936W        W43361   3.922  15.082   0.684
70937W        W43362  12.649  19.780  11.115
70938W        W43363  27.920  32.461   3.726
70939W        W43364   9.189  28.211   1.043
70940W        W43365  21.713  33.616   2.208
70941W        W43366   0.468   5.493  12.194
70942W        W43367   4.944  44.379   1.889
70943W        W43368   6.889   8.260   0.809
70944W        W43369  38.980  39.581   2.130
70945W        W43370  34.918  36.851   1.374
70946W        W43371  39.480  26.203  10.983
70947W        W43372  38.037  24.088   0.804
70948W        W43373  27.122  43.817   1.897
70949W        W43374  29.342  20.177   0.553
70950W        W43375   3.984   4.751  10.638
70951W        W43376  16.122  30.018  10.331
70952W        W43377  37.044  21.439   4.103
70953W        W43378   6.423  28.776  14.528
70954W        W43379   0.524  27.016   0.519
70955W        W43380  41.855  32.850  14.958
70956W        W43381  21.275  35.256   1.244
70957W        W43382  28.047  12.155  11.565
70958W        W43383  22.053  27.901  11.972
70959W        W43384  42.130  38.879   2.841
70960W        W43385  39.626  39.237   3.738
70961W        W43386   8.573  11.149  14.806
70962W        W43387  13.275  27.032  14.655
70963W        W43388  13.294   4.310   3.246
70964W        W43389  27.042  31.163   2.599
70965W        W43390  35.115  36.033  11.610
70966W        W43391  39.940  17.183   2.437
70967W        W43392  36.045  40.606  12.691
70968W        W43393  20.227  39.410   0.883
70969W        W43394  23.606  31.895   0.544
70970W        W43395  44.561  37.935  10.415
70971W        W43396  24.480  14.837  13.372
70972W        W43397   8.587  11.149  13.824
70973W        W43398   1.032  19.630   1.816
70974W        W43399  15.190   2.531  12.504
70975W        W43400  32.081   3.227  13.029
70976W        W43401  40.862  28.772  11.141
70977W        W43402  34.978  33.346  12.026
70978W        W43403  16.158  25.565   1.285
70979W        W43404  28.910  44.862  14.535
70980W        W43405   4.190   3.768   2.276
70981W        W43406  24.024  39.740  14.350
70982W        W43407  30.711  42.966  10.698
70983W        W43408  14.208  40.554   0.913
70984W        W43409  26.596   1.549  14.531
70985W        W43410  11.818  14.119  12.572
70986W        W43411   8.473  30.129  11.555
70987W        W43412  33.695  19.861   0.280
70988W        W43413  43.188  27.875  11.508
70989W        W43414   4.500   4.690   3.970
70990W        W43415  41.080  15.167  13.006
70991W        W43416   4.515   8.449  12.196
70992W        W43417  32.614  11.108   4.224
70993W        W43418  30.997  24.156  14.604
70994W        W43419  36.366  37.893   1.365
70995W        W43420   1.785  15.976  13.089
70996W        W43421  31.201   3.496   1.311
70997W        W43422  30.197  34.371  14.871
70998W        W43423  21.967  38.061  10.606
70999W        W43424  39.967  44.994   0.347
71000W        W43425  16.075  24.782   0.550
71001W        W43426  25.963  30.424   1.364
71002W        W43427  24.302  19.155   0.472
71003W        W43428   3.689  19.599  12.544
71004W        W43429  26.858  33.099   5.703
71005W        W43430  28.352   3.370  14.980
71006W        W43431  33.848  39.271  13.836
71007W        W43432  12.603   7.758  13.368
71008W        W43433   1.978   4.292  12.637
71009W        W43434   4.994  24.678   4.885
71010W        W43435  33.393  32.223  13.427
71011W        W43436  21.993  11.870   4.680
71012W        W43437  16.360  31.291   3.360
71013W        W43438  33.541  17.779  13.430
71014W        W43439  12.339  18.351  11.574
71015W        W43440  32.936  39.438  12.524
71016W        W43441  31.427   3.453  12.396
71017W        W43442  32.858  26.022   0.992
71018W        W43443  40.192  13.602   0.244
71019W        W43444  33.007  11.808   2.935
71020W        W43445  34.431  43.791  12.912
71021W        W43446  43.387  15.728  10.779
71022W        W43447   7.927  43.297  13.924
71023W        W43448  41.334  42.881  11.635
71024W        W43449  39.355  13.424  13.813
71025W        W43450  38.543  14.305   2.956
71026W        W43451  37.897  33.515   1.700
71027W        W43452   4.338  18.834  11.495
71028W        W43453  32.589  29.893  13.417
71029W        W43454  40.282  12.889  10.767
71030W        W43455  36.025   7.201  14.575
71031W        W43456  34.135  30.423   1.239
71032W        W43457  10.142  20.765  12.853
71033W        W43458  21.283   7.362   4.182
71034W        W43459  29.256  37.428   5.100
71035W        W43460  21.017  10.614   0.259
71036W        W43461  22.456   0.926   3.337
71037W        W43462  16.593  31.442   0.151
71038W        W43463  29.531  33.699  14.524
71039W        W43464   5.707  14.112  11.941
71040W        W43465   0.354  10.679  14.796
71041W        W43466  44.332  31.425   4.407
71042W        W43467  12.671  32.883  10.750
71043W        W43468  23.618  26.038  12.593
71044W        W43469  30.406  24.921  14.400
71045W        W43470  26.564  12.164   4.644
71046W        W43471  27.763  42.555  11.009
71047W        W43472  34.812  32.629   4.108
71048W        W43473  35.844  15.341  13.415
71049W        W43474  19.313  23.292   1.384
71050W        W43475  19.295   0.990   2.703
71051W        W43476  13.671  31.354  14.808
71052W        W43477  42.361  23.222  13.405
71053W        W43478  21.299  32.428   4.509
71054W        W43479  12.840  39.551  13.286
71055W        W43480   5.869  20.325   0.014
71056W        W43481  34.950  30.242   1.766
71057W        W43482  40.558   6.389  13.875
71058W        W43483  36.614  41.852   3.357
71059W        W43484   5.388   1.762   4.598
71060W        W43485  20.249  17.697  10.496
71061W        W43486  24.186   3.314   1.955
71062W        W43487   0.035  36.285   1.063
71063W        W43488  14.084  29.916  11.121
71064W        W43489   6.615   3.940   2.661
71065W        W43490  32.612  12.591  14.312
71066W        W43491  22.827   7.390  13.489
71067W        W43492  15.973  21.565  12.420
71068W        W43493  28.575  30.569  14.394
71069W        W43494   9.722   8.797   5.509
71070W        W43495  36.366  15.833   4.480
71071W        W43496  12.496  41.553   1.851
71072W        W43497   9.422  19.763   2.910
71073W        W43498   8.649  11.660   4.586
71074W        W43499  22.550  22.580   0.535
71075W        W43500  30.642  28.531  10.691
71076W        W43501  26.682   7.775  14.537
71077W        W43502  10.198  26.137   4.715
71078W        W43503  35.710   2.925   1.180
71079W        W43504  19.801   1.446  14.766
71080W        W43505  40.448  36.434  13.515
71081W        W43506  13.895  15.861   4.594
71082W        W43507  26.207  13.583  11.162
71083W        W43508  19.261  13.289  14.870
71084W        W43509   2.193  16.783   1.302
71085W        W43510  40.744  36.326   2.803
71086W        W43511  18.676  22.659  14.723
71087W        W43512   2.778  17.085   3.275
71088W        W43513  30.642   1.244   4.551
71089W        W43514   3.728  29.489  11.553
71090W        W43515  25.991   7.140   2.656
71091W        W43516  23.059  13.373   2.614
71092W        W43517  24.165  19.714   3.203
71093W        W43518  13.412  39.946   2.365
71094W        W43519   4.230  42.756   4.576
71095W        W43520   0.222  21.424  12.987
71096W        W43521  24.683   1.344  14.401
71097W        W43522  19.995  10.467   0.505
71098W        W43523  30.115  10.165  11.038
71099W        W43524  10.116   0.551   3.885
71100W        W43525  12.848  22.227  10.132
71101W        W43526   5.323  22.582  13.040
71102W        W43527  35.129   1.449  12.108
71103W        W43528  11.897  40.261   0.718
71104W        W43529  44.339   3.257   0.735
71105W        W43530  34.328  22.754  12.070
71106W        W43531  35.570  23.335  11.625
71107W        W43532  28.913  37.606  10.664
71108W        W43533  30.909  14.370   2.746
71109W        W43534   6.345  32.100  11.973
71110W        W43535  28.560  22.102  14.061
71111W        W43536  31.869  32.884  12.834
71112W        W43537  28.247  11.611   1.490
71113W        W43538  32.330  14.340   5.088
71114W        W43539   7.186  37.157  13.515
71115W        W43540  42.952  11.369   1.866
71116W        W43541   2.446  37.811   0.055
71117W        W43542  39.822   2.749   4.211
71118W        W43543  10.743   9.632   0.793
71119W        W43544  17.780  27.717   2.813
71120W        W43545  42.883  10.930   4.069
71121W        W43546   2.417  30.475  10.733
71122W        W43547  44.500  31.004   4.170
71123W        W43548   5.412  37.888  10.889
71124W        W43549  18.976  18.277  12.559
71125W        W43550  31.117  22.060   4.173
71126W        W43551  13.333   6.263   1.526
71127W        W43552  13.508  26.081   1.975
71128W        W43553  36.468  22.941   1.725
71129W        W43554  27.579  21.482  13.492
71130W        W43555   4.733  16.810  12.150
71131W        W43556  18.273  19.168   4.347
71132W        W43557  42.471  11.398   0.897
71133W        W43558  25.474   6.745  12.110
71134W        W43559  29.882  17.683  10.273
71135W        W43560  32.062  10.366   1.934
71136W        W43561  42.458  43.950  10.999
71137W        W43562  33.306  11.591  10.901
71138W        W43563  31.102  18.301  12.265
71139W        W43564   0.897  23.038   0.495
71140W        W43565   0.952  30.462   2.701
71141W        W43566  32.961  29.063  14.897
71142W        W43567  14.445  38.634  11.056
71143W        W43568  42.820   2.010   0.110
71144W        W43569  38.951  11.681  11.585
71145W        W43570  37.106  43.826   2.325
71146W        W43571   0.443  27.877   0.025
71147W        W43572  20.521  26.987   2.606
71148W        W43573   3.474  41.563  11.696
71149W        W43574  35.429  29.959  12.612
71150W        W43575  14.284  42.439   2.214
71151W        W43576   0.182  12.308  14.401
71152W        W43577  38.874  36.400   0.798
71153W        W43578   9.879   8.990   5.062
71154W        W43579  26.308   1.829   3.556
71155W        W43580  15.556  17.433   1.793
71156W        W43581  15.383  14.960  11.165
71157W        W43582   0.755  32.892  13.822
71158W        W43583  14.408  34.935   0.164
71159W        W43584  42.511  43.443  12.110
71160W        W43585   0.647  39.037   2.454
71161W        W43586  42.919  14.076  12.617
71162W        W43587  34.274  21.042   3.669
71163W        W43588  28.073  11.101  12.598
71164W        W43589   4.257  16.062  13.945
71165W        W43590  30.466   2.932  12.595
71166W        W43591  31.393  30.618  14.170
71167W        W43592  21.549  37.925  11.631
71168W        W43593  44.832  10.846   1.759
71169W        W43594  31.060  14.598  14.289
71170W        W43595  39.944  44.026  10.593
71171W        W43596   7.153  20.191   3.175
71172W        W43597  30.603   1.868  14.842
71173W        W43598   8.661  35.029   4.739
71174W        W43599  39.261  41.368   1.392
71175W        W43600   6.122  10.870   1.254
71176W        W43601  10.290  10.235  11.037
71177W        W43602  29.122  23.499   0.235
71178W        W43603   5.262  41.484   0.384
71179W        W43604  12.194  21.262  12.107
71180W        W43605  12.211  43.753  14.840
71181W        W43606  43.746  11.774  14.938
71182W        W43607   4.719  21.665   4.594
71183W        W43608  14.316  12.317  13.416
71184W        W43609   2.734  14.946  14.465
71185W        W43610  18.152   4.584  13.339
71186W        W43611  33.919  35.577   1.705
71187W        W43612  15.708   3.099  11.890
71188W        W43613   3.528  22.455  10.420
71189W        W43614  15.604  29.977   3.334
71190W        W43615  28.457  41.290  13.012
71191W        W43616  37.584   1.228  13.024
71192W        W43617   3.003  28.991  13.936
71193W        W43618  14.312  12.699  10.751
71194W        W43619  34.562  36.066  13.423
71195W        W43620  16.155  13.281   2.791
71196W        W43621  18.535   9.090   1.879
71197W        W43622  23.121   4.969  14.263
71198W        W43623  19.565   3.205  13.080
71199W        W43624  37.107  13.759  13.584
71200W        W43625  24.536   5.782   0.433
71201W        W43626   3.878  39.426  11.860
71202W        W43627  15.666  22.143   2.814
71203W        W43628  16.595   7.061  12.064
71204W        W43629  31.167  41.436   3.159
71205W        W43630  20.174  12.331   1.729
71206W        W43631  21.219  17.837  11.964
71207W        W43632  11.573  28.970  11.713
71208W        W43633  25.062  18.724  10.957
71209W        W43634   8.262  24.964  11.671
71210W        W43635  40.107  36.105   1.212
71211W        W43636  16.707  43.157  10.847
71212W        W43637  36.432   3.909  13.781
71213W        W43638  32.561   0.024   0.757
71214W        W43639  14.537  16.339  14.751
71215W        W43640   0.899  11.346   4.639
71216W        W43641  23.655  15.261   2.146
71217W        W43642  32.887   7.391  14.286
71218W        W43643  35.077  19.243  12.080
71219W        W43644  25.873   5.668  11.500
71220W        W43645  41.267  20.180   0.548
71221W        W43646  21.610  42.042  13.351
71222W        W43647   7.615   3.788   2.812
71223W        W43648  44.978  33.150   0.313
71224W        W43649  13.785   8.702  12.876
71225W        W43650  25.311   2.509  10.544
71226W        W43651   8.648  15.133   1.771
71227W        W43652  16.389  36.321  12.085
71228W        W43653  15.506  26.974  12.611
71229W        W43654  18.491  12.752   1.531
71230W        W43655   0.301  37.563  12.494
71231W        W43656  29.081  24.923  12.161
71232W        W43657  38.405   8.809  11.347
71233W        W43658   1.795   5.582  11.070
71234W        W43659  18.549   1.788  11.678
71235W        W43660  15.579  24.069  14.764
71236W        W43661  39.591  12.543  14.134
71237W        W43662  18.813  32.310  13.606
71238W        W43663   3.402  23.075   3.612
71239W        W43664  32.054  20.003   3.249
71240W        W43665  18.668  21.949   1.789
71241W        W43666  43.019  25.482  10.736
71242W        W43667  42.458  14.552   1.644
71243W        W43668   3.308   5.846   4.623
71244W        W43669   6.873  29.394  14.729
71245W        W43670  19.259  39.984  12.917
71246W        W43671  23.610  29.647  14.423
71247W        W43672  27.475  40.415   0.235
71248W        W43673   1.896  43.173   2.784
71249W        W43674  41.004  17.567   0.825
71250W        W43675  31.094  41.389   2.265
71251W        W43676  18.651  14.567   2.809
71252W        W43677  32.019   0.985   1.741
71253W        W43678  19.055  28.212   0.489
71254W        W43679  16.849   7.258  14.440
71255W        W43680  30.584  10.114  12.580
71256W        W43681  14.351  31.365  13.513
71257W        W43682  37.351  34.162  13.348
71258W        W43683  32.369   7.696   0.461
71259W        W43684  28.908   9.114  13.820
71260W        W43685  25.014  40.378   1.801
71261W        W43686   7.293  12.640   3.299
71262W        W43687  25.445  18.958   2.212
71263W        W43688   0.429  41.449   4.901
71264W        W43689  16.620  32.138  14.013
71265W        W43690   8.395  36.700  10.855
71266W        W43691  36.631  36.473   3.404
71267W        W43692  39.074   2.361  12.993
71268W        W43693  19.685  16.956   1.903
71269W        W43694  24.391   3.765  13.103
71270W        W43695  19.570  29.639   4.647
71271W        W43696   4.940  34.472  11.105
71272W        W43697  23.888  30.531   4.671
71273W        W43698  11.684  12.812  13.103
71274W        W43699  19.211  26.484  14.065
71275W        W43700  41.277  19.059  14.872
71276W        W43701  37.050  31.531  11.986
71277W        W43702  41.768   2.701  13.473
71278W        W43703  23.475  40.899   1.378
71279W        W43704  30.959  18.537   2.801
71280W        W43705  16.197  34.895  11.942
71281W        W43706  10.598   8.314  13.840
71282W        W43707  23.711   4.225   3.056
71283W        W43708  28.643   3.234   1.411
71284W        W43709  22.733  38.358  11.235
71285W        W43710   6.211  35.056  14.498
71286W        W43711  20.182  11.329   3.109
71287W        W43712  16.698   4.521  13.994
71288W        W43713   9.774  29.888  11.539
71289W        W43714  29.132   6.327  11.330
71290W        W43715  40.785  33.450  11.005
71291W        W43716  12.349   1.807  13.338
71292W        W43717  24.734  33.200  12.822
71293W        W43718  39.720  23.322  11.592
71294W        W43719   6.178  36.403  14.395
71295W        W43720  32.617  28.500  14.560
71296W        W43721  33.144  26.287  12.919
71297W        W43722  38.794  17.432   1.517
71298W        W43723  43.979  34.048  11.524
71299W        W43724  31.331   7.634   4.474
71300W        W43725  40.850  44.014   3.723
71301W        W43726  14.724  30.204   1.560
71302W        W43727  38.547  29.016   2.726
71303W        W43728  14.507   0.860  12.459
71304W        W43729  27.921   0.793  13.274
71305W        W43730  28.149  20.358  13.808
71306W        W43731  16.893  25.039   1.397
71307W        W43732  28.692  28.455  11.487
71308W        W43733   0.450  38.837   4.487
71309W        W43734  24.255  21.064  11.894
71310W        W43735   0.705  21.703   2.838
71311W        W43736  25.409  33.930   3.177
71312W        W43737  44.045  30.450   2.921
71313W        W43738  26.064   2.395   2.078
71314W        W43739  17.124  11.827  14.340
71315W        W43740  38.629  43.106   0.357
71316W        W43741  39.722   0.695  13.568
71317W        W43742  30.904   4.787   0.399
71318W        W43743  27.053  15.043   0.495
71319W        W43744  14.018  18.039  12.158
71320W        W43745  43.054  38.081   2.167
71321W        W43746  37.784  15.628  11.952
71322W        W43747  17.665   0.011   3.870
71323W        W43748   0.031  32.645   3.515
71324W        W43749  17.464  12.086   2.470
71325W        W43750  15.222  19.611   4.497
71326W        W43751  34.671   6.924  10.392
71327W        W43752   8.388  34.623  10.472
71328W        W43753  10.155  20.244   3.300
71329W        W43754  44.913  32.322   2.206
71330W        W43755  11.209  21.684   0.729
71331W        W43756   3.765  23.967   3.700
71332W        W43757   6.905  30.608   0.163
71333W        W43758   0.322   8.074  14.891
71334W        W43759  31.219  43.050   4.811
71335W        W43760  23.459  27.517  11.852
71336W        W43761  17.058  23.179   3.568
71337W        W43762  13.632  20.780   0.841
71338W        W43763  12.749  24.832   4.640
71339W        W43764  39.836  22.551  12.095
71340W        W43765  28.700  35.788  11.728
71341W        W43766  44.358  18.216   1.463
71342W        W43767  27.677  32.131   2.422
71343W        W43768   8.715   1.883   3.158
71344W        W43769  13.832  20.101   4.204
71345W        W43770  25.113  41.271  11.509
71346W        W43771  42.937  39.701  12.562
71347W        W43772  35.033  24.338  13.895
71348W        W43773  21.665  20.207  13.863
71349W        W43774  12.041  25.484  11.079
71350W        W43775  35.535  39.658   2.684
71351W        W43776  34.509  42.476  13.128
71352W        W43777   7.814  18.919  14.735
71353W        W43778  17.300  26.138  10.088
71354W        W43779  34.529  20.222  13.974
71355W        W43780  13.681  26.013   3.836
71356W        W43781  42.293   7.235  10.252
71357W        W43782  35.931  21.253  13.900
71358W        W43783  41.946  14.671  14.709
71359W        W43784  31.145  14.167  10.629
71360W        W43785   5.626  31.934  13.967
71361W        W43786  27.421  26.885   4.772
71362W        W43787  40.858  44.427  13.005
71363W        W43788   0.985  23.592   3.733
71364W        W43789  30.304  11.820  12.799
71365W        W43790  35.979  35.621  13.094
71366W        W43791  20.691  19.600   4.200
71367W        W43792   9.264  35.799   1.484
71368W        W43793   3.545  32.568   1.417
71369W        W43794   5.784  26.607   3.324
71370W        W43795  29.552   0.067  14.259
71371W        W43796   2.268  11.710  12.814
71372W        W43797  19.532  39.913  11.269
71373W        W43798  31.939  40.838  11.204
71374W        W43799  16.089  32.126  13.940
71375W        W43800  42.967  10.969   4.600
71376W        W43801  28.746  14.831  13.752
71377W        W43802  30.481   1.137  11.630
71378W        W43803  37.289  24.502   4.890
71379W        W43804  38.309  24.373  11.990
71380W        W43805  24.295  33.535  14.818
71381W        W43806  34.941  41.479  14.949
71382W        W43807   9.506  25.149   5.082
71383W        W43808  40.301  42.218   5.263
71384W        W43809   3.822  20.717  12.484
71385W        W43810  36.987  30.753  12.556
71386W        W43811  11.664  22.167  12.365
71387W        W43812  10.724   5.026  10.700
71388W        W43813  21.108  44.055  11.944
71389W        W43814  10.896  37.047   4.585
71390W        W43815  36.000  39.541  12.796
71391W        W43816  18.199  38.257  14.138
71392W        W43817  23.545  31.088  14.288
71393W        W43818  44.761  39.329  14.320
71394W        W43819  18.502   1.297  14.984
71395W        W43820  34.402   4.595   0.477
71396W        W43821  39.964  31.513   4.099
71397W        W43822  35.077   2.745   2.924
71398W        W43823  37.299   6.088  13.023
71399W        W43824  39.967   3.655  12.228
71400W        W43825  26.177  36.553   3.672
71401W        W43826  35.967  31.119  14.853
71402W        W43827  43.494  44.709   1.731
71403W        W43828  24.270  17.213   4.449
71404W        W43829   1.183  41.840   3.708
71405W        W43830  14.838   0.469   3.238
71406W        W43831  10.831  30.207   4.708
71407W        W43832  17.234  35.945  13.093
71408W        W43833  14.208  25.897   3.686
71409W        W43834  42.486   4.377  10.770
71410W        W43835  30.868  19.755   4.504
71411W        W43836  44.055  25.303   3.281
71412W        W43837  17.061  14.897  10.328
71413W        W43838  44.633  13.073  12.874
71414W        W43839  41.550  32.957   3.216
71415W        W43840  19.137  44.429   1.796
71416W        W43841  19.998  27.630   4.196
71417W        W43842   4.232  28.334   2.711
71418W        W43843  17.618  30.257  12.112
71419W        W43844  19.098   3.005   4.295
71420W        W43845  27.718  21.237  12.150
71421W        W43846  43.391  39.847  10.734
71422W        W43847  32.407   5.416   0.898
71423W        W43848  28.941  16.808  12.081
71424W        W43849   0.762  44.921   1.538
71425W        W43850  44.302  42.549   4.554
71426W        W43851  13.268   7.953  12.888
71427W        W43852  16.698  21.250  12.095
71428W        W43853  14.678  32.272  11.285
71429W        W43854  23.744  24.193   2.781
71430W        W43855  25.799  28.958   3.894
71431W        W43856  13.088  43.818  10.722
71432W        W43857   3.303  41.542   1.762
71433W        W43858  22.255  42.861  13.446
71434W        W43859  31.943  25.900   1.707
71435W        W43860  19.456  25.677   4.126
71436W        W43861  21.527  20.017  14.745
71437W        W43862  20.138  24.692   3.676
71438W        W43863  15.867  17.606  12.830
71439W        W43864  35.896  18.510  12.483
71440W        W43865  38.566  41.300   2.804
71441W        W43866  21.246  36.225   2.279
71442W        W43867  23.277  27.629  10.973
71443W        W43868  42.149  25.647  13.948
71444W        W43869  11.545   4.717  10.201
71445W        W43870   7.792  19.769   4.565
71446W        W43871   2.972  38.181   4.646
71447W        W43872   0.729  42.206  13.047
71448W        W43873  25.663  39.826  12.578
71449W        W43874  27.489  11.715  14.414
71450W        W43875  35.282  19.112  10.458
71451W        W43876   8.707   4.280  12.899
71452W        W43877  25.607  16.785   0.506
71453W        W43878  27.255  26.929  11.860
71454W        W43879   0.243  28.416  14.040
71455W        W43880  40.283  19.129  12.558
71456W        W43881   2.442  35.995  13.063
71457W        W43882  19.303   3.437  10.456
71458W        W43883  37.628   4.817   1.770
71459W        W43884  29.600   1.227  12.017
71460W        W43885  13.155  38.086  14.924
71461W        W43886  17.813  19.790   0.018
71462W        W43887  15.853  16.318   0.349
71463W        W43888   0.813   3.096   0.391
71464W        W43889  32.001  26.456  10.926
71465W        W43890  43.723  38.057   3.202
71466W        W43891   1.678  39.085   2.821
71467W        W43892  30.704  13.055  14.157
71468W        W43893  34.653  16.064  12.752
71469W        W43894   8.478   3.904   4.642
71470W        W43895  23.307  20.063  14.243
71471W        W43896   3.312  20.653   0.256
71472W        W43897  27.110  34.603   4.855
71473W        W43898  43.169   3.328  11.908
71474W        W43899  31.554  28.185  14.077
71475W        W43900  40.051  34.151   4.578
71476W        W43901   3.965  25.209  13.994
71477W        W43902  34.795  40.251   3.124
71478W        W43903  41.095   9.754  12.871
71479W        W43904  10.758  38.084   3.196
71480W        W43905  14.791  35.395  11.987
71481W        W43906  43.852  15.156   3.545
71482W        W43907  43.519  41.777  12.033
71483W        W43908  19.577  23.366  12.333
71484W        W43909  38.698  16.119  14.924
71485W        W43910  35.054  15.123   4.380
71486W        W43911  18.162  24.343   4.708
71487W        W43912  19.994   6.770   4.022
71488W        W43913  11.716   2.448  11.118
71489W        W43914   0.758  27.858  12.543
71490W        W43915  33.970  44.762  13.201
71491W        W43916  11.596  37.252  12.595
71492W        W43917  22.548  41.986  11.712
71493W        W43918  34.155  44.220  13.063
71494W        W43919   5.284  26.187  11.618
71495W        W43920  39.210  44.780  10.612
71496W        W43921  12.138  36.155   4.083
71497W        W43922  37.956  37.460   0.897
71498W        W43923   3.014  44.245  14.244
71499W        W43924  27.302  39.839   1.912
71500W        W43925  29.243  33.398  14.206
71501W        W43926  44.511  28.136  14.753
71502W        W43927  38.636   4.354   1.179
71503W        W43928  44.901  35.378   0.910
71504W        W43929  17.641  37.972   4.001
71505W        W43930  15.813  23.860   4.452
71506W        W43931  24.978   7.299  12.352
71507W        W43932  16.305  24.649   0.990
71508W        W43933  14.890  21.764   4.166
71509W        W43934  31.527  44.392  13.580
71510W        W43935  29.744  10.341   3.349
71511W        W43936  41.439  34.605  13.414
71512W        W43937  44.934  13.870   4.133
71513W        W43938  42.968   0.728   1.339
71514W        W43939  28.849  14.469  14.635
71515W        W43940  16.223   6.825   3.361
71516W        W43941  15.421  42.622  13.775
71517W        W43942   2.216  29.490   5.103
71518W        W43943   1.201  30.861  12.995
71519W        W43944  40.956   2.193  11.972
71520W        W43945  42.860  22.513   5.381
71521W        W43946  18.501  33.916   3.262
71522W        W43947   3.481  41.383  12.482
71523W        W43948  19.832   8.169   3.775
71524W        W43949   7.078  22.984   1.349
71525W        W43950   1.482  20.626   1.716
71526W        W43951   3.136  28.631   1.482
71527W        W43952   5.676  13.358  10.947
71528W        W43953   0.545  34.511   1.821
71529W        W43954  17.066  36.321  14.871
71530W        W43955  20.506  16.250   3.610
71531W        W43956  31.439  16.050   3.340
71532W        W43957  32.857   2.966  11.390
71533W        W43958  13.106  32.569  10.713
71534W        W43959   3.044  29.498   0.438
71535W        W43960  12.213  41.914  11.252
71536W        W43961   7.938  39.310  13.763
71537W        W43962  24.518  14.273   4.649
71538W        W43963   4.993  26.622  10.746
71539W        W43964  43.330  23.007   0.874
71540W        W43965  21.164  39.813  14.478
71541W        W43966  22.966  19.587   1.488
71542W        W43967  27.203  12.104   3.092
71543W        W43968  11.422  18.596   0.387
71544W        W43969  43.777  26.056  12.424
71545W        W43970  27.421  15.943   0.307
71546W        W43971  37.972  18.896  13.401
71547W        W43972  28.150  35.519   1.192
71548W        W43973  17.811  19.488  12.557
71549W        W43974   4.882  32.203  11.721
71550W        W43975  18.704  14.412   2.309
71551W        W43976  33.527  17.489  12.957
71552W        W43977  12.560  30.950   3.261
71553W        W43978  39.398  36.431  14.220
71554W        W43979   3.266   2.336  10.613
71555W        W43980  35.144  40.522   4.522
71556W        W43981  32.567  41.055  13.032
71557W        W43982  44.152  14.170  14.738
71558W        W43983  12.189  35.637  14.852
71559W        W43984   7.851   2.964   3.783
71560W        W43985  43.831  21.989   4.378
71561W        W43986  17.835  19.102   0.268
71562W        W43987  44.939  26.677   3.090
71563W        W43988  23.549  12.647   1.267
71564W        W43989  14.360  25.326   4.701
71565W        W43990  19.306  29.028   0.713
71566W        W43991  24.551  21.706  12.230
71567W        W43992  25.071   1.723  12.059
71568W        W43993  40.863  43.339  11.104
71569W        W43994  20.348  38.011  11.892
71570W        W43995  16.336  24.185  12.872
71571W        W43996  35.802  17.589   2.151
71572W        W43997   3.835  34.495  12.768
71573W        W43998  31.173  39.824   0.353
71574W        W43999  15.181   7.333   2.285
71575W        W44000  22.135  29.487   0.077
71576W        W44001  12.652  36.195   2.794
71577W        W44002  27.103  44.430   1.468
71578W        W44003   6.204  24.653  12.815
71579W        W44004  33.436  12.787  13.626
71580W        W44005  16.316  35.186  13.820
71581W        W44006  44.277  19.738   1.205
71582W        W44007  29.644  12.863  14.857
71583W        W44008  23.142  23.471   3.565
71584W        W44009   2.404   1.460   3.873
71585W        W44010  22.468  37.360  14.457
71586W        W44011  43.912  24.070  11.004
71587W        W44012  12.754  30.973  11.773
71588W        W44013  11.770  11.933  14.758
71589W        W44014  12.372  34.420   2.858
71590W        W44015  22.453  38.987  10.715
71591W        W44016  40.574   7.526  12.974
71592W        W44017  20.546  31.930   4.595
71593W        W44018  26.216  10.029  11.579
71594W        W44019  29.611   3.231  12.637
71595W        W44020  35.981  25.658   1.457
71596W        W44021  23.155   2.622   0.576
71597W        W44022  36.913  21.104  10.512
71598W        W44023  32.045  23.564   4.953
71599W        W44024  25.964  34.989  12.043
71600W        W44025   4.217  40.964   4.596
71601W        W44026   3.654  13.703   2.120
71602W        W44027   4.492  18.182   0.859
71603W        W44028  30.876  25.074   1.400
71604W        W44029  15.647  10.762  14.151
71605W        W44030  38.189  30.129   1.241
71606W        W44031   5.347  23.060   2.802
71607W        W44032   6.430  38.877   1.312
71608W        W44033  19.106  32.558   3.297
71609W        W44034  15.162  32.286  13.749
71610W        W44035   9.799   5.739  12.390
71611W        W44036   9.779   7.974   3.854
71612W        W44037  16.148  28.718  14.482
71613W        W44038  42.690  34.334  12.016
71614W        W44039   2.059  42.500  14.028
71615W        W44040   0.178  13.790   3.710
71616W        W44041  18.056  20.714  11.997
71617W        W44042  32.379  13.515   3.211
71618W        W44043  24.520  44.461  13.318
71619W        W44044  20.187   7.529  12.835
71620W        W44045   3.168  22.137   4.280
71621W        W44046  18.692  43.329  14.479
71622W        W44047  14.848  18.546   4.280
71623W        W44048   8.999  17.328  12.090
71624W        W44049  21.139  30.421   1.817
71625W        W44050  31.934   4.328  10.707
71626W        W44051  44.952   8.271  11.587
71627W        W44052  11.551   9.158   0.397
71628W        W44053  13.098  38.863  12.374
71629W        W44054  14.664  24.014   4.662
71630W        W44055  36.982  21.359   4.618
71631W        W44056  11.875  37.101   3.303
71632W        W44057  28.593  12.277  12.158
71633W        W44058   3.266   0.064   4.206
71634W        W44059  31.479  33.478   1.905
71635W        W44060  25.979  38.880   4.428
71636W        W44061   4.468  28.192  12.457
71637W        W44062  36.833  10.692  13.965
71638W        W44063  16.059  10.957  13.869
71639W        W44064  39.601   7.409  12.083
71640W        W44065  34.126  42.045  12.994
71641W        W44066   7.962  17.809  13.024
71642W        W44067  18.333  19.803   0.160
71643W        W44068  32.541   0.274   2.999
71644W        W44069  36.465   3.366   1.312
71645W        W44070  17.930   5.936  13.319
71646W        W44071  13.080  23.485   4.711
71647W        W44072  33.521  33.568  10.492
71648W        W44073   0.010  32.406   1.355
71649W        W44074  10.595  20.731   2.902
71650W        W44075  25.183  12.412   1.178
71651W        W44076  30.355  13.094  11.134
71652W        W44077   8.318   3.990  13.129
71653W        W44078   2.036  36.834   3.334
71654W        W44079  29.258   6.931   3.924
71655W        W44080  19.009  14.133   3.256
71656W        W44081  11.661  27.896  14.331
71657W        W44082  28.852  22.974   0.874
71658W        W44083  23.179   2.772  10.765
71659W        W44084   5.741  35.876  10.977
71660W        W44085  33.171  11.782  11.354
71661W        W44086   5.368  21.692  10.624
71662W        W44087  31.661  37.187  10.560
71663W        W44088   3.861  42.334   0.637
71664W        W44089   1.761  22.913  12.428
71665W        W44090  34.920   4.799  14.479
71666W        W44091  14.238  23.219   2.536
71667W        W44092  36.858  43.765   3.227
71668W        W44093  24.535  15.129  12.925
71669W        W44094  38.524  39.465   0.214
71670W        W44095  12.078  44.666   1.151
71671W        W44096   4.901  11.027  13.348
71672W        W44097  27.340  42.731  12.414
71673W        W44098  21.221  40.423   2.850
71674W        W44099  32.038  39.913  11.852
71675W        W44100   0.885  23.729   1.222
71676W        W44101  34.467   9.231  11.156
71677W        W44102  35.650   5.017   2.750
71678W        W44103  36.915   9.443  12.091
71679W        W44104  18.335  10.648  14.908
71680W        W44105  40.069  15.354  13.878
71681W        W44106   6.282  20.973  11.186
71682W        W44107  13.478   5.215   2.775
71683W        W44108  22.571  17.822   2.383
71684W        W44109  30.388  44.938  14.820
71685W        W44110   0.710   1.933   1.741
71686W        W44111  31.899  24.621   0.404
71687W        W44112  35.386  44.747  11.604
71688W        W44113  29.950   4.951  13.009
71689W        W44114  14.267  19.624   4.531
71690W        W44115   2.650  38.362   1.254
71691W        W44116  38.458  31.538   1.337
71692W        W44117  34.422   9.193   0.662
71693W        W44118  11.425  40.077  14.279
71694W        W44119  41.685  28.589  14.857
71695W        W44120  11.712  16.029   2.036
71696W        W44121  36.385  38.894   3.240
71697W        W44122  35.917  28.934  14.837
71698W        W44123  33.546  41.376  14.386
71699W        W44124  34.968  27.380  12.833
71700W        W44125  40.976  43.819   1.125
71701W        W44126  34.884  25.029  12.505
71702W        W44127   4.324  39.789  12.402
71703W        W44128  10.511  14.154   0.067
71704W        W44129  17.482  18.252   3.843
71705W        W44130   4.300   9.495   0.404
71706W        W44131  14.980  15.901   1.306
71707W        W44132  31.628  32.721   0.284
71708W        W44133  23.128   8.213   3.168
71709W        W44134  16.688  13.822   4.305
71710W        W44135  22.363   2.219   0.336
71711W        W44136  12.756  37.110   2.594
71712W        W44137  23.486  34.076   3.268
71713W        W44138  41.399  35.512  14.762
71714W        W44139  13.404   8.280  14.471
71715W        W44140  15.815  43.333   0.530
71716W        W44141   2.631  31.081   0.410
71717W        W44142   6.773  38.303   4.521
71718W        W44143   1.719  42.427  10.702
71719W        W44144  27.191  30.069  10.703
71720W        W44145  27.936  18.171   1.409
71721W        W44146  27.352  14.632  13.146
71722W        W44147  15.225  29.032  14.045
71723W        W44148  31.145  36.547   4.493
71724W        W44149  11.808  37.128  13.039
71725W        W44150  40.024  41.391   0.865
71726W        W44151  37.871  17.620   3.633
71727W        W44152  39.463   7.165   2.257
71728W        W44153  18.409  41.011  11.131
71729W        W44154  43.834  39.333   4.602
71730W        W44155  17.070  21.619   2.182
71731W        W44156  41.562  28.956  12.583
71732W        W44157   9.224  35.944   0.985
71733W        W44158  29.484  31.078   9.772
71734W        W44159  34.279   3.524  13.403
71735W        W44160  21.551  26.085   2.902
71736W        W44161  33.016   0.182   3.244
71737W        W44162   9.383   4.251  11.071
71738W        W44163   2.294  22.540  12.578
71739W        W44164  25.989  28.096  14.316
71740W        W44165   4.716  38.410   2.824
71741W        W44166  21.650  11.347  11.154
71742W        W44167   7.649   3.281  12.073
71743W        W44168  23.250  39.274  11.545
71744W        W44169  33.814  30.205  12.187
71745W        W44170  40.769  34.983   5.178
71746W        W44171   9.926   1.775  14.781
71747W        W44172  39.925   5.154  11.132
71748W        W44173  41.819  19.671  14.418
71749W        W44174  10.527  13.401  11.116
71750W        W44175  18.863  31.442  13.051
71751W        W44176   3.308   5.813   1.921
71752W        W44177  17.598  31.561   1.192
71753W        W44178  32.559  44.858  14.303
71754W        W44179   0.394  18.321   2.746
71755W        W44180  20.742  39.422   3.492
71756W        W44181  37.947  23.125  12.369
71757W        W44182  36.548  26.609  13.848
71758W        W44183  35.138  32.854  14.413
71759W        W44184  27.627  12.629   0.911
71760W        W44185  43.901  41.706  13.419
71761W        W44186  18.669  22.392   2.048
71762W        W44187   9.583  37.299   3.661
71763W        W44188  12.360  12.358  14.389
71764W        W44189  11.988  26.047   0.295
71765W        W44190  33.019  27.252   0.717
71766W        W44191  22.703  38.959   0.443
71767W        W44192  41.937  36.097   4.109
71768W        W44193  21.271  16.309  10.691
71769W        W44194  27.267  15.032  12.068
71770W        W44195  39.545  10.899   3.569
71771W        W44196  41.544  24.064   4.105
71772W        W44197  40.440  38.777   4.159
71773W        W44198  26.715  21.645   4.431
71774W        W44199   3.500  10.410  11.111
71775W        W44200  23.279  30.514  13.611
71776W        W44201   2.766   1.840  13.525
71777W        W44202  10.889  21.954   2.838
71778W        W44203   2.806   1.697  14.892
71779W        W44204  36.440  42.897   2.584
71780W        W44205  33.047  30.805   1.638
71781W        W44206  35.867   6.172   0.790
71782W        W44207   5.821  34.307  14.744
71783W        W44208  34.589  18.238   4.145
71784W        W44209  16.663  12.302   2.596
71785W        W44210  14.247  43.850  14.824
71786W        W44211  40.195  30.255   4.091
71787W        W44212  25.489   9.761   2.142
71788W        W44213  39.681  23.733   1.256
71789W        W44214   2.863  38.112   4.154
71790W        W44215  15.263  27.417  11.041
71791W        W44216  13.107   2.486   4.743
71792W        W44217  41.508  16.710   1.484
71793W        W44218   6.986   9.450  10.837
71794W        W44219  30.977  10.875   0.430
71795W        W44220   9.230   2.477   2.771
71796W        W44221  22.069  18.592  13.211
71797W        W44222  14.161  21.578  12.058
71798W        W44223   5.287  32.747   1.888
71799W        W44224  35.455  28.589   0.330
71800W        W44225  29.325  26.423  11.958
71801W        W44226  20.475   5.645   0.598
71802W        W44227  14.239  28.481   1.459
71803W        W44228  11.202  34.626  14.709
71804W        W44229   8.416  41.912  13.992
71805W        W44230  26.744  19.999   4.889
71806W        W44231  23.824   8.432   2.761
71807W        W44232  22.165   3.454   5.053
71808W        W44233  15.257  12.824  11.092
71809W        W44234  28.455  24.962   2.155
71810W        W44235  32.803  31.678  13.526
71811W        W44236  38.163   3.767   4.469
71812W        W44237  34.171   8.751   2.461
71813W        W44238  29.109  12.316  12.312
71814W        W44239  12.801  35.907   2.387
71815W        W44240   8.677   4.173   0.700
71816W        W44241   6.213   1.374  13.889
71817W        W44242   6.390  19.517  14.731
71818W        W44243  23.058  34.375   3.257
71819W        W44244  29.167   6.623   1.277
71820W        W44245  28.537  28.880  10.699
71821W        W44246  26.296  34.324   1.909
71822W        W44247  10.338  31.861  13.783
71823W        W44248  42.838  10.670  11.115
71824W        W44249   9.426  35.987  14.566
71825W        W44250  19.670  23.026   3.717
71826W        W44251   3.906   1.708   2.170
71827W        W44252  14.191  10.578  14.809
71828W        W44253  39.990   2.181  12.852
71829W        W44254   5.405  39.748   3.539
71830W        W44255  17.662  13.781  13.876
71831W        W44256  34.079   8.376   2.806
71832W        W44257  42.391   8.708   1.548
71833W        W44258   1.327  32.148   3.840
71834W        W44259  16.664   3.453  10.725
71835W        W44260  26.557  37.149   1.190
71836W        W44261  41.913  14.571   2.728
71837W        W44262  18.862  25.291  13.346
71838W        W44263   2.923  25.313   4.397
71839W        W44264  11.748  42.488   1.470
71840W        W44265  10.397   2.015   2.341
71841W        W44266   6.909  32.797  14.435
71842W        W44267  33.401   3.338  14.927
71843W        W44268   0.047  41.725   1.322
71844W        W44269  27.580  10.691  14.745
71845W        W44270  14.925  29.473   0.280
71846W        W44271  30.559   8.785   0.876
71847W        W44272  22.581  13.691  13.829
71848W        W44273  10.055  36.511   2.298
71849W        W44274   0.997   7.856   1.430
71850W        W44275  36.363  43.600   1.263
71851W        W44276   5.043  25.550  10.952
71852W        W44277  11.301  42.937   4.572
71853W        W44278  14.086  13.299   3.890
71854W        W44279  16.617  26.912   1.432
71855W        W44280   7.812  13.397  10.310
71856W        W44281  17.784  38.499  14.330
71857W        W44282  36.158   6.231   1.251
71858W        W44283  27.060  15.738   1.332
71859W        W44284   6.562  29.625   4.051
71860W        W44285  20.603  22.035   4.256
71861W        W44286  27.513   3.802   0.958
71862W        W44287   8.637   7.708  10.976
71863W        W44288  30.579  20.986   1.642
71864W        W44289  33.660  41.527  13.904
71865W        W44290  14.015  26.959   4.378
71866W        W44291  19.146  17.022   3.619
71867W        W44292  41.005   8.549   0.419
71868W        W44293   4.993   9.619   4.806
71869W        W44294  44.068  31.681   3.588
71870W        W44295  30.048  32.348  13.426
71871W        W44296   7.748  44.014  14.363
71872W        W44297  41.451  17.313   0.751
71873W        W44298  34.273  19.142   4.701
71874W        W44299  44.852  43.002   0.818
71875W        W44300  27.652  16.756   1.919
71876W        W44301  11.646   5.819  10.599
71877W        W44302  26.557  30.518   4.076
71878W        W44303  31.429  18.737   3.009
71879W        W44304  32.012   3.244   0.303
71880W        W44305   6.749  43.031  11.624
71881W        W44306   3.678  41.469   2.364
71882W        W44307  38.655  42.422   4.607
71883W        W44308  34.129   0.462   1.660
71884W        W44309  26.046  41.790  11.969
71885W        W44310  32.152  23.083   3.346
71886W        W44311   8.847  35.553  13.997
71887W        W44312  16.685  30.268  14.258
71888W        W44313  38.473   5.307  13.553
71889W        W44314  10.114  10.366  14.936
71890W        W44315  31.918  31.624  14.837
71891W        W44316  24.849  25.845  11.953
71892W        W44317  29.497   7.220   2.720
71893W        W44318   1.875  33.018   4.772
71894W        W44319  40.639  31.055   1.323
71895W        W44320  10.236  34.847   1.326
71896W        W44321  27.444   8.131  14.899
71897W        W44322  21.039   7.611  14.031
71898W        W44323  23.506  35.579  14.411
71899W        W44324  35.209  40.553  14.894
71900W        W44325  35.242  22.052  11.649
71901W        W44326  16.729  26.628  11.662
71902W        W44327  14.636  17.375   2.901
71903W        W44328  19.441  22.721  11.228
71904W        W44329  42.339  36.206  10.627
71905W        W44330  31.836  17.571  13.916
71906W        W44331   8.713  28.088   1.891
71907W        W44332  36.484  35.950   0.813
71908W        W44333  35.947   2.243  12.627
71909W        W44334  41.348   5.331   0.265
71910W        W44335  40.395  44.605   4.232
71911W        W44336  11.195  15.769  12.023
71912W        W44337  43.010   0.399   0.869
71913W        W44338   6.207  15.022   2.627
71914W        W44339   4.899  32.472  10.764
71915W        W44340   7.871  25.534   1.416
71916W        W44341  22.311   3.269   1.405
71917W        W44342  28.254   9.585  11.178
71918W        W44343  22.604  41.316   4.152
71919W        W44344  16.065   5.539   2.839
71920W        W44345  29.060  18.581  11.225
71921W        W44346  30.802  23.019  11.613
71922W        W44347  23.096  15.363   4.513
71923W        W44348   7.315  28.849  14.305
71924W        W44349   3.693  30.177   4.472
71925W        W44350  25.382  39.793   2.418
71926W        W44351  14.667   2.929  14.633
71927W        W44352  38.521  41.819   0.034
71928W        W44353  44.198   6.240  10.822
71929W        W44354  35.011  29.536   4.394
71930W        W44355  44.107  13.157   1.801
71931W        W44356  22.766  25.226  10.128
71932W        W44357   2.798  29.011   1.708
71933W        W44358  27.450  10.632   3.233
71934W        W44359  35.944  36.974   0.807
71935W        W44360  11.252  32.560  14.364
71936W        W44361  16.325  32.751   4.614
71937W        W44362  16.989  28.345   4.109
71938W        W44363  13.099  15.514  12.760
71939W        W44364   0.561  24.068  14.305
71940W        W44365   6.440   4.647  13.614
71941W        W44366  39.988  32.662   4.700
71942W        W44367  28.637   8.137   1.363
71943W        W44368   3.956  43.978   3.634
71944W        W44369  35.682  36.771   4.220
71945W        W44370  21.574   4.754  12.857
71946W        W44371   8.406  41.588   2.927
71947W        W44372   9.717  28.943  11.424
71948W        W44373  14.998  32.110  14.258
71949W        W44374   8.765  30.601   4.679
71950W        W44375  23.485  14.779  10.894
71951W        W44376  38.745  29.981   3.329
71952W        W44377   7.804  27.881  10.672
71953W        W44378   0.894  22.776   1.378
71954W        W44379  13.127  30.701   0.112
71955W        W44380  40.051   0.255   2.804
71956W        W44381  29.858  39.469   5.147
71957W        W44382  19.398  24.648  14.103
71958W        W44383  11.793  24.585   3.749
71959W        W44384  16.981  20.533  12.416
71960W        W44385  22.713  15.778  12.495
71961W        W44386   0.438  13.342  13.055
71962W        W44387  31.695  40.514  10.353
71963W        W44388  39.051  34.907   0.824
71964W        W44389  44.508   9.424   4.237
71965W        W44390  36.855  39.941  14.860
71966W        W44391   5.186  33.626   0.234
71967W        W44392  32.070   8.631   3.289
71968W        W44393  13.709  33.544   4.128
71969W        W44394  27.461  29.903   2.337
71970W        W44395   6.648   2.239   0.252
71971W        W44396  31.120  27.138   1.441
71972W        W44397  41.964  36.393   4.945
71973W        W44398  13.095  16.740  11.045
71974W        W44399  43.529   7.793   1.744
71975W        W44400   6.787   2.883   1.477
71976W        W44401  31.092   7.625   1.150
71977W        W44402  27.698  30.860  14.582
71978W        W44403  39.811  41.164  14.313
71979W        W44404   6.897   7.925  10.670
71980W        W44405   8.289  12.103   1.979
71981W        W44406   9.287  28.310   4.947
71982W        W44407   9.791  30.545  13.803
71983W        W44408  33.537  21.675  10.979
71984W        W44409  44.361  21.481  12.040
71985W        W44410   4.262  41.889   2.729
71986W        W44411  16.123  12.136  11.571
71987W        W44412   7.838  10.148   3.161
71988W        W44413   9.475  38.545   4.778
71989W        W44414  43.728   7.455   3.733
71990W        W44415  41.606  11.184   1.667
71991W        W44416  13.128   6.365   4.529
71992W        W44417  40.853  36.130  13.454
71993W        W44418  25.026  38.965   1.866
71994W        W44419  11.781  43.052  12.118
71995W        W44420  29.249  34.440  12.328
71996W        W44421  16.272  36.842  10.778
71997W        W44422   8.360   2.321   1.479
71998W        W44423   3.832  30.138  14.285
71999W        W44424  38.085  25.055  14.182
72000W        W44425  35.601  16.384   3.349
72001W        W44426  29.184  40.002   2.352
72002W        W44427   8.697  35.684  12.304
72003W        W44428  43.335  15.393   1.938
72004W        W44429  11.896  24.255   0.085
72005W        W44430  19.781  38.973   4.336
72006W        W44431  27.997   4.374   2.371
72007W        W44432  37.273  34.525  14.037
72008W        W44433  11.464  29.929   1.332
72009W        W44434  30.466  31.078   2.233
72010W        W44435   7.731  35.960  10.523
72011W        W44436   5.339  36.947  12.787
72012W        W44437  33.005   0.903  11.817
72013W        W44438  28.675   7.424   2.730
72014W        W44439  15.077   4.794  12.399
72015W        W44440  16.052  36.820   3.081
72016W        W44441  32.057  33.007   0.370
72017W        W44442   0.685  19.794  11.971
72018W        W44443   2.266   4.637   1.853
72019W        W44444   4.452  44.934   3.642
72020W        W44445   6.656  34.881  10.701
72021W        W44446  18.561  33.595   1.279
72022W        W44447  44.550  20.695   2.499
72023W        W44448   2.825  43.769   2.720
72024W        W44449  31.976   5.134  13.489
72025W        W44450   4.807  23.484   4.127
72026W        W44451  28.134  22.675   2.898
72027W        W44452  22.528  36.522   1.808
72028W        W44453  14.395   7.893   4.234
72029W        W44454  11.371   8.138   3.502
72030W        W44455  28.144  34.558  13.111
72031W        W44456  19.394   3.734   3.371
72032W        W44457  10.153  19.260   3.246
72033W        W44458  16.614   6.245  14.402
72034W        W44459   3.926  26.055  11.162
72035W        W44460  25.911  13.220  12.825
72036W        W44461  35.997  43.751   4.512
72037W        W44462  41.354  37.498  11.076
72038W        W44463  29.636   2.337  12.722
72039W        W44464  18.282  32.930   3.749
72040W        W44465  34.183  26.587   1.896
72041W        W44466  38.914  10.170   1.027
72042W        W44467   6.914   4.394   2.593
72043W        W44468   4.304   2.895  13.375
72044W        W44469   3.481   2.826  14.196
72045W        W44470   3.977  22.142  11.623
72046W        W44471  34.422  12.637   1.283
72047W        W44472  20.319  27.568   3.779
72048W        W44473  36.409   8.631  13.027
72049W        W44474   7.460   3.972  14.082
72050W        W44475   5.651  25.460   2.135
72051W        W44476  35.887   6.775   3.317
72052W        W44477  30.823  38.002   1.219
72053W        W44478  12.014  26.167   0.791
72054W        W44479  13.350  34.463   4.378
72055W        W44480  27.761  24.145  14.390
72056W        W44481  31.591  21.528  14.556
72057W        W44482  17.005  32.578  14.489
72058W        W44483  10.119  30.899   4.373
72059W        W44484  22.637  28.105   4.547
72060W        W44485  26.557  35.644  14.106
72061W        W44486  28.788  40.144  14.285
72062W        W44487  10.730  40.560  14.665
72063W        W44488  22.618  20.806  11.687
72064W        W44489  44.018   8.372   4.749
72065W        W44490  36.400  19.055  14.936
72066W        W44491   9.633  25.675  12.854
72067W        W44492  14.607  39.918  10.757
72068W        W44493  14.290  41.652   0.508
72069W        W44494  10.251  12.117   4.034
72070W        W44495  15.279  41.806   1.980
72071W        W44496  32.721  40.472   3.076
72072W        W44497  16.246  42.077  14.168
72073W        W44498  18.006   1.784  13.950
72074W        W44499  44.361  44.581   4.505
72075W        W44500  39.502  19.127  13.904
72076W        W44501  38.368  32.609  12.685
72077W        W44502   8.908   6.897   2.278
72078W        W44503  34.240  19.920   0.403
72079W        W44504   9.926  22.573  10.535
72080W        W44505  12.337  39.142   1.786
72081W        W44506   1.624   8.933  10.684
72082W        W44507  33.353  17.503   3.215
72083W        W44508  35.537   0.051  13.431
72084W        W44509  10.730  33.031   2.041
72085W        W44510  29.488  29.321   3.701
72086W        W44511  10.030  18.630   0.851
72087W        W44512  19.980  11.817   3.216
72088W        W44513  35.581   2.862  14.806
72089W        W44514  26.922   1.366  13.324
72090W        W44515  16.374  34.148  11.355
72091W        W44516  33.802   6.856   1.382
72092W        W44517  37.907  25.005  13.230
72093W        W44518  29.157  37.049   0.240
72094W        W44519  29.526  31.259   3.099
72095W        W44520  11.163   8.121  12.034
72096W        W44521  27.633   2.876   2.811
72097W        W44522  38.567  44.326   2.203
72098W        W44523  18.125  24.102   1.742
72099W        W44524  35.399  14.324  14.557
72100W        W44525   4.814  35.961   3.355
72101W        W44526  14.566  42.957  10.480
72102W        W44527  20.632  33.008  12.841
72103W        W44528  38.901  43.604  12.926
72104W        W44529  13.336   8.256   0.380
72105W        W44530  42.297  15.593  12.025
72106W        W44531  11.075  25.247   1.273
72107W        W44532  41.358  29.947   0.600
72108W        W44533  27.935  28.648  11.967
72109W        W44534  18.825  10.578  14.799
72110W        W44535  15.864  28.861  10.846
72111W        W44536  41.751   6.965   0.030
72112W        W44537  38.928  26.908  14.425
72113W        W44538  34.896  39.420  11.164
72114W        W44539   2.795  16.813   4.145
72115W        W44540  36.091  25.005  10.098
72116W        W44541   4.199   8.617  14.053
72117W        W44542  33.552   6.122  13.499
72118W        W44543  37.370  32.601   1.697
72119W        W44544   0.824  11.722  10.671
72120W        W44545  31.920  10.201   2.421
72121W        W44546  34.655  40.953  11.319
72122W        W44547   5.940  19.196  10.572
72123W        W44548  40.022  34.709   3.969
72124W        W44549  22.519  30.052  13.824
72125W        W44550  16.299  24.738   1.912
72126W        W44551  38.869   4.050   2.816
72127W        W44552   2.365  20.946   2.687
72128W        W44553  39.617   3.844   4.598
72129W        W44554  10.672  17.827   4.873
72130W        W44555  11.845  26.379  11.565
72131W        W44556  30.359  42.791  13.514
72132W        W44557   0.694  34.423  13.870
72133W        W44558  22.925  13.146  12.916
72134W        W44559  17.823   3.895  11.453
72135W        W44560  21.065  36.350   1.807
72136W        W44561   0.860  32.201   3.290
72137W        W44562  29.819   8.326  14.805
72138W        W44563  44.213   7.201  10.979
72139W        W44564   0.978  40.113  12.073
72140W        W44565  39.823  41.921   1.243
72141W        W44566  20.237  29.873   3.652
72142W        W44567  16.272   8.244   1.737
72143W        W44568   2.290  10.331   3.389
72144W        W44569  39.787   3.415  10.425
72145W        W44570  11.925   6.263  12.282
72146W        W44571  42.048  36.656   0.663
72147W        W44572   9.382  43.825   0.019
72148W        W44573   5.192  24.151  13.304
72149W        W44574  31.527  14.816   0.511
72150W        W44575  24.104  18.051  12.423
72151W        W44576  26.522  20.738  12.009
72152W        W44577  19.138   4.326   4.601
72153W        W44578  33.903  23.027  12.918
72154W        W44579   0.827  30.035   4.686
72155W        W44580  14.287   5.748   2.949
72156W        W44581  21.489  33.366   4.176
72157W        W44582   1.050  14.314  11.204
72158W        W44583   2.878  39.867  10.786
72159W        W44584  28.653  38.201  12.792
72160W        W44585  43.862  41.065   3.050
72161W        W44586   7.386   2.535   4.593
72162W        W44587  27.068   5.668   3.275
72163W        W44588  27.623   3.061  11.882
72164W        W44589  43.788  15.005  12.469
72165W        W44590  18.513  40.377  14.884
72166W        W44591  13.172  22.692  10.218
72167W        W44592   7.314  17.033   4.496
72168W        W44593   7.746  12.807  13.514
72169W        W44594  21.583  41.226  11.768
72170W        W44595  31.255   8.623   3.779
72171W        W44596  30.148   8.660   3.908
72172W        W44597   7.326   3.241   3.947
72173W        W44598  22.271   9.919  13.330
72174W        W44599  38.409  44.830   0.256
72175W        W44600  28.977  21.795  14.014
72176W        W44601  31.059   8.878  13.466
72177W        W44602  11.659   0.829   3.536
72178W        W44603  19.788  13.624  13.488
72179W        W44604  36.544  39.935  12.930
72180W        W44605   1.926  17.141  13.537
72181W        W44606  43.550  16.146  11.953
72182W        W44607  44.528  10.809   3.363
72183W        W44608  20.322  22.229   0.255
72184W        W44609   9.854   3.123   4.603
72185W        W44610  29.724  11.270   3.222
72186W        W44611  21.294  44.499   0.210
72187W        W44612  29.917  20.281  14.899
72188W        W44613  43.305  27.820   3.705
72189W        W44614   9.273   8.454   2.812
72190W        W44615  37.093   6.982   1.244
72191W        W44616  32.542  40.546  13.789
72192W        W44617  36.514  18.022   4.667
72193W        W44618  26.348  25.615  14.345
72194W        W44619   4.347  39.845   4.061
72195W        W44620   3.302  20.973  14.496
72196W        W44621  33.058  14.106  11.934
72197W        W44622  13.935  38.058  14.479
72198W        W44623   3.849   7.157  12.093
72199W        W44624   6.793  34.568   1.927
72200W        W44625  24.932  36.388   2.385
72201W        W44626  17.980   6.845   1.735
72202W        W44627  36.891  23.277   1.838
72203W        W44628  39.289  31.748   2.815
72204W        W44629  13.279  38.479   0.743
72205W        W44630  35.133  26.051  13.037
72206W        W44631   2.756  18.659  12.975
72207W        W44632  44.399  40.942   4.550
72208W        W44633   4.629  12.311   4.061
72209W        W44634   0.856   7.838   0.033
72210W        W44635  26.485   8.381   3.119
72211W        W44636   2.950  44.266   0.790
72212W        W44637  14.127  12.050  12.917
72213W        W44638  33.528  44.014   3.770
72214W        W44639  34.701   8.343   4.162
72215W        W44640  19.286  15.754   3.316
72216W        W44641  10.450  10.316  14.528
72217W        W44642  11.489  20.003  11.751
72218W        W44643   0.140   0.782   1.913
72219W        W44644  16.732   5.965   3.166
72220W        W44645   7.348  44.474  12.060
72221W        W44646   6.953   0.139   3.760
72222W        W44647  20.269   1.912  13.793
72223W        W44648  27.680  14.333  12.825
72224W        W44649   5.819   2.926   2.229
72225W        W44650   3.855  26.903  10.759
72226W        W44651  40.055  44.020  14.260
72227W        W44652  29.943  23.146   4.181
72228W        W44653   3.919   8.804   0.006
72229W        W44654  27.308  13.276  11.150
72230W        W44655   8.445  28.999  10.660
72231W        W44656  42.990  19.266  14.428
72232W        W44657  25.752  24.183   0.824
72233W        W44658  18.400  31.935  12.968
72234W        W44659   5.947   9.352  11.638
72235W        W44660  15.660  41.027  10.619
72236W        W44661  28.980  29.068   1.925
72237W        W44662  29.448   9.668  13.971
72238W        W44663  33.973  23.475   3.442
72239W        W44664  37.006  32.985   1.776
72240W        W44665  10.799  17.145   3.125
72241W        W44666   8.899  22.589   2.396
72242W        W44667  39.944  40.659  13.324
72243W        W44668  34.421  16.816  10.953
72244W        W44669  40.400  37.328  14.497
72245W        W44670  20.084  40.746  14.801
72246W        W44671  18.452  35.716  13.937
72247W        W44672  30.813   6.920  14.880
72248W        W44673  43.460   1.744  12.473
72249W        W44674  32.985  17.459  11.662
72250W        W44675  25.621  30.379   5.007
72251W        W44676  41.081   6.115  14.877
72252W        W44677  10.853  24.127  10.584
72253W        W44678  35.039  33.030   1.905
72254W        W44679  37.788   9.542  12.058
72255W        W44680  26.064   2.966  10.361
72256W        W44681  37.592  17.242   1.767
72257W        W44682  19.659  40.649   4.581
72258W        W44683   8.867  18.587  11.639
72259W        W44684  34.535  21.454  14.861
72260W        W44685  12.762   2.635   4.381
72261W        W44686   5.895  36.773   9.754
72262W        W44687  40.551  10.876   0.203
72263W        W44688   9.285  24.714  14.809
72264W        W44689  35.569  37.325  12.914
72265W        W44690  30.111  24.802   0.332
72266W        W44691   0.297  34.045   3.312
72267W        W44692  31.221  18.375  12.756
72268W        W44693  29.711  43.775  10.895
72269W        W44694  14.868   3.271  12.057
72270W        W44695  40.724  20.165   4.140
72271W        W44696  28.300  23.933  12.540
72272W        W44697  34.624  31.703  10.094
72273W        W44698  20.649  29.890   2.432
72274W        W44699   9.217  42.481   2.167
72275W        W44700  42.913  36.986  13.356
72276W        W44701  22.536  36.430  12.962
72277W        W44702  15.390  35.119   0.298
72278W        W44703   7.048  24.696   1.948
72279W        W44704  20.819  13.773   2.689
72280W        W44705  22.415  11.327  12.597
72281W        W44706  21.547  12.610  10.671
72282W        W44707   8.859  17.161   1.532
72283W        W44708  41.420   1.949  13.058
72284W        W44709  32.943  18.854  11.739
72285W        W44710   5.630   6.539  12.722
72286W        W44711   0.746   8.714   2.660
72287W        W44712  43.749  38.254  10.683
72288W        W44713  32.518   2.366  13.356
72289W        W44714  16.772   5.895  12.659
72290W        W44715  33.939  22.191  12.214
72291W        W44716  21.977  44.722  10.922
72292W        W44717  24.756  37.396   4.612
72293W        W44718  30.047   9.318  12.703
72294W        W44719  30.553  33.861  13.984
72295W        W44720  31.845  20.307   3.642
72296W        W44721  35.921  26.442  11.473
72297W        W44722  14.364  38.474   3.603
72298W        W44723  38.276  32.651   2.149
72299W        W44724  39.238  33.347  11.064
72300W        W44725  24.673  31.130   2.153
72301W        W44726  24.534  26.220  10.620
72302W        W44727  28.186   7.272   2.766
72303W        W44728   1.955  21.625   3.302
72304W        W44729  30.086  26.560  14.838
72305W        W44730  40.641  31.479  12.991
72306W        W44731  37.349  22.319   0.090
72307W        W44732  40.356   4.028  14.454
72308W        W44733  39.783  39.318  12.692
72309W        W44734  43.767  24.021  12.098
72310W        W44735  10.679  43.369   3.558
72311W        W44736   2.957  41.440  12.640
72312W        W44737  30.970  26.003   1.409
72313W        W44738   0.972   2.880  14.339
72314W        W44739  23.707   7.463   3.839
72315W        W44740   5.477  43.036   2.836
72316W        W44741   9.632  24.064   4.154
72317W        W44742  11.431   8.864  12.910
72318W        W44743   8.135  30.564  12.501
72319W        W44744  17.752  30.644  13.978
72320W        W44745   5.198   9.145   1.821
72321W        W44746  22.639  29.691   5.043
72322W        W44747  37.086  28.445  12.575
72323W        W44748  23.257  33.906  14.370
72324W        W44749  36.355  26.215   4.667
72325W        W44750  31.100  28.613  14.645
72326W        W44751  37.177  14.453  13.086
72327W        W44752  29.987  39.181   0.126
72328W        W44753   2.537  34.564   3.731
72329W        W44754  38.514  22.534  11.349
72330W        W44755   7.085  21.539  13.367
72331W        W44756   3.139  11.726  14.865
72332W        W44757   3.439  41.216   4.909
72333W        W44758  38.729  32.910  10.500
72334W        W44759  19.340  32.867  10.528
72335W        W44760  24.681  34.785  11.644
72336W        W44761   4.691   8.518   2.815
72337W        W44762  44.741  38.805   4.175
72338W        W44763   5.460  13.851  11.087
72339W        W44764  39.523  20.621   2.692
72340W        W44765  40.005  23.596   1.924
72341W        W44766  13.319  38.800  11.879
72342W        W44767  39.613  11.573  13.029
72343W        W44768  11.575  36.959  11.772
72344W        W44769  35.165   1.102   1.759
72345W        W44770   6.261  39.587   3.193
72346W        W44771  32.392   2.915   1.447
72347W        W44772  30.440  40.684  11.180
72348W        W44773  42.316  15.623   2.132
72349W        W44774  33.110  34.049  14.886
72350W        W44775   4.321   6.751   2.185
72351W        W44776  34.019   3.097   2.696
72352W        W44777  11.718  44.353   1.881
72353W        W44778  40.623  29.029  11.552
72354W        W44779  34.796  19.936   3.213
72355W        W44780   6.280  32.105   4.662
72356W        W44781  10.438   8.777  13.016
72357W        W44782  12.738  28.831   2.328
72358W        W44783  33.240  42.506  11.687
72359W        W44784   2.777   1.823   0.798
72360W        W44785   3.436  12.844  12.925
72361W        W44786  23.309  11.403   3.198
72362W        W44787  12.965  24.117   4.124
72363W        W44788  14.202  36.341  12.752
72364W        W44789  32.619   5.747   3.889
72365W        W44790  20.195  28.105   4.118
72366W        W44791   2.506  41.756   3.996
72367W        W44792   9.688  38.115  11.104
72368W        W44793  13.686  27.296  14.947
72369W        W44794  41.934  35.785   3.136
72370W        W44795  24.691  14.705   3.185
72371W        W44796   6.215  14.215   0.197
72372W        W44797  32.589  22.282   3.765
72373W        W44798  44.610  13.471   4.154
72374W        W44799  30.995  29.489  10.657
72375W        W44800  15.176  18.577  12.186
72376W        W44801   6.271  18.549   1.356
72377W        W44802  34.377  31.728  12.465
72378W        W44803  33.018  30.484  12.832
72379W        W44804  31.851   9.341   0.871
72380W        W44805  39.511  38.349   4.330
72381W        W44806  38.603  44.906  13.456
72382W        W44807   3.695  43.786   4.033
72383W        W44808   9.838  24.776   3.594
72384W        W44809  23.207   3.641  14.527
72385W        W44810  10.662   5.038   2.571
72386W        W44811   2.387   8.334   1.238
72387W        W44812  30.812  35.475  10.574
72388W        W44813  20.195  25.959   0.395
72389W        W44814  20.660  11.567  11.774
72390W        W44815  27.473  23.162   2.634
72391W        W44816  33.255   1.299   3.529
72392W        W44817  41.490  37.759  13.982
72393W        W44818  20.716  42.778   4.493
72394W        W44819  16.526  25.992  14.335
72395W        W44820  11.158  43.193   1.448
72396W        W44821   0.501  41.935   4.373
72397W        W44822  40.612   7.307  11.936
72398W        W44823  43.811  24.705   1.506
72399W        W44824  23.543  43.334   0.232
72400W        W44825  32.337   6.431  10.294
72401W        W44826  24.851  33.952  11.212
72402W        W44827  12.253  38.471  10.687
72403W        W44828   2.486  18.106   2.910
72404W        W44829  13.884  21.477  13.779
72405W        W44830  25.219  44.804  12.872
72406W        W44831  14.168  17.150   3.033
72407W        W44832  26.956  42.534   2.333
72408W        W44833   6.304  34.541   0.969
72409W        W44834  23.972  38.524  13.035
72410W        W44835  19.245  15.457   2.858
72411W        W44836  29.567   3.744   0.029
72412W        W44837  13.311   8.739   0.137
72413W        W44838  26.259   2.022   2.777
72414W        W44839  20.706  44.452  13.059
72415W        W44840  39.580  32.030  13.991
72416W        W44841  32.478  35.287   1.750
72417W        W44842  42.836  23.942   0.832
72418W        W44843  23.533  41.008   4.565
72419W        W44844  19.019  24.291   4.138
72420W        W44845  44.941  13.457   1.940
72421W        W44846  35.169   7.420   0.825
72422W        W44847   2.342   7.084   1.863
72423W        W44848   8.797  44.067  13.875
72424W        W44849  26.571  19.816  13.359
72425W        W44850  10.943   5.356  11.969
72426W        W44851   5.631  21.140  13.355
72427W        W44852  31.266  20.795  11.678
72428W        W44853  11.247   8.394   0.836
72429W        W44854   4.720   4.809   0.114
72430W        W44855  33.683  18.980   2.214
72431W        W44856  15.601   5.744   1.241
72432W        W44857   3.362  17.680   2.331
72433W        W44858  25.716   1.850  13.544
72434W        W44859  11.779  34.094  10.858
72435W        W44860   3.857  28.869  12.377
72436W        W44861  31.543  39.168  14.027
72437W        W44862  15.115  40.755   3.651
72438W        W44863  12.710   0.410  14.214
72439W        W44864  34.003  16.639   0.251
72440W        W44865  41.335  13.374   4.340
72441W        W44866   6.427  10.754   2.672
72442W        W44867  27.405  17.033  11.302
72443W        W44868  44.422  30.691  13.317
72444W        W44869  19.174  11.228   4.609
72445W        W44870  26.907   6.806   1.733
72446W        W44871  34.341  21.594   0.901
72447W        W44872  40.807  32.508  11.945
72448W        W44873   8.220   9.894  13.874
72449W        W44874  24.544  36.356  10.811
72450W        W44875  37.440   6.734  13.896
72451W        W44876   6.621  36.346   3.447
72452W        W44877  12.616  41.237  12.785
72453W        W44878   8.295   7.484   3.692
72454W        W44879  21.066  37.503   3.740
72455W        W44880   8.284  17.805   1.310
72456W        W44881  25.483  42.496  12.976
72457W        W44882  19.083  21.528  14.389
72458W        W44883  24.492  27.268  10.659
72459W        W44884  18.878  36.371  14.554
72460W        W44885   4.212  41.591  11.956
72461W        W44886  43.447  20.921  12.594
72462W        W44887  11.696   5.826  12.073
72463W        W44888  21.755  16.837  14.217
72464W        W44889  35.000   5.308  10.571
72465W        W44890   4.463  26.061  13.957
72466W        W44891   9.773  39.493   4.236
72467W        W44892  17.168  21.180  11.638
72468W        W44893   8.148  42.479  13.310
72469W        W44894  32.419  17.174  13.371
72470W        W44895  40.714   7.280   0.870
72471W        W44896  30.500  16.191  13.038
72472W        W44897  30.082  31.188  11.831
72473W        W44898  17.056  32.518  12.537
72474W        W44899  29.171  39.757   3.787
72475W        W44900  15.543  25.870   4.619
72476W        W44901  32.775   6.729   1.348
72477W        W44902  15.413  10.208  10.679
72478W        W44903  11.179   6.231   4.917
72479W        W44904   4.370   7.743  11.106
72480W        W44905   2.293  32.911  14.782
72481W        W44906  19.024   2.223  14.023
72482W        W44907  23.051  29.949   3.237
72483W        W44908  34.395   2.806  11.547
72484W        W44909  23.515  29.773  12.167
72485W        W44910  27.531   4.560   3.584
72486W        W44911  13.357  28.666  12.979
72487W        W44912  13.286  21.742   0.016
72488W        W44913  35.158  12.404  13.350
72489W        W44914  36.050   5.875   2.157
72490W        W44915  10.540   5.126  14.489
72491W        W44916  17.775  21.107  12.877
72492W        W44917   0.919  35.867   0.619
72493W        W44918  34.331  22.570   1.348
72494W        W44919  43.192  12.633  13.008
72495W        W44920  14.806  32.619  13.941
72496W        W44921  26.483  30.965   4.410
72497W        W44922   3.231  16.611  14.695
72498W        W44923  31.998   2.937   2.700
72499W        W44924  29.794   9.586   4.546
72500W        W44925   7.013   8.747   1.693
72501W        W44926  13.097   7.339  11.238
72502W        W44927  14.265  19.044  10.736
72503W        W44928   5.592  15.096   1.285
72504W        W44929   7.695  27.933   2.814
72505W        W44930  21.477  13.136  13.383
72506W        W44931   6.484  36.763   5.452
72507W        W44932  25.995   4.834  10.710
72508W        W44933   9.108  23.525  12.489
72509W        W44934  18.823  21.005   2.331
72510W        W44935  39.832  19.674  12.945
72511W        W44936  37.926  21.087  10.687
72512W        W44937  44.907  40.900   3.252
72513W        W44938  11.811  29.787   2.969
72514W        W44939  36.342  36.205  12.487
72515W        W44940   3.873  12.065   0.198
72516W        W44941  38.725  10.083   4.191
72517W        W44942   1.767  18.453   0.437
72518W        W44943  29.195  27.049   1.890
72519W        W44944  38.803  21.798   4.194
72520W        W44945  30.860  40.458   2.617
72521W        W44946  24.269  42.747   1.783
72522W        W44947  32.112  12.121  12.007
72523W        W44948  41.259   1.407  14.344
72524W        W44949   3.906  11.742  10.710
72525W        W44950   4.242  21.659   3.662
72526W        W44951  12.454  24.080   4.163
72527W        W44952  11.953  41.708   0.874
72528W        W44953   6.702  40.327  14.946
72529W        W44954  14.514  30.529   1.930
72530W        W44955  29.414  33.662   2.719
72531W        W44956   2.396   3.608  13.896
72532W        W44957   8.638  28.439  12.047
72533W        W44958  13.034  10.200  12.841
72534W        W44959  27.385   9.766   2.829
72535W        W44960  16.058  29.069  12.320
72536W        W44961   1.569  43.383  14.902
72537W        W44962   1.830  28.596   2.346
72538W        W44963   6.650  33.246  14.552
72539W        W44964  32.345  38.368   0.851
72540W        W44965  35.472  23.772  10.834
72541W        W44966  17.687  26.648   2.800
72542W        W44967   5.378  40.583  11.760
72543W        W44968  31.027  20.646  11.137
72544W        W44969  15.134  14.297   2.683
72545W        W44970   4.154  17.631  11.114
72546W        W44971  24.349  15.344  11.542
72547W        W44972  37.236  14.333   4.119
72548W        W44973  38.332  15.537  14.138
72549W        W44974  30.010  16.909  10.678
72550W        W44975  39.995  31.945   2.734
72551W        W44976   3.933  31.283  11.571
72552W        W44977  22.712  43.923   3.278
72553W        W44978  35.421   3.234   0.145
72554W        W44979  30.871   2.389   1.584
72555W        W44980  22.569  29.968  12.462
72556W        W44981   0.214  20.801   1.214
72557W        W44982  33.390  22.445   4.829
72558W        W44983  27.307  14.897  11.183
72559W        W44984   2.372  27.154   1.554
72560W        W44985   2.188  33.715   2.180
72561W        W44986  35.980  28.665  11.105
72562W        W44987  43.703  13.270  13.284
72563W        W44988   3.319   1.000   0.674
72564W        W44989   7.722  16.312   4.530
72565W        W44990  37.069   6.866   2.306
72566W        W44991   3.385  13.301   2.814
72567W        W44992  26.425  24.025   3.396
72568W        W44993  13.667  19.999  13.576
72569W        W44994  42.874  13.189   2.329
72570W        W44995  43.575   7.952   3.661
72571W        W44996  39.221  33.946  13.500
72572W        W44997   5.375  31.901  11.610
72573W        W44998  39.029  24.503   5.279
72574W        W44999  12.106  18.662   4.115
72575W        W45000  21.077  24.685  10.617
72576W        W45001  18.907   6.102   3.557
72577W        W45002  12.040  28.346   1.685
72578W        W45003   1.908   2.011   3.633
72579W        W45004  27.105  22.254   3.697
72580W        W45005  36.144   4.476   0.920
72581W        W45006   0.398   1.049   2.302
72582W        W45007  16.213   8.884   1.942
72583W        W45008  21.323  14.844  11.787
72584W        W45009  35.141  30.380   2.283
72585W        W45010  23.989  26.360   0.343
72586W        W45011  28.463  27.619   0.528
72587W        W45012  15.591   5.385  11.666
72588W        W45013   6.192  35.069   4.109
72589W        W45014   1.404  27.271  11.235
72590W        W45015  10.706   8.748   2.388
72591W        W45016   7.970  20.719  14.939
72592W        W45017  13.300  29.408  11.083
72593W        W45018  34.361  33.128  13.396
72594W        W45019  43.897  16.140  11.555
72595W        W45020   0.757  42.430   0.361
72596W        W45021  21.203   8.540   4.644
72597W        W45022  39.538  43.960   0.945
72598W        W45023  13.551   2.832  11.105
72599W        W45024   9.460  34.068   2.218
72600W        W45025  18.758  29.008   2.747
72601W        W45026  12.790  12.168   3.720
72602W        W45027  21.694  20.360   1.372
72603W        W45028  25.256  14.363   4.166
72604W        W45029  13.827  40.471   0.467
72605W        W45030  30.191  34.634  13.820
72606W        W45031  19.753   9.748   3.619
72607W        W45032  28.624  22.312  10.425
72608W        W45033  36.070  13.756   3.778
72609W        W45034  11.071  44.294  11.986
72610W        W45035   0.314  26.021   1.750
72611W        W45036  26.892  36.913   3.988
72612W        W45037  28.520   3.913  10.572
72613W        W45038   8.818  20.630  11.224
72614W        W45039   7.952  32.425  10.877
72615W        W45040   7.856  18.576   1.480
72616W        W45041  18.422   7.123  13.361
72617W        W45042  30.774  12.728  12.184
72618W        W45043  27.722  18.395   1.856
72619W        W45044  28.560   3.357  14.485
72620W        W45045  36.510  21.444  13.868
72621W        W45046   4.042  42.338  14.392
72622W        W45047  20.298  40.760  13.852
72623W        W45048  35.449  37.177   2.222
72624W        W45049  43.126  12.348  14.972
72625W        W45050   1.316  20.463   3.583
72626W        W45051  43.254  19.657   0.849
72627W        W45052   8.844   8.597   4.981
72628W        W45053  31.531  35.841  12.444
72629W        W45054   5.294   2.964   4.430
72630W        W45055  37.103  31.630   4.192
72631W        W45056  18.655  41.784  10.706
72632W        W45057   2.180   3.197  13.665
72633W        W45058  13.331   6.953  13.101
72634W        W45059   1.772   3.477   4.794
72635W        W45060   7.836   2.204   4.168
72636W        W45061   5.298   7.900   4.716
72637W        W45062  36.873  22.230   4.210
72638W        W45063  21.834  16.369  13.853
72639W        W45064  13.027  12.240  14.201
72640W        W45065  30.935  11.574   4.957
72641W        W45066  41.304  26.549   0.822
72642W        W45067  40.950  28.850  13.908
72643W        W45068   4.237   4.293   3.088
72644W        W45069  17.111  39.820   1.308
72645W        W45070  29.364  24.956   1.330
72646W        W45071  22.050  15.044   3.525
72647W        W45072   9.326  30.498  14.474
72648W        W45073  28.201  23.634  12.125
72649W        W45074  38.357  12.737  10.230
72650W        W45075  36.524  21.165   2.184
72651W        W45076  17.943  28.202  12.589
72652W        W45077   9.111  28.953   1.830
72653W        W45078  44.338   3.522   2.920
72654W        W45079   9.914   5.404  11.969
72655W        W45080  10.710  42.029   1.346
72656W        W45081  20.211  34.792  14.385
72657W        W45082  15.162  38.565   3.086
72658W        W45083   0.228  26.245  13.004
72659W        W45084  23.716  15.744   2.371
72660W        W45085  32.371  10.905  13.000
72661W        W45086  11.455  20.249   0.375
72662W        W45087  17.273  30.490   9.847
72663W        W45088  25.690   2.719   2.882
72664W        W45089  41.232  18.813  12.496
72665W        W45090  14.330  26.200  12.643
72666W        W45091  25.813  17.715  10.773
72667W        W45092   0.465  31.570  14.934
72668W        W45093  11.779  15.418   0.250
72669W        W45094  23.807  25.980  14.509
72670W        W45095  25.496   8.929  12.912
72671W        W45096  36.930  44.302  10.653
72672W        W45097  41.466  34.826   1.411
72673W        W45098  11.573  38.895   2.206
72674W        W45099  10.711  28.137  13.525
72675W        W45100  27.527  13.269   3.185
72676W        W45101   5.013   4.422  12.376
72677W        W45102  32.712  37.854   3.281
72678W        W45103  15.907  34.059  13.104
72679W        W45104  24.225  30.147  12.968
72680W        W45105  20.690  26.906  11.418
72681W        W45106  34.784  36.221   4.145
72682W        W45107   0.400  12.354  13.454
72683W        W45108   9.894  11.551  11.159
72684W        W45109  28.568  21.162   3.076
72685W        W45110  20.682  26.112   0.580
72686W        W45111   4.224  42.366   0.233
72687W        W45112  11.415  27.951  12.833
72688W        W45113   1.740  21.822   4.602
72689W        W45114   1.386  14.389   0.466
72690W        W45115  15.525   4.168  12.867
72691W        W45116  27.996   1.681  13.211
72692W        W45117  10.779  35.856  14.344
72693W        W45118  25.817  22.517   4.472
72694W        W45119  44.257  12.168   4.538
72695W        W45120  20.989  28.678   4.542
72696W        W45121  26.917  30.868   3.331
72697W        W45122  42.150  28.976   3.783
72698W        W45123  14.852  18.313   0.825
72699W        W45124  12.222  36.032  13.578
72700W        W45125   5.922  28.102   0.276
72701W        W45126  33.579  17.672   1.882
72702W        W45127  34.739  31.087   0.941
72703W        W45128   5.000   2.391  13.297
72704W        W45129  14.604  20.587   3.744
72705W        W45130  21.539  15.544   1.930
72706W        W45131   1.382  37.877  13.373
72707W        W45132  12.250  40.046   0.111
72708W        W45133  24.678  18.316  14.002
72709W        W45134  11.391   4.795   3.823
72710W        W45135  25.900  33.597  11.304
72711W        W45136  34.558  41.760   1.890
72712W        W45137  32.422  38.857  13.807
72713W        W45138  28.419  39.371   3.225
72714W        W45139   4.330   2.251   4.305
72715W        W45140  24.430   1.045   0.247
72716W        W45141  29.158  18.348   3.295
72717W        W45142  43.816   7.482   0.456
72718W        W45143  13.692  34.809  10.749
72719W        W45144  37.350  36.342   0.864
72720W        W45145  14.822  11.978  10.241
72721W        W45146  16.669   3.161   2.293
72722W        W45147  12.651  19.160  13.418
72723W        W45148   9.614  41.401   4.951
72724W        W45149  19.950  42.475  12.862
72725W        W45150   4.981  38.539   0.312
72726W        W45151  42.433  22.295   3.200
72727W        W45152  32.418  40.420  14.764
72728W        W45153  30.536  41.258   1.886
72729W        W45154  29.683  42.807   0.992
72730W        W45155  28.182  26.043   0.729
72731W        W45156  35.068  33.790   4.929
72732W        W45157  27.197  23.489  13.885
72733W        W45158   4.151  38.057  13.872
72734W        W45159  20.435  34.775  12.693
72735W        W45160  14.681  11.736   3.689
72736W        W45161  20.182  31.622  13.286
72737W        W45162  20.538   9.727  10.720
72738W        W45163  30.924  30.974  13.063
72739W        W45164  35.849  19.038  12.451
72740W        W45165  43.907  33.608   2.908
72741W        W45166  17.166  44.040   4.763
72742W        W45167  23.101   8.575  13.506
72743W        W45168  15.615  34.602   2.215
72744W        W45169  31.505  22.601   3.058
72745W        W45170   9.020   6.220  10.122
72746W        W45171   1.897   0.934  12.424
72747W        W45172  32.923   3.037  10.345
72748W        W45173   1.215  13.087   0.727
72749W        W45174  25.607  38.014  14.824
72750W        W45175  43.819  28.512  11.477
72751W        W45176  35.057   5.894   1.794
72752W        W45177  22.018   4.366  14.759
72753W        W45178   5.665  27.458  12.591
72754W        W45179  15.294  36.888  12.532
72755W        W45180  12.275  42.871  14.753
72756W        W45181  19.988  21.645   3.725
72757W        W45182  39.371  12.813  12.589
72758W        W45183   6.197  26.675  11.564
72759W        W45184  23.509  16.017  13.535
72760W        W45185   9.609  35.507  14.570
72761W        W45186  10.908  28.430  10.855
72762W        W45187  15.885  30.283   1.617
72763W        W45188  28.588  38.170   1.264
72764W        W45189  29.609  33.415   1.573
72765W        W45190   5.612  25.129  14.482
72766W        W45191  35.887  27.468   0.078
72767W        W45192   5.864  11.606  14.520
72768W        W45193   0.707  40.861  11.480
72769W        W45194  42.040  42.134  10.715
72770W        W45195  30.970   8.366   1.892
72771W        W45196  32.462  37.597  14.727
72772W        W45197  37.626  21.876  13.406
72773W        W45198   7.633  11.842   4.905
72774W        W45199  28.901   6.261   2.214
72775W        W45200  29.338   3.863   0.495
72776W        W45201  25.147   5.916   3.350
72777W        W45202   1.027  32.075  14.377
72778W        W45203  41.295  20.238  12.410
72779W        W45204   5.983  37.565  10.299
72780W        W45205  12.431  10.472   2.808
72781W        W45206  25.509  38.080   0.355
72782W        W45207  38.399  23.486   2.892
72783W        W45208   2.394  30.196  12.252
72784W        W45209  20.306  30.378   3.671
72785W        W45210  37.282  33.414  14.820
72786W        W45211   7.705  39.560   3.237
72787W        W45212   5.311   0.874   1.875
72788W        W45213   2.721  16.783  11.944
72789W        W45214  31.490  10.668  13.777
72790W        W45215   9.767  18.039  12.041
72791W        W45216  33.833   7.303   1.096
72792W        W45217  16.192  19.273   2.403
72793W        W45218  21.816   4.433   3.247
72794W        W45219   2.911  13.315   2.580
72795W        W45220   8.260   7.955   0.048
72796W        W45221  12.907   1.369  11.777
72797W        W45222  28.530  16.362   0.509
72798W        W45223  29.178  15.749  14.923
72799W        W45224  22.526   0.675   2.869
72800W        W45225  29.890  42.246   4.114
72801W        W45226  10.792  23.185  13.792
72802W        W45227  10.646  35.013  12.852
72803W        W45228  10.736  38.570   2.354
72804W        W45229  23.802   7.686  13.716
72805W        W45230  19.637   3.171   5.112
72806W        W45231  17.143   9.537  13.232
72807W        W45232  38.964  27.433  14.494
72808W        W45233  18.273   9.398  14.167
72809W        W45234  20.036  12.765  11.408
72810W        W45235  34.359  18.337  10.688
72811W        W45236   8.042  23.732  13.333
72812W        W45237  10.216  16.312   3.643
72813W        W45238  13.328  29.167  13.734
72814W        W45239   0.702  28.575   4.692
72815W        W45240   6.325  41.847   0.811
72816W        W45241  41.614   6.931   2.258
72817W        W45242  38.215  15.768  13.621
72818W        W45243   6.867   6.082  12.075
72819W        W45244   0.680  20.274  13.469
72820W        W45245  36.010  44.201   0.919
72821W        W45246   7.438  20.173   3.617
72822W        W45247  27.874   0.924  14.366
72823W        W45248  27.991   7.162  11.126
72824W        W45249  42.257   8.217   2.847
72825W        W45250  40.309   8.724  12.448
72826W        W45251  14.464  10.025   4.922
72827W        W45252  29.921  19.239   1.663
72828W        W45253  26.017  18.811  13.860
72829W        W45254   8.128  30.095   3.040
72830W        W45255  34.298   8.279   3.265
72831W        W45256  10.406  38.314   4.738
72832W        W45257  33.447   3.783  11.359
72833W        W45258   8.394  22.077  12.905
72834W        W45259  15.395  43.936  11.326
72835W        W45260  22.501  30.543  13.141
72836W        W45261   4.250  30.576   0.691
72837W        W45262   3.231   3.799  11.571
72838W        W45263  21.678  18.216  14.757
72839W        W45264   2.005   8.214   4.613
72840W        W45265   2.209  28.698   1.149
72841W        W45266  32.458  23.721   2.657
72842W        W45267   1.654  34.845  11.117
72843W        W45268  44.873  42.794   3.910
72844W        W45269  10.693  28.153   9.940
72845W        W45270   2.895  25.846  12.467
72846W        W45271  14.103  31.955  12.477
72847W        W45272   9.653  25.796  14.353
72848W        W45273  26.506  35.923   0.053
72849W        W45274  39.479   2.523  11.023
72850W        W45275  28.760  20.057  12.216
72851W        W45276  36.494   3.404  13.884
72852W        W45277  16.777   7.435   0.350
72853W        W45278  34.745   9.721   1.789
72854W        W45279  33.067  20.314   4.165
72855W        W45280  20.365  34.349  10.790
72856W        W45281  12.754  38.878  12.826
72857W        W45282  19.038  37.864   0.634
72858W        W45283   8.830  39.541   0.878
72859W        W45284  36.947  38.276  14.920
72860W        W45285  43.935  11.160  11.601
72861W        W45286   1.012  28.071   3.444
72862W        W45287  19.266  42.854  11.304
72863W        W45288  12.819  13.381   2.288
72864W        W45289  12.418   1.756   1.845
72865W        W45290  29.467  35.041  10.783
72866W        W45291  33.396  37.099  11.093
72867W        W45292  17.587  25.456  10.925
72868W        W45293  17.676   6.841   4.581
72869W        W45294  34.396  43.232  13.796
72870W        W45295  42.026   7.692   1.708
72871W        W45296  23.761  33.563  10.722
72872W        W45297  30.027   0.990   0.279
72873W        W45298  35.559  22.659   1.323
72874W        W45299  26.370  22.676  10.629
72875W        W45300  13.266   9.894   4.669
72876W        W45301  23.188   7.784  10.500
72877W        W45302   9.202  35.086  12.922
72878W        W45303   3.787  19.739  10.729
72879W        W45304  22.083   9.947   1.966
72880W        W45305  44.495   9.795   3.396
72881W        W45306  29.323  17.089   1.790
72882W        W45307  37.280  37.134   1.369
72883W        W45308  17.241  15.358  13.137
72884W        W45309   4.303  18.481   4.314
72885W        W45310  36.878   6.775   3.215
72886W        W45311   5.986  38.778   2.722
72887W        W45312  34.933  13.661   0.904
72888W        W45313  19.201   0.342   0.918
72889W        W45314  25.750  35.929   3.298
72890W        W45315  42.953  24.679   1.815
72891W        W45316   1.550  10.210   5.203
72892W        W45317  16.596   5.322  14.425
72893W        W45318   9.040  38.058  14.998
72894W        W45319  33.598  18.773   4.074
72895W        W45320   7.393  21.693   1.517
72896W        W45321   6.319  11.661   1.872
72897W        W45322   5.435  12.411   3.324
72898W        W45323  37.420   0.962   1.052
72899W        W45324  22.048  24.506   3.323
72900W        W45325  28.371  11.711  11.473
72901W        W45326   8.302  41.704  10.440
72902W        W45327  38.293  21.027  12.459
72903W        W45328   1.902  39.796   3.262
72904W        W45329  40.992  42.132   2.800
72905W        W45330   0.939  44.522   2.384
72906W        W45331  29.704  37.567   4.569
72907W        W45332  18.949   2.243   0.825
72908W        W45333  27.576  13.389  14.994
72909W        W45334  39.342  10.385   1.806
72910W        W45335  13.971  42.842   5.116
72911W        W45336   3.779   2.408  10.622
72912W        W45337   0.835   4.320  10.406
72913W        W45338   7.664  22.054   0.425
72914W        W45339  29.583   3.856   3.292
72915W        W45340   0.300  15.277   0.728
72916W        W45341  14.915  41.700  11.080
72917W        W45342  18.235   3.338  13.858
72918W        W45343  15.515   2.265  12.844
72919W        W45344   0.258  35.410  12.303
72920W        W45345  31.016  24.129  13.644
72921W        W45346  11.869  10.628   4.790
72922W        W45347  13.453  43.313   4.095
72923W        W45348  36.104  33.077   4.184
72924W        W45349  25.687   5.020   1.601
72925W        W45350  44.477   1.574   4.649
72926W        W45351  17.116   9.447  11.274
72927W        W45352  14.017  26.033   1.793
72928W        W45353  30.504  40.545   3.276
72929W        W45354  42.930  11.202  12.497
72930W        W45355  17.045   8.476   3.330
72931W        W45356   4.341   9.141   1.212
72932W        W45357  25.064  20.684  13.075
72933W        W45358  14.484  16.533   2.720
72934W        W45359  36.610  42.308   0.886
72935W        W45360   7.575  36.360  10.894
72936W        W45361  39.988  41.624   0.321
72937W        W45362  28.182  35.381   3.178
72938W        W45363  26.018   1.304   4.271
72939W        W45364  16.322  27.399   0.380
72940W        W45365  43.489  11.604  11.608
72941W        W45366   4.252  42.515  12.880
72942W        W45367   8.132  33.191   1.326
72943W        W45368   9.949  34.919   0.555
72944W        W45369  27.125   2.924  11.719
72945W        W45370  41.438  18.778  13.461
72946W        W45371  41.872   9.681   2.181
72947W        W45372  19.506  14.116  10.646
72948W        W45373  40.088  27.982   4.822
72949W        W45374  21.782  41.568   1.743
72950W        W45375  44.727  18.092  14.939
72951W        W45376  23.603  35.597   0.330
72952W        W45377  43.471   1.022   0.217
72953W        W45378  26.043  17.994  13.076
72954W        W45379  39.720   8.765  13.840
72955W        W45380  44.961  32.719  14.332
72956W        W45381  21.631  17.552  11.903
72957W        W45382   9.778  23.270   0.929
72958W        W45383  37.786   4.929  13.591
72959W        W45384   9.904  31.477   0.726
72960W        W45385  12.173   2.480   4.906
72961W        W45386  29.143  41.762  14.696
72962W        W45387  29.462   6.317   2.137
72963W        W45388  42.141  38.015   4.458
72964W        W45389   7.403  16.615  11.586
72965W        W45390  39.861  26.558   1.327
72966W        W45391  17.103  42.497  13.928
72967W        W45392  21.117  37.901   0.920
72968W        W45393  31.974  17.151  13.077
72969W        W45394   8.226  26.986   3.301
72970W        W45395  15.270  13.241  12.505
72971W        W45396  10.183  21.299   3.364
72972W        W45397  13.639  10.118   0.506
72973W        W45398  28.279   5.540   4.001
72974W        W45399  38.807  22.886  10.614
72975W        W45400  27.622  16.431   0.415
72976W        W45401  39.336  39.818   1.786
72977W        W45402  28.795   6.173  14.547
72978W        W45403   7.197  19.123   2.354
72979W        W45404  26.791  31.228  13.935
72980W        W45405  11.400   2.690   0.316
72981W        W45406  41.090  15.170   1.943
72982W        W45407  17.926  32.016  10.459
72983W        W45408  39.044   1.768   4.139
72984W        W45409  24.245   3.476  13.764
72985W        W45410   7.978  32.349  10.333
72986W        W45411  22.768  22.073   0.257
72987W        W45412   9.308  35.444   0.928
72988W        W45413  21.348   3.221   1.944
72989W        W45414  20.497  13.914  13.037
72990W        W45415  37.476  19.436   1.485
72991W        W45416  43.889  26.425   4.864
72992W        W45417  31.909   5.477  11.984
72993W        W45418   0.367  23.755   3.165
72994W        W45419   8.799  24.389  14.933
72995W        W45420   9.838  30.000   3.272
72996W        W45421   9.032   8.223  12.578
72997W        W45422  43.406  36.932   1.922
72998W        W45423  13.661  42.739  13.052
72999W        W45424   8.907  41.522   0.282
73000W        W45425   3.204  30.134   3.793
73001W        W45426  21.079   9.777   4.148
73002W        W45427  41.547   6.629  12.479
73003W        W45428  28.689  37.856   0.375
73004W        W45429  28.377  13.672  12.673
73005W        W45430  29.944  40.463  11.145
73006W        W45431   6.106  22.657   4.987
73007W        W45432  32.624   7.424  12.814
73008W        W45433  11.932  20.879  12.380
73009W        W45434  13.681  10.785  14.927
73010W        W45435   0.502  22.837  14.943
73011W        W45436   1.573  40.483  11.331
73012W        W45437  40.088   0.802  10.207
73013W        W45438  35.171  32.823  11.963
73014W        W45439  29.579  18.695  11.165
73015W        W45440   3.134  18.671   1.589
73016W        W45441  41.368  44.592  12.953
73017W        W45442  44.489  40.693   3.538
73018W        W45443  25.034   3.810  10.918
73019W        W45444  40.787  36.998  14.652
73020W        W45445   3.180  24.119   2.815
73021W        W45446   5.656  33.948   1.284
73022W        W45447   8.942  15.578   1.820
73023W        W45448  43.982  24.756  13.620
73024W        W45449  29.665  42.019   4.609
73025W        W45450  33.533  43.952  14.778
73026W        W45451  21.782   8.783  11.591
73027W        W45452  36.775  27.655   0.636
73028W        W45453   4.416  41.981  14.524
73029W        W45454  20.641  44.550   2.432
73030W        W45455  32.966   3.698  11.881
73031W        W45456  41.363  15.242   4.639
73032W        W45457  39.782  12.063   4.186
73033W        W45458  26.356   1.856   0.278
73034W        W45459  20.970  22.880  14.796
73035W        W45460  10.828  31.402  13.814
73036W        W45461  11.888  33.524   4.659
73037W        W45462  31.488   7.177   1.285
73038W        W45463  22.609   0.419   3.325
73039W        W45464   0.374   4.628   4.579
73040W        W45465  19.983  33.928  14.219
73041W        W45466  18.157  32.357   3.276
73042W        W45467  30.561   2.882   0.307
73043W        W45468   7.109  29.512   3.277
73044W        W45469  34.905  43.532  12.549
73045W        W45470  21.543  15.874   4.780
73046W        W45471  26.772  24.959   5.095
73047W        W45472   5.509  28.698  13.061
73048W        W45473  39.237  22.140   3.999
73049W        W45474  26.543   0.833   1.985
73050W        W45475  19.240  42.403  14.239
73051W        W45476  32.158  29.060   3.254
73052W        W45477  37.552  23.224   0.276
73053W        W45478  21.785   3.197   1.523
73054W        W45479  10.815   5.786  14.707
73055W        W45480  24.666  40.658  11.515
73056W        W45481  44.251  32.846   3.778
73057W        W45482  44.754   8.827   0.707
73058W        W45483  42.923  36.937  10.569
73059W        W45484  38.462  14.165   4.239
73060W        W45485  10.550  28.072  10.665
73061W        W45486  12.285   6.001  13.809
73062W        W45487  24.570  15.468  14.822
73063W        W45488  35.282  44.508   4.120
73064W        W45489  25.610   8.182   0.721
73065W        W45490  33.184   7.243  12.357
73066W        W45491   7.640   8.391  13.917
73067W        W45492  21.025  19.093   1.258
73068W        W45493  30.653  18.972   1.920
73069W        W45494   9.363  31.498   3.892
73070W        W45495  24.755  39.340   0.360
73071W        W45496  23.657   4.226  13.455
73072W        W45497  32.468  43.381   0.855
73073W        W45498  38.692  15.353  13.311
73074W        W45499   1.510  31.289  13.030
73075W        W45500  41.493  31.196  13.057
73076W        W45501  13.198  43.068   1.792
73077W        W45502  31.429  23.158   3.799
73078W        W45503  27.620   4.431   4.561
73079W        W45504   7.170  13.531  12.609
73080W        W45505   7.948  29.718  13.476
73081W        W45506  25.158  34.816  10.943
73082W        W45507  14.257  14.238   0.676
73083W        W45508   0.458  39.554  10.656
73084W        W45509   6.544  22.595  11.997
73085W        W45510   2.355  23.705  13.928
73086W        W45511  21.102  10.282  10.916
73087W        W45512  17.117  24.678  11.446
73088W        W45513  11.076   6.133   1.631
73089W        W45514  13.331   4.763  13.489
73090W        W45515  30.613  43.505   4.053
73091W        W45516  33.014  34.619  10.482
73092W        W45517  40.530  13.447   4.471
73093W        W45518  36.449   9.642   4.816
73094W        W45519   3.784  17.125  14.288
73095W        W45520  18.613   3.418   5.467
73096W        W45521   7.363   2.318   2.851
73097W        W45522  12.180  29.164  11.083
73098W        W45523  34.623   6.880   1.911
73099W        W45524  44.271  23.081  13.788
73100W        W45525  13.056  36.362  11.475
73101W        W45526  38.339  37.918  14.032
73102W        W45527  37.369  20.044  14.783
73103W        W45528  30.779  28.392   0.493
73104W        W45529  27.553  20.514   1.410
73105W        W45530   3.809  38.334  10.860
73106W        W45531   3.321  14.352   1.334
73107W        W45532  37.404  27.625  12.880
73108W        W45533  23.019  14.849  13.522
73109W        W45534   0.682  26.980   1.785
73110W        W45535  23.606   8.645   2.339
73111W        W45536  26.581   5.826  10.943
73112W        W45537  44.213   4.487   3.865
73113W        W45538   0.886  33.142   0.567
73114W        W45539  35.058   4.408   4.056
73115W        W45540   0.718  34.373   1.329
73116W        W45541  43.196   3.865  14.879
73117W        W45542   3.117  24.586  13.382
73118W        W45543  12.956  33.399  14.736
73119W        W45544  43.998  42.360  14.439
73120W        W45545  44.985  20.979  14.940
73121W        W45546  24.692  12.798   1.904
73122W        W45547  38.842  16.640  13.511
73123W        W45548  36.119  42.496  11.596
73124W        W45549  35.822  14.495   4.171
73125W        W45550  11.245  30.072  14.647
73126W        W45551  29.562  23.998  13.768
73127W        W45552  40.897  21.753   0.226
73128W        W45553  43.206  31.925   4.391
73129W        W45554  37.298  30.388   0.525
73130W        W45555  18.531   5.356  11.554
73131W        W45556   0.685  18.792   1.437
73132W        W45557   3.285  33.455   9.999
73133W        W45558  30.146  24.228  14.134
73134W        W45559   1.872  33.988   3.607
73135W        W45560  30.507  21.179   0.239
73136W        W45561  26.443  31.175  13.573
73137W        W45562   0.264  35.602  13.410
73138W        W45563  32.370  27.140  10.934
73139W        W45564  36.268   7.514  10.249
73140W        W45565  17.040   8.611  13.304
73141W        W45566  41.388  28.374   1.942
73142W        W45567  12.534  38.117   0.653
73143W        W45568  21.142  17.037   2.426
73144W        W45569  18.086  25.935   3.745
73145W        W45570  17.064  39.797   3.687
73146W        W45571  34.772  19.529  12.386
73147W        W45572  35.429   3.298  12.607
73148W        W45573   7.294  26.034  11.435
73149W        W45574  13.866  30.356   2.455
73150W        W45575  26.864  39.728   1.639
73151W        W45576  33.345  18.785  11.448
73152W        W45577  20.578  33.295   0.381
73153W        W45578  14.875  37.832   3.253
73154W        W45579  21.981  36.305  11.218
73155W        W45580  27.187  28.088   2.829
73156W        W45581  41.488  30.949  12.607
73157W        W45582  43.256  22.334  14.433
73158W        W45583  10.883  37.792  11.142
73159W        W45584  18.144  21.633  10.696
73160W        W45585  11.577  41.887   4.122
73161W        W45586  34.617  32.921  14.323
73162W        W45587   0.878  37.127   1.438
73163W        W45588  18.631  19.665  14.347
73164W        W45589  19.652  29.973   9.687
73165W        W45590  24.138  22.840  14.029
73166W        W45591  18.478  21.433   0.641
73167W        W45592  34.984  32.992  12.423
73168W        W45593  36.988  13.564   0.326
73169W        W45594  27.363  20.134   2.273
73170W        W45595  37.967  19.308   0.949
73171W        W45596  35.777  27.894   4.431
73172W        W45597  16.307  43.548  14.825
73173W        W45598   7.932  26.418  10.267
73174W        W45599  22.191  22.824   4.939
73175W        W45600  27.254   1.142  10.577
73176W        W45601  33.454  39.005   5.287
73177W        W45602  43.540  20.767  12.115
73178W        W45603  40.049  17.187   1.876
73179W        W45604  22.017   7.626  13.079
73180W        W45605   4.783  28.236   4.236
73181W        W45606  18.744  15.179   1.680
73182W        W45607  20.435  16.738  12.839
73183W        W45608  37.488  34.851   4.590
73184W        W45609  15.650  19.240   4.708
73185W        W45610  37.287  20.184   4.717
73186W        W45611  38.359   8.164   4.523
73187W        W45612  13.610  38.492  10.997
73188W        W45613  27.163  25.911   0.868
73189W        W45614  27.659  42.715   3.224
73190W        W45615  15.834  20.982  11.027
73191W        W45616  32.328  41.538  14.039
73192W        W45617  19.716  41.887   2.438
73193W        W45618  14.420  35.426   3.168
73194W        W45619   9.064   5.427   0.728
73195W        W45620   9.756  35.181  11.663
73196W        W45621   1.330  27.208  13.557
73197W        W45622  16.622  30.883  12.475
73198W        W45623  39.846   0.777   3.746
73199W        W45624  13.281   5.237   3.707
73200W        W45625   3.207  40.685  12.883
73201W        W45626   4.706  22.716  11.637
73202W        W45627  24.996  39.077  13.466
73203W        W45628  38.019  14.740   3.038
73204W        W45629  11.054  23.364  10.136
73205W        W45630  36.150  35.522   4.797
73206W        W45631  16.632   5.701  11.016
73207W        W45632  44.036  42.915  12.509
73208W        W45633   8.247  22.938  11.453
73209W        W45634   2.610  13.856   0.925
73210W        W45635   0.003  19.020  10.715
73211W        W45636  29.185  33.454   1.871
73212W        W45637  15.506  43.448   0.954
73213W        W45638  26.674  13.567   1.731
73214W        W45639  12.701   8.156   4.013
73215W        W45640  21.751   4.224   2.336
73216W        W45641  10.969  16.428  12.400
73217W        W45642  29.485  14.710  10.677
73218W        W45643  30.424  18.639  12.146
73219W        W45644  30.141  27.503   2.770
73220W        W45645  42.256  39.889   2.201
73221W        W45646   1.255  41.424   0.407
73222W        W45647  21.622  38.658   2.512
73223W        W45648  41.030  42.818   0.251
73224W        W45649  32.442  44.848  14.809
73225W        W45650  10.156  38.789   0.690
73226W        W45651  13.578  22.795  11.789
73227W        W45652  41.381   5.220  12.770
73228W        W45653  19.473  33.234  14.701
73229W        W45654  43.804   6.418   1.978
73230W        W45655  34.330  31.114  14.032
73231W        W45656   7.496  25.691   1.916
73232W        W45657  24.570  11.878   0.375
73233W        W45658  34.335  40.451   3.925
73234W        W45659  26.205   4.254  11.416
73235W        W45660   4.348  14.796   1.666
73236W        W45661  13.789   1.714  14.732
73237W        W45662   3.751  12.487   2.150
73238W        W45663  41.027  13.622  12.358
73239W        W45664  15.618  11.149  14.722
73240W        W45665  32.452  29.519   1.179
73241W        W45666  30.078  24.784  14.811
73242W        W45667  43.998  27.933  12.107
73243W        W45668  11.137  31.248   3.722
73244W        W45669  16.621  44.342  14.036
73245W        W45670  23.282  36.528  12.463
73246W        W45671  27.940  33.060   9.542
73247W        W45672  39.482  31.516  11.186
73248W        W45673   9.463   6.023   3.742
73249W        W45674  22.603  23.481   1.747
73250W        W45675   9.410  14.226  14.445
73251W        W45676   3.963  26.214  13.884
73252W        W45677   7.351  16.102  12.465
73253W        W45678  18.363   8.613   3.409
73254W        W45679  23.172   7.828  14.892
73255W        W45680  11.258   6.947  11.008
73256W        W45681  25.416  35.204   3.647
73257W        W45682  24.669   8.577  12.524
73258W        W45683   2.167  28.178  13.492
73259W        W45684  30.104  33.631  13.873
73260W        W45685   1.926  35.365  13.365
73261W        W45686  25.899   0.288  11.917
73262W        W45687  14.598   3.654   4.154
73263W        W45688  42.384  16.825  11.456
73264W        W45689  26.638  31.820  14.557
73265W        W45690  20.859  24.913   3.071
73266W        W45691  17.144  26.492  11.929
73267W        W45692  25.252  43.507   4.355
73268W        W45693   3.443   8.826   4.172
73269W        W45694  18.653  21.239  14.246
73270W        W45695  20.062  35.336  14.481
73271W        W45696  18.817   7.890  12.058
73272W        W45697  32.076   6.241  14.851
73273W        W45698  17.208  13.494  13.949
73274W        W45699  28.254  32.980   4.700
73275W        W45700  36.795  34.650  12.549
73276W        W45701   4.172  17.056  13.941
73277W        W45702  21.065  15.815   3.102
73278W        W45703   6.820  40.400   1.435
73279W        W45704  35.951  16.697  12.178
73280W        W45705  14.480  11.301  14.454
73281W        W45706   0.752  39.116  12.168
73282W        W45707  33.112  20.581   4.698
73283W        W45708  10.501  29.261  11.006
73284W        W45709   5.210  35.751  11.240
73285W        W45710  27.668  34.881   0.344
73286W        W45711  27.629   5.719   2.805
73287W        W45712  43.327  20.463   2.907
73288W        W45713  35.648  39.531  11.972
73289W        W45714  13.543  21.591   9.780
73290W        W45715  33.042  41.611  10.449
73291W        W45716  41.383   1.447  12.855
73292W        W45717  16.349  15.371   1.303
73293W        W45718  30.899   9.604  13.932
73294W        W45719   8.805  10.382  11.951
73295W        W45720   9.528   7.179   0.965
73296W        W45721  41.440   3.742  12.435
73297W        W45722  32.206  15.647   1.727
73298W        W45723  41.560  12.808   4.143
73299W        W45724  20.187  23.319   1.065
73300W        W45725  30.039   2.396   4.765
73301W        W45726  35.558  29.650  13.998
73302W        W45727  19.680   9.729  12.945
73303W        W45728  23.100  40.258   1.954
73304W        W45729   6.209  11.134  11.156
73305W        W45730  14.729  41.750   0.907
73306W        W45731  31.453  31.326  14.969
73307W        W45732  20.004  38.410  11.057
73308W        W45733   2.711  12.381  11.289
73309W        W45734  26.000  37.869  12.340
73310W        W45735  33.345   1.763   3.706
73311W        W45736  41.214  29.048   1.182
73312W        W45737  23.904  40.279  14.916
73313W        W45738  14.815  26.209   1.251
73314W        W45739  37.451  33.487  11.509
73315W        W45740   5.741  28.141  11.219
73316W        W45741  14.833   1.453   1.823
73317W        W45742  22.007   3.675   1.523
73318W        W45743   8.202  23.173  14.038
73319W        W45744  22.062  27.528   0.734
73320W        W45745  42.922  21.105   3.462
73321W        W45746  14.196   6.363  13.805
73322W        W45747   3.310   7.416  10.722
73323W        W45748  37.805   5.260  12.125
73324W        W45749  13.891  23.136   0.868
73325W        W45750  29.797  34.100  11.921
73326W        W45751  18.141  41.998   0.699
73327W        W45752  20.092  15.098   4.094
73328W        W45753   2.749  33.886  13.529
73329W        W45754  25.057  40.961   4.477
73330W        W45755  39.609  22.067  12.138
73331W        W45756  17.112  23.032   4.884
73332W        W45757  12.300  38.607   3.704
73333W        W45758  21.248  25.199   1.007
73334W        W45759  42.375  29.412  14.871
73335W        W45760  10.101   1.979  12.868
73336W        W45761  15.979   7.868   5.127
73337W        W45762  21.802  10.913  12.051
73338W        W45763  10.681  28.939  13.624
73339W        W45764  18.134  35.477  11.345
73340W        W45765  29.171  33.075   2.425
73341W        W45766  11.666  13.938  10.893
73342W        W45767  26.083  24.996  10.479
73343W        W45768   2.425   2.255  14.716
73344W        W45769  17.742  27.732   1.915
73345W        W45770  16.001  11.768  12.353
73346W        W45771  31.046   5.367   2.848
73347W        W45772  28.425   5.286   1.176
73348W        W45773  34.823  10.065   2.694
73349W        W45774  18.335  25.028  12.523
73350W        W45775  18.296  36.997   3.733
73351W        W45776   9.211  18.005   0.648
73352W        W45777  30.089  13.108  14.850
73353W        W45778   0.898  27.229  10.664
73354W        W45779  43.899  22.554   2.730
73355W        W45780   1.412  38.293   2.916
73356W        W45781  30.351  13.334   2.264
73357W        W45782   4.703  35.491  12.997
73358W        W45783   2.895  42.747   2.426
73359W        W45784  26.800  43.663  11.717
73360W        W45785  20.653  12.131   4.161
73361W        W45786  32.692  18.344  10.115
73362W        W45787  34.676   0.517   4.081
73363W        W45788  13.702   3.454  11.047
73364W        W45789   9.479   7.845  11.142
73365W        W45790  20.019  15.235  10.730
73366W        W45791  15.349   0.495  12.472
73367W        W45792  44.348   8.900  10.583
73368W        W45793  22.307   0.761  11.416
73369W        W45794  11.700  21.062  13.660
73370W        W45795  13.294  33.618   3.798
73371W        W45796  24.786   1.743   3.788
73372W        W45797  18.088   5.408   2.294
73373W        W45798   1.263  34.942   2.319
73374W        W45799  22.711   0.397   0.940
73375W        W45800   7.680  42.991  11.608
73376W        W45801  39.775  17.342  14.456
73377W        W45802  26.158   8.886  11.074
73378W        W45803  16.710   4.832   1.968
73379W        W45804  32.588  36.575   0.192
73380W        W45805  40.987  22.439   0.498
73381W        W45806  29.850  29.171  13.535
73382W        W45807  16.725  30.415   4.064
73383W        W45808  29.837  43.317   2.349
73384W        W45809  40.523  32.160  11.060
73385W        W45810  29.066  43.348   1.619
73386W        W45811  26.920   8.724   0.731
73387W        W45812  13.832  35.282  11.989
73388W        W45813  37.315   0.542   3.193
73389W        W45814   5.432  30.382  12.487
73390W        W45815  12.119  31.895   4.583
73391W        W45816  23.554  25.002  13.788
73392W        W45817  37.456  31.806  10.390
73393W        W45818  29.927  17.538   0.941
73394W        W45819   4.890  30.658   2.843
73395W        W45820   6.430   9.910  12.382
73396W        W45821  27.510  18.960  14.201
73397W        W45822  30.526  30.833  14.577
73398W        W45823  24.728  32.558  11.949
73399W        W45824  38.150  23.867   4.195
73400W        W45825   2.925  18.720  12.007
73401W        W45826  43.800  31.979   1.538
73402W        W45827  28.238   7.244   4.663
73403W        W45828  44.838  15.412  14.507
73404W        W45829   7.034  42.065  13.788
73405W        W45830   4.417   9.034  14.308
73406W        W45831  19.029  41.328   2.320
73407W        W45832  15.243  17.634  11.154
73408W        W45833   6.713  18.885   1.396
73409W        W45834  13.844  43.884  11.193
73410W        W45835  10.930  24.137   1.933
73411W        W45836  21.019   6.303   3.794
73412W        W45837  36.139  25.736   3.784
73413W        W45838  26.355  26.696  14.397
73414W        W45839  44.359  10.830   1.481
73415W        W45840  39.853  17.588  11.317
73416W        W45841  29.141   8.464   2.290
73417W        W45842   2.749  26.672  11.610
73418W        W45843  28.380  35.355  12.941
73419W        W45844  40.052  17.548  10.332
73420W        W45845  37.048  40.041   3.195
73421W        W45846   9.777  27.045   3.888
73422W        W45847   4.489  38.852  14.943
73423W        W45848  11.246  12.084   3.831
73424W        W45849   6.351  25.827  10.787
73425W        W45850  32.137  15.610   3.190
73426W        W45851  44.536  24.595   0.764
73427W        W45852  13.380   5.214   1.779
73428W        W45853   7.800  11.692  13.269
73429W        W45854   6.421   6.902   1.427
73430W        W45855  36.504  11.219   1.561
73431W        W45856  17.682  34.533   2.891
73432W        W45857  24.054  43.017   0.472
73433W        W45858  22.690  14.097   0.781
73434W        W45859  41.475  26.708  14.413
73435W        W45860  31.131  39.291  10.898
73436W        W45861  11.248  44.512   3.683
73437W        W45862  12.714  32.904   3.724
73438W        W45863  12.737  21.447   0.923
73439W        W45864  44.367  38.291   1.837
73440W        W45865  17.100  17.281   2.146
73441W        W45866  19.484  23.123  10.405
73442W        W45867  10.259  32.074  10.122
73443W        W45868  34.115  38.858   4.062
73444W        W45869  13.805   1.225   4.078
73445W        W45870  24.756  41.304   3.266
73446W        W45871  38.382   1.161  13.898
73447W        W45872   8.132  26.592   5.106
73448W        W45873  32.054  12.346  12.872
73449W        W45874  28.482   3.793  12.919
73450W        W45875   3.364   9.163   0.472
73451W        W45876  22.255  36.003   4.092
73452W        W45877  11.298  16.561   2.876
73453W        W45878   4.492  32.505  11.521
73454W        W45879  42.267  21.431  10.326
73455W        W45880   1.689  34.915   0.523
73456W        W45881  33.097   5.115   0.236
73457W        W45882  13.181  23.036  11.556
73458W        W45883  28.554  36.620  12.049
73459W        W45884  10.332  27.368  11.586
73460W        W45885  31.040  14.115   1.330
73461W        W45886  29.984  21.474  11.356
73462W        W45887  44.544   2.317  11.553
73463W        W45888  42.815  32.912  11.995
73464W        W45889  11.371   1.919  14.279
73465W        W45890  16.750   5.711  11.550
73466W        W45891   5.005  40.386   2.329
73467W        W45892  14.715  38.489   4.005
73468W        W45893  35.500  30.727  11.409
73469W        W45894  43.653  10.378  13.670
73470W        W45895   6.917  22.017  14.872
73471W        W45896  31.529  33.916   3.682
73472W        W45897  18.591  22.019  13.843
73473W        W45898  40.264   4.019   4.295
73474W        W45899  39.458   4.678  12.449
73475W        W45900   8.777  33.724  12.439
73476W        W45901  11.560  30.493  14.560
73477W        W45902  27.926  14.086   4.844
73478W        W45903  37.397  12.461   2.315
73479W        W45904  12.703  12.651   3.897
73480W        W45905  21.182  41.822  13.150
73481W        W45906   2.039  23.182  12.908
73482W        W45907   6.287   8.863   0.698
73483W        W45908  27.464  43.717  13.402
73484W        W45909   3.621  14.671  12.162
73485W        W45910  38.125   1.530   2.714
73486W        W45911  13.416   2.583  12.371
73487W        W45912   5.375  17.343  14.348
73488W        W45913  37.756   4.947   4.030
73489W        W45914  22.974  40.939   1.272
73490W        W45915   0.868   0.428  11.949
73491W        W45916  35.868  36.344   0.165
73492W        W45917  16.020  23.135   3.730
73493W        W45918   8.355  15.691   3.618
73494W        W45919  34.958  44.942  10.868
73495W        W45920   1.682  21.252  12.066
73496W        W45921  29.598  29.704  11.574
73497W        W45922  33.637   7.204  10.030
73498W        W45923   1.953  43.004  14.789
73499W        W45924  30.246  16.657  13.532
73500W        W45925   6.112  31.012   0.122
73501W        W45926   5.793  12.723   2.077
73502W        W45927  43.255  25.042   4.251
73503W        W45928  14.485  33.305   1.872
73504W        W45929  29.650  37.592  14.470
73505W        W45930   4.510  36.762  11.519
73506W        W45931  21.801   5.632  13.006
73507W        W45932  44.359  28.954   1.777
73508W        W45933  25.591  21.199   1.286
73509W        W45934  21.797   9.881   3.609
73510W        W45935  27.534  42.259  11.513
73511W        W45936  11.857   8.858  11.601
73512W        W45937  42.384  23.421  12.923
73513W        W45938  12.882  26.088  14.079
73514W        W45939  17.102  15.853  12.138
73515W        W45940  32.988  16.979  11.527
73516W        W45941  23.096  14.418   0.932
73517W        W45942  31.864  19.823   2.796
73518W        W45943  27.265   2.742  14.485
73519W        W45944  14.021   3.071  11.117
73520W        W45945  35.071   6.869   4.865
73521W        W45946  21.167  38.453   1.787
73522W        W45947   3.415  39.403  10.522
73523W        W45948  30.290   8.825  11.236
73524W        W45949  20.284  13.351   3.820
73525W        W45950   7.951  37.975   5.086
73526W        W45951  25.091  12.015  11.473
73527W        W45952  41.025   4.082   3.346
73528W        W45953  44.924  23.090   0.758
73529W        W45954  13.575  26.722  10.159
73530W        W45955  35.545  15.864   3.259
73531W        W45956  18.675  21.523   2.647
73532W        W45957  40.632  44.732  14.239
73533W        W45958  11.933  33.117   0.647
73534W        W45959   4.219  44.547  11.132
73535W        W45960  32.670  10.711  11.649
73536W        W45961   6.296  25.160  10.704
73537W        W45962  30.370  33.546   0.368
73538W        W45963  37.360   2.033   2.160
73539W        W45964   6.622  23.083   3.178
73540W        W45965  27.179  43.009   3.236
73541W        W45966  24.068  37.597   1.717
73542W        W45967   1.648   5.324   3.388
73543W        W45968   8.071  19.073   2.219
73544W        W45969  21.715  24.765  12.412
73545W        W45970  13.231  40.635   4.620
73546W        W45971  44.593  44.801  13.063
73547W        W45972  31.640  15.297   0.240
73548W        W45973  36.962  43.498  14.647
73549W        W45974  32.800  30.460   0.758
73550W        W45975  15.624  22.558  11.353
73551W        W45976  40.348  13.607  13.966
73552W        W45977  16.774   2.982  14.810
73553W        W45978  26.000   1.329   1.876
73554W        W45979   2.847  43.336  14.478
73555W        W45980  35.498  42.415   4.257
73556W        W45981   7.321  11.387  13.425
73557W        W45982   1.732   0.167  14.486
73558W        W45983  20.216  20.263   1.603
73559W        W45984  31.983  13.101   0.883
73560W        W45985  36.679  30.025  11.989
73561W        W45986  36.950   7.023  13.927
73562W        W45987  22.414  36.125  11.591
73563W        W45988  30.715  39.559   4.226
73564W        W45989  43.519  19.940  13.741
73565W        W45990  22.721   4.623   0.293
73566W        W45991  36.486   8.444  13.513
73567W        W45992   0.985   5.898  10.629
73568W        W45993  10.784  22.987   0.350
73569W        W45994  12.122  17.319   3.711
73570W        W45995  43.016  40.339   2.378
73571W        W45996   1.829  23.240   3.364
73572W        W45997   3.248  14.141   3.437
73573W        W45998  12.736   1.011   1.376
73574W        W45999  44.393  11.682  12.094
73575W        W46000  39.111  10.772  12.410
73576W        W46001  30.340   7.850   1.948
73577W        W46002  44.035  24.630   4.179
73578W        W46003  12.121  12.211   2.382
73579W        W46004  17.675  31.606   4.054
73580W        W46005  40.695   9.248   3.308
73581W        W46006   9.699  30.695   2.880
73582W        W46007  13.869  42.995  11.076
73583W        W46008  19.972   5.786   1.589
73584W        W46009   4.000   4.716   3.280
73585W        W46010  18.591  28.978   3.633
73586W        W46011  13.646  43.398   4.570
73587W        W46012  38.857  21.208  11.725
73588W        W46013  41.416  31.185  13.999
73589W        W46014  15.760  15.588  13.360
73590W        W46015  41.470   0.108  14.676
73591W        W46016   6.361   0.344   2.827
73592W        W46017  30.642  24.166   3.637
73593W        W46018   8.264  44.135  14.308
73594W        W46019  13.590  18.139  14.274
73595W        W46020  41.339  12.825  13.307
73596W        W46021  34.829   7.833   3.143
73597W        W46022   3.647  22.070   1.357
73598W        W46023  14.503  19.752  11.125
73599W        W46024  25.175  28.401  10.719
73600W        W46025  32.437  18.676   4.686
73601W        W46026   3.161  25.133  13.349
73602W        W46027   3.996  34.400  11.122
73603W        W46028  14.062  10.085  11.052
73604W        W46029  31.132  18.212   2.335
73605W        W46030  29.861   0.980  12.793
73606W        W46031  11.590   8.891  11.108
73607W        W46032  29.588   3.449  14.596
73608W        W46033   6.398  35.891   2.360
73609W        W46034  18.079  29.621   0.312
73610W        W46035  35.333  44.426   3.308
73611W        W46036  13.719  28.929   3.189
73612W        W46037  39.244  29.159  14.558
73613W        W46038  10.327  23.581   5.192
73614W        W46039  38.224  16.164   4.119
73615W        W46040  20.981   2.195  14.128
73616W        W46041  15.351  37.635  14.076
73617W        W46042  38.501  28.040   4.183
73618W        W46043  38.406  35.634   4.883
73619W        W46044  21.042  29.133   2.185
73620W        W46045   4.796  36.124  11.103
73621W        W46046  20.827  33.833  11.905
73622W        W46047  33.913  37.587   1.320
73623W        W46048   6.548  17.039   1.884
73624W        W46049  29.678  27.277   1.835
73625W        W46050   5.444  18.473   4.537
73626W        W46051  14.741  29.386   3.205
73627W        W46052  15.372   2.744  12.937
73628W        W46053  18.451  40.835   2.642
73629W        W46054   1.856  24.708   1.443
73630W        W46055   8.274  40.060   1.943
73631W        W46056  18.063  32.129  12.615
73632W        W46057  26.615  29.432   2.386
73633W        W46058   6.297   0.668   0.056
73634W        W46059  22.687   2.915  10.744
73635W        W46060   0.572  26.858  14.580
73636W        W46061   9.725  39.489  11.018
73637W        W46062  38.536  18.680   4.842
73638W        W46063  19.780  13.647   3.185
73639W        W46064  41.835  15.283  13.369
73640W        W46065  19.453  39.017   1.904
73641W        W46066  21.267  36.591   2.636
73642W        W46067  13.136  18.026   3.735
73643W        W46068  28.193  29.804  14.482
73644W        W46069  17.533   4.810   1.703
73645W        W46070   1.680   2.717  14.957
73646W        W46071   0.295  42.995  12.959
73647W        W46072  38.366  36.181   4.842
73648W        W46073  16.032  44.525   1.918
73649W        W46074   5.253  41.942   0.803
73650W        W46075  18.201   6.978   4.609
73651W        W46076   7.072  13.713  12.138
73652W        W46077   6.909  36.367   4.312
73653W        W46078  40.937  40.950  10.584
73654W        W46079  25.181   3.051   1.271
73655W        W46080  20.741  42.963  13.119
73656W        W46081  25.535  42.421  10.692
73657W        W46082  16.534  23.704  13.066
73658W        W46083  22.553  15.811  14.369
73659W        W46084  44.887  27.980  11.861
73660W        W46085   2.355   8.681   2.272
73661W        W46086   2.186  27.586  14.794
73662W        W46087  25.146  12.507   4.582
73663W        W46088  21.229   5.485   0.295
73664W        W46089   0.339   7.425   3.687
73665W        W46090  33.343  44.987   0.564
73666W        W46091  15.444   4.361  14.742
73667W        W46092  25.982   5.535  12.927
73668W        W46093  37.033  43.298  13.086
73669W        W46094  27.688  43.594   4.135
73670W        W46095  22.098  24.657   0.950
73671W        W46096   5.465  11.665  11.601
73672W        W46097  20.901  10.391   1.329
73673W        W46098  23.129  39.087   1.239
73674W        W46099  17.624   7.612   2.188
73675W        W46100  18.374   9.917  11.100
73676W        W46101  25.235  27.181   2.757
73677W        W46102  18.075  25.432   2.833
73678W        W46103  16.075  15.820   4.342
73679W        W46104  32.629  24.274   3.686
73680W        W46105  13.796  30.352  11.274
73681W        W46106  27.047  12.861  14.559
73682W        W46107   3.953   6.238   1.389
73683W        W46108  40.583  30.867  14.448
73684W        W46109  18.038  31.616  12.529
73685W        W46110  19.228  26.148  10.869
73686W        W46111  17.891  34.535  12.515
73687W        W46112   3.808  18.825   1.306
73688W        W46113  15.153  29.217   1.401
73689W        W46114   6.685   1.559   2.051
73690W        W46115  38.069  33.573   2.193
73691W        W46116  11.087  13.825   0.025
73692W        W46117   2.400  35.378  11.103
73693W        W46118  12.138   6.677   3.797
73694W        W46119  20.231  39.008  14.553
73695W        W46120  25.785  26.589   5.174
73696W        W46121  16.067  10.860  10.501
73697W        W46122  12.456   9.390   0.326
73698W        W46123   2.216  20.715  14.812
73699W        W46124   6.171  24.211  10.775
73700W        W46125   2.790  22.733  12.525
73701W        W46126  31.012  27.876  10.227
73702W        W46127  19.018  25.529  10.628
73703W        W46128   1.233  36.056   4.621
73704W        W46129  40.447   7.690   2.122
73705W        W46130  35.579  15.179  12.660
73706W        W46131  22.796  11.231  11.032
73707W        W46132  41.205   0.906  14.502
73708W        W46133  35.074  41.954   0.166
73709W        W46134  28.441  13.614  11.368
73710W        W46135  29.856   0.904   4.586
73711W        W46136  27.048  12.596   0.060
73712W        W46137   1.698   7.396   1.608
73713W        W46138  37.551  14.079  13.084
73714W        W46139  16.451   8.308   5.078
73715W        W46140   0.759  11.221  10.524
73716W        W46141  37.412  33.886  14.401
73717W        W46142  26.680  21.574   0.705
73718W        W46143  30.353  21.257   3.675
73719W        W46144  11.901  43.934  12.008
73720W        W46145  28.242  33.575   0.035
73721W        W46146  17.735   1.776   1.902
73722W        W46147  31.509   9.250  11.663
73723W        W46148  28.462  28.170  14.893
73724W        W46149  41.370  32.024  11.517
73725W        W46150  22.679  10.730   2.783
73726W        W46151  31.915   9.798   0.239
73727W        W46152  35.813   2.447  11.455
73728W        W46153  41.183  16.881   2.333
73729W        W46154  43.192  38.829   0.375
73730W        W46155   7.373   8.421  10.082
73731W        W46156  21.046  42.817  14.406
73732W        W46157  26.992  34.152  13.110
73733W        W46158   9.780  13.749   4.164
73734W        W46159  24.185  23.926   2.814
73735W        W46160  37.522   6.924   1.944
73736W        W46161  32.541  13.829   4.145
73737W        W46162  37.941  11.975  13.419
73738W        W46163  18.444  40.263  12.131
73739W        W46164  27.440  18.881   1.789
73740W        W46165  30.581  12.622   4.497
73741W        W46166  20.161  19.786  12.127
73742W        W46167  37.843  24.048   0.310
73743W        W46168  24.013  20.712  14.604
73744W        W46169   3.689  36.704   2.193
73745W        W46170  36.175  39.742   4.948
73746W        W46171  17.633  29.092   3.857
73747W        W46172  26.303  44.034   1.484
73748W        W46173  24.433  29.440   4.928
73749W        W46174  43.989  37.176  11.264
73750W        W46175  24.987  13.634  12.489
73751W        W46176  40.777  20.002  11.603
73752W        W46177  39.492  12.322  12.527
73753W        W46178   1.332  39.890   4.536
73754W        W46179  13.373  28.634  12.067
73755W        W46180  15.626  13.849   4.130
73756W        W46181   8.875   8.307  12.113
73757W        W46182   8.146  14.586  12.418
73758W        W46183  40.702  21.111  13.705
73759W        W46184   4.510   2.528  14.930
73760W        W46185   9.784  21.674   2.318
73761W        W46186  18.805  43.489   3.700
73762W        W46187  12.549  27.958  13.794
73763W        W46188   3.683  22.562   4.578
73764W        W46189   6.663  29.559   2.304
73765W        W46190  39.035   5.467  12.529
73766W        W46191  29.963  26.224  11.198
73767W        W46192  19.295   3.714   2.465
73768W        W46193   8.194   2.196  14.340
73769W        W46194  43.133  41.776  12.385
73770W        W46195  21.604  21.335  12.398
73771W        W46196   8.657   5.217  11.468
73772W        W46197  43.202  21.000  14.694
73773W        W46198  24.701  27.770  10.462
73774W        W46199  37.473  20.632   4.958
73775W        W46200  25.631   9.385   4.166
73776W        W46201   4.248  31.692  11.180
73777W        W46202  36.611  25.058  13.144
73778W        W46203  25.996  35.314  12.840
73779W        W46204  13.199  15.373  11.608
73780W        W46205  16.382  34.167  10.852
73781W        W46206  22.420   2.432  13.533
73782W        W46207  12.151  38.867  13.485
73783W        W46208   7.691  29.482  13.109
73784W        W46209  30.887  30.501   1.933
73785W        W46210  17.642  25.336  13.199
73786W        W46211  27.473   3.266  11.459
73787W        W46212  13.756  24.798  10.707
73788W        W46213   0.257   5.778   2.767
73789W        W46214  27.673   3.920  13.495
73790W        W46215   1.368  10.173   2.795
73791W        W46216  31.743  19.285   0.932
73792W        W46217  10.108   8.102  10.527
73793W        W46218  24.571  41.303  11.000
73794W        W46219   1.172  29.956  11.088
73795W        W46220  10.329   7.813   1.212
73796W        W46221  41.724  30.297  10.239
73797W        W46222  25.647  10.400   2.012
73798W        W46223  12.816  34.648   2.644
73799W        W46224   1.014  21.267   1.370
73800W        W46225  14.803  24.146  14.358
73801W        W46226  35.340  38.925   1.834
73802W        W46227  20.805  31.324   3.970
73803W        W46228   3.843  39.968  12.528
73804W        W46229  40.425   9.633  12.225
73805W        W46230   3.786  12.819   3.785
73806W        W46231   2.655   3.307  13.534
73807W        W46232  43.997  16.318   3.673
73808W        W46233  13.857  29.034   4.440
73809W        W46234  39.299   0.461   4.279
73810W        W46235  27.422   0.847   3.850
73811W        W46236   3.317  38.012  10.664
73812W        W46237  35.974   6.796  10.815
73813W        W46238  27.092  39.497  14.785
73814W        W46239  43.302   2.217   1.771
73815W        W46240   8.627  38.061   2.013
73816W        W46241  43.486  10.812   1.436
73817W        W46242  37.328  19.068  14.730
73818W        W46243  39.531   5.843   0.347
73819W        W46244  41.567  35.407  12.760
73820W        W46245  11.108  28.914  12.907
73821W        W46246   8.531   3.902   0.285
73822W        W46247  23.210  22.822  13.980
73823W        W46248   7.771  31.795  13.455
73824W        W46249   9.676  35.207   2.820
73825W        W46250   2.401  37.018  12.510
73826W        W46251  44.147  38.955  14.502
73827W        W46252  23.264  13.410   0.789
73828W        W46253   7.804  33.087   3.326
73829W        W46254  18.648   7.643   2.758
73830W        W46255   8.658  32.959  13.826
73831W        W46256  11.298  20.824   3.523
73832W        W46257  12.363  17.093   2.266
73833W        W46258  42.002  18.440  13.614
73834W        W46259  41.931  21.319   0.170
73835W        W46260   3.154  31.636   0.822
73836W        W46261  19.731  41.220  10.959
73837W        W46262  29.387  24.224   2.110
73838W        W46263  22.445  18.629   2.566
73839W        W46264  11.749  17.848  11.079
73840W        W46265  40.432  39.011  11.688
73841W        W46266  36.054  14.416   0.281
73842W        W46267  17.590  39.794  12.563
73843W        W46268  18.073  44.753  13.096
73844W        W46269  25.988  40.877  13.953
73845W        W46270  35.332  24.251  10.097
73846W        W46271  13.590  39.649  11.859
73847W        W46272  34.861   1.747   4.192
73848W        W46273  18.627  22.797  13.329
73849W        W46274  14.804  13.558   4.302
73850W        W46275   0.835   4.493  13.370
73851W        W46276  31.405   9.170   2.725
73852W        W46277  24.088  23.768   1.957
73853W        W46278  37.285  32.066  14.469
73854W        W46279  17.734   7.343   3.332
73855W        W46280   5.460  19.148  12.923
73856W        W46281  10.374  15.868   1.774
73857W        W46282  41.799  32.586   4.631
73858W        W46283  18.486   1.394   5.521
73859W        W46284  37.131  35.726   0.803
73860W        W46285  26.827  28.140  13.797
73861W        W46286  17.279  25.409   4.628
73862W        W46287  33.929  13.332   4.150
73863W        W46288  20.756  25.655   3.714
73864W        W46289  12.128  32.887  12.866
73865W        W46290  24.570   2.839  14.926
73866W        W46291  30.878   5.243   3.312
73867W        W46292  30.051  18.463  11.440
73868W        W46293  20.261  36.308   3.208
73869W        W46294  34.928  12.541  12.109
73870W        W46295  24.796  16.760  12.462
73871W        W46296  20.719  37.000   1.684
73872W        W46297  11.789  22.253  13.350
73873W        W46298   3.767  13.856  12.020
73874W        W46299   7.785   3.234   1.113
73875W        W46300  42.851   9.201  12.770
73876W        W46301  42.735  23.771  13.176
73877W        W46302  44.930  25.433  11.596
73878W        W46303  13.848  18.030   0.808
73879W        W46304  32.556  28.181   3.222
73880W        W46305  16.276  11.843  14.894
73881W        W46306  40.458   6.997  12.877
73882W        W46307   3.279   3.376   3.492
73883W        W46308  23.459  19.422   1.455
73884W        W46309   2.405  20.312   3.257
73885W        W46310  11.225   9.145  10.811
73886W        W46311  23.077   3.872  13.158
73887W        W46312   7.647   5.593   4.074
73888W        W46313  38.720  15.375  11.991
73889W        W46314  23.473  37.537   2.891
73890W        W46315  15.323  21.951   1.398
73891W        W46316   6.991  44.656   3.617
73892W        W46317  17.635  24.970  10.702
73893W        W46318  25.437  31.912   0.372
73894W        W46319  43.110   5.710   3.384
73895W        W46320  30.153  43.700  14.307
73896W        W46321  21.177  44.025   3.603
73897W        W46322  17.090   0.345  14.233
73898W        W46323   0.040   1.434  11.633
73899W        W46324  19.804  20.812  13.561
73900W        W46325  20.793  38.225   0.691
73901W        W46326  43.018  38.213   0.842
73902W        W46327  38.851   1.434  13.887
73903W        W46328   9.319  10.887   4.710
73904W        W46329  32.872  21.321  11.796
73905W        W46330  26.044  33.462  10.829
73906W        W46331  28.043  24.431   4.219
73907W        W46332  30.105  24.701   4.240
73908W        W46333  17.120   7.207  12.882
73909W        W46334  17.714   4.224   0.985
73910W        W46335  10.071  28.575   1.193
73911W        W46336  40.696  38.587  12.883
73912W        W46337  20.222  34.569  14.991
73913W        W46338   7.153  21.036  14.745
73914W        W46339   7.809   1.878  10.634
73915W        W46340  18.733   7.142   0.239
73916W        W46341   7.764  36.965  10.287
73917W        W46342   9.780  22.564   0.356
73918W        W46343  22.708  42.223   1.272
73919W        W46344  24.424  13.224   4.226
73920W        W46345  18.375   1.474   0.511
73921W        W46346  38.537  27.063  13.325
73922W        W46347  10.772  22.924  11.386
73923W        W46348   1.884  33.432   0.434
73924W        W46349  16.798   2.755  14.342
73925W        W46350   2.832  43.396   3.123
73926W        W46351  13.017   9.840  13.498
73927W        W46352  43.324  32.065  11.945
73928W        W46353  29.203  12.773   0.071
73929W        W46354  30.422  42.309   1.391
73930W        W46355  21.789  41.971  14.984
73931W        W46356  29.051  10.098   4.340
73932W        W46357  35.552  37.507  14.598
73933W        W46358  37.769   1.190  12.363
73934W        W46359  15.928  10.398  12.019
73935W        W46360  26.938  40.773   4.060
73936W        W46361  43.640  15.173   3.020
73937W        W46362  14.297   5.860   4.688
73938W        W46363   8.197  10.399  12.812
73939W        W46364  33.931  30.288   0.335
73940W        W46365  20.138  36.424  10.566
73941W        W46366  25.333  30.209  11.509
73942W        W46367   5.710  42.236  13.204
73943W        W46368   6.093  20.999   5.039
73944W        W46369  34.947   4.646  13.585
73945W        W46370  43.915  44.311   0.931
73946W        W46371  11.524   1.304   0.122
73947W        W46372  14.422  25.212   1.338
73948W        W46373   1.584  19.302  14.048
73949W        W46374  13.898  29.904   4.083
73950W        W46375   1.445  43.808   1.371
73951W        W46376  16.070  12.833  14.768
73952W        W46377  28.087   4.715  14.918
73953W        W46378  25.436   0.293  14.926
73954W        W46379   3.136  31.990  10.761
73955W        W46380  24.069  22.070   1.890
73956W        W46381   6.763  15.026   3.294
73957W        W46382  15.777  37.337  13.962
73958W        W46383  40.985  18.562   4.550
73959W        W46384  44.953  37.869   4.107
73960W        W46385  29.341  16.575   0.849
73961W        W46386   6.833  14.875  12.466
73962W        W46387  28.072  31.971   2.969
73963W        W46388  17.579  30.119   3.382
73964W        W46389   2.531  11.791   2.790
73965W        W46390  17.669  41.542   3.167
73966W        W46391  18.677   2.998  12.101
73967W        W46392  35.518  25.191  11.105
73968W        W46393  28.603  40.999  14.864
73969W        W46394  24.426  37.508  11.132
73970W        W46395  29.657  21.144   4.153
73971W        W46396   0.165  43.900   3.223
73972W        W46397  19.622  43.249  11.571
73973W        W46398  34.986  18.513  10.420
73974W        W46399  43.124  36.630   5.050
73975W        W46400  22.658  44.251   5.196
73976W        W46401   4.040  42.066  14.854
73977W        W46402  12.746  17.573  11.779
73978W        W46403  13.548  16.375  11.926
73979W        W46404  17.881  12.459  14.908
73980W        W46405   5.354  20.743   2.136
73981W        W46406  24.643   2.518   3.377
73982W        W46407   7.255  18.023  11.079
73983W        W46408  32.985  29.955  11.201
73984W        W46409  28.638  11.137   3.679
73985W        W46410  39.953  36.316   3.196
73986W        W46411  29.109  20.902  10.876
73987W        W46412  32.092  21.168   4.884
73988W        W46413  32.659   3.973   3.636
73989W        W46414  10.943   4.388   1.980
73990W        W46415  28.951  40.824   3.698
73991W        W46416  18.497   6.774  14.950
73992W        W46417  33.573  36.997  13.470
73993W        W46418  14.246   0.889   3.741
73994W        W46419  38.251  17.165  10.417
73995W        W46420  40.285  25.242   4.562
73996W        W46421  13.288  30.491   1.250
73997W        W46422  15.080  11.834   4.020
73998W        W46423  11.232   8.311   0.004
73999W        W46424  23.969  38.893  14.725
74000W        W46425  10.323  12.803  11.583
74001W        W46426  32.169  38.232  12.543
74002W        W46427  27.973  34.303   2.325
74003W        W46428  38.433  10.921  12.902
74004W        W46429   9.748  25.175   3.263
74005W        W46430  18.280   6.904   0.419
74006W        W46431  44.743  21.700  12.974
74007W        W46432   4.070  17.792  11.595
74008W        W46433  10.294   1.804  11.531
74009W        W46434  37.492  35.846   1.740
74010W        W46435  12.597  16.497   1.044
74011W        W46436  38.356  20.312   2.339
74012W        W46437  42.922  35.858  11.198
74013W        W46438  34.500  13.052   2.411
74014W        W46439  36.426   1.763  11.884
74015W        W46440  35.940   6.267  10.714
74016W        W46441   8.737  27.084   3.341
74017W        W46442  11.585  24.095  13.609
74018W        W46443  24.556   2.265   3.802
74019W        W46444   2.493  29.906  13.953
74020W        W46445  16.995   0.014   4.179
74021W        W46446  33.880  29.962   1.268
74022W        W46447  42.324  37.925   1.370
74023W        W46448  30.881  28.846  14.246
74024W        W46449   9.315  11.051   4.206
74025W        W46450  24.827   5.770   0.864
74026W        W46451  16.464   5.427   3.224
74027W        W46452  26.418  30.425  10.791
74028W        W46453  18.010  16.130   3.154
74029W        W46454   4.290  38.045  10.712
74030W        W46455  40.185  34.003   1.834
74031W        W46456  28.083  31.140  13.841
74032W        W46457  40.831   0.328  11.135
74033W        W46458   5.366  32.034   2.153
74034W        W46459  18.970  11.793   0.310
74035W        W46460  25.139  35.014   1.997
74036W        W46461  23.854   3.206  13.368
74037W        W46462  39.386  29.675  14.493
74038W        W46463  41.457  42.444   4.324
74039W        W46464   4.124  10.296  11.706
74040W        W46465  37.551  26.398   1.272
74041W        W46466   5.266  34.392   4.269
74042W        W46467  38.262  40.419  12.084
74043W        W46468  16.122  36.839   4.036
74044W        W46469  14.330  32.433  12.577
74045W        W46470  39.007  41.452   3.750
74046W        W46471  31.266  24.783  13.369
74047W        W46472   3.354  41.431   2.792
74048W        W46473   1.665  35.505  13.824
74049W        W46474  17.850  42.354  13.479
74050W        W46475  39.011   1.765   0.997
74051W        W46476  37.778  20.743  12.489
74052W        W46477   7.134  10.781   1.278
74053W        W46478  37.197  43.798   1.399
74054W        W46479   8.891  17.599   2.818
74055W        W46480   9.771  16.227  14.179
74056W        W46481  43.574  27.476   3.378
74057W        W46482  35.423  22.158  14.963
74058W        W46483  29.363  22.274  12.389
74059W        W46484  31.488  42.229   0.281
74060W        W46485  40.657  13.190  13.865
74061W        W46486  21.986  35.882  11.538
74062W        W46487  20.047  13.180  13.547
74063W        W46488   0.538  33.584  11.941
74064W        W46489   2.290  14.390  13.544
74065W        W46490   0.945  14.547   2.279
74066W        W46491   1.720   2.091  10.902
74067W        W46492  24.076  20.764   2.358
74068W        W46493  42.129  39.157  13.775
74069W        W46494  29.421  33.590  11.940
74070W        W46495  31.534  41.908   4.017
74071W        W46496   0.537   7.218   2.359
74072W        W46497  16.068  19.639   0.727
74073W        W46498  15.151  14.020   1.396
74074W        W46499  31.448  24.127  14.229
74075W        W46500  25.468  35.138  12.037
74076W        W46501  19.677   0.073  14.305
74077W        W46502   7.936   5.150  13.545
74078W        W46503  35.948   1.122  12.847
74079W        W46504  29.524  43.343  12.734
74080W        W46505   7.156  37.507   2.122
74081W        W46506  24.896   2.956   0.783
74082W        W46507  44.373  22.408  11.572
74083W        W46508  10.037   7.148   4.828
74084W        W46509  34.051  20.611   2.804
74085W        W46510  42.349  21.939  14.522
74086W        W46511  29.426  21.549  13.969
74087W        W46512  31.895  21.783  14.940
74088W        W46513   6.639  18.295   4.642
74089W        W46514  39.523  20.353  10.312
74090W        W46515  13.841  44.029   3.344
74091W        W46516  44.906  23.310   1.914
74092W        W46517  44.884  24.035  12.000
74093W        W46518   8.198  21.754  14.750
74094W        W46519  35.953   1.373   1.258
74095W        W46520  21.234  24.537   2.445
74096W        W46521  11.952  30.127   1.377
74097W        W46522  36.137  31.402  13.966
74098W        W46523  34.571  36.669  13.502
74099W        W46524  20.154  14.301  12.925
74100W        W46525  11.254  36.347   0.985
74101W        W46526   4.609  28.709  13.408
74102W        W46527  23.510  35.381   4.038
74103W        W46528  23.393  17.188  13.791
74104W        W46529   8.875  30.560   2.623
74105W        W46530  14.152  21.128  10.389
74106W        W46531  41.352  37.456   0.406
74107W        W46532  38.147   4.132  11.534
74108W        W46533  23.601   9.781   3.932
74109W        W46534   8.342  26.622   2.008
74110W        W46535  15.014   6.040   4.205
74111W        W46536  26.219  33.918  11.058
74112W        W46537  43.213   9.230  11.946
74113W        W46538  35.923  13.707   2.866
74114W        W46539  38.567  25.096   2.401
74115W        W46540  10.719  39.815   2.667
74116W        W46541   2.775  21.982   1.951
74117W        W46542  38.597  31.904   4.220
74118W        W46543  36.157  18.251   2.350
74119W        W46544  35.814  19.053   2.397
74120W        W46545  21.454  32.127   0.318
74121W        W46546  31.907  12.098  14.919
74122W        W46547  27.128   1.647  14.591
74123W        W46548  27.542  16.611   0.911
74124W        W46549  17.735   2.458  13.360
74125W        W46550  23.018  34.411   1.427
74126W        W46551  16.879  28.522   0.117
74127W        W46552  19.116  12.959  14.063
74128W        W46553  30.979  26.980  14.542
74129W        W46554  30.717   9.659  14.950
74130W        W46555  31.019  21.058   4.467
74131W        W46556  38.774  17.263  12.023
74132W        W46557  34.549  19.489   0.215
74133W        W46558   3.687  18.193   2.187
74134W        W46559  10.228  19.938   0.641
74135W        W46560   5.241  15.178  13.332
74136W        W46561   8.370  27.008  10.499
74137W        W46562  36.862   8.609  14.869
74138W        W46563  19.563  35.776   0.118
74139W        W46564  41.887  15.733   4.113
74140W        W46565  43.837  43.321   1.262
74141W        W46566  35.379  31.869  13.904
74142W        W46567  29.428  23.518   1.546
74143W        W46568  43.477  42.225  11.802
74144W        W46569  38.081  11.642   4.122
74145W        W46570  35.536  13.811  13.437
74146W        W46571  35.665  41.808  12.896
74147W        W46572  30.101  42.761  13.955
74148W        W46573  27.255  23.138   0.059
74149W        W46574   9.707   8.767   2.661
74150W        W46575  11.051  23.091  14.526
74151W        W46576   2.368  24.166  11.894
74152W        W46577  12.359  32.231   2.502
74153W        W46578  34.606  24.207   1.428
74154W        W46579  18.510  39.930   0.149
74155W        W46580  37.273  39.719  10.946
74156W        W46581  39.822   4.195   2.959
74157W        W46582  20.137  33.022  11.013
74158W        W46583  33.375  33.103   1.727
74159W        W46584  31.559   3.982   1.835
74160W        W46585  23.458   2.977  11.144
74161W        W46586  38.519  42.709  10.082
74162W        W46587  17.209  33.166   1.411
74163W        W46588  42.908  13.040  11.969
74164W        W46589   8.009  42.403   3.524
74165W        W46590  13.089  11.988  13.752
74166W        W46591  17.344  28.309   3.707
74167W        W46592   3.024  37.739   3.291
74168W        W46593  41.223  15.549   4.252
74169W        W46594   3.412  18.875  10.672
74170W        W46595   2.992  36.042   1.247
74171W        W46596  23.001  42.992   1.357
74172W        W46597  19.310  18.527   1.420
74173W        W46598  35.249  30.988   1.000
74174W        W46599  18.550   8.863   0.784
74175W        W46600   6.911  41.381  10.951
74176W        W46601  18.255  13.152   3.840
74177W        W46602  43.845  19.282  14.507
74178W        W46603  37.417  29.909   2.428
74179W        W46604  32.398  25.079   1.178
74180W        W46605   3.510  40.759   2.080
74181W        W46606  13.441   6.473   3.226
74182W        W46607  35.702  14.762  14.482
74183W        W46608  34.465  35.435   2.246
74184W        W46609  14.639  11.899   0.345
74185W        W46610  13.339  29.004   0.822
74186W        W46611   2.031  27.664  13.074
74187W        W46612  20.636  21.140   2.918
74188W        W46613  23.106  26.977   1.338
74189W        W46614  35.085  16.252  10.605
74190W        W46615  37.650   2.268   4.114
74191W        W46616  44.351  11.928  12.547
74192W        W46617  28.948  30.158  12.922
74193W        W46618  32.581   9.830   3.372
74194W        W46619  40.983   3.428   2.708
74195W        W46620  13.037  40.985   3.649
74196W        W46621  24.539  35.117  14.672
74197W        W46622  44.977  36.727   4.897
74198W        W46623  23.947   6.040  13.436
74199W        W46624  33.049  19.552   3.232
74200W        W46625   8.881  37.162   3.722
74201W        W46626   2.927  25.149   2.314
74202W        W46627  32.832  37.363   1.979
74203W        W46628  24.960   6.964   0.605
74204W        W46629  25.665   7.387  10.709
74205W        W46630   8.431  30.425  14.094
74206W        W46631  16.333  24.148   1.157
74207W        W46632  40.855  41.828   5.079
74208W        W46633   8.780  15.865   3.036
74209W        W46634   5.075   2.503  11.498
74210W        W46635  16.263  26.564   1.564
74211W        W46636  27.715  15.184  13.343
74212W        W46637   2.782  27.699   2.018
74213W        W46638  22.154  33.834  12.161
74214W        W46639  33.562  16.216   4.933
74215W        W46640  44.268  20.228  14.760
74216W        W46641   5.552  36.551  12.520
74217W        W46642  38.404   2.816  13.996
74218W        W46643  42.066   2.321  11.028
74219W        W46644  20.195  16.919  10.130
74220W        W46645  25.849   7.973   4.234
74221W        W46646   0.588  37.581  14.208
74222W        W46647  44.360  42.252  10.605
74223W        W46648  29.744  38.465  14.816
74224W        W46649  30.141   9.666  14.903
74225W        W46650   0.340  16.631   2.770
74226W        W46651  21.216   5.737   4.810
74227W        W46652  20.484  44.938   2.835
74228W        W46653   4.810  11.458  11.531
74229W        W46654  41.938   8.991   2.702
74230W        W46655   4.126  15.847  11.515
74231W        W46656  19.048  33.593   2.861
74232W        W46657  42.921   2.744   1.200
74233W        W46658  34.194  24.941   2.634
74234W        W46659   0.718  20.310  12.027
74235W        W46660  19.556  23.144  10.925
74236W        W46661   2.833  41.292   2.504
74237W        W46662  10.322  42.235   4.098
74238W        W46663  34.925  32.891  14.873
74239W        W46664  11.240   1.189   2.801
74240W        W46665  16.247  25.740   4.054
74241W        W46666   6.137  22.945   3.253
74242W        W46667   1.201  37.389  10.747
74243W        W46668  34.652  10.839   2.197
74244W        W46669   3.739  12.493  12.451
74245W        W46670  44.308  22.725   1.289
74246W        W46671  35.829  22.477  11.084
74247W        W46672  36.802  21.010   4.266
74248W        W46673  23.750  17.730  12.612
74249W        W46674   4.527  23.922   4.150
74250W        W46675  38.665  40.379   1.946
74251W        W46676  11.196  18.860  10.700
74252W        W46677  18.085  13.369   4.275
74253W        W46678  17.505  22.623  11.950
74254W        W46679  33.568  37.577  12.932
74255W        W46680  19.985  22.821   4.878
74256W        W46681  36.546  33.307  12.942
74257W        W46682   3.966  44.819  11.930
74258W        W46683  18.500  13.846  11.918
74259W        W46684   2.417  41.335  14.914
74260W        W46685   8.693  14.257   0.016
74261W        W46686   9.244  13.132  11.504
74262W        W46687  40.924  24.122   0.428
74263W        W46688   2.877  27.148  12.975
74264W        W46689  36.702  44.532   4.558
74265W        W46690  38.917  10.199  10.563
74266W        W46691  25.801   7.132  12.033
74267W        W46692  43.419  18.242  12.433
74268W        W46693  30.876  22.103   2.830
74269W        W46694  21.965  43.920   0.507
74270W        W46695   8.359  19.943   1.996
74271W        W46696  25.203  23.834   2.714
74272W        W46697  34.429  33.652   2.853
74273W        W46698  42.387  24.313   4.632
74274W        W46699  39.567  25.144   1.437
74275W        W46700  43.414   9.789   4.536
74276W        W46701  14.807  32.578   4.725
74277W        W46702  14.316  17.333  12.896
74278W        W46703  16.080  43.686   0.259
74279W        W46704  43.340  29.412  13.454
74280W        W46705  16.019  12.857   4.137
74281W        W46706   6.400  26.691  12.894
74282W        W46707   9.593  40.862   1.725
74283W        W46708  13.695  38.398   4.416
74284W        W46709  29.509  41.586   2.448
74285W        W46710  26.468  12.620  10.211
74286W        W46711  35.116   0.912   1.260
74287W        W46712  25.149  10.315   3.727
74288W        W46713  40.198  37.213  13.356
74289W        W46714   8.681  13.841   0.355
74290W        W46715   7.271  44.681  13.886
74291W        W46716   7.796   3.960  14.710
74292W        W46717  23.995  23.920  11.101
74293W        W46718  27.014  23.766  11.178
74294W        W46719  44.762  14.255  11.528
74295W        W46720   7.664  22.150   1.830
74296W        W46721  11.333  13.119   2.779
74297W        W46722   2.049  18.634  12.116
74298W        W46723  18.011  15.985   2.300
74299W        W46724  24.524  44.536   1.819
74300W        W46725  23.003  10.086  12.979
74301W        W46726   9.721  23.996  13.705
74302W        W46727  34.647   8.478  10.644
74303W        W46728  32.391   8.787  13.045
74304W        W46729   8.422  43.282  14.110
74305W        W46730  39.389  21.026  14.917
74306W        W46731   3.445  35.653  12.459
74307W        W46732   7.899  34.450  14.109
74308W        W46733  34.895   3.283   0.228
74309W        W46734  10.650  32.236   4.367
74310W        W46735  33.299  11.371  13.070
74311W        W46736  29.083  43.472  12.477
74312W        W46737  26.584  10.376   4.708
74313W        W46738   0.927  15.775   1.910
74314W        W46739  18.649  28.507   4.511
74315W        W46740   3.882  28.061  11.430
74316W        W46741  24.123  32.023  12.858
74317W        W46742  19.612  35.442  11.803
74318W        W46743  12.901  20.957   0.764
74319W        W46744  33.388  37.986  13.183
74320W        W46745  11.680  36.304   2.867
74321W        W46746  18.644  44.768  12.441
74322W        W46747   8.266  10.191  10.247
74323W        W46748   5.761  24.527   3.643
74324W        W46749   1.476  12.317  14.892
74325W        W46750  40.246   8.118  13.613
74326W        W46751  42.052   5.176  10.694
74327W        W46752   6.220  44.807  12.927
74328W        W46753  43.147   4.693   2.798
74329W        W46754  39.867  43.581   3.899
74330W        W46755  26.601  30.118   4.932
74331W        W46756  15.070  10.607   0.315
74332W        W46757  40.229  32.690  13.873
74333W        W46758  22.411   2.779  11.158
74334W        W46759   2.822  17.796  10.418
74335W        W46760  22.172  24.640  10.666
74336W        W46761  11.540  43.423   4.537
74337W        W46762  39.435  22.020  12.638
74338W        W46763  40.007  11.301  14.763
74339W        W46764   4.339  43.946   3.241
74340W        W46765  43.433  44.485   2.258
74341W        W46766   3.902   8.724  10.754
74342W        W46767  37.712  16.078   4.058
74343W        W46768  19.129   9.627  12.506
74344W        W46769  26.442  14.504  13.915
74345W        W46770  34.065  19.500  13.972
74346W        W46771  10.222  40.511  13.767
74347W        W46772  14.407  22.098   0.687
74348W        W46773   8.480  28.048  13.906
74349W        W46774  22.700  23.107   2.712
74350W        W46775   0.069  32.748  11.026
74351W        W46776  38.830  21.623  12.054
74352W        W46777  28.776   7.720   0.410
74353W        W46778   2.779  26.223   4.001
74354W        W46779  23.946  37.922  12.393
74355W        W46780   8.289  41.061   1.815
74356W        W46781  35.573   9.649   0.504
74357W        W46782   1.513   8.455  10.840
74358W        W46783  20.566  10.414  10.172
74359W        W46784  39.927  26.497   4.937
74360W        W46785  18.332  34.455   1.827
74361W        W46786  34.513  43.337   0.262
74362W        W46787  17.786  36.830  11.136
74363W        W46788  31.992  16.698  13.884
74364W        W46789  34.365  20.820   4.125
74365W        W46790  27.128  22.998  12.627
74366W        W46791  34.929   2.404   3.279
74367W        W46792  12.926  41.762  13.565
74368W        W46793  25.283  37.540  11.602
74369W        W46794  16.340  16.219  10.730
74370W        W46795  21.201  23.648   0.845
74371W        W46796  24.727  40.081   3.017
74372W        W46797  27.780  23.634   3.611
74373W        W46798   7.261  38.960   4.605
74374W        W46799  42.857   8.383  10.764
74375W        W46800   3.205  34.906   4.600
74376W        W46801  29.270  11.202   2.284
74377W        W46802  15.108  30.921  11.914
74378W        W46803   1.231   6.808   0.923
74379W        W46804  25.139  17.704   2.181
74380W        W46805  20.670  24.620   3.795
74381W        W46806  40.069  17.038   0.878
74382W        W46807  18.820  34.931   0.039
74383W        W46808   8.853  10.837  10.762
74384W        W46809  21.741  13.546   1.675
74385W        W46810  20.629  15.113   1.058
74386W        W46811  22.500  27.490  14.529
74387W        W46812  21.999  21.068   1.794
74388W        W46813  37.984  43.871  11.086
74389W        W46814  14.140   7.064  14.891
74390W        W46815   4.572  11.906   2.755
74391W        W46816  40.795  13.041  11.149
74392W        W46817  11.349   8.772  11.577
74393W        W46818  17.587  36.800   4.531
74394W        W46819  23.933   0.840   2.748
74395W        W46820  15.502   9.200   2.704
74396W        W46821   9.120  21.562  10.997
74397W        W46822  17.665  18.124   3.018
74398W        W46823  11.039   7.401  10.177
74399W        W46824   3.210  27.707   3.037
74400W        W46825  20.305  13.118  14.711
74401W        W46826  29.837   3.847   1.267
74402W        W46827  12.443   9.356  10.580
74403W        W46828  10.818  33.031  13.967
74404W        W46829  22.719  22.078   2.166
74405W        W46830  23.001   6.440   1.643
74406W        W46831   6.914  17.248  10.660
74407W        W46832  35.503  33.430   2.376
74408W        W46833  22.209  20.212  13.936
74409W        W46834  13.276  24.952  11.933
74410W        W46835  26.468  39.754   4.249
74411W        W46836  39.254  43.766  10.112
74412W        W46837  13.697  38.441   1.954
74413W        W46838  13.323  19.096   3.621
74414W        W46839   9.596  14.671  14.281
74415W        W46840  14.713   0.290   2.766
74416W        W46841  38.831   4.151   3.342
74417W        W46842  10.738  25.198   4.281
74418W        W46843  30.731  30.080   0.761
74419W        W46844   3.726  28.189   4.194
74420W        W46845  10.868   7.153  10.701
74421W        W46846  22.091  17.675   3.271
74422W        W46847   0.751  37.443   2.674
74423W        W46848  36.999   1.002   2.435
74424W        W46849  20.529  39.735   2.867
74425W        W46850  17.644  10.436  12.247
74426W        W46851  34.886  42.635   4.480
74427W        W46852   7.944  34.591   9.788
74428W        W46853   2.889  33.933  11.651
74429W        W46854  18.664  33.785  13.931
74430W        W46855  12.811  12.655  14.426
74431W        W46856   5.354  24.304  14.988
74432W        W46857  23.622  20.222  12.625
74433W        W46858  41.503  17.672   2.751
74434W        W46859  30.569  25.666  12.904
74435W        W46860  13.325  18.236   4.157
74436W        W46861  36.659   2.493   0.363
74437W        W46862   2.187  39.836   1.177
74438W        W46863  18.555  13.766  10.577
74439W        W46864  13.051  14.670  12.352
74440W        W46865  43.816  44.852   2.091
74441W        W46866  35.018  30.630  10.664
74442W        W46867  43.498  33.668   3.237
74443W        W46868  24.995  36.505  12.097
74444W        W46869  33.881   1.839  14.420
74445W        W46870  18.362  29.241   5.390
74446W        W46871  20.283  34.767  12.208
74447W        W46872  15.168  19.870   0.251
74448W        W46873  24.312  23.764   1.096
74449W        W46874   6.285  44.823   3.169
74450W        W46875  20.573   2.248  12.919
74451W        W46876  39.349   1.598   1.428
74452W        W46877  24.468   0.687   0.639
74453W        W46878  27.155  43.374  11.484
74454W        W46879  16.923  20.239   1.835
74455W        W46880  20.458  23.071   3.256
74456W        W46881   9.764  18.553   3.351
74457W        W46882  25.110  10.668  11.713
74458W        W46883  13.154  43.695   2.634
74459W        W46884   8.844  36.250   0.823
74460W        W46885   0.882  19.105   1.817
74461W        W46886  22.639  16.849  12.653
74462W        W46887  42.141  44.558   3.627
74463W        W46888  29.870  27.671  13.538
74464W        W46889   6.528  30.125  14.960
74465W        W46890  42.597   0.473  13.984
74466W        W46891  15.803  14.631  11.116
74467W        W46892  19.708  17.413   3.767
74468W        W46893  13.691  10.949   1.018
74469W        W46894  29.101  27.069  13.956
74470W        W46895   5.748  10.801   4.609
74471W        W46896  41.868  23.922  10.662
74472W        W46897  10.892  14.484   0.204
74473W        W46898  32.366  44.396  14.564
74474W        W46899   9.184  19.394  13.583
74475W        W46900  21.667  34.355   4.167
74476W        W46901  32.422  28.405  11.700
74477W        W46902  31.018  41.750  11.121
74478W        W46903  43.105  32.716  14.762
74479W        W46904  24.568  19.694   4.485
74480W        W46905   7.605  18.469  11.119
74481W        W46906  21.176  38.238   2.258
74482W        W46907  44.895  40.058   1.979
74483W        W46908  25.239  18.370  10.199
74484W        W46909  11.075  29.510   0.327
74485W        W46910  11.707  15.577   1.198
74486W        W46911  22.802  26.188   4.199
74487W        W46912  28.431   4.916  11.230
74488W        W46913  40.799   4.235  12.996
74489W        W46914  25.268   5.342  11.010
74490W        W46915  43.495  23.287  14.500
74491W        W46916   6.780  44.694  14.054
74492W        W46917  21.300  22.310   4.805
74493W        W46918  23.408  20.781  10.520
74494W        W46919  35.893   4.204  13.592
74495W        W46920  12.080  43.825  12.967
74496W        W46921   5.439   6.709   1.522
74497W        W46922  13.955  21.086  13.096
74498W        W46923  42.747   4.762  14.900
74499W        W46924  38.746  12.170   0.339
74500W        W46925  37.594  42.041   2.391
74501W        W46926  18.186  38.371  14.658
74502W        W46927  34.652  37.411   4.697
74503W        W46928   4.744   4.003   4.683
74504W        W46929  28.636  28.167   0.817
74505W        W46930  27.639  32.224  14.391
74506W        W46931  38.678  43.874  11.659
74507W        W46932  21.348   0.553  11.965
74508W        W46933  41.971  29.530  11.133
74509W        W46934  30.649   2.852  14.763
74510W        W46935  37.327  38.555   1.309
74511W        W46936  14.351  44.006  11.167
74512W        W46937  29.886  26.615   3.283
74513W        W46938   6.767  39.055  12.868
74514W        W46939   8.363  19.505  11.962
74515W        W46940  31.550  16.627   2.136
74516W        W46941  36.796  28.572  11.163
74517W        W46942   7.974  37.309  13.035
74518W        W46943  41.304  30.714  11.439
74519W        W46944   6.601   5.638  11.936
74520W        W46945  42.464  34.913   0.360
74521W        W46946   8.343   0.004  14.819
74522W        W46947   5.438   3.449   4.552
74523W        W46948  37.493  13.593   1.726
74524W        W46949  19.013   9.430  12.967
74525W        W46950  29.648   0.489  12.742
74526W        W46951  10.271  10.868   3.362
74527W        W46952  21.479  40.922  13.145
74528W        W46953   9.108  31.132  13.429
74529W        W46954   4.281  17.060  11.067
74530W        W46955  21.604  11.750  10.084
74531W        W46956  20.303  39.711   4.311
74532W        W46957  39.227  11.825  11.147
74533W        W46958  22.926  36.558   0.917
74534W        W46959   4.196  15.176   4.276
74535W        W46960  35.022  14.672   1.597
74536W        W46961   4.903  32.909   1.257
74537W        W46962   2.519  16.400   1.958
74538W        W46963  24.805  12.692  12.415
74539W        W46964  24.940  22.965   3.137
74540W        W46965  35.417  19.605  13.895
74541W        W46966  37.563  43.449  12.924
74542W        W46967  29.432   3.155   3.230
74543W        W46968   8.484   6.687   3.109
74544W        W46969  42.315   9.827  12.534
74545W        W46970  31.479  25.718   3.700
74546W        W46971  27.482   3.878   4.178
74547W        W46972  36.123  39.692   0.222
74548W        W46973  11.418  31.073  13.894
74549W        W46974   8.743   4.888   3.736
74550W        W46975  38.114  21.337  14.174
74551W        W46976   7.308  26.041  10.922
74552W        W46977  11.422   7.614   2.311
74553W        W46978  30.110  31.893  14.912
74554W        W46979  28.600  18.695   0.963
74555W        W46980  39.156  44.976  14.854
74556W        W46981   7.922  16.237   2.578
74557W        W46982  28.416  25.549   0.443
74558W        W46983  33.241  38.219   0.936
74559W        W46984  31.413  23.566   0.063
74560W        W46985  25.089  33.225   4.690
74561W        W46986  42.579  10.792   4.958
74562W        W46987   8.229   8.158  10.261
74563W        W46988   0.063  29.427  11.773
74564W        W46989  36.238  28.573  12.378
74565W        W46990  23.603  30.039  13.998
74566W        W46991  12.066  25.628  14.337
74567W        W46992  36.993  39.058   0.801
74568W        W46993  39.950  23.645  12.838
74569W        W46994  10.299   4.964   2.937
74570W        W46995  41.865  32.502  14.583
74571W        W46996   2.708  24.090  11.524
74572W        W46997  37.112  11.283   1.050
74573W        W46998  42.810   6.865   4.629
74574W        W46999  14.280   2.523  11.577
74575W        W47000  13.827  33.894  13.435
74576W        W47001  19.448  13.807   0.510
74577W        W47002  29.948  16.804   0.452
74578W        W47003  36.516  17.370  12.082
74579W        W47004  14.295  32.490   4.642
74580W        W47005  15.863  30.412   3.380
74581W        W47006  35.050   6.329  10.910
74582W        W47007  25.062  37.197   1.882
74583W        W47008  20.331  32.346   4.810
74584W        W47009  40.597  33.892  12.661
74585W        W47010  27.421   5.735   0.742
74586W        W47011   7.420  24.447  14.789
74587W        W47012  17.641   9.858   4.793
74588W        W47013   0.866  20.678  14.435
74589W        W47014   8.185  31.940  14.062
74590W        W47015   1.504  20.737  12.722
74591W        W47016  29.902   9.649   1.348
74592W        W47017  35.458  32.111   3.747
74593W        W47018  25.106  32.968  13.067
74594W        W47019  26.213  12.590   1.863
74595W        W47020  32.324   8.431   2.755
74596W        W47021  21.587   2.546  11.510
74597W        W47022  29.705   4.780   3.275
74598W        W47023  43.246  29.986   2.233
74599W        W47024  27.146  19.500   4.602
74600W        W47025  42.720  17.382   3.185
74601W        W47026  34.909   9.130   2.818
74602W        W47027  36.320  39.588   1.138
74603W        W47028  44.628   4.273   4.147
74604W        W47029  33.459  42.920  13.832
74605W        W47030  41.044  41.222   1.155
74606W        W47031   0.935  30.927   0.066
74607W        W47032  18.286   4.398   0.663
74608W        W47033  35.639   9.347   4.466
74609W        W47034  30.891  36.266  14.785
74610W        W47035   7.765   7.671   1.351
74611W        W47036  27.406   5.182  12.820
74612W        W47037  39.687   4.384   1.221
74613W        W47038  29.366   4.520   2.343
74614W        W47039  22.625  12.720   1.453
74615W        W47040  43.954  20.270  13.573
74616W        W47041  24.016  10.113  14.376
74617W        W47042  20.157  20.484   0.801
74618W        W47043  43.400   5.235   1.616
74619W        W47044   3.421  43.847   2.367
74620W        W47045  17.784  23.064  13.041
74621W        W47046  43.964   5.243  14.922
74622W        W47047  38.523  17.626   0.350
74623W        W47048  44.453  35.700  13.771
74624W        W47049  44.063  17.067   2.835
74625W        W47050   4.413  31.374  14.261
74626W        W47051  21.294  13.646   1.426
74627W        W47052  33.120   8.178  14.022
74628W        W47053  32.663  33.068   4.055
74629W        W47054   5.960  25.638   0.544
74630W        W47055   4.216   4.114  11.965
74631W        W47056  27.382   9.382   0.257
74632W        W47057   2.258  37.871   1.358
74633W        W47058  27.420   2.404   0.386
74634W        W47059  22.804   9.163   9.688
74635W        W47060  43.428  38.187  11.642
74636W        W47061  11.763   4.394   2.305
74637W        W47062  30.613  19.737  14.097
74638W        W47063  26.087  15.126   2.376
74639W        W47064  18.192   8.611  11.654
74640W        W47065  14.342  39.566   0.863
74641W        W47066   2.161  32.695   0.800
74642W        W47067  17.723  12.315   0.446
74643W        W47068   2.203  35.906  14.883
74644W        W47069  44.026  24.979   4.590
74645W        W47070  39.776  22.504   3.158
74646W        W47071   2.021  19.025  10.724
74647W        W47072  16.010  33.054  14.844
74648W        W47073   5.416   7.367   0.140
74649W        W47074  42.052  14.544  13.886
74650W        W47075  30.511  43.217   0.355
74651W        W47076  24.671   0.941  14.796
74652W        W47077  30.642  25.240   5.021
74653W        W47078  34.480   4.310  13.211
74654W        W47079  33.597   9.061   4.992
74655W        W47080  28.573   0.032  13.877
74656W        W47081  42.899  11.878   5.114
74657W        W47082  18.832  16.003   2.003
74658W        W47083  13.744  24.438  12.501
74659W        W47084  15.534   3.419   3.646
74660W        W47085  33.138   8.876   1.645
74661W        W47086  32.441  33.487   3.845
74662W        W47087  36.816  26.123  13.858
74663W        W47088  18.634  25.240  14.789
74664W        W47089  21.088  34.012   3.827
74665W        W47090  20.462  44.732  14.703
74666W        W47091   4.431   5.243   1.308
74667W        W47092  18.107   5.694  10.986
74668W        W47093   5.135  18.828  12.021
74669W        W47094  30.273   1.917   1.287
74670W        W47095   6.127   6.319   2.915
74671W        W47096  42.886  29.624   4.141
74672W        W47097  26.059  24.926   2.278
74673W        W47098  42.252   0.336  12.069
74674W        W47099  30.525  21.548  11.964
74675W        W47100  38.190  11.035   1.789
74676W        W47101  25.488  12.221  13.336
74677W        W47102  18.312  21.979  14.765
74678W        W47103  24.985  17.488  11.881
74679W        W47104  44.475  41.080   4.001
74680W        W47105  25.016   3.209  14.403
74681W        W47106  11.318  16.706  14.368
74682W        W47107  15.130  10.877  11.379
74683W        W47108  31.424  43.853  11.639
74684W        W47109  27.144  16.263  10.686
74685W        W47110  31.071  17.173  14.656
74686W        W47111   2.949  15.140  13.803
74687W        W47112  24.204  15.154  13.887
74688W        W47113  30.056   2.316  13.438
74689W        W47114  21.940  29.371   3.815
74690W        W47115  27.467   8.219   1.608
74691W        W47116  26.604   8.449  14.587
74692W        W47117  41.366  10.731  11.053
74693W        W47118   9.693  22.798  14.876
74694W        W47119  11.469  31.279   2.381
74695W        W47120  41.890  42.677   4.593
74696W        W47121  36.483  27.574  10.740
74697W        W47122  26.888  23.646   4.551
74698W        W47123  17.273  14.295  12.797
74699W        W47124   9.126   8.122   5.485
74700W        W47125  20.643  24.152   2.006
74701W        W47126  21.781  14.311  13.002
74702W        W47127  26.513  26.992   1.301
74703W        W47128   1.444  39.424   0.710
74704W        W47129  40.797  16.278   4.549
74705W        W47130   4.728  34.381   1.323
74706W        W47131   7.960  36.364  12.885
74707W        W47132  10.704   2.367  13.846
74708W        W47133  11.895  33.585   3.657
74709W        W47134  28.390  30.616   2.843
74710W        W47135  44.931  12.168  13.354
74711W        W47136  31.480  41.117   1.759
74712W        W47137   9.042  31.899   3.661
74713W        W47138  33.247  35.376  11.647
74714W        W47139  16.807  19.740   3.621
74715W        W47140  42.220  43.131  10.464
74716W        W47141  15.469  14.588   4.622
74717W        W47142  13.235   3.845  13.994
74718W        W47143  12.751   1.346   0.926
74719W        W47144   9.185   2.367  14.418
74720W        W47145  19.178  16.062   1.387
74721W        W47146  19.739  22.028  10.606
74722W        W47147  36.420  26.082   5.170
74723W        W47148  12.441   7.118   2.235
74724W        W47149   7.601  42.733   5.214
74725W        W47150  22.111   7.640   3.806
74726W        W47151  23.563  16.229   2.177
74727W        W47152   3.950  32.311   4.380
74728W        W47153  34.567  25.542  11.026
74729W        W47154  44.466   8.644   4.662
74730W        W47155  34.454  15.108  13.964
74731W        W47156  44.665   9.860  12.271
74732W        W47157  42.620   5.373   2.528
74733W        W47158  16.844   9.209  14.838
74734W        W47159   7.312  19.022  12.048
74735W        W47160  25.178  36.478   4.884
74736W        W47161  36.318  18.357  10.562
74737W        W47162  38.422  24.080  11.559
74738W        W47163  21.456  33.914  14.861
74739W        W47164  43.274  30.310  12.508
74740W        W47165  27.206  20.303  11.690
74741W        W47166  16.636  17.206   1.872
74742W        W47167   5.768   7.167   0.886
74743W        W47168  11.795  19.685  10.831
74744W        W47169  42.852   2.270  13.792
74745W        W47170  17.233   5.125  12.388
74746W        W47171  27.975  10.886  14.441
74747W        W47172  12.414  25.508   1.161
74748W        W47173  27.966  43.704   2.613
74749W        W47174  28.187   6.701  14.720
74750W        W47175  13.769  39.550  13.233
74751W        W47176  28.106  32.653   4.164
74752W        W47177  41.006  11.300  10.688
74753W        W47178  37.015  44.199   4.237
74754W        W47179   6.375   7.295  14.836
74755W        W47180  33.963  21.497  13.981
74756W        W47181   1.922  37.295  14.041
74757W        W47182   9.315  17.476  11.132
74758W        W47183  32.620  29.939   0.715
74759W        W47184   2.804  21.495   1.204
74760W        W47185   0.632  32.071   5.101
74761W        W47186  34.220  18.895   2.208
74762W        W47187  44.505  38.602   0.922
74763W        W47188  18.370  21.004  13.509
74764W        W47189   9.578  28.431  11.424
74765W        W47190   6.691  20.799  11.985
74766W        W47191  26.274  28.035   1.323
74767W        W47192  27.391  31.988   1.684
74768W        W47193  35.169  19.900  13.539
74769W        W47194  29.492  35.361  12.934
74770W        W47195   7.274  43.459   1.877
74771W        W47196  15.462  17.162  11.359
74772W        W47197  25.691  40.542   0.247
74773W        W47198  38.883  27.663   1.107
74774W        W47199   3.509   1.417  11.951
74775W        W47200  38.719  15.308   2.930
74776W        W47201  32.660  34.801  13.379
74777W        W47202   2.303  17.082   5.011
74778W        W47203   3.813   3.260  10.303
74779W        W47204  20.256  24.655   2.275
74780W        W47205   5.196  33.468   4.627
74781W        W47206  28.666  41.510   1.990
74782W        W47207  31.094  37.321  10.125
74783W        W47208  29.593  27.968  14.244
74784W        W47209   2.306  29.608  10.840
74785W        W47210  42.786  41.025  14.544
74786W        W47211  37.656  43.896  11.510
74787W        W47212  34.437  39.894   3.209
74788W        W47213   6.289   1.463  11.872
74789W        W47214  16.492  21.334  13.369
74790W        W47215  43.330  12.150  12.134
74791W        W47216  42.548  38.320  13.611
74792W        W47217  12.196  43.352   1.059
74793W        W47218   9.192  24.011  12.388
74794W        W47219  24.362  41.972   3.289
74795W        W47220  27.643   6.728  12.215
74796W        W47221   8.446  13.694  13.301
74797W        W47222  12.764  17.594  12.295
74798W        W47223   0.995  41.898   1.466
74799W        W47224  18.544   4.225  12.536
74800W        W47225  12.272   6.167  14.913
74801W        W47226  27.019   0.973  12.319
74802W        W47227  36.256  12.800  12.904
74803W        W47228  16.543  31.882  11.637
74804W        W47229  13.827   2.377  13.510
74805W        W47230   6.748  30.207   3.660
74806W        W47231   2.213   4.932  14.735
74807W        W47232  32.092  37.972  11.198
74808W        W47233  11.810  31.132   1.198
74809W        W47234  33.239   6.252  10.473
74810W        W47235  12.744  37.005   0.731
74811W        W47236  38.088   3.276   4.617
74812W        W47237  16.576  28.209  12.434
74813W        W47238  21.823   0.726  14.930
74814W        W47239  41.976  33.997   2.393
74815W        W47240  21.620  13.292   4.602
74816W        W47241  20.689  13.827  13.493
74817W        W47242  26.996  21.221  14.768
74818W        W47243  30.972  44.300   4.348
74819W        W47244  13.172   1.268  12.532
74820W        W47245  32.032  15.757   4.762
74821W        W47246  21.326  40.161  11.566
74822W        W47247  32.380  21.148  13.427
74823W        W47248  32.036  16.789   0.270
74824W        W47249   1.659   4.640  11.177
74825W        W47250  21.176  13.908   3.450
74826W        W47251   0.265  24.612   2.175
74827W        W47252  41.908   6.605  12.880
74828W        W47253  34.711  22.638   0.296
74829W        W47254  41.288  42.048  13.992
74830W        W47255  10.026  21.573  12.443
74831W        W47256  42.829  15.602  14.235
74832W        W47257  33.831   7.339   2.109
74833W        W47258  44.965  24.320   4.606
74834W        W47259  11.852  21.781   4.304
74835W        W47260  18.325  39.955  12.970
74836W        W47261  22.533  22.503   0.013
74837W        W47262  25.009  21.748  14.070
74838W        W47263  25.806  19.228   2.685
74839W        W47264  12.448  12.231  11.211
74840W        W47265  28.023  26.052  13.339
74841W        W47266   0.099  18.740   2.295
74842W        W47267  43.310  16.810  13.936
74843W        W47268  42.009   7.664  12.885
74844W        W47269  27.094  10.574  14.930
74845W        W47270  29.233   6.173   2.766
74846W        W47271  31.648  25.104   0.674
74847W        W47272   5.755  41.410  12.705
74848W        W47273  44.204   2.372  12.843
74849W        W47274  11.126  37.518  12.517
74850W        W47275  39.084  23.445  13.251
74851W        W47276  35.967  35.891  12.623
74852W        W47277  41.835   2.665   0.063
74853W        W47278  42.929  33.013   3.045
74854W        W47279   4.563   3.668  13.892
74855W        W47280  17.800  40.441   3.194
74856W        W47281  33.877  21.175  10.696
74857W        W47282  41.543  38.015   3.250
74858W        W47283  20.564  17.103  10.476
74859W        W47284  37.877   7.149  11.875
74860W        W47285  16.285   4.572  10.709
74861W        W47286  39.348  20.499   3.183
74862W        W47287  24.525  42.250  14.051
74863W        W47288  19.850  38.512   2.700
74864W        W47289  42.649  43.411  12.604
74865W        W47290  14.518  43.166  11.462
74866W        W47291  28.403  10.799  12.902
74867W        W47292  28.102  32.388   2.633
74868W        W47293  30.988   9.793   2.842
74869W        W47294  26.980  29.657   0.798
74870W        W47295  10.240  29.631  12.550
74871W        W47296  43.355  30.903   4.794
74872W        W47297   1.474  43.237  12.517
74873W        W47298  29.679  38.629   4.127
74874W        W47299   7.875   5.232   4.642
74875W        W47300  37.331   7.154   3.738
74876W        W47301   6.158  12.375  13.923
74877W        W47302   2.736   2.259   0.542
74878W        W47303  44.333  38.285   2.705
74879W        W47304  39.328  19.637  13.896
74880W        W47305  16.453  33.477  13.415
74881W        W47306  26.974  22.043   2.218
74882W        W47307  11.841  10.213  13.853
74883W        W47308  32.641  29.667  12.008
74884W        W47309  36.923  23.579  12.628
74885W        W47310  42.392  26.658  10.425
74886W        W47311   1.223  38.399   2.410
74887W        W47312  41.540  36.426  14.685
74888W        W47313  30.660  36.052  11.962
74889W        W47314  10.099   8.151  13.813
74890W        W47315  42.015  21.078  13.874
74891W        W47316   1.924  35.576   1.817
74892W        W47317  43.576   6.781   2.332
74893W        W47318  44.471  11.804   1.166
74894W        W47319  21.141   6.192   0.055
74895W        W47320  35.942  12.221  10.625
74896W        W47321  39.564  40.126   0.374
74897W        W47322  20.100  43.013  14.725
74898W        W47323   9.445  40.930   1.011
74899W        W47324  17.746  13.226  11.988
74900W        W47325   0.467  43.666  11.119
74901W        W47326  29.993   5.452   3.680
74902W        W47327  36.509  23.384   2.651
74903W        W47328  23.095  27.512  11.432
74904W        W47329  34.553   5.323   4.882
74905W        W47330   0.742  28.953  14.394
74906W        W47331  18.251  31.150   2.821
74907W        W47332   8.304  41.534  12.147
74908W        W47333  10.542  35.749   3.897
74909W        W47334   0.527  12.328   3.102
74910W        W47335  14.779  13.882   2.691
74911W        W47336  31.338  32.990  13.374
74912W        W47337  12.016  19.746  11.610
74913W        W47338  22.194  12.993  12.937
74914W        W47339   2.220  12.187   0.823
74915W        W47340  43.224  38.776  10.668
74916W        W47341  28.169   9.148   0.480
74917W        W47342  17.231  21.019   5.312
74918W        W47343  12.123  26.541  14.540
74919W        W47344   0.422  21.558   1.807
74920W        W47345  41.910  19.096  12.661
74921W        W47346  17.060  31.973   3.737
74922W        W47347  12.129  42.946   0.733
74923W        W47348   8.936  29.554  13.388
74924W        W47349   4.864  13.657   0.966
74925W        W47350  43.009  38.870  11.152
74926W        W47351  37.927  10.084  12.960
74927W        W47352  17.962   2.908   4.691
74928W        W47353  33.382  18.562   2.302
74929W        W47354   5.737  40.087   3.815
74930W        W47355  24.171  34.914  11.542
74931W        W47356  21.987  20.517  11.996
74932W        W47357  32.679   3.801  10.697
74933W        W47358  21.943  35.977   3.671
74934W        W47359  41.361  14.023  14.534
74935W        W47360  41.947  22.170   0.262
74936W        W47361  35.799  42.305  12.067
74937W        W47362  36.835  41.435  14.789
74938W        W47363  27.905  37.308  10.768
74939W        W47364  30.441  30.926  11.517
74940W        W47365  23.305  41.855  12.101
74941W        W47366  41.885  24.070  14.925
74942W        W47367  33.409  22.482   1.237
74943W        W47368  41.067   4.667  13.089
74944W        W47369   0.034   8.432   0.959
74945W        W47370  19.292  25.126   4.628
74946W        W47371   9.620   4.956  12.962
74947W        W47372  11.507  12.423   3.176
74948W        W47373  36.872  38.796   1.258
74949W        W47374  24.947   9.792  11.962
74950W        W47375  32.172  27.629  14.338
74951W        W47376  40.570  11.767  13.028
74952W        W47377  14.418   1.640  13.025
74953W        W47378   6.338  41.206  14.854
74954W        W47379  38.107  18.848   0.230
74955W        W47380  17.364  30.924   0.595
74956W        W47381  12.154  38.986  10.691
74957W        W47382  30.883   4.818   1.289
74958W        W47383  42.832  17.532  11.866
74959W        W47384  35.970   2.903  12.889
74960W        W47385  36.332  34.754   2.411
74961W        W47386  37.914  23.517   3.131
74962W        W47387  27.122  23.252   2.255
74963W        W47388  16.521   6.865  10.737
74964W        W47389  29.103   9.354   3.052
74965W        W47390  43.713  13.136  10.763
74966W        W47391  13.352  27.038  14.147
74967W        W47392   7.342  39.390   0.819
74968W        W47393  14.681   0.268   4.121
74969W        W47394  12.888  35.782   3.703
74970W        W47395   4.244  42.289   1.997
74971W        W47396  14.062   4.903   2.325
74972W        W47397  40.997  10.952  14.912
74973W        W47398   2.389  42.688   4.409
74974W        W47399  43.469  11.344   1.718
74975W        W47400   9.583   3.685   0.333
74976W        W47401  31.466  43.164   0.036
74977W        W47402   2.224  32.345  13.918
74978W        W47403  14.136  24.635   3.327
74979W        W47404   7.624  13.351  12.759
74980W        W47405  26.527  41.231   3.303
74981W        W47406  43.503   0.795   3.613
74982W        W47407   5.382  32.933  11.136
74983W        W47408  41.746  31.397   2.280
74984W        W47409  24.582  31.529   3.825
74985W        W47410   5.008  20.155  10.984
74986W        W47411  27.618  33.693  14.351
74987W        W47412  26.200   9.207  14.350
74988W        W47413  29.640  10.140   4.671
74989W        W47414  35.963  10.421   3.723
74990W        W47415   8.615  41.773   1.444
74991W        W47416  22.060  19.587  12.909
74992W        W47417  34.867   2.243   4.067
74993W        W47418   7.742  15.050   2.697
74994W        W47419  16.471  33.974   3.740
74995W        W47420   8.332   5.673   0.405
74996W        W47421   5.304  40.496  13.613
74997W        W47422  10.214  23.754  11.667
74998W        W47423  40.041  36.949   2.822
74999W        W47424  20.099  37.985  10.773
75000W        W47425  10.035  22.203   4.146
75001W        W47426  23.715  24.725   2.776
75002W        W47427  27.786  10.758   3.609
75003W        W47428   8.584  35.266  12.036
75004W        W47429  20.769  35.967   4.101
75005W        W47430  34.343   9.298   1.155
75006W        W47431  42.222  30.728  11.514
75007W        W47432  18.353  41.362  14.466
75008W        W47433  17.294   5.699  11.501
75009W        W47434  43.863   8.293   0.984
75010W        W47435   2.924   9.214   2.891
75011W        W47436  18.669  41.305   2.751
75012W        W47437  12.269  39.549  13.674
75013W        W47438  21.609  29.457   3.387
75014W        W47439  26.596  29.934   0.218
75015W        W47440   0.394  39.901   2.757
75016W        W47441  29.977  20.247  12.474
75017W        W47442   3.503  14.108  11.077
75018W        W47443  34.299  10.667  14.984
75019W        W47444  35.961  42.800  13.487
75020W        W47445  27.911  13.838  13.479
75021W        W47446  16.814  11.580  11.955
75022W        W47447  35.593  24.592   9.573
75023W        W47448   2.561   6.881   1.372
75024W        W47449  40.863  25.770  11.101
75025W        W47450  36.615  37.265  12.868
75026W        W47451  26.173  43.063   3.376
75027W        W47452  44.801   6.955   4.306
75028W        W47453  21.090  11.743  13.078
75029W        W47454  38.294   3.472  13.116
75030W        W47455  24.688  38.070  11.424
75031W        W47456  13.076  15.726   1.388
75032W        W47457  28.016  12.974   0.673
75033W        W47458   3.940  30.225  12.004
75034W        W47459  13.159  19.751   2.971
75035W        W47460  17.563  20.656  11.663
75036W        W47461   7.381  22.575  11.630
75037W        W47462  11.663   1.210   4.830
75038W        W47463  35.390  33.172   3.698
75039W        W47464  18.758   3.137   2.009
75040W        W47465  42.442   7.155  11.087
75041W        W47466   5.803  27.972  11.723
75042W        W47467  34.051  13.015   4.574
75043W        W47468  17.927  24.497   2.001
75044W        W47469  11.433  29.273   4.411
75045W        W47470  20.488  11.772   3.233
75046W        W47471  19.633  33.049  10.916
75047W        W47472   6.227  10.591   4.535
75048W        W47473  36.096  36.912   3.423
75049W        W47474   5.274  27.178   4.343
75050W        W47475   1.444  29.185   1.878
75051W        W47476  11.165   0.014   0.816
75052W        W47477  21.478   1.568  10.360
75053W        W47478  39.823  42.032   5.486
75054W        W47479  19.807  26.644   2.234
75055W        W47480  23.651   0.964  11.174
75056W        W47481  19.971  17.651   2.915
75057W        W47482  34.913  33.704   0.337
75058W        W47483  15.890  38.363  14.010
75059W        W47484  30.646   6.449  14.944
75060W        W47485  32.569  41.316  11.593
75061W        W47486  11.265   4.003   4.002
75062W        W47487  20.314  26.271  10.630
75063W        W47488  44.529  24.720   3.057
75064W        W47489  10.513  35.066   4.378
75065W        W47490  41.849   9.612  13.449
75066W        W47491  25.508  44.740  14.734
75067W        W47492   0.952  26.184  10.763
75068W        W47493   7.751  10.688   3.103
75069W        W47494   3.731  15.335  13.356
75070W        W47495   0.509  14.406  11.153
75071W        W47496  43.386  37.383   1.292
75072W        W47497  21.196  26.784  11.525
75073W        W47498   5.691  26.790  11.240
75074W        W47499  18.142  29.621  11.189
75075W        W47500  23.626  35.399  10.637
75076W        W47501  15.909  14.177   2.249
75077W        W47502  20.631  35.610   3.216
75078W        W47503  18.146  41.838  13.310
75079W        W47504  27.500  38.143   3.718
75080W        W47505  29.990  41.366  13.866
75081W        W47506  38.733   0.215   0.195
75082W        W47507  24.001  26.996   2.263
75083W        W47508   6.693   5.350   4.732
75084W        W47509  12.718   4.876  13.517
75085W        W47510   6.700  42.358  14.060
75086W        W47511   3.999  43.793  13.075
75087W        W47512   1.877  26.048   1.872
75088W        W47513  31.821  44.710   1.185
75089W        W47514  44.884   3.600   1.908
75090W        W47515  11.772  38.902  11.074
75091W        W47516  33.345  18.292  13.427
75092W        W47517  21.608   2.477   4.677
75093W        W47518  16.155   9.422  10.765
75094W        W47519  35.384   8.307   4.642
75095W        W47520  17.063  42.484  12.978
75096W        W47521  11.601  28.954  13.547
75097W        W47522  16.765  15.272  10.610
75098W        W47523   5.381   6.954   0.527
75099W        W47524  27.261  29.027   3.820
75100W        W47525  22.268  40.421  12.843
75101W        W47526  40.364  29.182   2.918
75102W        W47527  13.849  18.299   4.163
75103W        W47528   0.443  13.752   4.286
75104W        W47529  27.341  16.947   3.329
75105W        W47530  25.406  23.507   2.359
75106W        W47531  19.740  29.500  12.755
75107W        W47532  16.266   9.804  11.635
75108W        W47533  19.117   8.904   2.893
75109W        W47534  27.208  20.710  13.932
75110W        W47535  43.833  41.073  10.358
75111W        W47536   5.488   1.971   1.372
75112W        W47537  42.239  21.818   4.814
75113W        W47538  18.295  44.377  12.824
75114W        W47539  14.961  16.313  13.796
75115W        W47540  15.632   3.421  13.239
75116W        W47541  27.106  43.790   2.828
75117W        W47542  33.822   0.622  13.538
75118W        W47543  38.305  33.256  14.973
75119W        W47544  21.740   4.932   1.784
75120W        W47545   2.970   7.340   2.563
75121W        W47546   3.218  27.555   4.760
75122W        W47547  14.063  18.338  11.704
75123W        W47548   6.048  28.342  14.380
75124W        W47549  37.023  17.111  14.982
75125W        W47550  19.077  34.960   1.939
75126W        W47551   1.324  28.378   2.338
75127W        W47552  32.317  25.228  12.892
75128W        W47553  26.080   4.562   0.104
75129W        W47554  18.142   5.541  12.518
75130W        W47555  39.168  35.887  11.648
75131W        W47556  15.765  38.146  14.486
75132W        W47557   9.449  29.558  14.148
75133W        W47558  27.496   9.073  11.043
75134W        W47559  26.284  24.079  11.498
75135W        W47560  37.477   8.220   3.544
75136W        W47561  27.948   4.045   4.406
75137W        W47562   6.225  44.509  13.516
75138W        W47563  11.152  29.062  12.010
75139W        W47564  39.281   3.514  10.348
75140W        W47565  19.144  13.803  14.803
75141W        W47566  22.278  43.786   0.019
75142W        W47567  35.666  11.575  11.065
75143W        W47568  44.373   5.328  13.516
75144W        W47569  34.455  38.098   3.144
75145W        W47570  28.417   7.375   1.873
75146W        W47571  15.043   6.364   3.747
75147W        W47572  27.682   4.224  13.007
75148W        W47573  31.462  42.758   0.335
75149W        W47574  37.218  40.327  14.963
75150W        W47575  38.612  24.467   3.189
75151W        W47576  44.394  11.413  12.529
75152W        W47577  22.001  40.577  14.881
75153W        W47578   4.747  32.974   0.699
75154W        W47579  22.792  14.731  12.424
75155W        W47580   4.697   7.992   2.851
75156W        W47581  38.976  37.370  11.480
75157W        W47582  10.735  18.523  11.898
75158W        W47583   2.066  39.428   2.924
75159W        W47584  31.401  11.733   0.460
75160W        W47585  24.659  19.192   3.169
75161W        W47586   9.300   4.477  12.873
75162W        W47587   8.129  21.437   0.355
75163W        W47588  18.711  33.573  13.441
75164W        W47589   8.685  29.533  12.466
75165W        W47590  18.721  41.321   3.861
75166W        W47591   3.457  37.037  10.715
75167W        W47592   3.850  24.488   4.098
75168W        W47593  12.885  42.879   4.775
75169W        W47594   7.224  27.892   5.082
75170W        W47595   8.833  42.849   5.073
75171W        W47596  40.722  38.247  13.598
75172W        W47597  26.063  31.075   2.679
75173W        W47598   3.420  22.559   2.407
75174W        W47599  16.009  12.255  13.010
75175W        W47600  22.221  20.367   4.350
75176W        W47601  18.658   5.817   2.423
75177W        W47602  19.259  18.614  11.994
75178W        W47603  28.375  14.802   3.698
75179W        W47604  10.239  29.684   0.889
75180W        W47605   0.938   5.981   3.122
75181W        W47606  34.649   2.954  11.118
75182W        W47607   7.918  11.212  10.625
75183W        W47608  24.570  38.797  13.520
75184W        W47609  16.098   8.081   3.204
75185W        W47610  21.555  33.274  14.403
75186W        W47611   3.883  44.350  14.122
75187W        W47612   8.724  33.740  14.351
75188W        W47613  12.849  36.951   0.215
75189W        W47614  41.465   7.233  12.498
75190W        W47615  41.822  15.773  14.049
75191W        W47616   2.176  20.762   0.871
75192W        W47617  40.873  31.624  11.591
75193W        W47618  32.845   5.179  14.016
75194W        W47619   8.068  37.599   2.077
75195W        W47620  21.275   1.797  13.953
75196W        W47621  23.582  39.094   2.742
75197W        W47622  20.982  11.263   1.938
75198W        W47623   0.883  23.189   1.052
75199W        W47624   1.569  43.736  12.494
75200W        W47625  19.548  22.924   1.021
75201W        W47626   4.369  38.500  14.074
75202W        W47627  38.424  40.404   1.014
75203W        W47628  39.055   3.765   3.720
75204W        W47629  10.766  32.381  13.041
75205W        W47630  32.515   4.012  14.432
75206W        W47631  18.286  12.563  13.047
75207W        W47632  20.236  30.381  12.857
75208W        W47633  42.948   6.119  13.197
75209W        W47634  40.482  39.612   4.547
75210W        W47635  10.231  28.461   1.722
75211W        W47636  34.355  17.805  10.699
75212W        W47637  30.238  27.578  14.389
75213W        W47638  30.064  14.066  12.894
75214W        W47639  26.522  41.459  14.947
75215W        W47640  28.827   7.280   0.716
75216W        W47641  16.725  11.880   4.897
75217W        W47642  20.523  15.265  12.867
75218W        W47643  20.059  37.274   2.799
75219W        W47644  15.197  34.592   0.815
75220W        W47645  25.488  16.225  11.085
75221W        W47646   6.439  12.971   9.779
75222W        W47647   7.151  30.903   3.109
75223W        W47648   3.215  42.425   3.268
75224W        W47649  44.401  24.610   4.561
75225W        W47650  26.732   1.997   9.842
75226W        W47651  31.031  37.306   0.497
75227W        W47652   3.274  36.103  14.513
75228W        W47653   6.079  34.326  13.063
75229W        W47654   9.885  26.835  14.997
75230W        W47655   8.591  11.138   3.651
75231W        W47656  14.600   1.211   3.937
75232W        W47657   7.243   9.728   1.643
75233W        W47658  22.900  13.079   4.082
75234W        W47659  16.164  34.575  11.130
75235W        W47660  19.305  22.089   4.697
75236W        W47661   1.461  40.360  14.074
75237W        W47662  14.486  13.749  11.921
75238W        W47663  44.395  32.365   0.507
75239W        W47664  31.109  25.534  14.901
75240W        W47665  19.556  41.069   3.322
75241W        W47666  23.565   1.617   0.911
75242W        W47667  26.124   8.666   2.862
75243W        W47668  41.090  28.018  10.704
75244W        W47669  17.758  39.508   3.200
75245W        W47670   6.576  40.571   1.896
75246W        W47671  28.660   9.817  10.454
75247W        W47672   5.772  37.051   0.421
75248W        W47673  25.476  33.747   2.250
75249W        W47674  16.494  42.028   4.451
75250W        W47675  24.679  13.254   0.166
75251W        W47676  12.481   1.664  11.881
75252W        W47677  23.238  34.899   0.082
75253W        W47678  37.080  31.604  11.129
75254W        W47679  31.913   1.775  11.674
75255W        W47680  19.471  34.589   2.345
75256W        W47681   9.832   2.437   2.227
75257W        W47682  37.614   2.204  12.921
75258W        W47683  25.976  16.779   1.726
75259W        W47684  38.745   2.864  12.761
75260W        W47685   3.982   3.661  13.924
75261W        W47686  27.416   4.932   1.386
75262W        W47687  40.536  41.634  14.137
75263W        W47688  37.664  16.283  12.579
75264W        W47689  36.807  29.145   0.087
75265W        W47690  32.507  25.456  12.451
75266W        W47691  23.734  27.837   1.882
75267W        W47692  34.048  26.442  10.191
75268W        W47693  14.714  18.024   4.218
75269W        W47694  44.460  23.572  13.658
75270W        W47695  25.246  18.487   3.136
75271W        W47696  40.000  20.255   0.044
75272W        W47697  14.814  13.820   1.808
75273W        W47698  32.728  11.306  13.013
75274W        W47699  19.155  29.503   0.501
75275W        W47700  37.126  15.190  14.432
75276W        W47701  36.013  10.207   3.249
75277W        W47702  34.623  12.177   1.247
75278W        W47703  24.143   6.315   2.897
75279W        W47704  39.140  37.466  13.846
75280W        W47705  41.717  17.760   2.251
75281W        W47706  44.480  28.721   2.264
75282W        W47707  11.802   0.459   2.380
75283W        W47708  28.548  19.237   3.196
75284W        W47709  21.509   3.926   0.372
75285W        W47710   6.359  10.804  12.905
75286W        W47711  15.643   0.751  14.531
75287W        W47712  11.769  30.913   2.173
75288W        W47713  13.365  33.641  11.621
75289W        W47714  30.463  26.223   2.279
75290W        W47715  16.982  39.025  10.796
75291W        W47716   5.407  41.991  14.427
75292W        W47717  21.699   4.768   4.069
75293W        W47718  18.567  31.935   0.985
75294W        W47719  26.066  36.054   2.902
75295W        W47720  39.348  42.926   4.935
75296W        W47721  37.960  13.488  11.991
75297W        W47722  10.686  25.562  14.984
75298W        W47723  32.085  18.993   5.513
75299W        W47724  15.237  29.690   3.570
75300W        W47725  27.038  39.308   3.657
75301W        W47726   2.917  11.513   3.745
75302W        W47727  23.952   7.374  14.849
75303W        W47728  40.316   0.352  10.273
75304W        W47729  19.199   7.376  14.991
75305W        W47730   9.072  44.143  10.313
75306W        W47731  32.987  18.636  14.589
75307W        W47732  44.633  27.274   0.859
75308W        W47733  14.823  38.081  10.956
75309W        W47734  18.027  24.475  13.956
75310W        W47735   1.742   0.770  10.321
75311W        W47736  43.731  26.946  14.709
75312W        W47737   6.571   0.332  14.756
75313W        W47738   6.755   6.419   0.599
75314W        W47739  34.544  24.282  13.372
75315W        W47740  32.016  17.345   0.997
75316W        W47741  19.930   1.979  14.932
75317W        W47742  40.401  38.888   2.092
75318W        W47743  32.857  42.479   0.236
75319W        W47744  38.959   0.512   4.652
75320W        W47745  30.578  30.685  11.075
75321W        W47746   2.001  30.144  12.605
75322W        W47747  29.625  25.369   4.922
75323W        W47748   7.356   0.267   3.106
75324W        W47749  43.238  20.592  13.497
75325W        W47750  31.055  43.073  12.953
75326W        W47751  25.732  24.440   0.373
75327W        W47752  14.345   9.793   2.331
75328W        W47753  19.137  15.195   4.538
75329W        W47754  17.697  33.375  10.301
75330W        W47755  25.599  43.818   4.588
75331W        W47756  35.933   9.078   1.354
75332W        W47757  27.666  18.531   4.626
75333W        W47758  26.594   2.035  13.910
75334W        W47759   2.355  18.120  13.537
75335W        W47760  33.880   2.531   4.080
75336W        W47761  20.965  38.431  11.023
75337W        W47762  12.363  38.467   2.328
75338W        W47763  13.312   4.332  10.675
75339W        W47764  13.791   9.360  10.707
75340W        W47765  18.510  25.572  10.452
75341W        W47766  26.748  41.917  11.445
75342W        W47767  29.164  24.446   0.888
75343W        W47768  23.764  34.500  13.887
75344W        W47769  11.114   7.612   5.376
75345W        W47770  36.113  29.977   0.427
75346W        W47771  21.064  20.272   1.914
75347W        W47772  18.743  24.634  12.802
75348W        W47773  26.023  31.559   0.892
75349W        W47774  41.279  19.221   0.355
75350W        W47775  31.011  37.799  10.388
75351W        W47776   0.776  38.454  14.942
75352W        W47777  28.946   3.301  13.429
75353W        W47778   8.364  21.664   3.586
75354W        W47779  14.151  22.276   4.567
75355W        W47780  22.779  42.316  13.471
75356W        W47781  32.138  31.797  11.953
75357W        W47782   8.247  20.564   3.118
75358W        W47783  17.796   7.721   0.350
75359W        W47784  32.835   0.772  14.946
75360W        W47785  28.599  27.208  11.605
75361W        W47786  24.482  20.668   3.998
75362W        W47787  12.641  41.951   1.199
75363W        W47788  42.428  12.956  11.787
75364W        W47789  16.732  42.983  13.356
75365W        W47790   7.298   5.709   1.912
75366W        W47791  41.774  28.595   1.124
75367W        W47792  28.917  37.775   4.172
75368W        W47793  38.680  19.366  10.840
75369W        W47794  36.916  20.706  11.826
75370W        W47795  14.238  43.736   3.196
75371W        W47796  44.277  14.114   1.266
75372W        W47797  27.621  38.547   4.006
75373W        W47798  30.854  41.813  12.487
75374W        W47799   8.733  14.871   3.213
75375W        W47800  12.643  26.522  13.791
75376W        W47801  44.534  27.033  14.071
75377W        W47802  21.221  10.701  10.046
75378W        W47803   0.492   4.784   2.200
75379W        W47804  38.993  23.927  12.911
75380W        W47805  35.374  38.081  13.317
75381W        W47806  34.905  39.956  11.973
75382W        W47807  22.243  33.188  13.355
75383W        W47808  38.869  42.648   9.705
75384W        W47809  36.959  15.529  10.676
75385W        W47810  28.076  37.864   0.431
75386W        W47811  31.386  43.318  11.449
75387W        W47812  13.698  36.322  14.792
75388W        W47813  14.100  14.375  14.843
75389W        W47814  40.275  36.866   2.331
75390W        W47815  19.714   6.303   5.018
75391W        W47816  14.107  37.066  14.313
75392W        W47817  15.780  11.119  12.338
75393W        W47818  32.159  29.980   4.790
75394W        W47819  27.153   1.550   3.356
75395W        W47820  20.561  41.408   1.197
75396W        W47821  19.556  37.850  10.642
75397W        W47822   2.025   6.328   4.479
75398W        W47823  13.259  21.694  10.206
75399W        W47824  18.711  31.356  10.748
75400W        W47825  31.609  13.499   4.070
75401W        W47826   5.344   7.807  10.754
75402W        W47827  17.115  33.883   3.373
75403W        W47828  29.213  31.073   1.952
75404W        W47829  11.964  15.260   3.955
75405W        W47830  28.489  28.390   3.664
75406W        W47831  38.891  16.758  14.350
75407W        W47832  41.019  26.631  10.693
75408W        W47833   4.787  13.582  10.858
75409W        W47834  16.272   6.086  11.008
75410W        W47835  37.526  42.512  12.614
75411W        W47836  30.888  21.210  12.039
75412W        W47837  39.654  14.101  14.131
75413W        W47838  21.690  17.696  14.581
75414W        W47839  29.598  39.420   3.725
75415W        W47840  17.731  44.943  12.366
75416W        W47841  37.175   8.561   5.154
75417W        W47842  32.074  29.197  11.952
75418W        W47843  33.200  41.857  13.026
75419W        W47844  40.249  21.013  11.115
75420W        W47845  12.553   3.157  13.920
75421W        W47846  38.274   9.404  11.903
75422W        W47847  15.700  18.307   3.777
75423W        W47848  34.940  41.957   2.745
75424W        W47849   4.741  21.775  11.593
75425W        W47850  34.581  18.354  13.801
75426W        W47851  25.815  43.747   2.205
75427W        W47852  18.241  32.978  14.810
75428W        W47853  21.448  20.767   0.446
75429W        W47854  20.851   1.195   0.730
75430W        W47855  22.905  15.366  13.522
75431W        W47856  43.704  41.261   0.015
75432W        W47857  40.340   3.989   1.912
75433W        W47858  37.891  39.490  14.016
75434W        W47859  41.790   0.053  11.975
75435W        W47860   4.938  40.159  14.712
75436W        W47861  11.869  11.951   1.979
75437W        W47862  34.055  11.014   0.796
75438W        W47863  44.656  32.180  12.106
75439W        W47864   1.526  35.775   3.651
75440W        W47865  13.231  16.584   1.197
75441W        W47866  18.302  28.647   2.743
75442W        W47867   8.445   4.607   4.165
75443W        W47868  19.274  35.426   3.489
75444W        W47869  10.003  40.297  10.797
75445W        W47870   8.958  23.971   2.221
75446W        W47871  10.252   3.812   1.520
75447W        W47872  16.130  29.158  14.228
75448W        W47873  17.326  14.024   1.224
75449W        W47874  41.444  30.385  11.037
75450W        W47875  26.651  15.641   2.914
75451W        W47876  27.231  38.752  10.163
75452W        W47877   9.607  31.120   3.588
75453W        W47878  28.997  28.639   2.314
75454W        W47879   6.738  25.512   2.222
75455W        W47880  18.821  18.621  12.943
75456W        W47881  28.589   9.239   0.818
75457W        W47882  34.582  41.785  11.949
75458W        W47883   2.503  21.207   3.509
75459W        W47884  14.161   7.215   2.382
75460W        W47885  24.806   1.874  14.462
75461W        W47886  44.000  18.489   2.834
75462W        W47887  22.630  41.478  14.047
75463W        W47888  41.513  11.042   3.683
75464W        W47889  26.791  11.253  11.291
75465W        W47890  23.926  21.075   0.725
75466W        W47891   3.383  16.128  14.504
75467W        W47892  34.821  11.813   3.205
75468W        W47893  10.074   9.204   0.645
75469W        W47894   0.306  27.323  14.551
75470W        W47895  19.234  34.538   0.176
75471W        W47896  38.595  34.492   2.336
75472W        W47897  18.056  23.619   0.458
75473W        W47898   6.426  22.924   4.680
75474W        W47899  22.027  36.547   1.911
75475W        W47900  10.267  39.554   1.211
75476W        W47901  13.087  32.689  11.623
75477W        W47902   5.959  25.748  11.124
75478W        W47903   8.074  41.343   0.797
75479W        W47904  34.276  34.366   1.184
75480W        W47905  28.242  12.355   2.874
75481W        W47906  11.667  15.851  12.771
75482W        W47907  27.953  19.518  12.506
75483W        W47908  20.839  15.166  14.312
75484W        W47909  26.947  18.091  12.963
75485W        W47910  40.424  14.142  13.081
75486W        W47911  20.386  33.405   2.803
75487W        W47912  38.633  35.882   2.326
75488W        W47913  42.489  29.737  10.610
75489W        W47914   4.699  36.314   2.947
75490W        W47915  28.905   2.941   0.236
75491W        W47916   8.417  20.856  13.493
75492W        W47917   2.949   9.188  13.325
75493W        W47918  41.081   9.892   3.414
75494W        W47919  10.789  12.299   3.818
75495W        W47920  40.802  40.452   2.307
75496W        W47921  22.779  30.481   2.806
75497W        W47922   1.028  23.393  12.526
75498W        W47923  23.516  23.439   3.208
75499W        W47924  26.814   2.527  14.378
75500W        W47925  29.920   5.211  13.460
75501W        W47926  18.497  42.822   4.992
75502W        W47927  33.843  20.757   1.386
75503W        W47928  21.507  28.561  12.554
75504W        W47929  19.703  34.541   4.829
75505W        W47930  29.074  15.271  13.235
75506W        W47931   0.023   8.827   0.231
75507W        W47932  15.268  15.429   0.429
75508W        W47933  44.241  20.827   2.895
75509W        W47934  10.965   3.877  13.381
75510W        W47935  11.240  33.941   1.330
75511W        W47936   1.898  17.760  13.992
75512W        W47937  23.330  11.194   4.091
75513W        W47938   2.544  33.962   1.218
75514W        W47939  19.256  25.071   3.742
75515W        W47940  31.950  40.621  14.846
75516W        W47941  36.294  12.761   0.972
75517W        W47942  24.507  43.915   4.478
75518W        W47943  41.525  24.653  12.954
75519W        W47944  37.480  24.021   1.748
75520W        W47945  37.034   7.225  14.863
75521W        W47946  11.494  19.140   3.753
75522W        W47947  33.018  24.985  14.960
75523W        W47948  22.468   2.251  13.042
75524W        W47949  32.195  34.344   0.066
75525W        W47950  28.651  43.956  12.862
75526W        W47951  41.876  13.170  12.051
75527W        W47952   7.685  10.371  12.822
75528W        W47953  16.599  21.489   3.076
75529W        W47954   0.219   4.480  14.080
75530W        W47955  16.873  19.134  12.055
75531W        W47956  12.970  31.417  11.005
75532W        W47957  25.589  21.099   4.543
75533W        W47958  38.993  22.048   5.022
75534W        W47959   4.585  20.226  12.330
75535W        W47960  12.539  26.545   2.714
75536W        W47961   0.366  28.836  12.619
75537W        W47962  25.758  19.813   3.698
75538W        W47963  32.889  26.967   0.279
75539W        W47964  12.239  13.167  12.390
75540W        W47965  42.300  39.392   1.849
75541W        W47966   1.268  12.361   2.272
75542W        W47967  32.166  17.976  13.975
75543W        W47968  20.500  26.968   1.192
75544W        W47969   7.362  21.088  12.488
75545W        W47970  27.145  14.290   2.292
75546W        W47971  34.035  34.901  13.057
75547W        W47972  41.791  34.308  12.266
75548W        W47973   1.703  31.128  10.731
75549W        W47974  40.523  32.204   1.252
75550W        W47975  10.167  35.279  11.957
75551W        W47976  42.894  36.223   2.770
75552W        W47977  15.398  26.616  11.714
75553W        W47978   5.823  37.544   3.403
75554W        W47979   2.194  34.757  10.382
75555W        W47980   6.170  39.900  13.387
75556W        W47981  19.681  17.632   2.477
75557W        W47982  14.746   3.560  10.989
75558W        W47983  12.218  37.985   1.082
75559W        W47984  37.710  33.275   3.730
75560W        W47985  22.682   0.015  13.488
75561W        W47986  35.570  17.062   0.463
75562W        W47987  38.973  34.726   1.726
75563W        W47988  30.190  35.327  12.445
75564W        W47989  35.648  27.713  10.651
75565W        W47990  38.546  24.179  12.892
75566W        W47991  15.711  31.124  13.349
75567W        W47992   6.976  28.062   0.237
75568W        W47993   4.229  14.773  13.497
75569W        W47994  37.279  17.716  13.939
75570W        W47995  43.915  30.669   3.767
75571W        W47996  13.431  41.638  13.498
75572W        W47997  17.326   6.437   0.429
75573W        W47998  33.644  15.124  11.590
75574W        W47999  42.985  12.306  13.396
75575W        W48000   4.364  39.071   0.768
75576W        W48001  17.098   4.218  10.560
75577W        W48002  41.882  38.922  13.359
75578W        W48003  39.150  40.323   1.728
75579W        W48004  36.329  12.140  10.982
75580W        W48005   8.442  35.944   1.066
75581W        W48006  34.472  27.001  11.551
75582W        W48007  18.215   2.534   4.016
75583W        W48008  37.424   6.882  14.771
75584W        W48009  20.891  34.024  14.136
75585W        W48010  33.141  13.847   0.916
75586W        W48011  13.458  19.656   4.164
75587W        W48012  13.762  12.123  12.038
75588W        W48013  29.202  17.245  12.027
75589W        W48014  12.577   7.242   2.710
75590W        W48015   7.270  38.427   4.721
75591W        W48016  34.781  39.879  14.543
75592W        W48017  40.624   6.883  11.119
75593W        W48018   7.046  38.108   0.800
75594W        W48019  29.917  34.945  14.752
75595W        W48020  13.286  12.586   1.843
75596W        W48021  14.322  36.037   4.619
75597W        W48022  40.424  21.976   1.609
75598W        W48023  14.213   9.935  14.080
75599W        W48024  30.214  42.832  14.545
75600W        W48025  23.268  17.245  11.924
75601W        W48026  39.904   2.429   1.791
75602W        W48027   4.207  40.057   2.417
75603W        W48028   6.679  24.107  13.376
75604W        W48029  39.485  42.778  14.353
75605W        W48030   3.108  23.191   0.073
75606W        W48031   7.067   7.170   2.429
75607W        W48032   3.505  22.203  11.457
75608W        W48033  26.122  41.269   2.687
75609W        W48034   1.676  14.578  13.125
75610W        W48035  33.545   5.296   4.639
75611W        W48036  41.652  28.065   4.851
75612W        W48037  33.837  25.410   4.092
75613W        W48038  19.237   8.173  11.582
75614W        W48039   4.591  43.975   0.499
75615W        W48040  10.854  42.753   2.820
75616W        W48041  12.086  14.751   5.029
75617W        W48042   9.659   2.395   0.719
75618W        W48043  29.099   6.518   0.412
75619W        W48044   3.263  37.541  10.899
75620W        W48045  35.793   8.884  13.140
75621W        W48046  44.869  35.538  14.095
75622W        W48047  26.168  40.866   0.857
75623W        W48048  13.295  20.243   2.588
75624W        W48049   8.915  39.319   1.871
75625W        W48050  36.021  15.560   3.222
75626W        W48051  31.125   0.673  14.489
75627W        W48052  32.685  40.492   1.750
75628W        W48053  31.589  14.188   3.253
75629W        W48054  19.056  38.886   3.753
75630W        W48055  22.660  21.541   4.528
75631W        W48056  22.034  41.425   0.837
75632W        W48057  17.114  19.940  10.106
75633W        W48058  10.661  27.652  14.466
75634W        W48059  20.987  17.890   3.326
75635W        W48060  21.487  29.601   2.661
75636W        W48061  21.713  24.750  14.212
75637W        W48062  10.539  14.300   2.389
75638W        W48063  42.572  42.095  13.051
75639W        W48064   9.835   2.692  14.761
75640W        W48065   6.607  11.825   0.283
75641W        W48066  29.354  27.318  12.426
75642W        W48067   2.217  38.019  12.887
75643W        W48068  38.623  42.999  14.479
75644W        W48069   2.511   2.182   1.179
75645W        W48070  39.732  10.633   4.835
75646W        W48071  27.749  27.989  13.033
75647W        W48072   0.610  32.382   1.323
75648W        W48073   1.872  36.850   0.935
75649W        W48074  18.023  17.495  11.182
75650W        W48075  26.117  33.330   1.800
75651W        W48076  24.665  31.227   2.674
75652W        W48077  40.948  30.989  14.862
75653W        W48078  27.963  36.982  12.361
75654W        W48079  40.041   1.171  11.967
75655W        W48080  37.834  24.401   1.209
75656W        W48081   1.231  44.424   2.891
75657W        W48082   7.888  34.979  12.513
75658W        W48083   7.287  29.377   0.437
75659W        W48084  22.745  18.306   3.567
75660W        W48085  14.419  28.146   0.296
75661W        W48086   6.246  36.408   3.835
75662W        W48087  40.071  10.227   1.841
75663W        W48088  20.665  10.870  14.424
75664W        W48089  44.359   5.190   2.619
75665W        W48090  15.653  44.978  10.693
75666W        W48091  13.731  42.959  11.574
75667W        W48092  29.247  11.426  10.784
75668W        W48093  31.842  38.948   5.004
75669W        W48094  16.196  14.492   3.393
75670W        W48095   6.305  39.619   2.675
75671W        W48096   6.137  18.773   3.104
75672W        W48097  44.324   8.186  10.928
75673W        W48098  18.558  19.578   4.170
75674W        W48099  14.532  30.462   3.761
75675W        W48100   0.783  16.742  13.763
75676W        W48101  30.112  40.957   1.859
75677W        W48102   5.873  13.191  14.090
75678W        W48103  35.454  20.501   2.369
75679W        W48104   3.366  39.933   0.976
75680W        W48105  33.384   0.461   1.314
75681W        W48106  37.387  23.114   1.305
75682W        W48107  25.124   1.222  12.938
75683W        W48108   8.369  37.597   5.464
75684W        W48109  32.059  37.551   1.298
75685W        W48110   6.271  17.113   1.155
75686W        W48111   4.429  26.174  10.992
75687W        W48112  35.926  31.961  11.242
75688W        W48113  34.102  13.730  12.684
75689W        W48114  34.123   7.642  14.313
75690W        W48115  23.041   5.374  13.927
75691W        W48116  12.922  42.854   0.407
75692W        W48117  36.801  12.301  14.724
75693W        W48118  42.530  19.636   3.404
75694W        W48119  29.746  18.959   0.794
75695W        W48120  31.659  21.511  13.127
75696W        W48121  14.348   7.823   1.255
75697W        W48122  16.271   6.250   0.676
75698W        W48123  18.668  12.655  10.511
75699W        W48124  18.785   9.736   2.201
75700W        W48125  32.842  22.541  11.887
75701W        W48126  13.709  10.108  12.329
75702W        W48127  18.145  11.111  14.792
75703W        W48128  37.440  37.807  13.572
75704W        W48129  15.792  30.423   5.296
75705W        W48130  34.001  14.302   2.901
75706W        W48131   0.470  13.042   1.239
75707W        W48132  26.062  43.351  13.581
75708W        W48133   2.489  38.461   4.264
75709W        W48134   3.918  11.289   4.271
75710W        W48135  15.329  15.287  13.350
75711W        W48136  32.580  16.173  13.453
75712W        W48137  41.381  16.664  13.289
75713W        W48138  33.163  13.071   1.137
75714W        W48139  21.177  43.229  10.608
75715W        W48140  17.324   7.257  10.675
75716W        W48141  19.489  42.901   0.007
75717W        W48142  33.575  10.622  14.493
75718W        W48143   1.316  31.780  13.045
75719W        W48144  14.899  37.431  13.875
75720W        W48145  35.619   2.731  11.034
75721W        W48146   7.236  28.392   4.759
75722W        W48147  32.947  21.788   3.360
75723W        W48148  19.666  22.905  14.033
75724W        W48149   4.389  18.469  14.026
75725W        W48150  15.219  31.885  13.404
75726W        W48151   2.826  41.631  13.514
75727W        W48152  18.745  23.835   4.206
75728W        W48153  26.013  15.565   3.356
75729W        W48154   3.782  30.924   4.850
75730W        W48155   1.929  29.070  13.015
75731W        W48156  44.598  27.802   0.871
75732W        W48157   0.943  11.406  11.066
75733W        W48158   3.368  44.441   0.030
75734W        W48159  20.063  38.495  11.948
75735W        W48160  35.293  12.158   3.669
75736W        W48161  10.175  19.167  14.371
75737W        W48162  39.504  41.715   3.682
75738W        W48163  40.501  30.464  13.016
75739W        W48164  35.700  31.872   0.356
75740W        W48165  32.721  21.504  14.074
75741W        W48166  28.440  14.300   0.682
75742W        W48167  42.016  42.884   1.963
75743W        W48168  31.582  37.910  11.229
75744W        W48169  21.071  44.288  11.469
75745W        W48170  22.544   0.272   1.963
75746W        W48171  43.929  10.620  14.801
75747W        W48172  14.350  31.132   3.657
75748W        W48173  38.807  16.058   1.218
75749W        W48174  41.869  27.689   3.832
75750W        W48175  10.617  10.201   3.798
75751W        W48176  37.479  32.403  12.552
75752W        W48177  17.036  27.990  12.354
75753W        W48178  37.691  15.146   3.670
75754W        W48179  15.217  21.708   3.152
75755W        W48180   3.098  14.345   2.110
75756W        W48181  29.014  42.674  14.492
75757W        W48182   3.908   8.767  11.735
75758W        W48183  44.387   0.249  12.857
75759W        W48184  36.657  22.284  13.403
75760W        W48185  14.399  14.221  11.635
75761W        W48186  13.034  12.351   3.253
75762W        W48187  44.464   7.877   1.261
75763W        W48188   3.732   8.395  14.234
75764W        W48189   6.943   5.327  11.369
75765W        W48190  31.931  24.065   4.207
75766W        W48191  29.692   9.383   1.768
75767W        W48192  33.198  33.556   3.211
75768W        W48193  21.501  36.528  11.565
75769W        W48194  24.681  34.724  10.768
75770W        W48195  31.915   4.852   1.389
75771W        W48196  23.324  41.330   3.790
75772W        W48197  23.444  23.259  13.001
75773W        W48198  15.640   1.361  10.867
75774W        W48199  14.009  30.659   2.902
75775W        W48200   7.763  10.782  13.829
75776W        W48201  24.110   2.532   2.382
75777W        W48202  40.056  44.860  13.027
75778W        W48203  31.963  29.391   1.895
75779W        W48204  25.570   5.768  11.091
75780W        W48205  10.872  35.253   1.053
75781W        W48206  17.749  32.442  12.958
75782W        W48207  32.681   5.883  14.396
75783W        W48208  28.055   5.158   0.213
75784W        W48209  33.354  22.454  13.816
75785W        W48210  41.600   5.926  11.186
75786W        W48211   5.146  36.376  14.489
75787W        W48212   5.728  16.553   5.002
75788W        W48213  24.055  40.260  14.402
75789W        W48214  12.426   6.879   4.313
75790W        W48215  44.002   2.875  12.121
75791W        W48216  42.163  39.081   0.478
75792W        W48217  23.056  11.720   9.642
75793W        W48218  24.563  37.424   1.711
75794W        W48219  14.911  10.250  10.584
75795W        W48220  18.998  12.780  11.431
75796W        W48221  14.126  19.366  13.920
75797W        W48222  41.402   2.911  14.911
75798W        W48223  16.735  39.873   2.160
75799W        W48224  37.892  35.002  13.005
75800W        W48225  18.670   5.019  11.174
75801W        W48226  16.453  11.221  14.112
75802W        W48227   4.041  29.353   0.413
75803W        W48228   3.806  36.534   1.369
75804W        W48229  35.856   5.822   1.234
75805W        W48230  29.040  22.155   1.477
75806W        W48231   0.891  44.851   0.267
75807W        W48232   7.786  32.648  11.774
75808W        W48233  39.457  22.837   1.646
75809W        W48234  31.928   7.678   2.846
75810W        W48235  34.793  19.992   0.832
75811W        W48236  16.618  16.344  14.802
75812W        W48237   4.654  33.152   2.250
75813W        W48238  15.830  22.555   4.560
75814W        W48239  21.408  44.527  12.441
75815W        W48240  32.587   7.293   4.804
75816W        W48241   3.845  42.273   1.662
75817W        W48242   0.879  26.704   4.140
75818W        W48243  14.983  30.963  11.422
75819W        W48244   8.631  40.503  11.326
75820W        W48245  11.817  44.442  11.852
75821W        W48246  26.206  15.943  14.407
75822W        W48247  40.602  17.173  12.418
75823W        W48248  32.611  16.790  10.697
75824W        W48249  22.922  40.864  12.057
75825W        W48250  21.119  44.352   2.226
75826W        W48251  31.319  35.367  12.452
75827W        W48252  27.049  18.243  11.412
75828W        W48253  37.276  23.126  11.488
75829W        W48254   6.110  21.709   2.261
75830W        W48255  16.072   2.361  10.975
75831W        W48256  25.125  29.550   2.881
75832W        W48257  29.930  44.492  11.596
75833W        W48258   0.895  16.253  14.621
75834W        W48259  32.996  23.461  13.964
75835W        W48260   4.859  24.595   4.363
75836W        W48261  17.135  12.060  13.840
75837W        W48262   7.746   0.347   2.282
75838W        W48263  35.335   5.265   1.868
75839W        W48264   0.885  10.182  13.403
75840W        W48265  32.113  26.342  14.974
75841W        W48266  15.103  27.078  11.640
75842W        W48267  19.061   4.927   0.238
75843W        W48268  44.949   8.849  12.974
75844W        W48269  19.729  27.451   4.619
75845W        W48270  14.842  27.386  13.937
75846W        W48271  14.334  33.563  14.586
75847W        W48272  43.789  33.141  11.538
75848W        W48273  27.052   6.551   2.146
75849W        W48274  24.593   3.797  10.625
75850W        W48275   3.214   3.428  12.502
75851W        W48276  22.478  19.964   4.578
75852W        W48277  32.762  11.781  13.851
75853W        W48278  10.690  16.659   3.246
75854W        W48279  18.716   1.501  13.764
75855W        W48280  15.594   4.838  14.573
75856W        W48281  29.183  43.564  10.383
75857W        W48282  40.780   3.264  13.369
75858W        W48283  39.147  19.621  14.819
75859W        W48284  31.561  32.018  14.419
75860W        W48285  16.271  24.527   2.843
75861W        W48286   7.829   1.055  10.242
75862W        W48287   6.728  27.254   0.030
75863W        W48288  15.534  32.974  14.044
75864W        W48289  42.259  28.505  11.115
75865W        W48290  25.067  25.149  14.092
75866W        W48291  23.965   2.688   0.210
75867W        W48292   9.365  33.499  11.233
75868W        W48293  24.542   3.335   4.637
75869W        W48294  17.147  22.193   3.271
75870W        W48295   0.215   2.831  14.981
75871W        W48296   6.188  30.302   3.693
75872W        W48297   0.567  25.092  10.334
75873W        W48298  26.030   0.876   2.142
75874W        W48299  33.484  12.372  13.328
75875W        W48300   5.158  15.348  14.424
75876W        W48301   6.433   7.251   2.634
75877W        W48302   4.819  35.771  13.392
75878W        W48303   5.946  31.172  11.120
75879W        W48304  18.064  28.485   1.035
75880W        W48305  15.304  29.493  13.318
75881W        W48306  13.584  39.690   1.887
75882W        W48307   2.687   9.166   0.986
75883W        W48308   7.821  21.097  12.886
75884W        W48309  30.366  21.959  14.035
75885W        W48310  14.605  27.424  14.905
75886W        W48311  27.922  28.253   3.604
75887W        W48312  31.101  31.918   1.788
75888W        W48313  22.685  19.689   1.042
75889W        W48314  19.081  32.602  10.122
75890W        W48315  14.306  36.580   4.659
75891W        W48316  33.091  43.570  13.482
75892W        W48317  28.748   6.184  11.685
75893W        W48318  33.547  32.023  12.072
75894W        W48319  30.516  21.375  14.760
75895W        W48320  29.570   5.086   1.922
75896W        W48321   1.726  28.451   0.455
75897W        W48322  25.442  12.443   4.156
75898W        W48323  30.398  18.803  14.838
75899W        W48324  34.685   9.312   4.318
75900W        W48325   5.358  22.012  13.770
75901W        W48326  38.482  43.938  11.200
75902W        W48327  44.681  14.324   2.332
75903W        W48328  33.623  37.445  12.005
75904W        W48329  13.313  19.276   1.863
75905W        W48330   0.692   8.106   4.138
75906W        W48331  19.288  16.966  11.321
75907W        W48332  24.237  36.788  14.392
75908W        W48333  24.560  19.560   0.862
75909W        W48334   1.870  18.696  14.617
75910W        W48335  15.084  14.601   4.974
75911W        W48336  28.121  21.093  11.186
75912W        W48337  37.076  35.920   0.046
75913W        W48338   1.245  32.838   0.768
75914W        W48339   5.681  18.545   4.090
75915W        W48340   1.838   6.212   4.014
75916W        W48341   1.277  30.601  12.544
75917W        W48342  25.982  32.958  12.702
75918W        W48343  29.390  15.846   2.194
75919W        W48344  11.646  16.988   3.672
75920W        W48345  27.001   9.888  11.886
75921W        W48346  11.702  28.814   4.578
75922W        W48347  29.013  20.155   3.058
75923W        W48348  27.537  26.962  13.968
75924W        W48349  37.971  28.468  10.667
75925W        W48350  19.986  41.432   2.466
75926W        W48351  17.116  34.518   3.556
75927W        W48352  23.465  25.644   4.077
75928W        W48353   4.819  30.552  12.938
75929W        W48354  22.709  41.612   2.457
75930W        W48355  29.055   8.681  14.723
75931W        W48356   3.546   1.762   1.222
75932W        W48357  43.834  38.260  13.412
75933W        W48358  11.548  30.462   1.337
75934W        W48359   4.476  23.503  14.315
75935W        W48360  36.878  23.718  14.293
75936W        W48361  16.058   5.001  14.383
75937W        W48362  27.118  17.750   2.844
75938W        W48363  26.628  13.206   2.775
75939W        W48364  38.411  32.928  14.556
75940W        W48365  27.635  19.715  13.855
75941W        W48366  17.309  23.629  13.492
75942W        W48367  28.038  19.252  11.518
75943W        W48368  27.975  40.557   1.889
75944W        W48369  31.007   6.673  12.465
75945W        W48370  43.871  10.858   4.083
75946W        W48371  21.806  25.320   3.280
75947W        W48372  22.910  14.040   1.263
75948W        W48373  11.357  37.575   1.107
75949W        W48374  10.843  31.011  11.334
75950W        W48375  11.897  31.369  14.660
75951W        W48376  38.810  22.082  11.769
75952W        W48377  34.827  13.389   4.081
75953W        W48378  40.549  13.624   1.545
75954W        W48379  41.881  39.439  10.354
75955W        W48380  13.024   3.318  12.377
75956W        W48381   6.165   3.173   3.635
75957W        W48382  37.942  37.329   4.170
75958W        W48383  24.485  44.004  13.970
75959W        W48384  30.986  19.070   5.549
75960W        W48385  34.148  17.272   3.333
75961W        W48386  28.730  21.265  14.398
75962W        W48387  36.544  37.904   3.821
75963W        W48388  33.090  38.313   3.395
75964W        W48389   6.342   2.828   2.142
75965W        W48390  20.435  41.972   4.162
75966W        W48391   6.862  14.541   3.201
75967W        W48392  39.374  43.078   3.243
75968W        W48393  34.142   6.792   0.991
75969W        W48394   6.827  34.080   3.671
75970W        W48395   9.265   3.942   1.815
75971W        W48396  22.145  20.483   3.220
75972W        W48397  29.312   4.005   0.998
75973W        W48398  31.544  31.520  13.453
75974W        W48399  42.930   4.921   4.583
75975W        W48400  11.605   9.639   1.216
75976W        W48401  11.310  26.718  12.453
75977W        W48402  15.177  36.274   3.957
75978W        W48403  43.650  31.837   1.013
75979W        W48404  36.841  33.284   4.611
75980W        W48405  22.973  30.649   3.798
75981W        W48406  12.380   8.335   0.368
75982W        W48407  30.013  19.055   0.123
75983W        W48408  32.930  15.217   0.895
75984W        W48409   5.925   5.657  12.363
75985W        W48410   9.294  20.985  12.115
75986W        W48411  34.282   9.668   4.345
75987W        W48412  15.673  35.982  12.566
75988W        W48413   8.202  25.467  11.642
75989W        W48414  40.619   0.224  10.675
75990W        W48415  12.117  34.693  14.351
75991W        W48416  22.742  12.622   4.771
75992W        W48417  22.179   4.369  10.679
75993W        W48418   3.435   9.428  14.521
75994W        W48419  16.649  25.046  10.660
75995W        W48420  34.330   7.770   3.299
75996W        W48421  20.104  32.672  13.418
75997W        W48422  25.142   5.836  14.053
75998W        W48423   4.043  32.684  11.306
75999W        W48424  18.070  39.881  14.513
76000W        W48425   1.992  20.266  14.731
76001W        W48426   2.270  23.820  11.274
76002W        W48427  23.998  18.971  11.916
76003W        W48428  20.640  32.207  14.370
76004W        W48429  17.274  32.342   0.967
76005W        W48430   6.648  15.533   0.421
76006W        W48431  23.507   1.976  11.115
76007W        W48432  31.684   4.341   1.352
76008W        W48433  35.731   5.875   3.022
76009W        W48434   8.964   0.831   0.551
76010W        W48435  26.436  14.757  10.494
76011W        W48436  17.860   7.821  11.141
76012W        W48437  18.681   9.842  10.323
76013W        W48438  44.505  38.358  11.087
76014W        W48439  29.098  29.907   2.787
76015W        W48440  13.626  27.232  10.665
76016W        W48441   5.784   1.596   1.702
76017W        W48442   5.313   4.997  13.408
76018W        W48443  43.855  32.653  12.487
76019W        W48444  36.131  19.504  11.445
76020W        W48445  37.352  28.450   4.100
76021W        W48446  10.026  30.465   3.395
76022W        W48447   0.821  40.835  13.288
76023W        W48448   6.850  35.899   3.352
76024W        W48449   9.896  17.644   0.948
76025W        W48450  10.935   0.046   2.016
76026W        W48451  17.559  17.407   2.687
76027W        W48452  36.806  35.646  12.099
76028W        W48453  40.109  29.642  10.497
76029W        W48454  26.049   6.523   1.842
76030W        W48455  34.341  10.245   2.832
76031W        W48456   9.641  13.161  11.180
76032W        W48457  22.885  36.475  13.737
76033W        W48458  18.159  24.933   2.826
76034W        W48459  12.143  29.698  11.785
76035W        W48460  22.710  17.755   0.389
76036W        W48461  10.727  12.101   2.324
76037W        W48462  27.367   7.331   1.916
76038W        W48463  13.088   8.719   1.649
76039W        W48464  31.518   3.935   3.328
76040W        W48465  18.775  19.512   4.639
76041W        W48466   8.315  37.922   9.987
76042W        W48467  14.890  35.475   3.401
76043W        W48468  33.591  15.559   3.022
76044W        W48469   6.288  11.711   1.347
76045W        W48470  36.996  24.959  12.428
76046W        W48471  16.272  38.097  11.097
76047W        W48472  31.024  39.500  12.320
76048W        W48473   3.043  23.264   2.664
76049W        W48474  18.045  34.530  14.292
76050W        W48475  33.993  22.589  12.558
76051W        W48476   6.011  22.580   4.142
76052W        W48477   1.348  27.831  11.880
76053W        W48478  32.933  15.194  14.082
76054W        W48479  41.806  37.940   1.254
76055W        W48480  12.135  41.716  12.985
76056W        W48481  18.744  20.667   4.286
76057W        W48482  36.573  14.365   0.208
76058W        W48483  41.319   6.875   1.705
76059W        W48484   7.966   5.573   2.637
76060W        W48485  19.264  18.040  14.782
76061W        W48486  10.858  43.856   1.284
76062W        W48487   7.634  15.210  11.998
76063W        W48488  25.132  27.582  13.524
76064W        W48489  17.250  23.938  11.053
76065W        W48490  40.062   9.121  11.562
76066W        W48491  31.845  23.615  10.600
76067W        W48492  21.711   2.567   0.337
76068W        W48493   3.158   2.449   3.505
76069W        W48494  12.278  41.410  11.555
76070W        W48495  38.311  12.168   1.503
76071W        W48496  36.937  23.571   5.033
76072W        W48497  20.668   4.913   1.226
76073W        W48498   2.456  24.222  13.957
76074W        W48499   3.339  25.984  14.883
76075W        W48500  20.649   5.358   0.981
76076W        W48501  22.593   5.838  13.339
76077W        W48502  37.383  11.594   1.806
76078W        W48503   8.424  23.807   4.059
76079W        W48504  44.707   3.168   1.681
76080W        W48505  38.370  26.209   4.506
76081W        W48506  22.326  18.202  12.906
76082W        W48507  17.021  40.478  12.188
76083W        W48508   9.071  31.538  14.866
76084W        W48509  39.690  30.841   4.606
76085W        W48510  27.855  42.924   0.322
76086W        W48511  39.375  12.018  12.926
76087W        W48512  19.888  20.172  10.571
76088W        W48513  31.097   0.330   0.793
76089W        W48514  31.673  15.688  11.951
76090W        W48515  27.051   5.731   0.379
76091W        W48516  30.817  17.349   4.135
76092W        W48517  18.587  16.646   2.761
76093W        W48518   7.035  17.789  11.668
76094W        W48519  14.532   5.951   0.202
76095W        W48520   8.619  24.905   4.760
76096W        W48521  11.410  15.829  11.569
76097W        W48522  26.354  38.312   0.583
76098W        W48523  43.266  13.616  11.984
76099W        W48524  28.571  27.041  12.108
76100W        W48525  17.587  34.453  13.481
76101W        W48526   3.995  22.626   3.191
76102W        W48527  26.984  41.099  14.098
76103W        W48528  11.009  41.946   0.926
76104W        W48529  36.595  37.768   0.912
76105W        W48530   6.751   9.619   1.746
76106W        W48531  36.456  10.199  13.541
76107W        W48532   5.240  41.458  12.083
76108W        W48533   0.287  30.430  11.495
76109W        W48534  11.320  17.313   0.908
76110W        W48535  35.540   0.314  10.890
76111W        W48536   1.680  37.944   0.420
76112W        W48537  36.683  17.362   2.249
76113W        W48538  19.484  28.151   2.982
76114W        W48539  10.145  16.654  12.042
76115W        W48540   7.775  41.178  13.295
76116W        W48541  12.633  28.387  11.099
76117W        W48542  37.640  14.628   2.705
76118W        W48543  14.056  26.181   4.695
76119W        W48544   1.748   8.350  12.071
76120W        W48545   6.786   8.065   3.553
76121W        W48546  42.978   1.530  14.847
76122W        W48547  23.950  22.736   3.383
76123W        W48548  27.002   9.611   4.171
76124W        W48549  18.064  26.362  12.847
76125W        W48550  12.850  32.611   4.677
76126W        W48551  15.389   4.889   4.156
76127W        W48552  43.541  37.758  10.708
76128W        W48553  41.035  20.200   3.164
76129W        W48554  16.069  37.635   0.711
76130W        W48555  15.299  31.397   0.966
76131W        W48556  26.188  38.047  10.821
76132W        W48557   3.135  10.154   4.915
76133W        W48558  13.299  36.354   1.299
76134W        W48559   0.024   6.951   1.292
76135W        W48560  14.896  18.973  11.030
76136W        W48561  44.315  29.425  13.853
76137W        W48562  18.546  23.575   0.296
76138W        W48563   8.652   8.772   4.516
76139W        W48564  38.436  10.169   0.288
76140W        W48565  28.036   7.642   3.291
76141W        W48566  29.773   0.073  13.463
76142W        W48567  26.559  36.063  11.473
76143W        W48568   3.434  12.344  12.035
76144W        W48569   2.412  38.826   9.952
76145W        W48570  19.573   9.243   3.642
76146W        W48571   9.600  24.456   4.538
76147W        W48572  39.336  28.925   1.962
76148W        W48573   0.573  28.380  12.472
76149W        W48574  39.731  23.536  14.323
76150W        W48575  40.436  35.478   0.675
76151W        W48576  38.307  37.778   0.680
76152W        W48577  36.371  40.710  14.421
76153W        W48578  29.288  21.555   2.209
76154W        W48579  34.642  32.112   1.800
76155W        W48580  20.149  11.039   1.198
76156W        W48581  12.739  37.436  14.473
76157W        W48582  39.064   5.201   1.731
76158W        W48583   8.027  30.986  12.993
76159W        W48584  36.596  33.878  10.718
76160W        W48585  18.128  29.683   2.764
76161W        W48586  32.837  38.904  10.532
76162W        W48587   9.271  22.534  14.981
76163W        W48588  25.239  43.891  14.447
76164W        W48589   2.925  23.614  10.644
76165W        W48590  42.714  13.581   2.991
76166W        W48591  39.418  25.282  12.993
76167W        W48592   0.247  32.927  14.785
76168W        W48593  26.912  43.398  11.020
76169W        W48594  43.521  39.666  11.419
76170W        W48595  32.838  34.000  13.516
76171W        W48596  35.395  23.499   1.849
76172W        W48597  10.926  30.921  13.009
76173W        W48598  22.961  36.329  11.468
76174W        W48599  12.392  21.028   0.920
76175W        W48600  23.675  12.654   4.270
76176W        W48601  30.620   9.641   0.875
76177W        W48602  30.858   8.384  13.479
76178W        W48603   8.625  18.001   3.800
76179W        W48604  34.624  39.052   2.705
76180W        W48605  20.283   2.421  11.582
76181W        W48606  20.220  33.249  12.581
76182W        W48607  41.349  23.692   2.343
76183W        W48608  35.292  16.704   2.435
76184W        W48609  36.523   9.469  14.737
76185W        W48610   8.849  30.945   4.299
76186W        W48611  31.730  14.118  13.926
76187W        W48612   9.362  19.129   3.689
76188W        W48613   4.357  25.057  10.641
76189W        W48614  33.541   3.778   0.217
76190W        W48615   9.601  27.381   3.144
76191W        W48616   1.201  38.411   3.649
76192W        W48617   3.771  22.609   1.706
76193W        W48618   3.642  19.654   2.465
76194W        W48619  10.890  10.194   0.341
76195W        W48620  13.743  15.290  11.143
76196W        W48621  20.453  37.536  12.910
76197W        W48622   2.554  43.209  11.067
76198W        W48623  30.675  44.040   5.062
76199W        W48624   2.256   0.785   1.404
76200W        W48625  11.270  34.913   4.832
76201W        W48626  26.699  18.315  10.188
76202W        W48627   2.390  14.172   3.948
76203W        W48628  33.344   2.514  11.445
76204W        W48629  26.440  16.761  10.708
76205W        W48630  44.260  42.525  11.051
76206W        W48631  34.494  28.252  14.355
76207W        W48632   6.374  14.043   1.184
76208W        W48633  33.537  34.047   1.685
76209W        W48634  29.998  43.207  11.430
76210W        W48635  33.445  19.768  12.366
76211W        W48636  23.568  34.028  10.898
76212W        W48637  37.007   3.748   0.200
76213W        W48638   4.060  34.535   1.932
76214W        W48639   7.095  35.830  11.673
76215W        W48640  30.162  23.970   1.760
76216W        W48641   4.420  44.340   1.951
76217W        W48642  40.889  37.518  14.497
76218W        W48643   4.522  36.144   0.376
76219W        W48644  29.681  23.487  13.672
76220W        W48645  32.600  26.347   4.900
76221W        W48646  30.956   6.649  13.314
76222W        W48647  42.968  30.642  13.085
76223W        W48648  25.476  15.342  12.620
76224W        W48649   9.312  43.335  11.438
76225W        W48650  26.488   8.270   1.344
76226W        W48651  32.512  10.302   3.651
76227W        W48652  39.963  32.081  11.684
76228W        W48653   1.125   6.880   2.811
76229W        W48654   0.460  33.342   2.843
76230W        W48655  39.047  13.889   4.046
76231W        W48656  34.054  32.752  14.680
76232W        W48657  33.472   8.553  13.998
76233W        W48658   9.285   7.921   2.724
76234W        W48659  30.541  13.669  14.938
76235W        W48660  44.522  18.654  11.196
76236W        W48661  27.187  18.328  13.767
76237W        W48662  22.620  19.535  14.929
76238W        W48663  24.296  12.305   0.293
76239W        W48664  19.319   7.336  12.565
76240W        W48665  16.888   0.741  14.529
76241W        W48666  38.683  21.108   4.721
76242W        W48667  41.954   5.792   4.159
76243W        W48668  44.884  41.545   4.110
76244W        W48669  29.628   2.855   1.652
76245W        W48670  21.117  34.448   0.890
76246W        W48671  37.038  36.693   3.678
76247W        W48672  15.306   3.117   3.282
76248W        W48673  33.666  44.433   2.796
76249W        W48674  11.316  29.875  10.562
76250W        W48675  42.401  21.232   1.008
76251W        W48676   3.305  19.652  11.760
76252W        W48677  33.027  40.823  13.991
76253W        W48678  34.655  14.743  14.334
76254W        W48679   8.247  20.604   0.351
76255W        W48680  39.079  20.549  11.442
76256W        W48681  39.751  13.227   1.655
76257W        W48682  23.841   4.475  12.006
76258W        W48683   4.729  17.339   3.394
76259W        W48684  15.932   0.420  11.149
76260W        W48685  13.517   3.472   4.891
76261W        W48686   6.557  35.566  12.885
76262W        W48687  19.077  29.416  11.572
76263W        W48688   1.419  34.111   4.760
76264W        W48689  26.153   9.746  13.804
76265W        W48690  35.025  29.139   3.628
76266W        W48691  44.077  41.432  11.606
76267W        W48692  41.891  21.948   2.375
76268W        W48693  38.045  12.837  14.928
76269W        W48694  12.808  44.387  10.701
76270W        W48695  43.855  38.286  12.856
76271W        W48696   2.674  22.588   3.619
76272W        W48697  28.476   9.243   1.327
76273W        W48698  39.461  10.704  14.430
76274W        W48699   8.393   9.371   0.337
76275W        W48700  34.550   2.288  11.522
76276W        W48701  18.150  13.361  14.725
76277W        W48702  29.457  24.448   1.359
76278W        W48703  14.525  43.761   0.289
76279W        W48704  20.136   0.537  14.934
76280W        W48705  10.579  29.577   2.157
76281W        W48706  22.888   1.803  10.548
76282W        W48707  11.708  25.779  10.824
76283W        W48708  11.733  42.507  13.385
76284W        W48709  21.709  35.419   2.842
76285W        W48710  31.582  43.810   4.624
76286W        W48711  25.202  30.011   2.186
76287W        W48712  40.827  39.617   0.479
76288W        W48713  17.142  32.062   9.736
76289W        W48714  13.693  33.783   5.078
76290W        W48715  38.152  27.452   0.312
76291W        W48716  30.953  33.962  10.492
76292W        W48717  44.422  29.601   4.219
76293W        W48718  18.661  22.160   4.113
76294W        W48719  10.657  27.718  10.276
76295W        W48720   6.953  28.014  12.455
76296W        W48721  17.345  38.540   0.607
76297W        W48722  35.908   3.538  14.308
76298W        W48723  43.377  40.440   1.255
76299W        W48724  16.348  20.093   0.664
76300W        W48725  19.578  28.446  11.982
76301W        W48726  26.082   6.553   0.725
76302W        W48727  17.162  29.706   1.289
76303W        W48728  40.063  39.388   4.734
76304W        W48729  43.805  44.047  13.924
76305W        W48730  35.880  34.537   4.132
76306W        W48731  35.834  17.678  14.385
76307W        W48732  12.752  41.538   4.375
76308W        W48733  42.245  34.318  13.309
76309W        W48734  26.532  19.167   4.131
76310W        W48735  23.022  40.836  10.568
76311W        W48736  24.659  12.791   0.365
76312W        W48737   7.392  15.407   0.976
76313W        W48738  21.177   2.211   4.712
76314W        W48739  32.966  24.857  12.947
76315W        W48740  13.957  16.677   1.818
76316W        W48741  22.248  12.296   2.222
76317W        W48742  41.883   7.513  12.388
76318W        W48743  30.379  10.842  14.368
76319W        W48744  13.389   5.034   5.110
76320W        W48745  20.035  16.068   3.939
76321W        W48746  30.696  23.968   0.529
76322W        W48747   1.023  34.549  11.016
76323W        W48748  24.541  36.080   4.899
76324W        W48749  23.601  37.546  13.597
76325W        W48750  40.482  37.010  11.565
76326W        W48751   2.956  23.161   4.739
76327W        W48752  42.999  44.743  13.560
76328W        W48753  23.816  36.294  14.874
76329W        W48754  31.734   2.362   3.755
76330W        W48755  12.884  43.519   1.300
76331W        W48756  33.880  16.136  11.457
76332W        W48757  10.664  31.063   2.822
76333W        W48758   7.733  12.840   3.149
76334W        W48759  22.034  26.626  12.441
76335W        W48760   7.430  34.302  11.420
76336W        W48761  23.812   0.496  11.444
76337W        W48762  33.038  39.662   3.622
76338W        W48763  22.847  29.771   0.361
76339W        W48764  43.570  43.457  14.379
76340W        W48765  39.422  23.635  10.708
76341W        W48766  26.748  30.349   3.216
76342W        W48767  17.860   5.290  13.826
76343W        W48768  21.525  34.591   0.429
76344W        W48769   1.216  40.500   1.896
76345W        W48770  31.078  26.505   1.213
76346W        W48771  33.659  35.431   3.324
76347W        W48772   4.639  30.647   4.200
76348W        W48773  16.354  23.042  11.378
76349W        W48774  40.773  16.805   0.347
76350W        W48775   1.153  33.743  13.853
76351W        W48776  12.618  10.966   2.354
76352W        W48777  37.684  15.592   1.990
76353W        W48778   6.170  14.253   4.604
76354W        W48779   8.587   8.970   9.568
76355W        W48780  22.115  30.711   2.284
76356W        W48781  44.914  10.149  14.299
76357W        W48782  13.689  24.227   1.661
76358W        W48783  37.596  18.226   2.091
76359W        W48784   6.788  14.874   1.762
76360W        W48785   6.303   1.995   1.103
76361W        W48786  23.046   3.157   2.365
76362W        W48787  41.506  16.269   0.283
76363W        W48788  41.140  11.104   1.901
76364W        W48789  12.896   8.378  14.341
76365W        W48790  26.403   8.801   0.697
76366W        W48791  44.424   6.399  12.455
76367W        W48792   8.424   5.963   1.315
76368W        W48793  24.074   8.867  13.259
76369W        W48794  12.620  19.062   2.876
76370W        W48795  42.759   4.617  10.400
76371W        W48796  31.438  10.352  11.165
76372W        W48797   3.155  37.839   2.277
76373W        W48798  44.912  10.846  10.635
76374W        W48799  15.174  21.469  13.642
76375W        W48800   0.850  29.926   1.851
76376W        W48801  17.819  11.237   4.653
76377W        W48802   3.753  42.365   2.163
76378W        W48803  39.890   4.358   0.732
76379W        W48804  18.972  16.663  11.647
76380W        W48805  23.685  39.930  10.759
76381W        W48806   0.015  44.496   2.424
76382W        W48807  12.735  31.371  14.469
76383W        W48808  10.386  37.293   0.662
76384W        W48809  17.236  23.143  12.971
76385W        W48810  10.432  27.653   3.813
76386W        W48811  17.815  10.638   1.997
76387W        W48812  19.135  28.135   1.934
76388W        W48813  10.942   8.768  12.818
76389W        W48814  34.290   6.274   2.711
76390W        W48815  22.751  35.449  12.939
76391W        W48816  29.948  11.468  13.474
76392W        W48817  31.905   4.473   0.902
76393W        W48818  26.023  12.216  11.676
76394W        W48819  20.942  42.834  10.343
76395W        W48820   2.535  31.988   0.463
76396W        W48821  42.414  36.269   4.075
76397W        W48822   6.892   4.054  14.894
76398W        W48823  10.430  15.520  14.446
76399W        W48824  30.087  37.089   3.234
76400W        W48825  32.545  22.276  11.490
76401W        W48826  31.905  37.015  13.943
76402W        W48827  28.220   2.965   1.044
76403W        W48828  18.949  19.009   3.116
76404W        W48829  11.935  21.572   1.340
76405W        W48830  40.802  15.253  13.416
76406W        W48831  29.546  17.277  10.923
76407W        W48832  20.318  16.604   0.271
76408W        W48833   5.779  27.003  14.218
76409W        W48834  17.649  25.651   5.006
76410W        W48835   2.518  13.367   1.693
76411W        W48836  37.885  11.311  11.636
76412W        W48837  38.304   7.134   0.527
76413W        W48838  29.634   0.645  11.982
76414W        W48839  13.674  14.941   4.211
76415W        W48840  26.008  16.693  14.924
76416W        W48841  34.519   1.903  13.600
76417W        W48842  42.777  28.582  11.196
76418W        W48843   1.892  28.047   4.562
76419W        W48844  26.379  33.086   1.083
76420W        W48845   4.977  12.733   0.485
76421W        W48846  30.227   7.597   0.261
76422W        W48847  37.688   1.922   4.521
76423W        W48848  13.006  41.250  11.167
76424W        W48849  14.097  10.317   1.914
76425W        W48850   4.846  24.291  11.401
76426W        W48851  12.116  43.789   4.224
76427W        W48852  20.997  14.223  10.601
76428W        W48853  17.650  17.069   0.967
76429W        W48854  38.252  33.106   3.728
76430W        W48855  11.745  43.506  14.951
76431W        W48856  44.290   1.849  11.526
76432W        W48857  22.565   4.268  12.167
76433W        W48858  40.807  37.334   0.056
76434W        W48859  19.512  30.502  10.286
76435W        W48860  19.330  26.591  12.465
76436W        W48861  22.248  34.408  10.354
76437W        W48862  42.437  39.732   2.670
76438W        W48863  11.090   2.194   1.362
76439W        W48864   6.525  34.981   1.201
76440W        W48865  29.575  30.990  11.087
76441W        W48866  38.836   6.874   4.217
76442W        W48867  22.257  29.094   4.162
76443W        W48868  23.768   9.266  12.498
76444W        W48869  43.888  21.105  12.299
76445W        W48870  34.934  40.373  10.248
76446W        W48871   1.022  30.711   3.164
76447W        W48872  12.174  24.212   5.230
76448W        W48873  39.885  18.022  10.475
76449W        W48874  42.750   6.443   2.259
76450W        W48875  17.844  42.816  11.424
76451W        W48876  34.736  35.021   3.599
76452W        W48877  26.765  12.306  10.542
76453W        W48878  44.425  39.583   4.001
76454W        W48879  31.583  31.670   0.369
76455W        W48880  16.653   4.746  12.019
76456W        W48881   1.935  30.855   3.676
76457W        W48882  39.281   5.649   4.200
76458W        W48883  16.351  22.818   0.188
76459W        W48884  39.365  41.717  13.514
76460W        W48885  18.685  38.479   0.874
76461W        W48886  44.487  19.580   0.716
76462W        W48887  10.263   9.681   0.493
76463W        W48888  11.814  20.284   2.864
76464W        W48889  18.046  30.373   3.336
76465W        W48890  40.319  20.490   1.345
76466W        W48891  26.134  12.796   0.938
76467W        W48892   3.206  14.167  13.600
76468W        W48893   6.683  28.468  12.404
76469W        W48894  41.885  10.383   3.080
76470W        W48895  41.393  44.383  12.452
76471W        W48896   5.540   6.391  11.736
76472W        W48897  15.590  18.264   4.664
76473W        W48898   5.627  44.914   2.841
76474W        W48899   0.441  36.416  14.661
76475W        W48900  14.894  38.192  14.187
76476W        W48901   8.182  11.711  10.737
76477W        W48902  29.166   0.944   3.858
76478W        W48903  38.246  28.134   2.860
76479W        W48904  18.594  32.647   4.191
76480W        W48905  24.594  15.621   4.042
76481W        W48906  41.726   4.877  12.246
76482W        W48907  13.169  42.548   4.099
76483W        W48908  12.233   8.880  10.623
76484W        W48909   5.669  29.119  12.521
76485W        W48910  13.523  44.496  11.447
76486W        W48911   8.632  19.420  13.625
76487W        W48912  13.136  33.629   0.883
76488W        W48913  26.233  11.859   1.357
76489W        W48914  18.916  25.438   2.357
76490W        W48915  43.910  33.625   0.339
76491W        W48916   3.954   6.879  13.158
76492W        W48917  17.792   2.793  12.924
76493W        W48918   0.770   7.300  14.274
76494W        W48919  27.643   5.861   1.230
76495W        W48920  37.865  39.875  13.620
76496W        W48921  23.513  24.017   4.650
76497W        W48922   9.212   5.327  10.262
76498W        W48923  14.482  25.057  12.404
76499W        W48924  30.604  36.003   3.713
76500W        W48925  36.044  16.879  13.500
76501W        W48926  43.199  25.654  14.776
76502W        W48927  37.134   4.153   2.845
76503W        W48928  15.864  44.467  10.774
76504W        W48929  10.750  16.667   4.541
76505W        W48930  23.041  35.173   3.610
76506W        W48931  36.452  28.931   1.414
76507W        W48932   2.229  23.358   1.010
76508W        W48933  12.377   9.230   1.767
76509W        W48934   0.295  25.615  14.423
76510W        W48935  10.700  34.519  14.544
76511W        W48936  17.733  24.048   3.772
76512W        W48937  28.058  30.034   4.202
76513W        W48938  43.354  21.309   3.258
76514W        W48939  30.610   6.500   1.337
76515W        W48940   6.375  11.701  12.054
76516W        W48941   3.964  29.497  13.067
76517W        W48942   8.613  25.749   0.274
76518W        W48943  42.983   3.259   0.208
76519W        W48944   5.486  40.544  12.614
76520W        W48945  36.562  37.169  14.730
76521W        W48946  21.114   2.612  11.250
76522W        W48947  33.468  14.655  11.434
76523W        W48948  43.382  10.152  12.030
76524W        W48949  11.857  30.136  13.370
76525W        W48950  28.034  12.864   1.176
76526W        W48951  16.030   6.728  11.603
76527W        W48952  11.634  43.569  13.576
76528W        W48953  21.822   5.686   3.611
76529W        W48954  27.267  31.008   1.161
76530W        W48955  38.559  28.916   3.655
76531W        W48956  14.665  22.555  10.608
76532W        W48957  30.003  24.844  10.638
76533W        W48958   7.476   4.767   0.368
76534W        W48959  10.286   7.304  14.863
76535W        W48960  24.371   0.376   2.823
76536W        W48961  24.261  15.826  13.467
76537W        W48962   9.788  18.189  11.030
76538W        W48963  44.178  32.404  12.017
76539W        W48964  22.457  38.543   0.628
76540W        W48965  42.702   6.953  14.596
76541W        W48966  18.858   7.477  14.281
76542W        W48967  18.128   0.536   2.788
76543W        W48968  20.258  32.528  11.023
76544W        W48969  38.063  40.252   4.825
76545W        W48970  13.196  27.178   2.170
76546W        W48971  41.092  16.008  12.499
76547W        W48972  24.075  35.815  14.078
76548W        W48973  40.253   9.393  11.163
76549W        W48974  29.393   7.613   1.825
76550W        W48975   3.273  29.975   1.824
76551W        W48976  10.563   6.400  10.216
76552W        W48977  33.081  18.606  10.980
76553W        W48978  15.809   4.361  10.665
76554W        W48979   6.924   6.742   3.802
76555W        W48980  12.411  28.018   3.722
76556W        W48981  23.250  44.538  14.067
76557W        W48982  37.567  30.355   1.413
76558W        W48983  32.946  33.417  12.886
76559W        W48984  38.823  28.158   1.537
76560W        W48985   0.767  18.914  13.642
76561W        W48986  29.183  31.671   0.188
76562W        W48987   6.802  20.593   3.213
76563W        W48988   0.525  10.451   3.479
76564W        W48989  43.650   6.906   2.938
76565W        W48990  23.245  40.254  11.422
76566W        W48991  20.885  12.569  13.644
76567W        W48992  12.738  31.558  12.946
76568W        W48993  38.021  34.964  12.503
76569W        W48994  28.826  27.215   1.456
76570W        W48995  13.347  40.321   0.333
76571W        W48996  11.727  32.999  13.158
76572W        W48997  41.773   9.086   0.784
76573W        W48998  11.551  26.454   0.396
76574W        W48999  17.672  17.638   0.242
76575W        W49000  36.422  25.482   4.200
76576W        W49001  37.965  44.538  12.121
76577W        W49002   2.247  41.542  13.603
76578W        W49003  10.496  11.295  12.515
76579W        W49004  29.246   8.645  13.758
76580W        W49005  38.633  20.773  11.577
76581W        W49006  28.355  23.063  11.063
76582W        W49007  17.004  16.880   4.059
76583W        W49008  10.881   6.656   3.196
76584W        W49009   8.395  32.701  10.973
76585W        W49010  13.844  41.807   1.810
76586W        W49011  32.900  29.218  12.636
76587W        W49012  42.836   6.988  12.878
76588W        W49013   2.708  32.183  13.056
76589W        W49014   6.209  14.600  11.071
76590W        W49015  32.301  16.197  11.280
76591W        W49016  26.177  23.661  13.048
76592W        W49017  21.496  22.653  13.328
76593W        W49018  43.252  37.448  14.079
76594W        W49019   5.914  32.931   1.274
76595W        W49020  34.926  22.684   3.885
76596W        W49021  16.598  25.149   0.899
76597W        W49022   1.052   8.223   0.817
76598W        W49023  29.929  38.032   1.501
76599W        W49024  27.918  43.348   1.927
76600W        W49025  43.753  18.585  11.596
76601W        W49026  21.361  11.160   2.404
76602W        W49027   0.459  33.864   1.434
76603W        W49028  30.596  33.722  13.476
76604W        W49029  15.902   7.875   2.773
76605W        W49030   9.343  41.471  14.446
76606W        W49031  10.384  42.589   2.666
76607W        W49032   8.493  37.980   9.503
76608W        W49033  44.910  44.045  13.530
76609W        W49034  16.617  18.104  12.708
76610W        W49035  42.032  43.407   1.901
76611W        W49036  30.504  13.629   4.537
76612W        W49037   5.694  17.010   4.295
76613W        W49038  43.404  36.939   2.940
76614W        W49039   5.168  41.908   4.286
76615W        W49040  15.700  36.482   1.461
76616W        W49041  24.120  29.035  14.816
76617W        W49042   9.765  16.642  13.823
76618W        W49043  31.107  17.133   0.635
76619W        W49044  13.717   8.083   4.145
76620W        W49045  36.935  19.103   0.260
76621W        W49046  30.042  43.597   1.395
76622W        W49047  32.084  30.674   2.437
76623W        W49048  28.193  37.484  14.196
76624W        W49049  14.354  13.693   4.090
76625W        W49050  17.985  40.943   3.244
76626W        W49051  38.372  44.409  14.982
76627W        W49052  11.262  12.128   1.424
76628W        W49053   9.801   5.585   1.771
76629W        W49054  37.893  18.115   2.886
76630W        W49055  35.532   3.333  14.627
76631W        W49056  40.262  33.049   3.170
76632W        W49057  36.006  23.037   2.316
76633W        W49058  37.590  29.907   4.341
76634W        W49059   6.831  26.777   2.287
76635W        W49060  11.792  31.860   1.884
76636W        W49061  38.819  14.909   0.507
76637W        W49062   3.522  41.011   3.097
76638W        W49063  28.522   1.733   3.239
76639W        W49064  44.407  15.782   5.038
76640W        W49065  27.890  34.378  11.015
76641W        W49066  31.464  26.960  12.017
76642W        W49067   2.692  23.024   2.384
76643W        W49068  38.614  15.627  14.998
76644W        W49069  14.387  37.334   4.184
76645W        W49070  29.178   1.458  13.027
76646W        W49071  42.960  24.601  12.041
76647W        W49072  21.476   7.760   2.987
76648W        W49073  16.850  12.403   4.303
76649W        W49074   7.619  13.418  14.439
76650W        W49075  24.651  19.765  12.810
76651W        W49076  21.699   3.190   2.439
76652W        W49077   8.113  13.990   0.846
76653W        W49078  26.541   8.977   3.787
76654W        W49079  28.694  28.645  12.422
76655W        W49080  21.220  23.190   0.576
76656W        W49081  19.595   4.364  11.727
76657W        W49082  42.433  12.782   2.231
76658W        W49083  25.060  39.444  14.707
76659W        W49084  35.536  27.257  13.527
76660W        W49085  34.141   1.242  12.419
76661W        W49086  36.641  43.325   2.358
76662W        W49087   5.323   9.111  14.327
76663W        W49088   7.577  12.621  12.510
76664W        W49089  18.337  18.529  10.986
76665W        W49090   1.219  14.059  14.504
76666W        W49091  12.504  41.100  11.198
76667W        W49092   6.336  13.985  10.167
76668W        W49093  20.670  36.112  11.962
76669W        W49094  44.521  17.789  12.042
76670W        W49095  22.555  29.285   1.726
76671W        W49096  30.104   1.460  12.804
76672W        W49097   6.255  21.972  13.399
76673W        W49098   4.875  16.179  14.999
76674W        W49099   3.673  44.462  10.117
76675W        W49100  22.750  11.689   0.848
76676W        W49101  40.323  38.922  12.666
76677W        W49102  36.307  39.915   0.728
76678W        W49103   5.648   9.308   0.912
76679W        W49104  28.943  23.551  14.223
76680W        W49105  24.073  33.117   4.576
76681W        W49106  27.896  17.221   1.829
76682W        W49107   1.017  15.191  11.189
76683W        W49108  15.300  29.246  14.997
76684W        W49109  24.921  17.703   4.651
76685W        W49110   2.824  41.479   0.430
76686W        W49111  34.969  44.747   4.518
76687W        W49112  25.282  13.854   1.360
76688W        W49113  20.356  41.151   2.151
76689W        W49114   2.911   9.655   3.203
76690W        W49115   6.542  10.242   1.016
76691W        W49116  29.066  44.869   3.261
76692W        W49117  19.710  35.055  12.983
76693W        W49118  43.873   3.127   2.311
76694W        W49119  22.364  22.797   0.998
76695W        W49120  25.538  41.510   0.430
76696W        W49121  26.810  10.815   3.511
76697W        W49122  32.890  26.559   4.122
76698W        W49123   4.273   5.712   4.917
76699W        W49124  23.671  43.887  14.964
76700W        W49125  13.347   7.297   0.855
76701W        W49126   6.224  40.170   1.935
76702W        W49127  39.356  20.187  13.358
76703W        W49128  11.336  31.466  12.450
76704W        W49129  15.611  17.297  10.901
76705W        W49130  16.833  13.429  12.867
76706W        W49131  16.478  24.519   4.635
76707W        W49132  40.757   4.891   1.722
76708W        W49133  41.061   0.988  10.588
76709W        W49134  42.225  34.352   4.150
76710W        W49135  37.689  10.323  13.736
76711W        W49136  31.433  36.940   1.123
76712W        W49137   7.818  39.271   3.671
76713W        W49138  34.906  32.374  14.390
76714W        W49139   7.776  26.910   1.022
76715W        W49140  28.440  22.793  14.303
76716W        W49141   6.054  25.486   3.653
76717W        W49142  29.173  41.840   0.202
76718W        W49143   6.967  43.914   0.246
76719W        W49144  38.372   3.478  11.136
76720W        W49145  26.550   8.220  12.086
76721W        W49146  29.825   3.908  14.587
76722W        W49147  41.850  17.884   4.102
76723W        W49148  43.024  33.045  14.355
76724W        W49149  44.008  31.179  12.512
76725W        W49150  36.997   8.158   3.718
76726W        W49151  37.514  27.320   4.454
76727W        W49152  23.248  26.802  14.055
76728W        W49153   6.394   3.297   5.018
76729W        W49154  36.576  38.009   1.855
76730W        W49155  13.695   4.965   3.189
76731W        W49156  16.215  33.635   1.964
76732W        W49157   8.887  17.996  12.558
76733W        W49158  28.026   1.766  14.312
76734W        W49159  34.079   5.496   0.391
76735W        W49160  36.477   5.299  14.067
76736W        W49161   2.962  14.132   1.660
76737W        W49162  37.640  28.713   3.742
76738W        W49163  19.297  31.071  12.429
76739W        W49164   8.646  10.102  11.122
76740W        W49165  22.595  25.934   4.613
76741W        W49166  28.877   7.455   2.188
76742W        W49167  24.650  30.970  13.893
76743W        W49168  43.295  18.697  13.233
76744W        W49169  25.070  34.369   9.989
76745W        W49170  27.949  35.410   0.734
76746W        W49171  43.099   5.238  14.717
76747W        W49172  16.667  10.586   2.425
76748W        W49173   0.290   6.439  10.646
76749W        W49174  12.778  23.643   4.242
76750W        W49175  29.131  17.807   1.224
76751W        W49176   9.879   9.433  13.361
76752W        W49177   9.680  17.322  12.627
76753W        W49178   2.413  19.673  10.619
76754W        W49179  27.259   2.026   5.107
76755W        W49180   1.365  14.324   1.366
76756W        W49181  23.452   5.041   3.298
76757W        W49182  24.170  24.994   1.214
76758W        W49183  15.572  11.149   3.662
76759W        W49184  23.020  13.209  12.017
76760W        W49185  13.615  29.248   0.456
76761W        W49186  28.060  27.840  14.842
76762W        W49187  23.193  19.092  10.804
76763W        W49188  38.915  15.283   1.843
76764W        W49189   7.529   8.573   2.450
76765W        W49190   7.777  21.599   3.688
76766W        W49191  29.438  38.904  12.868
76767W        W49192  24.176   9.416   2.683
76768W        W49193  11.471  26.394  13.349
76769W        W49194  10.673  19.662   0.267
76770W        W49195  39.038   2.996   2.569
76771W        W49196   1.771  43.533   1.693
76772W        W49197  17.101  29.541   1.792
76773W        W49198  35.398   1.233   2.229
76774W        W49199  21.227   1.284  12.620
76775W        W49200  24.234  12.798   0.078
76776W        W49201   7.029  15.286  12.900
76777W        W49202  35.326   4.386   1.147
76778W        W49203  25.428  29.460  12.989
76779W        W49204   7.765  18.721   1.975
76780W        W49205  12.166  39.444   2.180
76781W        W49206   6.215  11.853  13.927
76782W        W49207  28.706  16.321  11.409
76783W        W49208  40.136  44.348   0.922
76784W        W49209  44.291  33.047  11.496
76785W        W49210  16.776   5.992   4.282
76786W        W49211  32.922   8.732  11.594
76787W        W49212   3.372   8.756  12.582
76788W        W49213  30.472  12.940   1.392
76789W        W49214  34.277  36.838   2.642
76790W        W49215  34.311  20.325  12.494
76791W        W49216  30.210  28.878   3.280
76792W        W49217  20.195  13.212   1.179
76793W        W49218  29.466   8.607  11.553
76794W        W49219  42.933  24.115   4.696
76795W        W49220  30.651  40.324   0.354
76796W        W49221  34.359  10.425  10.696
76797W        W49222  10.785   5.311  14.930
76798W        W49223   0.634  10.340  10.649
76799W        W49224  25.378   3.425   4.432
76800W        W49225  22.687  18.166   4.260
76801W        W49226  23.098  42.826   0.323
76802W        W49227  15.843  15.259   1.161
76803W        W49228  25.281  37.373   4.638
76804W        W49229  25.762  17.218  10.300
76805W        W49230  35.982   7.744  14.564
76806W        W49231  34.781  40.951   3.703
76807W        W49232   7.179  32.908  12.416
76808W        W49233  39.584  36.987  10.671
76809W        W49234  25.814  21.630   0.376
76810W        W49235   1.875  19.230  11.587
76811W        W49236  26.620  21.004  13.012
76812W        W49237   8.691  17.217  12.903
76813W        W49238   8.797  42.941   0.605
76814W        W49239  23.239  44.662   2.495
76815W        W49240  44.305   9.723   3.860
76816W        W49241  20.876  14.239  12.994
76817W        W49242   3.784   3.783   0.419
76818W        W49243   2.336   1.449   4.934
76819W        W49244  44.405  11.160   1.897
76820W        W49245  10.446  31.073   2.296
76821W        W49246  36.362  38.029   0.080
76822W        W49247   4.066  12.801   2.402
76823W        W49248  21.181  39.414   1.752
76824W        W49249  20.093  32.483   5.632
76825W        W49250   5.239   4.051   1.433
76826W        W49251  12.187  28.944   3.768
76827W        W49252  27.877  21.884   0.258
76828W        W49253  44.908  15.240  12.382
76829W        W49254  42.857  39.103  11.656
76830W        W49255  21.691  43.219   0.948
76831W        W49256  10.245  11.032   2.320
76832W        W49257   8.085   3.925   2.963
76833W        W49258  14.638  43.735  14.387
76834W        W49259  39.324  41.026   0.407
76835W        W49260  19.053   2.075  14.503
76836W        W49261  20.058  23.214  11.025
76837W        W49262  25.439  40.915   4.099
76838W        W49263  43.581  10.418   2.176
76839W        W49264  34.620   4.912  13.924
76840W        W49265  27.063  34.145  10.542
76841W        W49266  25.064  29.662  13.358
76842W        W49267   1.693  22.088   3.257
76843W        W49268  40.385  42.329   9.768
76844W        W49269  11.048  32.586   2.791
76845W        W49270  18.549  17.347  11.191
76846W        W49271  24.584  15.645  13.019
76847W        W49272   9.717  11.350  14.558
76848W        W49273   9.684  34.088   4.354
76849W        W49274   0.016  24.410   0.833
76850W        W49275  21.648  17.045  11.964
76851W        W49276  22.721  13.187  14.313
76852W        W49277  30.449  26.082  13.186
76853W        W49278  41.902   8.466   1.234
76854W        W49279  21.289  17.769   1.854
76855W        W49280  35.507  24.247  11.633
76856W        W49281  10.287   1.761  14.356
76857W        W49282  29.617  30.039  13.343
76858W        W49283  23.483  28.706  11.105
76859W        W49284  24.614  13.266   1.716
76860W        W49285  12.639  29.770  11.940
76861W        W49286  19.831  21.149   1.856
76862W        W49287  18.574   0.949   3.447
76863W        W49288  19.691  11.039   2.962
76864W        W49289  36.380  11.753   3.313
76865W        W49290  34.351  44.970   2.508
76866W        W49291  23.559  19.734  11.414
76867W        W49292  23.541  32.820  11.646
76868W        W49293  27.460  31.538   1.221
76869W        W49294  17.736  41.915   4.448
76870W        W49295  26.150   8.610  14.384
76871W        W49296  42.426  16.469   1.913
76872W        W49297   5.789  38.761  11.603
76873W        W49298  17.685   2.740   1.192
76874W        W49299   5.910  43.322   4.146
76875W        W49300  11.802  15.050  14.313
76876W        W49301  43.226  41.873  14.570
76877W        W49302  33.309  39.907  14.782
76878W        W49303   4.757   0.846  14.496
76879W        W49304  14.956  15.935   2.116
76880W        W49305   4.455  41.624  13.773
76881W        W49306  16.271  21.235   1.780
76882W        W49307  11.386  35.927  11.882
76883W        W49308   9.741   7.427   1.375
76884W        W49309  42.984  33.040   0.948
76885W        W49310  17.677   1.890   5.382
76886W        W49311  32.913  38.345  12.087
76887W        W49312  33.120   2.341  13.182
76888W        W49313   3.871   6.009  13.011
76889W        W49314   3.500  17.982  10.315
76890W        W49315   8.682  23.790  12.388
76891W        W49316  26.645  19.134  10.585
76892W        W49317  25.759   7.759  14.210
76893W        W49318   8.359  40.940  11.530
76894W        W49319   6.082  10.792  11.515
76895W        W49320  23.631  30.725  11.550
76896W        W49321  11.619  10.304   3.821
76897W        W49322  31.595   6.851  14.344
76898W        W49323  13.063   2.238  13.924
76899W        W49324   5.784  31.894   1.375
76900W        W49325   0.233  13.283  12.262
76901W        W49326  39.996  42.517   5.574
76902W        W49327  11.179  31.502   0.370
76903W        W49328  21.505  11.211   0.969
76904W        W49329  28.743  35.981  13.922
76905W        W49330  26.919  15.877  10.428
76906W        W49331  30.071  18.326   4.569
76907W        W49332  16.610  36.074  11.106
76908W        W49333  11.682  12.819  14.848
76909W        W49334  21.210  39.313   4.708
76910W        W49335   2.694  27.462   4.669
76911W        W49336  31.403   4.401  11.507
76912W        W49337  27.867  44.418   0.428
76913W        W49338  22.214  38.033  14.277
76914W        W49339  13.544  13.343  12.111
76915W        W49340  28.918   1.158  13.401
76916W        W49341   9.637  27.613  12.861
76917W        W49342  37.846  23.969  12.323
76918W        W49343   5.977  39.331   4.246
76919W        W49344  36.342  22.905   2.673
76920W        W49345  18.174  14.094  10.733
76921W        W49346  16.805  15.030  11.060
76922W        W49347  17.738  41.588  13.063
76923W        W49348   8.908  29.599   5.158
76924W        W49349  26.112  33.705  14.353
76925W        W49350  35.412   2.486   1.394
76926W        W49351  21.053  25.793  12.087
76927W        W49352  14.896  16.092   3.351
76928W        W49353  20.026  40.036   0.363
76929W        W49354   0.386   7.875  12.930
76930W        W49355  17.040  41.019   4.187
76931W        W49356   6.003  16.605  11.500
76932W        W49357  10.869  11.875  14.861
76933W        W49358  30.358  18.181   2.874
76934W        W49359   9.057  33.710  13.918
76935W        W49360  44.524  15.076   4.081
76936W        W49361  39.494  29.716  12.515
76937W        W49362  39.260  41.210  14.377
76938W        W49363  18.607   1.231  13.348
76939W        W49364  14.112  20.436   3.616
76940W        W49365  16.546  16.558   1.698
76941W        W49366  20.412  27.141  14.247
76942W        W49367  34.615  41.863   1.365
76943W        W49368   4.392  39.059  10.484
76944W        W49369   9.340  43.875   1.391
76945W        W49370  33.049  28.297  14.328
76946W        W49371  39.525   1.672  11.586
76947W        W49372  44.850  15.773   2.724
76948W        W49373  13.676  11.320  14.894
76949W        W49374  16.733  17.674   4.666
76950W        W49375  19.166   8.404   2.775
76951W        W49376  14.110   9.346  12.930
76952W        W49377  39.284   4.395  10.312
76953W        W49378  26.991  31.314   5.499
76954W        W49379  32.028  22.783   1.233
76955W        W49380  25.058  38.337   0.479
76956W        W49381  40.102   4.651  10.815
76957W        W49382  36.361  42.342   1.758
76958W        W49383  23.612   2.409  13.978
76959W        W49384  42.007  31.898  14.949
76960W        W49385  37.443  30.307  14.136
76961W        W49386  41.962   6.301   1.891
76962W        W49387   6.733  32.272  11.694
76963W        W49388  35.625  21.472  12.395
76964W        W49389  27.082  10.801  12.016
76965W        W49390   9.585  25.629   0.356
76966W        W49391  37.888  40.703   1.467
76967W        W49392  26.042  35.279   3.110
76968W        W49393  35.972  36.643  14.286
76969W        W49394   7.206  16.891   4.026
76970W        W49395  10.725  15.240   4.226
76971W        W49396  29.492  25.116  11.573
76972W        W49397  18.797  27.560   2.765
76973W        W49398  41.478  43.714   4.260
76974W        W49399  28.113   7.818   1.963
76975W        W49400  24.636  26.679  14.123
76976W        W49401   4.469  12.697   0.365
76977W        W49402  36.961   6.428  12.125
76978W        W49403   7.152  15.849  11.988
76979W        W49404  37.782  17.464  13.031
76980W        W49405  23.177  22.895   2.718
76981W        W49406  12.589  13.033   2.612
76982W        W49407   3.996  18.527   4.731
76983W        W49408  17.570   9.093   3.707
76984W        W49409  43.981  32.457  14.672
76985W        W49410  16.725  36.881  13.995
76986W        W49411  38.001  37.987  14.537
76987W        W49412  10.166  31.913   2.218
76988W        W49413  18.052  14.230  13.459
76989W        W49414  13.082  21.291   0.382
76990W        W49415   2.282  34.340  10.674
76991W        W49416  17.882  35.431   2.440
76992W        W49417  22.510  27.307  13.075
76993W        W49418  17.995   8.326   3.818
76994W        W49419   0.492   2.000   5.070
76995W        W49420  34.519  11.437  14.157
76996W        W49421   0.398  10.150   1.066
76997W        W49422  44.287  23.906  10.287
76998W        W49423   3.439  32.215  14.568
76999W        W49424  15.106   2.181  14.863
77000W        W49425  24.569  11.129   0.790
77001W        W49426  31.014  13.866  14.816
77002W        W49427  39.461  27.756   0.248
77003W        W49428   3.832   4.189   0.036
77004W        W49429   5.405  28.200   0.423
77005W        W49430  15.780  12.444   5.142
77006W        W49431  19.041  40.007  12.449
77007W        W49432  21.554  23.125   0.967
77008W        W49433   3.778   4.828  14.936
77009W        W49434   3.409   6.981  12.290
77010W        W49435  18.142  31.714  13.555
77011W        W49436   9.821  22.096  13.196
77012W        W49437  30.385  20.199   1.307
77013W        W49438   1.909  16.039  12.582
77014W        W49439  38.483  26.740  12.901
77015W        W49440  37.227  32.831  13.841
77016W        W49441  21.477  28.387   1.985
77017W        W49442  12.877  37.509   0.831
77018W        W49443  37.649  17.508  10.915
77019W        W49444   8.930  16.302   1.225
77020W        W49445  22.478  29.328  12.986
77021W        W49446   4.396  30.257  12.859
77022W        W49447  22.568  36.920   4.890
77023W        W49448   2.442  14.236  11.923
77024W        W49449  11.823  29.499   2.213
77025W        W49450  43.905  30.714  14.370
77026W        W49451  24.721  42.354   1.384
77027W        W49452  39.232   0.939   4.615
77028W        W49453  31.001  40.469   3.135
77029W        W49454  31.355  41.834  12.550
77030W        W49455  36.027   6.741  14.339
77031W        W49456   4.136  14.305  14.710
77032W        W49457   7.279  32.616   3.655
77033W        W49458  23.946  20.514   2.790
77034W        W49459  42.559   1.488   1.374
77035W        W49460  25.213  24.618  10.852
77036W        W49461  28.938  16.332  14.230
77037W        W49462  10.886   5.916   5.230
77038W        W49463  21.002  32.484   1.312
77039W        W49464   2.859  32.298   1.897
77040W        W49465  25.143  24.587   1.948
77041W        W49466  41.298  35.463  13.756
77042W        W49467  28.052  18.793   0.241
77043W        W49468  31.000  10.954   5.054
77044W        W49469  12.549   8.808   3.742
77045W        W49470  20.761  35.186   2.932
77046W        W49471  36.613  22.015   2.736
77047W        W49472  33.700   3.707  14.724
77048W        W49473  11.610  41.074  12.675
77049W        W49474  44.869   9.932  14.793
77050W        W49475  43.980  33.105  14.312
77051W        W49476  36.160  22.525   2.384
77052W        W49477  10.840  21.288   0.768
77053W        W49478  14.189  44.465   1.856
77054W        W49479  30.635  18.127   1.904
77055W        W49480  34.232  28.962   0.506
77056W        W49481   7.446  17.840  13.096
77057W        W49482   9.320  29.071  10.627
77058W        W49483  12.258  10.193   3.232
77059W        W49484  35.951  39.082  11.972
77060W        W49485  30.454  34.221  13.588
77061W        W49486  12.265  25.673  12.474
77062W        W49487  36.024  20.042  12.326
77063W        W49488  34.851  37.647  12.447
77064W        W49489  37.590   1.863   2.984
77065W        W49490  37.730   4.843  14.486
77066W        W49491   9.252  26.894  10.282
77067W        W49492  28.155  37.536  12.910
77068W        W49493  26.549   0.025   3.909
77069W        W49494  25.760  13.917  11.118
77070W        W49495  44.299  36.512  14.798
77071W        W49496   5.794  32.402  10.747
77072W        W49497  13.645  24.600   3.081
77073W        W49498  36.365  27.887  11.168
77074W        W49499   3.295  14.277   0.068
77075W        W49500  16.314  36.793  12.283
77076W        W49501  31.310  31.213   3.155
77077W        W49502  11.210  22.008   1.884
77078W        W49503  13.131  24.110   0.264
77079W        W49504  21.191  22.601  11.974
77080W        W49505  15.437   7.842  11.919
77081W        W49506   5.293  24.958   4.564
77082W        W49507  43.560  10.144   2.634
77083W        W49508   2.891  23.113  14.229
77084W        W49509  11.343  32.848  12.832
77085W        W49510   1.776   8.323  11.250
77086W        W49511  11.439  43.673  11.494
77087W        W49512  16.272  24.239   1.825
77088W        W49513   3.729  24.053  12.313
77089W        W49514  14.197  44.974   3.762
77090W        W49515  11.751  29.266   3.133
77091W        W49516  39.972  43.499  14.250
77092W        W49517  16.470   2.911   2.745
77093W        W49518  18.095  44.568   0.347
77094W        W49519  28.386  25.006  10.256
77095W        W49520  31.997  23.267  14.858
77096W        W49521   3.635   7.613   3.731
77097W        W49522  14.024   0.275  11.016
77098W        W49523  28.881  18.276  11.593
77099W        W49524  28.887  24.072  12.341
77100W        W49525  31.060   7.951  12.406
77101W        W49526  29.640  18.063   4.563
77102W        W49527   8.148  41.222  12.932
77103W        W49528   0.039  20.768   0.721
77104W        W49529  37.270  23.669   0.963
77105W        W49530   4.877   9.194  11.108
77106W        W49531  31.063  35.046  13.482
77107W        W49532  20.494   0.554   2.133
77108W        W49533  15.605  32.656   1.429
77109W        W49534  17.067  40.829  11.023
77110W        W49535  19.650   7.245   0.263
77111W        W49536  40.201   3.087  10.330
77112W        W49537  12.626  39.379   2.788
77113W        W49538  10.781  13.904   2.619
77114W        W49539  26.721  25.345  11.604
77115W        W49540  37.357  40.867   3.805
77116W        W49541  12.560  37.975  11.484
77117W        W49542   4.736  21.614   2.810
77118W        W49543  22.028  11.725   3.087
77119W        W49544  13.326  23.427   2.905
77120W        W49545  35.735   6.282   0.059
77121W        W49546  37.832  32.188  13.868
77122W        W49547  25.004  13.161  11.741
77123W        W49548  39.267  17.806   2.772
77124W        W49549   8.974  42.217   3.912
77125W        W49550  36.891   0.438  13.544
77126W        W49551  28.031   2.188  13.481
77127W        W49552  22.165  19.632  14.244
77128W        W49553  43.957  22.083   2.257
77129W        W49554  40.873  18.585   1.739
77130W        W49555  27.576  28.261   3.192
77131W        W49556  44.458  19.329   2.392
77132W        W49557   8.648  44.448   3.414
77133W        W49558   8.611  11.255  12.884
77134W        W49559   5.828  13.434  13.289
77135W        W49560   6.315  35.965  12.626
77136W        W49561  26.238  26.652  12.925
77137W        W49562   0.796  32.884   1.496
77138W        W49563  13.018  23.046   0.377
77139W        W49564  13.870  38.399  12.575
77140W        W49565  32.185  22.831  13.021
77141W        W49566  20.040  34.010   0.815
77142W        W49567  17.201  18.814   2.118
77143W        W49568   5.714   7.105  11.010
77144W        W49569  27.111  14.538   0.460
77145W        W49570  22.847  23.706   0.827
77146W        W49571  33.124  21.157  14.025
77147W        W49572  11.711  35.475   0.907
77148W        W49573   6.150  24.133  13.448
77149W        W49574  40.455  44.499   4.946
77150W        W49575  35.675  16.862   4.551
77151W        W49576  17.347   7.400   1.420
77152W        W49577  28.470  10.734   2.207
77153W        W49578  24.139   4.480  13.962
77154W        W49579  34.652  24.592  12.090
77155W        W49580  24.054  38.041  12.883
77156W        W49581  31.025   2.655   4.605
77157W        W49582  28.202   6.802  13.720
77158W        W49583  21.112  28.245   3.640
77159W        W49584  13.461  29.104   4.154
77160W        W49585  13.739  25.317  11.680
77161W        W49586   8.431   6.522   4.434
77162W        W49587   9.744   6.908  13.081
77163W        W49588  22.988  23.608  14.601
77164W        W49589  32.580  11.712   4.525
77165W        W49590  22.328   9.761   2.866
77166W        W49591  27.558   1.847   3.048
77167W        W49592  33.519   2.638   1.220
77168W        W49593  24.915  32.874   3.299
77169W        W49594  38.578  29.029  10.705
77170W        W49595  25.601  24.435   1.301
77171W        W49596  18.167  12.253  10.476
77172W        W49597   9.457   9.260   4.637
77173W        W49598   8.000  30.058  11.437
77174W        W49599  33.046  43.109  14.410
77175W        W49600  13.065   8.196   2.816
77176W        W49601  25.517  15.626   4.035
77177W        W49602  10.360  36.793  13.341
77178W        W49603  38.631  14.735   1.609
77179W        W49604  17.755  42.379  11.131
77180W        W49605  10.801  28.498  13.889
77181W        W49606  27.565   6.744   2.285
77182W        W49607  41.018  40.342   0.877
77183W        W49608   6.801  44.281   2.144
77184W        W49609  42.775  33.029   0.001
77185W        W49610   1.361  36.117   0.846
77186W        W49611  11.113  23.153  12.913
77187W        W49612  19.723  29.692  14.198
77188W        W49613  17.662   7.805  13.420
77189W        W49614   4.314   7.283  10.871
77190W        W49615  16.299   4.505   4.754
77191W        W49616   4.230  40.074   4.500
77192W        W49617  29.552  10.120  14.193
77193W        W49618  32.087  44.714  14.192
77194W        W49619  40.931  14.629  12.457
77195W        W49620  20.268  27.127  12.746
77196W        W49621  35.393  34.055  10.686
77197W        W49622  20.088  38.565   1.278
77198W        W49623   6.851  15.898  12.390
77199W        W49624  14.804  33.009  10.623
77200W        W49625  35.080  38.418  12.987
77201W        W49626   1.804  25.606  11.905
77202W        W49627  12.680  11.105  10.976
77203W        W49628  43.501  32.014  14.017
77204W        W49629  33.823  21.117  11.650
77205W        W49630  25.834   5.855   2.217
77206W        W49631   4.316   1.321  10.893
77207W        W49632  23.600  24.461  11.691
77208W        W49633  24.316   4.742   1.955
77209W        W49634  20.847  21.279   3.933
77210W        W49635  41.226  21.199  10.304
77211W        W49636   7.271   3.942   3.176
77212W        W49637  31.489  34.733   0.692
77213W        W49638  36.748   4.378   1.709
77214W        W49639   4.026  12.887   4.249
77215W        W49640   0.527  29.052   4.572
77216W        W49641   2.463  42.915  13.039
77217W        W49642  12.872  41.792   1.611
77218W        W49643  37.036   3.654   1.445
77219W        W49644  13.314   7.094   5.080
77220W        W49645  42.066   2.916  12.502
77221W        W49646  13.705  43.103  12.065
77222W        W49647  15.181   3.385  11.189
77223W        W49648   7.313  15.600  12.406
77224W        W49649  20.158   7.824  10.859
77225W        W49650  15.944  12.353  11.132
77226W        W49651  10.677  17.539  10.524
77227W        W49652  40.688  30.051  12.076
77228W        W49653  40.572  17.491  14.571
77229W        W49654   2.421   7.378  12.008
77230W        W49655  16.300  43.897   1.204
77231W        W49656  33.466  26.087   4.509
77232W        W49657  35.096   5.410  11.085
77233W        W49658  36.368  35.320  12.900
77234W        W49659  21.740  22.396   1.089
77235W        W49660  34.171  27.546   3.791
77236W        W49661  27.005  18.644   0.707
77237W        W49662  25.578  22.335  11.137
77238W        W49663   8.904  32.289  12.557
77239W        W49664  23.079  33.456  12.918
77240W        W49665  44.721  19.063   4.613
77241W        W49666   6.294  11.092  13.493
77242W        W49667  25.143  19.289   4.549
77243W        W49668   6.694  12.114  11.542
77244W        W49669  43.562  44.822  12.875
77245W        W49670   7.532   1.009  12.137
77246W        W49671  24.711  28.187  10.775
77247W        W49672  33.570  29.101  13.871
77248W        W49673  34.475  22.185   0.058
77249W        W49674  30.021  31.409   3.242
77250W        W49675  33.666  39.634  13.476
77251W        W49676  12.700  16.088  11.541
77252W        W49677  36.346  13.633  14.918
77253W        W49678  33.048  36.574  12.121
77254W        W49679   9.191  29.054  11.424
77255W        W49680  10.812  42.033   3.340
77256W        W49681  21.037  31.386   2.689
77257W        W49682  25.203  17.800  14.910
77258W        W49683  12.733   5.421  13.560
77259W        W49684  32.911   6.406   2.375
77260W        W49685   0.557   8.803   1.555
77261W        W49686   3.788   6.156   0.479
77262W        W49687  35.560  21.004  14.824
77263W        W49688  42.309  43.609   0.272
77264W        W49689  33.867  25.437   0.760
77265W        W49690  11.748  31.027  12.899
77266W        W49691  36.719  21.179   2.657
77267W        W49692  15.510   1.435   9.958
77268W        W49693  17.600  25.072  11.676
77269W        W49694  19.084  18.723   4.720
77270W        W49695  35.527  19.038   3.648
77271W        W49696   9.599   5.282  12.389
77272W        W49697  25.613  31.959  11.127
77273W        W49698  12.872  40.609   1.814
77274W        W49699  38.844  37.703  11.107
77275W        W49700  44.160  23.745  12.887
77276W        W49701  37.268  19.574   0.063
77277W        W49702  28.713  13.779  14.367
77278W        W49703   7.649  19.379  11.146
77279W        W49704  28.491   6.240  11.041
77280W        W49705   2.202  34.412  11.589
77281W        W49706  44.330  29.858   4.716
77282W        W49707  41.817  11.162   4.075
77283W        W49708  33.254  39.905   0.667
77284W        W49709  41.979  24.803   0.573
77285W        W49710  41.601  40.593  12.120
77286W        W49711   2.317  27.053   1.032
77287W        W49712   7.106  32.614  13.963
77288W        W49713   4.647  43.719   4.103
77289W        W49714  34.808  33.836  12.063
77290W        W49715  14.719  34.446   4.929
77291W        W49716  24.086  30.168  13.851
77292W        W49717  32.908   8.003   3.050
77293W        W49718  36.882  40.876  12.042
77294W        W49719  18.270  23.150   0.423
77295W        W49720  37.070   3.889  13.422
77296W        W49721  33.492  42.134  11.436
77297W        W49722  24.227  37.790   0.344
77298W        W49723  23.061   6.121   1.243
77299W        W49724  25.656  34.091   3.586
77300W        W49725  21.478  18.637   2.813
77301W        W49726   4.376  30.111  12.336
77302W        W49727  41.937  14.763  13.388
77303W        W49728  43.114  26.989   4.170
77304W        W49729  26.970   4.184   1.441
77305W        W49730  42.532  41.420  12.036
77306W        W49731   2.199  16.740   2.688
77307W        W49732  40.576  39.548  10.974
77308W        W49733  36.125  31.213  12.394
77309W        W49734  23.373  16.604  12.987
77310W        W49735  29.637   6.702  10.606
77311W        W49736  17.685   0.810  12.377
77312W        W49737  39.175  31.541   9.931
77313W        W49738  10.203  10.381   4.079
77314W        W49739  42.436  40.069   1.333
77315W        W49740  30.952   7.655  12.835
77316W        W49741  26.102   9.908   0.197
77317W        W49742  43.714  41.982   3.574
77318W        W49743   4.336  35.869   4.773
77319W        W49744  15.024  38.280   4.740
77320W        W49745  31.462   9.789  14.369
77321W        W49746   5.348  43.317   3.269
77322W        W49747  20.549  31.777   4.103
77323W        W49748  38.913  44.962  11.081
77324W        W49749  14.567   4.913  11.097
77325W        W49750  31.650  12.210  11.768
77326W        W49751   8.150  18.526   2.311
77327W        W49752  37.987  42.932  10.738
77328W        W49753  41.572  26.072   0.144
77329W        W49754  14.581   6.345  13.433
77330W        W49755  30.874  21.777   1.373
77331W        W49756   3.266  23.621  11.042
77332W        W49757  33.578  19.631  13.845
77333W        W49758  36.774  41.022  14.284
77334W        W49759   7.402  10.340   0.008
77335W        W49760   5.866  27.376  14.554
77336W        W49761  31.192  25.517  10.660
77337W        W49762  43.715  42.433   1.815
77338W        W49763  13.174  24.577   0.903
77339W        W49764  41.249   7.835   1.926
77340W        W49765  16.273  26.628  11.922
77341W        W49766  41.842  43.684  12.621
77342W        W49767  11.699  11.342   1.316
77343W        W49768   9.903  13.749  13.926
77344W        W49769  31.098   1.076   0.367
77345W        W49770  21.685  33.447  14.881
77346W        W49771  32.852  23.325   1.399
77347W        W49772  33.622  43.917  12.530
77348W        W49773  26.225  27.130  14.706
77349W        W49774  13.798  14.338  13.989
77350W        W49775  35.501  20.246   4.346
77351W        W49776  29.480  22.503  14.345
77352W        W49777  37.578   1.430  10.533
77353W        W49778  37.347  22.180   0.579
77354W        W49779  39.916  43.814   2.151
77355W        W49780   2.691  21.334   2.724
77356W        W49781  37.592  34.028   0.399
77357W        W49782  34.538  17.244  12.049
77358W        W49783  38.526  20.649  13.440
77359W        W49784  42.987   7.497   2.744
77360W        W49785   3.032   5.929  13.333
77361W        W49786  12.223  18.010  11.194
77362W        W49787  32.546  14.709   1.952
77363W        W49788  25.838  24.970  13.297
77364W        W49789  16.022   2.857   4.202
77365W        W49790  21.498  10.432   2.380
77366W        W49791   8.348  12.171  13.380
77367W        W49792   8.851  14.762  13.121
77368W        W49793  41.741  27.281  14.415
77369W        W49794  34.766   5.734   2.215
77370W        W49795  24.748  22.825  13.097
77371W        W49796   3.234  11.220  10.747
77372W        W49797  26.917  27.607   0.683
77373W        W49798  16.012  15.015   4.740
77374W        W49799  41.673   0.854   3.250
77375W        W49800   2.488  38.065   1.764
77376W        W49801  24.943  30.437   2.317
77377W        W49802  13.085  43.548  14.510
77378W        W49803  44.733   8.912   2.644
77379W        W49804  11.257  16.306   0.958
77380W        W49805  31.174  24.540   4.174
77381W        W49806  35.635  23.798  11.868
77382W        W49807   4.109  31.300  12.878
77383W        W49808   9.570  31.575  14.728
77384W        W49809  25.565  26.133   0.007
77385W        W49810  24.049  27.805   0.671
77386W        W49811  37.432   1.310  14.002
77387W        W49812  26.530   2.321   2.326
77388W        W49813   7.851  26.732   1.820
77389W        W49814  43.886  24.057   3.724
77390W        W49815  44.548  20.967  11.931
77391W        W49816  20.034  38.973  11.239
77392W        W49817  28.352  34.425   0.026
77393W        W49818   3.527  17.399   0.012
77394W        W49819   1.021  36.859   2.836
77395W        W49820   7.700   3.386   3.572
77396W        W49821   7.608  34.238   5.036
77397W        W49822  16.214  21.833   0.529
77398W        W49823  35.553  33.610  14.456
77399W        W49824  10.285   4.764  10.733
77400W        W49825  13.566   1.893   0.701
77401W        W49826  30.594   7.926   0.445
77402W        W49827   0.878  33.549   2.379
77403W        W49828   8.108  42.165  10.614
77404W        W49829   8.707   8.966   4.054
77405W        W49830  35.497  29.328   4.353
77406W        W49831  10.594   9.940   1.735
77407W        W49832  23.731  22.141   4.064
77408W        W49833  20.181  11.907  12.077
77409W        W49834  11.669  40.354   4.926
77410W        W49835  11.405  27.811  12.315
77411W        W49836  40.218   8.653  13.760
77412W        W49837  38.927  21.016  11.204
77413W        W49838   3.882  29.922   4.906
77414W        W49839  27.237  38.633  12.908
77415W        W49840  23.311  37.781  11.568
77416W        W49841  28.642  44.555   0.779
77417W        W49842  42.412  18.063  14.421
77418W        W49843  21.246   4.271   0.664
77419W        W49844   5.683  27.214   0.001
77420W        W49845   8.385  31.949   0.904
77421W        W49846  36.475  43.330   1.729
77422W        W49847  41.925  18.876   0.831
77423W        W49848  39.094  32.224   1.319
77424W        W49849  19.817  28.669   1.799
77425W        W49850  39.635  24.001   3.671
77426W        W49851  19.193   2.700   0.911
77427W        W49852  11.779  26.984   2.826
77428W        W49853  26.145  36.864   2.418
77429W        W49854  18.802  27.405   3.649
77430W        W49855   1.764  27.899  12.192
77431W        W49856  17.362   8.253  13.486
77432W        W49857  21.478  17.336  10.115
77433W        W49858   6.876   6.270   1.459
77434W        W49859  44.555  31.316  13.967
77435W        W49860   2.891   9.540   0.347
77436W        W49861  37.166   2.620   2.649
77437W        W49862   5.326  22.342  12.278
77438W        W49863  27.173  17.318   0.712
77439W        W49864  42.627  13.199   3.332
77440W        W49865   0.379  19.771  11.523
77441W        W49866  32.731  25.596  13.841
77442W        W49867  26.231   4.469  12.106
77443W        W49868   3.016   5.990  11.106
77444W        W49869  19.673  41.144   0.960
77445W        W49870  28.576   6.460  13.544
77446W        W49871  32.328  22.043   2.088
77447W        W49872  44.162   1.026   1.770
77448W        W49873  33.135  24.204  14.519
77449W        W49874  29.801  30.520   2.687
77450W        W49875  44.723   7.717   0.820
77451W        W49876   4.329   2.197   1.738
77452W        W49877  24.157  21.023   2.791
77453W        W49878  19.831  33.451  10.154
77454W        W49879  14.436   2.186   3.251
77455W        W49880  13.129   0.461   1.063
77456W        W49881   0.498  24.998  13.011
77457W        W49882   6.692   5.193   3.336
77458W        W49883  24.753   4.635  11.608
77459W        W49884  22.518  28.385   2.332
77460W        W49885  11.647   9.227   2.816
77461W        W49886  22.206   7.837   3.086
77462W        W49887  17.501  16.666  11.122
77463W        W49888  24.522  20.103  14.766
77464W        W49889  14.276  21.611  10.247
77465W        W49890  25.991   2.762  14.963
77466W        W49891  30.435  27.506  11.510
77467W        W49892  12.044   9.236  11.896
77468W        W49893  31.385  30.625  10.734
77469W        W49894  36.888  30.900  13.036
77470W        W49895  31.716   2.669  12.204
77471W        W49896   3.929   3.491   0.885
77472W        W49897  22.549  18.578  11.917
77473W        W49898  21.544  43.539   3.274
77474W        W49899  38.667  34.221  10.614
77475W        W49900  41.107  13.249  10.766
77476W        W49901  30.096  37.145   2.312
77477W        W49902   7.693  37.781  10.626
77478W        W49903  17.307  16.581  10.635
77479W        W49904  12.255  12.593   4.185
77480W        W49905   9.407   9.250  10.124
77481W        W49906  42.498   6.555   2.724
77482W        W49907  39.031  40.235  12.029
77483W        W49908  31.881   2.183  12.481
77484W        W49909  19.484  20.779  12.121
77485W        W49910   4.033   2.010  10.844
77486W        W49911  41.478  16.950   1.941
77487W        W49912   1.733   9.181   4.514
77488W        W49913  14.133   4.718  12.651
77489W        W49914   8.490  16.495  13.856
77490W        W49915  24.592  21.574   1.359
77491W        W49916   0.347  40.915  11.074
77492W        W49917  18.993  18.776  12.436
77493W        W49918   4.161  27.672  11.623
77494W        W49919   7.811  16.361  12.618
77495W        W49920  29.503  21.494   4.555
77496W        W49921  12.301  30.400  12.893
77497W        W49922  44.734  24.299   3.674
77498W        W49923  32.358   3.425  11.964
77499W        W49924   0.220  35.080   4.114
77500W        W49925  30.621  39.483   2.669
77501W        W49926  14.721  25.235  14.297
77502W        W49927   7.531   4.366   3.423
77503W        W49928  36.832  35.124  14.504
77504W        W49929   4.302  44.892  10.555
77505W        W49930  31.856  24.995   1.170
77506W        W49931  16.266   3.138   3.260
77507W        W49932  24.533  17.678  11.638
77508W        W49933  17.967  28.725   4.019
77509W        W49934  44.278  18.518  13.352
77510W        W49935  29.541  18.575  13.501
77511W        W49936  28.207  40.094  14.540
77512W        W49937  27.660  28.091   0.467
77513W        W49938  24.519  32.412   3.667
77514W        W49939   8.441  25.473  13.337
77515W        W49940  21.283   4.659  11.235
77516W        W49941   6.578   7.386  11.331
77517W        W49942  37.075  32.838   4.544
77518W        W49943  23.591  42.340   4.921
77519W        W49944  22.447   7.151  14.810
77520W        W49945  32.349  13.057   0.525
77521W        W49946  29.093   7.450  12.997
77522W        W49947  22.580  39.427   4.698
77523W        W49948  20.608  27.502  14.936
77524W        W49949  34.257  12.354   1.688
77525W        W49950  10.786   2.714   3.753
77526W        W49951  41.034  21.184   1.718
77527W        W49952  21.809  41.895   2.183
77528W        W49953  12.186  37.615   2.148
77529W        W49954   9.351  36.406  13.297
77530W        W49955   9.416  22.913   2.803
77531W        W49956   5.478  21.796  14.783
77532W        W49957  41.941   2.051  12.148
77533W        W49958   8.130   3.803  10.620
77534W        W49959  42.102  23.407   1.260
77535W        W49960  19.166  33.202  13.356
77536W        W49961   3.899   7.793   4.615
77537W        W49962  20.657  15.626   0.502
77538W        W49963  15.807  31.101   3.656
77539W        W49964  29.202  14.618   3.194
77540W        W49965   8.915  36.275  11.655
77541W        W49966  14.374  30.185  14.823
77542W        W49967   5.871   9.741   4.532
77543W        W49968  18.701  18.185  14.349
77544W        W49969  18.575   1.714  12.560
77545W        W49970  27.148  10.608   1.789
77546W        W49971  41.089  29.102  13.457
77547W        W49972   6.365  25.817   4.209
77548W        W49973  21.027  20.685  12.967
77549W        W49974  27.701  27.446  12.468
77550W        W49975   7.119  10.587   2.346
77551W        W49976  29.232  39.331   1.254
77552W        W49977  13.398  28.746   2.748
77553W        W49978  43.290  31.545  14.293
77554W        W49979  38.842  44.498   1.823
77555W        W49980  17.738  42.913  12.305
77556W        W49981   2.993   1.869   1.253
77557W        W49982   1.009   4.754   2.279
77558W        W49983  20.290  22.239  14.284
77559W        W49984  41.358  27.871   1.758
77560W        W49985  44.533  30.581   0.824
77561W        W49986  40.525  19.994   1.270
77562W        W49987   8.416   1.008  14.760
77563W        W49988  40.238   8.020  10.970
77564W        W49989  39.937  20.725  11.939
77565W        W49990  22.885   4.116   4.111
77566W        W49991  23.714  35.415   0.861
77567W        W49992  24.228  19.704  12.448
77568W        W49993  33.155  13.026   2.101
77569W        W49994  17.777  39.823  13.770
77570W        W49995  21.076  11.253  12.894
77571W        W49996   2.082  41.356  11.472
77572W        W49997  38.398   5.950  11.932
77573W        W49998   1.452  24.261  14.694
77574W        W49999   8.924   6.536   4.356
77575W        W50000  43.413  19.320  12.566
77576W        W50001  22.237  20.002  11.155
77577W        W50002  16.330  17.332  11.522
77578W        W50003   5.208  11.944  13.997
77579W        W50004  42.922  18.325  12.297
77580W        W50005   7.713  28.949   3.799
77581W        W50006  31.914  25.769  12.785
77582W        W50007   8.736  24.787  10.756
77583W        W50008  25.677  25.706  13.553
77584W        W50009  20.021  33.049  12.129
77585W        W50010  35.994   0.026   3.741
77586W        W50011  19.965   1.896   2.401
77587W        W50012  12.080  37.049  11.698
77588W        W50013  34.292  12.679   2.764
77589W        W50014  44.913  36.403   0.581
77590W        W50015  25.535  16.027   1.459
77591W        W50016  26.099  37.508   4.159
77592W        W50017  34.974  42.849   0.381
77593W        W50018  33.986  17.573  13.660
77594W        W50019   3.217   7.615  11.650
77595W        W50020   6.459  22.314  13.978
77596W        W50021  12.892  28.078   2.749
77597W        W50022  37.658  41.433  11.572
77598W        W50023  11.300  16.812   0.917
77599W        W50024  38.293  44.982   1.402
77600W        W50025  42.285  23.065  13.896
77601W        W50026  24.946   4.516  13.457
77602W        W50027   1.362  15.026   1.872
77603W        W50028   5.833  10.879   3.246
77604W        W50029  42.940  20.232  12.413
77605W        W50030  20.471  36.421  10.999
77606W        W50031  30.440  35.571  13.177
77607W        W50032   2.804  40.430   4.699
77608W        W50033   2.027  23.555  13.528
77609W        W50034  44.887  41.837   3.677
77610W        W50035  35.850  21.075  13.103
77611W        W50036  12.114  33.994   2.647
77612W        W50037   6.072  44.309  13.003
77613W        W50038   0.761  34.960   0.666
77614W        W50039  34.534   1.255   0.426
77615W        W50040   5.786   3.253  11.509
77616W        W50041   6.947  40.215   5.184
77617W        W50042  16.316  37.030  14.903
77618W        W50043  36.124  40.078  11.469
77619W        W50044  18.415  15.266  14.961
77620W        W50045  20.278  16.094   1.709
77621W        W50046   1.638  24.420   1.078
77622W        W50047  31.134  39.830   2.323
77623W        W50048   2.298  36.066  14.388
77624W        W50049  31.422  37.778   3.625
77625W        W50050  33.150  29.955   4.909
77626W        W50051  26.233  37.190  11.658
77627W        W50052  35.973  20.031   2.786
77628W        W50053  27.718  29.083   0.513
77629W        W50054  26.901  36.587   1.600
77630W        W50055   4.411   4.343  14.501
77631W        W50056   6.220  15.696  10.764
77632W        W50057  29.834  11.723  12.984
77633W        W50058  28.890  26.568   3.289
77634W        W50059  26.534  29.955  11.939
77635W        W50060  32.589  21.661  13.601
77636W        W50061  13.072  15.603   0.884
77637W        W50062  18.708   0.014   3.184
77638W        W50063  22.150  40.841   2.880
77639W        W50064  15.014  35.493   0.197
77640W        W50065  36.696   5.417   4.586
77641W        W50066  43.819   5.841  14.502
77642W        W50067  26.925  27.513  10.343
77643W        W50068  22.972  11.012  14.353
77644W        W50069  12.752  40.353  10.511
77645W        W50070  36.812  29.480   0.866
77646W        W50071  17.662  31.550   2.232
77647W        W50072  26.704  34.779  12.922
77648W        W50073  25.318  12.163   2.387
77649W        W50074  41.493  28.660   2.935
77650W        W50075   0.474   0.582  10.699
77651W        W50076  18.440  24.068  11.665
77652W        W50077  26.216  41.765  13.419
77653W        W50078  38.027   6.188  13.532
77654W        W50079  23.068  43.528   4.537
77655W        W50080  17.275  11.254   3.884
77656W        W50081  38.365  34.485  11.556
77657W        W50082  44.010   7.429  13.065
77658W        W50083   3.783  31.250  12.060
77659W        W50084  43.934  17.641   0.810
77660W        W50085  34.414  28.528  12.585
77661W        W50086  12.648   2.864   2.474
77662W        W50087  10.253  32.419   1.975
77663W        W50088   7.756  19.644  13.565
77664W        W50089  38.872  32.442  11.927
77665W        W50090  35.205   6.747   1.973
77666W        W50091  29.572  31.641  11.817
77667W        W50092  41.336  13.836  13.445
77668W        W50093  43.320   4.342   3.619
77669W        W50094   5.487  19.151   0.214
77670W        W50095  19.859  24.632  14.336
77671W        W50096  27.880  26.900   1.342
77672W        W50097  30.368  17.796  14.929
77673W        W50098  10.266  33.004  13.194
77674W        W50099  42.257  12.507  13.059
77675W        W50100  23.001   8.445   5.567
77676W        W50101  37.342  24.560   1.015
77677W        W50102  29.669  34.022   4.771
77678W        W50103  28.956  20.035   1.625
77679W        W50104   5.904  33.507  11.415
77680W        W50105  17.032  26.255  12.970
77681W        W50106  36.047  17.669  11.579
77682W        W50107   2.965  40.459  14.989
77683W        W50108   7.884  11.189   4.316
77684W        W50109  27.221  44.051   2.411
77685W        W50110  12.217  14.664   3.342
77686W        W50111  35.815  20.243   0.779
77687W        W50112  29.746   7.778   3.425
77688W        W50113  38.319  38.255   1.216
77689W        W50114  15.825  21.776   1.374
77690W        W50115  25.547  30.382  13.962
77691W        W50116  33.786  16.181  10.948
77692W        W50117   4.258  24.677   0.293
77693W        W50118  40.016  12.568   1.212
77694W        W50119   6.731  25.040  11.194
77695W        W50120   1.992   7.701   3.348
77696W        W50121   4.246  31.023   3.082
77697W        W50122   8.636  28.465   3.656
77698W        W50123  27.501   1.022  11.015
77699W        W50124  19.132  23.981  14.820
77700W        W50125   6.300  25.294   3.190
77701W        W50126   7.330  39.917  12.655
77702W        W50127   2.900  15.595   3.404
77703W        W50128  44.883  13.730   0.796
77704W        W50129  16.222  22.554   2.104
77705W        W50130  24.253  19.339   4.896
77706W        W50131  35.656  17.091   2.337
77707W        W50132   0.040  33.686   0.359
77708W        W50133   6.286  12.850   2.250
77709W        W50134  35.409  35.671  11.415
77710W        W50135  32.073  22.506  11.575
77711W        W50136  29.851  35.032  13.838
77712W        W50137   7.166  34.498   5.082
77713W        W50138   4.769  17.076  10.892
77714W        W50139  43.783  31.968  14.689
77715W        W50140  30.361  42.052   2.342
77716W        W50141   3.938  34.379   0.308
77717W        W50142   8.844  27.214  10.403
77718W        W50143  30.119  42.409   0.465
77719W        W50144  33.021   6.699   2.792
77720W        W50145  20.047   3.840   4.534
77721W        W50146   8.355   4.273   2.681
77722W        W50147  15.634  36.881   2.779
77723W        W50148   4.209  24.055  12.536
77724W        W50149  26.960  38.080   5.057
77725W        W50150  42.372  42.769  14.187
77726W        W50151   3.827   7.778  13.170
77727W        W50152  24.493   1.526   4.165
77728W        W50153   3.768  36.103   4.998
77729W        W50154  26.199  23.154  14.383
77730W        W50155  37.557  14.633  11.431
77731W        W50156  18.609  44.712  13.466
77732W        W50157   2.223  35.585  11.529
77733W        W50158  25.181   1.504  10.838
77734W        W50159  41.455  37.880  14.483
77735W        W50160   3.949  15.303  14.681
77736W        W50161   6.628   9.126  12.110
77737W        W50162  35.765  27.893   1.200
77738W        W50163  35.034  15.713   3.149
77739W        W50164  36.888   8.176   1.682
77740W        W50165  27.117  22.079   3.089
77741W        W50166  12.846  14.374   0.434
77742W        W50167  11.690  39.643   1.959
77743W        W50168   8.841  42.204  12.662
77744W        W50169  34.067  20.820   0.096
77745W        W50170  42.609  44.477   1.943
77746W        W50171  35.361  18.289   4.798
77747W        W50172  21.591  11.559  10.580
77748W        W50173  28.885  36.989   0.680
77749W        W50174  41.114  44.057   4.173
77750W        W50175  17.961  33.396  12.862
77751W        W50176  10.174  27.558  14.682
77752W        W50177  30.023   3.991  14.099
77753W        W50178  20.994   4.553   1.425
77754W        W50179  11.590  37.088   1.139
77755W        W50180   6.644   1.650   2.654
77756W        W50181  37.542  20.906  10.058
77757W        W50182  39.844  12.624   2.345
77758W        W50183  11.047  28.592   0.194
77759W        W50184   0.920  43.411   0.772
77760W        W50185  44.445  42.479  13.313
77761W        W50186  41.763  17.266  10.594
77762W        W50187   4.789  15.238   2.339
77763W        W50188  29.404  37.654   4.164
77764W        W50189  32.927  32.084   3.147
77765W        W50190  36.931   6.393   4.134
77766W        W50191  31.478  27.408  12.323
77767W        W50192   4.353  18.463  13.119
77768W        W50193  11.837   4.314   1.742
77769W        W50194  30.874  26.040   4.664
77770W        W50195  31.476  23.225   1.988
77771W        W50196   8.900  30.420  11.535
77772W        W50197  30.087  18.668  14.329
77773W        W50198   5.930   9.963   2.196
77774W        W50199  29.352   1.440  13.528
77775W        W50200  39.298  37.821  14.842
77776W        W50201  13.439   6.289  10.303
77777W        W50202  41.902  11.883   2.735
77778W        W50203  31.369  24.988  13.822
77779W        W50204  29.734  42.557   2.773
77780W        W50205  15.693   5.904  13.499
77781W        W50206  33.002   0.292   3.743
77782W        W50207  22.610  43.775  12.454
77783W        W50208  41.333  44.440   5.427
77784W        W50209   6.518   4.888   4.571
77785W        W50210   5.170  25.961   0.325
77786W        W50211  27.103  18.156  10.481
77787W        W50212   0.755  25.178   4.359
77788W        W50213  10.115   1.420  10.719
77789W        W50214   9.483   7.573  11.654
77790W        W50215  26.906  44.284  10.711
77791W        W50216   3.333  14.776   0.275
77792W        W50217  37.870  14.209  11.442
77793W        W50218  21.184  30.314  13.495
77794W        W50219  26.605  21.255  13.460
77795W        W50220  38.472   8.303   2.283
77796W        W50221  28.054  18.361  14.953
77797W        W50222   8.263  30.146   2.173
77798W        W50223  42.137  33.986   2.895
77799W        W50224   5.391  16.087  11.265
77800W        W50225  22.269  39.915  14.520
77801W        W50226  16.659  22.544  13.949
77802W        W50227  12.269  34.355   0.344
77803W        W50228  20.111   5.204  14.394
77804W        W50229  23.765   6.888  14.893
77805W        W50230  43.327  37.107   4.434
77806W        W50231  14.855  16.755  11.188
77807W        W50232  24.677  30.852   1.729
77808W        W50233  40.692  33.363   3.048
77809W        W50234  34.482  33.390   0.376
77810W        W50235  24.059  21.604   9.903
77811W        W50236  25.311  16.336   0.526
77812W        W50237  28.727  18.676  13.032
77813W        W50238  19.409  23.552   0.082
77814W        W50239  43.976  35.825  13.911
77815W        W50240  20.196  12.801   1.991
77816W        W50241   5.316  12.449  11.254
77817W        W50242  40.922   8.548  11.578
77818W        W50243  35.557   6.968   0.367
77819W        W50244  17.989  43.021  13.879
77820W        W50245  42.534  19.303  11.486
77821W        W50246   8.751   7.667  13.917
77822W        W50247  15.487  28.723  14.959
77823W        W50248  37.501  23.256  10.116
77824W        W50249   7.802  23.238  12.714
77825W        W50250  30.826  16.068   0.390
77826W        W50251  17.579   3.947  10.998
77827W        W50252   8.716  35.364  11.148
77828W        W50253  31.011  43.656   3.689
77829W        W50254  30.940  10.130  11.934
77830W        W50255   2.533  15.856  13.425
77831W        W50256  36.800  16.787  11.185
77832W        W50257  43.108  40.745   2.712
77833W        W50258  21.591   5.686   4.065
77834W        W50259  11.121  26.787  13.322
77835W        W50260  36.745  39.024  13.071
77836W        W50261   9.967  35.362  10.747
77837W        W50262  28.421  40.404  11.656
77838W        W50263  41.282  11.715   5.018
77839W        W50264  34.806  11.672  11.481
77840W        W50265  36.830  26.025   1.271
77841W        W50266   2.481  15.270  12.165
77842W        W50267  34.089   0.473   4.113
77843W        W50268  27.400  38.575   3.467
77844W        W50269  10.264  16.345  13.402
77845W        W50270  29.465  14.198   2.955
77846W        W50271  13.677  15.905   0.305
77847W        W50272  33.903   7.220  11.440
77848W        W50273  38.991  33.037   1.125
77849W        W50274  32.524  18.185  11.924
77850W        W50275   1.176  34.122   2.864
77851W        W50276  31.875  26.574   4.213
77852W        W50277  18.017  28.739   1.471
77853W        W50278   2.913  36.895   2.847
77854W        W50279  24.445  37.425  13.445
77855W        W50280  30.429  36.890   1.201
77856W        W50281  15.031   5.883  12.435
77857W        W50282  19.616  40.485  14.935
77858W        W50283  37.981   2.212   2.289
77859W        W50284   0.568   4.226  13.006
77860W        W50285   8.250  44.682  12.181
77861W        W50286  12.338   2.263  11.596
77862W        W50287  32.680   4.243  13.957
77863W        W50288  27.053  36.124   1.836
77864W        W50289   8.257  29.604  10.674
77865W        W50290   4.740  38.295  10.352
77866W        W50291  40.659  33.052   4.234
77867W        W50292  19.580  18.949  11.112
77868W        W50293  11.071   2.263   0.395
77869W        W50294  27.068  33.855   2.086
77870W        W50295  23.223  15.330   1.875
77871W        W50296  34.016  11.788   4.235
77872W        W50297  30.183  23.113  10.772
77873W        W50298  25.112  31.873  13.834
77874W        W50299  15.597  16.773  12.581
77875W        W50300  31.875  14.009  12.559
77876W        W50301  42.827  14.513  14.962
77877W        W50302   5.701  32.160  11.271
77878W        W50303  31.586   0.211  12.946
77879W        W50304  36.098  35.006  10.699
77880W        W50305  41.829  31.168  13.433
77881W        W50306  42.591  40.338  14.413
77882W        W50307  34.529  19.929  14.933
77883W        W50308   4.929   1.271   2.583
77884W        W50309  35.667  34.556   1.283
77885W        W50310  40.076  19.284   3.208
77886W        W50311  44.358   6.642   1.000
77887W        W50312  41.048  30.173   1.704
77888W        W50313  39.868  27.196   3.195
77889W        W50314  41.321  21.298   4.666
77890W        W50315   0.662   6.937  13.023
77891W        W50316  20.631   6.270   0.004
77892W        W50317   1.366  14.262  14.031
77893W        W50318  23.694  10.320  12.398
77894W        W50319  44.347  33.628   4.131
77895W        W50320   3.136  16.686   0.972
77896W        W50321  29.590  13.119   3.819
77897W        W50322  12.859  15.213  11.262
77898W        W50323  10.462  20.262   2.442
77899W        W50324   9.955  25.892   2.031
77900W        W50325  34.829  23.715   3.675
77901W        W50326  11.263  28.402   3.997
77902W        W50327  26.650  10.886   1.172
77903W        W50328  13.645   7.426   1.259
77904W        W50329  20.608  28.156   3.770
77905W        W50330  10.608  27.750   5.059
77906W        W50331  24.755  34.987  12.497
77907W        W50332  14.090  27.618   2.829
77908W        W50333  40.185  40.701   4.120
77909W        W50334  34.463  36.466  12.185
77910W        W50335  22.420  39.034  13.273
77911W        W50336  32.195   1.798   0.291
77912W        W50337  28.569  35.658  14.804
77913W        W50338  41.356  37.864   2.332
77914W        W50339  22.100  38.252  13.471
77915W        W50340  19.801   0.496  12.946
77916W        W50341  39.958  17.934   4.393
77917W        W50342  44.974  14.682  14.523
77918W        W50343   6.721   4.030   3.956
77919W        W50344  28.853  41.276  11.399
77920W        W50345   5.339  28.707  13.943
77921W        W50346  15.120  24.576  14.265
77922W        W50347  26.929  17.709   0.970
77923W        W50348   0.680  34.887  11.257
77924W        W50349  14.555  35.388   0.414
77925W        W50350  14.667  28.496   4.220
77926W        W50351  39.079  35.521  12.581
77927W        W50352  22.900  13.863  13.115
77928W        W50353  18.658  20.251  10.917
77929W        W50354  40.435  39.416  13.832
77930W        W50355   9.544  10.943   1.897
77931W        W50356  39.801  42.382   5.095
77932W        W50357  19.851   3.034  14.564
77933W        W50358  23.884  23.084  14.443
77934W        W50359   0.560  16.336  12.367
77935W        W50360  31.138  27.511   4.387
77936W        W50361  25.125  31.004  11.091
77937W        W50362  41.236  34.482  10.672
77938W        W50363  27.661  34.165   3.753
77939W        W50364  11.109  33.941   4.586
77940W        W50365  44.133  28.142   3.109
77941W        W50366   2.353  11.624  11.097
77942W        W50367  31.255   9.241  13.784
77943W        W50368  30.404  14.556  11.620
77944W        W50369  30.594  20.599  13.110
77945W        W50370  29.424   8.214  13.411
77946W        W50371   8.166   0.477   4.522
77947W        W50372   6.321  41.348   3.271
77948W        W50373  38.272   9.182  13.835
77949W        W50374  32.144  13.808  14.021
77950W        W50375  18.669   4.052  13.963
77951W        W50376  27.855  42.509   2.466
77952W        W50377  12.776  29.531   1.208
77953W        W50378  37.433  35.619  12.027
77954W        W50379  41.536  36.970   4.438
77955W        W50380  11.379  25.645   1.423
77956W        W50381  43.011  38.229   5.481
77957W        W50382  26.749  12.719   2.774
77958W        W50383  27.645  28.146   4.118
77959W        W50384  36.618  14.729  10.934
77960W        W50385  26.760  15.126  12.026
77961W        W50386  29.513  14.125  14.076
77962W        W50387  40.230  18.865   2.349
77963W        W50388  23.793   9.697   1.736
77964W        W50389  37.651  41.277   4.810
77965W        W50390  13.723  13.600  14.573
77966W        W50391   9.820  10.718  11.537
77967W        W50392  11.217  38.296   3.288
77968W        W50393  30.189  36.292   1.389
77969W        W50394  13.318   3.903  12.969
77970W        W50395  40.592  27.105  13.364
77971W        W50396  33.853   3.934  11.651
77972W        W50397  30.415   8.602   2.822
77973W        W50398  22.202   3.311   2.351
77974W        W50399  37.088  18.617   3.199
77975W        W50400   6.367  41.717   3.634
77976W        W50401   8.804  37.368   4.203
77977W        W50402   4.061  27.985  14.785
77978W        W50403  21.788   3.823  14.721
77979W        W50404  18.513  36.515  11.963
77980W        W50405  38.593  18.691   0.342
77981W        W50406  37.407  42.917  12.315
77982W        W50407  28.096  40.272  13.833
77983W        W50408  39.797  25.046  13.467
77984W        W50409  17.145  42.183  12.537
77985W        W50410  10.356  34.867   0.257
77986W        W50411  42.520  28.061  13.882
77987W        W50412   5.061  39.627  14.547
77988W        W50413  17.043  37.510   2.743
77989W        W50414   3.392  14.099   4.159
77990W        W50415  29.877   1.855  12.506
77991W        W50416  24.189  33.003  10.666
77992W        W50417  22.292  27.283  11.125
77993W        W50418  42.423  26.331   2.357
77994W        W50419  28.080  40.017  11.099
77995W        W50420   7.010  35.328   5.435
77996W        W50421  43.222  31.975  12.882
77997W        W50422  37.580  37.319  11.702
77998W        W50423   7.679   7.911  10.658
77999W        W50424  33.916   8.820  14.023
78000W        W50425  27.726   8.593  14.819
78001W        W50426  32.256  36.317   3.680
78002W        W50427   0.873  35.935   2.483
78003W        W50428  11.794  14.298  13.957
78004W        W50429   6.423  36.377   0.800
78005W        W50430   0.713   8.868  14.796
78006W        W50431  13.332  14.839   1.349
78007W        W50432  38.972  24.523   2.118
78008W        W50433   3.799  39.779  10.420
78009W        W50434   5.859  40.545  10.989
78010W        W50435   8.765  13.791   4.271
78011W        W50436  38.448   9.404  14.911
78012W        W50437  24.424   2.805   0.426
78013W        W50438  36.557  13.168  13.466
78014W        W50439  39.010  28.648   0.179
78015W        W50440  13.769  32.563   4.301
78016W        W50441  42.887  18.430   4.491
78017W        W50442  14.380  13.947  10.340
78018W        W50443  44.336  32.539   0.034
78019W        W50444  27.815  32.750  11.509
78020W        W50445   9.175  26.484  13.458
78021W        W50446  32.958  32.129   1.407
78022W        W50447  16.622  11.339  11.504
78023W        W50448  36.000  14.112  12.416
78024W        W50449  10.127  36.880  11.566
78025W        W50450  21.169   5.232  14.815
78026W        W50451  19.695  44.839  10.980
78027W        W50452  23.632  18.315   4.287
78028W        W50453  39.883  37.270  14.953
78029W        W50454   5.378  31.129  13.574
78030W        W50455  30.223  35.399   1.311
78031W        W50456  33.746  29.692  13.878
78032W        W50457  43.398  32.866   2.843
78033W        W50458   3.014  38.059   1.819
78034W        W50459  16.741  10.399   0.236
78035W        W50460  44.330  23.009  10.714
78036W        W50461  14.289   2.368   4.143
78037W        W50462  38.805  44.933   5.076
78038W        W50463  43.471   5.177  10.414
78039W        W50464  13.835  21.618   5.535
78040W        W50465  44.978  23.632  11.172
78041W        W50466  44.347  12.889   3.363
78042W        W50467  44.671  28.138   3.207
78043W        W50468  13.508   9.160  12.015
78044W        W50469  21.472  29.929  14.033
78045W        W50470  34.664   8.854   3.310
78046W        W50471   0.972  14.690   3.275
78047W        W50472  13.320  15.636   0.024
78048W        W50473   8.343  36.055   3.991
78049W        W50474  32.098  20.654   0.670
78050W        W50475  25.139   6.948   3.316
78051W        W50476   9.818  24.906   4.735
78052W        W50477  19.085  26.439   2.356
78053W        W50478  32.634  41.408  14.952
78054W        W50479  18.098  14.652  12.324
78055W        W50480  39.909  15.405  11.568
78056W        W50481  15.449  24.152  10.026
78057W        W50482  25.141   8.842  14.742
78058W        W50483  41.763  26.031  13.887
78059W        W50484  43.128  35.310   3.632
78060W        W50485  11.234  38.596  12.487
78061W        W50486   6.485  31.327   0.253
78062W        W50487  42.265  23.817  11.926
78063W        W50488  43.751  39.500  14.457
78064W        W50489  27.523  35.719  13.802
78065W        W50490  37.377  14.794   4.411
78066W        W50491  17.112  18.112   1.240
78067W        W50492  13.307   3.374   2.287
78068W        W50493  39.837  29.676  11.385
78069W        W50494  42.197  18.274   4.067
78070W        W50495  21.285  12.499   4.647
78071W        W50496  28.959   3.080  13.960
78072W        W50497  40.612   6.687   2.132
78073W        W50498  32.439  40.852   0.964
78074W        W50499  43.316   0.039  13.273
78075W        W50500  27.538  40.024  10.880
78076W        W50501  10.770   3.137  11.587
78077W        W50502  28.085   2.998  13.388
78078W        W50503  31.152  43.952  10.362
78079W        W50504  24.166  35.148   4.643
78080W        W50505   1.994  42.604  11.087
78081W        W50506   9.672  26.870  10.624
78082W        W50507  14.442  34.301  11.191
78083W        W50508  14.220   7.102   3.391
78084W        W50509  40.350  17.057  10.978
78085W        W50510  34.784  13.021  14.750
78086W        W50511  43.478  24.038   2.581
78087W        W50512  18.521   7.148   2.842
78088W        W50513   7.318  13.336  11.230
78089W        W50514  30.453  26.873   1.203
78090W        W50515  32.950  35.957  12.929
78091W        W50516  11.740   5.363   1.326
78092W        W50517  41.843  33.658  11.092
78093W        W50518  11.832  13.847  13.024
78094W        W50519  39.396  44.440  14.005
78095W        W50520  19.988  38.487   0.286
78096W        W50521  37.461   8.092   4.510
78097W        W50522  36.971   1.191   1.261
78098W        W50523  39.452  24.025  14.533
78099W        W50524  23.230  27.635   0.990
78100W        W50525  36.087  34.572  13.388
78101W        W50526  34.577  35.069  12.072
78102W        W50527  16.782  38.534   3.245
78103W        W50528  16.131  13.762   4.170
78104W        W50529   6.248  17.785   1.852
78105W        W50530  15.840  31.877   2.274
78106W        W50531  36.742  39.266  11.659
78107W        W50532  29.697   5.729  13.447
78108W        W50533  15.387   0.966  14.133
78109W        W50534  22.157   1.423   3.755
78110W        W50535  11.352  12.599   2.725
78111W        W50536  29.556   6.724  13.354
78112W        W50537  25.996  42.423   1.426
78113W        W50538   9.250  28.165  11.077
78114W        W50539   3.312  13.709  13.351
78115W        W50540  34.413  32.473   1.482
78116W        W50541  19.762  15.417   1.204
78117W        W50542  20.794   7.212  12.647
78118W        W50543  42.573  16.381  11.066
78119W        W50544   0.401  34.606   4.139
78120W        W50545   1.520  27.946   1.354
78121W        W50546   2.764  39.208  12.515
78122W        W50547  42.602   7.860   2.698
78123W        W50548  42.805  18.589   3.891
78124W        W50549  30.568  13.309  10.697
78125W        W50550  37.440  17.133  12.406
78126W        W50551  40.537  44.733  10.607
78127W        W50552  13.584   7.360  12.526
78128W        W50553   4.850  40.650  14.939
78129W        W50554   3.828  33.124  12.523
78130W        W50555  33.584  27.677   1.929
78131W        W50556   0.039  15.341  11.075
78132W        W50557   3.275  40.514   3.855
78133W        W50558  15.083  25.024  13.892
78134W        W50559   0.226  42.780  14.351
78135W        W50560  29.699   0.834   3.135
78136W        W50561  25.205  18.253   1.352
78137W        W50562  31.091  43.683   2.506
78138W        W50563  22.250  16.076  14.015
78139W        W50564  19.532  21.739   2.189
78140W        W50565  21.667   1.489   4.581
78141W        W50566  17.270  10.187   9.822
78142W        W50567  34.391   3.282   1.454
78143W        W50568  39.595  23.715  11.964
78144W        W50569   2.741  38.940   0.203
78145W        W50570  44.122  26.828  14.347
78146W        W50571  25.594  17.500  14.811
78147W        W50572  20.576  41.776  11.936
78148W        W50573  28.660  41.066  13.459
78149W        W50574  11.155  24.834   3.092
78150W        W50575  37.419  14.784   3.896
78151W        W50576   6.268  20.178  11.513
78152W        W50577  39.383   7.898  12.876
78153W        W50578  33.369  26.579  13.502
78154W        W50579  37.329  10.136   3.677
78155W        W50580   2.456  16.147  10.418
78156W        W50581   3.485   6.715  10.434
78157W        W50582  30.158  26.411  12.912
78158W        W50583  24.475  27.141  14.321
78159W        W50584  30.199  35.816   1.628
78160W        W50585  31.663  11.803   3.621
78161W        W50586  42.311  21.461  14.323
78162W        W50587  21.787  25.008  12.857
78163W        W50588  22.580  41.241  12.148
78164W        W50589  16.578  10.072  10.909
78165W        W50590   5.215  33.975  14.821
78166W        W50591  13.619   0.263   1.781
78167W        W50592  17.208  15.569   0.483
78168W        W50593   0.314   2.713   4.914
78169W        W50594  13.350   7.926   2.359
78170W        W50595  18.285  27.929  13.011
78171W        W50596  26.190  21.454  14.386
78172W        W50597  28.802  32.443   1.882
78173W        W50598  21.295  34.939   2.846
78174W        W50599  22.144  12.649  12.099
78175W        W50600   3.834  20.569   3.180
78176W        W50601  15.048  31.027  12.435
78177W        W50602  20.318   1.816   3.747
78178W        W50603  17.664  25.117   2.720
78179W        W50604  27.103   0.200   3.123
78180W        W50605   1.025   2.343   0.990
78181W        W50606  30.352  19.394  14.954
78182W        W50607   8.691  29.330   2.131
78183W        W50608  21.835  38.652  14.824
78184W        W50609   4.152  35.474   1.934
78185W        W50610  17.125  22.686  12.770
78186W        W50611  44.494   3.318   4.149
78187W        W50612  12.677  27.165   4.717
78188W        W50613  10.377  23.723  12.981
78189W        W50614  37.162   2.103   2.636
78190W        W50615  10.721  14.252  14.076
78191W        W50616  43.651   3.794   1.236
78192W        W50617  26.527   7.841   1.018
78193W        W50618  23.554   6.661   4.627
78194W        W50619  12.793   8.737   1.186
78195W        W50620   9.969  14.976  14.437
78196W        W50621   5.258  34.095  10.447
78197W        W50622  22.337  30.959   4.299
78198W        W50623  27.451  42.265  14.882
78199W        W50624  31.973  44.565   5.097
78200W        W50625  20.522   2.863  11.019
78201W        W50626  16.168  23.054   1.865
78202W        W50627   7.739  18.737   3.459
78203W        W50628  12.141   2.184  14.346
78204W        W50629  16.418  15.131  12.143
78205W        W50630  21.563  36.324   3.648
78206W        W50631  23.717  29.020  13.433
78207W        W50632  35.267  28.573  14.808
78208W        W50633  43.727   1.396   3.643
78209W        W50634  21.238  41.937  13.999
78210W        W50635   2.452   4.385   2.297
78211W        W50636  18.972  11.807   3.237
78212W        W50637   1.686  19.587  11.914
78213W        W50638   6.180   7.103  11.542
78214W        W50639  16.053   7.215   4.533
78215W        W50640   0.812   0.508   2.758
78216W        W50641   6.743  24.774  13.937
78217W        W50642  44.345  25.237  14.476
78218W        W50643   7.800  41.186  11.481
78219W        W50644  30.614  32.519   3.390
78220W        W50645  38.850  27.370   2.403
78221W        W50646  43.086  36.918  12.856
78222W        W50647  35.513  10.321   3.325
78223W        W50648  42.917  33.016   3.551
78224W        W50649  42.022  36.778   1.316
78225W        W50650  10.102   0.852  13.436
78226W        W50651  34.466  23.098  14.981
78227W        W50652   2.874  11.331   2.846
78228W        W50653  41.268  40.898  12.388
78229W        W50654  19.186  14.152   1.478
78230W        W50655  37.904  14.309   2.278
78231W        W50656  26.413  39.977  14.839
78232W        W50657  11.849  35.478   0.403
78233W        W50658  19.995  20.729   3.341
78234W        W50659  14.479  40.854   4.253
78235W        W50660  41.103  24.248  11.095
78236W        W50661   7.953  24.420  14.829
78237W        W50662  37.149   1.899  12.550
78238W        W50663  27.368  43.426   4.515
78239W        W50664   6.887  10.744  12.907
78240W        W50665   7.733   6.258  14.198
78241W        W50666  24.892  27.149   4.509
78242W        W50667   2.339  21.888  11.562
78243W        W50668  14.700  12.742  12.865
78244W        W50669   4.424  23.462  11.929
78245W        W50670  21.292  43.009  13.758
78246W        W50671  23.248  32.921  12.903
78247W        W50672  37.831  42.062   0.276
78248W        W50673  28.120  37.848   3.220
78249W        W50674  18.837  14.604  10.979
78250W        W50675  24.597  35.526  14.334
78251W        W50676   9.410  37.526   1.227
78252W        W50677   2.318  26.757   4.160
78253W        W50678  13.296  26.607   4.054
78254W        W50679   5.624  42.806   4.112
78255W        W50680  42.507  36.913   1.342
78256W        W50681  42.536  19.203  13.374
78257W        W50682   0.974  42.086  11.786
78258W        W50683  38.866  12.058  13.549
78259W        W50684  33.456  14.316   2.248
78260W        W50685  32.047  37.304   3.112
78261W        W50686  35.063  13.336   1.880
78262W        W50687  12.169  13.225  13.440
78263W        W50688  11.873  18.637  12.398
78264W        W50689  16.340  42.632  13.386
78265W        W50690  40.564   4.686  11.659
78266W        W50691  32.648  20.402  12.170
78267W        W50692   6.739  23.682  14.937
78268W        W50693  21.396  10.319   5.568
78269W        W50694  35.632   5.519   4.601
78270W        W50695  19.279   9.796  14.683
78271W        W50696  25.446   8.710   3.112
78272W        W50697   9.145  16.961  14.334
78273W        W50698   7.450  11.086   2.240
78274W        W50699   4.872  24.716   0.849
78275W        W50700   7.222  19.738   0.760
78276W        W50701  19.289  30.333   3.974
78277W        W50702   2.979   4.969  12.995
78278W        W50703   3.679  27.054  13.373
78279W        W50704  18.136  11.151  11.593
78280W        W50705  43.737  29.043  10.621
78281W        W50706  16.939   0.641   3.254
78282W        W50707  43.508  29.385  11.478
78283W        W50708  18.479   8.204  10.907
78284W        W50709  34.374  12.348  14.451
78285W        W50710   9.337   2.252  13.492
78286W        W50711  43.379   3.050   1.413
78287W        W50712  12.585  11.226   4.490
78288W        W50713  30.683  26.684   4.581
78289W        W50714  32.080  22.985   0.282
78290W        W50715  16.364  19.288  12.555
78291W        W50716  44.909  42.827   1.930
78292W        W50717  15.756  12.213   2.405
78293W        W50718   3.920  29.424   1.850
78294W        W50719  40.939  20.189   3.663
78295W        W50720   6.968  23.631   1.005
78296W        W50721   5.944  33.416  14.860
78297W        W50722   8.735  24.721   0.384
78298W        W50723   3.099  14.795   1.866
78299W        W50724  33.060  33.145  12.440
78300W        W50725  19.243  11.393  12.919
78301W        W50726  31.502  20.769  13.186
78302W        W50727   7.900  39.832  11.248
78303W        W50728  32.133   6.473   1.410
78304W        W50729  37.303  35.065   2.305
78305W        W50730  14.581  16.019  11.938
78306W        W50731  37.365   7.674  12.960
78307W        W50732  15.857   6.856  12.523
78308W        W50733   1.442  37.108   0.743
78309W        W50734  33.638  31.335   1.070
78310W        W50735  27.153  35.992  14.064
78311W        W50736  16.319   9.880   4.203
78312W        W50737  37.435  36.637   1.364
78313W        W50738  24.310  19.107  12.337
78314W        W50739  29.189  32.476  14.323
78315W        W50740  28.475  37.992  10.536
78316W        W50741  25.074  11.370  14.634
78317W        W50742  19.330  15.701  14.941
78318W        W50743  23.138  27.497  13.363
78319W        W50744  39.105  34.503   2.188
78320W        W50745  25.564   8.676  10.984
78321W        W50746   9.173  40.599  12.466
78322W        W50747  37.366  43.425   0.579
78323W        W50748  24.270   4.484  12.901
78324W        W50749  16.731  16.738  12.504
78325W        W50750   0.296  25.880  14.885
78326W        W50751   4.443   0.184  12.837
78327W        W50752  32.044  31.599   3.375
78328W        W50753  31.782  12.072  13.926
78329W        W50754   3.323  43.540   3.300
78330W        W50755   5.296  24.434   2.740
78331W        W50756  24.640  39.144  13.117
78332W        W50757  44.025  41.752   0.276
78333W        W50758   5.444   5.075   3.760
78334W        W50759  10.404  23.940  10.404
78335W        W50760  34.988  16.311   0.456
78336W        W50761  15.250   1.245   5.456
78337W        W50762  10.072  12.946   1.263
78338W        W50763  11.735   7.840  12.144
78339W        W50764  37.153  17.069   3.652
78340W        W50765  28.672  10.144  14.765
78341W        W50766  36.948  27.752  13.410
78342W        W50767  42.664   9.871   5.018
78343W        W50768  33.461  12.660   4.977
78344W        W50769  10.796  44.774   1.601
78345W        W50770  40.193  19.213  11.651
78346W        W50771  23.874  14.237  12.019
78347W        W50772  42.252  37.262  11.095
78348W        W50773  30.456  31.494  14.936
78349W        W50774   3.388  30.988   4.075
78350W        W50775  30.584  41.950  13.242
78351W        W50776  38.257  16.334  14.733
78352W        W50777  32.953   0.453   2.766
78353W        W50778  28.447  27.395  12.475
78354W        W50779   6.090  27.657   3.282
78355W        W50780  20.260   5.962   0.220
78356W        W50781   8.699  27.115  10.895
78357W        W50782   8.601  19.262  14.120
78358W        W50783   5.256  24.992   1.232
78359W        W50784  20.648  37.029  11.740
78360W        W50785  14.239  29.414  11.068
78361W        W50786  31.799  29.477  11.014
78362W        W50787   1.572  18.699   2.624
78363W        W50788   6.718  17.109  11.132
78364W        W50789  11.883  15.085   3.350
78365W        W50790  13.336   7.740   2.850
78366W        W50791  32.576  36.196   0.550
78367W        W50792  36.643   0.263  10.880
78368W        W50793  23.104  12.260  11.171
78369W        W50794  35.350  27.831  13.895
78370W        W50795   5.967  43.843   2.461
78371W        W50796  13.198   3.333   4.169
78372W        W50797   1.418  33.661   2.752
78373W        W50798  23.081  25.210  13.871
78374W        W50799   2.173   3.714  13.409
78375W        W50800  35.821  31.934  14.571
78376W        W50801  11.165  11.132   3.444
78377W        W50802  43.238  27.646  11.039
78378W        W50803  35.964  22.079   0.707
78379W        W50804   7.407  10.371  10.232
78380W        W50805  39.862   1.336  13.844
78381W        W50806  13.812   9.646   0.454
78382W        W50807  13.341  14.315   1.247
78383W        W50808   4.714  37.294  14.247
78384W        W50809   2.950   2.932  12.366
78385W        W50810  11.318  35.277   1.852
78386W        W50811  31.077  23.183   3.415
78387W        W50812   1.203  34.385  11.848
78388W        W50813  23.712   9.830  10.602
78389W        W50814  40.421  16.447  10.754
78390W        W50815  37.876   3.331  11.850
78391W        W50816  39.772  19.065   3.605
78392W        W50817  12.377  44.735   3.322
78393W        W50818   7.473  16.768  13.960
78394W        W50819  34.582  25.146  12.971
78395W        W50820   1.334  11.855  10.598
78396W        W50821   3.189  28.975   4.093
78397W        W50822  25.029  24.851   1.028
78398W        W50823   4.810  10.008   4.513
78399W        W50824  17.359   2.914   2.236
78400W        W50825  44.326   0.022   1.279
78401W        W50826   0.741  40.747  10.684
78402W        W50827  22.971   5.778  12.396
78403W        W50828  35.564  24.777   2.352
78404W        W50829  28.196   2.681  10.494
78405W        W50830  30.481   7.928  12.088
78406W        W50831  30.469  28.112  14.895
78407W        W50832  33.218  44.510  11.488
78408W        W50833  17.381  13.115  11.617
78409W        W50834   5.429  43.708  10.804
78410W        W50835   8.433  39.702   3.105
78411W        W50836  40.797  40.542  11.645
78412W        W50837  17.317  19.526   1.429
78413W        W50838  10.060  39.784  10.753
78414W        W50839  41.540  37.251  13.848
78415W        W50840  44.991  37.912  13.348
78416W        W50841  24.591   3.317  10.395
78417W        W50842  20.115  15.794   1.314
78418W        W50843   7.069  35.289  11.620
78419W        W50844  34.846  39.942   0.940
78420W        W50845  37.990  12.483  13.476
78421W        W50846  36.551  18.628   1.888
78422W        W50847  36.121  43.542   2.621
78423W        W50848  21.470  44.821   2.858
78424W        W50849  33.010  15.368   1.751
78425W        W50850  42.072  33.623   1.867
78426W        W50851   8.227  13.345  11.635
78427W        W50852  14.783  29.008   4.162
78428W        W50853  14.178  28.842   4.782
78429W        W50854  41.425  40.124   1.691
78430W        W50855   8.482  10.982   5.058
78431W        W50856  34.592  27.661   1.985
78432W        W50857   6.964  35.019  14.662
78433W        W50858   5.670  24.640   0.316
78434W        W50859   9.100  28.566  11.370
78435W        W50860  14.512  11.684  12.930
78436W        W50861   1.277  26.167   4.954
78437W        W50862  43.796  40.400   0.928
78438W        W50863  39.196  24.193  12.065
78439W        W50864  38.979  17.759   0.543
78440W        W50865  23.261   8.042   1.521
78441W        W50866  21.125  32.878   4.750
78442W        W50867   4.420   7.715  12.431
78443W        W50868   2.329  42.606  14.861
78444W        W50869  27.207   9.746  10.531
78445W        W50870  12.869  44.286   0.855
78446W        W50871   8.225  32.541   2.573
78447W        W50872  36.895  24.288   0.033
78448W        W50873   4.279   7.152   4.486
78449W        W50874  25.401  34.618   2.715
78450W        W50875  25.541  43.308  10.382
78451W        W50876  15.305  20.806  11.415
78452W        W50877  29.317  35.924   2.327
78453W        W50878  41.533  42.137  14.953
78454W        W50879  13.099  30.670   1.812
78455W        W50880   6.398  38.382   2.206
78456W        W50881  19.431  11.148  11.072
78457W        W50882  10.340  42.614   0.455
78458W        W50883   7.152  12.164  13.918
78459W        W50884  27.465  37.625   4.543
78460W        W50885  40.000  22.686  14.100
78461W        W50886  39.468  23.356  11.144
78462W        W50887  29.350  38.544   3.185
78463W        W50888   4.622  25.984  14.460
78464W        W50889  33.598   1.760  13.773
78465W        W50890  14.621  28.877   3.129
78466W        W50891  40.510  34.313   2.769
78467W        W50892  18.212  12.161   4.849
78468W        W50893  22.559  41.719   1.155
78469W        W50894  25.200   0.700  12.993
78470W        W50895  43.366  30.388   4.644
78471W        W50896  32.872  16.053  12.445
78472W        W50897  26.031  36.218  14.836
78473W        W50898  43.612  33.925  13.435
78474W        W50899   7.065  31.380   4.212
78475W        W50900  39.613  39.640  10.979
78476W        W50901  13.653  12.851   2.765
78477W        W50902  21.805   6.773   2.246
78478W        W50903  17.304   8.189  11.620
78479W        W50904  36.978   6.500  13.865
78480W        W50905  34.772  42.359   1.462
78481W        W50906  29.948   0.682  14.626
78482W        W50907  23.990  37.644  11.965
78483W        W50908   3.903  14.770  12.569
78484W        W50909   6.519   9.307   2.094
78485W        W50910  16.286  17.511  12.366
78486W        W50911  29.484  16.750  13.511
78487W        W50912  13.768  25.068   9.838
78488W        W50913  42.267  32.169  14.579
78489W        W50914  28.255  27.712  14.393
78490W        W50915  19.177  24.555  13.072
78491W        W50916  18.710  29.126   2.199
78492W        W50917   4.313  26.911  14.957
78493W        W50918   2.845  31.633  13.964
78494W        W50919   7.480  14.160   4.170
78495W        W50920  16.611   2.010   0.823
78496W        W50921   0.387  28.874   3.277
78497W        W50922   2.882  24.901  14.814
78498W        W50923  30.979  41.367   3.665
78499W        W50924  13.577  31.318  10.373
78500W        W50925  43.016  29.162   3.879
78501W        W50926  24.233  13.244  10.659
78502W        W50927  13.090  43.833  13.401
78503W        W50928  43.884  16.170  14.726
78504W        W50929  33.537  28.448  12.416
78505W        W50930  17.269  27.165   1.913
78506W        W50931  40.477  30.109   4.496
78507W        W50932  26.388  10.174  13.396
78508W        W50933  27.179  21.784   4.613
78509W        W50934  31.552  15.024  11.406
78510W        W50935  32.362  15.171   4.102
78511W        W50936   1.549  31.450  14.803
78512W        W50937  42.282  31.208  11.059
78513W        W50938  27.069  32.519   5.437
78514W        W50939  21.258  33.414   4.623
78515W        W50940   2.383  30.518   3.652
78516W        W50941  16.513  11.839  12.345
78517W        W50942  36.107  37.988   0.926
78518W        W50943  15.588   0.224   4.161
78519W        W50944  11.588  20.620  10.633
78520W        W50945  28.206  27.176   0.737
78521W        W50946  14.808   7.843   2.240
78522W        W50947   0.893  17.054   0.852
78523W        W50948  30.231  32.253   9.902
78524W        W50949  23.440  40.958  12.045
78525W        W50950   4.301   6.410  12.163
78526W        W50951   9.694  24.737  12.426
78527W        W50952  14.232   0.273  13.290
78528W        W50953  39.343   5.202  10.488
78529W        W50954  27.452  19.379  13.405
78530W        W50955  12.296  40.076  10.490
78531W        W50956  10.256  36.418   4.163
78532W        W50957  28.976  44.341   0.431
78533W        W50958   0.764  41.495   3.652
78534W        W50959  24.819  24.142   0.402
78535W        W50960  19.933   1.425   4.799
78536W        W50961  32.256  28.689  13.773
78537W        W50962   9.673  30.486  14.877
78538W        W50963   0.298  16.824   1.233
78539W        W50964  13.802  36.947   2.849
78540W        W50965  24.280  43.823   2.173
78541W        W50966  35.729  23.979  13.848
78542W        W50967  14.493   1.812  10.770
78543W        W50968   8.373   6.842   2.274
78544W        W50969  19.087  11.822   2.305
78545W        W50970  33.029  41.988   2.392
78546W        W50971  23.009  15.856  13.527
78547W        W50972  29.612  20.230   3.907
78548W        W50973  15.126   3.342   0.895
78549W        W50974   7.835  43.923  12.512
78550W        W50975   3.005  30.657  13.912
78551W        W50976  22.347  15.147   4.357
78552W        W50977  12.043  18.036   0.434
78553W        W50978  16.772  15.275  12.919
78554W        W50979  13.276  41.146  13.463
78555W        W50980  24.676  20.779  11.883
78556W        W50981  13.975  16.402   4.118
78557W        W50982  42.467  43.264   4.945
78558W        W50983  14.681  37.576   2.837
78559W        W50984  36.528  22.742   0.801
78560W        W50985  43.469  24.250  14.970
78561W        W50986  11.902  30.857  14.834
78562W        W50987  43.914  37.357   1.301
78563W        W50988  41.416  15.247   3.757
78564W        W50989  29.506  41.580  13.739
78565W        W50990   1.448  10.064   1.964
78566W        W50991  19.736  17.051  11.608
78567W        W50992  17.206  25.336   3.832
78568W        W50993  38.435   5.287   2.764
78569W        W50994  20.542  33.835   4.062
78570W        W50995  20.571  24.128  12.865
78571W        W50996  29.458  29.225  14.758
78572W        W50997  11.369  14.665   0.287
78573W        W50998  17.185  39.446   0.197
78574W        W50999  29.970  23.250   3.669
78575W        W51000  25.228  19.767   3.653
78576W        W51001   2.068  12.711  13.264
78577W        W51002  29.498  11.687  13.974
78578W        W51003  17.143  29.251   3.273
78579W        W51004   9.870  17.019  11.731
78580W        W51005  30.462  39.049   2.941
78581W        W51006  25.816  17.581   4.955
78582W        W51007  38.086  39.584   0.500
78583W        W51008  36.005  43.432  11.522
78584W        W51009  15.749  18.842   0.881
78585W        W51010  33.389   2.509   2.475
78586W        W51011  12.514  33.063  14.986
78587W        W51012  30.147  11.314  11.681
78588W        W51013   4.690  30.312   1.926
78589W        W51014  31.136  15.212   4.513
78590W        W51015  39.413  13.993   1.796
78591W        W51016  32.096  12.282   4.074
78592W        W51017  14.842  40.339  14.356
78593W        W51018   6.817  13.781   1.259
78594W        W51019   4.791  13.377   2.806
78595W        W51020  25.174   4.044  13.501
78596W        W51021  38.450  17.858   1.297
78597W        W51022   5.499  34.410   3.802
78598W        W51023  28.038  31.729  12.074
78599W        W51024  12.497  12.489  12.118
78600W        W51025  26.711  23.244  14.092
78601W        W51026  29.463  34.803   3.883
78602W        W51027  34.548   0.343  10.940
78603W        W51028  43.543  40.325   4.489
78604W        W51029  18.976  12.089  12.467
78605W        W51030  23.420   7.141   2.093
78606W        W51031  40.287  15.304   1.714
78607W        W51032   1.258  18.463   0.372
78608W        W51033   3.873   6.492  12.829
78609W        W51034  19.060  30.419   4.428
78610W        W51035  16.539  41.224   1.221
78611W        W51036  33.174   9.681   3.275
78612W        W51037  18.567   0.505  13.823
78613W        W51038   8.816  29.915   4.164
78614W        W51039   2.658  32.829   0.789
78615W        W51040  34.834   5.834   1.341
78616W        W51041   4.797  43.840  13.584
78617W        W51042  21.569   5.967  10.997
78618W        W51043   2.761   6.731   0.905
78619W        W51044  15.578  24.820   3.288
78620W        W51045  29.801  11.622   0.295
78621W        W51046  42.456   8.375  14.004
78622W        W51047  18.025   8.426   0.035
78623W        W51048  28.762  34.076  12.005
78624W        W51049  34.439  29.269  12.057
78625W        W51050  15.312  37.895  12.702
78626W        W51051  23.269   9.282  12.281
78627W        W51052  22.571  40.999  13.842
78628W        W51053  11.588  41.545  11.107
78629W        W51054  38.850  14.364   3.960
78630W        W51055  30.909   5.887   2.646
78631W        W51056  41.570  35.944  14.494
78632W        W51057  36.975   0.662  13.987
78633W        W51058   8.636   2.858  11.207
78634W        W51059  36.129  38.505   0.843
78635W        W51060  18.241   3.094   1.883
78636W        W51061  14.690  17.836  12.535
78637W        W51062   3.844   9.768  14.440
78638W        W51063  20.789   7.526  13.531
78639W        W51064  13.558  17.087   3.618
78640W        W51065   4.830  23.202   0.116
78641W        W51066   5.573  41.453  11.138
78642W        W51067  41.976  20.894   4.154
78643W        W51068  36.390  34.210  11.678
78644W        W51069   9.728  13.810  14.412
78645W        W51070  37.602  39.989  14.438
78646W        W51071  15.596  31.125  11.980
78647W        W51072  21.095  21.357   4.412
78648W        W51073  15.723  35.044  12.142
78649W        W51074  31.030  20.858   3.937
78650W        W51075  29.032  41.380   2.355
78651W        W51076  25.751  23.274  11.536
78652W        W51077  42.294  43.796  12.392
78653W        W51078  34.584  35.186  13.943
78654W        W51079   8.281  23.180  11.907
78655W        W51080  25.463   7.623   5.046
78656W        W51081  38.977  38.665  13.031
78657W        W51082   0.363  24.248   2.841
78658W        W51083   0.429  41.706   1.683
78659W        W51084   3.207   3.165   2.501
78660W        W51085  42.881  21.439  13.016
78661W        W51086  38.513  16.707   3.219
78662W        W51087  31.381  35.425  13.347
78663W        W51088  36.277   9.325  13.747
78664W        W51089  40.689   0.659   3.262
78665W        W51090  19.019  12.314  10.725
78666W        W51091  28.748  38.117  13.294
78667W        W51092  12.957   1.290   4.056
78668W        W51093  16.811  26.004  10.408
78669W        W51094  36.370  41.322   0.825
78670W        W51095  10.633  18.556  11.274
78671W        W51096   4.706  37.460   3.883
78672W        W51097  42.314   1.476  12.080
78673W        W51098   1.668  25.006   4.522
78674W        W51099  19.709   7.682   4.660
78675W        W51100  34.563   3.917  14.060
78676W        W51101  33.489  39.454  14.986
78677W        W51102  24.477  25.701   2.781
78678W        W51103   8.403   5.650   2.384
78679W        W51104  12.782   0.685   2.716
78680W        W51105  38.889   3.356   3.991
78681W        W51106  16.810  42.954   4.047
78682W        W51107  29.611  10.888  13.421
78683W        W51108  30.400  36.911   4.474
78684W        W51109  20.236  37.374   3.351
78685W        W51110  13.330  13.049  13.851
78686W        W51111   4.708  27.482   0.323
78687W        W51112   9.801  16.939  10.331
78688W        W51113   3.803  17.369   4.025
78689W        W51114  42.748  44.811  10.640
78690W        W51115   3.873  20.678  14.346
78691W        W51116  23.987   1.514  12.047
78692W        W51117  26.699   5.349   3.092
78693W        W51118  20.078  27.972  13.325
78694W        W51119  21.672  42.755   3.732
78695W        W51120   7.265  10.756  14.760
78696W        W51121  42.129  34.202   0.406
78697W        W51122  28.904   1.423   1.715
78698W        W51123  30.172  42.003   4.513
78699W        W51124  27.311  24.477   0.724
78700W        W51125  31.457  38.000   2.728
78701W        W51126  35.589  33.080   1.956
78702W        W51127   6.713  34.396   3.267
78703W        W51128  17.005  19.610   1.025
78704W        W51129  44.480  21.026   0.850
78705W        W51130   8.208  37.030  10.001
78706W        W51131   3.349  43.751   4.642
78707W        W51132  43.071  17.027  11.424
78708W        W51133  42.499  12.758   1.206
78709W        W51134  20.786  29.987  11.692
78710W        W51135  21.707   5.198   0.437
78711W        W51136  27.090   3.370  13.962
78712W        W51137  41.800  22.556   0.557
78713W        W51138  12.902   6.682   3.345
78714W        W51139  36.584   3.905   1.312
78715W        W51140   7.496  43.866   4.541
78716W        W51141  31.732  32.677  13.778
78717W        W51142  17.207  17.431   4.748
78718W        W51143  40.127  44.892  10.313
78719W        W51144  24.510  37.066   0.923
78720W        W51145  32.400  10.275   3.156
78721W        W51146  34.126  30.947  13.480
78722W        W51147  28.549  35.022   4.575
78723W        W51148  14.492  24.499   4.612
78724W        W51149  42.534  32.565  14.240
78725W        W51150  26.611  20.842  11.106
78726W        W51151  14.611   8.018  11.511
78727W        W51152  34.957  41.258   3.320
78728W        W51153  31.018  18.075  13.133
78729W        W51154  12.384  42.500   0.848
78730W        W51155   8.803  16.481  12.481
78731W        W51156  34.215   9.417  10.711
78732W        W51157   7.245  32.688  13.449
78733W        W51158  36.154  17.248   2.303
78734W        W51159  19.239   3.206   3.346
78735W        W51160  17.526  26.599   0.408
78736W        W51161   8.692  42.887  11.661
78737W        W51162  21.510  11.945   0.471
78738W        W51163   6.329  29.403   3.652
78739W        W51164  31.237  36.057  11.112
78740W        W51165   9.182   6.028  13.009
78741W        W51166   4.142  38.994   0.320
78742W        W51167  42.467  12.623  11.378
78743W        W51168  14.521   6.135  10.006
78744W        W51169  31.348  16.986  12.474
78745W        W51170  13.788  22.525  11.409
78746W        W51171   1.898  24.100   4.641
78747W        W51172  30.213  38.134   3.147
78748W        W51173  16.872  36.262  14.014
78749W        W51174  25.105   0.874  11.005
78750W        W51175  35.664  36.074  11.636
78751W        W51176  41.040  22.014   2.939
78752W        W51177  11.720  12.976   9.977
78753W        W51178  31.571   0.194   1.637
78754W        W51179  41.251  18.555  11.633
78755W        W51180  43.302  30.991   0.373
78756W        W51181   5.664   2.197  14.528
78757W        W51182  23.537  29.007   3.043
78758W        W51183  28.414  33.714  12.073
78759W        W51184  26.072  41.936  13.902
78760W        W51185  42.514   6.973   0.414
78761W        W51186  38.085  34.449  13.826
78762W        W51187  10.454   4.959   4.250
78763W        W51188  39.794   3.364  13.327
78764W        W51189  37.424  24.181  10.584
78765W        W51190  31.776  26.811  14.297
78766W        W51191  23.683  33.009  10.796
78767W        W51192   9.636   6.949  14.914
78768W        W51193  36.854  19.816   0.857
78769W        W51194  34.411  20.043   3.583
78770W        W51195  30.993  19.363   3.059
78771W        W51196  43.368   8.875   3.118
78772W        W51197  41.431  16.057   4.263
78773W        W51198  30.063  41.337   0.965
78774W        W51199   6.379  35.858   1.429
78775W        W51200  26.090  19.606  13.225
78776W        W51201  38.380  35.501  14.399
78777W        W51202  21.585  36.835   1.293
78778W        W51203  24.965   2.307  13.778
78779W        W51204  27.598  17.610   0.056
78780W        W51205  14.799  17.308   3.730
78781W        W51206  17.276  15.118  11.628
78782W        W51207  26.098  41.791   2.717
78783W        W51208   5.065  41.587  13.491
78784W        W51209   6.421  40.494   0.505
78785W        W51210  14.908  41.044  13.944
78786W        W51211  14.258  36.518  13.422
78787W        W51212   1.356  28.345   3.166
78788W        W51213  41.357  21.670  12.973
78789W        W51214  22.474  37.326   4.202
78790W        W51215  31.052  27.442  12.607
78791W        W51216  30.920  16.702  14.419
78792W        W51217  39.383  15.200   4.920
78793W        W51218  23.182  21.169   3.664
78794W        W51219   0.307  40.111  11.719
78795W        W51220   1.725   4.444  14.385
78796W        W51221  34.600   2.968   4.062
78797W        W51222  32.156  24.639   1.425
78798W        W51223   5.202   1.696  12.597
78799W        W51224  32.149   6.015   3.953
78800W        W51225  33.061  11.680  13.414
78801W        W51226  25.970  44.425  14.547
78802W        W51227  37.018  24.170  10.259
78803W        W51228  29.480  26.905  11.882
78804W        W51229   4.879   6.815   2.387
78805W        W51230  40.902  35.626   1.434
78806W        W51231   4.267  22.678   1.655
78807W        W51232   1.308  36.311  10.784
78808W        W51233   3.258   6.448  11.080
78809W        W51234   6.978  15.859  13.783
78810W        W51235   9.506  14.681  13.782
78811W        W51236  30.966  36.524   3.194
78812W        W51237  35.119  41.665  11.065
78813W        W51238   0.764  32.985  10.152
78814W        W51239  29.150  31.842  13.523
78815W        W51240  25.542   6.864   1.426
78816W        W51241   1.259  36.929   0.285
78817W        W51242  29.158  39.356  14.915
78818W        W51243  37.798  25.704  13.359
78819W        W51244  36.095  31.550   3.427
78820W        W51245  31.101  33.314   1.188
78821W        W51246  15.119  36.852   2.491
78822W        W51247   1.457  23.654  12.499
78823W        W51248  39.264  33.569   1.737
78824W        W51249  40.504  42.399  13.848
78825W        W51250  27.286  37.639   1.130
78826W        W51251  29.601  29.666  10.858
78827W        W51252   4.894  18.650  14.480
78828W        W51253  25.979  34.573   2.837
78829W        W51254  32.361  44.821   2.808
78830W        W51255  10.716  43.387   2.179
78831W        W51256  13.379  23.235   3.744
78832W        W51257  39.443  40.663   2.669
78833W        W51258   4.824  34.021  11.379
78834W        W51259  34.400  40.178   4.375
78835W        W51260   4.987  23.443  12.597
78836W        W51261  21.304  25.052  12.683
78837W        W51262  26.271  19.595  13.728
78838W        W51263   4.343   1.988   2.264
78839W        W51264   9.722  19.068   4.578
78840W        W51265  16.548  39.563  12.018
78841W        W51266  12.553  40.006   3.285
78842W        W51267  38.299   5.986   3.824
78843W        W51268  22.505  10.179  12.963
78844W        W51269  39.721  24.043  13.544
78845W        W51270   0.325  34.578   3.280
78846W        W51271  28.664   1.195  12.958
78847W        W51272  25.528  14.371  11.226
78848W        W51273   2.765  36.506  11.391
78849W        W51274  37.137  15.001   5.143
78850W        W51275   9.134   6.418   0.964
78851W        W51276  10.124  40.828   3.116
78852W        W51277  39.596  19.711  13.423
78853W        W51278  40.227  14.663  11.835
78854W        W51279   0.754  34.226   3.152
78855W        W51280   5.758  12.065   0.454
78856W        W51281  15.674   6.484   2.875
78857W        W51282  23.580  31.899  13.953
78858W        W51283  32.991  12.628  13.433
78859W        W51284  12.918  35.387  11.656
78860W        W51285  12.318  19.259  13.789
78861W        W51286  31.702  36.629   4.917
78862W        W51287  29.720  28.303  11.053
78863W        W51288   2.000  10.665   0.311
78864W        W51289  10.326  14.125   0.555
78865W        W51290  11.598  18.209  13.407
78866W        W51291  42.687   9.224   3.164
78867W        W51292  30.468  13.179   0.923
78868W        W51293  26.047  33.333   4.899
78869W        W51294  17.971  32.394   1.303
78870W        W51295   8.416  35.868   1.579
78871W        W51296   6.821  13.329  13.466
78872W        W51297  36.205   6.710  13.489
78873W        W51298  25.406  24.969  11.869
78874W        W51299   9.142  32.477   2.829
78875W        W51300  27.136  42.501   3.212
78876W        W51301  30.373   0.969   4.977
78877W        W51302  23.181  18.552   1.354
78878W        W51303   9.582  14.625  14.873
78879W        W51304  24.058  36.081   3.591
78880W        W51305  30.084  33.129  13.889
78881W        W51306  21.217  39.903   3.564
78882W        W51307  19.058   2.527  14.864
78883W        W51308  18.751  37.353  10.527
78884W        W51309  26.090  39.552   4.631
78885W        W51310  35.383  43.491   2.398
78886W        W51311  26.405  38.801  11.420
78887W        W51312  25.672   8.446   2.696
78888W        W51313  22.502  13.411  12.898
78889W        W51314  16.132  20.325   3.868
78890W        W51315  27.234  22.601  11.915
78891W        W51316  17.218  41.046  14.370
78892W        W51317  11.622  40.319  14.912
78893W        W51318  38.608  14.689  11.593
78894W        W51319  35.057  24.967  11.097
78895W        W51320   2.689  23.076   3.325
78896W        W51321  22.508  18.583   0.687
78897W        W51322   4.227  12.823   4.750
78898W        W51323  36.408  41.902   4.927
78899W        W51324  10.660   3.917   3.755
78900W        W51325  30.514  36.846   2.399
78901W        W51326  35.290  24.549   4.069
78902W        W51327   0.213   6.326  11.572
78903W        W51328  12.888  24.958   2.568
78904W        W51329  35.284  31.561   0.268
78905W        W51330  23.237  27.072   1.825
78906W        W51331   7.388  18.802   1.618
78907W        W51332  31.049  16.750   2.995
78908W        W51333  29.731  42.894  14.266
78909W        W51334  18.801  12.096   1.973
78910W        W51335   0.257  37.437   4.410
78911W        W51336  15.777  27.867  10.458
78912W        W51337  24.450  42.742  12.082
78913W        W51338  19.346  44.130  11.718
78914W        W51339   5.961  30.033  11.661
78915W        W51340  39.443  31.460  10.693
78916W        W51341  12.126  31.515   3.639
78917W        W51342  41.411  25.716  12.832
78918W        W51343  15.276   3.854   3.675
78919W        W51344   6.830  43.984  14.745
78920W        W51345  38.363  30.501  14.507
78921W        W51346  44.569  16.900   4.940
78922W        W51347  21.153   9.592  14.625
78923W        W51348  27.994  39.060   1.784
78924W        W51349  25.070   4.902   3.293
78925W        W51350  37.353  10.756  12.071
78926W        W51351  13.870  33.596  11.434
78927W        W51352  26.943  38.389   2.264
78928W        W51353  36.144   6.447  12.577
78929W        W51354  22.224  44.911  11.761
78930W        W51355  23.595  19.295   2.361
78931W        W51356  36.002  27.974   2.433
78932W        W51357  29.441  23.604  11.612
78933W        W51358  24.987  30.119  12.503
78934W        W51359   7.462  37.908  11.110
78935W        W51360  23.712  44.741  11.718
78936W        W51361  39.396   9.202   1.280
78937W        W51362  13.983  40.656  10.949
78938W        W51363  17.319  18.361   2.373
78939W        W51364  44.928  24.269  13.892
78940W        W51365  29.807  18.286   4.099
78941W        W51366  12.331   5.965  11.114
78942W        W51367  13.949  19.565   4.112
78943W        W51368  31.615  13.603   3.548
78944W        W51369  17.818  41.074  13.120
78945W        W51370  39.062  25.166   1.250
78946W        W51371  33.205   0.909   2.712
78947W        W51372   8.921   5.864  12.179
78948W        W51373   1.662  29.669   2.228
78949W        W51374  14.323  27.104   3.643
78950W        W51375  21.208  42.846  14.916
78951W        W51376  19.785   7.091  11.119
78952W        W51377  17.135  31.343   1.924
78953W        W51378  12.261  42.460  13.969
78954W        W51379  39.920   0.777  12.576
78955W        W51380  23.115  14.048  12.473
78956W        W51381   8.122  18.785   2.768
78957W        W51382  26.765  11.098  12.402
78958W        W51383   5.927   4.377  11.525
78959W        W51384   6.453  23.652  13.548
78960W        W51385   0.292  32.546   4.458
78961W        W51386  39.459  25.284   0.499
78962W        W51387  18.061  41.992  13.792
78963W        W51388  31.044  30.157   3.872
78964W        W51389  29.687  21.988   3.210
78965W        W51390  16.171  28.606   3.077
78966W        W51391  33.302   0.823   4.186
78967W        W51392  36.922  15.833   2.700
78968W        W51393   1.461  27.344   3.331
78969W        W51394  17.044   7.221   2.687
78970W        W51395  40.328  20.784  10.652
78971W        W51396  16.311  15.578  10.744
78972W        W51397  38.339   9.153   3.279
78973W        W51398  24.994  19.203  10.773
78974W        W51399  23.275  22.297   0.953
78975W        W51400  32.539  17.621  12.447
78976W        W51401  40.743  12.733  11.632
78977W        W51402   7.691   5.089   0.937
78978W        W51403   1.517  35.990  13.915
78979W        W51404  33.102  33.813   3.654
78980W        W51405  23.291   7.583  13.643
78981W        W51406  20.974  38.935   1.820
78982W        W51407   1.204  42.490  12.939
78983W        W51408  30.947  42.442   1.484
78984W        W51409   2.347  29.221  11.187
78985W        W51410  39.824  28.610   4.894
78986W        W51411  32.089   7.412   3.850
78987W        W51412  42.565   0.470  14.815
78988W        W51413   9.477  42.987   4.804
78989W        W51414  35.850  11.767  13.779
78990W        W51415  43.238  13.591   3.143
78991W        W51416  18.532  42.807   3.586
78992W        W51417   1.335   6.886  12.502
78993W        W51418  32.236  23.508   3.063
78994W        W51419  24.206  14.056  13.536
78995W        W51420  35.104  26.961   2.061
78996W        W51421  15.974   5.952   3.763
78997W        W51422  14.560  18.596   3.428
78998W        W51423  30.052  30.076  13.811
78999W        W51424  38.110  41.842   4.107
79000W        W51425   3.978  25.004   0.959
79001W        W51426  31.936  27.490  12.509
79002W        W51427  30.223  16.380   4.864
79003W        W51428  33.282  39.451   1.425
79004W        W51429   6.274  24.844   1.285
79005W        W51430  21.178  20.610  10.750
79006W        W51431  21.616   7.166  12.209
79007W        W51432   0.066  27.612   0.911
79008W        W51433   0.856  29.679  14.643
79009W        W51434  39.056  22.643   0.760
79010W        W51435   2.443  41.886   3.245
79011W        W51436   3.692  11.665   1.446
79012W        W51437   0.552  38.981  13.361
79013W        W51438  30.584  43.955  12.131
79014W        W51439  10.312  15.684  13.924
79015W        W51440  31.133  27.901   3.144
79016W        W51441  28.011   1.972   3.273
79017W        W51442  29.675   0.481   2.773
79018W        W51443  36.636  11.787   0.842
79019W        W51444  17.762  21.170  10.412
79020W        W51445   1.114  22.836  14.181
79021W        W51446   5.493   0.882  11.983
79022W        W51447  44.206  39.478  11.028
79023W        W51448  30.146  32.794   3.608
79024W        W51449  12.530  20.224  14.496
79025W        W51450  15.489  40.427   4.547
79026W        W51451  14.462   3.273  14.969
79027W        W51452  20.690   0.932  13.342
79028W        W51453  33.424   9.258  11.145
79029W        W51454  23.803  33.038   2.224
79030W        W51455  22.942  14.270  10.811
79031W        W51456   5.891  25.620  14.553
79032W        W51457  33.426   1.276  13.950
79033W        W51458  21.990  22.151  12.896
79034W        W51459  13.044   4.107  11.089
79035W        W51460  27.740  32.490   1.033
79036W        W51461  35.753   9.282  10.645
79037W        W51462  33.643  20.734  11.354
79038W        W51463  14.203  20.934   3.670
79039W        W51464  42.914  17.899  10.260
79040W        W51465  27.353  12.072  13.475
79041W        W51466  32.827   2.693  14.413
79042W        W51467  11.635  35.496  12.107
79043W        W51468  29.611   4.311   0.381
79044W        W51469  17.005   8.192   1.861
79045W        W51470  30.663  32.419  12.036
79046W        W51471  36.940  40.766   4.114
79047W        W51472  12.879   6.277  10.515
79048W        W51473  12.928  40.257  12.469
79049W        W51474  42.624   1.875  14.076
79050W        W51475  43.743  34.645   4.119
79051W        W51476  36.296  43.670   2.145
79052W        W51477  26.531  42.011  11.000
79053W        W51478  18.966  38.614  11.108
79054W        W51479  20.776   3.203  10.488
79055W        W51480  14.346   3.718   3.184
79056W        W51481  32.913   8.837   0.320
79057W        W51482  24.648  10.640  12.413
79058W        W51483  10.294  39.430  12.846
79059W        W51484   9.991  20.260   2.229
79060W        W51485  31.979   2.727   0.255
79061W        W51486  17.227  13.584   0.457
79062W        W51487   7.171  32.347   0.268
79063W        W51488   1.656  44.672  14.390
79064W        W51489  32.719  29.080  10.348
79065W        W51490  13.727  40.297   0.964
79066W        W51491   3.230   7.357  13.390
79067W        W51492  27.943  27.337   3.721
79068W        W51493  23.683  35.079   0.307
79069W        W51494  41.091  21.431  13.353
79070W        W51495  41.997   3.559  13.878
79071W        W51496  32.822  41.072   2.895
79072W        W51497  24.090  24.455   3.671
79073W        W51498   1.252  31.543   1.519
79074W        W51499  14.987  33.580  11.140
79075W        W51500   5.362  26.178  12.516
79076W        W51501  26.430  13.110   1.870
79077W        W51502  34.348  41.837  11.477
79078W        W51503  18.569  34.933   1.829
79079W        W51504  22.078  20.227   0.708
79080W        W51505   9.630  11.261   4.887
79081W        W51506  43.440  33.435   4.670
79082W        W51507  20.079   6.810   3.011
79083W        W51508  12.774  27.233   2.975
79084W        W51509  23.024  43.316   0.237
79085W        W51510  19.597   8.562   0.596
79086W        W51511  18.656  42.358  13.939
79087W        W51512  12.538  40.229   2.762
79088W        W51513  20.943  28.214  14.304
79089W        W51514  33.508   9.315   2.153
79090W        W51515  23.601   5.829   0.417
79091W        W51516   5.931  24.633  10.611
79092W        W51517  36.408  25.479  10.481
79093W        W51518  26.067   9.854   3.615
79094W        W51519  18.051  14.856   0.969
79095W        W51520  42.307  25.131  11.037
79096W        W51521  31.429  19.183   1.351
79097W        W51522   8.213  28.796   2.719
79098W        W51523   7.195  28.878   0.344
79099W        W51524  26.130  28.256   4.707
79100W        W51525  21.419  25.860   4.679
79101W        W51526  25.612   0.098   2.982
79102W        W51527  37.178   4.636  12.034
79103W        W51528  43.479   2.894  10.813
79104W        W51529   6.317  30.688   1.438
79105W        W51530  17.970   8.527  13.001
79106W        W51531  43.895  39.590   4.148
79107W        W51532  19.233  27.446   2.254
79108W        W51533   3.299  33.263  14.384
79109W        W51534  20.218  43.919   0.850
79110W        W51535  23.048  33.153  14.653
79111W        W51536   5.268   9.252   1.291
79112W        W51537  29.009  32.045   0.496
79113W        W51538  20.530  14.192   3.989
79114W        W51539  34.914  28.164   1.442
79115W        W51540  37.055  26.046  12.877
79116W        W51541  22.365  22.612  10.233
79117W        W51542  44.380   7.030   3.235
79118W        W51543   4.440  41.732  12.409
79119W        W51544  30.118  28.468   1.158
79120W        W51545  37.830  43.395  10.932
79121W        W51546  16.924  20.008  12.445
79122W        W51547  40.513  16.080   2.753
79123W        W51548  15.072  24.311   4.575
79124W        W51549  39.655  37.086  13.385
79125W        W51550   1.858  35.360   0.778
79126W        W51551  42.701  23.142   1.968
79127W        W51552   0.668  23.693   4.153
79128W        W51553   3.920  32.126  14.914
79129W        W51554  37.573  27.854  11.087
79130W        W51555  22.303  19.723   2.036
79131W        W51556  11.930   2.670   0.229
79132W        W51557  10.632  33.217  13.493
79133W        W51558  44.086  35.971  12.993
79134W        W51559  44.694  29.200   1.403
79135W        W51560  15.282  42.778  12.015
79136W        W51561  12.838   0.224  10.523
79137W        W51562  40.641  31.870   3.299
79138W        W51563  28.132  27.085   9.868
79139W        W51564  22.766   1.089  11.960
79140W        W51565   3.291  34.471   4.181
79141W        W51566  18.356  16.135   1.902
79142W        W51567  33.959   3.448   1.775
79143W        W51568  27.462  21.914   2.226
79144W        W51569  41.597  31.789   3.355
79145W        W51570  42.768  31.061  10.778
79146W        W51571  36.439  22.006   2.219
79147W        W51572  44.837  31.021   0.937
79148W        W51573  14.657  26.911  14.795
79149W        W51574  30.477   9.887  13.066
79150W        W51575  23.741  10.252   4.100
79151W        W51576   3.560  41.474  11.179
79152W        W51577  15.700  18.094  12.988
79153W        W51578  40.875  35.448   0.952
79154W        W51579   9.201  44.428  13.977
79155W        W51580  18.601   0.750  11.087
79156W        W51581  10.088  35.784   2.085
79157W        W51582  26.686  36.315  14.711
79158W        W51583   8.992  23.872  12.850
79159W        W51584  39.602  37.803  11.582
79160W        W51585  29.411  19.177   1.138
79161W        W51586   6.072  39.007   0.968
79162W        W51587   1.498  18.766   3.122
79163W        W51588   8.949  27.960  12.448
79164W        W51589   4.296  32.266   0.245
79165W        W51590  14.274   6.133  12.545
79166W        W51591  24.812  33.488  14.684
79167W        W51592  44.956  27.636   2.678
79168W        W51593  44.259   1.304  12.930
79169W        W51594  11.782  18.329   0.079
79170W        W51595  14.603  37.559   3.732
79171W        W51596  26.728  21.664  13.139
79172W        W51597  32.480  44.163  11.195
79173W        W51598   8.338   5.702  11.482
79174W        W51599  16.973  21.569  12.484
79175W        W51600  22.517  11.111  13.900
79176W        W51601  37.153  24.191   3.203
79177W        W51602   4.651  40.825  14.315
79178W        W51603   4.740  33.326   0.225
79179W        W51604  35.271  41.294  12.881
79180W        W51605  39.634   3.341  14.715
79181W        W51606  19.968  31.741  10.721
79182W        W51607  19.484  25.698  10.775
79183W        W51608  23.541  30.445   2.111
79184W        W51609   7.293  14.319   2.338
79185W        W51610   1.738   9.622   0.904
79186W        W51611  41.784  37.715  12.856
79187W        W51612  15.128  38.649  14.989
79188W        W51613  42.495  34.095   0.793
79189W        W51614  43.315  27.603   4.174
79190W        W51615  23.202  30.457  12.676
79191W        W51616  33.328  40.055  10.365
79192W        W51617  15.844   5.238  14.814
79193W        W51618  24.570  38.362   3.201
79194W        W51619  42.350  23.503   1.735
79195W        W51620   1.034  25.721  13.946
79196W        W51621   9.903  20.553   1.788
79197W        W51622  25.186  23.080   0.140
79198W        W51623  22.062  19.249   2.600
79199W        W51624   6.480  21.496   1.426
79200W        W51625  18.706  22.951  10.998
79201W        W51626  23.443  41.851  14.077
79202W        W51627  11.548   7.578   1.018
79203W        W51628  19.122   3.201   1.097
79204W        W51629  43.907  30.492   2.420
79205W        W51630  16.994  23.156   2.801
79206W        W51631  38.449  23.966  14.380
79207W        W51632  37.547  29.555   3.300
79208W        W51633  33.545   2.642  12.375
79209W        W51634  36.843  17.454   0.804
79210W        W51635  10.390  13.964  12.875
79211W        W51636  15.836  16.761  14.898
79212W        W51637  15.868   5.455   4.600
79213W        W51638  35.638  10.718  14.410
79214W        W51639  10.465  43.161  12.838
79215W        W51640  36.763  39.833   2.775
79216W        W51641   8.609  27.461  14.744
79217W        W51642  27.367   9.770  14.430
79218W        W51643  39.056  20.426  14.432
79219W        W51644  15.273  14.786   4.102
79220W        W51645  28.429  21.034  13.447
79221W        W51646  41.308   5.675  10.836
79222W        W51647  14.551  24.965   0.843
79223W        W51648  22.286   1.973  11.998
79224W        W51649   5.067  42.821   4.995
79225W        W51650   2.274   9.720   2.721
79226W        W51651   8.657  11.581   1.798
79227W        W51652  28.455  13.897   3.685
79228W        W51653  18.004  40.123  14.969
79229W        W51654  33.858  44.269   2.290
79230W        W51655  35.805  31.749   2.494
79231W        W51656  24.145  22.712   4.613
79232W        W51657  39.797   0.239   1.316
79233W        W51658  40.004   1.310   0.815
79234W        W51659  17.544  27.367  11.039
79235W        W51660  19.652   2.695  13.044
79236W        W51661  40.906  36.149   3.283
79237W        W51662   6.182  15.975   1.347
79238W        W51663  31.445  39.963  13.605
79239W        W51664  33.424  38.529   0.263
79240W        W51665  16.806  33.444  13.799
79241W        W51666  11.253   5.460   2.232
79242W        W51667  18.893  22.177   2.829
79243W        W51668  32.418  42.530   0.708
79244W        W51669  34.614  20.618  10.532
79245W        W51670  14.542   6.725  14.140
79246W        W51671  37.647   9.424  11.575
79247W        W51672   5.534  39.519   0.370
79248W        W51673  13.102   5.883   4.351
79249W        W51674  24.281  41.529  10.647
79250W        W51675  12.808   2.422  13.416
79251W        W51676   7.218  33.857   1.737
79252W        W51677  15.088  13.663   2.316
79253W        W51678   5.850  25.234  11.166
79254W        W51679  36.864  22.929   2.747
79255W        W51680  12.798  41.532  10.726
79256W        W51681   4.790  20.080   3.650
79257W        W51682   5.704  27.445   3.574
79258W        W51683  38.249  24.164   2.153
79259W        W51684  42.219   5.602  12.878
79260W        W51685  30.761   2.370   4.272
79261W        W51686  26.304  26.043   2.785
79262W        W51687   0.448  15.214   2.771
79263W        W51688  36.901   1.398  12.520
79264W        W51689  16.690  44.754  13.302
79265W        W51690  36.107  28.149   2.912
79266W        W51691  35.645   2.519   3.672
79267W        W51692  25.944  21.649  11.960
79268W        W51693  43.709  30.442  14.778
79269W        W51694  12.331  39.980  14.615
79270W        W51695   3.345  28.974   2.762
79271W        W51696  32.492  18.634  11.659
79272W        W51697  24.616  27.440   1.291
79273W        W51698   0.062  16.547  14.904
79274W        W51699  30.160  23.198  13.038
79275W        W51700  44.233  30.892  13.960
79276W        W51701  17.413   9.906   1.819
79277W        W51702  29.629   8.218   2.254
79278W        W51703  20.173  27.623  12.561
79279W        W51704  16.721  27.044   0.186
79280W        W51705  30.015  26.091  14.327
79281W        W51706  31.970  34.033  11.079
79282W        W51707  39.604   1.398   2.341
79283W        W51708  43.565  22.551   0.775
79284W        W51709  25.004  19.300   0.005
79285W        W51710  37.107  41.503  13.676
79286W        W51711   3.134  25.221   3.686
79287W        W51712   0.743   7.687  11.680
79288W        W51713   1.317  31.142   3.007
79289W        W51714  37.071  34.888  11.589
79290W        W51715  40.085   6.712   2.165
79291W        W51716   2.723  41.496   2.975
79292W        W51717  30.263  23.660   3.561
79293W        W51718  22.301  15.513   0.328
79294W        W51719  21.865   9.420   4.200
79295W        W51720   2.096  25.040   3.805
79296W        W51721  15.695  35.410  13.037
79297W        W51722  11.374  44.008  11.126
79298W        W51723  24.606   8.210   0.292
79299W        W51724  44.459  28.659   0.737
79300W        W51725  42.578  27.170   1.801
79301W        W51726   9.741  12.296  14.696
79302W        W51727  22.028   2.227   3.309
79303W        W51728   2.249   3.376  12.734
79304W        W51729  39.964   6.963  12.517
79305W        W51730  37.834  20.247  14.971
79306W        W51731  37.516  16.873   3.149
79307W        W51732  41.744  42.511  12.069
79308W        W51733  12.830  15.547  10.626
79309W        W51734  26.908   1.241  14.836
79310W        W51735  22.150  41.698  14.067
79311W        W51736  33.914   7.995  12.595
79312W        W51737   3.861  26.497   3.564
79313W        W51738  14.599   4.274  11.717
79314W        W51739   8.162  23.653   2.706
79315W        W51740  14.408   8.833  12.094
79316W        W51741  19.843  22.200   4.700
79317W        W51742   7.393   2.429  13.913
79318W        W51743  30.901  23.039   2.661
79319W        W51744  13.976  25.615  12.877
79320W        W51745   1.729  31.223   5.047
79321W        W51746   1.740  21.017   0.953
79322W        W51747  40.733  26.534   4.655
79323W        W51748   7.869   7.916  14.041
79324W        W51749  24.277  29.125   0.703
79325W        W51750  30.055  16.547   9.725
79326W        W51751  20.585   5.735  12.908
79327W        W51752  16.602   1.360   2.147
79328W        W51753  33.615  30.894  10.648
79329W        W51754  25.513   5.859   4.577
79330W        W51755  13.784  26.140   0.701
79331W        W51756   8.333  40.757   3.774
79332W        W51757  27.910  29.119  14.013
79333W        W51758  13.658  28.211  10.412
79334W        W51759   4.039  42.661  11.725
79335W        W51760   8.645   0.217  11.633
79336W        W51761  39.565   1.481   3.235
79337W        W51762  18.685  14.833  14.905
79338W        W51763  43.810   1.586   0.966
79339W        W51764  30.586  31.516   3.699
79340W        W51765  12.134  22.528   0.022
79341W        W51766  15.236  21.696   3.693
79342W        W51767   6.369  34.929   4.621
79343W        W51768  12.604   5.130  13.962
79344W        W51769  32.952  17.565   0.866
79345W        W51770  23.981  22.016   0.536
79346W        W51771   5.911  36.026   2.185
79347W        W51772  27.002  29.126   0.908
79348W        W51773  21.816   1.569   5.061
79349W        W51774   8.025  20.151   2.343
79350W        W51775  35.860  18.737  13.423
79351W        W51776  21.740  29.050  12.543
79352W        W51777   4.133  43.091  11.983
79353W        W51778  18.542   4.521  11.145
79354W        W51779  31.463  36.512   0.831
79355W        W51780  20.684  36.854  11.239
79356W        W51781  17.186   5.990   2.934
79357W        W51782  27.636   7.959  13.385
79358W        W51783  14.621  22.508   0.911
79359W        W51784  30.071  35.346   1.864
79360W        W51785  30.790  17.387  13.836
79361W        W51786  38.541  13.268  10.685
79362W        W51787   0.228  10.851   3.691
79363W        W51788  13.744  12.722  13.981
79364W        W51789   7.308  38.275   3.035
79365W        W51790   2.497   1.990   2.132
79366W        W51791  36.489  21.975  13.826
79367W        W51792   7.282  20.206   1.378
79368W        W51793  34.404  43.528  12.415
79369W        W51794  31.605  22.104  10.431
79370W        W51795  43.818  30.649   4.730
79371W        W51796  23.316  14.163  12.935
79372W        W51797   5.249   2.968  13.192
79373W        W51798   0.597  26.879   1.035
79374W        W51799  43.949  21.006   0.766
79375W        W51800  36.516  43.821   4.567
79376W        W51801  42.406  18.767  13.652
79377W        W51802  27.926  36.816  10.585
79378W        W51803   7.904  35.505  11.686
79379W        W51804  37.111  27.910   4.211
79380W        W51805  23.974  35.403  11.570
79381W        W51806  10.662  36.435  13.815
79382W        W51807  21.514  11.567  12.908
79383W        W51808  41.561   7.031  11.526
79384W        W51809  19.089  22.039  14.212
79385W        W51810  17.703  24.126  11.218
79386W        W51811  29.180  38.480  13.972
79387W        W51812  33.450  23.487  11.503
79388W        W51813   4.896   6.060   1.262
79389W        W51814   7.175  36.951   0.465
79390W        W51815  19.050  41.806  13.504
79391W        W51816  16.397   6.316   4.078
79392W        W51817  41.185  12.785  11.970
79393W        W51818  39.851  16.696   3.699
79394W        W51819  21.676  30.652   2.671
79395W        W51820  18.214  39.821  11.962
79396W        W51821   2.656  35.224   5.109
79397W        W51822   1.695  18.794  14.118
79398W        W51823  11.611  31.058   0.726
79399W        W51824   3.486   6.383   1.714
79400W        W51825   4.537  37.950   3.795
79401W        W51826   0.377  28.732   0.498
79402W        W51827   8.464  34.981   0.088
79403W        W51828  20.458  43.261  13.491
79404W        W51829  20.027  27.076  13.505
79405W        W51830  40.863  41.634  11.071
79406W        W51831  11.275  26.869  11.542
79407W        W51832   1.815  35.372  12.310
79408W        W51833  26.121   0.690  11.034
79409W        W51834  40.416  31.094  11.994
79410W        W51835  38.512  36.377   2.273
79411W        W51836  19.158  42.187   4.683
79412W        W51837  38.549  19.709  14.777
79413W        W51838   0.584  10.691  12.058
79414W        W51839  36.824  28.512   1.652
79415W        W51840  21.997   1.117  11.118
79416W        W51841   3.474   7.819  13.557
79417W        W51842   2.738  19.058  14.918
79418W        W51843  14.776   9.733  14.416
79419W        W51844  33.438  30.525  12.358
79420W        W51845   7.210  11.664   1.663
79421W        W51846  23.032  24.698   0.519
79422W        W51847  11.264  43.377  14.763
79423W        W51848  32.601  16.689  13.383
79424W        W51849  39.071  30.452   0.893
79425W        W51850  30.465  40.379  12.487
79426W        W51851  23.173  20.278  12.056
79427W        W51852  39.440  28.052   4.216
79428W        W51853   8.709   4.621   1.010
79429W        W51854   0.363  41.973  10.707
79430W        W51855  28.792  34.498   1.790
79431W        W51856   4.524   0.409  13.700
79432W        W51857   7.967  12.564  11.025
79433W        W51858  35.242  42.882   2.653
79434W        W51859  19.046  19.830  13.491
79435W        W51860  17.271  24.767   2.796
79436W        W51861   1.545  37.791   3.022
79437W        W51862  36.315   2.564  11.421
79438W        W51863  32.578  30.881   2.889
79439W        W51864  11.342  37.481   1.605
79440W        W51865  23.035  30.085   2.202
79441W        W51866  44.197  41.975   1.108
79442W        W51867  12.133  31.852   0.548
79443W        W51868  16.131  36.805   0.335
79444W        W51869  29.374  29.059   2.906
79445W        W51870  16.637  31.490  14.254
79446W        W51871  19.977  24.234  12.441
79447W        W51872  37.340  41.999   4.598
79448W        W51873  13.102   6.954  14.346
79449W        W51874  36.672   1.913   2.692
79450W        W51875  15.586  21.388   3.369
79451W        W51876  36.431  16.100  11.693
79452W        W51877  21.959  30.552   0.029
79453W        W51878  41.445  25.790  11.565
79454W        W51879   2.502   7.296  10.273
79455W        W51880  27.003  42.581  13.143
79456W        W51881  37.370  15.598   2.847
79457W        W51882  31.072  40.000  12.127
79458W        W51883  12.738  32.996   2.810
79459W        W51884  16.860  26.763   1.005
79460W        W51885  16.726  42.490  12.468
79461W        W51886  32.021   4.899  11.113
79462W        W51887   6.548  29.436   1.719
79463W        W51888   0.541  31.889  12.298
79464W        W51889  19.274  19.691  11.701
79465W        W51890  13.840  10.816  11.701
79466W        W51891  15.803   4.383  10.119
79467W        W51892  29.206   5.822   1.524
79468W        W51893  43.446  27.608  14.700
79469W        W51894  17.217  12.994   1.296
79470W        W51895  15.045   4.933   2.182
79471W        W51896  41.072  24.651  12.365
79472W        W51897  22.738  35.528  10.573
79473W        W51898  38.556   0.025   4.608
79474W        W51899  38.016  19.743  14.785
79475W        W51900  40.554   7.730  14.517
79476W        W51901  24.256  28.877  13.499
79477W        W51902   0.898  22.188  11.923
79478W        W51903   3.229  13.725   2.567
79479W        W51904   2.417  31.033   3.755
79480W        W51905  38.365  27.273  12.880
79481W        W51906  28.103  21.433   3.539
79482W        W51907  11.274  19.271   1.613
79483W        W51908  16.669  11.329  10.582
79484W        W51909  43.357  14.770  12.335
79485W        W51910  14.034  14.310   1.875
79486W        W51911  29.901   9.176  10.781
79487W        W51912   4.355   5.717   2.893
79488W        W51913   6.999  29.119   0.788
79489W        W51914   0.672  18.979   2.792
79490W        W51915   7.713   2.809  12.614
79491W        W51916   5.967  32.504  14.677
79492W        W51917  26.622  44.526  12.893
79493W        W51918  21.993  41.413   4.105
79494W        W51919  37.087  24.603   2.329
79495W        W51920  30.103  27.416  13.920
79496W        W51921  20.807  37.000   3.110
79497W        W51922  21.533  22.055   4.109
79498W        W51923  38.327  17.066   4.286
79499W        W51924   4.700  42.093   1.858
79500W        W51925  16.549  41.892   3.956
79501W        W51926  19.053  14.879   0.256
79502W        W51927  42.558  30.920   0.866
79503W        W51928  39.967  16.711  10.777
79504W        W51929  34.533  31.893   1.322
79505W        W51930  20.129  26.913  12.284
79506W        W51931  11.772  38.029  10.021
79507W        W51932   1.654  22.262   2.203
79508W        W51933  33.353   6.753  12.455
79509W        W51934  15.608   2.679   0.600
79510W        W51935  42.673  14.342   2.846
79511W        W51936  43.054   1.120  13.274
79512W        W51937  23.476  27.272  13.931
79513W        W51938  41.934   3.728  11.074
79514W        W51939  37.370  20.373  11.498
79515W        W51940   2.902  24.924   4.080
79516W        W51941  21.030   0.036   3.630
79517W        W51942  27.945  31.495   1.436
79518W        W51943  30.874  13.664  13.732
79519W        W51944  11.996  12.047   0.217
79520W        W51945   4.439  36.079  14.211
79521W        W51946  37.006   9.413  14.394
79522W        W51947   9.494   0.477  13.026
79523W        W51948  30.698  24.059   5.033
79524W        W51949  13.728  31.618  11.782
79525W        W51950  10.483  18.188   0.221
79526W        W51951  41.885  33.189   1.639
79527W        W51952  17.734  21.915  11.591
79528W        W51953  17.580  25.972   3.685
79529W        W51954  17.310  11.183   4.398
79530W        W51955   7.857   4.858  14.974
79531W        W51956   5.711  16.108   1.218
79532W        W51957  30.728  19.576  12.931
79533W        W51958  21.050  29.677   3.591
79534W        W51959   0.984  32.011   0.260
79535W        W51960  27.187   4.140  12.034
79536W        W51961  13.257  31.862   4.129
79537W        W51962  21.164  12.615   1.386
79538W        W51963  16.562   1.620   4.564
79539W        W51964  14.004   3.426   5.019
79540W        W51965   3.013   1.918  13.996
79541W        W51966  29.097   7.403   4.114
79542W        W51967  19.732  36.380  12.159
79543W        W51968   3.834  24.520  12.974
79544W        W51969  22.619  44.631   0.331
79545W        W51970  18.556  35.598   2.851
79546W        W51971  35.098  37.535  12.013
79547W        W51972   8.289  19.738   4.709
79548W        W51973  28.575   7.501  13.320
79549W        W51974   5.883  42.336   4.172
79550W        W51975   2.410  19.981  13.069
79551W        W51976  22.913  42.586   1.761
79552W        W51977  13.325  44.042   0.831
79553W        W51978   1.391  13.818   0.443
79554W        W51979  23.331  36.878   1.915
79555W        W51980  20.759  40.912   3.977
79556W        W51981  28.463   4.878   4.235
79557W        W51982  32.189  26.014   3.594
79558W        W51983  11.267  16.188  14.586
79559W        W51984  23.107  40.358   4.329
79560W        W51985   8.884   8.781  11.919
79561W        W51986   1.698  36.917   3.716
79562W        W51987  15.563  41.510   1.652
79563W        W51988  40.001  42.958  14.364
79564W        W51989  29.566  18.322  11.515
79565W        W51990  41.670  15.935   9.702
79566W        W51991   7.790   7.250  14.002
79567W        W51992  19.608  25.156  11.082
79568W        W51993  17.643  22.033  11.089
79569W        W51994   8.928  26.648   4.214
79570W        W51995  20.622   4.788   2.566
79571W        W51996  12.753  43.513   2.252
79572W        W51997  16.351  27.242  14.872
79573W        W51998  10.628  10.487   0.002
79574W        W51999  37.442   3.752   0.506
79575W        W52000   5.353  16.163   0.855
79576W        W52001  29.123  26.029  11.148
79577W        W52002  13.232  15.121  13.549
79578W        W52003  27.741  33.074   5.356
79579W        W52004  13.595  13.237  13.384
79580W        W52005  44.502  20.809  13.774
79581W        W52006  24.483   3.416  11.441
79582W        W52007   8.161  28.238   3.599
79583W        W52008  14.747  11.616   4.653
79584W        W52009  36.516  29.753   4.309
79585W        W52010  32.824  35.526  12.547
79586W        W52011  23.042  24.363   0.977
79587W        W52012   2.273  19.063  11.231
79588W        W52013   4.307  23.499   4.824
79589W        W52014  20.101  23.606   2.586
79590W        W52015   6.909  16.691   2.637
79591W        W52016  40.740  15.301   0.094
79592W        W52017  43.728  30.122   0.739
79593W        W52018   1.986   5.832  12.901
79594W        W52019  33.455  20.980  14.958
79595W        W52020  43.369  36.606  11.524
79596W        W52021  17.226  42.263   2.050
79597W        W52022  21.550  42.773  12.356
79598W        W52023   9.687  15.699   0.766
79599W        W52024  43.493  40.296  13.367
79600W        W52025   7.542  29.228  11.651
79601W        W52026   2.265  11.148   4.056
79602W        W52027   8.190   8.856   3.010
79603W        W52028  12.730   3.135   4.302
79604W        W52029  29.234   5.216   4.232
79605W        W52030  35.363  10.072   1.777
79606W        W52031  27.474  38.977   4.250
79607W        W52032  28.164   7.170  12.390
79608W        W52033  19.894  34.140  13.734
79609W        W52034  32.807   4.715   4.733
79610W        W52035   2.923  31.144   3.840
79611W        W52036   1.290  41.692  11.590
79612W        W52037  24.529   5.653  12.509
79613W        W52038   2.426  11.298   2.606
79614W        W52039   3.138  14.603   0.908
79615W        W52040   6.729  12.730  14.614
79616W        W52041  37.261  22.019   1.606
79617W        W52042  26.051  33.509  11.822
79618W        W52043  43.522  13.201   4.879
79619W        W52044   8.275  31.396  14.518
79620W        W52045  35.057   9.831  12.758
79621W        W52046  23.096  36.080   2.321
79622W        W52047  39.564  14.614  11.671
79623W        W52048  27.144  12.319   3.568
79624W        W52049  26.503  43.304   4.557
79625W        W52050  30.112   0.404  11.935
79626W        W52051  33.011  24.571   2.738
79627W        W52052   3.213  33.437   0.652
79628W        W52053  30.478  12.824  14.579
79629W        W52054   7.699   7.291   4.542
79630W        W52055  15.134  27.112  10.633
79631W        W52056   9.074  39.054   2.671
79632W        W52057  31.404   2.761  11.696
79633W        W52058   9.930   5.999  14.679
79634W        W52059  13.380  35.319  11.450
79635W        W52060  37.124  14.078  14.004
79636W        W52061  12.092   0.343  10.547
79637W        W52062  11.274   1.937   4.820
79638W        W52063   1.734  10.662  14.806
79639W        W52064  32.584  20.557  10.597
79640W        W52065  34.101  26.843   3.279
79641W        W52066  18.642  33.041   1.952
79642W        W52067   2.944   4.256  11.465
79643W        W52068  22.123   9.975   1.030
79644W        W52069   3.884   0.408   0.999
79645W        W52070  28.212  29.934  13.584
79646W        W52071  35.396  44.480  12.496
79647W        W52072  28.675  16.998  10.926
79648W        W52073  44.040  26.051  11.001
79649W        W52074  35.381  17.808   4.563
79650W        W52075  11.069   8.711   1.646
79651W        W52076  14.173  42.013   2.805
79652W        W52077  19.568   6.733  13.054
79653W        W52078   3.495  33.963  13.346
79654W        W52079  41.058  29.559   0.346
79655W        W52080   5.204  30.373  14.485
79656W        W52081  12.159  10.366  13.433
79657W        W52082  36.834  26.719   0.257
79658W        W52083  40.404  31.251   4.035
79659W        W52084  33.055  40.089   2.180
79660W        W52085   6.105  15.345   2.093
79661W        W52086  17.291  30.940  11.119
79662W        W52087  43.455  23.948   4.554
79663W        W52088  20.612   2.728   2.349
79664W        W52089  17.261  42.739   4.169
79665W        W52090  38.285   4.854   0.444
79666W        W52091   3.907   7.403  11.659
79667W        W52092  29.171  41.183   4.073
79668W        W52093  10.338  26.656   2.264
79669W        W52094  15.111  19.758   2.175
79670W        W52095   5.462  19.228   0.734
79671W        W52096  13.945  32.911   1.277
79672W        W52097  41.756  39.061  10.689
79673W        W52098  31.283  31.671   2.403
79674W        W52099  21.516  30.153   0.026
79675W        W52100  10.715  33.061   0.850
79676W        W52101   9.678  35.944   9.959
79677W        W52102  36.440  11.605   1.874
79678W        W52103  10.294   9.327  10.540
79679W        W52104  44.234  17.236   2.329
79680W        W52105   3.764  18.031  14.458
79681W        W52106  21.570  39.746   3.910
79682W        W52107  10.470  41.561   1.250
79683W        W52108  22.961  38.597   1.333
79684W        W52109  23.029  15.819   1.004
79685W        W52110  17.345  40.045  12.162
79686W        W52111  36.878  32.076  11.065
79687W        W52112   6.815   7.120   4.264
79688W        W52113  30.051  10.172  14.015
79689W        W52114  24.242   4.680   1.440
79690W        W52115   0.177  22.211   4.566
79691W        W52116   2.780  34.736   4.897
79692W        W52117  19.691   6.826  11.564
79693W        W52118   2.541  23.154  13.804
79694W        W52119   3.613   0.796  13.885
79695W        W52120  24.587  23.202  11.089
79696W        W52121  41.082   6.972   2.153
79697W        W52122  27.670  15.071   4.687
79698W        W52123  31.791  16.204  11.070
79699W        W52124   8.482  10.296   4.772
79700W        W52125  18.992  24.526   1.730
79701W        W52126  21.709  42.227   2.903
79702W        W52127  16.552   0.066  12.888
79703W        W52128  42.747  39.793  11.163
79704W        W52129  23.707  19.783  12.403
79705W        W52130  42.454  22.140   0.503
79706W        W52131  42.985   4.818  12.334
79707W        W52132   8.751  19.286   0.417
79708W        W52133  33.077  27.784  14.311
79709W        W52134   5.242  38.446  10.743
79710W        W52135  22.236  30.024  14.278
79711W        W52136   4.532   1.497  13.454
79712W        W52137  29.054  31.186   0.048
79713W        W52138  37.562  27.616  11.550
79714W        W52139  40.921  11.328  12.054
79715W        W52140  23.831   2.428   2.790
79716W        W52141   4.464  17.961   4.177
79717W        W52142  37.741   5.787  10.732
79718W        W52143  15.814  33.637   1.230
79719W        W52144  40.077   8.417  14.433
79720W        W52145   1.897   9.639   2.294
79721W        W52146  30.755  43.187  12.537
79722W        W52147  26.907  31.167   4.215
79723W        W52148  18.837  13.223  13.074
79724W        W52149   2.559  41.005   1.783
79725W        W52150  43.682   3.704  14.983
79726W        W52151   0.566  11.790  14.357
79727W        W52152  16.604   3.952   3.251
79728W        W52153  41.336  33.575   4.671
79729W        W52154   2.743   6.375  14.358
79730W        W52155  27.214  12.738  11.487
79731W        W52156  31.557  21.913   0.856
79732W        W52157  11.981   2.210   2.943
79733W        W52158  21.629  36.962  12.877
79734W        W52159   1.708  33.574   1.027
79735W        W52160  23.208  33.352  13.811
79736W        W52161   4.611  26.503   1.918
79737W        W52162  10.204  10.992  13.801
79738W        W52163  41.000  15.744   3.100
79739W        W52164   3.210  31.394   4.353
79740W        W52165  10.759  18.643   1.938
79741W        W52166   2.244  14.459   3.025
79742W        W52167  13.891  11.781  14.995
79743W        W52168  35.183   4.753   3.628
79744W        W52169  36.938  16.112   4.980
79745W        W52170  36.810  18.815   0.675
79746W        W52171  24.835   2.321  10.489
79747W        W52172  27.196  36.523   4.707
79748W        W52173  28.558  30.090   0.226
79749W        W52174  19.523  41.084  13.335
79750W        W52175  31.041  28.204  11.074
79751W        W52176  36.177  37.535  13.351
79752W        W52177  34.571  39.723   0.012
79753W        W52178  16.308  17.737   0.809
79754W        W52179   8.163  13.482   0.837
79755W        W52180  39.498   0.328  10.631
79756W        W52181  25.310   0.215  13.190
79757W        W52182  43.233  11.158  10.752
79758W        W52183  32.513  19.598  11.900
79759W        W52184  10.256  37.467   4.827
79760W        W52185  33.527  38.096   0.532
79761W        W52186  23.232  10.781   9.801
79762W        W52187  25.876  16.319  14.316
79763W        W52188  27.551  15.342   2.575
79764W        W52189   6.361  16.173  13.458
79765W        W52190  30.578  41.768   1.861
79766W        W52191  11.670   5.537   4.218
79767W        W52192  22.064  31.122  12.470
79768W        W52193  24.271  33.657  12.380
79769W        W52194  12.365  25.706   3.735
79770W        W52195  27.558  41.025  13.545
79771W        W52196  17.934  19.380  14.398
79772W        W52197   3.562  37.336  12.994
79773W        W52198  29.122  24.980   0.877
79774W        W52199  37.865  14.162  14.461
79775W        W52200  40.468  14.425  12.645
79776W        W52201   4.248   1.388  12.452
79777W        W52202  39.803  16.992   4.158
79778W        W52203  18.284   7.966   2.546
79779W        W52204  35.259  23.949   3.471
79780W        W52205  39.843   9.275   0.474
79781W        W52206  30.586  43.847  11.086
79782W        W52207  21.493   6.472  11.107
79783W        W52208  22.478  26.526  11.117
79784W        W52209  17.771   2.801   4.029
79785W        W52210  40.455   5.809   3.156
79786W        W52211  10.790  20.050  12.162
79787W        W52212  31.327  22.470  12.916
79788W        W52213  39.528  35.859   1.443
79789W        W52214  30.981  27.475   3.401
79790W        W52215  20.638  11.187   3.826
79791W        W52216  34.036  27.637   0.469
79792W        W52217  40.120  11.662  13.981
79793W        W52218   0.062   7.202  14.925
79794W        W52219   9.281  28.813   4.437
79795W        W52220  12.254  28.743  14.419
79796W        W52221  32.704  32.619   3.212
79797W        W52222   9.382  16.888   0.094
79798W        W52223  37.958  38.390   0.249
79799W        W52224  11.250  27.799   0.421
79800W        W52225  39.045  43.549  11.459
79801W        W52226  13.213  30.618  12.490
79802W        W52227  26.041  40.385  10.671
79803W        W52228   7.349  36.891  10.713
79804W        W52229   6.913  19.160  10.510
79805W        W52230  41.520  24.264   1.145
79806W        W52231  31.834  43.219   2.183
79807W        W52232  35.973  38.291   4.621
79808W        W52233  32.183  15.197   4.611
79809W        W52234  22.038  40.082   4.662
79810W        W52235  43.525  44.231  12.193
79811W        W52236  25.098  37.619  10.706
79812W        W52237  33.977  29.064   0.018
79813W        W52238  44.538   7.321   2.207
79814W        W52239  32.278   1.193   4.552
79815W        W52240  37.808  23.553  12.617
79816W        W52241  19.655  36.142   0.514
79817W        W52242  37.994  42.415  14.510
79818W        W52243  43.763  19.563   1.274
79819W        W52244  26.991  12.782   2.267
79820W        W52245  32.927   2.672   1.925
79821W        W52246  36.272  33.595   1.873
79822W        W52247  41.537  21.699   2.892
79823W        W52248   4.673  33.578   4.593
79824W        W52249   7.892   0.809  12.459
79825W        W52250  18.835  34.493   1.859
79826W        W52251  20.469  19.331   4.579
79827W        W52252   7.736  31.539   0.732
79828W        W52253  15.279   4.857   2.654
79829W        W52254  39.368  27.994   0.691
79830W        W52255  15.238  31.631   4.163
79831W        W52256  41.901   7.134  13.741
79832W        W52257  31.669   6.215   3.821
79833W        W52258  37.140   6.464   1.330
79834W        W52259  10.513  27.551   3.196
79835W        W52260  42.499   6.410   4.913
79836W        W52261  26.203   3.309   4.097
79837W        W52262  30.455   4.658   4.955
79838W        W52263  43.890  42.481  10.698
79839W        W52264  15.629  15.174   4.005
79840W        W52265   1.680  33.638  13.808
79841W        W52266  29.558  34.102  13.710
79842W        W52267  20.213  21.726   2.901
79843W        W52268  33.799  42.156   1.122
79844W        W52269  27.950  33.065  10.059
79845W        W52270  15.518  30.704  10.993
79846W        W52271  37.123  14.642  12.194
79847W        W52272  26.148  33.520   4.421
79848W        W52273  21.618  15.348  13.101
79849W        W52274   1.457   2.296   0.714
79850W        W52275   5.367  10.374   2.947
79851W        W52276   9.235  13.141   2.261
79852W        W52277  10.759   5.828  12.079
79853W        W52278  22.546  30.956   2.882
79854W        W52279   0.027  32.189  14.358
79855W        W52280  35.953  16.404  14.428
79856W        W52281  28.922  15.101   1.662
79857W        W52282  26.797  14.891  13.937
79858W        W52283  13.076  13.204   4.528
79859W        W52284  20.535  41.623  13.911
79860W        W52285   2.239   4.339   0.437
79861W        W52286   6.334  29.163  14.184
79862W        W52287  39.941  11.257   1.823
79863W        W52288  32.086  32.455  13.282
79864W        W52289  25.895  23.687  12.608
79865W        W52290   6.723  28.595   3.002
79866W        W52291  39.881   0.894  14.556
79867W        W52292  44.787  18.303  13.910
79868W        W52293  26.918  15.494   1.765
79869W        W52294   8.694   8.179  13.861
79870W        W52295   3.556   8.466  12.017
79871W        W52296  44.498  34.499  11.937
79872W        W52297  14.064  21.729   9.790
79873W        W52298  39.481  29.170   2.703
79874W        W52299  33.984  22.766  11.051
79875W        W52300  24.025  23.404   0.150
79876W        W52301   3.406  24.220   0.429
79877W        W52302   9.266  24.119   1.829
79878W        W52303  18.769   1.851  11.221
79879W        W52304  35.958  17.513  10.566
79880W        W52305   9.173  33.194  10.871
79881W        W52306   5.653   8.324   0.241
79882W        W52307  17.842  24.551  10.979
79883W        W52308  23.753  26.481   3.325
79884W        W52309  27.960  18.847  10.520
79885W        W52310  34.886   5.914  12.843
79886W        W52311  29.569  40.886  14.469
79887W        W52312   2.170  31.604   3.216
79888W        W52313  35.389  10.926  14.822
79889W        W52314   1.178  35.533   2.740
79890W        W52315  17.324  17.267  14.482
79891W        W52316   4.839   5.262  14.876
79892W        W52317  19.634   7.191  13.835
79893W        W52318  13.398  28.346   1.901
79894W        W52319  33.859   0.908  10.676
79895W        W52320  21.117  32.882  10.179
79896W        W52321  41.977  16.571   4.538
79897W        W52322  12.985  35.502  11.120
79898W        W52323  44.859  44.307  13.079
79899W        W52324  23.491  10.169  11.434
79900W        W52325  13.764   2.368  11.149
79901W        W52326  40.800  15.973  13.984
79902W        W52327  30.041  19.137  14.606
79903W        W52328   6.936  11.808  14.337
79904W        W52329  41.107  19.132  12.920
79905W        W52330  11.596  33.373   2.166
79906W        W52331  12.046  29.708  13.622
79907W        W52332  15.462  35.638   1.575
79908W        W52333  15.180  33.560   3.934
79909W        W52334  21.280   1.877  14.472
79910W        W52335  44.229   2.809  14.865
79911W        W52336  25.725  39.511   0.275
79912W        W52337  39.423  10.001  13.000
79913W        W52338   9.713  11.785  12.564
79914W        W52339  14.911   7.136  14.021
79915W        W52340  27.023   4.315   0.432
79916W        W52341  37.370  29.472  14.449
79917W        W52342   0.099   9.635  12.442
79918W        W52343  27.174  22.317   1.737
79919W        W52344  24.947   3.757   4.701
79920W        W52345  19.496   0.342  13.335
79921W        W52346   2.947  18.006   0.725
79922W        W52347   3.714  31.971  12.024
79923W        W52348   1.783  19.753   2.843
79924W        W52349  41.895  23.847   1.021
79925W        W52350  22.181  12.072  11.006
79926W        W52351  33.205   3.885  14.786
79927W        W52352  38.413   4.828  11.385
79928W        W52353  11.946   4.215   4.533
79929W        W52354  29.152  33.684  11.097
79930W        W52355  11.424  22.479  13.682
79931W        W52356  30.229   4.712   3.229
79932W        W52357  11.238  31.161  10.623
79933W        W52358  20.514  33.396   1.254
79934W        W52359   3.176  43.831  14.504
79935W        W52360  18.901  40.926  11.472
79936W        W52361  12.206  14.961  12.819
79937W        W52362  15.206  34.164   4.637
79938W        W52363  12.262   6.238  13.346
79939W        W52364  22.037  13.642  11.765
79940W        W52365   1.734  37.779   1.331
79941W        W52366   9.573  41.447   3.583
79942W        W52367  12.214  28.457   3.947
79943W        W52368  10.377  19.421  14.812
79944W        W52369  40.007  27.094  10.510
79945W        W52370  31.929  35.057  10.732
79946W        W52371  28.917  12.874  14.060
79947W        W52372  11.824  37.487   1.366
79948W        W52373  38.616  38.785   4.246
79949W        W52374  43.833  28.030  10.588
79950W        W52375  29.149  40.730   1.737
79951W        W52376  24.977  15.550  14.004
79952W        W52377  21.227  26.669   2.698
79953W        W52378  24.983  21.904   1.473
79954W        W52379  29.912  44.433  10.654
79955W        W52380  29.970   7.457   0.719
79956W        W52381  17.267   2.703   4.935
79957W        W52382  43.774  22.805   3.192
79958W        W52383  34.232  31.156   0.858
79959W        W52384  15.179  27.652   3.345
79960W        W52385   7.661  30.725  12.648
79961W        W52386  44.405  25.448   3.689
79962W        W52387  43.264  13.809  13.859
79963W        W52388  19.572  33.671   2.866
79964W        W52389  41.425   9.748   2.448
79965W        W52390   8.667   9.097   4.901
79966W        W52391   1.273  39.782   0.071
79967W        W52392   6.748  39.470   2.451
79968W        W52393  10.855  11.619   4.996
79969W        W52394   2.384  18.206  14.581
79970W        W52395  35.619  23.321  12.150
79971W        W52396   4.219  21.724   2.714
79972W        W52397  44.381   4.794  14.117
79973W        W52398  15.155   2.431   3.785
79974W        W52399   8.640  41.749   2.478
79975W        W52400   5.349  11.397   4.568
79976W        W52401  42.347   9.369   4.865
79977W        W52402  44.027  19.183   0.458
79978W        W52403  14.308   3.573   3.687
79979W        W52404  40.263  24.082  12.116
79980W        W52405  12.735  35.664   2.864
79981W        W52406  25.602  31.848   4.812
79982W        W52407   3.334   7.177   4.384
79983W        W52408  32.447   2.960   2.458
79984W        W52409  29.355  19.050   4.430
79985W        W52410   3.515  30.048  10.623
79986W        W52411  15.295  44.210  12.084
79987W        W52412  39.287  32.306  11.113
79988W        W52413  19.233  26.335  13.357
79989W        W52414  16.204  44.211  13.147
79990W        W52415  40.240  17.624   2.632
79991W        W52416  26.201  13.266   1.194
79992W        W52417  42.261   2.974  12.028
79993W        W52418  33.079   9.722  12.972
79994W        W52419   1.944   9.894  10.668
79995W        W52420   2.522   4.854  12.156
79996W        W52421  27.212  16.653   2.908
79997W        W52422  38.995  33.131  13.806
79998W        W52423  37.767  10.085   3.982
79999W        W52424  16.901   1.555   0.802
80000W        W52425  23.528  18.694  11.975
80001W        W52426  11.871   1.877  13.005
80002W        W52427   8.369  41.380  14.939
80003W        W52428  15.611  10.865  13.655
80004W        W52429   3.477   8.109   2.133
80005W        W52430  37.387  16.167  10.802
80006W        W52431  36.971   3.987   4.285
80007W        W52432  29.491  34.660   4.866
80008W        W52433  40.772   4.740  13.544
80009W        W52434  14.585  10.130  11.067
80010W        W52435   6.582  44.196   4.997
80011W        W52436  30.150  18.673   4.160
80012W        W52437   4.734   5.235   0.427
80013W        W52438  14.610  23.686  14.547
80014W        W52439  26.415  38.968   0.803
80015W        W52440  19.150  41.016   0.910
80016W        W52441   4.864  12.311  14.165
80017W        W52442   3.838  37.345   2.879
80018W        W52443  26.116  44.543   1.373
80019W        W52444   3.823  34.848  10.832
80020W        W52445  25.934  18.795  10.656
80021W        W52446   0.131  40.004   0.149
80022W        W52447  21.626  15.229   0.380
80023W        W52448  13.193  35.119   0.699
80024W        W52449  17.577  36.140  14.858
80025W        W52450   1.751   1.813   2.130
80026W        W52451  23.262  14.871   4.478
80027W        W52452  41.989   7.246  13.215
80028W        W52453  40.898  42.221   4.233
80029W        W52454  25.390  10.841   2.134
80030W        W52455   5.419  11.762  12.149
80031W        W52456  40.004  14.005  14.907
80032W        W52457  37.751  15.570   0.839
80033W        W52458  17.862  31.886   5.560
80034W        W52459   6.138  23.377   1.299
80035W        W52460  12.577  17.071   4.668
80036W        W52461  23.186  25.967   2.796
80037W        W52462  22.499   8.682   1.895
80038W        W52463   1.691  15.886  11.079
80039W        W52464  28.865  39.052   3.129
80040W        W52465   2.853  23.538   3.592
80041W        W52466  28.674  44.980  12.119
80042W        W52467  15.835   0.390  12.442
80043W        W52468  39.296  42.413   4.983
80044W        W52469  11.257  37.766  12.054
80045W        W52470  16.110  33.941  14.224
80046W        W52471  33.668  25.138  13.569
80047W        W52472  36.383   4.490  13.059
80048W        W52473  38.608   7.303  12.369
80049W        W52474  24.679  21.986   1.064
80050W        W52475  10.752  14.803   3.136
80051W        W52476  37.544   7.450   4.152
80052W        W52477   2.296   9.954   2.245
80053W        W52478   5.294   9.912  12.032
80054W        W52479   0.850  28.259   4.278
80055W        W52480  39.278  18.344   2.315
80056W        W52481  14.817  40.305   0.228
80057W        W52482  35.925   9.814  11.348
80058W        W52483  30.577  17.626  14.469
80059W        W52484  23.930  29.681  10.692
80060W        W52485   2.057   5.923  13.387
80061W        W52486  43.867  37.861   1.205
80062W        W52487   9.984  43.824   0.215
80063W        W52488  32.887  44.715  13.885
80064W        W52489  38.731   0.247   3.195
80065W        W52490  23.756  11.596  10.039
80066W        W52491  20.566  16.978  14.410
80067W        W52492  27.280  26.726  13.038
80068W        W52493  19.318   8.890  12.030
80069W        W52494  42.403  18.013  13.010
80070W        W52495   0.462  10.468  13.459
80071W        W52496  17.421  41.809   1.935
80072W        W52497  14.724   9.274  13.957
80073W        W52498  36.097  39.997  10.620
80074W        W52499  37.937  22.297  10.605
80075W        W52500  34.374  11.311   2.668
80076W        W52501  37.085  16.580   1.441
80077W        W52502  17.874  33.014  12.475
80078W        W52503  43.263   1.506   3.876
80079W        W52504   9.394  41.257   4.022
80080W        W52505  25.629   7.457   0.163
80081W        W52506  29.132   1.362   4.182
80082W        W52507  13.661  42.355   3.930
80083W        W52508  22.184  26.660   4.266
80084W        W52509  21.471  35.137   3.304
80085W        W52510  38.911  13.983   4.522
80086W        W52511  27.977   7.740   4.134
80087W        W52512  22.317  27.084  12.444
80088W        W52513  14.144  11.850   0.436
80089W        W52514  44.290   1.585   9.947
80090W        W52515  15.522  36.865  12.024
80091W        W52516  27.685  10.721   0.250
80092W        W52517  33.519  16.733  10.047
80093W        W52518   2.552  44.258  11.005
80094W        W52519  43.218  16.716   0.417
80095W        W52520   5.396  30.649  12.051
80096W        W52521  13.376  27.812  10.938
80097W        W52522  36.582  37.443  12.048
80098W        W52523  44.770  31.436  13.521
80099W        W52524  34.866  16.720  10.706
80100W        W52525  29.885  14.298   0.960
80101W        W52526   0.917  13.956  13.889
80102W        W52527   0.705  28.662  10.807
80103W        W52528  35.263  38.303   4.153
80104W        W52529  33.206  27.207  12.855
80105W        W52530  12.395  31.541  11.720
80106W        W52531  30.700  29.406  12.291
80107W        W52532  15.272  19.323   2.971
80108W        W52533  19.649  18.053   4.518
80109W        W52534   0.426   0.960  13.296
80110W        W52535  32.808  44.930  11.580
80111W        W52536  19.114   5.159  11.574
80112W        W52537  16.794  18.038   3.285
80113W        W52538  30.593   0.995   4.092
80114W        W52539  16.345   6.585   0.268
80115W        W52540  34.360  22.048   1.371
80116W        W52541   9.630  15.311  10.405
80117W        W52542  14.369  34.517  14.007
80118W        W52543  17.234   5.500  11.977
80119W        W52544  37.516   3.131  12.162
80120W        W52545  43.563   9.644   4.059
80121W        W52546  11.417   2.733  13.811
80122W        W52547   2.297  25.619  14.356
80123W        W52548  28.114  11.544   4.661
80124W        W52549  22.579  22.826  11.709
80125W        W52550   1.798  19.621   2.332
80126W        W52551   6.790  33.337  11.175
80127W        W52552   2.922  15.159   0.746
80128W        W52553   1.941  20.812  13.000
80129W        W52554   4.291   6.757  13.997
80130W        W52555  18.574   8.548   1.205
80131W        W52556  21.559   7.687   4.509
80132W        W52557   9.162   1.980   2.842
80133W        W52558  34.920  15.183  11.008
80134W        W52559  28.479  13.253   0.735
80135W        W52560   9.900  21.905  11.310
80136W        W52561  17.986  28.589  11.082
80137W        W52562  17.685  43.713  14.417
80138W        W52563  41.764   8.804   2.187
80139W        W52564   4.377  35.507  13.417
80140W        W52565  12.068  17.272   4.609
80141W        W52566  42.944   9.868  12.036
80142W        W52567   7.941  18.950   4.235
80143W        W52568  11.436  27.056   3.205
80144W        W52569  16.735   1.923   2.841
80145W        W52570  15.685  36.048   0.148
80146W        W52571   5.878  42.881  13.822
80147W        W52572  15.208   1.516   2.515
80148W        W52573   6.862  28.460  12.905
80149W        W52574  42.889  21.170   1.806
80150W        W52575  40.717   2.837  11.194
80151W        W52576  20.541  27.436   3.002
80152W        W52577  24.651   5.989  14.196
80153W        W52578  33.842  40.964  10.437
80154W        W52579  16.236  35.000   0.595
80155W        W52580  17.579  16.920   3.685
80156W        W52581  40.944   1.357  12.583
80157W        W52582  44.002  17.094  11.859
80158W        W52583  23.048   1.388   2.839
80159W        W52584  30.562  35.801   2.415
80160W        W52585   7.946  15.325   3.646
80161W        W52586  21.494  13.583  13.037
80162W        W52587  29.017  41.676   4.092
80163W        W52588   6.287  26.599   0.540
80164W        W52589   6.448  19.423  13.671
80165W        W52590  23.397   6.321  12.451
80166W        W52591  11.970  42.791  11.675
80167W        W52592  28.628  14.136  12.590
80168W        W52593  22.711   8.855  13.310
80169W        W52594  16.034  21.513  10.073
80170W        W52595  11.660   0.094  12.846
80171W        W52596  32.384  21.268  10.611
80172W        W52597  38.607  39.070  12.442
80173W        W52598  38.471  10.111  14.235
80174W        W52599  30.181  20.319  12.976
80175W        W52600  40.863  42.452   9.965
80176W        W52601  43.875  38.513   1.778
80177W        W52602  18.403  33.371   0.670
80178W        W52603  42.106   1.414   2.924
80179W        W52604  16.279  16.510   4.589
80180W        W52605  27.423  30.549  10.667
80181W        W52606  18.711  29.555  10.425
80182W        W52607  44.939  41.808   3.108
80183W        W52608  14.144   3.378   2.745
80184W        W52609   0.166  22.445  11.363
80185W        W52610  19.431   1.374   4.835
80186W        W52611  12.845  44.226  12.010
80187W        W52612  27.066  39.785  10.763
80188W        W52613  31.531  33.157   2.297
80189W        W52614  39.462  32.505   1.863
80190W        W52615  13.786  25.768   1.059
80191W        W52616   0.508  14.288  13.851
80192W        W52617  26.637  23.645  12.112
80193W        W52618  15.937  38.476   0.373
80194W        W52619   0.834  20.075  11.570
80195W        W52620   8.931  16.530  11.582
80196W        W52621  19.078   6.811  12.685
80197W        W52622   8.360   7.801  14.258
80198W        W52623  27.813   9.329  13.547
80199W        W52624  19.443  33.664  14.986
80200W        W52625  10.569  43.026  14.543
80201W        W52626  19.647   0.708  10.664
80202W        W52627  33.847  18.136   2.648
80203W        W52628  22.402   1.759  10.715
80204W        W52629  17.273  39.433   2.777
80205W        W52630  34.935  25.484  13.660
80206W        W52631  43.669  32.430  12.039
80207W        W52632  33.342  37.014   0.223
80208W        W52633  22.720  38.858  11.147
80209W        W52634   6.862   7.713  13.124
80210W        W52635   3.171  20.646   2.257
80211W        W52636  27.705  13.287  10.204
80212W        W52637  21.609  32.653  10.833
80213W        W52638   8.914   6.157   1.371
80214W        W52639  23.723  21.974  14.232
80215W        W52640  24.012  26.028  10.492
80216W        W52641  19.271  19.760   2.650
80217W        W52642  24.655  38.891  14.028
80218W        W52643  43.473  29.923   0.318
80219W        W52644  42.300  32.914  11.123
80220W        W52645  16.985  37.583  10.966
80221W        W52646   0.817  42.756   3.303
80222W        W52647  32.939  42.948   0.438
80223W        W52648  44.897  31.799   2.201
80224W        W52649  13.537   3.199  11.467
80225W        W52650   5.185  44.715  14.038
80226W        W52651  26.589  16.644  11.183
80227W        W52652  20.500  22.052   1.716
80228W        W52653  22.657  17.529  14.919
80229W        W52654  13.650  42.485   2.353
80230W        W52655  34.360   0.912   4.091
80231W        W52656  37.367  30.415  12.550
80232W        W52657  24.498  16.266  14.857
80233W        W52658  31.173  37.912   4.166
80234W        W52659  34.085  40.415   2.578
80235W        W52660  36.917  44.941  13.446
80236W        W52661  30.290   6.839  14.959
80237W        W52662   9.985   0.214  13.910
80238W        W52663  22.846   6.416  11.116
80239W        W52664  37.446  23.566   3.833
80240W        W52665  11.623  35.490   4.538
80241W        W52666  14.981  27.074   4.197
80242W        W52667  20.611   9.950   0.785
80243W        W52668   7.201  12.780  11.950
80244W        W52669  20.928   4.164   1.749
80245W        W52670  44.716  32.173   0.114
80246W        W52671  36.969  43.110  12.480
80247W        W52672  26.250  24.559  11.714
80248W        W52673   3.308  33.102   2.741
80249W        W52674  15.875  22.200   1.854
80250W        W52675  18.679  24.243   2.613
80251W        W52676  19.249  42.409   1.885
80252W        W52677   5.884  38.509   2.270
80253W        W52678   6.898  25.003  13.108
80254W        W52679  35.673  22.706  12.928
80255W        W52680  10.160  35.819   1.568
80256W        W52681  32.115  21.270   1.218
80257W        W52682  28.676   5.985   0.872
80258W        W52683  28.335  41.483  14.209
80259W        W52684  42.409  35.196  13.028
80260W        W52685  35.647  25.412  14.793
80261W        W52686  39.385  13.382  11.950
80262W        W52687  16.991  34.873  13.073
80263W        W52688  32.854   5.685  13.968
80264W        W52689   3.700  28.193  12.746
80265W        W52690  32.129  37.801   0.268
80266W        W52691   6.851  11.616   3.642
80267W        W52692  37.854  11.753  14.327
80268W        W52693  15.872  15.647  11.899
80269W        W52694   3.375  35.331  13.905
80270W        W52695  29.950  39.534   2.414
80271W        W52696   1.095  10.029   2.370
80272W        W52697  43.176  29.648   3.129
80273W        W52698  33.377  29.464   2.189
80274W        W52699   3.334  19.475   2.842
80275W        W52700  14.192  29.053  14.880
80276W        W52701  30.756  40.205  13.418
80277W        W52702  12.200  42.469   3.117
80278W        W52703  43.216  35.117  11.998
80279W        W52704  24.538   9.868   0.340
80280W        W52705   2.207  36.060  10.689
80281W        W52706  14.236  29.216   3.296
80282W        W52707  41.442  15.766   3.852
80283W        W52708  31.635  32.198   1.191
80284W        W52709  35.544   3.345  11.203
80285W        W52710  31.136  15.820  12.315
80286W        W52711  15.167   6.898  14.824
80287W        W52712  33.354   5.224   0.828
80288W        W52713  34.257  38.408   0.871
80289W        W52714  38.375  26.991   0.154
80290W        W52715  36.958  17.185   1.799
80291W        W52716  13.857  38.935   0.883
80292W        W52717  15.819  41.524  11.523
80293W        W52718  18.950   7.682   0.929
80294W        W52719   5.593  14.166   5.087
80295W        W52720  31.043  15.777   0.818
80296W        W52721  28.776   0.772   3.563
80297W        W52722  29.392  30.124  10.990
80298W        W52723  26.178  11.751  11.880
80299W        W52724   9.234  17.044  10.861
80300W        W52725  17.527   7.751  10.767
80301W        W52726  24.786   7.762   1.158
80302W        W52727  15.195  11.374  11.184
80303W        W52728  20.296  40.729  11.619
80304W        W52729  18.216  16.690   0.241
80305W        W52730  27.742  19.393   2.873
80306W        W52731  21.051   5.740  14.828
80307W        W52732   8.377  12.180  12.446
80308W        W52733  10.285   0.470  10.729
80309W        W52734  13.382  25.919   2.956
80310W        W52735  15.737  33.652  14.496
80311W        W52736   8.926  16.615  10.730
80312W        W52737  43.414  33.462   0.483
80313W        W52738  28.933   8.687   4.508
80314W        W52739  21.091  38.849  14.813
80315W        W52740  41.083   0.002   1.889
80316W        W52741  34.848  34.520   0.220
80317W        W52742  38.044   0.326  12.649
80318W        W52743  12.626  13.796  12.492
80319W        W52744  27.173  31.554   4.534
80320W        W52745  41.385  23.570  13.946
80321W        W52746  27.694   7.361   4.711
80322W        W52747  11.665  15.603  10.703
80323W        W52748  28.850  13.214   4.532
80324W        W52749   4.995  18.201  13.719
80325W        W52750  32.071  12.915  11.444
80326W        W52751  12.896   2.992  11.526
80327W        W52752  26.325  37.970  10.297
80328W        W52753  39.561   7.469  13.611
80329W        W52754   3.865   7.853   2.367
80330W        W52755  40.514  19.791   3.813
80331W        W52756  31.974   6.865   4.559
80332W        W52757  24.625  38.543   0.312
80333W        W52758  13.377  24.738   5.252
80334W        W52759  42.770  26.429  14.720
80335W        W52760  19.707  38.506   0.764
80336W        W52761  13.205  21.684  12.711
80337W        W52762  35.409   9.870  14.002
80338W        W52763  26.005  12.001   4.304
80339W        W52764  22.267   2.287   1.414
80340W        W52765   1.073  35.354  10.566
80341W        W52766   8.748   6.172   9.695
80342W        W52767  33.100   7.192   4.128
80343W        W52768  10.764  29.016  11.571
80344W        W52769  27.505   1.532  13.826
80345W        W52770  29.968  43.429   4.599
80346W        W52771   6.389  10.748  11.983
80347W        W52772  40.419  12.710   5.112
80348W        W52773   5.549  11.672   2.978
80349W        W52774  42.098   8.197  12.036
80350W        W52775   6.843   0.083   1.464
80351W        W52776  20.688  18.326   4.363
80352W        W52777  39.363  42.137   2.057
80353W        W52778  15.148  19.824   3.188
80354W        W52779  13.689   2.231  12.646
80355W        W52780  35.074  35.027   3.198
80356W        W52781  27.028  31.922   1.300
80357W        W52782  37.881  16.293   2.056
80358W        W52783  24.569  30.084  14.092
80359W        W52784  38.471   3.286   4.279
80360W        W52785  14.326  22.651   3.238
80361W        W52786  36.336  32.169  13.871
80362W        W52787  36.692   9.440  10.715
80363W        W52788   8.709  31.602   0.320
80364W        W52789  36.040   7.793  13.205
80365W        W52790   9.382  13.112  12.370
80366W        W52791  34.171   8.305  13.527
80367W        W52792   4.263   0.238  11.947
80368W        W52793  30.924   8.590  10.573
80369W        W52794  18.174  34.397   0.815
80370W        W52795   4.544   0.837   0.326
80371W        W52796  33.698  27.929  12.380
80372W        W52797  32.201   4.923   0.923
80373W        W52798   5.925  27.686  10.994
80374W        W52799  22.729  27.938   3.157
80375W        W52800  25.191   6.738  14.725
80376W        W52801  36.739  41.230  11.671
80377W        W52802  44.277  38.301  10.632
80378W        W52803  23.387  43.306  14.415
80379W        W52804  37.921  27.703   1.168
80380W        W52805  10.723  19.762   1.177
80381W        W52806  44.849  35.386   3.197
80382W        W52807  41.828   1.340   2.479
80383W        W52808  31.938  36.342   0.911
80384W        W52809  24.402  18.655  12.037
80385W        W52810  40.337  22.568   3.285
80386W        W52811  27.160   8.455  11.955
80387W        W52812   2.908  28.000  11.200
80388W        W52813   0.312   8.172  13.354
80389W        W52814  33.411  41.017   4.541
80390W        W52815  11.150  42.468   4.189
80391W        W52816  21.254  25.517   3.708
80392W        W52817  12.309  24.134  11.625
80393W        W52818  39.081  12.867  13.297
80394W        W52819  34.554   0.253  10.443
80395W        W52820   1.383  23.566  10.456
80396W        W52821   7.758  11.195   2.915
80397W        W52822   3.908  23.192  10.723
80398W        W52823  24.070   1.007  12.002
80399W        W52824   8.240  15.491   4.067
80400W        W52825   2.311  23.615   1.867
80401W        W52826  23.163   1.209   4.776
80402W        W52827  16.149  34.553  13.115
80403W        W52828  13.363  43.300  14.148
80404W        W52829  17.092  32.486  11.536
80405W        W52830  22.234  15.017   0.516
80406W        W52831  42.489   1.799   0.899
80407W        W52832  41.435  38.938   3.291
80408W        W52833  27.568  28.467  12.846
80409W        W52834  34.879  40.072   4.627
80410W        W52835  21.473  20.974  14.549
80411W        W52836   0.326  39.380   1.575
80412W        W52837  29.666   5.406  13.030
80413W        W52838  38.821  37.919   0.886
80414W        W52839  26.461  31.784  12.989
80415W        W52840  37.389  34.723   2.786
80416W        W52841  44.685   2.303  13.748
80417W        W52842  12.707  20.843   1.311
80418W        W52843   5.760  12.273  11.011
80419W        W52844  44.377  11.821   0.661
80420W        W52845  25.990   8.866   0.314
80421W        W52846  20.175  30.448  10.400
80422W        W52847  26.013  18.273  10.619
80423W        W52848  19.683  26.498  13.859
80424W        W52849  10.090   8.227   3.233
80425W        W52850  12.790  24.526  12.835
80426W        W52851  19.824  15.819  14.845
80427W        W52852   9.368   9.737   0.798
80428W        W52853  24.723  16.183  11.900
80429W        W52854  37.493  26.706  11.441
80430W        W52855  33.999   1.486   2.941
80431W        W52856   7.600  32.722  13.830
80432W        W52857  43.389   5.992  12.516
80433W        W52858  11.762   8.927   3.239
80434W        W52859  14.760  36.006   4.164
80435W        W52860   1.489  13.366   3.137
80436W        W52861  19.822  11.625   3.882
80437W        W52862  14.169  44.062   2.787
80438W        W52863  35.219  10.824   1.312
80439W        W52864  11.111  29.793  13.976
80440W        W52865  33.147  29.647  12.835
80441W        W52866  26.019  18.804   1.749
80442W        W52867   2.443  21.753   4.140
80443W        W52868  44.584   4.836  11.524
80444W        W52869  15.286   2.283   0.734
80445W        W52870  27.410   4.357  13.429
80446W        W52871  10.931  16.204  11.945
80447W        W52872  29.554  26.029   4.193
80448W        W52873  41.911   2.710   2.101
80449W        W52874  25.015  42.339  10.657
80450W        W52875   1.882  11.643   3.292
80451W        W52876  44.241  14.049  12.851
80452W        W52877  23.099  36.621   2.874
80453W        W52878  40.304   8.741   2.226
80454W        W52879  30.081  44.960   3.108
80455W        W52880  13.136  23.508  11.781
80456W        W52881  25.597  40.064  13.071
80457W        W52882   8.149   1.803   3.260
80458W        W52883  37.573  39.385   3.773
80459W        W52884   8.371  17.653  13.263
80460W        W52885   4.122  31.642  11.954
80461W        W52886  13.972  16.711   2.719
80462W        W52887  24.198  31.071   1.779
80463W        W52888  16.285   0.334  13.325
80464W        W52889  16.252  44.711   4.691
80465W        W52890   6.177  33.611   4.470
80466W        W52891  20.980  40.449   0.616
80467W        W52892  41.547   4.795   2.695
80468W        W52893  42.959  37.543   4.135
80469W        W52894  15.789  15.404   0.256
80470W        W52895   3.442  40.939   4.088
80471W        W52896  24.573  36.044   3.594
80472W        W52897  22.170  31.947   2.691
80473W        W52898  18.903  36.263  12.598
80474W        W52899  21.673  39.264   3.799
80475W        W52900   2.350   8.968  10.722
80476W        W52901   5.261  20.313   3.137
80477W        W52902  36.985  29.018   1.070
80478W        W52903  23.574  21.426   3.326
80479W        W52904  21.786  17.676  12.517
80480W        W52905  27.906   9.587   0.314
80481W        W52906  27.597  43.517  12.006
80482W        W52907  44.342  15.578  13.742
80483W        W52908  29.261  31.235  10.218
80484W        W52909  11.893  17.687   2.559
80485W        W52910  35.052  23.108   4.910
80486W        W52911  17.581  20.586  11.152
80487W        W52912  11.316  13.405   0.981
80488W        W52913  24.049   6.937  11.452
80489W        W52914   8.660  10.268  14.524
80490W        W52915  18.382  14.038   0.911
80491W        W52916  36.902  22.510   1.108
80492W        W52917   2.368  13.113   5.413
80493W        W52918   6.294  22.067   3.116
80494W        W52919  28.648   4.422  12.043
80495W        W52920  28.162  30.122   3.714
80496W        W52921  15.642  23.160  12.474
80497W        W52922   9.576   5.423  10.623
80498W        W52923  22.512  28.936   9.909
80499W        W52924  39.998   6.697   4.657
80500W        W52925  11.436  14.262  10.563
80501W        W52926   1.719  38.535  11.654
80502W        W52927  44.347  33.188   1.311
80503W        W52928   4.032  24.044  14.847
80504W        W52929  43.455  33.910   2.788
80505W        W52930  37.966   9.386   0.177
80506W        W52931  32.091  28.005  11.679
80507W        W52932  35.619  15.878   2.350
80508W        W52933  20.077  16.519  11.122
80509W        W52934  33.140  17.166   4.986
80510W        W52935  34.629  17.341   3.172
80511W        W52936  11.682  44.784   0.851
80512W        W52937  29.005  38.593  12.952
80513W        W52938  24.468  17.455  10.803
80514W        W52939  27.217  23.337   3.607
80515W        W52940  16.022  20.660   4.274
80516W        W52941   8.600  14.686   2.337
80517W        W52942   5.942  39.964   3.359
80518W        W52943  37.787  28.105  11.494
80519W        W52944  23.247  28.781  14.594
80520W        W52945  44.145  15.231   3.116
80521W        W52946   9.406   5.883  11.538
80522W        W52947  26.977   7.801  10.624
80523W        W52948  33.106  14.833   2.718
80524W        W52949   4.358   6.221   2.157
80525W        W52950  14.626  35.982   2.306
80526W        W52951  44.397  29.919   3.789
80527W        W52952  37.327  16.606   2.728
80528W        W52953   4.679  22.503  12.563
80529W        W52954  34.781   9.059  11.584
80530W        W52955   1.961  30.605  14.493
80531W        W52956   9.159  15.238  11.727
80532W        W52957  13.107  30.319   3.757
80533W        W52958  18.179  20.243  11.117
80534W        W52959  14.117  37.909   0.900
80535W        W52960  37.622   6.700  11.726
80536W        W52961  18.106  43.044   4.730
80537W        W52962  32.106  39.854  13.727
80538W        W52963  33.627   6.249   4.677
80539W        W52964  10.433  33.614  12.539
80540W        W52965  29.410  38.024   1.530
80541W        W52966   2.068  12.204  13.525
80542W        W52967  41.334  27.646  14.399
80543W        W52968  44.868  44.928  12.261
80544W        W52969  18.342  29.142   0.390
80545W        W52970  36.337  35.580  12.396
80546W        W52971  31.142  29.113  12.391
80547W        W52972  20.056  14.641   4.603
80548W        W52973   2.813  19.654  11.539
80549W        W52974  34.432  16.830  10.414
80550W        W52975  23.592  20.544  14.317
80551W        W52976  21.720  20.839  12.312
80552W        W52977   1.446  19.684   0.900
80553W        W52978  25.617  29.564   1.001
80554W        W52979  31.496  20.750  12.668
80555W        W52980  35.419  12.857  13.353
80556W        W52981  11.744  13.601   2.236
80557W        W52982   9.458  38.893  11.186
80558W        W52983  17.152  24.214  12.534
80559W        W52984   4.855  13.752   3.458
80560W        W52985  43.191  25.201   2.378
80561W        W52986  31.931  39.331  10.548
80562W        W52987  10.631  40.772  13.018
80563W        W52988  23.579  30.169  12.463
80564W        W52989  29.505  11.274   1.435
80565W        W52990  41.497  29.965   2.783
80566W        W52991  16.204  24.801  11.574
80567W        W52992  11.274   1.937  12.422
80568W        W52993  20.337  30.887   2.707
80569W        W52994  10.096  41.922  14.786
80570W        W52995   7.338   5.630  10.314
80571W        W52996   0.550  23.916  11.509
80572W        W52997  29.156  29.714  13.052
80573W        W52998   1.294  22.061   1.875
80574W        W52999  23.057   1.222  12.380
80575W        W53000   0.306   5.080   4.106
80576W        W53001  39.017  39.865  10.605
80577W        W53002  34.151  36.856  12.875
80578W        W53003  27.319  31.037  14.933
80579W        W53004  13.284  23.897  14.806
80580W        W53005  35.464  27.053  10.745
80581W        W53006  16.446  12.184   3.621
80582W        W53007  16.541   5.807   1.150
80583W        W53008  32.647   9.702  11.181
80584W        W53009  15.165  22.136   3.409
80585W        W53010  30.556  30.302  12.010
80586W        W53011  25.962  42.005  11.112
80587W        W53012   1.857  35.059  14.022
80588W        W53013   6.704  40.249  14.129
80589W        W53014  28.510  25.883   3.199
80590W        W53015  38.074  12.681  11.757
80591W        W53016  15.217  37.388  11.633
80592W        W53017   9.684  13.209  13.975
80593W        W53018  21.625   6.444  12.915
80594W        W53019  32.155  11.807  14.566
80595W        W53020   6.508  36.991  12.382
80596W        W53021  19.672  22.577  14.981
80597W        W53022  29.522   5.890   4.597
80598W        W53023   9.271  14.787  12.818
80599W        W53024  35.614  17.263   1.449
80600W        W53025  11.565   5.820  11.489
80601W        W53026  19.499  11.564   2.117
80602W        W53027   9.437  42.204   4.152
80603W        W53028  38.747  16.171  11.580
80604W        W53029  37.248   9.728  11.404
80605W        W53030  29.414  11.645   4.593
80606W        W53031  17.667  13.270  13.832
80607W        W53032  23.112  20.694   4.849
80608W        W53033  32.600   5.333  11.363
80609W        W53034  34.259  43.057   4.000
80610W        W53035  30.623   2.332  11.073
80611W        W53036  11.973   0.742  10.924
80612W        W53037  44.198  32.953  14.744
80613W        W53038  35.869  40.198   4.918
80614W        W53039  38.051   1.340  10.721
80615W        W53040  15.260  27.375  12.877
80616W        W53041  33.915  35.548   4.288
80617W        W53042  19.180  23.242   3.712
80618W        W53043  20.972  23.082   3.339
80619W        W53044  10.548  20.144   4.506
80620W        W53045   2.301   6.362  12.540
80621W        W53046  19.171  44.208   2.254
80622W        W53047  21.028  25.675  10.803
80623W        W53048  12.422  35.807   4.435
80624W        W53049  32.838  32.464   0.961
80625W        W53050  19.225   4.670  12.907
80626W        W53051   3.040  21.605   0.776
80627W        W53052   0.796  17.096  14.341
80628W        W53053   0.545   7.268   4.142
80629W        W53054  29.597   2.225   2.397
80630W        W53055  26.928  33.638  13.064
80631W        W53056  16.182   1.491   0.319
80632W        W53057  22.800  15.678   0.362
80633W        W53058  41.271  41.390   4.152
80634W        W53059  36.125  34.986   4.082
80635W        W53060   3.756  19.852   1.300
80636W        W53061  31.934  19.758   1.882
80637W        W53062   8.453  19.185  12.967
80638W        W53063  28.678  28.444  13.915
80639W        W53064   8.795  41.654   4.525
80640W        W53065  44.214  43.827   2.224
80641W        W53066  21.099  34.894   5.089
80642W        W53067  22.794   8.884  11.433
80643W        W53068  32.354   9.161  12.455
80644W        W53069  18.471   3.794   4.598
80645W        W53070  43.537  22.451  13.945
80646W        W53071  17.037   4.912   1.590
80647W        W53072   4.945  34.930   3.756
80648W        W53073  36.478  14.785   4.807
80649W        W53074  44.029  11.235  10.675
80650W        W53075   8.647  12.994  14.366
80651W        W53076   7.150   3.975   4.228
80652W        W53077   9.284  36.853   3.615
80653W        W53078  25.370  16.027  14.884
80654W        W53079  38.391  18.282   3.217
80655W        W53080  34.071  23.989  12.415
80656W        W53081  15.495  30.987   2.184
80657W        W53082  22.846  28.890   4.991
80658W        W53083  12.273  30.612  13.950
80659W        W53084  11.146   5.822  13.450
80660W        W53085  12.404  18.487  14.469
80661W        W53086  18.004  11.723   4.684
80662W        W53087  34.333  18.576   0.837
80663W        W53088  28.240  13.229   2.523
80664W        W53089  39.931   4.682   4.633
80665W        W53090  16.278  27.157  13.769
80666W        W53091   4.329  12.689   2.847
80667W        W53092  23.005   2.220   4.471
80668W        W53093   8.786  20.369  11.662
80669W        W53094  38.775   9.157  12.018
80670W        W53095  36.135  38.149   2.610
80671W        W53096  15.367  42.527  13.268
80672W        W53097  24.026  12.259   4.614
80673W        W53098  44.683  23.604   1.471
80674W        W53099   0.083  18.135   1.777
80675W        W53100  16.108  30.676  11.711
80676W        W53101  10.745   1.246   3.173
80677W        W53102   3.581  39.488   3.512
80678W        W53103  21.776   2.347   1.245
80679W        W53104  17.108  21.279   0.894
80680W        W53105  10.973  15.618  13.345
80681W        W53106  11.354   1.960  14.798
80682W        W53107   8.972  28.451   3.233
80683W        W53108  10.408   5.883   9.855
80684W        W53109  30.606  36.049  13.937
80685W        W53110  16.791  39.241  14.913
80686W        W53111  11.516  30.894   3.685
80687W        W53112   0.573  21.219  10.993
80688W        W53113  38.094  41.412   1.877
80689W        W53114  12.235  28.302   1.204
80690W        W53115   0.822  38.737  10.710
80691W        W53116  16.734  36.394   1.714
80692W        W53117  15.050  33.165   0.970
80693W        W53118  32.912  26.631   2.272
80694W        W53119  21.217   3.470  12.625
80695W        W53120  40.602  32.054  10.557
80696W        W53121  20.757  26.169   3.276
80697W        W53122  35.626  24.732   5.451
80698W        W53123   3.499  43.910  11.221
80699W        W53124  37.830   6.929   0.368
80700W        W53125  38.836  11.832   1.741
80701W        W53126   9.087   6.391  14.891
80702W        W53127   0.922  18.202  12.400
80703W        W53128  17.111  14.743   0.806
80704W        W53129  25.395   7.817  10.482
80705W        W53130  35.678  23.137  12.649
80706W        W53131  15.110  43.839   3.654
80707W        W53132  14.750  44.861   4.438
80708W        W53133  11.216  19.585   1.164
80709W        W53134  32.144  24.105   2.739
80710W        W53135  31.152  42.881  12.427
80711W        W53136  12.480   5.425   2.824
80712W        W53137  14.080  19.119   0.204
80713W        W53138  38.539   9.943   0.761
80714W        W53139   9.768  44.468  14.445
80715W        W53140   0.578   0.544  14.870
80716W        W53141  27.380  43.231  13.227
80717W        W53142  24.989   3.885   2.358
80718W        W53143  38.403   9.757   2.429
80719W        W53144  43.015  13.223   0.967
80720W        W53145  21.532   7.358  13.123
80721W        W53146   7.225  42.954  13.210
80722W        W53147   8.862  38.497   0.333
80723W        W53148   1.903  28.074   0.789
80724W        W53149   3.898   2.194  12.066
80725W        W53150  13.875  30.420   4.153
80726W        W53151   1.069  13.023  11.212
80727W        W53152  38.816  30.527  14.846
80728W        W53153  26.030  18.097   3.297
80729W        W53154  24.982   8.982   0.435
80730W        W53155   9.664   8.993   3.744
80731W        W53156  23.810  33.438  11.645
80732W        W53157  18.643  42.736   0.313
80733W        W53158  26.668  25.449   3.288
80734W        W53159  13.622  18.428  14.760
80735W        W53160   4.817  12.263   4.547
80736W        W53161  36.924  28.086  12.979
80737W        W53162  43.845  31.665  12.503
80738W        W53163  43.570  13.237   2.972
80739W        W53164  37.474   4.417  12.444
80740W        W53165  16.538  26.729  13.862
80741W        W53166   6.085  35.547  11.988
80742W        W53167  25.117  27.729  12.551
80743W        W53168  43.862   8.756   1.257
80744W        W53169   7.844  29.122   2.901
80745W        W53170  31.646   4.882  14.984
80746W        W53171  26.047   8.440   2.344
80747W        W53172   0.378  34.985   4.938
80748W        W53173   8.235  16.530   4.127
80749W        W53174  22.324  41.851   3.379
80750W        W53175   3.256  39.885   4.847
80751W        W53176  22.073  39.913  13.550
80752W        W53177  34.152  30.599  12.144
80753W        W53178  39.301  25.312  10.718
80754W        W53179  32.197  27.616   1.863
80755W        W53180  31.563  16.333  13.073
80756W        W53181  36.740  40.464   3.313
80757W        W53182  10.241  30.605  13.491
80758W        W53183  21.801  35.342   1.406
80759W        W53184  30.927  26.936  14.013
80760W        W53185  21.691   8.380   2.213
80761W        W53186  28.414  15.715   1.348
80762W        W53187  31.357  30.650  11.577
80763W        W53188   2.452  41.163   5.223
80764W        W53189  43.388  41.995   0.408
80765W        W53190  18.956  23.808  13.004
80766W        W53191  30.944   7.165  12.575
80767W        W53192  25.572  27.680  11.917
80768W        W53193   4.335   7.256   1.960
80769W        W53194  27.460  30.462  13.813
80770W        W53195  31.182  26.469   4.601
80771W        W53196  24.978  25.667  12.413
80772W        W53197  26.223   7.864  14.009
80773W        W53198  33.921   8.637  11.592
80774W        W53199  44.726  10.296  12.006
80775W        W53200  16.584  33.655   4.198
80776W        W53201  32.646   4.818   1.858
80777W        W53202  15.341  15.792  11.046
80778W        W53203   0.299  24.182  11.104
80779W        W53204  39.070  19.721  12.598
80780W        W53205  14.460  36.465  11.650
80781W        W53206   6.276  39.936   4.233
80782W        W53207  40.014  11.149   4.014
80783W        W53208  21.222  18.758   3.249
80784W        W53209  18.779   8.921   3.295
80785W        W53210  44.846   4.897  11.953
80786W        W53211  35.188  39.723   4.419
80787W        W53212  42.028  32.404   4.194
80788W        W53213  43.545   8.658  14.067
80789W        W53214  14.797  30.097  11.541
80790W        W53215   3.042   7.215  14.753
80791W        W53216  21.399  17.289   3.778
80792W        W53217  16.263   2.524   0.427
80793W        W53218  18.808  23.504   2.103
80794W        W53219  23.904  42.796   5.212
80795W        W53220  24.154  40.623  12.155
80796W        W53221  29.499  32.640   2.860
80797W        W53222  42.214  25.516  14.991
80798W        W53223  38.411  22.667   3.386
80799W        W53224  15.830  30.992   2.577
80800W        W53225  33.401  39.633  12.509
80801W        W53226   9.649  24.758  10.662
80802W        W53227  31.848   5.916   2.568
80803W        W53228  21.626  30.223  13.153
80804W        W53229  11.768  27.544   1.619
80805W        W53230  26.138  24.605  13.084
80806W        W53231  28.500   3.185   2.027
80807W        W53232  37.459  24.685  12.381
80808W        W53233  28.692  15.844   3.676
80809W        W53234  32.834  17.229  14.875
80810W        W53235  15.315  33.672   1.915
80811W        W53236  10.360   0.549  13.027
80812W        W53237   5.309  24.989  11.580
80813W        W53238  30.130  13.635   4.139
80814W        W53239  30.720  15.107  12.376
80815W        W53240  35.951  10.340  11.173
80816W        W53241  38.523   8.941   1.296
80817W        W53242   1.949  36.720   2.468
80818W        W53243  41.174  35.873   1.043
80819W        W53244  13.169  39.554  11.557
80820W        W53245   8.271  30.026  13.769
80821W        W53246   4.133  27.652   2.223
80822W        W53247  41.311  11.083   4.150
80823W        W53248  34.396  26.482  13.004
80824W        W53249   2.197  11.695   1.685
80825W        W53250   3.696  13.609  11.147
80826W        W53251  10.434  31.974  10.603
80827W        W53252  12.165   2.514   0.665
80828W        W53253  24.605  25.712  14.757
80829W        W53254  30.179  40.251   4.445
80830W        W53255  13.275  43.689   3.816
80831W        W53256   0.606   9.011   3.256
80832W        W53257  29.841  36.810   2.011
80833W        W53258  24.405   0.913  14.342
80834W        W53259  15.790  37.028  12.938
80835W        W53260  23.872  23.612  14.531
80836W        W53261  14.258  15.879   1.173
80837W        W53262  17.718  43.198  14.407
80838W        W53263  14.079  31.506   1.849
80839W        W53264  11.916  29.587   5.482
80840W        W53265  38.388  10.434   0.751
80841W        W53266  31.167  22.411  12.150
80842W        W53267   2.504  28.830  12.524
80843W        W53268  25.375  40.675  14.803
80844W        W53269  19.074   3.433  14.342
80845W        W53270  30.416  42.539  11.917
80846W        W53271  29.473  31.215  13.904
80847W        W53272  15.765   9.807  10.663
80848W        W53273  41.118   0.383  12.488
80849W        W53274  14.280  27.639   4.971
80850W        W53275  42.822  11.087   3.198
80851W        W53276  42.118  21.050  12.852
80852W        W53277   3.454  38.370  11.978
80853W        W53278  27.740  17.079  14.335
80854W        W53279  25.372   9.738  12.870
80855W        W53280   6.006   0.004   3.661
80856W        W53281   9.265  36.904  11.873
80857W        W53282  37.090  12.339  10.557
80858W        W53283  44.814  42.474  10.715
80859W        W53284   2.307  32.449   0.379
80860W        W53285   9.877  23.786   2.770
80861W        W53286  24.135  23.318  11.923
80862W        W53287  19.378  33.174   2.880
80863W        W53288  42.495  38.381  12.596
80864W        W53289  25.676   7.682  14.701
80865W        W53290  32.103  34.120  10.568
80866W        W53291  20.187  24.599  13.924
80867W        W53292  25.800  18.336  13.787
80868W        W53293   7.140  20.807  10.736
80869W        W53294   1.181  31.178   0.549
80870W        W53295  31.242  42.059  10.755
80871W        W53296   0.087  14.651  11.412
80872W        W53297   4.656  27.098   2.815
80873W        W53298  23.365   8.268   4.934
80874W        W53299  42.342   5.807  13.854
80875W        W53300  35.738  21.305   2.540
80876W        W53301  29.126  18.633   1.731
80877W        W53302  37.162  41.382   3.827
80878W        W53303  12.817   6.768   2.831
80879W        W53304  35.193  38.602  12.038
80880W        W53305  23.075  39.054   4.097
80881W        W53306   5.304   6.792   1.026
80882W        W53307  10.146  24.015   0.820
80883W        W53308  19.030  42.583   2.865
80884W        W53309  20.745  14.179  11.739
80885W        W53310   4.490  16.198   2.883
80886W        W53311   2.970  16.152  13.865
80887W        W53312  35.289  24.612   5.085
80888W        W53313  33.585  15.056   2.901
80889W        W53314   2.224  40.870   3.150
80890W        W53315   0.586   5.682   1.764
80891W        W53316  23.772  18.272  13.961
80892W        W53317  10.214  27.000   4.167
80893W        W53318  11.631  35.351  12.979
80894W        W53319  31.555  20.436   0.796
80895W        W53320  42.896  42.326   1.271
80896W        W53321   8.031  17.192   0.660
80897W        W53322  21.371  17.795   3.696
80898W        W53323  39.098   5.400   3.207
80899W        W53324  25.195  39.290   4.580
80900W        W53325  32.585   3.968   1.926
80901W        W53326  14.735  16.976   4.368
80902W        W53327  37.651  34.948   1.257
80903W        W53328   4.060  32.479  14.557
80904W        W53329  37.329  24.696   3.348
80905W        W53330  17.657  38.226  13.892
80906W        W53331  14.943  22.284  11.953
80907W        W53332  11.590  25.150   0.189
80908W        W53333  15.027  23.652  12.011
80909W        W53334  40.954  35.872  10.543
80910W        W53335  17.220  25.040  12.032
80911W        W53336  17.998  21.509   0.878
80912W        W53337  35.624  28.325   3.660
80913W        W53338  24.614   0.041   1.882
80914W        W53339  28.862   6.993   3.119
80915W        W53340  27.756  24.108   3.868
80916W        W53341  18.694  31.343   3.711
80917W        W53342  27.097  24.254   3.143
80918W        W53343  37.572  29.434  12.184
80919W        W53344  17.673  19.085   2.646
80920W        W53345  16.940  16.277   2.401
80921W        W53346  34.089  37.599   3.689
80922W        W53347  35.269   3.851  11.148
80923W        W53348  15.111  40.981  12.312
80924W        W53349  18.653  26.713  11.269
80925W        W53350   3.952   5.448   2.693
80926W        W53351   0.359  31.625  10.563
80927W        W53352   2.415  22.702   0.308
80928W        W53353  20.541  37.466  11.996
80929W        W53354   7.416  33.594   2.761
80930W        W53355  40.491  12.406   4.715
80931W        W53356  42.903  12.744  13.701
80932W        W53357  15.575   4.483  11.562
80933W        W53358   2.674  11.968   3.736
80934W        W53359  36.091  21.247  12.508
80935W        W53360  37.498  26.734  12.609
80936W        W53361  17.224  35.078   2.295
80937W        W53362  36.547  10.900   4.162
80938W        W53363  22.607   3.903   0.855
80939W        W53364  36.747   0.136  12.728
80940W        W53365  16.623  41.945   3.448
80941W        W53366  39.380   0.969  11.188
80942W        W53367  14.572  17.168  11.099
80943W        W53368   0.642  22.135  13.360
80944W        W53369   3.369   0.523   0.886
80945W        W53370   8.414  37.410   4.562
80946W        W53371  28.963  14.964  12.799
80947W        W53372  42.931  26.579   3.235
80948W        W53373  14.903  35.541   2.374
80949W        W53374  35.017  16.576   3.293
80950W        W53375  28.512  13.425   2.947
80951W        W53376  26.375  43.559  13.180
80952W        W53377  32.451   0.003  12.847
80953W        W53378  27.166  43.545  12.852
80954W        W53379  19.433  38.121   1.707
80955W        W53380  21.995  36.905  13.455
80956W        W53381  17.093  23.947  14.800
80957W        W53382   4.859  37.283  13.364
80958W        W53383  37.624   6.866   2.836
80959W        W53384  42.545  36.313   2.183
80960W        W53385  25.180  20.369  12.488
80961W        W53386  23.085  39.313  14.386
80962W        W53387  17.706  35.417   0.503
80963W        W53388  14.577  28.330   3.260
80964W        W53389  39.402  23.553   3.726
80965W        W53390  30.022   4.674  12.030
80966W        W53391  42.925  29.545   4.730
80967W        W53392   5.915  24.226   0.476
80968W        W53393  34.670   3.913   3.703
80969W        W53394  24.086  14.480  11.598
80970W        W53395  37.558  15.342   0.415
80971W        W53396   3.614  37.381   0.539
80972W        W53397  19.709  37.343  12.389
80973W        W53398  22.606   3.184   2.658
80974W        W53399   6.690  35.557  11.387
80975W        W53400   6.431  41.738  13.274
80976W        W53401  29.548  42.534  12.419
80977W        W53402  37.729  37.464   4.630
80978W        W53403  19.031   7.683   1.889
80979W        W53404  13.133  12.324   0.896
80980W        W53405  33.389  25.520   3.625
80981W        W53406  19.287  31.667   1.313
80982W        W53407  39.869  30.632   1.515
80983W        W53408  40.942  20.239  11.167
80984W        W53409  37.027  15.565   5.094
80985W        W53410  24.963  34.297  10.842
80986W        W53411   4.756  37.632   4.363
80987W        W53412  16.449  39.165  13.983
80988W        W53413  12.855  30.138   4.325
80989W        W53414  18.763   7.185   1.779
80990W        W53415  19.847  26.161   0.013
80991W        W53416  22.774  12.730  14.582
80992W        W53417  21.598  12.845   4.896
80993W        W53418  29.778  14.133   2.287
80994W        W53419   8.082  11.310   3.724
80995W        W53420   2.442  40.138   0.754
80996W        W53421   1.673  16.241  11.581
80997W        W53422   0.912   2.273   0.015
80998W        W53423   5.139  14.866  14.609
80999W        W53424  37.453  26.157   3.645
81000W        W53425  14.889   2.196   1.075
81001W        W53426  28.691   7.144   1.209
81002W        W53427  30.532  32.468   3.928
81003W        W53428  26.556   4.387   5.027
81004W        W53429  44.473  29.480   1.793
81005W        W53430   5.159  43.773   4.142
81006W        W53431  11.598  38.615   4.092
81007W        W53432  31.062   7.217  11.185
81008W        W53433   7.757  40.332  13.928
81009W        W53434  13.761  17.191   2.682
81010W        W53435   7.788  35.850  12.896
81011W        W53436   9.110  42.250  13.271
81012W        W53437  25.501  27.452  14.803
81013W        W53438  18.599  31.429  14.449
81014W        W53439  25.432  15.074  14.900
81015W        W53440  14.233  30.210   3.138
81016W        W53441  19.540  41.414   4.228
81017W        W53442  44.316  26.569  13.919
81018W        W53443   2.806  40.892  14.689
81019W        W53444   0.233  14.834  13.601
81020W        W53445   1.157  11.324  12.334
81021W        W53446  22.249  35.596   3.607
81022W        W53447   1.704  19.599   1.433
81023W        W53448   9.730  13.660   4.693
81024W        W53449  10.694  23.266   0.791
81025W        W53450  10.723  10.395  13.384
81026W        W53451   1.054  21.909   0.534
81027W        W53452  17.979  44.347   4.706
81028W        W53453  26.569  42.022   2.853
81029W        W53454  28.573   2.547   2.729
81030W        W53455  31.194  22.104  12.570
81031W        W53456  20.695  14.490   1.422
81032W        W53457   3.184  19.569   4.691
81033W        W53458  14.543  17.079   3.366
81034W        W53459  37.885  44.854   0.246
81035W        W53460  14.719  21.835  11.099
81036W        W53461  33.041  12.259  11.598
81037W        W53462  34.694  40.536  14.787
81038W        W53463  23.226  40.564  11.807
81039W        W53464  17.724  25.584   4.435
81040W        W53465   5.721  32.849  14.403
81041W        W53466  17.129   6.748  13.124
81042W        W53467  24.847  42.400   4.077
81043W        W53468  20.238  23.065   3.717
81044W        W53469  39.578  21.977   3.144
81045W        W53470  14.707  41.682   4.923
81046W        W53471  25.276  16.070   0.997
81047W        W53472  25.139  33.455   2.505
81048W        W53473  24.725   6.793   1.466
81049W        W53474  44.180  24.629   1.141
81050W        W53475  26.930  40.483  10.960
81051W        W53476   0.673  28.113  13.388
81052W        W53477   6.503  43.916   3.915
81053W        W53478   3.371  42.470  13.336
81054W        W53479  15.086  26.743   3.458
81055W        W53480   2.687  42.914   1.016
81056W        W53481   2.878  35.679   4.671
81057W        W53482  25.132  21.725   0.973
81058W        W53483  15.132  13.531   2.842
81059W        W53484   3.657  44.414   3.646
81060W        W53485  36.206  12.287   0.376
81061W        W53486  37.224  16.347  13.827
81062W        W53487  29.521   7.178   5.037
81063W        W53488  13.153  10.417   4.826
81064W        W53489  20.789  33.865   0.239
81065W        W53490  20.906   9.053  11.562
81066W        W53491   2.999  40.550   1.294
81067W        W53492   7.715  31.096   1.027
81068W        W53493  14.396  39.515   1.782
81069W        W53494  18.191  25.402   1.644
81070W        W53495  14.294  28.804  13.918
81071W        W53496   7.316  14.581  14.939
81072W        W53497  23.524  40.892   3.603
81073W        W53498  35.005   3.807   0.330
81074W        W53499   4.484   3.197   4.256
81075W        W53500  24.178   0.586   2.387
81076W        W53501  31.423   3.891   0.272
81077W        W53502  10.522  43.806  14.204
81078W        W53503   0.010  25.897  10.513
81079W        W53504  11.099  24.607  11.596
81080W        W53505  35.959   0.795   0.646
81081W        W53506  26.265  12.032  14.800
81082W        W53507  30.205  33.166   4.426
81083W        W53508  26.744   0.659   4.258
81084W        W53509   0.192  31.979   3.182
81085W        W53510  30.967  14.868   4.884
81086W        W53511  13.054   2.858  12.611
81087W        W53512  37.755  30.382   0.930
81088W        W53513  31.613  36.830  14.313
81089W        W53514  28.346   2.183  14.489
81090W        W53515  39.606  33.415   4.257
81091W        W53516  22.193  33.516  14.002
81092W        W53517  15.140  43.320   4.879
81093W        W53518  40.819   5.879  10.760
81094W        W53519   4.444  11.066   4.218
81095W        W53520  37.058  16.580   3.846
81096W        W53521   8.258  36.100   2.048
81097W        W53522  27.166   3.964   1.906
81098W        W53523  24.311  25.612   3.648
81099W        W53524   0.281   1.957   3.616
81100W        W53525  43.949  11.782   1.222
81101W        W53526   6.104  21.332  13.990
81102W        W53527  20.212  20.793   2.859
81103W        W53528  44.933  34.158  13.106
81104W        W53529  40.557   8.276  11.848
81105W        W53530  37.601  22.873   3.235
81106W        W53531  31.317  14.611  12.841
81107W        W53532  15.854  25.059   1.957
81108W        W53533  39.403  29.773  11.633
81109W        W53534  21.687   5.373   3.235
81110W        W53535  16.361  20.871  14.471
81111W        W53536  35.453  11.809  14.470
81112W        W53537  11.792   8.584  10.694
81113W        W53538  24.520  11.994  11.928
81114W        W53539  43.844  27.455  11.933
81115W        W53540  35.591  25.191   2.651
81116W        W53541  23.983   1.232   3.308
81117W        W53542  26.006  14.353  12.812
81118W        W53543  26.194  23.195   3.765
81119W        W53544   2.795  35.032   4.082
81120W        W53545  40.768  29.599   2.901
81121W        W53546  41.977  39.531   3.550
81122W        W53547  12.625   2.399   0.956
81123W        W53548  37.948   0.714  12.303
81124W        W53549  38.884   5.209  13.860
81125W        W53550  41.843  12.172  12.842
81126W        W53551   8.269  19.584   1.643
81127W        W53552  37.925  27.948  10.710
81128W        W53553  10.413  17.050  14.746
81129W        W53554  17.645   5.389  12.484
81130W        W53555  26.938  13.911  14.285
81131W        W53556  31.000   9.197   1.352
81132W        W53557  43.922  44.980  11.698
81133W        W53558  14.172  15.385   1.298
81134W        W53559  43.443  30.176  13.931
81135W        W53560  31.148  19.671   1.481
81136W        W53561   9.732  12.564   1.338
81137W        W53562  12.181  28.097   0.520
81138W        W53563   8.811   8.629  11.429
81139W        W53564   6.675  33.501  13.121
81140W        W53565  34.497  15.688   0.781
81141W        W53566   4.663  41.203  13.487
81142W        W53567  42.849  34.534   0.823
81143W        W53568  42.354  24.135   2.315
81144W        W53569  27.463  15.261  14.790
81145W        W53570  33.101  19.798   4.212
81146W        W53571  37.786  34.596   3.820
81147W        W53572  39.745  15.235   4.543
81148W        W53573  42.297   7.008  14.245
81149W        W53574   8.120  36.529   2.318
81150W        W53575  39.082  43.742   3.664
81151W        W53576  17.851  17.570  12.433
81152W        W53577  26.093  26.370  11.985
81153W        W53578   7.862   8.293  11.486
81154W        W53579  23.466  12.778   3.212
81155W        W53580  40.466  42.224  10.772
81156W        W53581  30.132  27.852  13.083
81157W        W53582  15.491  35.832   4.104
81158W        W53583  40.349  21.646  12.055
81159W        W53584   1.283  32.479   3.381
81160W        W53585  18.307   5.225  12.931
81161W        W53586  19.709  31.982  14.854
81162W        W53587  23.652   6.360   2.788
81163W        W53588  12.271  15.273  14.208
81164W        W53589  20.157  30.973   4.988
81165W        W53590  33.355  14.243  12.784
81166W        W53591  19.109  38.136   2.333
81167W        W53592  14.880  14.408  13.984
81168W        W53593  30.874  27.188   3.831
81169W        W53594  26.574  35.978  13.261
81170W        W53595  30.186   2.049  11.157
81171W        W53596  35.687   6.207  12.376
81172W        W53597  38.293  40.025  11.031
81173W        W53598  24.766  22.788   0.395
81174W        W53599  40.291   4.487   4.047
81175W        W53600  23.412  42.486   1.780
81176W        W53601  30.547  39.953  10.729
81177W        W53602   0.025  26.903  10.768
81178W        W53603  20.493  33.506  11.655
81179W        W53604  23.798   1.411  10.601
81180W        W53605   3.286  41.998  14.306
81181W        W53606   8.450  30.109  10.654
81182W        W53607  15.871  32.426  11.143
81183W        W53608   5.422   2.931  14.413
81184W        W53609  34.631  22.610   0.907
81185W        W53610   1.416   2.278   1.984
81186W        W53611  39.887  27.865   2.591
81187W        W53612  36.521  18.943  12.953
81188W        W53613  24.077   6.016   0.404
81189W        W53614   8.821  18.310  14.489
81190W        W53615  17.345  44.611   4.123
81191W        W53616  40.978  42.622   2.613
81192W        W53617  15.147   3.175  14.503
81193W        W53618  11.654   2.398   1.955
81194W        W53619  29.331  23.925   5.149
81195W        W53620  39.863  38.302  10.349
81196W        W53621  11.358  23.250   5.008
81197W        W53622  33.950  30.471  10.626
81198W        W53623   2.750   5.640   0.921
81199W        W53624   1.773  23.375  13.968
81200W        W53625  26.934  35.573   1.249
81201W        W53626  36.443  20.962   4.777
81202W        W53627  23.815  36.915  10.976
81203W        W53628  43.327   1.390   0.857
81204W        W53629   3.971   9.867   4.646
81205W        W53630   9.139  25.974   4.145
81206W        W53631  10.078  31.184   0.303
81207W        W53632  22.187   5.375  10.522
81208W        W53633  11.718   2.857   2.218
81209W        W53634  14.760  24.662  12.546
81210W        W53635  16.586  25.776  11.136
81211W        W53636  40.985   1.336   1.981
81212W        W53637  21.506  21.682  14.265
81213W        W53638   1.509  33.838  11.107
81214W        W53639   5.451  35.999  12.266
81215W        W53640  44.975  20.657   4.604
81216W        W53641   8.398  44.700  12.677
81217W        W53642   1.974  40.306   0.838
81218W        W53643  13.334   6.770   1.282
81219W        W53644   3.247  17.263  14.556
81220W        W53645  41.249   5.630  12.481
81221W        W53646  40.065  18.276  13.066
81222W        W53647   2.377  17.118  13.324
81223W        W53648  25.711   5.612   4.135
81224W        W53649  18.810   2.251  12.549
81225W        W53650  26.671   1.983  11.990
81226W        W53651   3.359   0.404   1.827
81227W        W53652  28.460  34.930  14.940
81228W        W53653  28.418  19.202  11.123
81229W        W53654  27.499  16.284  14.909
81230W        W53655  11.183  43.918   0.867
81231W        W53656   5.199  22.084   2.937
81232W        W53657  41.829  12.789   3.316
81233W        W53658  13.133  41.521   1.952
81234W        W53659   0.026  20.579  10.542
81235W        W53660   0.730  14.074   2.164
81236W        W53661   2.345  25.243   1.724
81237W        W53662  24.137  37.874   3.647
81238W        W53663  14.801  39.332   0.983
81239W        W53664  21.282  41.947  14.904
81240W        W53665  38.665  11.878   3.151
81241W        W53666  29.004  28.924  14.861
81242W        W53667  26.639  35.837  11.019
81243W        W53668   8.695  18.001  13.490
81244W        W53669  20.576   7.182   1.200
81245W        W53670   8.013   1.921  11.086
81246W        W53671   6.785  38.482  12.183
81247W        W53672   8.048  31.957   3.740
81248W        W53673  24.069  26.725  14.308
81249W        W53674   6.199  25.488   2.168
81250W        W53675  17.246  17.017  14.965
81251W        W53676  30.908  10.360   1.663
81252W        W53677  24.083  17.806   5.043
81253W        W53678  27.970   1.569   1.489
81254W        W53679  22.602  14.090  13.450
81255W        W53680   1.186  10.166   0.554
81256W        W53681   1.206  43.773  11.592
81257W        W53682  26.921  27.054  11.477
81258W        W53683  24.159  39.182  10.679
81259W        W53684   9.003   9.172   1.728
81260W        W53685  13.458   2.995   1.685
81261W        W53686  28.129  20.544   4.044
81262W        W53687  39.901  31.319   2.240
81263W        W53688   7.739  18.584   3.946
81264W        W53689   7.132  42.544  12.365
81265W        W53690  26.824  19.513   2.750
81266W        W53691   2.485  39.536  11.588
81267W        W53692  43.720  10.175  14.976
81268W        W53693  17.394  25.224   9.970
81269W        W53694  30.915   3.388   3.251
81270W        W53695  44.782  27.885   3.667
81271W        W53696  21.254  37.360   4.679
81272W        W53697   2.251  44.265  13.259
81273W        W53698  28.631  27.905  14.084
81274W        W53699  15.709  23.697   0.812
81275W        W53700  22.467  13.729   0.473
81276W        W53701  40.661  34.876   0.189
81277W        W53702  38.323  11.310   0.534
81278W        W53703  26.486  26.736  12.455
81279W        W53704   6.266  13.379  13.008
81280W        W53705  17.237  13.614  13.450
81281W        W53706   9.932  42.377   2.830
81282W        W53707  28.272  28.145  10.594
81283W        W53708  32.998  33.941   1.661
81284W        W53709   6.481   0.891   4.620
81285W        W53710   9.700  16.604   3.282
81286W        W53711  43.353  31.475  11.145
81287W        W53712  30.064   2.908  10.613
81288W        W53713  24.504   5.242   4.588
81289W        W53714  42.940  28.508  12.593
81290W        W53715  31.131  14.902  13.259
81291W        W53716  23.502  24.528  10.703
81292W        W53717  16.103  36.357  10.711
81293W        W53718  23.429  31.534   0.929
81294W        W53719  43.794  44.889  14.244
81295W        W53720  41.079  41.401   1.912
81296W        W53721  27.010  16.741   4.288
81297W        W53722  15.978  12.246   1.391
81298W        W53723  28.642  40.129   1.229
81299W        W53724  12.659  22.006   9.659
81300W        W53725  15.035  25.224   3.111
81301W        W53726  40.569  13.226  11.597
81302W        W53727  18.842  13.536   3.616
81303W        W53728  39.932  33.381   2.357
81304W        W53729  43.748  37.334   4.620
81305W        W53730  26.628   9.235   4.273
81306W        W53731  38.119  41.483   4.965
81307W        W53732  16.799  27.488  14.334
81308W        W53733   0.165  34.544  13.367
81309W        W53734   1.871   1.443   4.657
81310W        W53735  29.080  30.434  14.368
81311W        W53736  14.738   8.543  11.612
81312W        W53737  31.376  38.523  11.617
81313W        W53738  17.326   0.987  13.538
81314W        W53739  18.832  37.060   0.829
81315W        W53740  41.520  11.174  10.821
81316W        W53741  41.846  26.704  11.052
81317W        W53742  43.624  37.870  13.054
81318W        W53743   7.157  16.183   0.387
81319W        W53744  36.016   3.624   4.153
81320W        W53745  36.786  36.370   0.016
81321W        W53746  25.689   0.482  12.970
81322W        W53747  38.551  26.497  11.116
81323W        W53748  34.168  20.288   0.049
81324W        W53749  11.866  41.795   0.358
81325W        W53750   9.729  24.243  10.702
81326W        W53751   8.164  12.066  13.854
81327W        W53752  32.590  27.684  13.472
81328W        W53753   8.849  22.496  12.450
81329W        W53754  32.693  17.102  12.482
81330W        W53755   0.247  27.408   1.356
81331W        W53756  22.980  17.170   2.791
81332W        W53757   8.431  33.017   0.405
81333W        W53758  29.946  39.869  11.197
81334W        W53759  11.469  25.569  11.218
81335W        W53760  27.015  12.366  14.404
81336W        W53761  15.273   8.362  10.545
81337W        W53762   6.921   3.561   3.840
81338W        W53763  15.179  26.849  12.108
81339W        W53764  35.484  44.888  12.930
81340W        W53765  34.434  43.883   0.346
81341W        W53766   8.576  20.185   0.329
81342W        W53767  34.354  34.163  13.710
81343W        W53768  35.631  33.643  11.470
81344W        W53769  24.408  30.032   2.054
81345W        W53770  43.893   4.595   3.130
81346W        W53771  18.992   4.916  12.494
81347W        W53772  41.288  16.152  11.623
81348W        W53773  25.616  18.593   1.461
81349W        W53774   5.425  15.441  11.061
81350W        W53775  33.877  41.429   1.394
81351W        W53776  12.676  43.540  14.209
81352W        W53777  14.779  32.457   1.728
81353W        W53778   6.699  32.413   0.841
81354W        W53779  26.945  14.563   2.988
81355W        W53780  22.492  13.821   4.365
81356W        W53781  23.242  19.102   2.821
81357W        W53782   7.776   5.248   0.321
81358W        W53783  34.431  44.762   4.359
81359W        W53784   5.429  25.622   1.664
81360W        W53785  22.939  11.772  11.051
81361W        W53786  44.621  21.584   4.119
81362W        W53787  19.202  24.703  12.547
81363W        W53788  37.456  36.844  14.296
81364W        W53789  34.860   9.464   2.428
81365W        W53790  25.709  38.027   4.091
81366W        W53791   6.909  15.364  11.524
81367W        W53792  13.623  25.279  14.469
81368W        W53793  13.145   0.563   0.039
81369W        W53794  29.164  26.678   4.603
81370W        W53795  25.554  31.000   3.647
81371W        W53796   6.728  40.845   0.029
81372W        W53797  16.363  22.572  14.760
81373W        W53798   5.826  20.888   2.387
81374W        W53799  44.287  17.264  10.040
81375W        W53800  42.736   8.922  12.311
81376W        W53801   5.186  34.054  12.307
81377W        W53802  27.188  36.420   0.699
81378W        W53803  42.069  37.475  12.470
81379W        W53804  25.467  25.126   4.125
81380W        W53805  12.316  29.531   4.644
81381W        W53806  22.243  13.750   2.882
81382W        W53807  32.220  15.289   1.343
81383W        W53808  28.166  40.940   0.734
81384W        W53809   1.464  40.065   3.232
81385W        W53810  36.152  35.661  14.042
81386W        W53811  41.581  23.932  12.350
81387W        W53812  43.864  19.915   3.395
81388W        W53813   5.741  24.439  12.852
81389W        W53814   8.132  43.774  13.350
81390W        W53815   3.592  19.230  11.573
81391W        W53816  35.359  32.100  14.388
81392W        W53817  39.017  38.082  13.009
81393W        W53818  21.749  28.136  12.352
81394W        W53819  37.793  26.036  10.630
81395W        W53820  33.836  40.387  12.836
81396W        W53821   3.080  37.425   1.365
81397W        W53822  40.427  31.226   0.858
81398W        W53823  41.474  36.939   0.464
81399W        W53824  11.930  35.144  13.779
81400W        W53825  25.158  33.565  11.894
81401W        W53826  13.610  29.434   3.358
81402W        W53827  20.741  18.669  13.516
81403W        W53828   3.857  41.051  12.593
81404W        W53829  17.563  38.038  14.389
81405W        W53830  30.111  28.088  11.796
81406W        W53831  23.805  13.416  11.771
81407W        W53832  38.863  29.132   1.276
81408W        W53833  13.147   6.782  11.436
81409W        W53834  25.113  31.862   3.202
81410W        W53835  17.555  16.566   0.964
81411W        W53836  33.080  40.459  13.379
81412W        W53837  40.483  21.824  11.361
81413W        W53838  41.402  33.075  13.511
81414W        W53839  12.378   6.167  10.623
81415W        W53840   0.304   0.577  13.988
81416W        W53841  33.567  39.007   1.497
81417W        W53842  24.874   2.469   2.470
81418W        W53843  15.881   9.154   1.302
81419W        W53844  39.905  16.587  14.808
81420W        W53845  23.291  16.174   3.535
81421W        W53846  31.056  20.498   2.414
81422W        W53847  21.974  21.623   2.347
81423W        W53848   0.317   5.916   1.347
81424W        W53849  28.409  33.101   9.824
81425W        W53850  14.498   6.158   4.251
81426W        W53851  32.978   1.980  12.491
81427W        W53852  37.883   3.209   2.410
81428W        W53853   4.388  23.949  12.070
81429W        W53854  36.907  42.120  14.429
81430W        W53855  21.430  11.996   4.819
81431W        W53856  34.097  10.418  12.541
81432W        W53857  34.960  24.741   3.735
81433W        W53858  16.764  33.028  13.333
81434W        W53859  13.343  27.202   3.204
81435W        W53860  19.537  11.431   0.733
81436W        W53861   0.754  17.629   4.180
81437W        W53862  28.452   6.859   1.771
81438W        W53863  26.165  25.932  13.428
81439W        W53864   2.232  21.575   2.695
81440W        W53865  41.817  17.768  12.812
81441W        W53866  38.861  25.685   1.244
81442W        W53867  30.602  10.587   3.749
81443W        W53868  12.816   9.768   1.886
81444W        W53869   9.208  10.216  13.031
81445W        W53870   7.365  11.174   1.627
81446W        W53871  36.571   8.598  14.412
81447W        W53872  11.089   2.662   2.787
81448W        W53873  32.145  31.890  10.602
81449W        W53874  14.728  10.906  13.994
81450W        W53875   6.682  17.050   3.313
81451W        W53876   8.570  34.058   3.090
81452W        W53877   2.645  11.828  14.778
81453W        W53878  19.222   8.529  14.159
81454W        W53879  33.258  31.388   2.356
81455W        W53880  32.993  17.813   3.386
81456W        W53881  29.652  16.427  13.122
81457W        W53882  26.129  33.169  14.385
81458W        W53883   5.994  16.084  12.476
81459W        W53884  43.458  30.893   3.827
81460W        W53885   7.184  22.701   2.153
81461W        W53886  11.763  20.777  14.893
81462W        W53887  18.246  32.097  10.868
81463W        W53888  12.652  21.599   4.573
81464W        W53889  41.245   6.337  12.067
81465W        W53890  24.606  16.168  13.262
81466W        W53891  20.164  40.633   1.449
81467W        W53892  26.299   5.263  11.164
81468W        W53893  18.721  36.001   2.250
81469W        W53894  13.159  24.423  13.347
81470W        W53895  37.043  29.038  14.265
81471W        W53896  18.167  38.996  12.863
81472W        W53897   8.793  42.727   2.356
81473W        W53898   2.532  44.827   0.175
81474W        W53899  42.224  19.084   2.719
81475W        W53900   6.900   6.838  10.628
81476W        W53901  12.859   2.972  14.329
81477W        W53902   1.142   0.745  13.814
81478W        W53903  24.235  19.205   1.840
81479W        W53904  36.511  29.262   4.176
81480W        W53905  34.395  41.162  12.805
81481W        W53906   3.911  27.904   1.764
81482W        W53907   7.282  38.972  12.941
81483W        W53908   9.840  24.278  14.285
81484W        W53909   0.654  14.058   5.032
81485W        W53910   1.747  15.325   4.351
81486W        W53911  44.861  37.130   1.334
81487W        W53912  24.791  42.794  12.522
81488W        W53913   7.937  33.125   4.285
81489W        W53914  35.923  27.688  12.052
81490W        W53915  32.058   7.813  10.857
81491W        W53916  35.416   5.233  11.798
81492W        W53917  28.185   4.275   1.332
81493W        W53918  39.061  18.831   0.508
81494W        W53919  32.593  20.493   4.931
81495W        W53920  36.331   0.413  11.259
81496W        W53921  11.778  13.192   0.985
81497W        W53922  10.130  34.414   0.401
81498W        W53923  23.021   7.268  11.725
81499W        W53924   4.934  26.334   5.092
81500W        W53925  39.396  10.649   3.142
81501W        W53926  44.946  43.708   1.831
81502W        W53927  31.949  38.948  11.123
81503W        W53928  36.655  35.048   0.460
81504W        W53929   4.219   4.980  11.154
81505W        W53930  32.515  13.012   3.052
81506W        W53931  17.893  36.419  14.554
81507W        W53932  33.074  16.964  10.306
81508W        W53933  16.882  44.900  12.514
81509W        W53934  44.916  18.823   3.802
81510W        W53935  16.610  14.078  11.218
81511W        W53936  22.528  29.156   0.236
81512W        W53937  20.543  17.273  13.990
81513W        W53938  44.365  36.030  10.862
81514W        W53939  33.756  38.095  11.098
81515W        W53940   4.270  29.009  13.114
81516W        W53941  26.980  18.463  10.905
81517W        W53942  13.228  17.344   0.403
81518W        W53943   0.794   7.647  12.530
81519W        W53944  14.749   9.910   2.645
81520W        W53945  31.991  41.873  14.375
81521W        W53946   3.057  36.455   3.748
81522W        W53947  37.111  37.426  10.455
81523W        W53948  18.203  39.812  13.473
81524W        W53949  21.630  10.337  14.372
81525W        W53950   3.910  39.261  10.450
81526W        W53951  32.996  10.349  12.874
81527W        W53952  36.838  25.198  10.546
81528W        W53953  19.509  26.052  14.636
81529W        W53954  44.474  12.338  13.510
81530W        W53955  22.191   7.416  10.657
81531W        W53956   6.308   5.731   0.585
81532W        W53957  20.654  18.671  14.535
81533W        W53958  22.998   7.200  12.237
81534W        W53959  12.089  24.342  10.545
81535W        W53960  38.988  13.348   1.213
81536W        W53961   0.796  10.724   1.384
81537W        W53962  31.546  14.242  13.460
81538W        W53963  28.549  43.237   1.559
81539W        W53964  28.028  28.412  14.853
81540W        W53965  18.055   9.391   3.663
81541W        W53966   3.816  30.507   2.490
81542W        W53967  22.545  24.162  13.838
81543W        W53968   1.260  21.905  12.172
81544W        W53969  20.330   5.034   1.692
81545W        W53970   3.116  26.017   2.808
81546W        W53971  33.846  23.181  11.344
81547W        W53972   4.532  24.575   1.893
81548W        W53973  37.535  44.422  10.076
81549W        W53974  30.193   4.831  12.517
81550W        W53975  23.184  12.611   2.250
81551W        W53976   3.835   2.733   3.375
81552W        W53977   5.653  42.547  12.486
81553W        W53978  30.963   7.227  10.140
81554W        W53979  35.017  36.077   5.096
81555W        W53980  41.826  20.590   2.140
81556W        W53981  15.317  28.430   3.711
81557W        W53982  14.006  15.291  11.867
81558W        W53983  39.504  36.513   0.876
81559W        W53984  14.747   1.824  13.763
81560W        W53985   2.080   3.014  11.821
81561W        W53986  32.701   0.208  11.150
81562W        W53987   5.804  17.304   1.281
81563W        W53988  30.593  30.567   2.356
81564W        W53989  26.877  41.228  12.987
81565W        W53990  43.935  13.610  10.784
81566W        W53991   4.377  27.068   4.645
81567W        W53992   5.360  33.354  11.536
81568W        W53993  43.190  16.042   4.702
81569W        W53994  16.869  15.376  12.414
81570W        W53995  34.004  27.151  13.464
81571W        W53996  38.586   2.786   2.801
81572W        W53997   4.545  28.507  14.223
81573W        W53998   8.138  39.905  14.371
81574W        W53999  19.709   5.611  11.140
81575W        W54000   3.124  38.518  12.863
81576W        W54001  27.238  21.312  12.030
81577W        W54002  28.396  20.164   3.761
81578W        W54003  19.765  15.491   3.992
81579W        W54004  41.478  17.579  14.915
81580W        W54005  37.861   8.882  13.688
81581W        W54006  17.779  13.737   1.365
81582W        W54007  34.847  25.727  14.994
81583W        W54008   6.563  11.086  13.969
81584W        W54009   1.241  24.253  13.287
81585W        W54010  18.284  27.756   1.888
81586W        W54011  36.188   3.675  14.938
81587W        W54012  29.646  44.320   4.642
81588W        W54013  13.222   5.958   0.750
81589W        W54014  42.856  23.234  13.113
81590W        W54015   8.941  40.432  10.449
81591W        W54016  29.583  27.665   2.787
81592W        W54017  34.845   0.345  10.032
81593W        W54018  15.718  27.742   2.807
81594W        W54019  31.549  21.697   2.595
81595W        W54020   7.815  35.514  14.908
81596W        W54021  23.461  35.384   3.134
81597W        W54022  35.336  34.563   3.212
81598W        W54023  15.463   1.256   3.354
81599W        W54024  30.888  34.132  13.303
81600W        W54025  39.604   3.336  13.802
81601W        W54026   3.875   8.324   0.214
81602W        W54027  18.834  25.152  10.300
81603W        W54028  36.139  38.982  12.537
81604W        W54029  30.058  27.090   1.547
81605W        W54030  20.158  39.592  12.426
81606W        W54031  33.999  41.835   2.170
81607W        W54032  44.783   6.835   0.756
81608W        W54033  13.722   1.823   0.219
81609W        W54034  38.461  15.125   2.451
81610W        W54035  22.960  30.983   2.020
81611W        W54036  29.612  22.730  12.483
81612W        W54037  24.920   0.768  14.376
81613W        W54038  15.824  38.953  12.917
81614W        W54039   1.901  40.252  10.600
81615W        W54040  13.474  14.695  13.791
81616W        W54041   2.282  44.292  13.758
81617W        W54042   2.986  31.769   5.083
81618W        W54043  24.840  40.306   3.591
81619W        W54044  25.494  21.644   3.750
81620W        W54045  22.506   6.804  10.234
81621W        W54046   8.269  43.011   2.258
81622W        W54047  21.225  24.657  13.460
81623W        W54048  12.315  29.476  13.043
81624W        W54049  13.719  17.698   2.770
81625W        W54050  44.919  30.554  11.162
81626W        W54051  26.915  14.669   1.343
81627W        W54052  20.693   9.214   2.350
81628W        W54053  43.342  23.946   0.983
81629W        W54054  28.438  19.514   0.319
81630W        W54055   4.353  30.559  12.003
81631W        W54056  30.138  44.648   3.899
81632W        W54057  42.743   2.556  13.348
81633W        W54058  32.611  40.619  12.804
81634W        W54059  17.819   3.496  14.849
81635W        W54060  22.270  40.901   0.845
81636W        W54061  27.065   3.741   4.962
81637W        W54062   9.828  11.725   2.740
81638W        W54063  20.609  35.635  11.080
81639W        W54064   4.912   4.220  14.502
81640W        W54065  38.447  33.050  12.441
81641W        W54066   2.685   7.287   5.240
81642W        W54067  32.941  20.179   1.234
81643W        W54068   7.111   2.319  14.317
81644W        W54069  14.345  31.390  14.014
81645W        W54070  31.405  20.038  12.231
81646W        W54071  35.252  34.252  10.217
81647W        W54072  28.721  13.411   1.808
81648W        W54073  16.544   0.937  14.920
81649W        W54074  14.656  10.675  10.692
81650W        W54075  20.808   7.889   0.450
81651W        W54076  16.726  30.647  11.861
81652W        W54077  27.611   4.750   1.834
81653W        W54078  33.893  30.492  13.547
81654W        W54079  10.349  10.685  10.775
81655W        W54080   8.996  24.469  12.986
81656W        W54081   1.239   5.873   2.733
81657W        W54082  10.096  15.307  11.173
81658W        W54083  24.821  22.128  10.014
81659W        W54084  42.371   9.894   1.444
81660W        W54085  20.283  14.786   1.297
81661W        W54086  16.674   7.310  10.937
81662W        W54087  21.083  31.068  10.374
81663W        W54088   9.528  26.988   1.224
81664W        W54089  23.097  33.409   1.414
81665W        W54090  33.610  40.936  12.059
81666W        W54091  19.285  13.687  13.448
81667W        W54092  13.064  44.489   1.987
81668W        W54093  44.413  34.128  12.294
81669W        W54094  34.551  15.143   2.754
81670W        W54095  31.421   5.994  13.045
81671W        W54096  17.093  14.092  10.482
81672W        W54097   6.466   3.452  11.579
81673W        W54098  13.805  17.547  12.855
81674W        W54099  19.332  23.579   1.940
81675W        W54100  24.590  22.596  14.063
81676W        W54101  29.900  24.207   2.199
81677W        W54102   9.816  18.209  14.723
81678W        W54103  22.003  19.596   3.684
81679W        W54104  32.469   5.240   0.029
81680W        W54105  10.689  15.170  13.327
81681W        W54106  42.960  30.428   3.719
81682W        W54107   2.884  14.191   4.091
81683W        W54108   6.404  22.590  14.429
81684W        W54109  10.930  38.997   3.638
81685W        W54110   9.603  21.827  12.621
81686W        W54111  25.462   8.606  13.384
81687W        W54112  19.744   9.769   1.105
81688W        W54113  10.173  39.195   5.154
81689W        W54114  28.508  15.878   0.358
81690W        W54115  28.116  41.710   5.010
81691W        W54116   4.375  33.198   4.909
81692W        W54117   6.630  20.019  12.507
81693W        W54118  31.678   4.444   3.272
81694W        W54119  24.289  32.033  14.400
81695W        W54120  26.092  15.657  12.126
81696W        W54121  21.253   5.361   2.954
81697W        W54122  39.493  16.856   2.283
81698W        W54123   4.314  27.844  13.435
81699W        W54124  10.896  37.039   0.475
81700W        W54125  29.557  38.002   1.003
81701W        W54126  37.989  21.983   0.425
81702W        W54127  40.172   1.006  14.987
81703W        W54128   9.757   3.632   2.670
81704W        W54129  11.228  38.819  13.082
81705W        W54130  12.874   1.448  10.856
81706W        W54131   5.996  14.282  12.960
81707W        W54132   3.753  15.161   1.175
81708W        W54133  22.321   5.735  14.768
81709W        W54134  43.855  11.324   2.177
81710W        W54135  12.105  18.808   2.759
81711W        W54136   8.341  14.095   4.191
81712W        W54137  28.109  40.769   2.978
81713W        W54138  44.842  15.098  11.483
81714W        W54139  23.626  44.169   3.679
81715W        W54140   8.729  23.823   0.105
81716W        W54141   4.736   1.082   4.511
81717W        W54142   1.357  36.455   2.756
81718W        W54143  36.061   4.569  13.962
81719W        W54144  36.424  22.131  14.818
81720W        W54145  42.059  28.841  13.162
81721W        W54146  28.212  21.359  13.066
81722W        W54147  30.496  44.483   4.205
81723W        W54148  11.053   1.436  14.937
81724W        W54149   7.474  30.661   5.163
81725W        W54150  42.722  42.614  11.185
81726W        W54151  13.969   9.294   4.837
81727W        W54152  41.036   3.300   3.593
81728W        W54153  15.520  10.288   2.282
81729W        W54154  26.721  43.421  10.540
81730W        W54155   2.160  25.705  14.867
81731W        W54156  32.611  29.527  10.638
81732W        W54157   6.709  44.029   3.169
81733W        W54158  43.809  28.617   1.494
81734W        W54159  38.218   0.869  13.514
81735W        W54160  13.148   0.758  11.683
81736W        W54161  40.973  17.449  11.039
81737W        W54162  42.039  34.007  10.558
81738W        W54163  39.811  32.917  14.808
81739W        W54164   2.906  23.038   3.794
81740W        W54165  23.632   8.998   0.181
81741W        W54166  16.121  38.951  14.361
81742W        W54167  24.081  37.308   0.269
81743W        W54168   3.508   6.978   1.398
81744W        W54169  11.789  20.580   3.332
81745W        W54170  38.649  31.070  13.855
81746W        W54171  40.565  34.976   0.672
81747W        W54172  32.011   3.338  14.366
81748W        W54173  11.806   1.855  14.562
81749W        W54174  13.939   8.747   2.467
81750W        W54175  39.222  15.313  13.360
81751W        W54176  43.539  40.393   2.385
81752W        W54177   5.922  36.364   0.759
81753W        W54178   0.821  34.085  11.243
81754W        W54179   2.949  42.705  13.127
81755W        W54180  18.298  12.003   1.953
81756W        W54181  42.247  11.688  14.947
81757W        W54182   3.298  26.258   0.521
81758W        W54183  33.481   7.923  12.911
81759W        W54184  41.434  31.957   4.702
81760W        W54185  32.607  42.132  11.131
81761W        W54186  23.380   2.020   4.182
81762W        W54187   5.932  13.394   3.431
81763W        W54188  16.959  40.935  13.935
81764W        W54189  20.748   1.176  10.657
81765W        W54190  23.105  17.514  10.639
81766W        W54191  11.977  42.803  12.538
81767W        W54192  32.448  17.493   4.512
81768W        W54193  12.644   4.450  11.154
81769W        W54194   8.245  34.538   0.754
81770W        W54195   7.847  11.665   3.415
81771W        W54196   3.185  24.114  10.901
81772W        W54197  41.282  15.074   1.472
81773W        W54198   7.342  37.280  10.354
81774W        W54199  10.138  24.354  13.584
81775W        W54200   9.758  22.862  12.834
81776W        W54201  34.508  41.534   3.294
81777W        W54202  27.694  14.262  13.323
81778W        W54203  25.405  17.269   2.310
81779W        W54204  26.252   6.363   4.990
81780W        W54205  23.057  26.709  12.578
81781W        W54206   2.428  42.637  12.338
81782W        W54207  30.847  40.207  11.195
81783W        W54208   9.367   7.177   4.085
81784W        W54209  24.167   9.350  12.904
81785W        W54210   2.252  15.193   4.909
81786W        W54211  26.379   6.185  12.197
81787W        W54212  28.701  17.635  13.001
81788W        W54213   9.844   4.481  10.974
81789W        W54214  23.471  19.674   4.571
81790W        W54215  22.132  34.954  11.460
81791W        W54216  40.391  42.435   3.511
81792W        W54217  15.261  42.330  10.572
81793W        W54218  39.831  29.116   1.244
81794W        W54219  14.100   4.908   1.176
81795W        W54220  26.921  20.823  13.481
81796W        W54221   4.007  27.069  13.775
81797W        W54222   7.771  22.358  12.431
81798W        W54223   2.632   0.944  13.923
81799W        W54224   8.148   5.708   3.075
81800W        W54225  41.459  42.656  14.957
81801W        W54226  16.186  24.139   3.818
81802W        W54227  37.637  22.687   5.202
81803W        W54228  26.426  13.785  11.581
81804W        W54229  25.610   8.851  13.981
81805W        W54230  13.305   8.314  12.540
81806W        W54231  11.209  17.631   0.041
81807W        W54232  42.326  25.114   2.324
81808W        W54233  40.431  15.010   1.290
81809W        W54234  32.600  39.398   0.810
81810W        W54235  40.848  12.637   4.408
81811W        W54236  40.963  36.829   3.633
81812W        W54237  21.083   6.625  13.781
81813W        W54238  10.218  19.462   1.812
81814W        W54239  19.670  19.146   3.578
81815W        W54240  27.809  27.867  14.022
81816W        W54241  33.033   7.965  13.549
81817W        W54242  44.973  34.490   0.763
81818W        W54243   1.461   0.220  12.313
81819W        W54244  14.347  36.873  10.702
81820W        W54245   1.918   2.364   0.943
81821W        W54246  30.160  39.823  12.096
81822W        W54247  20.143  22.985  12.912
81823W        W54248  35.893  23.990   2.220
81824W        W54249  25.999  43.039  14.272
81825W        W54250  29.924  26.859  13.033
81826W        W54251  15.363  44.041  13.412
81827W        W54252  17.580  23.127  11.174
81828W        W54253  15.809  34.174   1.249
81829W        W54254  30.454   2.207  10.600
81830W        W54255  19.312  13.236   4.329
81831W        W54256  23.268   8.622   0.358
81832W        W54257  39.726  38.675  11.389
81833W        W54258  30.028  36.570  12.052
81834W        W54259  43.832  35.352  14.028
81835W        W54260  43.009  29.533   2.111
81836W        W54261  22.540  41.827   2.914
81837W        W54262  16.599  36.461   4.764
81838W        W54263  15.136  27.582  11.501
81839W        W54264  17.309   4.568  14.211
81840W        W54265  39.611   1.152  11.632
81841W        W54266  43.598  17.865   4.032
81842W        W54267   8.079  34.392  11.973
81843W        W54268  33.454  39.099  12.443
81844W        W54269  39.125  14.723   1.454
81845W        W54270  19.871  14.468   0.935
81846W        W54271  24.767  13.636  11.058
81847W        W54272  36.664   6.296   3.156
81848W        W54273   1.608   0.393   0.608
81849W        W54274  34.035  30.495   4.958
81850W        W54275  38.396  23.529   3.892
81851W        W54276  41.739  13.267   4.004
81852W        W54277  25.601   0.168  10.493
81853W        W54278  25.436   3.312  13.425
81854W        W54279  37.851  22.263  14.975
81855W        W54280  40.966   0.414  13.848
81856W        W54281  31.047   1.832  13.108
81857W        W54282  26.998   9.904   0.271
81858W        W54283  28.428  30.856  13.558
81859W        W54284  17.264  17.029  11.398
81860W        W54285  38.764   4.408  10.263
81861W        W54286  38.350  35.425  13.878
81862W        W54287  37.123  29.015   4.577
81863W        W54288  30.399  32.484   4.445
81864W        W54289  23.286  24.731   4.117
81865W        W54290   1.240   5.922  11.113
81866W        W54291  34.491  14.593  13.860
81867W        W54292  28.370  44.730   1.201
81868W        W54293  36.439  34.633   3.324
81869W        W54294   2.376   9.089   1.884
81870W        W54295  35.576   8.904   2.255
81871W        W54296  26.117   7.890   1.875
81872W        W54297   9.768  19.251   0.323
81873W        W54298  18.340  42.824  11.547
81874W        W54299  26.982  10.670   3.028
81875W        W54300  36.970  13.796  10.663
81876W        W54301  29.582   8.713   2.429
81877W        W54302   2.195  10.865   4.482
81878W        W54303  37.816   9.238   2.735
81879W        W54304  19.690  29.107   2.713
81880W        W54305  11.400  36.153   2.258
81881W        W54306  13.603  32.923  14.808
81882W        W54307  16.631  10.122  11.406
81883W        W54308   1.860   4.047   0.684
81884W        W54309  14.125  37.448  12.862
81885W        W54310  37.477  14.721  13.467
81886W        W54311   3.555  17.804  11.548
81887W        W54312  28.556  11.834   4.616
81888W        W54313  31.998  25.361  12.435
81889W        W54314  38.427   1.110   2.755
81890W        W54315   3.879   8.257  10.523
81891W        W54316  35.897  31.631  13.436
81892W        W54317  22.931   9.811  14.031
81893W        W54318  36.576  21.656  11.583
81894W        W54319   7.189  27.553   1.229
81895W        W54320  15.175  34.022   0.342
81896W        W54321  10.612  17.674  11.037
81897W        W54322  34.969  15.931   4.486
81898W        W54323  29.576   6.442  11.060
81899W        W54324  31.640   0.337  10.702
81900W        W54325   9.737  22.263   0.820
81901W        W54326  43.877  22.598   3.700
81902W        W54327  35.107  22.051   0.882
81903W        W54328  12.214   7.019  13.970
81904W        W54329  20.096  16.294   2.450
81905W        W54330  35.328  15.787   0.354
81906W        W54331  42.030  27.894  13.135
81907W        W54332   6.111  10.852   2.250
81908W        W54333   9.705  38.922   0.262
81909W        W54334  38.143  30.481   2.881
81910W        W54335  43.428  41.491  14.234
81911W        W54336  22.020   1.223   3.281
81912W        W54337  18.074   1.197  11.193
81913W        W54338  21.569  42.329  13.820
81914W        W54339  27.453  39.437  11.980
81915W        W54340   5.191  24.482  11.758
81916W        W54341  42.062  23.199   3.919
81917W        W54342  36.934  43.024   3.726
81918W        W54343   6.169   7.108   0.303
81919W        W54344  30.906   0.962  13.350
81920W        W54345  18.833  18.644   1.285
81921W        W54346  25.880   0.283  13.965
81922W        W54347  10.741  17.051  10.354
81923W        W54348  26.504   4.778  11.018
81924W        W54349  12.456  35.973  14.024
81925W        W54350  20.563  30.531   0.823
81926W        W54351  20.575  42.162   0.707
81927W        W54352  41.572   5.148   0.738
81928W        W54353  30.526  10.100  10.697
81929W        W54354  19.238  33.080   0.152
81930W        W54355  27.474  31.140  12.524
81931W        W54356  36.566   6.203  12.390
81932W        W54357  27.107  40.282   4.134
81933W        W54358   0.694  40.116   3.730
81934W        W54359   7.710  41.863   4.023
81935W        W54360  39.433  15.367   2.168
81936W        W54361  33.534   5.779   4.468
81937W        W54362  26.070  30.151   0.017
81938W        W54363  44.774  19.228  13.469
81939W        W54364   8.768  16.204   4.605
81940W        W54365   7.378   5.167  13.556
81941W        W54366  17.636  22.554  12.953
81942W        W54367  35.926  25.206   1.679
81943W        W54368  33.336  35.426  12.558
81944W        W54369  17.664  13.651   4.346
81945W        W54370  40.253  12.736   0.445
81946W        W54371  26.597   1.610   2.706
81947W        W54372  38.543  27.523   0.726
81948W        W54373  22.965  39.596   3.401
81949W        W54374  34.527  17.333  14.816
81950W        W54375  35.630   4.854  13.954
81951W        W54376  23.328   4.173  11.459
81952W        W54377  26.463   6.843  10.753
81953W        W54378  23.684  12.091  11.790
81954W        W54379  36.488  34.172   1.106
81955W        W54380  10.741   9.882  11.681
81956W        W54381  12.652  28.710   3.242
81957W        W54382  41.432  35.082  14.486
81958W        W54383   7.697   2.860  14.807
81959W        W54384  24.897  23.951  11.688
81960W        W54385  35.492   0.253   0.415
81961W        W54386   4.230  15.301  13.411
81962W        W54387  32.550  22.710  11.199
81963W        W54388  10.657  44.314   3.131
81964W        W54389  20.096  38.889  12.568
81965W        W54390  19.240  17.363  14.484
81966W        W54391  37.394  28.504  11.857
81967W        W54392   3.117   4.760   4.531
81968W        W54393  23.784  18.173   2.640
81969W        W54394  33.389  41.097   0.366
81970W        W54395  11.929   7.672   4.126
81971W        W54396  16.112  24.722   3.308
81972W        W54397  36.968  15.094  10.939
81973W        W54398  24.378  26.583   0.110
81974W        W54399  30.778   1.957   1.248
81975W        W54400  34.433   4.746   2.758
81976W        W54401  26.707  32.059  11.083
81977W        W54402  12.150  29.550   2.648
81978W        W54403  43.881  28.151   0.443
81979W        W54404  32.563   4.333  11.531
81980W        W54405  28.911  27.679   1.246
81981W        W54406   1.895   1.332  14.841
81982W        W54407  29.555  24.568   4.255
81983W        W54408  30.369   3.458   9.996
81984W        W54409  22.768  29.453   3.308
81985W        W54410   8.158   9.160  12.035
81986W        W54411  35.230  15.299  14.671
81987W        W54412  33.440  39.413   3.784
81988W        W54413   3.375  21.174  11.479
81989W        W54414  39.943   4.967  12.473
81990W        W54415  38.564  37.063  10.540
81991W        W54416  17.530  19.088  12.860
81992W        W54417  15.627  28.790   3.905
81993W        W54418  44.342  30.918   3.691
81994W        W54419   6.930  44.268  13.798
81995W        W54420  44.237  28.127  13.354
81996W        W54421  22.953  17.200   1.087
81997W        W54422  15.545  27.098  11.410
81998W        W54423  19.000  39.833   3.705
81999W        W54424   9.839  35.376   1.792
82000W        W54425  43.798  31.298  13.406
82001W        W54426  22.963  37.302  14.337
82002W        W54427   1.970  14.116  10.766
82003W        W54428   3.419  21.690  13.251
82004W        W54429  20.665   4.279   0.475
82005W        W54430  28.482   1.983  13.307
82006W        W54431  25.675   3.427  11.942
82007W        W54432   1.234   2.729  10.655
82008W        W54433  26.517  23.200   0.521
82009W        W54434   7.995  30.560   3.384
82010W        W54435  29.726  43.983  12.281
82011W        W54436   2.779   6.703  14.890
82012W        W54437   4.982   3.632  12.044
82013W        W54438   9.440   5.938   4.591
82014W        W54439  25.690  28.511   4.814
82015W        W54440   3.211  22.279  14.720
82016W        W54441  40.866  14.722  13.346
82017W        W54442   8.435  28.974  11.960
82018W        W54443  17.789  30.491  12.580
82019W        W54444   8.436   7.204  11.124
82020W        W54445  39.410   2.803  13.851
82021W        W54446  17.113  11.304   1.289
82022W        W54447  41.428  10.228   4.262
82023W        W54448  12.454  41.543  13.811
82024W        W54449  35.320  29.603   4.816
82025W        W54450   2.739  38.496   3.802
82026W        W54451   2.488  30.880   0.855
82027W        W54452  16.146  27.638  13.579
82028W        W54453   5.762   8.876  14.490
82029W        W54454  43.396  13.816  12.867
82030W        W54455   9.727  30.528  13.287
82031W        W54456  39.410   0.395   3.782
82032W        W54457   1.181   4.802  11.088
82033W        W54458  39.214  27.811   1.491
82034W        W54459  29.820  35.379   2.710
82035W        W54460  39.848  11.718  13.517
82036W        W54461  13.710  31.141  11.576
82037W        W54462   0.961  14.754   0.500
82038W        W54463  39.968  39.295  13.607
82039W        W54464  12.779   2.189   1.870
82040W        W54465   1.282   4.632   4.781
82041W        W54466  33.084  28.189   3.235
82042W        W54467  36.961  12.641   0.498
82043W        W54468  44.794  28.660  13.985
82044W        W54469   2.724  17.501   2.460
82045W        W54470  43.039  22.542  14.883
82046W        W54471   3.284  17.037   3.212
82047W        W54472  33.104  41.804   3.377
82048W        W54473  15.742   8.627  10.313
82049W        W54474   1.819   3.531  14.466
82050W        W54475  40.410   3.199   0.376
82051W        W54476  30.039   0.947  11.871
82052W        W54477  24.232  14.315  10.898
82053W        W54478  31.504   2.226   3.325
82054W        W54479  27.212   4.363   2.744
82055W        W54480  16.338  22.723   3.685
82056W        W54481  20.940  12.909   0.423
82057W        W54482  38.527  22.692  13.941
82058W        W54483  33.909  33.866  13.009
82059W        W54484  23.700  41.869  11.020
82060W        W54485  23.614  38.975  13.827
82061W        W54486   9.870  44.406  12.715
82062W        W54487  39.038  41.297  11.641
82063W        W54488  28.950  31.932   1.909
82064W        W54489  26.493  10.450  13.819
82065W        W54490   9.608  39.747   3.728
82066W        W54491   6.875  31.798  14.443
82067W        W54492  28.680  24.563  12.044
82068W        W54493   2.932  17.100  13.962
82069W        W54494  17.326   3.317   0.929
82070W        W54495   6.790  16.567   0.752
82071W        W54496   3.048   7.181   1.286
82072W        W54497   2.569  15.649   2.349
82073W        W54498  31.386  27.437  11.827
82074W        W54499  33.505  22.015   4.561
82075W        W54500  15.321  25.685   0.861
82076W        W54501  38.117  21.707  13.351
82077W        W54502  26.469  35.332   3.454
82078W        W54503  33.954  44.432  12.170
82079W        W54504  40.333  11.760   2.759
82080W        W54505  28.395  22.714  10.684
82081W        W54506  11.617  26.006   1.105
82082W        W54507  34.834  16.916  13.843
82083W        W54508   1.914  22.035  10.685
82084W        W54509  19.531   7.684   3.759
82085W        W54510  13.904  17.698  14.261
82086W        W54511   0.528  24.209  12.529
82087W        W54512   5.145   3.867  12.464
82088W        W54513   0.170  14.152   5.200
82089W        W54514  13.840  21.991  13.595
82090W        W54515  32.521  44.559  13.100
82091W        W54516  16.742  15.862  10.636
82092W        W54517  35.082   8.933   1.304
82093W        W54518   8.837   4.894   0.279
82094W        W54519   0.405  11.741   4.150
82095W        W54520  14.803  30.575  12.630
82096W        W54521  19.397   9.427   4.106
82097W        W54522  37.860  26.133   2.267
82098W        W54523  36.364   9.929  11.603
82099W        W54524  11.860   6.299  13.666
82100W        W54525  14.832  43.022  12.218
82101W        W54526  11.163  34.395   0.711
82102W        W54527  18.155  13.538   2.892
82103W        W54528  33.675  33.527   1.757
82104W        W54529  30.274  34.339  12.496
82105W        W54530  15.993  22.039  14.963
82106W        W54531  16.810  40.072   4.093
82107W        W54532   0.723   2.820  11.465
82108W        W54533  25.528   7.233  12.464
82109W        W54534  23.086  31.865   2.202
82110W        W54535  44.831  35.899  13.429
82111W        W54536  25.901  30.609   0.322
82112W        W54537   6.260  20.842  14.066
82113W        W54538  29.547  32.406  10.061
82114W        W54539  44.448  27.877   5.030
82115W        W54540  43.109   2.807   3.152
82116W        W54541  29.345  42.713  13.247
82117W        W54542  23.941  12.474  12.484
82118W        W54543   4.450  43.000  13.000
82119W        W54544   6.147   7.373  11.086
82120W        W54545  22.694   1.946  11.674
82121W        W54546  17.525  40.845   2.448
82122W        W54547  37.430  11.551   2.711
82123W        W54548  21.160  44.805  12.823
82124W        W54549  31.958  41.548   2.816
82125W        W54550   6.874  32.650  12.028
82126W        W54551  29.042  12.406  10.384
82127W        W54552   6.920  44.238  12.834
82128W        W54553  35.196   1.612   1.794
82129W        W54554  28.581  18.679   2.685
82130W        W54555  13.374  44.960   1.192
82131W        W54556  38.079  30.535   2.349
82132W        W54557  40.912  20.888   1.304
82133W        W54558  10.838  21.702   3.286
82134W        W54559   8.414   0.227   0.319
82135W        W54560  11.190   2.447  14.901
82136W        W54561  35.125  31.115  13.416
82137W        W54562  22.624  28.730  13.623
82138W        W54563   0.743  35.410  14.918
82139W        W54564   9.411  21.945  11.190
82140W        W54565   0.970  26.702  10.646
82141W        W54566  33.501  16.412   0.269
82142W        W54567  30.664   7.466  11.901
82143W        W54568  40.150  33.633  12.565
82144W        W54569  20.156  26.439  14.120
82145W        W54570   4.953  10.134   3.216
82146W        W54571  15.341   0.345   1.930
82147W        W54572  28.702  32.441  11.608
82148W        W54573  21.130  15.109   1.256
82149W        W54574  23.324  26.165   4.185
82150W        W54575  36.035  24.001  13.403
82151W        W54576  26.821  39.852  10.314
82152W        W54577  14.982   7.105   1.837
82153W        W54578  25.669  17.997   4.664
82154W        W54579  12.998   4.310   2.807
82155W        W54580  26.403   3.899  12.905
82156W        W54581   2.995  42.396   2.797
82157W        W54582   4.842  43.919   0.016
82158W        W54583  34.698   8.630   5.079
82159W        W54584   4.808   4.713  14.611
82160W        W54585  11.580   0.365   4.848
82161W        W54586   8.404  16.307   1.124
82162W        W54587   7.268  14.425   0.856
82163W        W54588  35.806   2.463   4.602
82164W        W54589  20.077   9.733  11.519
82165W        W54590  39.288  38.397   4.803
82166W        W54591  12.151   8.670   2.426
82167W        W54592  21.768  32.574  12.293
82168W        W54593   6.723  41.349   1.199
82169W        W54594  43.391  36.506  13.056
82170W        W54595  42.495  18.217   3.610
82171W        W54596  34.152  39.326   2.743
82172W        W54597  42.079  36.364   3.683
82173W        W54598  26.990  13.213  13.820
82174W        W54599  18.250  27.424  13.120
82175W        W54600  32.713  43.873  10.859
82176W        W54601  17.650  27.059   3.096
82177W        W54602   4.524  23.059  10.730
82178W        W54603  18.713  35.383  14.260
82179W        W54604   9.814   7.099   2.631
82180W        W54605  21.164   7.745  13.145
82181W        W54606  28.942  44.439   1.214
82182W        W54607   0.883  38.674   1.538
82183W        W54608  37.677  34.962   0.245
82184W        W54609  32.710  24.299  14.231
82185W        W54610  41.912   1.788   2.167
82186W        W54611  10.110  37.518   0.295
82187W        W54612  27.939  24.642  14.470
82188W        W54613  35.109  42.222   5.010
82189W        W54614  28.233   1.294  14.485
82190W        W54615   4.706   1.086   5.077
82191W        W54616  15.684  44.507   3.619
82192W        W54617  19.094  36.910   4.211
82193W        W54618  11.151  19.769  12.985
82194W        W54619  24.959  35.185   0.402
82195W        W54620  21.124  42.561   2.298
82196W        W54621   1.946   4.256   2.858
82197W        W54622  40.568  10.452   4.477
82198W        W54623  12.672  25.234   2.944
82199W        W54624  32.477   3.504  14.237
82200W        W54625  40.474  25.037  14.477
82201W        W54626  34.972  32.825  13.925
82202W        W54627  25.026  14.604  12.513
82203W        W54628  14.541  34.992   2.656
82204W        W54629   3.425  31.185   0.781
82205W        W54630  29.963  44.551   5.121
82206W        W54631  25.192  30.040  14.704
82207W        W54632   6.174  19.186   4.757
82208W        W54633   1.956   4.872  11.519
82209W        W54634  40.784   0.441  12.083
82210W        W54635  39.535  16.335  10.783
82211W        W54636  40.897  12.564  13.403
82212W        W54637  34.578  26.986   3.710
82213W        W54638  12.388   0.024   1.365
82214W        W54639  13.824  34.519  13.927
82215W        W54640  44.199   7.821  13.932
82216W        W54641  41.076   7.133  11.708
82217W        W54642  38.219  25.594   5.109
82218W        W54643  16.256  17.320   2.251
82219W        W54644  19.077  26.644  10.992
82220W        W54645  42.939   7.825  14.355
82221W        W54646  33.117   8.446   2.418
82222W        W54647  41.735  41.167  12.345
82223W        W54648  24.999  32.373   3.917
82224W        W54649   6.239  28.213  11.120
82225W        W54650  10.781  29.346   1.148
82226W        W54651  26.156  34.562   0.914
82227W        W54652  17.687   0.901   0.869
82228W        W54653  37.151  15.195   3.727
82229W        W54654  20.330  13.738   2.429
82230W        W54655   2.935  18.478   2.541
82231W        W54656  31.560  38.544   4.288
82232W        W54657  42.438  36.801   2.350
82233W        W54658  40.904  44.802   1.427
82234W        W54659  24.174  34.628   4.626
82235W        W54660  22.467  31.416   3.122
82236W        W54661  10.596  44.062  11.831
82237W        W54662  21.715   9.197  13.415
82238W        W54663  21.654  35.467  10.763
82239W        W54664   3.348  17.842  12.941
82240W        W54665  44.998  11.787  13.755
82241W        W54666  14.321  39.969   4.362
82242W        W54667  16.229   9.568  12.166
82243W        W54668  29.227  27.563   1.960
82244W        W54669  38.257  19.076  10.720
82245W        W54670  18.511  14.322  14.947
82246W        W54671  35.391  31.819   4.179
82247W        W54672  22.603  35.613   4.457
82248W        W54673  33.936  37.969   2.714
82249W        W54674  24.259  42.114  13.546
82250W        W54675  16.145  18.056   3.675
82251W        W54676  38.525   7.924  12.801
82252W        W54677  16.923  42.235   4.712
82253W        W54678  44.789  24.374   2.313
82254W        W54679  35.604  13.081  13.791
82255W        W54680  39.594   5.283   3.088
82256W        W54681  35.586  22.873  11.884
82257W        W54682  12.742  34.904   2.221
82258W        W54683   7.192   2.350  12.155
82259W        W54684   1.442  21.523   3.277
82260W        W54685  17.841  10.640  11.087
82261W        W54686  18.724  12.197   4.730
82262W        W54687  24.634  39.312   1.885
82263W        W54688   1.865  29.644  12.471
82264W        W54689   5.367  20.645  11.919
82265W        W54690  10.789  36.397   1.746
82266W        W54691  31.597   6.281  12.627
82267W        W54692  40.169  39.615  12.400
82268W        W54693  26.922   5.141  13.537
82269W        W54694  21.844  17.142  12.445
82270W        W54695  29.136   3.775  14.740
82271W        W54696  11.863  37.453  14.925
82272W        W54697  35.562  37.880  11.597
82273W        W54698  33.850  11.892   3.164
82274W        W54699  41.799   4.154   1.866
82275W        W54700  31.568  24.903   3.269
82276W        W54701  30.793  19.149  14.859
82277W        W54702   6.351  31.529   4.756
82278W        W54703  18.838  42.754  11.584
82279W        W54704  20.068  36.333   0.260
82280W        W54705  12.769  40.378   4.507
82281W        W54706  42.459   5.974   2.790
82282W        W54707  17.065  11.361   2.217
82283W        W54708   1.459   1.964   3.898
82284W        W54709  20.128  12.407  14.750
82285W        W54710  43.412   4.852  12.618
82286W        W54711  25.778  16.342   0.275
82287W        W54712  10.800  16.889   2.251
82288W        W54713  15.753  26.623  14.605
82289W        W54714  20.491  42.395  11.127
82290W        W54715  18.052  23.688   1.418
82291W        W54716  14.304  21.410   5.534
82292W        W54717  11.745  31.547  12.845
82293W        W54718  26.583   1.665  10.667
82294W        W54719  26.602   7.776   2.085
82295W        W54720   2.374  32.216  11.196
82296W        W54721  25.764  14.674  14.858
82297W        W54722  42.284   5.595   0.994
82298W        W54723  21.709  37.367  13.458
82299W        W54724   6.501  35.556   5.411
82300W        W54725  35.576  36.040   0.459
82301W        W54726  22.203  38.835   4.229
82302W        W54727  19.419  33.527  11.110
82303W        W54728  17.305  18.758   3.280
82304W        W54729  41.388   6.406  11.174
82305W        W54730  22.780  20.189   0.328
82306W        W54731   9.989  33.504   2.691
82307W        W54732  19.821  19.223  12.521
82308W        W54733  24.978  28.337   0.023
82309W        W54734  35.265  25.202   0.743
82310W        W54735  27.110  35.556   0.223
82311W        W54736  31.436  12.334  10.769
82312W        W54737  43.057  17.882  11.523
82313W        W54738  23.971  17.575  13.040
82314W        W54739  15.153  23.274  12.341
82315W        W54740   1.654  16.039   3.720
82316W        W54741   6.715  40.304  11.407
82317W        W54742  42.891  31.382   3.101
82318W        W54743  32.611  35.142   2.228
82319W        W54744   8.496  40.884  11.023
82320W        W54745  40.050  22.563  14.611
82321W        W54746  29.948   6.950   1.743
82322W        W54747  36.393  41.784  10.756
82323W        W54748  26.250  39.678   0.260
82324W        W54749  17.222  33.344  10.534
82325W        W54750  23.710  29.887   3.613
82326W        W54751  31.771   7.201   2.731
82327W        W54752  41.741  38.091  14.865
82328W        W54753  25.466  13.392  11.553
82329W        W54754  37.987  43.873   4.639
82330W        W54755  35.474  13.911   4.814
82331W        W54756  44.275  41.013  11.890
82332W        W54757  13.913  21.474   2.749
82333W        W54758  29.969   7.911   4.659
82334W        W54759  39.108  30.426   2.496
82335W        W54760  30.647  44.528   0.749
82336W        W54761  39.853  31.171   1.672
82337W        W54762   5.136  40.495  14.162
82338W        W54763  10.360   9.491  13.522
82339W        W54764  33.758   1.922  11.993
82340W        W54765   0.813  41.753  11.422
82341W        W54766  41.287  24.157   2.100
82342W        W54767  28.884  29.389   3.626
82343W        W54768   1.278  17.996  11.056
82344W        W54769   4.284  35.460   3.401
82345W        W54770  15.597  21.628  14.338
82346W        W54771  24.989  43.412   2.439
82347W        W54772  13.986   2.713   2.089
82348W        W54773  19.635  35.841  14.606
82349W        W54774  28.189   9.297   2.735
82350W        W54775  26.515  42.545   1.473
82351W        W54776   7.601   2.517   2.399
82352W        W54777  34.837  38.383  11.149
82353W        W54778  14.897  34.999   0.270
82354W        W54779  10.869   4.729  13.734
82355W        W54780  18.185  43.522   0.433
82356W        W54781  11.886  12.896   4.426
82357W        W54782  36.048  41.024   0.004
82358W        W54783  25.956  38.529  12.984
82359W        W54784  25.620  41.765   4.760
82360W        W54785  17.722  44.946  11.841
82361W        W54786  17.281  41.989  13.026
82362W        W54787  34.034  24.442  13.431
82363W        W54788  11.704  43.804   1.874
82364W        W54789   7.238  20.268   0.321
82365W        W54790  22.541  15.260  13.130
82366W        W54791  19.660  29.575  13.706
82367W        W54792  22.448  23.033   4.115
82368W        W54793  37.333  16.157   3.728
82369W        W54794  18.087  30.002  12.075
82370W        W54795  29.465  42.205   3.062
82371W        W54796  11.222   1.019  11.183
82372W        W54797  34.702  43.682   1.707
82373W        W54798  31.131  29.080  13.227
82374W        W54799  18.836  15.765   3.098
82375W        W54800  30.572  40.405  11.584
82376W        W54801   8.102   3.218  14.828
82377W        W54802  42.127  10.270   2.262
82378W        W54803  44.735  43.348   4.117
82379W        W54804  26.467   5.359  14.727
82380W        W54805  17.789  42.268   3.680
82381W        W54806  36.026  33.444   3.751
82382W        W54807  29.679  10.161  12.300
82383W        W54808  12.772  23.345  11.433
82384W        W54809   0.404  32.065  13.791
82385W        W54810  32.934  26.909  11.187
82386W        W54811  12.182   1.964   4.946
82387W        W54812  43.402  18.131  13.976
82388W        W54813  23.087  20.843  14.694
82389W        W54814  17.551   2.509   3.652
82390W        W54815  41.009  11.194   3.720
82391W        W54816  25.609  38.441   4.370
82392W        W54817  42.287  29.720   3.167
82393W        W54818  31.551  40.144   0.597
82394W        W54819  36.440   5.979  13.397
82395W        W54820   3.794  28.468   0.074
82396W        W54821  15.185  38.281   3.905
82397W        W54822  27.381  10.280  14.501
82398W        W54823  29.559  28.019   0.191
82399W        W54824  12.278  43.472  10.636
82400W        W54825  13.554  19.589   1.155
82401W        W54826  38.053  44.282   2.218
82402W        W54827  19.507  43.845   4.009
82403W        W54828  10.938  35.202   3.339
82404W        W54829  15.135  10.091  13.805
82405W        W54830  25.613  41.705  14.899
82406W        W54831   4.759  29.178   2.742
82407W        W54832  22.601   2.940  13.439
82408W        W54833  42.900  38.970  13.106
82409W        W54834   3.240   9.196  14.966
82410W        W54835  30.998  25.996  12.885
82411W        W54836  14.467  22.310   3.618
82412W        W54837   6.835  29.039  14.306
82413W        W54838  12.123  16.715   4.103
82414W        W54839  15.355  44.512  13.604
82415W        W54840  34.013   8.912  13.517
82416W        W54841   3.758  37.500   4.098
82417W        W54842  21.772  36.989  11.562
82418W        W54843   9.902  17.099   3.200
82419W        W54844  44.492  32.939  14.264
82420W        W54845  22.592   0.867   0.695
82421W        W54846   7.040   5.163   0.843
82422W        W54847  39.761  43.947  11.844
82423W        W54848   5.332  14.871   1.698
82424W        W54849  11.146  29.658  13.442
82425W        W54850   9.255  18.548   3.205
82426W        W54851  15.166   6.413   2.196
82427W        W54852   2.843  35.515  12.451
82428W        W54853   6.150  34.176  11.968
82429W        W54854  27.745  17.208  11.718
82430W        W54855  17.731   0.201   4.631
82431W        W54856   1.784  36.359  13.719
82432W        W54857   5.805  15.961   4.519
82433W        W54858  44.820   7.920   4.824
82434W        W54859  30.420   3.333   0.880
82435W        W54860  29.122  38.828   1.199
82436W        W54861  21.040  27.821  13.596
82437W        W54862  21.610  23.444  11.000
82438W        W54863   4.749   3.300  12.400
82439W        W54864  32.083   8.420  13.881
82440W        W54865  11.945  10.300   2.810
82441W        W54866  30.951  27.480  11.544
82442W        W54867  36.629  42.919  13.538
82443W        W54868  43.065   5.211   2.789
82444W        W54869   2.029   1.926   4.603
82445W        W54870  19.299   2.414  12.558
82446W        W54871  18.748  23.670  12.549
82447W        W54872  17.479  39.052   3.069
82448W        W54873   9.433  27.337  12.063
82449W        W54874  38.591   6.886  11.475
82450W        W54875   4.168  41.102  14.404
82451W        W54876  11.746  21.514  12.040
82452W        W54877   8.739  18.041   1.467
82453W        W54878  29.927  43.063   2.792
82454W        W54879  32.935   0.882  10.514
82455W        W54880  42.173  20.165  11.415
82456W        W54881   9.319  24.584   2.152
82457W        W54882   7.237   3.233  13.618
82458W        W54883  39.190  25.935  14.846
82459W        W54884   9.650  15.026  11.504
82460W        W54885  39.536  13.344  14.431
82461W        W54886   4.396   3.184  11.485
82462W        W54887  17.964  12.239   2.490
82463W        W54888  42.932  12.713   2.117
82464W        W54889  32.072  15.932   2.794
82465W        W54890  11.648  17.081  10.629
82466W        W54891  12.178   0.275  11.994
82467W        W54892   0.941  43.251  14.334
82468W        W54893  14.429  32.713  11.216
82469W        W54894  35.465  39.975   3.659
82470W        W54895  14.609  10.783   2.210
82471W        W54896  15.657  34.342   4.011
82472W        W54897  39.774  30.699  12.412
82473W        W54898  41.081  37.459  12.476
82474W        W54899  26.169  25.615   0.877
82475W        W54900  12.818  38.337  13.943
82476W        W54901   6.444  26.509  10.512
82477W        W54902   5.135  21.983  11.890
82478W        W54903  35.376  16.171  12.710
82479W        W54904  35.308  29.448   1.895
82480W        W54905  40.650   1.252  10.769
82481W        W54906  28.607  32.367   0.874
82482W        W54907  25.568  33.294  11.019
82483W        W54908  33.980   6.455  13.359
82484W        W54909   5.636  31.676  14.872
82485W        W54910  22.144  11.625  14.364
82486W        W54911  13.167  27.202   0.645
82487W        W54912  23.075  41.569   4.176
82488W        W54913  33.505  23.524   3.722
82489W        W54914  17.856  23.985  14.366
82490W        W54915  13.349  18.539  13.462
82491W        W54916   7.781  30.971   1.509
82492W        W54917  26.882  43.348  12.467
82493W        W54918  39.737  35.073   2.628
82494W        W54919   1.152   4.112   1.332
82495W        W54920  26.236  36.033   1.457
82496W        W54921  28.412  11.502   4.234
82497W        W54922  44.986  26.389  10.701
82498W        W54923   5.468  19.285   1.745
82499W        W54924  42.364  37.399   1.411
82500W        W54925  27.980   6.160  12.417
82501W        W54926  33.603   9.692  12.942
82502W        W54927  33.148   3.903  10.427
82503W        W54928  35.811   6.901  12.601
82504W        W54929  24.216  37.695  10.687
82505W        W54930  10.806   9.414  11.455
82506W        W54931  40.309  28.559   3.612
82507W        W54932  39.111  35.627   1.245
82508W        W54933   3.269  43.804   3.739
82509W        W54934  23.560   1.458   2.022
82510W        W54935  15.745   7.423  13.518
82511W        W54936   4.198  31.511   4.504
82512W        W54937  15.794   9.954   4.084
82513W        W54938  12.212  29.161   2.273
82514W        W54939  11.817  11.177  10.051
82515W        W54940  29.576  20.061  11.575
82516W        W54941  13.273   7.434   2.449
82517W        W54942   3.172  15.559  11.184
82518W        W54943   1.990  41.587   0.821
82519W        W54944  34.077  17.534   2.834
82520W        W54945  15.170   9.411  14.561
82521W        W54946  35.346   2.905  14.347
82522W        W54947  30.402  14.268   2.768
82523W        W54948  19.859  19.229  13.434
82524W        W54949   5.021  38.055   3.930
82525W        W54950  37.718  40.309  14.846
82526W        W54951  42.884  32.633  12.431
82527W        W54952   2.655  24.389   3.351
82528W        W54953  17.145  15.828  13.368
82529W        W54954  30.070  16.363  11.511
82530W        W54955   8.804  18.067  11.613
82531W        W54956  33.801  22.450  10.673
82532W        W54957  25.611  23.510  11.982
82533W        W54958  13.239  36.638   3.648
82534W        W54959  33.405  15.697   3.480
82535W        W54960   2.411  22.158   0.424
82536W        W54961  42.823  40.312   0.537
82537W        W54962  40.839  18.704  12.865
82538W        W54963  21.083  29.893   2.687
82539W        W54964   1.892  31.570  10.522
82540W        W54965  12.396  14.128   0.346
82541W        W54966   3.843  37.097  11.396
82542W        W54967  31.611   6.820   3.127
82543W        W54968  29.604  31.136  12.024
82544W        W54969   5.858  26.548  13.333
82545W        W54970  14.337  42.282  11.319
82546W        W54971  32.349   4.423   2.029
82547W        W54972  13.138  20.688  10.448
82548W        W54973  31.939  14.493  14.890
82549W        W54974  15.686  25.575   4.146
82550W        W54975   6.195  30.361  13.438
82551W        W54976  25.822  42.597  12.117
82552W        W54977  12.335  36.376   3.183
82553W        W54978   7.395   0.983   4.610
82554W        W54979  33.614   3.702   4.680
82555W        W54980  13.223  19.998   1.128
82556W        W54981   9.439   5.206  13.389
82557W        W54982  21.643  44.374  13.379
82558W        W54983  24.258  40.486   0.218
82559W        W54984  34.963  23.154  10.985
82560W        W54985  42.236   9.835  13.942
82561W        W54986  35.991  43.995   3.650
82562W        W54987   7.718  26.599   0.352
82563W        W54988  31.258   5.136   2.225
82564W        W54989  19.626   5.925  12.686
82565W        W54990   1.508  34.039  14.095
82566W        W54991   2.379  33.943  11.734
82567W        W54992  20.754  20.521  11.590
82568W        W54993  31.132  22.288   3.257
82569W        W54994  19.510   3.789  10.801
82570W        W54995  13.669  29.062   3.697
82571W        W54996   0.785  33.197   1.071
82572W        W54997  43.709  36.927   3.342
82573W        W54998   7.140   7.168   1.927
82574W        W54999  31.624  25.243   2.425
82575W        W55000  38.514  42.488  14.366
82576W        W55001   7.259  26.907  13.572
82577W        W55002  40.502  22.745  10.384
82578W        W55003   5.202  26.671   4.223
82579W        W55004   7.640  33.349   2.348
82580W        W55005  36.875   0.777   0.200
82581W        W55006  40.312  24.555  13.568
82582W        W55007  11.336  26.923   0.700
82583W        W55008  29.949  38.163  13.965
82584W        W55009   8.454  10.418   2.286
82585W        W55010   3.806  34.365  13.255
82586W        W55011   5.809  20.837  14.976
82587W        W55012   8.189  37.392  12.137
82588W        W55013  45.000  24.690  10.398
82589W        W55014  19.024   0.540  13.397
82590W        W55015   7.157  27.496   0.249
82591W        W55016  24.688  12.783  14.798
82592W        W55017  41.412  26.719   3.674
82593W        W55018  28.193  16.308  12.043
82594W        W55019   3.458  34.585  14.515
82595W        W55020  10.753  40.334   4.933
82596W        W55021  39.809  34.860   3.535
82597W        W55022  43.950  40.829  10.809
82598W        W55023  26.572  28.410   0.671
82599W        W55024  30.912  19.069  11.268
82600W        W55025  21.034  12.040  12.211
82601W        W55026   9.242  36.798   4.971
82602W        W55027   0.182  21.256  13.515
82603W        W55028   7.111  40.339   3.210
82604W        W55029  14.079   1.833   3.404
82605W        W55030  36.807  21.593   2.343
82606W        W55031  18.740  15.538   2.655
82607W        W55032  43.835   7.329  12.207
82608W        W55033  31.730  35.172   0.484
82609W        W55034  12.647  35.060   2.932
82610W        W55035  21.753  28.359  11.777
82611W        W55036   6.434  19.696   0.215
82612W        W55037  33.006  16.481   1.504
82613W        W55038  39.419  31.861  10.359
82614W        W55039   5.141  30.597  10.772
82615W        W55040  29.555  41.835  12.917
82616W        W55041  14.765   5.009   0.459
82617W        W55042  40.776  13.617   0.212
82618W        W55043   9.291  25.636   2.880
82619W        W55044  11.793  29.479  14.573
82620W        W55045  20.392   7.425  11.553
82621W        W55046  23.146  35.845   0.304
82622W        W55047   3.471   2.788  13.692
82623W        W55048  21.233  30.571  13.944
82624W        W55049  22.804   1.918  14.018
82625W        W55050  36.098  14.284  13.779
82626W        W55051  43.303  14.068   2.233
82627W        W55052  19.994  24.101  13.755
82628W        W55053   4.679  44.468   4.583
82629W        W55054  18.629  30.457  12.301
82630W        W55055  28.935  27.752   0.735
82631W        W55056  18.812   7.336  12.519
82632W        W55057   7.303  14.077  10.740
82633W        W55058  15.891  26.475   9.969
82634W        W55059  13.619  38.059  10.718
82635W        W55060  43.038   4.943  10.699
82636W        W55061   5.384  29.777   2.809
82637W        W55062  15.896   0.964   1.576
82638W        W55063  18.877  35.112   1.391
82639W        W55064  30.500  39.986  14.852
82640W        W55065  22.450  28.117   0.235
82641W        W55066  28.826   3.522  11.158
82642W        W55067  18.527  40.041  11.612
82643W        W55068  25.199  30.669   4.788
82644W        W55069  38.896   7.209   1.186
82645W        W55070  38.060   5.203  13.252
82646W        W55071  40.580  31.099   2.800
82647W        W55072   8.583  23.022   4.148
82648W        W55073  34.158   6.354  10.885
82649W        W55074  38.396  23.148  13.711
82650W        W55075  23.213  20.014   2.708
82651W        W55076  26.980  42.846   1.853
82652W        W55077  33.135  21.277   3.388
82653W        W55078  12.776  36.376  13.578
82654W        W55079  25.911  43.786   1.697
82655W        W55080   1.244  31.642   3.911
82656W        W55081  29.939  26.668  10.955
82657W        W55082  18.854   0.305  11.003
82658W        W55083   3.648  23.909   1.886
82659W        W55084  43.336   6.817   0.262
82660W        W55085  38.800   2.921   0.858
82661W        W55086  22.204  37.562  10.622
82662W        W55087   4.337   8.821   1.828
82663W        W55088   2.497  25.300  13.094
82664W        W55089  40.311  14.647  13.135
82665W        W55090  19.944   1.064  10.900
82666W        W55091  20.658   8.936   1.339
82667W        W55092  16.288   5.461  12.166
82668W        W55093   7.412   6.771   3.636
82669W        W55094   5.539  42.105  11.624
82670W        W55095   1.275  31.627   2.041
82671W        W55096   8.391  12.141   4.506
82672W        W55097  20.495  15.712  10.629
82673W        W55098   6.796   2.300  14.737
82674W        W55099   6.719  19.726   0.893
82675W        W55100  27.537  23.485   3.176
82676W        W55101  10.697  38.164  12.608
82677W        W55102  35.099   1.179   2.678
82678W        W55103  32.221  42.835  12.372
82679W        W55104  18.104  17.535  11.676
82680W        W55105  19.343   8.312   3.713
82681W        W55106   0.010  19.148   4.193
82682W        W55107   4.487   1.772   4.128
82683W        W55108  22.040  41.510  14.971
82684W        W55109   7.695   1.683  11.511
82685W        W55110  42.495   3.885  12.423
82686W        W55111  10.429   8.203  12.478
82687W        W55112  24.707  21.755   1.897
82688W        W55113   2.816  19.705   3.853
82689W        W55114  11.122  24.484  14.517
82690W        W55115  23.262  24.518   4.670
82691W        W55116   4.384   4.312  11.497
82692W        W55117  29.116  26.456  13.136
82693W        W55118  11.803   4.016   4.066
82694W        W55119  14.620   9.548   0.762
82695W        W55120  43.294   4.221  11.197
82696W        W55121  19.827  30.078   4.765
82697W        W55122   9.079  17.220   4.682
82698W        W55123  32.167  12.844  14.438
82699W        W55124  39.916  10.639   1.020
82700W        W55125  43.016  22.019   2.341
82701W        W55126  25.198  11.612  11.168
82702W        W55127  27.975   3.270  12.167
82703W        W55128  21.303  38.527  12.986
82704W        W55129  25.532  32.782  10.810
82705W        W55130  15.685  12.149  12.465
82706W        W55131   3.334   3.334  10.102
82707W        W55132  27.409   7.274   2.990
82708W        W55133   8.281   3.248   3.759
82709W        W55134   6.176   5.618  11.589
82710W        W55135  17.648   3.271   1.904
82711W        W55136   7.469   9.500  11.043
82712W        W55137  20.114   5.989  12.884
82713W        W55138  35.172  28.166   3.845
82714W        W55139  18.744   2.997   3.374
82715W        W55140   6.766  24.944   0.384
82716W        W55141  26.674  34.875   4.742
82717W        W55142  31.590  34.603  10.644
82718W        W55143  25.783   1.725  12.363
82719W        W55144  17.786  27.666  13.312
82720W        W55145  22.845  23.606  10.504
82721W        W55146  25.483   0.994  13.453
82722W        W55147  13.769  17.566  12.325
82723W        W55148  15.308  37.104  13.928
82724W        W55149   2.750  36.545  11.898
82725W        W55150   5.779  41.434  12.127
82726W        W55151  44.380  22.231   1.099
82727W        W55152   0.767  33.711   3.261
82728W        W55153   8.395  12.264  11.025
82729W        W55154  23.181  16.165  13.935
82730W        W55155  26.492  38.354  11.158
82731W        W55156   3.859  29.460   3.827
82732W        W55157  41.573  39.917  13.476
82733W        W55158  19.599  30.197   1.818
82734W        W55159   1.865  22.519  10.918
82735W        W55160  10.270   4.267   2.449
82736W        W55161  26.025  44.946   4.206
82737W        W55162  35.021  34.603   4.672
82738W        W55163  13.735  33.523  12.441
82739W        W55164  43.500  29.359   3.694
82740W        W55165  41.176  42.870  10.306
82741W        W55166  37.755  20.294  13.623
82742W        W55167  10.084  15.363   2.876
82743W        W55168   7.487  13.132  14.024
82744W        W55169  23.039  25.648   0.849
82745W        W55170  37.295  20.076  13.795
82746W        W55171   8.422   2.948  14.466
82747W        W55172  30.626  17.132  14.414
82748W        W55173  41.491  36.476   0.193
82749W        W55174  13.105  33.561  10.826
82750W        W55175   5.225  39.611   0.804
82751W        W55176   6.744  11.778   4.750
82752W        W55177  29.064  41.744   2.750
82753W        W55178   3.718  14.246  11.526
82754W        W55179   1.306  19.617  14.996
82755W        W55180   3.254  39.550  12.943
82756W        W55181  28.136   4.263  12.054
82757W        W55182  17.405  22.741  10.031
82758W        W55183  18.303  19.298   0.353
82759W        W55184  40.744   3.821   4.267
82760W        W55185  35.640  23.535   3.285
82761W        W55186  12.865  38.960   0.935
82762W        W55187  39.153   3.324  14.896
82763W        W55188  43.817  38.515  11.470
82764W        W55189  13.650  38.486  12.120
82765W        W55190  39.374   1.054   1.451
82766W        W55191  26.512  14.577  11.486
82767W        W55192  13.667  29.227   4.876
82768W        W55193   8.000  12.582  13.131
82769W        W55194  24.876  17.208   2.258
82770W        W55195   0.322  20.729   0.257
82771W        W55196  19.174  40.192  11.057
82772W        W55197  42.783  26.925  14.835
82773W        W55198  19.578   3.322   1.508
82774W        W55199  38.374   7.866   0.776
82775W        W55200   9.573  40.948   4.400
82776W        W55201  44.658  24.405  12.537
82777W        W55202  19.523  20.849   3.167
82778W        W55203  19.714  23.941  14.947
82779W        W55204  23.264  35.880   3.163
82780W        W55205  22.120  12.413  11.369
82781W        W55206  16.845  28.861   4.117
82782W        W55207   4.166  29.817  12.723
82783W        W55208  21.203  14.610   1.450
82784W        W55209   4.249  16.559   2.137
82785W        W55210  35.276  44.124  10.655
82786W        W55211   6.404  30.473   0.335
82787W        W55212  35.325  16.676  14.426
82788W        W55213  29.458  42.501  10.411
82789W        W55214  16.892  26.463   5.165
82790W        W55215  12.260  18.189  14.948
82791W        W55216  28.066   4.654  12.694
82792W        W55217  44.840  44.453  14.566
82793W        W55218  40.747  22.536   3.590
82794W        W55219   5.252  13.167  11.759
82795W        W55220   8.937  40.074  13.928
82796W        W55221  26.175  21.132  11.123
82797W        W55222  34.433  31.980  13.993
82798W        W55223  31.305  10.280  14.402
82799W        W55224  35.361  27.642   2.867
82800W        W55225  17.247  38.080   0.425
82801W        W55226  44.858  43.462   1.159
82802W        W55227   9.582  40.134   1.960
82803W        W55228  24.646  41.442  14.295
82804W        W55229  17.089   1.188   2.215
82805W        W55230  13.769  13.677   1.066
82806W        W55231  36.017  42.999   3.716
82807W        W55232  13.108  41.844  14.790
82808W        W55233  13.178  29.363   2.322
82809W        W55234  23.761  38.907   3.231
82810W        W55235  26.934   2.510   3.141
82811W        W55236   5.964  29.832   1.312
82812W        W55237   4.706  14.618   0.525
82813W        W55238  23.617  11.122   0.731
82814W        W55239  33.662  31.886   4.156
82815W        W55240  13.030   7.709   0.797
82816W        W55241  11.698  25.187  11.993
82817W        W55242  33.702  26.817  10.926
82818W        W55243  12.916  25.693   3.765
82819W        W55244  42.774  19.218   0.277
82820W        W55245   1.883  31.583  12.844
82821W        W55246   7.298  29.051  14.806
82822W        W55247   9.594  29.081   4.130
82823W        W55248  30.339   2.839   0.765
82824W        W55249  43.230  29.182  13.914
82825W        W55250   6.165   1.299   4.873
82826W        W55251  13.339  13.792   1.334
82827W        W55252  17.212  14.533   2.821
82828W        W55253  36.121  24.180   5.007
82829W        W55254  12.497  12.760  13.323
82830W        W55255   9.736  26.937   2.878
82831W        W55256  23.297  44.895   0.941
82832W        W55257   1.939   9.317  13.521
82833W        W55258  36.647  34.740   4.652
82834W        W55259  21.174   8.684  14.895
82835W        W55260  38.388  33.462   0.476
82836W        W55261  13.500   2.059   4.532
82837W        W55262  26.461   6.059   3.750
82838W        W55263  29.093  21.166   4.277
82839W        W55264  33.670  24.806  12.446
82840W        W55265  12.230   7.840  11.493
82841W        W55266   0.715  33.871   2.763
82842W        W55267  28.173   8.657   3.137
82843W        W55268  26.680  17.209   0.816
82844W        W55269  38.281  20.177  12.619
82845W        W55270  43.923  32.122   2.010
82846W        W55271  40.030  18.069   2.765
82847W        W55272   6.453  19.064  14.997
82848W        W55273  21.782  37.553   1.835
82849W        W55274  38.734  26.624   0.252
82850W        W55275  39.017  34.400   0.719
82851W        W55276  42.933   1.864   0.599
82852W        W55277  39.962   3.481   0.383
82853W        W55278  34.010  41.074   4.326
82854W        W55279  34.556  15.866  14.628
82855W        W55280  35.605  11.399   3.118
82856W        W55281  37.910  18.467  12.476
82857W        W55282  23.006  41.058  14.117
82858W        W55283   8.977  37.994  10.946
82859W        W55284  24.764  44.923  10.722
82860W        W55285  19.031  37.531  11.900
82861W        W55286  18.716  29.357   5.011
82862W        W55287  31.387  39.888  10.227
82863W        W55288   5.522  43.474   1.949
82864W        W55289   4.901  22.637  12.111
82865W        W55290  41.958  11.449  10.904
82866W        W55291  14.462  10.320   4.183
82867W        W55292   9.916  10.865  14.971
82868W        W55293  14.904  34.580  10.092
82869W        W55294  35.095   1.918   3.204
82870W        W55295  33.879  13.793  11.652
82871W        W55296  22.280  11.281  10.578
82872W        W55297  11.104  35.552   2.295
82873W        W55298   3.679  39.973   3.194
82874W        W55299  40.528  30.298  11.479
82875W        W55300   9.651  25.054  11.102
82876W        W55301  24.580   3.326  13.432
82877W        W55302  42.881  37.205  13.841
82878W        W55303  42.210   3.744   4.224
82879W        W55304  18.622  14.757  12.301
82880W        W55305  31.437  41.519   2.685
82881W        W55306  17.625  32.960  12.921
82882W        W55307  10.650  43.379  12.410
82883W        W55308  37.333  27.732   0.695
82884W        W55309   3.287   6.400  13.264
82885W        W55310  21.076  30.563  10.291
82886W        W55311  37.030   8.120  11.715
82887W        W55312  25.618  25.424   3.239
82888W        W55313  44.521  21.709  14.776
82889W        W55314   1.891   0.842  11.439
82890W        W55315   1.523  40.961   2.640
82891W        W55316  15.158  32.416   1.319
82892W        W55317  30.564  25.516   4.144
82893W        W55318  24.815  44.805   3.617
82894W        W55319  29.202  38.692  10.179
82895W        W55320   9.626  16.173   0.497
82896W        W55321  39.802   1.229  11.150
82897W        W55322   9.651  34.422  12.292
82898W        W55323  12.040  43.746   0.320
82899W        W55324  11.715  11.847   1.479
82900W        W55325  12.246  43.903   2.793
82901W        W55326   2.417   4.779   1.359
82902W        W55327  44.311  17.242   4.161
82903W        W55328  28.704  21.054  13.910
82904W        W55329  44.225  11.923  10.138
82905W        W55330  24.141  15.059   0.946
82906W        W55331   6.924  26.304  11.174
82907W        W55332  17.016  35.583  13.367
82908W        W55333  19.981  12.084  11.651
82909W        W55334  37.884   5.878   1.156
82910W        W55335  29.021   1.832   4.388
82911W        W55336   1.718  36.936  14.370
82912W        W55337  43.349  13.335   2.500
82913W        W55338  11.891  11.508   3.310
82914W        W55339  43.999  40.318  13.590
82915W        W55340  37.582  21.178   3.783
82916W        W55341  15.190   5.787   0.473
82917W        W55342   1.301  39.452  10.795
82918W        W55343   8.491  13.619   1.793
82919W        W55344  14.708   2.662   0.958
82920W        W55345  20.157   1.273  14.424
82921W        W55346  22.513  10.588   5.486
82922W        W55347  32.717  15.202   1.340
82923W        W55348  34.666  37.537  14.569
82924W        W55349  18.890  11.192  12.619
82925W        W55350  26.021  28.047   1.794
82926W        W55351  22.885  25.038   5.007
82927W        W55352  22.825  22.507  12.906
82928W        W55353  26.205  12.559  14.879
82929W        W55354   0.387  19.530   4.226
82930W        W55355   7.135   5.775   2.941
82931W        W55356  32.321  19.279  13.492
82932W        W55357  17.021  15.222  14.308
82933W        W55358  27.701  11.254   2.358
82934W        W55359  26.084  23.475   0.261
82935W        W55360  20.745  33.187  14.891
82936W        W55361  21.576  24.288  13.259
82937W        W55362  32.280  23.260   2.508
82938W        W55363   3.216  16.724  13.245
82939W        W55364  26.219  20.421   1.939
82940W        W55365  44.976  26.451  13.440
82941W        W55366  27.499  42.513   3.683
82942W        W55367  14.408  35.059  13.202
82943W        W55368  12.855  40.888  11.517
82944W        W55369  33.702  11.112   3.341
82945W        W55370   0.431  33.075  11.924
82946W        W55371  42.852  17.794  14.502
82947W        W55372  30.416  26.267   4.751
82948W        W55373  18.135  18.230   4.698
82949W        W55374  18.041  17.439   2.241
82950W        W55375  38.654  34.588  14.738
82951W        W55376   0.969  21.713  12.613
82952W        W55377  14.207   7.918  13.943
82953W        W55378  24.659   4.207  13.167
82954W        W55379  36.023   5.953   0.327
82955W        W55380  18.728  34.402  12.390
82956W        W55381  17.743  29.115   4.935
82957W        W55382  21.045  36.713   2.176
82958W        W55383   1.548  43.324  13.608
82959W        W55384   9.689  33.082   2.954
82960W        W55385  20.054   1.063  12.186
82961W        W55386  34.065  15.301   2.875
82962W        W55387  26.666   3.409   0.418
82963W        W55388  44.525   8.624   1.810
82964W        W55389   2.135  19.103  13.963
82965W        W55390  34.846  13.543  13.875
82966W        W55391  12.643  17.843  10.951
82967W        W55392   6.142  41.988   4.482
82968W        W55393   8.287  41.589   1.838
82969W        W55394  11.257   2.937   1.957
82970W        W55395  38.239   6.220   0.148
82971W        W55396  37.391  32.830  10.435
82972W        W55397  20.501  44.510   4.773
82973W        W55398  21.831  17.064   3.098
82974W        W55399  27.930  18.496  12.404
82975W        W55400  33.077  15.778  11.956
82976W        W55401   3.779  31.011   3.306
82977W        W55402  20.628  24.370  10.720
82978W        W55403  44.492   8.271   5.030
82979W        W55404  20.032  28.342  12.391
82980W        W55405  20.269  14.847   3.680
82981W        W55406  26.986  44.421   0.558
82982W        W55407  25.091  37.848  11.183
82983W        W55408  11.348  24.413  14.986
82984W        W55409  41.184  13.063   3.361
82985W        W55410  19.160  21.969   3.255
82986W        W55411  41.940   6.865  10.440
82987W        W55412  43.722  20.022   0.508
82988W        W55413  29.685   1.078  14.413
82989W        W55414  23.505  40.075  14.694
82990W        W55415   3.638  16.961  14.750
82991W        W55416  10.179  42.342   0.881
82992W        W55417  39.093   9.710   1.374
82993W        W55418  42.474   2.788   0.938
82994W        W55419   1.811  12.176   3.296
82995W        W55420  23.634  10.668   1.422
82996W        W55421  34.982  16.613  14.822
82997W        W55422   2.260  30.122  14.446
82998W        W55423   8.110  35.358  14.222
82999W        W55424   8.908  17.567   3.701
83000W        W55425  40.334  40.975   2.868
83001W        W55426  36.863   2.177   0.729
83002W        W55427  28.035  23.141  10.671
83003W        W55428   1.796  23.461  14.875
83004W        W55429  43.324  13.858   0.961
83005W        W55430  27.828  34.673   1.987
83006W        W55431   2.537  26.888  10.449
83007W        W55432  32.520  34.464  10.686
83008W        W55433  22.158   1.874  13.418
83009W        W55434  35.082   0.393  13.998
83010W        W55435  32.146   2.017   1.648
83011W        W55436   3.620   8.962  12.124
83012W        W55437  18.042   3.503   1.659
83013W        W55438  27.661  21.899   4.813
83014W        W55439  21.965   5.362   4.221
83015W        W55440  40.047   2.867  14.049
83016W        W55441  41.089  14.680   1.807
83017W        W55442  43.262  42.317   2.701
83018W        W55443   8.318   1.493  13.810
83019W        W55444   0.158  30.102   0.262
83020W        W55445  13.052   1.387   0.462
83021W        W55446  38.077  30.546   5.113
83022W        W55447  41.320  28.465   0.922
83023W        W55448  17.989   9.411  12.886
83024W        W55449   5.484  20.773  11.431
83025W        W55450  28.585  17.319   2.809
83026W        W55451  18.770  39.864   4.540
83027W        W55452   4.761   1.124  12.888
83028W        W55453   0.010   5.059   1.899
83029W        W55454   1.608  16.618   0.936
83030W        W55455  13.134  14.442  11.216
83031W        W55456  25.268  14.679   1.766
83032W        W55457   1.007   7.741   2.950
83033W        W55458  27.382  43.071   0.463
83034W        W55459   3.532  20.090  13.979
83035W        W55460   3.085  36.449  10.562
83036W        W55461  11.816  38.480  13.352
83037W        W55462  29.917  27.450  14.766
83038W        W55463   4.622  37.584  10.856
83039W        W55464  26.045   8.376  12.163
83040W        W55465  44.741   8.827  13.473
83041W        W55466  17.348  28.372  14.908
83042W        W55467  19.127  42.537   0.248
83043W        W55468  22.006  12.702   4.548
83044W        W55469  19.058  22.277   1.695
83045W        W55470  43.915  23.803   0.508
83046W        W55471  34.666   6.631  13.931
83047W        W55472   7.398  19.278  13.964
83048W        W55473   9.541  37.484  14.458
83049W        W55474  35.409  40.796   0.287
83050W        W55475  34.339  31.006  11.170
83051W        W55476  35.550   2.708  11.906
83052W        W55477   0.508  42.865  12.501
83053W        W55478  43.351  44.035  13.505
83054W        W55479  14.373  34.770   4.209
83055W        W55480  17.010  21.186  13.396
83056W        W55481  23.470   4.281   0.850
83057W        W55482  34.441  12.706  12.007
83058W        W55483   0.645   3.081   5.147
83059W        W55484   1.456   3.249   4.449
83060W        W55485  12.286  24.759   0.877
83061W        W55486  25.155  21.992  13.213
83062W        W55487  18.683   7.171   4.594
83063W        W55488  16.604  43.835   2.314
83064W        W55489  10.294  19.625   4.715
83065W        W55490  25.439  21.691   0.005
83066W        W55491  16.303   7.567  13.012
83067W        W55492   8.892  41.448   2.802
83068W        W55493  36.102  17.036   1.386
83069W        W55494  41.784  29.945   4.323
83070W        W55495  11.007  10.587  12.829
83071W        W55496  26.609  29.218   1.895
83072W        W55497   9.502  35.489  13.687
83073W        W55498   2.029  19.181   1.352
83074W        W55499  13.268  25.374  14.904
83075W        W55500   6.715   2.148   4.103
83076W        W55501  28.462  28.990  11.612
83077W        W55502  27.434   5.922  11.681
83078W        W55503  38.986  33.181  12.409
83079W        W55504  20.749   7.641   2.249
83080W        W55505  16.870  37.971   0.061
83081W        W55506  32.401   9.924  14.936
83082W        W55507  37.450   5.304   0.929
83083W        W55508  36.315  43.266   3.356
83084W        W55509  20.817   3.943  12.584
83085W        W55510   1.796  40.858  10.627
83086W        W55511  34.090  39.371   3.247
83087W        W55512  38.298  13.832   2.880
83088W        W55513  40.036   1.351   3.033
83089W        W55514  43.250   9.096   1.808
83090W        W55515  35.001  18.651  14.768
83091W        W55516   4.229   4.103   4.668
83092W        W55517   4.358   2.227  14.522
83093W        W55518  38.692  33.978  14.243
83094W        W55519  19.990  43.425   4.770
83095W        W55520   3.043  18.098  13.768
83096W        W55521  37.496  44.544   3.203
83097W        W55522  11.436   9.218   1.481
83098W        W55523  41.277  29.513   3.003
83099W        W55524   4.926   6.726   0.445
83100W        W55525   4.750   2.674  12.951
83101W        W55526  14.649  37.960  14.945
83102W        W55527  34.498  37.850   4.484
83103W        W55528   2.779  18.805   0.376
83104W        W55529  31.414  44.542   3.795
83105W        W55530  39.647  20.133   2.917
83106W        W55531  31.782  32.219  14.874
83107W        W55532  41.425  42.462  13.111
83108W        W55533  37.989  17.590  13.988
83109W        W55534  43.220  16.158  10.558
83110W        W55535  38.963   4.667   1.742
83111W        W55536  28.933  28.548   1.805
83112W        W55537   7.454  38.910  14.880
83113W        W55538  30.915   2.452  10.621
83114W        W55539  17.605  13.345  10.618
83115W        W55540  22.552  30.765  13.886
83116W        W55541  31.888  40.850  10.702
83117W        W55542   4.338  30.493  13.323
83118W        W55543   6.199  43.888   1.520
83119W        W55544  30.420  26.641   3.278
83120W        W55545  33.864  14.681   2.185
83121W        W55546  31.634  38.501  14.761
83122W        W55547  42.639   7.372   1.002
83123W        W55548  33.470  19.252   3.202
83124W        W55549  12.580  13.678   3.250
83125W        W55550  33.539   5.738  12.550
83126W        W55551  29.721   3.845  13.336
83127W        W55552  33.979  38.017   4.408
83128W        W55553  17.498  25.660  13.619
83129W        W55554  19.548   4.234   3.299
83130W        W55555  25.712  32.031   0.832
83131W        W55556   6.290  34.057   4.246
83132W        W55557  12.013   3.878  10.532
83133W        W55558  17.224  34.609   2.667
83134W        W55559  13.744  41.127  11.971
83135W        W55560  41.923   4.267   3.615
83136W        W55561   1.955  18.283   2.856
83137W        W55562   4.968  32.574   2.813
83138W        W55563   0.454  16.105  14.314
83139W        W55564   8.164  27.495   4.252
83140W        W55565  13.337  24.814   9.772
83141W        W55566  11.675   9.516   4.042
83142W        W55567  44.588  14.133  12.000
83143W        W55568  21.247   3.476  13.972
83144W        W55569   7.323  27.425  13.698
83145W        W55570  36.984  31.014   2.177
83146W        W55571  16.239  33.695  11.522
83147W        W55572  25.041  22.211  11.910
83148W        W55573  18.764  32.601   5.024
83149W        W55574   1.901  27.439   2.037
83150W        W55575  20.133  30.145  14.711
83151W        W55576  34.993   8.748  12.922
83152W        W55577   8.760  30.011  13.557
83153W        W55578  19.602  20.245   4.597
83154W        W55579  40.417  12.280  13.351
83155W        W55580  36.132  37.728   4.550
83156W        W55581  39.781  12.585   4.286
83157W        W55582  15.123  27.728  14.834
83158W        W55583   4.357  31.831  13.462
83159W        W55584   2.478   2.048   4.313
83160W        W55585  19.133  17.933   2.348
83161W        W55586  29.623  26.058  13.046
83162W        W55587  10.240  12.484   4.916
83163W        W55588  25.481  35.893   0.956
83164W        W55589   9.127   6.730  13.070
83165W        W55590  24.092  32.144   0.391
83166W        W55591   2.071  37.012  11.615
83167W        W55592  14.016  22.302  13.985
83168W        W55593  24.091   5.228   3.048
83169W        W55594  19.494  15.693  11.234
83170W        W55595   7.683   8.887   2.887
83171W        W55596  42.486  44.278  12.367
83172W        W55597  20.107  35.028   0.262
83173W        W55598  10.635  24.875  12.387
83174W        W55599  13.389  35.772   1.201
83175W        W55600  15.033  42.059   1.560
83176W        W55601  29.987  30.921   3.429
83177W        W55602  23.963  20.773  11.511
83178W        W55603  20.601  15.355   1.959
83179W        W55604   4.215  42.952  13.483
83180W        W55605  31.991  33.496   2.115
83181W        W55606  11.155  10.402   0.757
83182W        W55607  35.415  39.063  12.015
83183W        W55608  19.253  25.934   0.977
83184W        W55609   9.192  44.316  11.373
83185W        W55610   7.482   5.882   1.462
83186W        W55611  23.910  22.240   4.659
83187W        W55612  44.710   0.304   0.222
83188W        W55613  27.043  19.548   5.099
83189W        W55614  22.466   0.171   2.863
83190W        W55615   2.652   0.508   0.444
83191W        W55616  43.329  33.920  11.162
83192W        W55617  17.683  15.120  14.359
83193W        W55618  36.333  25.004   2.118
83194W        W55619  34.370  23.170   0.900
83195W        W55620  19.650  28.936  13.381
83196W        W55621  23.306  23.918   2.718
83197W        W55622  42.441  13.844   3.757
83198W        W55623  11.626  11.529   4.441
83199W        W55624  21.123  31.871  13.491
83200W        W55625  18.101  19.504   1.020
83201W        W55626   4.288  15.869   0.489
83202W        W55627  18.976  30.856  11.030
83203W        W55628  14.569  33.360   0.824
83204W        W55629  26.086  42.797   3.815
83205W        W55630  30.392   7.233   2.087
83206W        W55631  17.442   6.429   2.966
83207W        W55632  43.839  37.649  11.134
83208W        W55633  12.631  14.176  13.582
83209W        W55634  30.414  40.620  13.544
83210W        W55635  34.043  12.070  11.208
83211W        W55636  43.942  23.552  11.930
83212W        W55637  18.277  13.851  14.863
83213W        W55638  10.678   6.306   1.968
83214W        W55639   2.844  13.840  12.441
83215W        W55640  28.826  22.618   0.264
83216W        W55641  31.414  20.163   0.357
83217W        W55642  12.911  28.814   0.501
83218W        W55643   9.742  13.298   3.926
83219W        W55644  43.108  22.860   2.138
83220W        W55645  44.904   8.147  14.586
83221W        W55646  13.008  16.529   0.720
83222W        W55647  32.032  21.208   1.714
83223W        W55648  27.005   3.829  14.139
83224W        W55649   5.833  37.861   0.827
83225W        W55650  43.327  32.342   4.665
83226W        W55651  24.668   5.965  12.098
83227W        W55652  37.539  21.659   2.803
83228W        W55653   8.060   3.455  11.585
83229W        W55654  13.188  18.064   2.369
83230W        W55655  16.153  17.199  10.751
83231W        W55656  36.421  12.062   2.138
83232W        W55657  14.089  33.518  10.958
83233W        W55658  11.229  17.200   2.254
83234W        W55659  38.236   0.252   3.125
83235W        W55660  14.198  29.480   1.365
83236W        W55661  10.063   3.272   1.728
83237W        W55662   9.634  18.318  14.235
83238W        W55663   0.976  12.377   2.849
83239W        W55664  14.542  31.916   2.732
83240W        W55665  35.772   4.768   2.224
83241W        W55666  44.999  10.167  12.543
83242W        W55667  41.508  33.024   4.606
83243W        W55668   2.307  16.799   2.196
83244W        W55669  21.646  32.449   4.104
83245W        W55670  29.098   8.867   0.766
83246W        W55671  17.005  18.064  13.928
83247W        W55672  21.066  39.598   1.219
83248W        W55673  40.306  27.370  11.195
83249W        W55674   5.785  23.404  13.055
83250W        W55675  13.440  37.027  10.661
83251W        W55676  15.696  29.641   2.860
83252W        W55677  13.657  18.511   2.099
83253W        W55678   7.701  10.449  10.976
83254W        W55679  41.399  40.641   1.619
83255W        W55680  40.322  20.719   2.248
83256W        W55681   3.915  12.061  12.262
83257W        W55682  12.634   5.654   0.478
83258W        W55683  24.069  20.575  13.572
83259W        W55684  10.302  29.437   1.338
83260W        W55685   1.212   7.711   0.854
83261W        W55686  17.196  28.733   0.467
83262W        W55687   6.664  23.035  14.268
83263W        W55688  10.317  20.809   3.325
83264W        W55689  32.460   9.843   2.848
83265W        W55690  18.535  36.726   1.089
83266W        W55691  36.572  43.588  10.291
83267W        W55692  13.202  36.566  10.624
83268W        W55693  39.318  19.810   0.281
83269W        W55694  37.726  25.787   5.053
83270W        W55695  36.462  14.531   3.712
83271W        W55696  18.708  13.606   0.020
83272W        W55697  26.642  14.353   2.186
83273W        W55698   0.357  26.532   3.976
83274W        W55699   4.408  15.212  14.913
83275W        W55700  27.394  13.711  14.339
83276W        W55701  42.591   8.019  12.089
83277W        W55702  37.801  37.016  12.074
83278W        W55703   2.118  17.516   0.731
83279W        W55704  39.924  11.756  14.993
83280W        W55705  42.030   5.735  12.199
83281W        W55706  22.639   2.364  12.034
83282W        W55707   9.644  13.557   3.137
83283W        W55708  17.050  17.988  12.467
83284W        W55709   4.427  26.091   3.383
83285W        W55710  33.909  25.012   3.080
83286W        W55711   4.540  13.763  13.984
83287W        W55712  13.205  42.968   4.384
83288W        W55713  41.079  27.038  12.639
83289W        W55714  36.079  27.578  12.528
83290W        W55715  13.284  11.700   3.300
83291W        W55716  43.267  23.172  13.454
83292W        W55717   8.241  41.031   3.327
83293W        W55718  26.616  44.411   1.311
83294W        W55719  13.900   0.852   5.330
83295W        W55720  22.170  27.895   4.588
83296W        W55721  38.504   7.669   3.317
83297W        W55722  15.455  40.475   5.083
83298W        W55723   7.665  22.630   4.629
83299W        W55724  35.074  40.357   5.015
83300W        W55725  15.736  37.625  10.694
83301W        W55726  26.504   9.714   4.338
83302W        W55727  20.203  19.417  14.689
83303W        W55728  29.854  16.337   0.706
83304W        W55729   2.260   3.183   1.448
83305W        W55730  38.743  31.621   3.688
83306W        W55731  37.012  34.479   3.078
83307W        W55732  44.707   1.263   0.868
83308W        W55733  44.326  19.066  12.319
83309W        W55734   8.432  26.714   3.723
83310W        W55735  11.299  38.441   1.696
83311W        W55736   4.494  33.538  11.380
83312W        W55737  23.608  37.415   3.386
83313W        W55738   6.046  44.270  11.157
83314W        W55739  12.760  24.141  14.314
83315W        W55740   9.307  37.713  10.101
83316W        W55741  27.579  39.264   0.545
83317W        W55742  23.737   3.464  13.804
83318W        W55743  26.090   7.370  13.967
83319W        W55744  36.780  22.989   3.940
83320W        W55745  27.732   9.490  11.285
83321W        W55746   3.875  24.598   0.629
83322W        W55747   6.391  43.451   1.318
83323W        W55748  32.444   5.947  13.099
83324W        W55749  38.073  35.606  10.968
83325W        W55750  20.950   3.488   2.856
83326W        W55751   9.143  32.088  13.713
83327W        W55752  27.311  20.798  14.814
83328W        W55753  17.992  15.750  12.994
83329W        W55754  37.653  24.961   1.396
83330W        W55755   0.496  17.000   3.601
83331W        W55756  32.532  29.368   2.677
83332W        W55757  26.894  18.618   4.761
83333W        W55758  10.174  23.588   1.515
83334W        W55759   7.296  28.915   1.968
83335W        W55760  18.166  37.222   0.343
83336W        W55761  10.430  37.277   3.217
83337W        W55762  24.327  22.451  10.553
83338W        W55763  13.888  40.339  13.362
83339W        W55764  38.607   9.253  11.517
83340W        W55765   7.658  21.839   2.828
83341W        W55766  12.928   1.777  14.127
83342W        W55767  38.762   4.649   2.220
83343W        W55768   9.745  26.951   3.391
83344W        W55769  10.332  44.294  14.910
83345W        W55770  18.139  25.967  11.187
83346W        W55771  35.379   1.284  11.320
83347W        W55772   4.973  14.172   0.801
83348W        W55773   3.975   5.705   1.328
83349W        W55774  37.104   6.151  13.501
83350W        W55775  38.896   0.220   1.413
83351W        W55776  30.440  28.508  11.704
83352W        W55777  14.000  31.187   2.260
83353W        W55778  41.021   0.422  11.615
83354W        W55779   3.770  42.432  10.913
83355W        W55780  43.248  24.430   4.417
83356W        W55781  43.480  10.881   1.939
83357W        W55782  36.647  18.150   3.761
83358W        W55783  43.602   0.570   4.108
83359W        W55784  28.996   1.931   1.714
83360W        W55785  21.105  28.209  12.590
83361W        W55786  44.565   2.715  12.981
83362W        W55787  21.244   8.613   2.219
83363W        W55788  42.475  18.633   4.289
83364W        W55789   7.109   9.021   1.263
83365W        W55790   2.324  41.565  14.450
83366W        W55791  32.097  25.582  13.232
83367W        W55792   7.977  39.407  10.919
83368W        W55793  14.677  30.582  11.660
83369W        W55794  25.714   2.469  12.902
83370W        W55795  27.627  22.647   1.748
83371W        W55796  27.111  21.327  13.326
83372W        W55797  33.887  39.839   3.203
83373W        W55798   7.197  18.397   3.102
83374W        W55799  16.387  38.367  11.535
83375W        W55800  12.015  23.102   0.323
83376W        W55801  42.418  29.185   2.878
83377W        W55802  18.147   6.329  10.754
83378W        W55803   9.321  23.493   5.104
83379W        W55804  29.590  26.222   2.673
83380W        W55805  34.104   3.783  12.968
83381W        W55806  13.297  22.412  11.539
83382W        W55807  23.128   4.350   3.695
83383W        W55808   4.459  31.499   1.364
83384W        W55809  24.583   1.028  11.671
83385W        W55810  23.697  24.495   4.367
83386W        W55811  16.751  37.553   3.158
83387W        W55812  31.144  19.098   9.845
83388W        W55813   9.377  32.189  12.339
83389W        W55814  12.894  28.344  13.951
83390W        W55815  22.708  31.728  14.457
83391W        W55816  43.561  29.461   2.841
83392W        W55817  41.024   3.715  14.755
83393W        W55818  24.519  36.829  14.830
83394W        W55819  16.305  11.228   3.668
83395W        W55820  19.057  19.416   1.366
83396W        W55821  35.487   5.251  14.237
83397W        W55822  44.279   8.615  10.137
83398W        W55823  12.156  19.628   2.336
83399W        W55824  40.564  33.098   1.754
83400W        W55825  34.858   2.649   3.740
83401W        W55826  10.764  22.050  11.508
83402W        W55827  33.331  30.972  10.003
83403W        W55828  17.485  13.691   4.819
83404W        W55829  34.636  37.309  12.120
83405W        W55830  13.801   9.155   2.193
83406W        W55831   8.869  20.815   1.925
83407W        W55832  22.592  43.864   1.432
83408W        W55833  13.696  10.624   0.442
83409W        W55834  43.161  20.210  11.515
83410W        W55835   5.178   8.871  13.859
83411W        W55836  10.634  30.375  11.998
83412W        W55837  16.797  36.492  13.566
83413W        W55838   0.331  42.616  13.330
83414W        W55839  30.224  19.770  12.901
83415W        W55840  14.654  29.478  10.751
83416W        W55841  24.837  10.248  13.364
83417W        W55842   5.331  18.036  11.687
83418W        W55843  43.617  31.672   2.629
83419W        W55844  37.822   2.849  11.656
83420W        W55845  16.387  26.255   4.306
83421W        W55846  24.011  28.668  10.715
83422W        W55847  42.784  34.017   4.560
83423W        W55848  37.130  37.180  13.040
83424W        W55849  15.831   4.437   1.696
83425W        W55850  11.576  34.611   0.467
83426W        W55851  18.566  28.524  11.852
83427W        W55852  29.345   9.057   2.115
83428W        W55853  32.165  14.734   2.929
83429W        W55854  26.777  15.068  10.719
83430W        W55855   5.828  40.594   4.747
83431W        W55856  26.564   6.797   4.435
83432W        W55857   7.923  20.698  13.524
83433W        W55858  41.419  15.600  12.378
83434W        W55859   1.893  19.315  14.925
83435W        W55860  40.347  39.404   0.306
83436W        W55861  28.462  18.279  13.654
83437W        W55862  43.378  18.083   0.012
83438W        W55863  13.340  12.067   2.944
83439W        W55864   5.722  32.447   3.718
83440W        W55865  38.871  41.917  10.968
83441W        W55866   5.698  14.700   0.309
83442W        W55867   9.367  16.997   1.698
83443W        W55868   3.201  12.269   3.682
83444W        W55869  18.083  28.493   4.769
83445W        W55870  41.855  41.352   4.743
83446W        W55871  12.715  28.196  13.380
83447W        W55872  32.579  39.499   3.765
83448W        W55873  11.217  26.376  10.087
83449W        W55874  42.864   0.217   1.353
83450W        W55875  10.430  34.983  13.813
83451W        W55876  40.814  33.926  14.960
83452W        W55877  28.022   6.976  11.943
83453W        W55878  30.368  34.976   2.133
83454W        W55879  15.312  40.881   0.913
83455W        W55880  11.755  19.693  14.907
83456W        W55881  35.099  15.308  12.864
83457W        W55882  27.755  29.141   4.632
83458W        W55883  44.373  10.505   4.157
83459W        W55884  31.098   7.653  10.428
83460W        W55885  16.290  23.736  12.566
83461W        W55886  18.474  34.338  11.892
83462W        W55887  42.090  22.003   2.896
83463W        W55888  24.436  14.844  11.652
83464W        W55889  25.994  32.949   3.249
83465W        W55890  27.886  20.070   2.297
83466W        W55891   0.490  26.469  10.652
83467W        W55892   5.633   2.303  11.711
83468W        W55893  33.093  30.169   3.694
83469W        W55894  30.628  27.670  12.431
83470W        W55895  14.728  22.046  10.630
83471W        W55896  29.558  31.380   4.470
83472W        W55897  22.933   1.690   3.283
83473W        W55898  31.011  23.847  14.128
83474W        W55899  35.157  28.734  10.904
83475W        W55900  44.247  36.812   0.220
83476W        W55901   5.778   3.544  11.088
83477W        W55902  14.650  43.894   2.898
83478W        W55903  41.200  20.311  11.614
83479W        W55904  44.827  43.950  12.143
83480W        W55905  19.586  31.705   3.573
83481W        W55906  32.520  38.342   0.355
83482W        W55907  25.098  29.386   1.923
83483W        W55908  26.104   5.951   0.723
83484W        W55909  17.264  16.318   1.863
83485W        W55910  10.814  44.501  14.856
83486W        W55911  33.599  35.862  13.473
83487W        W55912  15.591   3.626   0.968
83488W        W55913  18.884  43.830  14.341
83489W        W55914  27.963  10.901  12.134
83490W        W55915  16.898  22.283   1.890
83491W        W55916  31.171  25.679  13.525
83492W        W55917  37.366  23.117   2.851
83493W        W55918  20.130  16.694  14.286
83494W        W55919  28.862   3.391  14.948
83495W        W55920  21.557   7.674  12.335
83496W        W55921   4.155  30.444   4.272
83497W        W55922   6.852   0.255  12.097
83498W        W55923  40.250  25.631   4.926
83499W        W55924   4.209  44.240   4.592
83500W        W55925  32.162  12.418  14.070
83501W        W55926   9.470  12.686   2.188
83502W        W55927  16.702  20.973  11.645
83503W        W55928  30.361  30.090  14.710
83504W        W55929   5.701  28.787  14.733
83505W        W55930  12.639   2.180   4.189
83506W        W55931  29.645  43.732   1.007
83507W        W55932  42.749   2.236  12.010
83508W        W55933  18.658  11.153   2.948
83509W        W55934  41.430  24.086  12.840
83510W        W55935  23.574  31.023  13.757
83511W        W55936  28.858  29.546  12.418
83512W        W55937   7.787  44.458   0.985
83513W        W55938  16.099  44.387  12.678
83514W        W55939  30.529  37.118   2.893
83515W        W55940  15.378   7.469   0.685
83516W        W55941  19.774  26.448   5.013
83517W        W55942   3.445  35.559  13.446
83518W        W55943  22.204  38.520   3.803
83519W        W55944  21.693  18.579  12.397
83520W        W55945  33.644   3.724  10.376
83521W        W55946  20.693  11.603   0.023
83522W        W55947  21.524  27.967  13.491
83523W        W55948  42.972  18.888   4.265
83524W        W55949  29.666  44.255   3.180
83525W        W55950  23.414  13.122   4.139
83526W        W55951  23.659   7.286  13.409
83527W        W55952  39.064  36.050  13.468
83528W        W55953  12.959  30.405  10.312
83529W        W55954  10.103  19.183  13.597
83530W        W55955  22.696  38.998   4.431
83531W        W55956  24.622  11.046   2.265
83532W        W55957   1.810   6.969   3.569
83533W        W55958  42.730   1.950  14.605
83534W        W55959  30.635  27.462  10.190
83535W        W55960   3.083   0.724  14.886
83536W        W55961  34.946  44.143  12.086
83537W        W55962  44.310  31.051   0.944
83538W        W55963  28.268  11.692   3.719
83539W        W55964  39.073  43.380   0.324
83540W        W55965  17.563  39.877   0.515
83541W        W55966  15.321  43.513   3.997
83542W        W55967  28.875  24.564   4.606
83543W        W55968  20.491  35.154   0.679
83544W        W55969  22.070  29.618  14.554
83545W        W55970  10.745  15.336  12.857
83546W        W55971  16.640  37.998  13.427
83547W        W55972  10.884  37.387   1.815
83548W        W55973  18.576  22.758   3.271
83549W        W55974  20.368  20.329   3.595
83550W        W55975  42.514  25.182  14.708
83551W        W55976   3.146  27.959   5.114
83552W        W55977   1.014  41.809   1.960
83553W        W55978  16.215  31.556   1.942
83554W        W55979  24.465   0.077   3.255
83555W        W55980  25.061   7.450   4.314
83556W        W55981  44.315  15.076  13.820
83557W        W55982  13.269   8.754  14.287
83558W        W55983  22.559  12.579  10.595
83559W        W55984  44.014  26.097  14.782
83560W        W55985   7.618   2.721   4.173
83561W        W55986  42.823  31.608   1.605
83562W        W55987  21.028   1.722  12.896
83563W        W55988  29.725  32.506  14.362
83564W        W55989  19.962  22.173   1.727
83565W        W55990   5.239  13.236  10.597
83566W        W55991  23.300  40.377   2.443
83567W        W55992  37.871  31.675  10.748
83568W        W55993  28.977  43.254   4.863
83569W        W55994  16.743   0.133   3.302
83570W        W55995   5.898  17.582  10.390
83571W        W55996   5.521  27.245  13.801
83572W        W55997  40.499   9.192  14.053
83573W        W55998  27.088  44.686   3.284
83574W        W55999  14.166  16.166  13.473
83575W        W56000   4.190  29.104   2.268
83576W        W56001  32.071  26.558   5.124
83577W        W56002   5.953  15.172   0.824
83578W        W56003  17.547  14.060  13.444
83579W        W56004  14.903  29.953  12.070
83580W        W56005  20.197  43.912  11.897
83581W        W56006  10.659  16.700  12.095
83582W        W56007  29.092  26.687  12.376
83583W        W56008  24.893  30.154   1.327
83584W        W56009  13.752  11.328   1.962
83585W        W56010   9.894  31.959  10.586
83586W        W56011  32.829   8.925  10.741
83587W        W56012   2.727  10.742  11.160
83588W        W56013   9.702   8.786   3.221
83589W        W56014  41.034  29.529   1.307
83590W        W56015  41.293   2.289   3.287
83591W        W56016  13.496   4.306   2.753
83592W        W56017   0.491  43.312  14.906
83593W        W56018   3.379  21.691  11.509
83594W        W56019  12.513  36.412  12.777
83595W        W56020  34.854  19.221  10.722
83596W        W56021  35.684  20.148  11.210
83597W        W56022  20.953  37.956  13.401
83598W        W56023   6.883  13.660   4.594
83599W        W56024   8.098  27.840   2.503
83600W        W56025   3.396  23.689  12.096
83601W        W56026  11.602  25.729  14.568
83602W        W56027  18.098   8.977  11.141
83603W        W56028  38.069  19.530   4.571
83604W        W56029   9.153  14.433   3.785
83605W        W56030  10.886  23.698  13.806
83606W        W56031  31.107  38.756   3.229
83607W        W56032  16.093   9.121   3.786
83608W        W56033  35.240   4.893  11.178
83609W        W56034  11.400  33.971  10.192
83610W        W56035  13.652  27.178   0.895
83611W        W56036  36.031  32.419  11.566
83612W        W56037  26.556  44.231  10.330
83613W        W56038  11.815  42.979   4.604
83614W        W56039  24.244   2.524  12.146
83615W        W56040  19.688  39.667   4.887
83616W        W56041  42.375   0.524  12.981
83617W        W56042  42.366  13.280   2.364
83618W        W56043   7.816  23.580   3.700
83619W        W56044  28.404   0.873  11.561
83620W        W56045  39.867  21.968  11.206
83621W        W56046  36.479  24.208  11.587
83622W        W56047  42.487   4.816   1.420
83623W        W56048  42.938  34.042   2.273
83624W        W56049  30.765   5.411  14.028
83625W        W56050  35.879  20.272   3.793
83626W        W56051  10.174  29.165   0.865
83627W        W56052  44.688   4.662   3.805
83628W        W56053  28.880   5.199  11.553
83629W        W56054   2.017  13.369   0.325
83630W        W56055   6.716  22.579  14.844
83631W        W56056  17.217  12.948  10.300
83632W        W56057  35.508  14.706  13.999
83633W        W56058   1.253   6.983  12.015
83634W        W56059  37.786  20.666   0.304
83635W        W56060  44.276   2.845   4.044
83636W        W56061  19.021  39.309  11.958
83637W        W56062   9.197   4.188   4.031
83638W        W56063  39.314  22.135  10.466
83639W        W56064  21.943  14.548   0.657
83640W        W56065   0.003  37.314   0.315
83641W        W56066   0.211   3.800   3.667
83642W        W56067  14.180  24.101   1.797
83643W        W56068  27.010  28.562  12.050
83644W        W56069  18.100  26.139  14.185
83645W        W56070  27.518  41.947   1.895
83646W        W56071  41.006  33.702   0.411
83647W        W56072  11.128   5.547  11.497
83648W        W56073  32.212  24.671  13.896
83649W        W56074   8.296  23.159  13.497
83650W        W56075  11.250   9.132  10.282
83651W        W56076  19.573   8.348  10.715
83652W        W56077  37.376  16.325  12.144
83653W        W56078  35.635  13.730  12.431
83654W        W56079  30.627   7.403  11.406
83655W        W56080  26.969   5.365   4.092
83656W        W56081  30.147  42.751   0.081
83657W        W56082   3.255  36.017  12.119
83658W        W56083  18.295  37.020   4.668
83659W        W56084  30.910  24.614   4.629
83660W        W56085   4.226  14.721  14.342
83661W        W56086  34.022  35.164   0.185
83662W        W56087   6.780  42.177  11.960
83663W        W56088   6.704   3.256   2.270
83664W        W56089  38.270  36.533   1.823
83665W        W56090  42.482  36.883  13.748
83666W        W56091   1.904   6.673   3.135
83667W        W56092  19.205  32.930  13.804
83668W        W56093  10.271   1.078  12.108
83669W        W56094  11.134  36.835   3.680
83670W        W56095  13.769   3.735   0.706
83671W        W56096  39.377  19.846  10.543
83672W        W56097  22.978   2.485   3.589
83673W        W56098  16.344   2.948  13.117
83674W        W56099  19.709  28.995   1.036
83675W        W56100  32.524  12.114   1.289
83676W        W56101   9.320  21.301   3.744
83677W        W56102  26.231  31.541   0.319
83678W        W56103  35.587  19.016  14.956
83679W        W56104  15.293  17.106  10.498
83680W        W56105  18.676  11.159  13.600
83681W        W56106  25.390  21.727   2.766
83682W        W56107   7.432   7.441  14.747
83683W        W56108  30.579  30.987   3.669
83684W        W56109  35.394  43.878  12.015
83685W        W56110  14.839   1.796   2.206
83686W        W56111  35.848   3.009  14.366
83687W        W56112  36.036  44.410  14.047
83688W        W56113  32.786  18.677   3.115
83689W        W56114  21.222  21.772  11.385
83690W        W56115  28.421  22.401   1.255
83691W        W56116  16.679  23.561   4.306
83692W        W56117   6.816   8.348  12.669
83693W        W56118   5.503  31.600  12.280
83694W        W56119   8.457  25.767  11.997
83695W        W56120   2.177  24.343   2.369
83696W        W56121  34.073  35.389  12.937
83697W        W56122  27.998  41.332   4.670
83698W        W56123  25.650   0.463   3.930
83699W        W56124  11.845  21.166   2.612
83700W        W56125  20.512   7.819  11.221
83701W        W56126   9.641  17.293   2.809
83702W        W56127   8.244   3.474   0.277
83703W        W56128  37.970  16.621   0.043
83704W        W56129   6.114  29.818   3.912
83705W        W56130  10.192  17.925   5.072
83706W        W56131  41.989   3.066  13.754
83707W        W56132  21.646   0.958  12.086
83708W        W56133   6.744  42.780   1.678
83709W        W56134  40.367  15.584   0.355
83710W        W56135  21.514  34.384  13.202
83711W        W56136  31.068  35.097  11.961
83712W        W56137  41.516  18.262  13.475
83713W        W56138   2.895  26.948   3.323
83714W        W56139  38.157   6.781   2.801
83715W        W56140  44.486  14.177   3.934
83716W        W56141  31.414  16.892   5.776
83717W        W56142  19.246  14.251   4.561
83718W        W56143  31.248  37.353  11.959
83719W        W56144  28.024  36.551  14.199
83720W        W56145  26.969  32.994  11.568
83721W        W56146   8.293  17.782  14.219
83722W        W56147  29.549  11.283  13.049
83723W        W56148   1.636   0.823  13.935
83724W        W56149   8.847   4.739  10.638
83725W        W56150  16.189   1.202   1.228
83726W        W56151  15.010  20.557  13.993
83727W        W56152  33.551   4.159  10.665
83728W        W56153  20.143   2.689  12.431
83729W        W56154  26.622  11.690  11.088
83730W        W56155  15.753   5.390  13.438
83731W        W56156  11.624   3.950  10.915
83732W        W56157  12.155  43.867   0.813
83733W        W56158   6.750  28.583  10.574
83734W        W56159  31.577   8.329   2.296
83735W        W56160  24.491   0.273  12.109
83736W        W56161   8.593  30.997   2.707
83737W        W56162  39.601  39.573   4.672
83738W        W56163   9.280  32.650   0.454
83739W        W56164   7.256  31.232   0.859
83740W        W56165  29.964  34.604  11.123
83741W        W56166  43.336  35.952   2.681
83742W        W56167  40.143  22.135   3.103
83743W        W56168  43.323  22.748   2.912
83744W        W56169  14.137   3.347  13.059
83745W        W56170  15.367  12.994   4.042
83746W        W56171  21.113  38.611  10.124
83747W        W56172   3.227   5.875   3.663
83748W        W56173  37.109  22.816   9.735
83749W        W56174  11.682  19.662   3.069
83750W        W56175  17.928  40.564  13.067
83751W        W56176  29.691  11.534   0.793
83752W        W56177  27.723  10.551  11.007
83753W        W56178  41.512   0.226  11.540
83754W        W56179  42.279  34.938   3.710
83755W        W56180  27.821   7.605   5.151
83756W        W56181   2.766  40.090   3.506
83757W        W56182  36.614  31.412   1.876
83758W        W56183  27.423  23.638   0.264
83759W        W56184  28.085  43.422  11.886
83760W        W56185   0.893  44.747  13.089
83761W        W56186  31.931  22.980  13.453
83762W        W56187  34.639   3.453   3.917
83763W        W56188  15.552  26.554  13.080
83764W        W56189  31.087   4.433  12.021
83765W        W56190   2.209  31.674   0.743
83766W        W56191  13.227   1.718   1.382
83767W        W56192  30.086  40.484  13.947
83768W        W56193   2.370  32.887   3.789
83769W        W56194  33.134  33.434   0.931
83770W        W56195   6.767  29.942   3.120
83771W        W56196  12.984  35.766  12.007
83772W        W56197  42.532   5.378  13.294
83773W        W56198  23.068  12.752  11.389
83774W        W56199  21.297  40.540  12.805
83775W        W56200   1.026   1.241  11.719
83776W        W56201  32.923  29.623   2.440
83777W        W56202  32.089  12.247   1.025
83778W        W56203  20.198   6.241  13.353
83779W        W56204  18.754  35.431   0.990
83780W        W56205   0.219  35.944   4.929
83781W        W56206  42.823  37.108  11.999
83782W        W56207   7.245  17.295  11.535
83783W        W56208  14.204  14.892   2.247
83784W        W56209  37.212   2.334   5.069
83785W        W56210  27.059  11.649  10.528
83786W        W56211   4.430   5.910  11.251
83787W        W56212  25.024   0.915  12.513
83788W        W56213   9.206  32.142   5.216
83789W        W56214   5.172  40.308  12.278
83790W        W56215  26.771  39.508   2.768
83791W        W56216  13.205   8.227  10.728
83792W        W56217  35.933  26.507  13.573
83793W        W56218   0.424   4.169  12.516
83794W        W56219   2.164   5.357  14.220
83795W        W56220  21.594  43.933   1.491
83796W        W56221  13.753  12.111   4.257
83797W        W56222  44.871  34.525   2.686
83798W        W56223  12.575  35.485   1.408
83799W        W56224   0.834   4.927  11.448
83800W        W56225   6.343  33.488   2.077
83801W        W56226  23.263  15.788   4.278
83802W        W56227  24.420   3.502  11.980
83803W        W56228  35.061   0.250  13.446
83804W        W56229  13.829  34.873  12.562
83805W        W56230  24.119  26.472  10.801
83806W        W56231  41.346  11.700   2.859
83807W        W56232  16.876  44.679   1.761
83808W        W56233  32.206  42.930   0.988
83809W        W56234  44.257  28.746  11.594
83810W        W56235  22.740  33.163  13.177
83811W        W56236   2.844  25.665   3.635
83812W        W56237  32.798  39.572   1.275
83813W        W56238  31.752  22.233  13.771
83814W        W56239   2.172  16.612   4.710
83815W        W56240  27.059  44.903  14.785
83816W        W56241  15.598   4.249   4.263
83817W        W56242  37.193   6.767  12.454
83818W        W56243  28.549  20.070  14.082
83819W        W56244  40.329  25.423   0.790
83820W        W56245   8.121  34.070  13.852
83821W        W56246  14.840  13.679   3.781
83822W        W56247  18.325  28.673  13.450
83823W        W56248  43.074   1.158   4.246
83824W        W56249  12.703   4.656  13.051
83825W        W56250   3.420   8.506   1.209
83826W        W56251   1.485  12.417  10.596
83827W        W56252  43.749  25.130  11.421
83828W        W56253   4.542   1.062  12.186
83829W        W56254  31.113  13.335   4.004
83830W        W56255  29.641  12.381   2.300
83831W        W56256  19.143  38.070   1.247
83832W        W56257   3.742   7.875  14.577
83833W        W56258  22.184  36.316  12.610
83834W        W56259  24.245  14.073   4.237
83835W        W56260   1.280  24.539  10.557
83836W        W56261  36.872   7.441  13.088
83837W        W56262  43.209  25.685   1.212
83838W        W56263  42.358   9.708  13.433
83839W        W56264   3.057  31.812   1.871
83840W        W56265  38.407  14.759   0.209
83841W        W56266  37.289  25.766  13.466
83842W        W56267  37.821  41.292   2.301
83843W        W56268  37.631  32.141  12.115
83844W        W56269  19.123  35.009  10.724
83845W        W56270  13.430  40.086  12.576
83846W        W56271  16.102  26.998   1.316
83847W        W56272  19.042   9.346  12.048
83848W        W56273  43.114  31.899   0.897
83849W        W56274  11.600  22.770   1.836
83850W        W56275  23.556   7.672   2.764
83851W        W56276  21.947  20.666   3.671
83852W        W56277   1.337  25.004  10.808
83853W        W56278   1.016  25.255   3.680
83854W        W56279   1.836   7.821   2.876
83855W        W56280   2.983  34.572  12.064
83856W        W56281  33.602  32.117   1.861
83857W        W56282  11.883  38.455  11.416
83858W        W56283  39.007  16.819  13.042
83859W        W56284  30.238  35.845  14.276
83860W        W56285   2.996   3.786   0.859
83861W        W56286  28.074  25.664   3.701
83862W        W56287  14.533  15.336  14.332
83863W        W56288   2.268  15.735  14.544
83864W        W56289  36.042  30.198   2.790
83865W        W56290  13.002  12.287   4.589
83866W        W56291   8.821  36.596  12.462
83867W        W56292  18.572  18.055  11.860
83868W        W56293  22.612  37.924  10.970
83869W        W56294  40.848  36.692   3.139
83870W        W56295   6.480  21.474   0.424
83871W        W56296  32.014   1.051   4.111
83872W        W56297   3.267  17.632   2.847
83873W        W56298  25.553  24.964  11.042
83874W        W56299   8.422  43.997   2.608
83875W        W56300   6.288  15.035   1.732
83876W        W56301  33.839  18.603  14.289
83877W        W56302  14.234  43.440  13.881
83878W        W56303   4.785  13.651   4.809
83879W        W56304  37.549   5.027   1.325
83880W        W56305  33.802  36.021  11.878
83881W        W56306  13.308  12.927   4.952
83882W        W56307  23.112  34.165  10.692
83883W        W56308   4.634  10.354  11.752
83884W        W56309   6.915   5.757  12.484
83885W        W56310  39.505  34.391  13.480
83886W        W56311  12.741  26.749  10.804
83887W        W56312  29.500   4.251  14.407
83888W        W56313  29.056  33.774   4.098
83889W        W56314   2.170  30.041   3.592
83890W        W56315  32.552   5.344   2.638
83891W        W56316  25.946  35.370   3.603
83892W        W56317  22.084  25.721  11.160
83893W        W56318  28.471  23.574   1.897
83894W        W56319  39.270  17.238  10.535
83895W        W56320  13.353  33.189  12.463
83896W        W56321  23.430  23.135   2.308
83897W        W56322  10.852  43.443  13.257
83898W        W56323  24.127  24.678   4.634
83899W        W56324  26.526  18.354  11.123
83900W        W56325  17.524  12.594   1.336
83901W        W56326  31.524  25.582  12.480
83902W        W56327  13.632  20.537   3.717
83903W        W56328  21.656  19.944   2.297
83904W        W56329  24.619  10.953   4.636
83905W        W56330  34.179  13.890  11.247
83906W        W56331  26.241  29.040   0.375
83907W        W56332  32.543  22.721  13.593
83908W        W56333  15.831  18.502   4.289
83909W        W56334  25.197  33.396   1.950
83910W        W56335  40.083  23.989   4.425
83911W        W56336  22.473  30.801   1.916
83912W        W56337  23.037  31.620   1.757
83913W        W56338  17.134  37.403  10.507
83914W        W56339   9.232  33.993  11.214
83915W        W56340   0.489  22.296  14.991
83916W        W56341  11.806  29.706  13.122
83917W        W56342  14.994  10.397  11.548
83918W        W56343  31.919  16.850   2.450
83919W        W56344  37.505   7.594   0.446
83920W        W56345  34.029   1.720   3.823
83921W        W56346  29.208  16.122   4.818
83922W        W56347  27.770  41.136   2.899
83923W        W56348  17.639  44.423   2.712
83924W        W56349  40.743  36.010  14.339
83925W        W56350  36.782  19.022  12.518
83926W        W56351  19.739   6.433   3.200
83927W        W56352  26.582  41.774   3.310
83928W        W56353  16.767  30.158  13.751
83929W        W56354   2.784  24.936  12.369
83930W        W56355  41.326   6.507   2.119
83931W        W56356   2.730  26.996   0.697
83932W        W56357  35.449  40.382  11.879
83933W        W56358  24.977  24.546   3.120
83934W        W56359   4.004  11.796  11.728
83935W        W56360  33.605  42.596  12.580
83936W        W56361  35.869   1.979  11.244
83937W        W56362  33.099  41.419   2.130
83938W        W56363  35.514  29.455   2.415
83939W        W56364   4.860   2.958  10.650
83940W        W56365  40.447   2.894   0.794
83941W        W56366  10.324  24.718  13.237
83942W        W56367  27.252  18.228   2.662
83943W        W56368   4.969  24.764   1.629
83944W        W56369  30.958   4.743   4.046
83945W        W56370  37.810  27.425   3.259
83946W        W56371  23.670   6.199   0.809
83947W        W56372  26.017  24.050   4.149
83948W        W56373  15.448  15.004   3.194
83949W        W56374  40.061  25.415   2.404
83950W        W56375  10.419  43.690  13.509
83951W        W56376  24.614  15.225   0.766
83952W        W56377  30.405  35.493   4.890
83953W        W56378  10.227  41.182  10.539
83954W        W56379   3.923  36.104  11.514
83955W        W56380  43.526   5.295  12.872
83956W        W56381  17.565   9.423   1.932
83957W        W56382  39.497  44.846   1.975
83958W        W56383  34.619  22.313   3.136
83959W        W56384  34.674  28.092   0.244
83960W        W56385  25.307  43.050   5.020
83961W        W56386  30.887   7.876  13.311
83962W        W56387  22.771  13.101  11.587
83963W        W56388  41.324  15.297  13.435
83964W        W56389   1.224   5.279  14.096
83965W        W56390   6.649  23.425   1.389
83966W        W56391  18.353  38.296   4.060
83967W        W56392  44.929  24.941   0.892
83968W        W56393  36.271  38.770   0.449
83969W        W56394  14.885  37.692  14.356
83970W        W56395  10.330  35.914   4.339
83971W        W56396  15.338  24.618   3.704
83972W        W56397  16.676  43.350   4.578
83973W        W56398   4.568  11.429   2.916
83974W        W56399  30.414  21.256  13.335
83975W        W56400  15.797  32.642  13.189
83976W        W56401  42.799  34.486   3.231
83977W        W56402  32.684  17.830   5.157
83978W        W56403  26.146  44.837   3.669
83979W        W56404  42.718  31.677   1.120
83980W        W56405  13.577  35.588   0.393
83981W        W56406  16.651  41.406   2.607
83982W        W56407  35.370  32.622   1.856
83983W        W56408  32.488   6.252  12.123
83984W        W56409  38.143  42.878  14.311
83985W        W56410  42.616   0.805   3.534
83986W        W56411  24.607  13.315  11.420
83987W        W56412  28.841  37.460  13.446
83988W        W56413  35.084  22.784   5.309
83989W        W56414  20.501  38.469   0.320
83990W        W56415  38.041  25.543  11.470
83991W        W56416  34.156   8.140   0.243
83992W        W56417  20.552   1.565   1.289
83993W        W56418  22.699  27.609  11.104
83994W        W56419  11.995  12.308   3.315
83995W        W56420   5.723  38.114  12.453
83996W        W56421  18.400  24.979   1.388
83997W        W56422  31.471  42.137   1.697
83998W        W56423  25.703  42.547   0.325
83999W        W56424   7.237  41.299  12.050
84000W        W56425  16.299  17.652  14.868
84001W        W56426   2.420  38.899  10.914
84002W        W56427  24.140  27.554  13.504
84003W        W56428  37.516  41.813   0.901
84004W        W56429  41.327  32.660  11.832
84005W        W56430  15.359  39.924   2.405
84006W        W56431  39.812  18.008  10.980
84007W        W56432  32.870  14.490   3.400
84008W        W56433  27.092  18.695   0.193
84009W        W56434  40.267  28.537  14.177
84010W        W56435  25.707  21.993  13.943
84011W        W56436  37.008  36.547   4.892
84012W        W56437  35.936  22.652   5.076
84013W        W56438  32.287  33.520  14.732
84014W        W56439  35.634  18.065  14.665
84015W        W56440  20.123  35.564   2.314
84016W        W56441  43.687  34.578   0.212
84017W        W56442  14.269  17.030  13.316
84018W        W56443   6.197  44.798   1.271
84019W        W56444  15.070  22.640  10.127
84020W        W56445  38.013  35.085  11.028
84021W        W56446   3.959  35.736  12.476
84022W        W56447  18.142  42.002   2.384
84023W        W56448   8.133  13.815  10.405
84024W        W56449   7.396  10.215   3.827
84025W        W56450  38.303   7.457  13.016
84026W        W56451  17.521  32.891   0.645
84027W        W56452  43.951  40.402  14.098
84028W        W56453  20.600  13.160  12.036
84029W        W56454   7.790  31.699  11.966
84030W        W56455  35.818  42.789   4.837
84031W        W56456  10.246   3.732   0.979
84032W        W56457  35.372  22.132  12.367
84033W        W56458  41.910  31.114   1.419
84034W        W56459  25.211  14.343   0.874
84035W        W56460  38.383  43.204  10.094
84036W        W56461  40.032  39.402  11.890
84037W        W56462   1.788   8.710   2.394
84038W        W56463  42.808  44.750  11.528
84039W        W56464  19.571  44.311  13.400
84040W        W56465  33.612  33.009  12.082
84041W        W56466   0.742  41.895  14.233
84042W        W56467  28.824   0.721  12.846
84043W        W56468   9.318   4.866  12.503
84044W        W56469   2.749  32.846   4.141
84045W        W56470  18.231   4.834   1.374
84046W        W56471  13.258  25.891  14.896
84047W        W56472   2.966  22.650   2.175
84048W        W56473   4.809  25.130   2.588
84049W        W56474  42.572  39.622   0.392
84050W        W56475  31.127   7.117   4.631
84051W        W56476  26.924   8.312   2.848
84052W        W56477  40.830  19.544  11.027
84053W        W56478   9.304  12.710   0.073
84054W        W56479  20.022  34.167  11.112
84055W        W56480  41.374  31.165   4.148
84056W        W56481  36.654   7.849  10.553
84057W        W56482  40.401   5.167  12.560
84058W        W56483  30.434  12.608  14.114
84059W        W56484  44.230  20.022   0.686
84060W        W56485  12.831  34.563  11.513
84061W        W56486  10.382  31.125  14.867
84062W        W56487   0.442  18.186  12.164
84063W        W56488  37.626  19.322   3.191
84064W        W56489  39.097  42.770   5.463
84065W        W56490  24.289  38.618  12.117
84066W        W56491   6.680   5.428   0.255
84067W        W56492   3.025  35.640  10.401
84068W        W56493  41.084   5.957  11.206
84069W        W56494  35.803  25.248   3.790
84070W        W56495  33.432  33.143  13.915
84071W        W56496  40.091  34.700  12.606
84072W        W56497  15.324  35.371   3.682
84073W        W56498  38.601  41.817  12.611
84074W        W56499  35.468  40.239  13.870
84075W        W56500  40.958  30.505  12.176
84076W        W56501  14.354  37.423   2.447
84077W        W56502  33.169  30.287   1.722
84078W        W56503  42.799  16.165  11.488
84079W        W56504  42.536  26.277  14.274
84080W        W56505  40.319   8.519  13.285
84081W        W56506   2.515  43.340   1.859
84082W        W56507  27.078   8.229   0.740
84083W        W56508  32.829   3.462   3.535
84084W        W56509   0.284   4.778  10.738
84085W        W56510  11.616   3.303  14.841
84086W        W56511   4.996  43.655   0.811
84087W        W56512  31.309  19.059  14.823
84088W        W56513  21.060  43.788   4.045
84089W        W56514  28.023  23.499  11.647
84090W        W56515  27.394   3.384  13.267
84091W        W56516  10.189   5.866  12.705
84092W        W56517  44.425  12.432   3.636
84093W        W56518  21.704   4.510  13.288
84094W        W56519  29.890  43.504  12.410
84095W        W56520  33.696   3.497   2.813
84096W        W56521  23.233  30.541   0.673
84097W        W56522  18.588  20.453   3.840
84098W        W56523  41.451  33.956  12.492
84099W        W56524  27.261  16.415   1.894
84100W        W56525  32.013   0.995   3.557
84101W        W56526  17.951  43.763   1.696
84102W        W56527  17.671   9.527   3.993
84103W        W56528  33.316   8.826   2.725
84104W        W56529  31.383  24.715   0.402
84105W        W56530  12.918  40.890   2.272
84106W        W56531   2.330  21.662   1.277
84107W        W56532  34.283  35.594   0.294
84108W        W56533   9.648   9.273  11.097
84109W        W56534   1.420  40.747  12.710
84110W        W56535   8.202  26.175   2.287
84111W        W56536   3.381  32.588  13.614
84112W        W56537  22.214  21.166   2.296
84113W        W56538  26.790   9.789   1.964
84114W        W56539  16.459   1.311   4.166
84115W        W56540  35.068  27.207   3.056
84116W        W56541   7.226  40.325  14.866
84117W        W56542  22.765  13.075   0.763
84118W        W56543  13.902   4.726  11.705
84119W        W56544  22.590   6.274   0.980
84120W        W56545  24.452   3.785  14.109
84121W        W56546   4.398  29.595  13.358
84122W        W56547  33.819  18.743   3.219
84123W        W56548  22.024  14.119  11.580
84124W        W56549  30.998  43.900  11.365
84125W        W56550  42.923  15.075  10.238
84126W        W56551   6.381  10.355  12.648
84127W        W56552  13.145  24.772   4.304
84128W        W56553  29.359  14.478  14.454
84129W        W56554  17.305  20.227  12.134
84130W        W56555  41.900  17.629  11.184
84131W        W56556   8.181   3.626   4.318
84132W        W56557  34.387  25.157   1.011
84133W        W56558  13.779  32.434  14.855
84134W        W56559  11.769  19.027   0.564
84135W        W56560  44.901   5.589   3.223
84136W        W56561  41.410   9.166  13.951
84137W        W56562   4.203  10.105   1.214
84138W        W56563  15.319  26.522   3.857
84139W        W56564  40.055   1.870  12.383
84140W        W56565  18.174  33.552  11.542
84141W        W56566  24.959   1.303  11.262
84142W        W56567   7.743   8.758  10.738
84143W        W56568  13.706  27.705  14.554
84144W        W56569  44.064  13.287   0.917
84145W        W56570  11.460  42.891   9.844
84146W        W56571  44.787   2.414  14.239
84147W        W56572   4.873  17.821  11.921
84148W        W56573  24.164   9.676  10.769
84149W        W56574   1.872   7.165  11.282
84150W        W56575  42.980  18.454  14.984
84151W        W56576  39.430  22.639   3.953
84152W        W56577  12.941  28.033   3.707
84153W        W56578  44.342  44.283  10.089
84154W        W56579  44.048   1.626  14.793
84155W        W56580  35.216  23.637  10.318
84156W        W56581  11.624   4.351   0.720
84157W        W56582   0.758   4.417   0.821
84158W        W56583  29.514   5.961  13.881
84159W        W56584  14.543  39.358  12.009
84160W        W56585  37.998  29.079  11.529
84161W        W56586   8.790  33.970   4.602
84162W        W56587  36.924   7.656  12.621
84163W        W56588  38.565  19.222   1.660
84164W        W56589   2.865  26.244   1.516
84165W        W56590   4.859  33.053   1.760
84166W        W56591  15.775  16.262   1.286
84167W        W56592  34.171  35.130  14.297
84168W        W56593   8.333  22.630   0.804
84169W        W56594  14.660   9.253  14.557
84170W        W56595  44.938  21.473  15.000
84171W        W56596  42.027   8.259   2.083
84172W        W56597  38.197  22.972  11.452
84173W        W56598  37.543  32.800   3.107
84174W        W56599   8.473  20.122  14.413
84175W        W56600   8.892   2.293   1.444
84176W        W56601   9.889  25.663  11.862
84177W        W56602  11.806  11.254   2.883
84178W        W56603  32.984  30.365  11.536
84179W        W56604   1.495  26.800  11.431
84180W        W56605  22.739  15.197   0.580
84181W        W56606  42.140  39.347  12.425
84182W        W56607  10.208   9.377   5.047
84183W        W56608  12.179  22.336   1.958
84184W        W56609   4.829   6.735  11.365
84185W        W56610  41.578  13.064  10.722
84186W        W56611  41.998  42.016  13.500
84187W        W56612  26.421  23.589  13.494
84188W        W56613   2.917  25.351   0.965
84189W        W56614  11.136   9.358   2.752
84190W        W56615   9.335   0.805   3.647
84191W        W56616  37.958   7.271   1.273
84192W        W56617  30.531  11.744   3.110
84193W        W56618  15.015  24.843  12.953
84194W        W56619  41.846  18.716   5.057
84195W        W56620  44.558  15.006  14.347
84196W        W56621  18.485   7.342   2.360
84197W        W56622   4.218  15.407   3.189
84198W        W56623  37.546  25.909   4.109
84199W        W56624  39.840  41.511   5.329
84200W        W56625   1.808  17.747   3.635
84201W        W56626   2.435  41.356   4.735
84202W        W56627  24.015  39.397  14.724
84203W        W56628  44.820  40.599   2.838
84204W        W56629   6.441  39.117  14.467
84205W        W56630  32.317  37.875  10.754
84206W        W56631   1.948  40.639   3.572
84207W        W56632  27.728  39.771   0.529
84208W        W56633  12.030  40.851  10.291
84209W        W56634  15.674  44.667  14.334
84210W        W56635  32.132  39.560   0.968
84211W        W56636  44.055  31.386  13.866
84212W        W56637  15.193  28.691   1.329
84213W        W56638  40.400  42.471  12.915
84214W        W56639  29.024  25.987   4.043
84215W        W56640   2.216  10.332   4.410
84216W        W56641  28.655   4.883  13.531
84217W        W56642  28.436  38.827   3.282
84218W        W56643  43.032  11.782   2.201
84219W        W56644   2.589  42.083  11.539
84220W        W56645   2.657  31.975   3.879
84221W        W56646  28.050  41.670  13.789
84222W        W56647   0.499   8.674  12.487
84223W        W56648  21.121  39.421   0.714
84224W        W56649  13.197  28.886  11.062
84225W        W56650  28.376  28.442   0.454
84226W        W56651  37.970  38.999  10.252
84227W        W56652  34.823  24.107   5.165
84228W        W56653   6.228   2.058  13.373
84229W        W56654  29.486  14.372   4.143
84230W        W56655  21.301  16.090  12.154
84231W        W56656  35.415  25.857  14.934
84232W        W56657  26.059   9.659   4.081
84233W        W56658  44.684  40.817   0.912
84234W        W56659  16.572   4.778   2.850
84235W        W56660  39.599  14.131  11.464
84236W        W56661  44.743   4.432  13.354
84237W        W56662  23.692  20.118   4.711
84238W        W56663   2.410  22.305  13.949
84239W        W56664  33.060  22.465   0.826
84240W        W56665  19.413   3.015  14.216
84241W        W56666  33.747   1.415  12.032
84242W        W56667   0.215  41.469   0.495
84243W        W56668   1.327  24.116  10.847
84244W        W56669  18.576  40.506  11.251
84245W        W56670   7.716  34.943  14.043
84246W        W56671  14.647  14.201  12.100
84247W        W56672  29.069  34.030   3.656
84248W        W56673  41.879  30.919   2.435
84249W        W56674  10.204  13.549   2.742
84250W        W56675  13.245  36.083  14.715
84251W        W56676  20.642  20.445  14.483
84252W        W56677   4.856  36.228  14.985
84253W        W56678   0.026  22.872  14.135
84254W        W56679  39.216  23.218   1.981
84255W        W56680  39.485  36.411   2.322
84256W        W56681   0.498  33.423   0.367
84257W        W56682   9.043  41.892  14.591
84258W        W56683  16.311  14.117  12.510
84259W        W56684  10.710  36.407  13.293
84260W        W56685   2.432   8.772   0.320
84261W        W56686  34.813  14.876   3.119
84262W        W56687  30.218  40.837  12.444
84263W        W56688  33.470  26.701  12.099
84264W        W56689  10.222  24.458  10.650
84265W        W56690  30.949   6.108   4.823
84266W        W56691  16.292  44.907  13.598
84267W        W56692  14.826  22.043   5.200
84268W        W56693  12.109  41.333   0.476
84269W        W56694  30.561  35.437   3.855
84270W        W56695   3.525  38.961  10.251
84271W        W56696  14.621  41.217  14.346
84272W        W56697  13.767  40.022   3.805
84273W        W56698   8.016  24.333  12.081
84274W        W56699  34.362  22.224  12.958
84275W        W56700  39.997  22.958   3.359
84276W        W56701  12.678  41.309   3.435
84277W        W56702  38.567   5.803  11.085
84278W        W56703  32.619   8.724  12.567
84279W        W56704  27.297  33.470  10.988
84280W        W56705  42.425  18.602   3.240
84281W        W56706   0.025  36.579   2.005
84282W        W56707  13.599  13.124  11.199
84283W        W56708  35.488  42.048  13.337
84284W        W56709  33.396  30.908   1.262
84285W        W56710  38.772  17.330  12.523
84286W        W56711  25.670   4.210   2.843
84287W        W56712   8.276   2.703  11.595
84288W        W56713  41.590  20.136   2.324
84289W        W56714   6.208  40.927  11.981
84290W        W56715  21.790  34.339  10.588
84291W        W56716  35.071  37.860   0.466
84292W        W56717  21.981  21.075  14.461
84293W        W56718  44.270   8.156  14.363
84294W        W56719  12.178  21.381   1.798
84295W        W56720  32.959  33.527  13.905
84296W        W56721  17.017  35.517   2.563
84297W        W56722  34.837  11.093   2.770
84298W        W56723  29.667  32.107   3.492
84299W        W56724   8.454  39.793   2.338
84300W        W56725  19.500   9.428  14.355
84301W        W56726  14.226  42.433  11.800
84302W        W56727  15.729  13.522  14.424
84303W        W56728  38.421  24.592  12.449
84304W        W56729  14.178  41.747  13.127
84305W        W56730   2.070  18.190   4.215
84306W        W56731  15.829  25.212   0.386
84307W        W56732  44.081  27.822   2.700
84308W        W56733  12.219  28.714  11.378
84309W        W56734   3.337  23.609   2.372
84310W        W56735   5.026  13.843  13.849
84311W        W56736  27.258  32.767  13.426
84312W        W56737  19.060   0.873   3.164
84313W        W56738   2.299   8.297  12.075
84314W        W56739  27.190  27.895  10.601
84315W        W56740   6.389   5.606   1.073
84316W        W56741  25.486   6.296  14.825
84317W        W56742   4.390  28.450  11.989
84318W        W56743  43.200  42.346   2.185
84319W        W56744  20.707  37.870  12.287
84320W        W56745  42.904   6.604  14.946
84321W        W56746  37.979   4.688  13.166
84322W        W56747  43.025  13.538  11.258
84323W        W56748   5.221   7.897   2.865
84324W        W56749  16.586  32.379  11.577
84325W        W56750  10.292  35.540   5.131
84326W        W56751  19.229  29.626  13.993
84327W        W56752  17.119  18.270   2.869
84328W        W56753   9.330  36.834   2.975
84329W        W56754  44.381  28.634  11.123
84330W        W56755  39.608  32.140  14.992
84331W        W56756   2.906   0.209   2.700
84332W        W56757  31.287   3.421   2.690
84333W        W56758  16.691  44.459   3.585
84334W        W56759  28.313  18.188   2.617
84335W        W56760  25.206   2.338  11.516
84336W        W56761  24.989   0.893   1.166
84337W        W56762  38.097  42.440  10.587
84338W        W56763   5.392  37.056  10.312
84339W        W56764  21.253  44.930  14.244
84340W        W56765  11.713  10.525   2.365
84341W        W56766  44.194   9.102   4.529
84342W        W56767  24.324  26.537   1.279
84343W        W56768   5.917  21.271   3.773
84344W        W56769  40.068  42.178  14.054
84345W        W56770  22.214  37.320  13.283
84346W        W56771  10.700  31.589  10.817
84347W        W56772  39.225   6.262   3.129
84348W        W56773  33.465   2.809   3.867
84349W        W56774  27.093  43.919   0.479
84350W        W56775  33.178  26.597   1.824
84351W        W56776  32.838  41.166   0.366
84352W        W56777   4.736  41.762  10.568
84353W        W56778   1.727  11.756  13.677
84354W        W56779   4.663  25.474  12.582
84355W        W56780  38.120  17.239   1.727
84356W        W56781   2.285  20.567   4.578
84357W        W56782   7.069   1.357  10.467
84358W        W56783   8.941   0.431  13.932
84359W        W56784  28.448  33.649   5.320
84360W        W56785  17.762  27.412   3.708
84361W        W56786  25.883   3.310   4.539
84362W        W56787   1.413  26.172   1.649
84363W        W56788  27.789  36.619  12.715
84364W        W56789  28.982  11.592   4.884
84365W        W56790   1.376  30.767   2.648
84366W        W56791  32.688  37.493  13.522
84367W        W56792   0.126  12.864   5.215
84368W        W56793  27.689  37.293  12.925
84369W        W56794  29.547   6.409   4.531
84370W        W56795   9.089  11.731   4.898
84371W        W56796  43.937  29.190   0.402
84372W        W56797  39.914  39.313  14.494
84373W        W56798  35.337  34.611   0.315
84374W        W56799  16.799  38.383   1.431
84375W        W56800  25.923  24.101  11.875
84376W        W56801  23.957  13.718  12.557
84377W        W56802  10.838  22.232  12.981
84378W        W56803  35.444  42.584   5.162
84379W        W56804   2.081  31.122   2.263
84380W        W56805  18.134  44.349   2.842
84381W        W56806   7.975   5.935  11.815
84382W        W56807  26.749  24.115  14.329
84383W        W56808  20.458  25.619  12.017
84384W        W56809  33.928  30.053   4.223
84385W        W56810   4.711  25.172  14.859
84386W        W56811  17.789   6.738  13.892
84387W        W56812  25.517  38.936  14.308
84388W        W56813  32.036   1.522   3.317
84389W        W56814  17.387  10.078   0.704
84390W        W56815   2.288   8.343   3.631
84391W        W56816  26.861  32.936   1.217
84392W        W56817  23.088  23.170   0.608
84393W        W56818  35.861   4.368  11.387
84394W        W56819  37.558   1.461  13.487
84395W        W56820  15.392  21.180  12.943
84396W        W56821  44.986   6.832   3.806
84397W        W56822   7.676  18.753  13.063
84398W        W56823   3.174  40.961  14.295
84399W        W56824  35.663   5.774   2.528
84400W        W56825  13.114  24.693  12.443
84401W        W56826  37.500  42.043   3.271
84402W        W56827  40.813  22.325   1.398
84403W        W56828   7.795  31.492   0.210
84404W        W56829  44.809  40.755   2.241
84405W        W56830  23.653  44.359  13.789
84406W        W56831   1.819  35.880   0.778
84407W        W56832  11.605  24.082  14.130
84408W        W56833  22.285  31.889   0.461
84409W        W56834   8.290  22.252  11.915
84410W        W56835  38.917   6.487  13.492
84411W        W56836  15.221   8.563   4.022
84412W        W56837  15.302  43.449   0.476
84413W        W56838   7.924   9.706   1.374
84414W        W56839  34.228   0.146  12.341
84415W        W56840  11.759   5.322  10.696
84416W        W56841   3.362   8.907   1.779
84417W        W56842   1.663  30.441  14.903
84418W        W56843   8.300   5.433   1.211
84419W        W56844  17.656  30.172   9.665
84420W        W56845  28.626   3.502   2.945
84421W        W56846  12.787  37.541   2.923
84422W        W56847  34.068  23.523   2.946
84423W        W56848  16.795  25.098   0.234
84424W        W56849  34.467  43.495   4.219
84425W        W56850  17.201  18.327   0.703
84426W        W56851   3.380   8.766  10.650
84427W        W56852  34.184  22.835   1.820
84428W        W56853  30.874  26.703  13.448
84429W        W56854  35.347  12.646   2.982
84430W        W56855  26.593   7.487  14.075
84431W        W56856  38.499  18.726   1.922
84432W        W56857   9.127  20.013   4.137
84433W        W56858  44.449  15.664  14.254
84434W        W56859  15.134  34.962  11.355
84435W        W56860  40.812   1.190   3.256
84436W        W56861  27.112   2.052   3.274
84437W        W56862  44.931  17.819   2.202
84438W        W56863  17.064   0.522  11.413
84439W        W56864  19.565   5.434  12.496
84440W        W56865   3.565  44.798   1.825
84441W        W56866  26.108  41.267   3.617
84442W        W56867   0.306  33.534   4.207
84443W        W56868  11.174  25.613   2.375
84444W        W56869  30.633  19.562  14.574
84445W        W56870   5.008  17.631   3.080
84446W        W56871  43.880  23.291   0.474
84447W        W56872  13.510  43.265  14.665
84448W        W56873  35.156  43.070  12.491
84449W        W56874   5.183  11.883   4.541
84450W        W56875  33.028   5.182   1.758
84451W        W56876  40.830  36.998  11.097
84452W        W56877  36.695  38.923  13.579
84453W        W56878  41.349  12.374  13.571
84454W        W56879   4.073  33.193   3.925
84455W        W56880  11.028  34.994   4.376
84456W        W56881  11.849  21.601   3.414
84457W        W56882  35.783  25.512  13.336
84458W        W56883  34.513  33.737  13.969
84459W        W56884   3.941  25.192   5.076
84460W        W56885  21.622  33.647   0.807
84461W        W56886  44.334  23.512   1.855
84462W        W56887  31.131  38.824  14.683
84463W        W56888  22.721   0.727  12.900
84464W        W56889  32.399  32.989  13.612
84465W        W56890  12.813  20.341   1.312
84466W        W56891   1.994   7.732   1.352
84467W        W56892  24.552  19.829  10.401
84468W        W56893  17.298  32.699  12.114
84469W        W56894  34.311  39.552   1.329
84470W        W56895   9.909  40.218  14.030
84471W        W56896  22.465  15.690  13.381
84472W        W56897  34.064  25.909   2.723
84473W        W56898   5.412  30.744   2.699
84474W        W56899  23.588   6.954  11.114
84475W        W56900   0.255  20.223   4.822
84476W        W56901   6.432  12.186   4.630
84477W        W56902  38.215  13.486   1.455
84478W        W56903  36.451   9.451   1.030
84479W        W56904  26.165   9.569   4.948
84480W        W56905  12.107   3.242  12.836
84481W        W56906   3.428  44.392  13.868
84482W        W56907  43.363  25.969   1.707
84483W        W56908  24.970  25.561   0.532
84484W        W56909  16.112  28.992  13.742
84485W        W56910  29.681  32.908   2.414
84486W        W56911   1.324  35.031   4.568
84487W        W56912  36.851   8.057   0.938
84488W        W56913   2.888  39.979  14.746
84489W        W56914  20.716  43.401   0.381
84490W        W56915  17.339  30.570   2.682
84491W        W56916  37.795  39.955   0.794
84492W        W56917  14.561  31.362  13.030
84493W        W56918   7.193   0.959   3.635
84494W        W56919  25.623  25.181  10.598
84495W        W56920  42.466   8.828   4.945
84496W        W56921  32.037  18.479  13.236
84497W        W56922  37.000  39.721  13.574
84498W        W56923   6.937  33.937  12.916
84499W        W56924  26.337  32.443  14.744
84500W        W56925  17.481  10.802   3.926
84501W        W56926  18.800   2.515   1.241
84502W        W56927  23.012  43.711  13.307
84503W        W56928   0.333  44.932   0.737
84504W        W56929  17.090   0.284  11.940
84505W        W56930  11.932  21.228  11.656
84506W        W56931  44.282   9.100   1.873
84507W        W56932  33.223  33.679  11.514
84508W        W56933  37.647  22.394  11.963
84509W        W56934  12.189  29.970   0.667
84510W        W56935  38.874   6.807  12.043
84511W        W56936  39.339  14.225  12.584
84512W        W56937  33.410  22.053  11.360
84513W        W56938  20.948  12.067  11.115
84514W        W56939  32.485  43.907   4.411
84515W        W56940  20.330   7.953   2.228
84516W        W56941  10.080  31.652  12.497
84517W        W56942  28.674   0.434  10.690
84518W        W56943  24.180  19.539  13.690
84519W        W56944   9.331  18.049   1.681
84520W        W56945   1.463  39.290   2.194
84521W        W56946  28.601  25.713   3.867
84522W        W56947  24.254  39.901  14.789
84523W        W56948  43.413  17.616   0.807
84524W        W56949  32.134  13.107   4.210
84525W        W56950  28.154   6.647  12.303
84526W        W56951  31.121  21.969   2.385
84527W        W56952  44.895  41.772  10.886
84528W        W56953  31.856  25.726   2.198
84529W        W56954  29.208  32.438  12.971
84530W        W56955  19.916  18.074  12.428
84531W        W56956  20.189  29.849   2.670
84532W        W56957  44.554  43.350  12.473
84533W        W56958   2.325  41.642  12.517
84534W        W56959  33.306   4.252   2.362
84535W        W56960   5.227   1.338  11.958
84536W        W56961  43.492  39.112   3.744
84537W        W56962  34.509   7.510   3.706
84538W        W56963  23.678  32.093   4.599
84539W        W56964  31.563  29.091   0.492
84540W        W56965   6.248  40.403  12.122
84541W        W56966  16.726  22.413  12.963
84542W        W56967  14.187  36.120   1.516
84543W        W56968   7.602   1.020   3.348
84544W        W56969  13.962   7.345  14.469
84545W        W56970  34.135  26.049   1.931
84546W        W56971  20.344  38.430   2.818
84547W        W56972  44.355  27.407  10.586
84548W        W56973  40.700  44.782   3.665
84549W        W56974  36.636  33.167   0.779
84550W        W56975  21.160   4.837  13.887
84551W        W56976  24.559  13.127  14.302
84552W        W56977  27.856  19.740  11.566
84553W        W56978  38.974   2.447  11.065
84554W        W56979   4.579  15.312  10.648
84555W        W56980  30.894  18.991  13.600
84556W        W56981  39.973  34.434  14.530
84557W        W56982  37.977   2.166   3.683
84558W        W56983  43.783  26.530   1.283
84559W        W56984  33.136  33.393  14.392
84560W        W56985  25.105  38.584  13.580
84561W        W56986  22.671  17.027   0.065
84562W        W56987   9.457  11.580  12.979
84563W        W56988  43.911  34.136   2.917
84564W        W56989  17.524  16.260   0.042
84565W        W56990  21.190  32.949  10.713
84566W        W56991  38.459  16.144   4.568
84567W        W56992   8.015   8.483   2.666
84568W        W56993  16.763  43.001   1.858
84569W        W56994  24.225  42.306   3.676
84570W        W56995   8.303   2.077   2.857
84571W        W56996  29.260  40.613   0.637
84572W        W56997  18.598  43.083  11.930
84573W        W56998   5.805  44.713   4.093
84574W        W56999  12.477  35.361  11.377
84575W        W57000  37.637  24.697   2.503
84576W        W57001  34.468  37.578  13.584
84577W        W57002  18.276   6.836  13.779
84578W        W57003  40.172  39.893  12.881
84579W        W57004  41.742  33.444  11.555
84580W        W57005  26.998   3.699   1.252
84581W        W57006  16.837  19.719   2.724
84582W        W57007  18.696  22.152  11.443
84583W        W57008   3.684  19.166   3.632
84584W        W57009   7.458  29.858   4.200
84585W        W57010  28.221  13.173  12.520
84586W        W57011   7.869  15.616   0.459
84587W        W57012  14.796  42.035  10.690
84588W        W57013  23.157   9.044   1.265
84589W        W57014  23.041  30.651   0.181
84590W        W57015  23.751  42.524  13.042
84591W        W57016  38.094  28.434  11.164
84592W        W57017  19.494  10.903   3.411
84593W        W57018  10.798  32.582   4.722
84594W        W57019  21.794  34.831   0.036
84595W        W57020  41.187  18.293   3.383
84596W        W57021   2.474  26.185   0.071
84597W        W57022  40.521  44.381   0.527
84598W        W57023   1.812  20.845   4.620
84599W        W57024  22.744   6.875  11.914
84600W        W57025  30.630  34.040   4.127
84601W        W57026  38.571  21.231  14.456
84602W        W57027  37.496  40.282  14.007
84603W        W57028  16.832  21.067  14.383
84604W        W57029  17.242  21.103  14.682
84605W        W57030  26.649   9.274   2.912
84606W        W57031  22.939  28.508  14.891
84607W        W57032  35.983  36.296   4.094
84608W        W57033  37.506  11.223   1.391
84609W        W57034  39.988   5.766   1.265
84610W        W57035   5.165  42.488   3.615
84611W        W57036  31.917  14.809   4.859
84612W        W57037  18.215  37.281  11.653
84613W        W57038  14.327  21.493  13.473
84614W        W57039  34.404  19.589  11.213
84615W        W57040  40.444  16.058  14.474
84616W        W57041   2.400  37.380  11.386
84617W        W57042  25.929  23.272   3.064
84618W        W57043  24.469  28.435  14.985
84619W        W57044  41.493  25.096   1.701
84620W        W57045   7.922   1.345   1.323
84621W        W57046  33.447  24.752   3.182
84622W        W57047   8.201  22.174   3.305
84623W        W57048  44.065   0.533  12.520
84624W        W57049  35.618  39.820  12.961
84625W        W57050  39.388   1.654  13.416
84626W        W57051  29.735  18.108  11.956
84627W        W57052  17.851  22.172  14.638
84628W        W57053  20.794  19.840  10.953
84629W        W57054  39.547  29.596  13.988
84630W        W57055   7.882  17.079   1.217
84631W        W57056  10.424   3.404  11.020
84632W        W57057   8.706  36.616  14.351
84633W        W57058  25.687  13.043   2.839
84634W        W57059  10.651  37.273  10.743
84635W        W57060  14.651  41.129  12.463
84636W        W57061  41.289  37.968   4.645
84637W        W57062  40.212  19.783   3.358
84638W        W57063   9.091  32.647  12.891
84639W        W57064   2.227  32.849  13.848
84640W        W57065  41.049  41.567   0.762
84641W        W57066  15.689  28.562   1.001
84642W        W57067  39.694  18.233  12.050
84643W        W57068  17.706  44.983  14.929
84644W        W57069   1.853  39.435  12.589
84645W        W57070  41.657  29.971  13.471
84646W        W57071  20.699   5.725   2.533
84647W        W57072  26.282  37.486  12.596
84648W        W57073  10.117  18.632  11.152
84649W        W57074  20.928  35.444   0.741
84650W        W57075  37.041  20.973  11.030
84651W        W57076   7.824   7.245   0.033
84652W        W57077  39.754  35.150  11.143
84653W        W57078  44.290  34.655  13.610
84654W        W57079  27.562  19.121  14.704
84655W        W57080  26.900  10.622   4.350
84656W        W57081   7.869  15.916  12.891
84657W        W57082  18.531  41.236   1.587
84658W        W57083  25.542  34.514  14.524
84659W        W57084  13.205  31.108  11.592
84660W        W57085   9.221  35.442  11.124
84661W        W57086  28.779  30.764  10.347
84662W        W57087  35.353   1.299  13.909
84663W        W57088  40.856   9.172  13.016
84664W        W57089  17.146  24.764  10.653
84665W        W57090  43.341  29.207  14.745
84666W        W57091  20.055   9.757  10.505
84667W        W57092   1.080  41.693  12.777
84668W        W57093  11.225  25.942   1.831
84669W        W57094  22.926  21.187  12.939
84670W        W57095  28.422   9.126   2.301
84671W        W57096  19.373   5.347   2.664
84672W        W57097  37.354  40.943   2.154
84673W        W57098  21.311  25.744  11.625
84674W        W57099  10.799  30.569   2.815
84675W        W57100  19.596  17.889  12.010
84676W        W57101  15.666  41.239  13.417
84677W        W57102   0.286  14.600  12.295
84678W        W57103  26.542  38.757   3.120
84679W        W57104  30.030  12.234  12.650
84680W        W57105  14.520  36.737  14.313
84681W        W57106  29.721  33.039   3.736
84682W        W57107  39.105  10.259   4.516
84683W        W57108  44.343  16.621  10.663
84684W        W57109  20.194  43.398   0.803
84685W        W57110   0.911  14.262   0.268
84686W        W57111   1.415   0.287  13.851
84687W        W57112  35.934  34.131  14.006
84688W        W57113  35.449  26.563  10.568
84689W        W57114  34.366  14.885   0.136
84690W        W57115  11.322  33.505  13.674
84691W        W57116  10.872  22.573  14.409
84692W        W57117  19.460  31.877  14.403
84693W        W57118  37.611  15.812   1.505
84694W        W57119  13.705   7.826   4.605
84695W        W57120  40.562  15.678  12.500
84696W        W57121  26.517  20.297  11.062
84697W        W57122  30.648   5.865   2.175
84698W        W57123   9.098  38.831  13.435
84699W        W57124  16.068  11.268  14.937
84700W        W57125   2.979  42.942   1.532
84701W        W57126  43.233  21.548   1.739
84702W        W57127  11.873   0.430   1.303
84703W        W57128   3.081   7.291   3.857
84704W        W57129  10.073  37.576  12.584
84705W        W57130  41.230  37.318   3.748
84706W        W57131  37.368  16.378   3.207
84707W        W57132  37.118  30.557   3.650
84708W        W57133   4.885  42.027  10.984
84709W        W57134  33.061  14.118  11.417
84710W        W57135   7.629   2.375  11.872
84711W        W57136  29.480  28.540   0.926
84712W        W57137  32.637  12.540  14.846
84713W        W57138  20.005  10.763   4.248
84714W        W57139  41.783  11.286  12.805
84715W        W57140   8.835  17.301  11.188
84716W        W57141  30.588  35.935   0.680
84717W        W57142   1.165  21.053   3.126
84718W        W57143  18.990  38.918   5.050
84719W        W57144  10.027  26.487   2.676
84720W        W57145   2.324  37.483   4.640
84721W        W57146  31.444  43.499  10.953
84722W        W57147  17.786   1.415   0.930
84723W        W57148  18.018  42.546   2.502
84724W        W57149  17.628  13.140   4.427
84725W        W57150  36.367  24.521  10.201
84726W        W57151  14.006  38.938  13.599
84727W        W57152  22.731  38.275  12.253
84728W        W57153  41.321  40.258  10.714
84729W        W57154   1.205  43.530  12.845
84730W        W57155  39.311   9.865  12.518
84731W        W57156  10.072  39.060   1.162
84732W        W57157  37.588  28.362  11.043
84733W        W57158   4.048  18.859  14.161
84734W        W57159  29.043  26.721  13.582
84735W        W57160   7.800  43.556  12.996
84736W        W57161  32.937  28.063   1.800
84737W        W57162  23.584   5.768   4.615
84738W        W57163   6.494   9.355  11.646
84739W        W57164  21.557  29.176  13.119
84740W        W57165   6.342  38.649  13.463
84741W        W57166  44.045  17.175  13.233
84742W        W57167   6.277  31.960   2.175
84743W        W57168  28.123  29.952  12.633
84744W        W57169   6.392  23.992  14.322
84745W        W57170  13.653   1.493  13.512
84746W        W57171  15.127  23.303  14.484
84747W        W57172   9.333  26.638  12.544
84748W        W57173   1.544   2.009  13.036
84749W        W57174  40.190  24.269  14.862
84750W        W57175  43.516  38.978   4.827
84751W        W57176  32.577  35.396   3.133
84752W        W57177  22.089  33.690  13.063
84753W        W57178   5.234  29.183   4.122
84754W        W57179  14.194  17.723  12.543
84755W        W57180   2.298  20.768  10.776
84756W        W57181  32.353  10.605  14.335
84757W        W57182  27.910   2.414   1.726
84758W        W57183  35.277   2.396   4.658
84759W        W57184  18.624  16.990  10.503
84760W        W57185  18.248  39.266   4.021
84761W        W57186  34.342  11.242  12.181
84762W        W57187   7.994  26.498   4.585
84763W        W57188  19.483  32.587   4.576
84764W        W57189  21.453  41.339  11.179
84765W        W57190  30.972  15.295   1.991
84766W        W57191  41.936   3.157   3.007
84767W        W57192   4.945   0.369   2.632
84768W        W57193  27.924  44.204   3.332
84769W        W57194   7.475  33.839  11.643
84770W        W57195   7.864  12.183  12.461
84771W        W57196  24.931  16.357   0.152
84772W        W57197  17.708  36.373   3.218
84773W        W57198  29.652  27.132   3.193
84774W        W57199  44.801  16.905  11.904
84775W        W57200  19.706   0.991   1.198
84776W        W57201  41.312   8.672   0.021
84777W        W57202   0.351  42.993   1.683
84778W        W57203  31.511  40.817   4.721
84779W        W57204   1.902  19.254   0.474
84780W        W57205   1.812  34.110  12.845
84781W        W57206   1.382  41.889   4.693
84782W        W57207  35.577  17.820  11.330
84783W        W57208  24.080  30.447   0.366
84784W        W57209  14.722  43.437   3.273
84785W        W57210  35.872   1.873  10.746
84786W        W57211   5.310   3.382   2.596
84787W        W57212  14.300  40.130  14.376
84788W        W57213  37.895  21.771   4.184
84789W        W57214   5.296  40.492   4.738
84790W        W57215  38.791   9.793  12.580
84791W        W57216  32.986  39.137   3.780
84792W        W57217  38.059  13.961  13.229
84793W        W57218  23.152   6.102   0.386
84794W        W57219   6.680  18.123  13.391
84795W        W57220  34.567  15.343  13.501
84796W        W57221  22.755  17.665   4.052
84797W        W57222  35.936  21.190   3.562
84798W        W57223   9.685  32.181   4.257
84799W        W57224  30.421  10.566   0.933
84800W        W57225  18.756   1.277  14.257
84801W        W57226   6.395   8.954  13.281
84802W        W57227  32.450  17.452  12.947
84803W        W57228   6.064   5.175  13.956
84804W        W57229   5.793  32.608   0.798
84805W        W57230  31.284   7.098   2.801
84806W        W57231  36.159  35.124  13.328
84807W        W57232  26.152  25.923  12.462
84808W        W57233  39.798  13.569   4.603
84809W        W57234  22.594  24.310   3.156
84810W        W57235  28.651  34.192   0.973
84811W        W57236   6.243  26.035   1.823
84812W        W57237  18.749   4.528   0.899
84813W        W57238  29.215  38.010  14.208
84814W        W57239  37.338  29.027   0.250
84815W        W57240  11.265  21.320  12.002
84816W        W57241  20.727  32.344  10.664
84817W        W57242  17.109  32.173  14.203
84818W        W57243  29.968  30.986   2.924
84819W        W57244  21.300  44.857   2.343
84820W        W57245   6.426   3.669  13.171
84821W        W57246  18.679   2.794  11.495
84822W        W57247  17.333   7.673   4.267
84823W        W57248   5.335   8.266   1.092
84824W        W57249  41.718   7.776   4.621
84825W        W57250  10.320  37.950  11.896
84826W        W57251   2.779   5.265   3.313
84827W        W57252  37.315  25.899   4.760
84828W        W57253  19.128  12.436   0.405
84829W        W57254  10.258  33.374   0.904
84830W        W57255   6.719  18.248  14.347
84831W        W57256   0.910  20.072   0.674
84832W        W57257  28.658  26.835   0.849
84833W        W57258  15.666  28.052  12.167
84834W        W57259  16.577  24.144  13.388
84835W        W57260   9.355  21.719   1.997
84836W        W57261   6.414  14.338   3.296
84837W        W57262  41.395  39.339   4.155
84838W        W57263   6.902   5.390   2.658
84839W        W57264  30.335  41.385   0.190
84840W        W57265  36.491  14.650  13.834
84841W        W57266  35.464  28.224  12.038
84842W        W57267   4.032   8.681  11.255
84843W        W57268  40.141   0.984  11.486
84844W        W57269  42.330  41.932  13.891
84845W        W57270  28.642  31.056   4.736
84846W        W57271  41.989  15.233   1.958
84847W        W57272  10.940  13.713  11.334
84848W        W57273  13.170  36.536   1.815
84849W        W57274   6.136  29.427  12.450
84850W        W57275  38.391  40.990  10.457
84851W        W57276  38.762  22.200  13.162
84852W        W57277  13.555  32.194   2.939
84853W        W57278  43.810  21.232  13.314
84854W        W57279  26.164  18.683   0.218
84855W        W57280  24.059   9.405   3.726
84856W        W57281   2.740  36.682   4.529
84857W        W57282  18.849  40.800   4.650
84858W        W57283  11.163  23.046   3.148
84859W        W57284  36.480   8.840  13.905
84860W        W57285  16.190  20.189   1.170
84861W        W57286  38.534  37.315  12.955
84862W        W57287  21.627  30.393  11.523
84863W        W57288  35.090  21.599  14.151
84864W        W57289  32.957  42.440   0.741
84865W        W57290   2.493  31.914  11.615
84866W        W57291  15.652  25.882  13.906
84867W        W57292  26.769  42.536  14.398
84868W        W57293   0.484   4.049  13.923
84869W        W57294  24.958  34.148   0.285
84870W        W57295  16.926  40.955   2.868
84871W        W57296  36.941  14.486   2.401
84872W        W57297  34.385  44.172  12.085
84873W        W57298   0.491  20.749  11.832
84874W        W57299  15.822  33.392  14.060
84875W        W57300  25.409  15.621   0.758
84876W        W57301  36.794   9.240   2.689
84877W        W57302   7.085  38.186  12.493
84878W        W57303   0.963   0.468  10.545
84879W        W57304  22.743   8.721  10.594
84880W        W57305  13.263  19.176   4.122
84881W        W57306  24.199  12.295  12.899
84882W        W57307  33.618  29.846  12.698
84883W        W57308   7.310  42.262   4.699
84884W        W57309  28.080  34.034  12.858
84885W        W57310  26.563  18.051  11.542
84886W        W57311  18.518  39.985   3.560
84887W        W57312  13.618   4.744   1.815
84888W        W57313   0.049   4.447   1.389
84889W        W57314  25.652  39.371   3.339
84890W        W57315  39.994   0.264  14.841
84891W        W57316  25.036  27.939   1.940
84892W        W57317  40.407  21.010   1.256
84893W        W57318  27.579  39.448   2.963
84894W        W57319   1.199  34.702   0.432
84895W        W57320  24.609  32.609  14.750
84896W        W57321   8.075  33.113   0.028
84897W        W57322  27.852  29.920   2.778
84898W        W57323  13.138  26.447  13.691
84899W        W57324   9.426  36.055   3.272
84900W        W57325   9.754  34.749  11.386
84901W        W57326  29.134  40.888   4.565
84902W        W57327   2.182   5.239   4.044
84903W        W57328   1.467  22.231   2.781
84904W        W57329  22.115  29.165   0.520
84905W        W57330  34.478  29.159  10.963
84906W        W57331  30.434   9.384  13.972
84907W        W57332  22.347  11.332   2.154
84908W        W57333  34.119  44.322  14.568
84909W        W57334  39.542  29.329   3.962
84910W        W57335  23.988   5.331  12.868
84911W        W57336  15.366  16.051   0.839
84912W        W57337  18.286  21.822   3.960
84913W        W57338  21.210  38.032  12.909
84914W        W57339  43.485   7.511   4.198
84915W        W57340  22.729  32.084   4.660
84916W        W57341   2.726  32.619  14.077
84917W        W57342   1.282  25.112   1.805
84918W        W57343   6.734  24.019  11.045
84919W        W57344   1.503  10.763   3.249
84920W        W57345   4.204  25.628   3.597
84921W        W57346  17.128  15.155   4.597
84922W        W57347  29.384  44.905  14.760
84923W        W57348  25.626  36.854   1.134
84924W        W57349  32.104  16.589  11.009
84925W        W57350  34.588  39.339  10.721
84926W        W57351  38.041  21.012   1.159
84927W        W57352  44.009  37.423   9.927
84928W        W57353  38.945  39.726   0.549
84929W        W57354  37.659   0.340   0.333
84930W        W57355  21.676  25.492   1.015
84931W        W57356  12.976   4.615  13.872
84932W        W57357  22.974  27.064   3.956
84933W        W57358  38.919  19.971   3.684
84934W        W57359   3.682  44.873   3.857
84935W        W57360  32.516  17.611  11.541
84936W        W57361  10.258  38.419   0.314
84937W        W57362  22.560  32.650  10.262
84938W        W57363   8.319  30.374  14.603
84939W        W57364  13.372  23.577  13.987
84940W        W57365  19.625   8.946  14.305
84941W        W57366  43.477  20.876   4.575
84942W        W57367  38.032   2.656  11.228
84943W        W57368   2.119  42.405  11.993
84944W        W57369   7.192  30.923   4.553
84945W        W57370   4.839  23.243  11.654
84946W        W57371   6.921  22.002  12.538
84947W        W57372  24.243  11.617  13.361
84948W        W57373  13.632  11.074  13.023
84949W        W57374  17.732  17.596   3.140
84950W        W57375  34.981   4.222  13.265
84951W        W57376  17.501  40.793  14.007
84952W        W57377  25.721  38.919  10.710
84953W        W57378  28.892  15.722  13.475
84954W        W57379  29.472  21.528  14.874
84955W        W57380  18.682  35.186   0.474
84956W        W57381  19.009  10.201  11.866
84957W        W57382   3.368  16.350  11.509
84958W        W57383  18.687  12.349  12.118
84959W        W57384  23.341  27.676  12.872
84960W        W57385  39.510  41.143   2.854
84961W        W57386  21.111   7.299  12.230
84962W        W57387  20.096  17.497   3.400
84963W        W57388  42.985  15.577   1.407
84964W        W57389   3.444  27.887   2.004
84965W        W57390   0.895  32.439   3.761
84966W        W57391   6.658   9.140   0.994
84967W        W57392  25.871  16.828  13.374
84968W        W57393  26.974   3.789   3.269
84969W        W57394  15.574   7.922   0.882
84970W        W57395  16.730  35.078   0.371
84971W        W57396  23.969  34.719   3.639
84972W        W57397  29.046   5.835   3.566
84973W        W57398  29.868  44.893  14.935
84974W        W57399  12.948  38.825   4.707
84975W        W57400  44.849  29.437  14.505
84976W        W57401  35.842   2.250  14.004
84977W        W57402  26.928  29.694  11.155
84978W        W57403  31.159  38.984  11.618
84979W        W57404  24.141  25.510  12.636
84980W        W57405  11.158  13.005  14.598
84981W        W57406  16.405  12.200   4.124
84982W        W57407   3.247   6.191   2.412
84983W        W57408  36.799  39.031  11.084
84984W        W57409  40.152  23.773   1.459
84985W        W57410   1.472   8.348   0.415
84986W        W57411  36.108  20.272  11.845
84987W        W57412   7.774  33.977  12.555
84988W        W57413  18.904  27.889   1.508
84989W        W57414  24.658  12.818  11.535
84990W        W57415   3.100  33.040   3.196
84991W        W57416  10.275  38.704   2.131
84992W        W57417  36.437  16.082   2.750
84993W        W57418   8.929   3.780   4.227
84994W        W57419  39.991  36.657  12.405
84995W        W57420  32.331   7.064  12.605
84996W        W57421   8.898  36.558  13.486
84997W        W57422  28.935  20.982  11.840
84998W        W57423  16.560  33.145   3.644
84999W        W57424  14.405   5.902  11.253
85000W        W57425  14.643   9.334  10.897
85001W        W57426  40.536  18.710  13.318
85002W        W57427   3.203  25.635  13.546
85003W        W57428  21.572  43.509  13.085
85004W        W57429  14.471  20.099  14.540
85005W        W57430  16.119   8.890  10.608
85006W        W57431  32.973   1.224   3.093
85007W        W57432  28.416  41.294   3.267
85008W        W57433  35.328  22.514  10.966
85009W        W57434   8.043  29.439  13.889
85010W        W57435  18.923  28.520  11.377
85011W        W57436   5.619  21.297  14.856
85012W        W57437   6.428  19.394  11.966
85013W        W57438  38.908  25.444   2.531
85014W        W57439  12.836  22.019   4.311
85015W        W57440  26.549  11.541  11.610
85016W        W57441  36.749  23.014  11.392
85017W        W57442  37.900  23.760  10.662
85018W        W57443  13.139   1.014   1.052
85019W        W57444  23.045  34.385  11.185
85020W        W57445  43.146  41.468  10.327
85021W        W57446   1.564  43.253   4.045
85022W        W57447  26.451  44.407   4.704
85023W        W57448  32.990  13.188  11.854
85024W        W57449   3.171   5.487   4.265
85025W        W57450  19.244  17.634  12.980
85026W        W57451  20.193  32.109   1.155
85027W        W57452  40.790  21.350  14.353
85028W        W57453  42.544  17.087  11.891
85029W        W57454  12.221  42.382  11.052
85030W        W57455  38.951  16.318  13.063
85031W        W57456  20.956  11.174  12.394
85032W        W57457  15.264  21.475   0.195
85033W        W57458  37.065  38.082  14.469
85034W        W57459   3.299  32.550   2.909
85035W        W57460  42.594  37.408  12.479
85036W        W57461  11.212  31.285   1.004
85037W        W57462   2.520  36.953   3.177
85038W        W57463  29.636   2.388  14.752
85039W        W57464   8.723  34.679   1.705
85040W        W57465  17.269  34.376  13.923
85041W        W57466  31.643  11.688   0.933
85042W        W57467  24.236  37.466  12.385
85043W        W57468  27.120   8.311  10.754
85044W        W57469  29.134   8.441   0.453
85045W        W57470  17.683   2.465   0.743
85046W        W57471  32.646  23.294   3.295
85047W        W57472  32.791  35.886  13.831
85048W        W57473  39.347  17.996   0.263
85049W        W57474  10.169  43.238   3.311
85050W        W57475  31.374  32.635   1.252
85051W        W57476  36.424  16.870  12.017
85052W        W57477   3.258  32.649   1.896
85053W        W57478  31.520  16.557   4.780
85054W        W57479  10.397  41.853   1.699
85055W        W57480   3.471  36.974  14.819
85056W        W57481  25.312  39.414  14.277
85057W        W57482  15.593  13.280  13.823
85058W        W57483  44.861  44.725   4.678
85059W        W57484  17.077  33.883  13.934
85060W        W57485  18.757  17.434  13.116
85061W        W57486  29.250  24.386   3.280
85062W        W57487  42.712  41.877   1.052
85063W        W57488  10.321  16.111  12.907
85064W        W57489   7.845  13.861   4.377
85065W        W57490  43.235   3.205   0.657
85066W        W57491  38.349  34.494   2.813
85067W        W57492   3.478  42.564   0.929
85068W        W57493  43.374  36.466   0.033
85069W        W57494  23.563   5.419  14.988
85070W        W57495   6.439   8.620  10.439
85071W        W57496  43.923  21.202   2.760
85072W        W57497  41.015  21.307   9.799
85073W        W57498  17.154  26.293   3.554
85074W        W57499  34.754  17.268   1.247
85075W        W57500  24.038  21.403   3.721
85076W        W57501  43.349   2.542   1.385
85077W        W57502  11.127  25.935   0.863
85078W        W57503  23.545  15.762   0.958
85079W        W57504  16.161   3.524   0.449
85080W        W57505  33.587  18.547  11.077
85081W        W57506  36.910   1.057   3.825
85082W        W57507  21.352   9.740   5.017
85083W        W57508  35.440  39.184   1.395
85084W        W57509   0.368  31.884  12.782
85085W        W57510  22.000  43.859  11.026
85086W        W57511  39.278  16.070   1.468
85087W        W57512  19.430  28.481  11.467
85088W        W57513  14.157   2.334   1.751
85089W        W57514  22.889   0.667   2.031
85090W        W57515   9.764  26.445   0.956
85091W        W57516   1.686  34.130   2.796
85092W        W57517  25.156  16.522  13.876
85093W        W57518   0.596   6.451   1.244
85094W        W57519  10.934  15.583  11.542
85095W        W57520  28.435  26.122   4.155
85096W        W57521  29.159  41.065  14.205
85097W        W57522  20.367  21.593   3.376
85098W        W57523  37.211  12.067  12.573
85099W        W57524  16.457  23.315  13.419
85100W        W57525  36.349  21.056   0.241
85101W        W57526  42.090  14.110   4.023
85102W        W57527  25.022  37.620   4.238
85103W        W57528  27.422  32.462  10.554
85104W        W57529  41.876  39.900  11.226
85105W        W57530  41.258  33.988   3.836
85106W        W57531   9.598  18.657  11.149
85107W        W57532   3.013  20.706   4.122
85108W        W57533  40.374  35.557   2.579
85109W        W57534  15.742   0.267  11.599
85110W        W57535   8.831  43.341  13.407
85111W        W57536  36.014  22.640  12.068
85112W        W57537  10.341  30.141   3.175
85113W        W57538  26.205  21.123   4.039
85114W        W57539  13.897  34.529  11.328
85115W        W57540   3.739  16.175   2.735
85116W        W57541   1.890  19.225  13.092
85117W        W57542   5.719  15.166  11.595
85118W        W57543  23.453  14.792   0.762
85119W        W57544  22.292  33.677   3.702
85120W        W57545  41.727  35.551   4.757
85121W        W57546  42.023  42.733  12.473
85122W        W57547   5.208   1.000  11.569
85123W        W57548  37.159  42.860   4.153
85124W        W57549  31.117  35.339   2.699
85125W        W57550  36.001  23.111  11.348
85126W        W57551  39.326  34.539  11.676
85127W        W57552  27.069  26.910  13.745
85128W        W57553  15.103  42.411   4.727
85129W        W57554  10.930  31.609  14.347
85130W        W57555  22.066  12.542  10.788
85131W        W57556  37.989  12.253   4.756
85132W        W57557   5.768  28.192   0.787
85133W        W57558  17.908  34.848  13.494
85134W        W57559  26.475  31.472   5.097
85135W        W57560   5.909   9.495   1.345
85136W        W57561  12.805  25.148  11.191
85137W        W57562   8.407  44.739  14.308
85138W        W57563   9.245  43.340  10.424
85139W        W57564  31.379  27.113   3.725
85140W        W57565  18.649   8.585   1.768
85141W        W57566   1.800  31.302   4.554
85142W        W57567  32.056   7.443  13.885
85143W        W57568  16.672  32.495  10.672
85144W        W57569  18.524  12.736   0.013
85145W        W57570  44.190  32.630   0.894
85146W        W57571  19.644  11.175   4.821
85147W        W57572  31.797  12.212   4.505
85148W        W57573  37.401   8.275   1.708
85149W        W57574  23.168  12.177   4.095
85150W        W57575   0.283  34.489  11.356
85151W        W57576  36.348  40.060  11.919
85152W        W57577  40.001  27.210  12.009
85153W        W57578  23.580  23.171  12.506
85154W        W57579  21.538  12.840   4.364
85155W        W57580  14.113  15.391   4.132
85156W        W57581   5.658  18.181   0.388
85157W        W57582  25.260   8.377   4.774
85158W        W57583  25.104  16.879  11.181
85159W        W57584  23.966  44.897   3.358
85160W        W57585  26.088  38.458   3.075
85161W        W57586   8.291  41.963  11.429
85162W        W57587  35.450  38.483  14.962
85163W        W57588   4.640  35.585   1.827
85164W        W57589   4.935  33.441   4.172
85165W        W57590  37.546  25.177   2.280
85166W        W57591  44.403  20.313  13.852
85167W        W57592  25.053   0.515   2.185
85168W        W57593  15.182  37.164   2.893
85169W        W57594   4.666  17.717  13.494
85170W        W57595   0.720  36.022   4.796
85171W        W57596   6.317  20.417  11.971
85172W        W57597  11.606   3.571  13.998
85173W        W57598  21.257  21.544  12.017
85174W        W57599  16.820  30.322   3.357
85175W        W57600  18.244   7.659  14.733
85176W        W57601  35.514  39.182   2.975
85177W        W57602  42.195  40.341   4.249
85178W        W57603  34.881  32.054  10.462
85179W        W57604  32.097  39.089   2.339
85180W        W57605  11.820  14.439   4.163
85181W        W57606   4.006  20.837   2.156
85182W        W57607  18.046  18.250   3.808
85183W        W57608  14.822  12.320  13.505
85184W        W57609  18.760   4.908  10.306
85185W        W57610  44.730  34.407   1.243
85186W        W57611  18.156  32.080  14.020
85187W        W57612  31.924   5.824  11.541
85188W        W57613   0.241   5.147  12.505
85189W        W57614  43.359   9.293   2.816
85190W        W57615  14.723   4.167  13.191
85191W        W57616  24.638  10.821  10.425
85192W        W57617  12.414  35.088  12.615
85193W        W57618  42.948   6.876  10.460
85194W        W57619   3.552  13.843  12.874
85195W        W57620  19.257   2.189   3.307
85196W        W57621   4.694  10.920   0.232
85197W        W57622  27.844  26.884  14.366
85198W        W57623   0.880  26.432  14.521
85199W        W57624  14.272  26.175   3.195
85200W        W57625   4.464   5.003  10.685
85201W        W57626  12.272  27.542   3.951
85202W        W57627  12.656  19.339   1.311
85203W        W57628  39.915  28.894   2.212
85204W        W57629  18.490  30.999   2.393
85205W        W57630  25.022  26.388  10.720
85206W        W57631  19.161   6.308   4.897
85207W        W57632  35.358  10.276  14.345
85208W        W57633  43.743  26.548  12.513
85209W        W57634   4.950  43.382  13.858
85210W        W57635  35.579  21.744   0.962
85211W        W57636  12.646   0.179  12.813
85212W        W57637  34.867  44.474  12.477
85213W        W57638   6.633  23.637  11.356
85214W        W57639  32.409   8.095  10.590
85215W        W57640  16.587  36.212  10.624
85216W        W57641  13.709  35.046  13.916
85217W        W57642   7.225  18.654   3.746
85218W        W57643  39.390  15.209  10.673
85219W        W57644  17.565  12.548   3.802
85220W        W57645  31.949  18.980   4.167
85221W        W57646  19.163  15.745   4.221
85222W        W57647   4.385  38.582   4.437
85223W        W57648  36.938  39.844  11.668
85224W        W57649  11.298  42.842  13.162
85225W        W57650  38.430  30.865   3.483
85226W        W57651  30.482   8.347   1.755
85227W        W57652  12.654  12.710   1.250
85228W        W57653   6.675   4.888  12.566
85229W        W57654  39.352   6.939   4.183
85230W        W57655  33.109  32.904  14.245
85231W        W57656  30.472  12.622   1.800
85232W        W57657  16.851  41.902   1.886
85233W        W57658  39.450  19.402  14.339
85234W        W57659  16.622  13.559  11.260
85235W        W57660   0.248   7.708   4.630
85236W        W57661   7.455   1.873   4.558
85237W        W57662   4.474  32.235   0.944
85238W        W57663  12.956   4.937  14.291
85239W        W57664  13.668   3.484  10.524
85240W        W57665  18.264  12.521  14.066
85241W        W57666  32.285  38.343  11.553
85242W        W57667  40.074  38.453   1.780
85243W        W57668  38.508  16.348  10.700
85244W        W57669  13.283  39.534   3.112
85245W        W57670  20.311  24.628  11.033
85246W        W57671   8.764  16.347   3.176
85247W        W57672  36.090  25.634  14.977
85248W        W57673  34.944  13.068  11.551
85249W        W57674  12.165   5.403   4.144
85250W        W57675  10.575  16.774   4.067
85251W        W57676  41.799   0.788  12.981
85252W        W57677  28.164   2.252   0.515
85253W        W57678  37.045   3.893  10.594
85254W        W57679  22.516   9.723   0.390
85255W        W57680  36.479  37.783   2.758
85256W        W57681  10.605   7.441  11.027
85257W        W57682  18.049  23.828  11.464
85258W        W57683  26.192  36.841  13.478
85259W        W57684  15.355  25.457  14.014
85260W        W57685   2.008   4.032  14.296
85261W        W57686   7.167  29.066  13.836
85262W        W57687  27.084  20.676   0.483
85263W        W57688  41.795  17.300   4.121
85264W        W57689  13.700  32.075  11.487
85265W        W57690  26.928   8.257   3.361
85266W        W57691  38.902  20.735   3.276
85267W        W57692  28.564  32.811   1.246
85268W        W57693  34.749  34.819  13.446
85269W        W57694  29.733  30.864  10.165
85270W        W57695  40.119   4.912  12.960
85271W        W57696  22.268   7.150  12.835
85272W        W57697  39.712  32.611  11.100
85273W        W57698  32.543   6.136  13.953
85274W        W57699  24.197   1.663  10.816
85275W        W57700   0.444  35.714  11.089
85276W        W57701   5.031   6.242   3.874
85277W        W57702  30.392  12.345   0.495
85278W        W57703  18.638  40.780  10.711
85279W        W57704   5.655  43.410   3.716
85280W        W57705   2.384  31.600  13.437
85281W        W57706  26.613  37.949   4.191
85282W        W57707  29.637   6.076   1.719
85283W        W57708  24.679  36.947  13.488
85284W        W57709  34.493  24.894  10.376
85285W        W57710  21.103  14.868   2.733
85286W        W57711  25.902  10.519  12.683
85287W        W57712  20.779  21.505  12.250
85288W        W57713  18.737  33.518  10.037
85289W        W57714  20.153   9.421  10.928
85290W        W57715  42.304  10.198  10.987
85291W        W57716  41.275   0.468   1.904
85292W        W57717  17.249  33.506  13.567
85293W        W57718  19.091  28.459   3.187
85294W        W57719  32.904  17.644   3.862
85295W        W57720  22.935  23.438   1.318
85296W        W57721  30.450   8.105   2.738
85297W        W57722  25.224  43.070  12.585
85298W        W57723  11.659   8.111  14.308
85299W        W57724   5.792  22.321   2.348
85300W        W57725  19.345   0.819   4.942
85301W        W57726   7.711  16.738  13.486
85302W        W57727  29.944  40.885  13.669
85303W        W57728  12.004  28.466   0.224
85304W        W57729  10.932  38.471   4.712
85305W        W57730  29.862  27.093  11.214
85306W        W57731  34.532  10.634  13.494
85307W        W57732  18.624  30.201   5.353
85308W        W57733  37.449  22.867  13.142
85309W        W57734  23.841  28.316   1.355
85310W        W57735  28.214  34.421  14.481
85311W        W57736  34.332  21.016  14.665
85312W        W57737  29.409  27.591  10.656
85313W        W57738  29.809  36.989  11.825
85314W        W57739  35.161  15.015   0.745
85315W        W57740  15.845  15.621  11.040
85316W        W57741  16.552  24.177  12.344
85317W        W57742   9.167  24.923  11.545
85318W        W57743  25.728   0.872  13.908
85319W        W57744   0.536  28.100  11.543
85320W        W57745  40.106  16.524   3.249
85321W        W57746  37.414  14.622   1.142
85322W        W57747  28.404  17.319   1.913
85323W        W57748  35.552  44.433  12.017
85324W        W57749   4.788  44.435  14.279
85325W        W57750  14.273  27.110   2.751
85326W        W57751  15.070  15.936  12.141
85327W        W57752   6.206  13.853  14.313
85328W        W57753  22.004  14.739   2.484
85329W        W57754  14.094   4.472   3.655
85330W        W57755  39.577  13.589  11.518
85331W        W57756  24.299  36.105   4.047
85332W        W57757  40.593  34.085  13.134
85333W        W57758  27.028  42.267   3.642
85334W        W57759  32.834  28.691  11.503
85335W        W57760  12.450  14.709   2.419
85336W        W57761   7.537   6.910  11.917
85337W        W57762  22.244   7.504  11.608
85338W        W57763   5.948  35.508   0.732
85339W        W57764  30.953   5.733  11.390
85340W        W57765  21.702   8.606  14.842
85341W        W57766   2.468  42.491   3.805
85342W        W57767  15.794   8.343   0.094
85343W        W57768  10.114   7.182  10.248
85344W        W57769  24.074   2.236   0.025
85345W        W57770  33.543  19.445   1.266
85346W        W57771   8.166   5.260   3.329
85347W        W57772  22.992  36.834  13.365
85348W        W57773  43.490  41.573   3.821
85349W        W57774  12.228  13.090   3.388
85350W        W57775  33.430  30.463   2.145
85351W        W57776  32.843  27.979  12.515
85352W        W57777   4.922  23.597  10.659
85353W        W57778   5.186  10.146   1.302
85354W        W57779  20.308  42.859  12.852
85355W        W57780  44.256  18.594   1.884
85356W        W57781   0.952  20.180  12.982
85357W        W57782  10.831   8.148  13.397
85358W        W57783  23.010   3.447   2.793
85359W        W57784   6.781  36.030  12.868
85360W        W57785  31.478   5.804  12.152
85361W        W57786  29.853  24.753   3.797
85362W        W57787   0.262   5.160  11.072
85363W        W57788   6.413  39.136  13.249
85364W        W57789  14.032  16.346  12.754
85365W        W57790  39.053   3.600   1.359
85366W        W57791  41.813  44.382  11.204
85367W        W57792  10.625  23.111  10.570
85368W        W57793   6.352  21.677  14.403
85369W        W57794  42.212  11.074  12.978
85370W        W57795  20.626   9.230  11.135
85371W        W57796   3.443  32.584  12.569
85372W        W57797   5.862  37.942  13.356
85373W        W57798  37.632  19.105   1.865
85374W        W57799  28.688  29.063   0.939
85375W        W57800  27.427  26.736  10.876
85376W        W57801  23.067   3.279  10.928
85377W        W57802  20.375  33.911  13.888
85378W        W57803  34.065  36.575   1.706
85379W        W57804   2.295   5.463   0.687
85380W        W57805   1.979   6.484   3.607
85381W        W57806  41.332  30.654  13.959
85382W        W57807   1.788   4.850   1.754
85383W        W57808   0.947  22.498   1.877
85384W        W57809  37.600   2.261  10.686
85385W        W57810  43.039  44.847  12.870
85386W        W57811  39.366  40.721   0.818
85387W        W57812  31.855  33.602  12.849
85388W        W57813  38.823  20.225   3.244
85389W        W57814  19.667   8.752  12.391
85390W        W57815  33.512   7.437  11.978
85391W        W57816   9.800  39.874  14.869
85392W        W57817  44.230  44.266  12.626
85393W        W57818   9.066  42.889  12.583
85394W        W57819  26.419  24.106  11.988
85395W        W57820  33.135  12.909   0.490
85396W        W57821   0.905  42.894  10.699
85397W        W57822  20.855   5.867  14.336
85398W        W57823  44.316  32.045   0.893
85399W        W57824  28.299  41.652  13.334
85400W        W57825  33.150  22.133  12.651
85401W        W57826  39.405   1.049  14.494
85402W        W57827  21.077  18.728  11.672
85403W        W57828  18.667  36.935  14.332
85404W        W57829  15.784  32.073  14.483
85405W        W57830  27.748  14.826  12.069
85406W        W57831  17.704  37.873   0.303
85407W        W57832  43.380  28.649   3.284
85408W        W57833  36.854  33.798   3.685
85409W        W57834  40.609  43.137   0.044
85410W        W57835  28.100  37.236  10.303
85411W        W57836  33.927  40.254   1.642
85412W        W57837  31.656  28.283  10.510
85413W        W57838  39.826  25.255   2.835
85414W        W57839   9.363  24.714  11.986
85415W        W57840  32.742  37.863   2.528
85416W        W57841  12.844  19.628  13.289
85417W        W57842  22.659  10.241  13.482
85418W        W57843  15.177  34.993  14.377
85419W        W57844  39.048  16.035   4.600
85420W        W57845  42.048  11.169   4.536
85421W        W57846  41.841  44.931   9.836
85422W        W57847  43.350   2.787   0.380
85423W        W57848   2.786  12.913   3.893
85424W        W57849  24.318   8.325   2.788
85425W        W57850  37.908   1.322   2.285
85426W        W57851  13.610  19.547   3.690
85427W        W57852  37.141  10.759   2.234
85428W        W57853  16.746  22.003   1.437
85429W        W57854  25.174  18.342  13.106
85430W        W57855  13.527  13.214   1.226
85431W        W57856  32.510  44.307   1.025
85432W        W57857  16.452  38.856   2.302
85433W        W57858  25.604   0.263  14.435
85434W        W57859  15.962  31.385  12.336
85435W        W57860  16.384   9.479  14.931
85436W        W57861  29.048  15.141   4.778
85437W        W57862  17.538  43.494   0.759
85438W        W57863   0.768  34.426  12.565
85439W        W57864  24.979  18.749  10.439
85440W        W57865  42.283  24.075   0.289
85441W        W57866  23.551  36.221  13.696
85442W        W57867  38.085  19.562   3.275
85443W        W57868  44.333   4.169  12.118
85444W        W57869   2.280  12.615  11.104
85445W        W57870  19.623  34.868  10.702
85446W        W57871   3.134  16.541  12.394
85447W        W57872  29.063  18.621  12.566
85448W        W57873   4.305  36.440   4.327
85449W        W57874  24.746  29.349  14.980
85450W        W57875  43.772  10.385   4.204
85451W        W57876  33.658  25.529   2.777
85452W        W57877  29.598  36.919   3.131
85453W        W57878  15.600  29.124  11.195
85454W        W57879  30.031  27.967   2.983
85455W        W57880  40.352  29.624   4.630
85456W        W57881   0.281  20.118  10.713
85457W        W57882  39.765  31.151  11.457
85458W        W57883   2.563  23.677  10.286
85459W        W57884  40.686   2.097   4.907
85460W        W57885   9.532  32.537  13.175
85461W        W57886  40.330  20.212  10.741
85462W        W57887  44.202   4.726   1.723
85463W        W57888  17.661  32.180   9.651
85464W        W57889  39.463   8.770  13.348
85465W        W57890  20.247  39.148   2.370
85466W        W57891   4.144  11.693   1.184
85467W        W57892  10.380  40.915  14.494
85468W        W57893   7.194  12.181  14.793
85469W        W57894  35.973   4.785   1.745
85470W        W57895  22.126   8.646   2.309
85471W        W57896  15.660  44.761  11.633
85472W        W57897   6.225  23.925  11.198
85473W        W57898  38.246   9.353   1.464
85474W        W57899  14.819   2.322   4.206
85475W        W57900   0.206  37.071   2.189
85476W        W57901   5.452  14.052   4.140
85477W        W57902  41.750   0.295   2.053
85478W        W57903  19.155   7.828   4.103
85479W        W57904  14.084   2.455  12.937
85480W        W57905  34.544   5.819   2.667
85481W        W57906  16.601  20.686  12.065
85482W        W57907  13.998  33.831   1.232
85483W        W57908  22.747   0.580  12.041
85484W        W57909  19.162  28.445  12.365
85485W        W57910  34.179  17.638   0.407
85486W        W57911  39.393  36.867   3.607
85487W        W57912  12.635  43.354  14.735
85488W        W57913  35.929  12.843  13.297
85489W        W57914  20.632  25.863   4.156
85490W        W57915  44.458  20.187  11.538
85491W        W57916   0.843  12.369   3.746
85492W        W57917   3.589  23.375  14.347
85493W        W57918  42.082   1.719   1.231
85494W        W57919   3.537  19.647  13.035
85495W        W57920   4.235  18.065   4.618
85496W        W57921  25.153  29.448   1.418
85497W        W57922  16.262  12.630   1.621
85498W        W57923   8.978  21.021  14.347
85499W        W57924  36.146  21.958   4.662
85500W        W57925  20.421  12.771  14.228
85501W        W57926  30.335  20.891   0.770
85502W        W57927  12.371  33.820  11.989
85503W        W57928  15.074  24.727   3.225
85504W        W57929  41.505  31.864   1.468
85505W        W57930  22.323  43.569   4.132
85506W        W57931  24.984  16.297   2.864
85507W        W57932  17.801   7.188  11.605
85508W        W57933   2.319  41.167   0.843
85509W        W57934  17.112  25.948  12.563
85510W        W57935  30.499  12.659   0.916
85511W        W57936  22.918  19.531   2.841
85512W        W57937  27.601  16.843  12.365
85513W        W57938   3.868  12.385  13.285
85514W        W57939   2.356  11.421   3.103
85515W        W57940   0.034   2.471   1.209
85516W        W57941  34.889  18.242   0.455
85517W        W57942  28.093  39.287   2.244
85518W        W57943  41.701  19.560  10.489
85519W        W57944  41.975  44.558   4.110
85520W        W57945  35.008  12.853   0.575
85521W        W57946   1.458   4.964   4.408
85522W        W57947   8.290  39.408   4.676
85523W        W57948  25.909  26.507  14.616
85524W        W57949   2.303  14.542   2.519
85525W        W57950  15.648  24.578  14.187
85526W        W57951   2.781  25.458  11.640
85527W        W57952  24.763  30.414   2.942
85528W        W57953  36.936  26.441   2.533
85529W        W57954  26.209  32.949  11.904
85530W        W57955  13.383  28.215   2.720
85531W        W57956   4.943   1.198   3.085
85532W        W57957  13.626   2.065   3.207
85533W        W57958  23.634  44.321   0.767
85534W        W57959  14.231  17.828  13.034
85535W        W57960   9.661  19.437   1.909
85536W        W57961  14.350  10.143   0.098
85537W        W57962  31.150   7.603  13.675
85538W        W57963  17.169  31.410  10.867
85539W        W57964  25.409  23.814   9.792
85540W        W57965  24.074   4.644   0.926
85541W        W57966   7.865  13.832   3.444
85542W        W57967   3.847   5.469   0.883
85543W        W57968  31.886  13.737   3.141
85544W        W57969  39.402   1.724   0.550
85545W        W57970  35.938  34.912  12.479
85546W        W57971   0.338  31.587   1.959
85547W        W57972  36.988  24.444   3.655
85548W        W57973  35.872  11.593  11.530
85549W        W57974  19.117  26.547   3.356
85550W        W57975  17.460  29.202  11.868
85551W        W57976  12.779  20.069   0.862
85552W        W57977  15.796  41.383   9.704
85553W        W57978  40.440  26.212   2.623
85554W        W57979  26.450  22.955   0.971
85555W        W57980  29.700   7.943  14.469
85556W        W57981  24.907  32.030   4.331
85557W        W57982  31.139  23.726   0.520
85558W        W57983   5.191  28.778   1.852
85559W        W57984  31.931  10.840   1.004
85560W        W57985  44.703  36.893   0.476
85561W        W57986  30.728  40.588  12.939
85562W        W57987  13.825  20.167   2.376
85563W        W57988  25.194  41.985   4.546
85564W        W57989  21.955  27.634   1.847
85565W        W57990  40.518  24.839  11.084
85566W        W57991  32.133  13.827   3.576
85567W        W57992  13.345  21.149  12.312
85568W        W57993  13.829   4.086  13.654
85569W        W57994   5.285  13.305   0.868
85570W        W57995  15.581   3.876   2.366
85571W        W57996  24.044  16.625   0.728
85572W        W57997  18.640  35.620  11.221
85573W        W57998  37.072  36.068  11.388
85574W        W57999   4.929  34.481   0.214
85575W        W58000  26.107   1.471  10.885
85576W        W58001  18.590  21.265   3.248
85577W        W58002  18.615  20.537   2.625
85578W        W58003  35.325  22.022  11.138
85579W        W58004  11.359  22.587  13.149
85580W        W58005  21.975  26.466   1.124
85581W        W58006  29.840  24.542  12.815
85582W        W58007  32.149  38.476  11.031
85583W        W58008  34.282  38.337   2.695
85584W        W58009  35.820  22.099   4.241
85585W        W58010  11.497  24.823  14.407
85586W        W58011  12.311  30.716  11.994
85587W        W58012  22.644  32.119   2.261
85588W        W58013   5.484  44.803  14.457
85589W        W58014  31.060  15.257  11.465
85590W        W58015  35.028  31.616  11.396
85591W        W58016  30.150  37.685   2.389
85592W        W58017  28.972  39.563  11.905
85593W        W58018  31.122  38.980  12.404
85594W        W58019   1.812  42.480   3.623
85595W        W58020  41.379  22.027  12.587
85596W        W58021  26.584  36.988   1.665
85597W        W58022  41.199   0.898   0.018
85598W        W58023   0.886  10.439  11.078
85599W        W58024  21.998  11.861   1.317
85600W        W58025  22.861  29.085   1.185
85601W        W58026  13.108  32.396   3.205
85602W        W58027  19.217  29.846   3.741
85603W        W58028  13.083  19.399  11.213
85604W        W58029  10.203   7.469   2.765
85605W        W58030   2.696  40.429   1.697
85606W        W58031  24.587  15.043   2.810
85607W        W58032  36.412  17.241   4.231
85608W        W58033  40.476  32.165  14.050
85609W        W58034  10.163  32.143  10.991
85610W        W58035  43.029  13.285  13.943
85611W        W58036  35.066  24.016   1.953
85612W        W58037   1.528  42.728   4.073
85613W        W58038  14.497  24.944  12.922
85614W        W58039   5.898  35.535  14.799
85615W        W58040   7.961  15.233   0.815
85616W        W58041   8.516  16.859   0.397
85617W        W58042  11.803  20.774  14.068
85618W        W58043  43.458  36.351  12.543
85619W        W58044   0.054  21.552  10.845
85620W        W58045   7.922  27.364   2.356
85621W        W58046  40.130  38.532   1.274
85622W        W58047  31.458  15.026   1.147
85623W        W58048  35.760   4.782  11.100
85624W        W58049   8.012  25.694  13.514
85625W        W58050  29.583  30.370  10.233
85626W        W58051   0.420  12.418  11.200
85627W        W58052   6.660  11.586  13.951
85628W        W58053  21.591  38.608  12.086
85629W        W58054   7.735  16.337  13.158
85630W        W58055  12.301  18.225  10.721
85631W        W58056  16.612  26.544  14.343
85632W        W58057  37.193  22.936   3.605
85633W        W58058  15.068  12.063   3.558
85634W        W58059  33.217  33.015  14.763
85635W        W58060  20.823  21.427  14.990
85636W        W58061  19.753  27.894  11.124
85637W        W58062   7.997  24.548   2.635
85638W        W58063   1.873   7.224   1.160
85639W        W58064  38.983  44.208   1.423
85640W        W58065  24.506  19.594   2.826
85641W        W58066  23.801  36.375   0.735
85642W        W58067  44.987  41.450   1.799
85643W        W58068  44.924  15.609  13.523
85644W        W58069   1.161   5.633  14.509
85645W        W58070  42.003   9.872   3.093
85646W        W58071   2.308   1.037   4.162
85647W        W58072  35.273   5.155  14.715
85648W        W58073   5.253  39.077   0.759
85649W        W58074   8.215   3.624  13.516
85650W        W58075  36.979   4.311  10.875
85651W        W58076  13.656  40.011   0.029
85652W        W58077  23.244  10.682  12.870
85653W        W58078  23.662  26.207  12.072
85654W        W58079   0.446  20.704   4.901
85655W        W58080  41.053   0.874  11.379
85656W        W58081  10.736  21.652   1.457
85657W        W58082   3.412  38.012   3.095
85658W        W58083  18.790  23.123   0.405
85659W        W58084  31.877  24.473   1.842
85660W        W58085  12.881   6.281  12.647
85661W        W58086  27.888   9.741   2.698
85662W        W58087  41.969  19.231   2.283
85663W        W58088  15.693  23.872  10.396
85664W        W58089   8.088  37.052   0.968
85665W        W58090  27.451  38.554   4.973
85666W        W58091  24.390  35.931  12.380
85667W        W58092  39.985  25.718   1.994
85668W        W58093  29.016  44.955   4.531
85669W        W58094  22.504   2.909   4.561
85670W        W58095  14.744   9.585   4.506
85671W        W58096   2.263  40.244   4.368
85672W        W58097  26.982  21.069  12.387
85673W        W58098   8.197  41.838   3.853
85674W        W58099   8.586   3.256  12.310
85675W        W58100  13.176  23.473   0.101
85676W        W58101  26.228  11.757   0.312
85677W        W58102  37.464  21.690   3.875
85678W        W58103  30.321  38.750   1.872
85679W        W58104  12.614  44.064  11.587
85680W        W58105  12.239  38.771  11.931
85681W        W58106  10.320  22.119   4.570
85682W        W58107   9.335  11.603   4.131
85683W        W58108   8.312  24.131   2.836
85684W        W58109   4.102  34.916  14.983
85685W        W58110   1.808  34.867   4.667
85686W        W58111   3.789  28.472  11.142
85687W        W58112   1.485  21.534   1.891
85688W        W58113  16.830  17.741  11.502
85689W        W58114  36.020  12.776  12.448
85690W        W58115  41.490  24.568   3.411
85691W        W58116   4.509  38.677  10.052
85692W        W58117  35.946  37.248  11.158
85693W        W58118  17.296  25.013  11.092
85694W        W58119  21.557   5.935  14.945
85695W        W58120  26.428  28.905  11.971
85696W        W58121  27.544  38.516  10.505
85697W        W58122  23.351   7.719  11.463
85698W        W58123  19.527  18.804  13.504
85699W        W58124  33.913  34.557   3.113
85700W        W58125  34.052  11.318   1.687
85701W        W58126  11.924  42.233   0.826
85702W        W58127  42.075  27.831   3.206
85703W        W58128  28.849   2.155  14.373
85704W        W58129  11.892   3.637   0.526
85705W        W58130  11.602  10.040   2.477
85706W        W58131  44.545   6.490  13.916
85707W        W58132  21.126  24.709   1.913
85708W        W58133  19.193  17.535   1.517
85709W        W58134   7.158  23.655  13.013
85710W        W58135  21.266  15.301  11.543
85711W        W58136   0.423  27.243  13.629
85712W        W58137  44.373  22.732  11.156
85713W        W58138  23.212  19.561   3.266
85714W        W58139  11.329  12.143  14.495
85715W        W58140  33.984   9.250   2.394
85716W        W58141   2.499  30.676   4.624
85717W        W58142   2.440  16.422   3.843
85718W        W58143  11.288  40.347   2.462
85719W        W58144  26.318   8.860   3.322
85720W        W58145  27.743  38.306  11.437
85721W        W58146  11.621  29.476  10.660
85722W        W58147   9.399  25.732  11.932
85723W        W58148  36.841   3.408  13.469
85724W        W58149   2.215  10.236   3.885
85725W        W58150  13.497  42.050  10.807
85726W        W58151  41.898  27.202  12.519
85727W        W58152  29.863  21.596   4.035
85728W        W58153  16.320  39.190  12.633
85729W        W58154  31.418  18.183   0.429
85730W        W58155  40.472  38.635   0.734
85731W        W58156  26.632  10.634  13.327
85732W        W58157   4.649  38.992  13.943
85733W        W58158  29.605  36.543  13.560
85734W        W58159   6.167  33.137  11.891
85735W        W58160  34.566  15.976  11.371
85736W        W58161  31.505  42.302  14.741
85737W        W58162  29.127  33.848  13.857
85738W        W58163  38.986   3.714  13.103
85739W        W58164  39.386  31.194   2.060
85740W        W58165  37.695  13.355   1.296
85741W        W58166   3.731   1.397  12.581
85742W        W58167  44.726  26.005  11.501
85743W        W58168  36.876  31.984   3.346
85744W        W58169  11.249   5.749   3.050
85745W        W58170  19.144  16.211  11.856
85746W        W58171  12.586  35.587  12.521
85747W        W58172  38.867  26.522  13.307
85748W        W58173  10.890   5.978  13.875
85749W        W58174  10.138  31.016  14.412
85750W        W58175  23.682   0.838  13.845
85751W        W58176  28.351   5.063   3.761
85752W        W58177  33.792  30.975  11.173
85753W        W58178   7.783  31.143  11.305
85754W        W58179  35.560  23.017   1.993
85755W        W58180  17.156   1.471  13.469
85756W        W58181  26.409   7.200   2.965
85757W        W58182  25.532  39.564  12.980
85758W        W58183  25.820  39.476  14.293
85759W        W58184   3.507  41.335  10.331
85760W        W58185  12.727   1.931  11.532
85761W        W58186  42.871  26.904  11.607
85762W        W58187   6.450  34.561   1.501
85763W        W58188  37.506  36.337   4.988
85764W        W58189  39.803   6.158  14.067
85765W        W58190  35.629  44.489  10.760
85766W        W58191  23.744   8.487   0.196
85767W        W58192  16.935   8.352   1.374
85768W        W58193  34.379  24.120  14.885
85769W        W58194  13.482  12.724   2.305
85770W        W58195  41.385  33.397  11.153
85771W        W58196  36.568  15.724   4.942
85772W        W58197  44.779  22.578  14.504
85773W        W58198   8.494  39.049  14.858
85774W        W58199  39.232   5.762  14.889
85775W        W58200  34.466   0.340   3.099
85776W        W58201  39.768  35.418  12.021
85777W        W58202  24.742  31.755   2.816
85778W        W58203  41.564  28.999   0.772
85779W        W58204  33.832   9.192   3.984
85780W        W58205  10.430  28.748  12.577
85781W        W58206  17.632   5.610   0.583
85782W        W58207  23.924  26.102   4.846
85783W        W58208   1.249   0.067  14.317
85784W        W58209  13.788   1.694   2.871
85785W        W58210   4.653   0.623  13.015
85786W        W58211  24.531  11.857   2.669
85787W        W58212   0.031  43.118  12.499
85788W        W58213  28.767  35.990   3.798
85789W        W58214  35.896  36.289  14.659
85790W        W58215  18.122   9.173   0.747
85791W        W58216  11.834  37.509   0.853
85792W        W58217   1.474   5.095  10.753
85793W        W58218  41.782  41.067  14.156
85794W        W58219  29.576  41.705   2.942
85795W        W58220  18.248  15.495   2.297
85796W        W58221   0.895  30.980   2.725
85797W        W58222   9.348  33.122  14.504
85798W        W58223  14.129   2.503   4.629
85799W        W58224  20.705   5.905   2.031
85800W        W58225  16.850  13.944   3.817
85801W        W58226  32.617  22.912   4.788
85802W        W58227  15.779  24.088   0.279
85803W        W58228   3.253  19.072   4.579
85804W        W58229  43.070   6.846   2.285
85805W        W58230  33.124  19.031   2.401
85806W        W58231  14.945   0.368   5.053
85807W        W58232   1.438  27.337  10.581
85808W        W58233  22.441  36.802  12.599
85809W        W58234   1.823  10.421  14.308
85810W        W58235  14.203   1.857   0.020
85811W        W58236  13.449  33.010   1.091
85812W        W58237  44.333  30.147  12.570
85813W        W58238  22.972  29.582  10.643
85814W        W58239  30.156  26.942  11.615
85815W        W58240   7.956   1.891  11.908
85816W        W58241  18.255   8.815   1.512
85817W        W58242  16.726  28.030   0.397
85818W        W58243  22.918   1.162   3.311
85819W        W58244  44.466  41.379  14.410
85820W        W58245  24.633  31.919   4.794
85821W        W58246  20.862   3.714  10.489
85822W        W58247   9.666  24.210  12.437
85823W        W58248  16.360   9.092   1.462
85824W        W58249   2.318  10.461   2.348
85825W        W58250   9.187  13.418  11.074
85826W        W58251  37.693  30.277  11.984
85827W        W58252   8.161   6.359   4.033
85828W        W58253  23.664   0.306   0.500
85829W        W58254  41.056  43.933  14.042
85830W        W58255   4.382  43.515   2.249
85831W        W58256  38.900  43.672   2.715
85832W        W58257  11.418  29.334  13.045
85833W        W58258   2.645   1.271   3.408
85834W        W58259  29.923  24.472  11.434
85835W        W58260  38.535   1.529  10.682
85836W        W58261  19.325   6.072   3.193
85837W        W58262   3.799  35.329   2.723
85838W        W58263  29.008  18.336  14.350
85839W        W58264  44.713   6.824  14.778
85840W        W58265   9.569  23.230  10.737
85841W        W58266  19.839  15.119  14.301
85842W        W58267   9.056  15.701  11.935
85843W        W58268  29.627  32.598   3.374
85844W        W58269  36.944  16.672   4.886
85845W        W58270  27.092  35.100  14.994
85846W        W58271   0.257  43.496   1.466
85847W        W58272  33.957  37.805   3.201
85848W        W58273  22.891  12.561   0.583
85849W        W58274  11.204  41.497   4.363
85850W        W58275  26.913  34.558   3.768
85851W        W58276  34.029   4.526  13.524
85852W        W58277  13.340   1.055   2.294
85853W        W58278  34.034  33.541   1.355
85854W        W58279  27.558  13.233   0.477
85855W        W58280  23.268  24.434   2.775
85856W        W58281  19.167  27.229   0.974
85857W        W58282  28.164  16.543  13.770
85858W        W58283  42.378  28.208   0.316
85859W        W58284  23.590  21.283   3.943
85860W        W58285  17.647  31.551  11.046
85861W        W58286  18.067  36.613   2.243
85862W        W58287  35.914  26.224  10.831
85863W        W58288   3.677  42.857  12.096
85864W        W58289  22.202  24.843  14.039
85865W        W58290   1.223  39.983   3.686
85866W        W58291  31.393  12.230   3.374
85867W        W58292  40.361   0.735  11.931
85868W        W58293   0.181  27.686   4.610
85869W        W58294  37.832  40.277  11.831
85870W        W58295   4.147  37.398   0.477
85871W        W58296  17.555   3.515   3.756
85872W        W58297   9.164  25.669   2.261
85873W        W58298  10.164   5.428   5.023
85874W        W58299  42.387  17.960   1.732
85875W        W58300  39.406  10.186  12.126
85876W        W58301  44.478   4.775  10.701
85877W        W58302  35.380  27.506  14.860
85878W        W58303   2.428  40.131   2.118
85879W        W58304  36.087  43.278  12.010
85880W        W58305  22.872  21.798   4.122
85881W        W58306  43.520  42.328  14.219
85882W        W58307  19.688  36.072  13.032
85883W        W58308  24.123  21.033   1.651
85884W        W58309  36.113   2.102  14.420
85885W        W58310   1.905  40.473   4.673
85886W        W58311  14.392   3.018  11.455
85887W        W58312   5.070  26.790   1.298
85888W        W58313  14.697  44.423  11.159
85889W        W58314   3.277   2.732  13.225
85890W        W58315   1.825  34.503  12.476
85891W        W58316  11.902  36.961  14.362
85892W        W58317  20.008  12.124   4.128
85893W        W58318   6.262  13.647  13.483
85894W        W58319   1.991  33.500   4.927
85895W        W58320  17.207   3.274  10.925
85896W        W58321  38.378  16.323  11.932
85897W        W58322  14.346   7.701   2.447
85898W        W58323  16.886   9.605   2.717
85899W        W58324   8.988  33.390  14.791
85900W        W58325  24.669  27.212   1.779
85901W        W58326  16.025  26.128   3.335
85902W        W58327  35.393  27.045  11.254
85903W        W58328  28.621  29.400  10.665
85904W        W58329   4.860  21.153  10.808
85905W        W58330  31.942  17.624  12.881
85906W        W58331  30.006  27.084   0.531
85907W        W58332   9.614  43.355   0.154
85908W        W58333   3.987  20.006   4.128
85909W        W58334  29.503  41.438  11.980
85910W        W58335  17.804  14.835   1.930
85911W        W58336  22.955  11.085  13.476
85912W        W58337  23.537  27.203   3.133
85913W        W58338  11.133   3.059   3.627
85914W        W58339   6.539  12.893  11.192
85915W        W58340  39.803  32.988  13.610
85916W        W58341  33.035  35.153  12.227
85917W        W58342  34.476  32.753  13.746
85918W        W58343  38.329  22.058   4.194
85919W        W58344  25.163   4.404  13.923
85920W        W58345  40.000  33.726  13.985
85921W        W58346   9.719  38.598  12.889
85922W        W58347  28.679   9.366  11.392
85923W        W58348  15.727  35.992  10.616
85924W        W58349  40.771  43.788  11.857
85925W        W58350   5.665  36.905   1.794
85926W        W58351  14.687  27.271   0.791
85927W        W58352  15.544  35.002  11.653
85928W        W58353  26.990  22.435   0.291
85929W        W58354  17.568  20.536   1.805
85930W        W58355  39.792  23.104  13.343
85931W        W58356  24.421  44.446   2.725
85932W        W58357  39.881  36.963  13.888
85933W        W58358  27.040  17.483  14.393
85934W        W58359  37.508  39.280  14.910
85935W        W58360  37.733  37.398   2.778
85936W        W58361  38.954   4.615  12.031
85937W        W58362  29.227  33.208   4.538
85938W        W58363  11.762  34.514   4.891
85939W        W58364   5.447  30.046   1.301
85940W        W58365   9.843  42.877   5.161
85941W        W58366  18.406  36.361  12.692
85942W        W58367  18.139  32.482  10.530
85943W        W58368  33.756  31.860   3.647
85944W        W58369  30.286   9.137  10.432
85945W        W58370  41.995  12.723  11.632
85946W        W58371  13.142  15.817  11.347
85947W        W58372  39.706   3.170  12.620
85948W        W58373  31.252  24.243   0.617
85949W        W58374   0.685  14.175  12.880
85950W        W58375   8.724   3.835   1.822
85951W        W58376   0.239  36.229  13.694
85952W        W58377  44.059  38.794  12.099
85953W        W58378   1.687  23.238   0.367
85954W        W58379   5.116  39.118  14.447
85955W        W58380  39.129  34.991  11.553
85956W        W58381  22.517  43.345  14.239
85957W        W58382  13.631  40.544  14.908
85958W        W58383  10.403   7.644  11.778
85959W        W58384  42.159  36.516  12.317
85960W        W58385  37.840   2.457   0.874
85961W        W58386  11.743  15.149   4.910
85962W        W58387  16.148  16.572   2.303
85963W        W58388   0.286   2.373   1.843
85964W        W58389  35.031  18.552   3.062
85965W        W58390  16.798  23.818  12.623
85966W        W58391   8.622  21.951  14.433
85967W        W58392  34.926  10.776   0.491
85968W        W58393  25.184   8.474   0.797
85969W        W58394  22.647   7.751   5.096
85970W        W58395   9.414   5.661  12.020
85971W        W58396  40.449  24.683  14.082
85972W        W58397   7.351  23.165   0.385
85973W        W58398  23.062  34.918   1.291
85974W        W58399   5.861  14.738   1.694
85975W        W58400   6.073  14.762   2.191
85976W        W58401   3.786  21.753  10.695
85977W        W58402   8.750  13.846  14.059
85978W        W58403  25.745   3.559   4.099
85979W        W58404  40.859  40.887  13.726
85980W        W58405   5.682   9.391  13.017
85981W        W58406  38.303  25.367  10.637
85982W        W58407  32.974   7.686  12.527
85983W        W58408  17.494  20.168  12.593
85984W        W58409   6.267  20.692   2.164
85985W        W58410  17.547  33.104  14.772
85986W        W58411  21.626  38.555   2.008
85987W        W58412  14.082  30.726  11.532
85988W        W58413  18.099  18.005  12.606
85989W        W58414  13.807  34.252   4.708
85990W        W58415  18.563  26.481  13.861
85991W        W58416  21.168   2.613   4.408
85992W        W58417  27.225  21.494   2.319
85993W        W58418  26.085  28.302   2.763
85994W        W58419   4.295  13.101   3.141
85995W        W58420  30.134   8.723  14.768
85996W        W58421  36.052  20.042  13.343
85997W        W58422  41.394  42.441  13.620
85998W        W58423  17.057   3.722  13.896
85999W        W58424  25.589  42.003   2.735
86000W        W58425  37.774   4.975   9.914
86001W        W58426   7.406  13.560  14.879
86002W        W58427  31.529  40.063   3.139
86003W        W58428  34.264  44.856  14.546
86004W        W58429   3.050  40.837   4.962
86005W        W58430  35.101  10.361  11.111
86006W        W58431  36.578  28.414  10.450
86007W        W58432  22.213  25.190  11.813
86008W        W58433  42.812  10.229   0.342
86009W        W58434  28.304   7.775   2.860
86010W        W58435  35.400   0.341   4.599
86011W        W58436  43.320  43.222  13.914
86012W        W58437  37.252  19.273  12.451
86013W        W58438  16.304  13.428  12.953
86014W        W58439  19.954   2.243   0.762
86015W        W58440   9.656  25.912   4.499
86016W        W58441   6.620  21.239  13.879
86017W        W58442  22.160  18.059  10.640
86018W        W58443  38.387  24.688   3.645
86019W        W58444  26.417   4.688   2.429
86020W        W58445  18.916  40.686   5.219
86021W        W58446   8.296  23.089   0.575
86022W        W58447   7.207  43.469   3.662
86023W        W58448  41.951  13.149  12.594
86024W        W58449  23.869  39.320  12.535
86025W        W58450  18.882  37.620  14.349
86026W        W58451  28.518   9.838   3.312
86027W        W58452  19.800  24.116   4.628
86028W        W58453  41.870  37.272   1.277
86029W        W58454  39.835  18.261   0.408
86030W        W58455  23.639   2.466  14.878
86031W        W58456  27.711  16.775   0.038
86032W        W58457   4.668  44.755   2.147
86033W        W58458   7.645  14.147  13.306
86034W        W58459   4.854  16.624  10.686
86035W        W58460   2.554  30.309  12.823
86036W        W58461  36.880  25.578  14.421
86037W        W58462   7.674  44.361  13.996
86038W        W58463   1.379  40.497   4.719
86039W        W58464  18.359  35.869   4.658
86040W        W58465  39.072  25.547  11.681
86041W        W58466  39.044   6.741  14.001
86042W        W58467  17.561   0.728   3.141
86043W        W58468  37.246  42.195   2.840
86044W        W58469  31.363  28.969   0.034
86045W        W58470  14.615  18.728   2.932
86046W        W58471  23.092   0.195   3.399
86047W        W58472  36.446  19.179   3.759
86048W        W58473  20.110  32.351  13.824
86049W        W58474  18.033   7.879  12.488
86050W        W58475  11.211  37.413  11.621
86051W        W58476  39.932  26.923   3.649
86052W        W58477  36.842  33.539  11.118
86053W        W58478  25.195   8.334  10.436
86054W        W58479  23.951   7.548  12.007
86055W        W58480  17.997  18.271   0.314
86056W        W58481  42.780  20.187   4.524
86057W        W58482  25.940   6.910  13.055
86058W        W58483   1.232  32.724  13.892
86059W        W58484  16.421   3.646  10.202
86060W        W58485  40.273  23.153  10.706
86061W        W58486  24.218  26.035  13.405
86062W        W58487  26.968   3.180  14.486
86063W        W58488  42.000  21.606  14.744
86064W        W58489  20.912  36.939  12.175
86065W        W58490  32.580  25.463  13.338
86066W        W58491  23.298  14.534   3.166
86067W        W58492   5.435  12.086  14.442
86068W        W58493  40.471  33.116  10.434
86069W        W58494  22.084  19.152   3.109
86070W        W58495  38.650   6.366   4.242
86071W        W58496  27.792  37.520  13.864
86072W        W58497  23.076   8.137  12.563
86073W        W58498  41.920  32.040  10.786
86074W        W58499  10.401  15.593  11.518
86075W        W58500  32.569   2.743  13.959
86076W        W58501  28.483  24.098   4.896
86077W        W58502  22.911   0.761   4.610
86078W        W58503   4.934  25.470   0.318
86079W        W58504   9.615   1.874  12.960
86080W        W58505  11.251  26.452  14.954
86081W        W58506  21.765  26.136   1.919
86082W        W58507   9.868  42.458   0.461
86083W        W58508  35.142   7.696   4.466
86084W        W58509   1.051  26.246   0.329
86085W        W58510  21.593  34.841   1.383
86086W        W58511  11.606   4.342  14.387
86087W        W58512  29.932  34.389   2.602
86088W        W58513  18.217  17.336  14.411
86089W        W58514   5.406  37.041   2.805
86090W        W58515   3.475  18.071  12.039
86091W        W58516  43.297  38.677  14.528
86092W        W58517   8.537  44.544   4.283
86093W        W58518  29.384   3.902   1.522
86094W        W58519   5.709  35.102   4.836
86095W        W58520   7.238  42.412   2.932
86096W        W58521  17.601   0.387  12.110
86097W        W58522   4.475  40.319  13.379
86098W        W58523  35.672  30.482  13.786
86099W        W58524  34.143   0.649  13.140
86100W        W58525  17.177   8.326   0.543
86101W        W58526  22.499  19.775  13.848
86102W        W58527  20.240  40.484   0.942
86103W        W58528  26.317  11.629   0.823
86104W        W58529  30.048   2.916   4.104
86105W        W58530   7.322   3.371   0.324
86106W        W58531  37.453   4.097  11.188
86107W        W58532  28.562  30.062  14.227
86108W        W58533  39.623  21.515  11.635
86109W        W58534   5.389   4.878   1.503
86110W        W58535  14.233  11.958   3.786
86111W        W58536  12.062  10.445  12.066
86112W        W58537   8.593   9.389   2.719
86113W        W58538  30.054  13.803   1.188
86114W        W58539  29.265   2.909  11.906
86115W        W58540  19.162  15.612  13.041
86116W        W58541  41.188  43.899  12.139
86117W        W58542  19.149  21.990   4.215
86118W        W58543  34.419  36.411   2.910
86119W        W58544  43.137  38.778  14.063
86120W        W58545   9.617  40.961  12.066
86121W        W58546  35.103  37.276  14.455
86122W        W58547  21.430  26.050  13.969
86123W        W58548  19.022  44.610   0.278
86124W        W58549  13.012   8.876  11.927
86125W        W58550  31.431  35.854  13.617
86126W        W58551  15.181   2.145  10.798
86127W        W58552  41.841  10.225  13.851
86128W        W58553   2.323  41.934  14.853
86129W        W58554  39.037  20.665  12.408
86130W        W58555  33.778  18.569  12.263
86131W        W58556  35.859  42.203   1.727
86132W        W58557   7.849   7.290  12.093
86133W        W58558  28.059   8.207  11.064
86134W        W58559  24.168  21.902  11.192
86135W        W58560  34.533  30.554  10.808
86136W        W58561   1.487  13.852   3.340
86137W        W58562  33.791   2.406  12.751
86138W        W58563  44.013  26.046   1.291
86139W        W58564  12.444   9.053   2.269
86140W        W58565   5.770  12.071  11.950
86141W        W58566  10.796  39.641   1.365
86142W        W58567  20.224  38.491   0.744
86143W        W58568   0.799   2.432   2.919
86144W        W58569  41.918   0.290  12.918
86145W        W58570  15.983  20.091  12.372
86146W        W58571  24.554  42.331  12.472
86147W        W58572  32.111  42.906   1.877
86148W        W58573  38.940   1.204  10.627
86149W        W58574  13.017  14.631   4.607
86150W        W58575  33.134   5.217  14.438
86151W        W58576  11.597  27.132   5.013
86152W        W58577  34.792   5.108  11.444
86153W        W58578  10.634   8.674   4.590
86154W        W58579   6.919   2.851   2.024
86155W        W58580  34.010   7.271  11.950
86156W        W58581  32.186  18.057   5.091
86157W        W58582  39.996   1.891   2.317
86158W        W58583   3.450   9.618  11.461
86159W        W58584  42.723  15.097   1.235
86160W        W58585  10.292   2.903  11.112
86161W        W58586   2.742   8.620   0.987
86162W        W58587  22.662   8.378   3.337
86163W        W58588  23.529  13.712   2.508
86164W        W58589  39.054  44.363   3.198
86165W        W58590  29.364  44.312   2.276
86166W        W58591   6.874  35.311  10.956
86167W        W58592  42.086   0.316   0.728
86168W        W58593  43.166  13.132   3.386
86169W        W58594  27.121  21.704   1.017
86170W        W58595  27.308   2.529  10.976
86171W        W58596  42.778  41.427   1.313
86172W        W58597  19.111  10.187  11.368
86173W        W58598  13.084   6.378   1.979
86174W        W58599  40.518  41.574   1.978
86175W        W58600  14.320   1.882  13.472
86176W        W58601  44.343  31.576  12.590
86177W        W58602  34.946  26.988  14.223
86178W        W58603  41.032  19.137  10.781
86179W        W58604  19.343  40.552  12.370
86180W        W58605  41.030   7.976  14.383
86181W        W58606  32.009   9.670  14.347
86182W        W58607  18.990   9.848   2.660
86183W        W58608  20.297   5.838   1.073
86184W        W58609  22.793  36.513   0.017
86185W        W58610   2.115  36.107  13.424
86186W        W58611  20.415  31.504   3.679
86187W        W58612  17.773   3.932   2.861
86188W        W58613  15.313   7.217  13.712
86189W        W58614  21.587  16.359  14.317
86190W        W58615  16.453  37.587  10.983
86191W        W58616  44.058  24.771   3.258
86192W        W58617  13.784  10.656   4.581
86193W        W58618  11.890  23.636  13.831
86194W        W58619  14.852  25.408   0.778
86195W        W58620  15.394   4.393  13.797
86196W        W58621  29.337  37.301  12.505
86197W        W58622  31.117  33.459   2.283
86198W        W58623   0.741   7.796   2.373
86199W        W58624  24.998   3.508  14.840
86200W        W58625  32.863   4.459  12.301
86201W        W58626  39.274  41.918   0.312
86202W        W58627  15.757   5.195   3.756
86203W        W58628  24.539   2.815  14.403
86204W        W58629   1.229   5.419   4.268
86205W        W58630  44.018  19.310   3.310
86206W        W58631  23.177   9.103  13.421
86207W        W58632  34.595  12.869   4.617
86208W        W58633  20.839  21.771   4.628
86209W        W58634  37.472  17.728   4.986
86210W        W58635  43.444  39.943   4.144
86211W        W58636  30.589   8.054  12.576
86212W        W58637  41.797  19.067  14.896
86213W        W58638  42.596   1.488   2.735
86214W        W58639  18.799  40.562   2.340
86215W        W58640   8.397  35.171  14.619
86216W        W58641   0.277  41.015  10.570
86217W        W58642   0.227   8.674  13.409
86218W        W58643  33.550  34.971   3.644
86219W        W58644  22.513  36.104   4.526
86220W        W58645  44.809  16.067   3.547
86221W        W58646   8.619  17.041  13.794
86222W        W58647  12.466  20.015   4.163
86223W        W58648   6.846  33.052  12.869
86224W        W58649  26.145  36.398   0.721
86225W        W58650   6.748  34.987  13.881
86226W        W58651  17.470  39.909  14.761
86227W        W58652   4.534  11.763  13.303
86228W        W58653  21.672  18.841   4.630
86229W        W58654  44.377  34.624   4.119
86230W        W58655  10.708  38.239  10.909
86231W        W58656  27.508   3.155   3.476
86232W        W58657  40.517  15.632   3.056
86233W        W58658  29.903  38.668   2.313
86234W        W58659   2.037   8.581  10.886
86235W        W58660  15.885   2.718  13.077
86236W        W58661  15.689  12.321   2.945
86237W        W58662   5.681  30.069   3.715
86238W        W58663  15.677  17.646  11.411
86239W        W58664  36.292  19.936   3.195
86240W        W58665   1.187   2.232  13.865
86241W        W58666  12.262  44.929   4.732
86242W        W58667  26.624  37.475   3.963
86243W        W58668  13.966  17.390   4.096
86244W        W58669  19.026  30.166  12.791
86245W        W58670  36.062  15.336   0.249
86246W        W58671  44.308  44.377  13.112
86247W        W58672   3.740  32.339   0.350
86248W        W58673  37.157  28.544  13.069
86249W        W58674  29.121  18.678   3.699
86250W        W58675  20.596  16.602   0.730
86251W        W58676  44.226  28.121  11.113
86252W        W58677  33.466   8.659  10.720
86253W        W58678  18.469   3.464   3.733
86254W        W58679  12.748  35.762  10.693
86255W        W58680  17.976   7.889  14.326
86256W        W58681  42.914   6.426  11.214
86257W        W58682   1.310  40.040   2.734
86258W        W58683  28.163  32.682   0.768
86259W        W58684  10.924   5.852   2.117
86260W        W58685   4.185  25.504   4.721
86261W        W58686  22.323  35.030  10.984
86262W        W58687  12.544  28.655  13.568
86263W        W58688  25.835  43.021   2.033
86264W        W58689  15.127  23.069   4.823
86265W        W58690  41.439   2.845   1.926
86266W        W58691   4.308  31.532   3.991
86267W        W58692  18.129  20.205  14.866
86268W        W58693  23.783  13.381   0.863
86269W        W58694  36.620  27.676   4.259
86270W        W58695  22.842  37.919  11.470
86271W        W58696   5.333  20.486  10.605
86272W        W58697  14.127   0.220   0.766
86273W        W58698  28.862  41.566   3.230
86274W        W58699  34.346   3.095   3.602
86275W        W58700  17.617  11.262  12.455
86276W        W58701  22.522  35.873   1.333
86277W        W58702  43.716  25.269   2.236
86278W        W58703  21.723  35.623  12.080
86279W        W58704  27.503  17.875   3.576
86280W        W58705   4.354  19.707  11.502
86281W        W58706  21.687  31.195   0.296
86282W        W58707  15.100  35.989   0.339
86283W        W58708   6.191   2.642   3.233
86284W        W58709  15.671  30.947   4.157
86285W        W58710   1.758  13.627   2.728
86286W        W58711  34.669  18.255   5.017
86287W        W58712  29.082  38.131  11.663
86288W        W58713   4.413  21.558  13.551
86289W        W58714  10.196  36.811   3.175
86290W        W58715  34.399   5.270   4.382
86291W        W58716  37.851  39.624   4.136
86292W        W58717   1.316  38.890  12.520
86293W        W58718  34.603  30.064  13.568
86294W        W58719   7.680   5.219  10.410
86295W        W58720   2.496  25.695   0.293
86296W        W58721  41.827  35.323   1.746
86297W        W58722  43.411   4.746   3.280
86298W        W58723   3.680   7.888  14.064
86299W        W58724  29.576  32.993  10.168
86300W        W58725  41.794   9.038   3.184
86301W        W58726   4.485   8.737   0.706
86302W        W58727  17.736  35.840   3.193
86303W        W58728  31.782   1.033  12.344
86304W        W58729   2.388  12.421  10.645
86305W        W58730  33.729  17.849   0.521
86306W        W58731   9.700  11.606  11.659
86307W        W58732  13.362  15.332   4.106
86308W        W58733  31.530   9.289  12.192
86309W        W58734   9.440  16.619  11.599
86310W        W58735  14.559   4.895  10.558
86311W        W58736  16.165  29.024  13.241
86312W        W58737  31.223  28.093   2.251
86313W        W58738  16.924  29.336  11.681
86314W        W58739  20.317  17.806  13.082
86315W        W58740  19.258  31.033  13.883
86316W        W58741  33.577   2.935  11.964
86317W        W58742  10.199  16.085  11.567
86318W        W58743  20.056  22.930  11.475
86319W        W58744  23.050   3.604   3.264
86320W        W58745   5.348   0.044   3.282
86321W        W58746  35.465   6.833  11.895
86322W        W58747  22.192   7.370   1.333
86323W        W58748  24.764  28.841  14.821
86324W        W58749  31.547  14.495   1.071
86325W        W58750  44.041  11.449   0.847
86326W        W58751   7.167  36.118  11.212
86327W        W58752  39.893  33.318   3.855
86328W        W58753  26.480  36.647  10.624
86329W        W58754  29.635  27.988  12.011
86330W        W58755   2.963  36.003   0.376
86331W        W58756  10.245   8.751  14.858
86332W        W58757   4.352  37.613   4.690
86333W        W58758   6.110  30.079   0.889
86334W        W58759   7.680  10.778   0.392
86335W        W58760  13.250  26.785   0.949
86336W        W58761   8.379  22.250   2.804
86337W        W58762   1.243  22.577   2.332
86338W        W58763  12.737  39.808  10.543
86339W        W58764  42.477  41.005  12.438
86340W        W58765  15.207  34.937   3.925
86341W        W58766  41.345  10.363  13.740
86342W        W58767  30.067  19.220   3.029
86343W        W58768  24.277  26.912  11.012
86344W        W58769  23.058  31.795   3.099
86345W        W58770  30.200  38.476   0.076
86346W        W58771   4.729  11.065  10.668
86347W        W58772  34.078   1.074  11.097
86348W        W58773  19.417  32.319   3.636
86349W        W58774  21.182  21.292  11.522
86350W        W58775  29.299  40.690   4.108
86351W        W58776  40.094   5.819   2.186
86352W        W58777  27.328  27.171  11.165
86353W        W58778  34.877  10.769  13.114
86354W        W58779  13.677  24.407  13.435
86355W        W58780  43.416  24.998   5.127
86356W        W58781  34.436  28.908   3.377
86357W        W58782  28.226  37.625   4.656
86358W        W58783  29.168  12.935   0.890
86359W        W58784  16.274  31.190   5.016
86360W        W58785  15.141   1.547  12.379
86361W        W58786   0.609  20.242   1.254
86362W        W58787  33.869  34.552   3.730
86363W        W58788  13.383   4.648  10.134
86364W        W58789  24.800  35.716   3.935
86365W        W58790   3.478  40.956   2.577
86366W        W58791  36.716  43.759   4.085
86367W        W58792  38.882  26.873   4.143
86368W        W58793   0.501  23.634  11.080
86369W        W58794  20.410  11.208  10.698
86370W        W58795  43.857  21.445   2.091
86371W        W58796  42.209  27.383  12.917
86372W        W58797  35.876  41.717   5.107
86373W        W58798  12.894  21.708   1.385
86374W        W58799  40.006   9.728  11.533
86375W        W58800  25.535   3.940  12.545
86376W        W58801   8.247  11.164   1.839
86377W        W58802  40.925  31.580   1.961
86378W        W58803   8.500   4.874   2.372
86379W        W58804  31.387  19.696   4.579
86380W        W58805   9.204  39.117  11.664
86381W        W58806  18.258  13.688  13.396
86382W        W58807  40.208  40.895  11.918
86383W        W58808  35.133  23.123   1.598
86384W        W58809  12.749   8.464  10.573
86385W        W58810  22.014  44.270  10.670
86386W        W58811  28.618  14.140  13.834
86387W        W58812  19.823  13.309  11.017
86388W        W58813  31.977   3.188  11.670
86389W        W58814  12.067  36.703   4.122
86390W        W58815  21.598  21.958  11.659
86391W        W58816  23.261   2.918  11.612
86392W        W58817  25.468  29.041  14.369
86393W        W58818  13.190  26.579  11.945
86394W        W58819  17.553  31.615   1.741
86395W        W58820  12.546   8.094   2.824
86396W        W58821  37.291   8.342   3.072
86397W        W58822  37.927   7.773   2.789
86398W        W58823  27.516  36.949   4.778
86399W        W58824  34.136   5.882  14.939
86400W        W58825  37.913  23.530  14.050
86401W        W58826  36.673  21.313  11.193
86402W        W58827   2.580  17.738  14.789
86403W        W58828  40.774  23.062  10.718
86404W        W58829  30.406  25.190  14.835
86405W        W58830  31.147  14.583   0.756
86406W        W58831   0.791   3.035  13.486
86407W        W58832  35.932  10.765  10.888
86408W        W58833   2.343   4.093   3.784
86409W        W58834  19.143  31.100  10.604
86410W        W58835  43.197   8.464   4.331
86411W        W58836  23.817  10.840  11.089
86412W        W58837  43.615  33.135  10.852
86413W        W58838  25.674  39.123  12.014
86414W        W58839  27.419  19.073   1.302
86415W        W58840  27.436  15.870  10.488
86416W        W58841   6.358   8.856   3.659
86417W        W58842  35.789  20.710   0.524
86418W        W58843   3.246   0.955   1.182
86419W        W58844  24.726  26.143   2.915
86420W        W58845  26.559  41.441  11.058
86421W        W58846  15.253  38.071   2.348
86422W        W58847  19.197  27.726  13.046
86423W        W58848  28.716  43.692  14.762
86424W        W58849  44.010  42.206  13.496
86425W        W58850  33.168   2.463  14.092
86426W        W58851  13.868  32.300  10.638
86427W        W58852  20.784  32.621   1.777
86428W        W58853  43.561  29.595   2.061
86429W        W58854  42.370   2.698   4.179
86430W        W58855  27.609  35.974   1.838
86431W        W58856   2.649  42.773   3.400
86432W        W58857  14.932  28.506  10.620
86433W        W58858  22.294  30.613  12.668
86434W        W58859   0.747   7.152   1.883
86435W        W58860   0.452  44.812   3.072
86436W        W58861  33.983  15.201  14.949
86437W        W58862  40.382  29.159  10.331
86438W        W58863  33.718  16.114  14.881
86439W        W58864  19.116  33.826  12.501
86440W        W58865  17.875  18.713  11.179
86441W        W58866  17.680  19.858  10.447
86442W        W58867  44.826  33.208  13.988
86443W        W58868  31.131  42.018  12.099
86444W        W58869  23.265  33.912   2.343
86445W        W58870  39.263   6.316   1.523
86446W        W58871  41.027  19.693   3.738
86447W        W58872  43.376  20.178  14.756
86448W        W58873  25.006  37.528   2.793
86449W        W58874  40.954   2.931  10.748
86450W        W58875  31.117  27.552   2.745
86451W        W58876  43.614   8.408   0.416
86452W        W58877  36.687  10.389   0.735
86453W        W58878  24.516  24.768   2.247
86454W        W58879  30.989  25.545   1.803
86455W        W58880   7.629  36.974  11.168
86456W        W58881  25.308   7.860   3.415
86457W        W58882   7.836  10.210  14.766
86458W        W58883  32.498  15.908  13.026
86459W        W58884  18.586  36.947  13.316
86460W        W58885  31.616  35.372  11.079
86461W        W58886   4.951   5.685  13.842
86462W        W58887  38.479   2.378  11.186
86463W        W58888  25.738  15.098  13.998
86464W        W58889  16.659  40.567   1.787
86465W        W58890  32.721  23.580  13.511
86466W        W58891  40.556  29.400  10.760
86467W        W58892  26.282  13.820  14.859
86468W        W58893  34.037  27.078   4.579
86469W        W58894  28.247  39.346  13.339
86470W        W58895  12.478  19.149  11.938
86471W        W58896  23.046  12.294   1.757
86472W        W58897  41.496  20.585  14.054
86473W        W58898  28.228  36.550  12.443
86474W        W58899   6.310  18.647   3.568
86475W        W58900  31.810  42.975  14.246
86476W        W58901   1.226  18.525   3.985
86477W        W58902  30.789  44.369   2.085
86478W        W58903  23.048  29.899   4.738
86479W        W58904  15.814  35.899   3.214
86480W        W58905  40.253   3.051   4.344
86481W        W58906  27.636   3.861  10.845
86482W        W58907  44.577   1.379  10.797
86483W        W58908  29.476   8.301  11.989
86484W        W58909  11.255  27.028   2.677
86485W        W58910  27.855   8.480   1.836
86486W        W58911  42.242  28.130   2.109
86487W        W58912  36.145  19.640   4.531
86488W        W58913  41.083  31.938  10.716
86489W        W58914  36.580  13.154   2.641
86490W        W58915   1.812  37.436   3.629
86491W        W58916  40.125  25.516  11.758
86492W        W58917  32.819  17.782  12.023
86493W        W58918  31.145  20.211  10.903
86494W        W58919  14.744  23.807  11.049
86495W        W58920  25.678   0.996  14.811
86496W        W58921   7.606  10.719  11.419
86497W        W58922  14.901  15.826   3.790
86498W        W58923  36.965  11.343  10.635
86499W        W58924  28.577  13.436   0.257
86500W        W58925  15.377  26.163   4.231
86501W        W58926   2.465   8.897   3.218
86502W        W58927  23.194  44.772   3.081
86503W        W58928  43.095  37.092  11.025
86504W        W58929  13.107  37.957  10.661
86505W        W58930   0.971  34.133  12.215
86506W        W58931  26.051  25.698  13.919
86507W        W58932   0.290  22.008   2.027
86508W        W58933   8.070   9.666   3.070
86509W        W58934  11.305  16.333   1.865
86510W        W58935  44.888  21.983  11.547
86511W        W58936  22.657  30.819   4.680
86512W        W58937  31.204  34.122  12.901
86513W        W58938  16.620  38.443   0.815
86514W        W58939   6.655  12.731  10.720
86515W        W58940  24.271  19.133   2.767
86516W        W58941  25.045  25.039   2.844
86517W        W58942  44.730  26.144  13.063
86518W        W58943  11.200  34.385  11.520
86519W        W58944  25.402  26.893   2.329
86520W        W58945   7.724  31.905  10.135
86521W        W58946   4.947  24.688   3.859
86522W        W58947  19.808  24.091   3.770
86523W        W58948  26.967  30.218  14.948
86524W        W58949  26.360  37.010   4.706
86525W        W58950  14.964  38.546   2.604
86526W        W58951   2.865   9.034   0.505
86527W        W58952   1.236  19.792   1.363
86528W        W58953  16.189  19.077   3.798
86529W        W58954  39.823   9.673  11.058
86530W        W58955  16.579   8.411  13.278
86531W        W58956  23.015   1.567  12.816
86532W        W58957  27.939  38.776  11.960
86533W        W58958  44.767   2.736   2.676
86534W        W58959  41.416  44.066   1.331
86535W        W58960   7.094  44.349  10.409
86536W        W58961  25.443  31.710  10.600
86537W        W58962  26.874  11.146   2.813
86538W        W58963  16.565   7.414   2.607
86539W        W58964  37.585  21.692  11.589
86540W        W58965  39.734  34.413  12.361
86541W        W58966  24.205  21.579   1.737
86542W        W58967  15.170   4.945   0.790
86543W        W58968  27.223  15.010  13.508
86544W        W58969  31.925  11.308  10.706
86545W        W58970  34.839  11.175  12.823
86546W        W58971   0.164   7.534  11.979
86547W        W58972  37.659  17.112   3.752
86548W        W58973  19.751   8.302  11.545
86549W        W58974   7.649   1.982  13.925
86550W        W58975  14.007  24.792   1.248
86551W        W58976  19.116  15.200  14.377
86552W        W58977  28.057  39.301  10.644
86553W        W58978  20.812  32.686  14.442
86554W        W58979  36.625   3.437  11.162
86555W        W58980  36.908  15.067  11.962
86556W        W58981  37.062  40.551   1.852
86557W        W58982  22.966  19.103   3.254
86558W        W58983  44.132  40.823  12.857
86559W        W58984  24.990   3.930   2.880
86560W        W58985  30.585  32.949   4.173
86561W        W58986   8.158   3.057  11.198
86562W        W58987  16.689  18.499  13.055
86563W        W58988   7.387  35.663  14.632
86564W        W58989  28.532  44.692  14.856
86565W        W58990  17.875  15.691   4.635
86566W        W58991  16.768  42.810   4.539
86567W        W58992  42.358   9.875   4.611
86568W        W58993  24.171  17.131  10.480
86569W        W58994   0.990  19.523  13.837
86570W        W58995  38.065  25.859  14.494
86571W        W58996  15.757  27.201  10.450
86572W        W58997  37.910  16.649  13.411
86573W        W58998  44.750  36.587   2.889
86574W        W58999  21.226  15.923   1.758
86575W        W59000  37.635  34.828  10.722
86576W        W59001  28.592  13.976  14.843
86577W        W59002   3.354  29.031  13.106
86578W        W59003  26.051   7.207  12.612
86579W        W59004   3.268  20.817  13.725
86580W        W59005  42.960  22.138  12.620
86581W        W59006  10.893  23.014  11.886
86582W        W59007   6.533  22.866   0.423
86583W        W59008  30.924  17.094  13.404
86584W        W59009  20.539  40.352   4.556
86585W        W59010  34.988  15.153  12.391
86586W        W59011  22.578  19.478  11.936
86587W        W59012  17.199  39.088  11.256
86588W        W59013  10.807   8.873   5.470
86589W        W59014  20.729  43.917  10.675
86590W        W59015  30.554  10.391  13.007
86591W        W59016  26.498  43.231  12.802
86592W        W59017  29.398  36.966   3.627
86593W        W59018  40.490  37.589  13.112
86594W        W59019  42.787  21.684  14.415
86595W        W59020   9.691  39.074   0.759
86596W        W59021  35.603  22.624  14.781
86597W        W59022  36.902  21.114   0.227
86598W        W59023  42.348  13.750  13.706
86599W        W59024   2.244  38.469   4.707
86600W        W59025  24.660  17.131  12.796
86601W        W59026  39.625  27.350   3.699
86602W        W59027   3.977  32.668   1.706
86603W        W59028   9.824  14.746  12.936
86604W        W59029  21.241  15.052   0.742
86605W        W59030  29.916  18.164   0.354
86606W        W59031   9.461  16.603  14.660
86607W        W59032  33.593  25.381  11.613
86608W        W59033  38.368  34.156  14.624
86609W        W59034   3.941  15.762  11.055
86610W        W59035   9.184   8.211  10.269
86611W        W59036   0.349  28.917   0.008
86612W        W59037   7.845  34.506   4.643
86613W        W59038   7.165  24.988  12.614
86614W        W59039   7.895  18.746  12.588
86615W        W59040  30.051  19.036   2.554
86616W        W59041  40.054  28.647  12.113
86617W        W59042   1.721  35.593   2.760
86618W        W59043  34.415  37.589   3.267
86619W        W59044  27.017  37.895  11.616
86620W        W59045  36.465  27.329   2.809
86621W        W59046  38.882  30.414   4.266
86622W        W59047  27.925   4.911  10.754
86623W        W59048  28.907   3.142   3.178
86624W        W59049   8.535  14.197  11.207
86625W        W59050  17.090   2.238  10.080
86626W        W59051  39.269  27.837  12.859
86627W        W59052  38.800  10.690  11.095
86628W        W59053  24.418  24.311  14.470
86629W        W59054  25.368   1.248   1.140
86630W        W59055  19.264  35.937   3.319
86631W        W59056   0.787   6.970   3.247
86632W        W59057  19.923  38.079   1.870
86633W        W59058   5.451  11.444  11.100
86634W        W59059  13.609  19.165   1.464
86635W        W59060  22.789   2.233   0.678
86636W        W59061   0.750  15.546  14.906
86637W        W59062  34.348   1.781   4.244
86638W        W59063  35.161   1.759   9.870
86639W        W59064  38.568  25.848  10.648
86640W        W59065  24.341  41.001   3.304
86641W        W59066  39.046  44.374  10.867
86642W        W59067  27.006   5.267   1.372
86643W        W59068  37.942   7.391   0.175
86644W        W59069   4.459  35.814  12.434
86645W        W59070   4.716   9.425   4.406
86646W        W59071  13.544   7.675   1.889
86647W        W59072   5.373   1.099   2.340
86648W        W59073  21.523   8.936   3.974
86649W        W59074  38.086   4.808   4.431
86650W        W59075  20.982   1.662  14.996
86651W        W59076   9.803   3.010  11.037
86652W        W59077   3.442  28.813   1.037
86653W        W59078  27.554  39.470   0.081
86654W        W59079  24.322  34.514  13.799
86655W        W59080  20.837   0.564   4.928
86656W        W59081  38.032  29.969   0.753
86657W        W59082  37.074   5.825   4.194
86658W        W59083  25.565  26.134  14.489
86659W        W59084  37.390  40.928   4.355
86660W        W59085  29.156  27.198   1.057
86661W        W59086  43.991  27.121  12.317
86662W        W59087  20.464  18.688   0.032
86663W        W59088   3.934  26.513   4.070
86664W        W59089  24.404  42.949   5.145
86665W        W59090  23.814   8.808  11.264
86666W        W59091  38.047  32.698  14.074
86667W        W59092  35.840  20.231   3.277
86668W        W59093  12.355  13.670  14.384
86669W        W59094  41.258   6.305  14.430
86670W        W59095   4.189   5.466  11.420
86671W        W59096  35.334  19.037  12.543
86672W        W59097   9.650  25.202  12.626
86673W        W59098  39.603  24.679  11.500
86674W        W59099   1.861  44.579   3.678
86675W        W59100  23.069  28.089   1.194
86676W        W59101  37.637  36.851  10.624
86677W        W59102  18.799  12.610   1.942
86678W        W59103  19.347  34.507   1.836
86679W        W59104   7.612  39.060  12.509
86680W        W59105  22.130  34.344  14.727
86681W        W59106  25.623  20.419   2.192
86682W        W59107  22.794  39.855   1.034
86683W        W59108  40.351  28.531  14.686
86684W        W59109   3.850   9.253   0.312
86685W        W59110  17.533  30.126   2.306
86686W        W59111  17.306  26.193   4.045
86687W        W59112  31.418  18.306  11.110
86688W        W59113   2.397   4.808   4.201
86689W        W59114   9.403  25.620   3.392
86690W        W59115  11.247  18.815   1.824
86691W        W59116  11.570  14.740  14.833
86692W        W59117  29.606  12.846   4.247
86693W        W59118  37.547  36.104   2.185
86694W        W59119  36.290  33.042  12.346
86695W        W59120  31.943  32.293   3.668
86696W        W59121  29.971  10.488  13.564
86697W        W59122   2.635  26.664   5.048
86698W        W59123  10.310  14.451   0.958
86699W        W59124  40.114  16.144  12.451
86700W        W59125   8.725  21.099  11.392
86701W        W59126  31.903  14.253   2.664
86702W        W59127  25.526   1.519   1.861
86703W        W59128  32.616  30.042  11.656
86704W        W59129   1.482  34.535   0.861
86705W        W59130  34.597  30.526  11.874
86706W        W59131  11.499  41.964   0.733
86707W        W59132  37.794  31.658   0.272
86708W        W59133  31.907  35.572  14.774
86709W        W59134  19.845  18.627   0.514
86710W        W59135  31.189  16.974   4.158
86711W        W59136  11.851   4.813   3.618
86712W        W59137   4.642  24.516   1.286
86713W        W59138  13.866  41.378   3.663
86714W        W59139  32.969  21.526   3.800
86715W        W59140  26.685  27.189   0.853
86716W        W59141   1.873   9.009  12.445
86717W        W59142   9.297  18.228  12.838
86718W        W59143  23.191  37.953   2.709
86719W        W59144  15.174  40.000  14.943
86720W        W59145  23.153  40.861   2.654
86721W        W59146  26.563   2.289  12.516
86722W        W59147  25.660  43.207  14.781
86723W        W59148  22.939   6.214  13.250
86724W        W59149  31.526  13.117  12.722
86725W        W59150  39.505  41.280   3.963
86726W        W59151  34.383   0.089   3.863
86727W        W59152  10.708  24.669  10.663
86728W        W59153  43.396  35.722  11.372
86729W        W59154  10.699   9.192  13.275
86730W        W59155  11.756  39.394  13.863
86731W        W59156  26.138  42.565  14.512
86732W        W59157   9.966  28.701   3.408
86733W        W59158  14.135  23.119   3.205
86734W        W59159  21.532  35.566   4.290
86735W        W59160  27.952  34.205   1.234
86736W        W59161  30.499  36.386  12.840
86737W        W59162  42.697  36.153  10.226
86738W        W59163  35.546   8.067  12.881
86739W        W59164  20.601  38.867   0.010
86740W        W59165  38.495   2.566  14.484
86741W        W59166   5.202  24.532  13.685
86742W        W59167   2.971   3.228   2.019
86743W        W59168  11.451   7.776   9.827
86744W        W59169  42.960  36.597  11.946
86745W        W59170  36.029  23.533  10.123
86746W        W59171   6.101  21.286   3.147
86747W        W59172  22.676  34.078  10.414
86748W        W59173  31.502  39.601  10.644
86749W        W59174  33.141   6.734  10.658
86750W        W59175  32.887  11.303   4.628
86751W        W59176  18.865  33.888   4.677
86752W        W59177  26.655  15.686  14.585
86753W        W59178  11.195  11.405  14.988
86754W        W59179  31.120  16.507   3.959
86755W        W59180   3.622  23.115   0.001
86756W        W59181  29.906   1.941   2.745
86757W        W59182   6.268  41.599   0.323
86758W        W59183  33.666   5.220   1.280
86759W        W59184   1.831  21.121  14.279
86760W        W59185  18.208  21.630   2.418
86761W        W59186  12.256   5.978   1.613
86762W        W59187  38.479  36.236  10.492
86763W        W59188   1.655  26.593  14.956
86764W        W59189  27.257  21.725  13.004
86765W        W59190  36.065  39.518   2.215
86766W        W59191  29.910  23.580   1.327
86767W        W59192  33.404  24.847  11.589
86768W        W59193  12.878  32.659  11.166
86769W        W59194  33.600  25.997  10.548
86770W        W59195  42.170  44.012  11.912
86771W        W59196  31.905  38.579   2.278
86772W        W59197   5.654  37.001   5.590
86773W        W59198  10.332  10.758   4.410
86774W        W59199  11.134  20.171  14.442
86775W        W59200  37.122  38.288   1.873
86776W        W59201  37.830  26.456  12.916
86777W        W59202  37.434   4.262   0.918
86778W        W59203   6.264  11.709   2.380
86779W        W59204  31.377   9.181   0.943
86780W        W59205  39.466  32.233   0.479
86781W        W59206  19.301  43.413   0.032
86782W        W59207  31.146   6.366  10.654
86783W        W59208  42.986  12.251   1.883
86784W        W59209  27.250  27.415   3.380
86785W        W59210  43.975   4.940   0.356
86786W        W59211  44.526  44.877  14.965
86787W        W59212  36.591   4.903  14.845
86788W        W59213  23.767  27.518  10.829
86789W        W59214  25.246   4.435   4.188
86790W        W59215  33.830   3.959   0.914
86791W        W59216  39.372  42.459  12.980
86792W        W59217  44.317   0.962   3.010
86793W        W59218  17.798  13.618  11.027
86794W        W59219  31.573  22.673   3.976
86795W        W59220  31.896  18.095   3.758
86796W        W59221  25.326  39.334   2.155
86797W        W59222  15.814   4.655   3.964
86798W        W59223   9.146  12.320  11.937
86799W        W59224  32.162  32.828  12.028
86800W        W59225   8.669  23.227  10.581
86801W        W59226  39.052  10.702  10.643
86802W        W59227  13.656   9.375   0.033
86803W        W59228  20.736  39.010  11.831
86804W        W59229  23.719  18.587   1.873
86805W        W59230  39.301  27.367   1.239
86806W        W59231  40.304  22.915   2.251
86807W        W59232  28.659   6.248   0.398
86808W        W59233  20.389  28.567   3.964
86809W        W59234  32.658  35.337   0.963
86810W        W59235  44.654  26.156  14.035
86811W        W59236  13.865  26.980  11.062
86812W        W59237   5.684  16.186  12.873
86813W        W59238  24.006  23.685   3.240
86814W        W59239  36.380  35.497  11.811
86815W        W59240   7.457  30.005  14.674
86816W        W59241  41.909   5.785   2.744
86817W        W59242   2.338   3.532   2.737
86818W        W59243  24.209   1.943  14.258
86819W        W59244  21.555  18.803  11.940
86820W        W59245  24.370   4.208   4.135
86821W        W59246  25.150   9.905  12.415
86822W        W59247   0.382  41.211   3.885
86823W        W59248  12.712  14.876   3.330
86824W        W59249  11.142  41.813  14.677
86825W        W59250  27.681  35.307  12.574
86826W        W59251   6.711  43.330  12.042
86827W        W59252  19.529  22.011   1.010
86828W        W59253   6.167   9.339   0.900
86829W        W59254  21.368  38.434  14.931
86830W        W59255   2.786   5.822   1.862
86831W        W59256  18.127   2.258  14.971
86832W        W59257  41.401  13.161  14.986
86833W        W59258  36.151   9.790   2.319
86834W        W59259  41.025  41.399  14.813
86835W        W59260  40.509  40.253   1.938
86836W        W59261  28.425   1.016   2.668
86837W        W59262   7.297  14.794   2.626
86838W        W59263  14.329  12.684  14.510
86839W        W59264  14.940  22.438   0.033
86840W        W59265  36.574  12.575   0.092
86841W        W59266   8.941  36.343   4.135
86842W        W59267  41.218   9.914  13.938
86843W        W59268   5.792  28.478   4.063
86844W        W59269  23.074   4.732   1.444
86845W        W59270  44.996   9.837  11.877
86846W        W59271   4.189  29.525  11.310
86847W        W59272  35.070  28.686  11.413
86848W        W59273  34.800  29.663   0.969
86849W        W59274  29.702   8.291  10.671
86850W        W59275  10.146  38.801  13.871
86851W        W59276  29.438  26.770   2.675
86852W        W59277  42.421  13.882  11.492
86853W        W59278   5.832  36.877   3.110
86854W        W59279  28.118   5.935  10.760
86855W        W59280   7.956  38.443  12.499
86856W        W59281  21.206  37.511  10.702
86857W        W59282  42.870  29.032   2.302
86858W        W59283  26.055   4.174  14.244
86859W        W59284  10.616   4.460   3.864
86860W        W59285  35.036  30.624  11.617
86861W        W59286  20.757  30.568   2.774
86862W        W59287  44.392  10.274  14.334
86863W        W59288   7.489  26.611   1.451
86864W        W59289   2.929  28.482  12.415
86865W        W59290  12.705  39.818  14.921
86866W        W59291  17.810  18.196   1.585
86867W        W59292   6.197   7.806  14.828
86868W        W59293  28.240  16.298  13.028
86869W        W59294  25.709  39.844   3.555
86870W        W59295  30.174   1.481  13.326
86871W        W59296  34.883  38.440   4.481
86872W        W59297  27.079   9.186   4.499
86873W        W59298  23.218  40.037  12.974
86874W        W59299   4.660  31.118   2.707
86875W        W59300   1.306  20.304   1.364
86876W        W59301  10.678  20.782  10.991
86877W        W59302   4.408   6.709   3.229
86878W        W59303  20.643  20.802   3.756
86879W        W59304  44.217   7.870  10.551
86880W        W59305  22.160  14.730   1.098
86881W        W59306  16.622  39.820  14.355
86882W        W59307  36.496  37.749  12.984
86883W        W59308  27.244  33.480   5.589
86884W        W59309  36.976  10.829  10.771
86885W        W59310  22.818   6.705   2.377
86886W        W59311  14.969  38.595  10.970
86887W        W59312  15.057  41.336   4.723
86888W        W59313  19.569  35.081   2.112
86889W        W59314  43.067  37.394  11.650
86890W        W59315   0.998  16.096   0.940
86891W        W59316  10.063   9.766  11.131
86892W        W59317   3.725  36.894  14.351
86893W        W59318  13.822  14.054   1.434
86894W        W59319  21.539  41.767   1.314
86895W        W59320   6.260  31.316   2.004
86896W        W59321  11.286  15.024   4.606
86897W        W59322   9.380  26.499   1.971
86898W        W59323  29.273  36.240   2.747
86899W        W59324   3.963   8.204   1.917
86900W        W59325  15.357  23.484   0.468
86901W        W59326   2.068  29.667   3.922
86902W        W59327  16.636  16.584   0.924
86903W        W59328  39.616  31.939  10.866
86904W        W59329  40.446  43.536   3.290
86905W        W59330  19.782  26.114  10.610
86906W        W59331   6.921   5.188  11.848
86907W        W59332  39.640  40.928   2.167
86908W        W59333  16.619  34.959   4.704
86909W        W59334  36.410  18.721   1.327
86910W        W59335  14.856   7.917  13.461
86911W        W59336   4.839  41.239   4.093
86912W        W59337  27.041   0.694  13.709
86913W        W59338   2.720  24.089  10.632
86914W        W59339   7.717  25.263   3.580
86915W        W59340  29.031  42.343  12.174
86916W        W59341  29.944  17.754   2.067
86917W        W59342   6.708  18.817   3.816
86918W        W59343  34.890   8.046  11.498
86919W        W59344  27.817  26.390   1.189
86920W        W59345  31.825  24.684  14.282
86921W        W59346  32.207  26.602   4.629
86922W        W59347  40.212  30.413  13.443
86923W        W59348  20.496   0.796   1.662
86924W        W59349  40.131  10.722   0.557
86925W        W59350  30.110  22.198  11.567
86926W        W59351  21.247  41.054   3.690
86927W        W59352  31.071   3.154  11.957
86928W        W59353  28.532   1.855   0.393
86929W        W59354  35.526  11.933  14.980
86930W        W59355  17.587  44.991   9.880
86931W        W59356   9.835  35.423  14.098
86932W        W59357  15.798  27.863  11.724
86933W        W59358  34.857   5.364   2.842
86934W        W59359  13.726   1.466  14.037
86935W        W59360  40.443  26.105  14.938
86936W        W59361  36.368  38.193  13.863
86937W        W59362  29.922  38.837   1.139
86938W        W59363  27.317  23.010   3.122
86939W        W59364  22.208  42.354  11.584
86940W        W59365  13.647   0.740   2.634
86941W        W59366  41.580  26.607   0.360
86942W        W59367  14.543  39.303  14.953
86943W        W59368   3.427  12.268   1.410
86944W        W59369  28.260  23.960  11.216
86945W        W59370  30.009  18.304   3.241
86946W        W59371  27.169  43.529   0.151
86947W        W59372  27.770  20.749   4.697
86948W        W59373  24.053   9.034  14.380
86949W        W59374  18.878  34.069  13.551
86950W        W59375  28.333  26.597  11.921
86951W        W59376   6.384  37.932   3.667
86952W        W59377  24.938  24.048  13.615
86953W        W59378  35.441  31.560   3.737
86954W        W59379   3.769  18.546   4.272
86955W        W59380  41.590  35.855  13.949
86956W        W59381  16.559   3.727  11.993
86957W        W59382  29.938  12.083   1.368
86958W        W59383  37.042  24.964  13.804
86959W        W59384  37.876  13.145  11.605
86960W        W59385  42.993  31.854   4.930
86961W        W59386  18.635  17.469  10.687
86962W        W59387  19.798  22.253  11.926
86963W        W59388  13.767  39.568   2.843
86964W        W59389  27.156  15.429  10.600
86965W        W59390  38.481  29.023   0.459
86966W        W59391  28.641  10.677   3.997
86967W        W59392  42.966  32.663  11.548
86968W        W59393  15.367  43.313   2.399
86969W        W59394  14.192  36.920   2.484
86970W        W59395   1.372  16.605  13.458
86971W        W59396  14.608  25.752  14.265
86972W        W59397  43.701  25.405  12.085
86973W        W59398  10.045   6.153  10.154
86974W        W59399  41.795  29.175  12.187
86975W        W59400  24.726  43.924  14.429
86976W        W59401  42.771   3.413  10.760
86977W        W59402  34.457  18.590  12.939
86978W        W59403  10.121  30.770  11.506
86979W        W59404  42.496   6.456  12.531
86980W        W59405  14.034  19.674   1.325
86981W        W59406  38.818  19.212   0.781
86982W        W59407  19.516  23.585  10.673
86983W        W59408  12.566   8.652   2.820
86984W        W59409  28.352  22.062  13.583
86985W        W59410  30.576  40.131  12.015
86986W        W59411  21.424   3.259   0.908
86987W        W59412  28.984  14.294  11.456
86988W        W59413   1.425  19.101   0.021
86989W        W59414  36.388  21.323   4.417
86990W        W59415   6.694  35.505   3.048
86991W        W59416   7.527  20.672   4.842
86992W        W59417  43.340  15.703   5.051
86993W        W59418  31.502  17.069  14.909
86994W        W59419   9.757  25.944   1.059
86995W        W59420  12.263  26.547   4.068
86996W        W59421  22.589   6.561  11.539
86997W        W59422  11.762   3.456  10.682
86998W        W59423   0.046   8.328  10.726
86999W        W59424  10.562  17.852  14.301
87000W        W59425  44.858   3.916  10.927
87001W        W59426  32.497   1.348   3.210
87002W        W59427  24.153  27.493   1.548
87003W        W59428  18.880  31.191   1.192
87004W        W59429  20.570   8.370  13.014
87005W        W59430   5.264  23.917   2.687
87006W        W59431  28.434  34.896  10.756
87007W        W59432  19.684  25.266  10.583
87008W        W59433  29.604  27.398  11.968
87009W        W59434  28.139   8.892   5.078
87010W        W59435  27.566  17.148   2.241
87011W        W59436   0.519  11.687  11.096
87012W        W59437  12.378  43.384  12.906
87013W        W59438  15.250   6.789  13.397
87014W        W59439   5.420  30.467   5.113
87015W        W59440   2.931  30.985   1.478
87016W        W59441   9.823  29.525   4.296
87017W        W59442   0.281  17.045  13.869
87018W        W59443   5.698   7.315   1.912
87019W        W59444  23.680  34.870  12.430
87020W        W59445  35.494  34.125  11.464
87021W        W59446  26.631  30.134  13.350
87022W        W59447  32.091  34.960  12.648
87023W        W59448  44.389  43.871   2.734
87024W        W59449   2.681  44.721   0.886
87025W        W59450  37.114   3.162  11.228
87026W        W59451  21.570   2.847   1.216
87027W        W59452  13.862  25.822  11.518
87028W        W59453  10.153   3.817  10.878
87029W        W59454  42.218  38.429  14.008
87030W        W59455   0.963  15.072   3.685
87031W        W59456  10.220  10.392   3.535
87032W        W59457  31.929   9.655  12.726
87033W        W59458   2.859  38.738   3.067
87034W        W59459   0.421   9.785  14.028
87035W        W59460   0.462  31.218   2.870
87036W        W59461  44.992   0.639  14.390
87037W        W59462  44.043   5.913   3.701
87038W        W59463  18.138   5.818  11.625
87039W        W59464  38.111   9.661  11.467
87040W        W59465  26.699  44.081   2.689
87041W        W59466   7.673  44.061   1.932
87042W        W59467  41.457  26.245  12.798
87043W        W59468   0.987  27.404   1.761
87044W        W59469  18.716  15.283   0.365
87045W        W59470   3.711  21.692   4.568
87046W        W59471  27.302   7.489  10.048
87047W        W59472  19.003  37.143  13.512
87048W        W59473   1.893  23.961  14.829
87049W        W59474  17.796  38.803   1.934
87050W        W59475   0.977  26.266  12.235
87051W        W59476   2.800   5.140   4.218
87052W        W59477  15.165  23.482   1.419
87053W        W59478  14.748  35.687  14.802
87054W        W59479   5.821   8.319   3.533
87055W        W59480  25.311  34.141  14.238
87056W        W59481   7.831  38.087   3.256
87057W        W59482  14.756  17.336  14.581
87058W        W59483  44.873  21.496   3.153
87059W        W59484   8.849   3.722  14.944
87060W        W59485  11.633   6.691   4.975
87061W        W59486   7.385   1.168   0.755
87062W        W59487  30.108  41.381  12.976
87063W        W59488  13.618  25.606   4.603
87064W        W59489  25.127  15.664   3.247
87065W        W59490   4.768   4.978   4.314
87066W        W59491  44.967  11.665   1.340
87067W        W59492  30.539  16.367   2.202
87068W        W59493   5.575   5.889   4.261
87069W        W59494  11.323   4.772   1.431
87070W        W59495  39.256  11.028   2.572
87071W        W59496  41.506  31.655  12.734
87072W        W59497   4.789  11.821   4.195
87073W        W59498   3.799   1.929  14.793
87074W        W59499  21.159  37.941  14.891
87075W        W59500  18.347  15.501   4.872
87076W        W59501  29.932  37.020   1.155
87077W        W59502   6.351   4.249  12.154
87078W        W59503  31.545  20.061   3.212
87079W        W59504  25.958   5.239  12.500
87080W        W59505  37.569  20.219   2.750
87081W        W59506   0.887   6.151  13.901
87082W        W59507  35.895  14.188  10.562
87083W        W59508   5.172  41.465   0.960
87084W        W59509   9.202   0.423   3.299
87085W        W59510  19.835   8.235  12.450
87086W        W59511  19.195  37.464  11.425
87087W        W59512   6.155  16.357  11.986
87088W        W59513  25.406  24.136  11.729
87089W        W59514   3.882  15.644  13.971
87090W        W59515  41.641  44.387   0.930
87091W        W59516  24.623  12.283  10.642
87092W        W59517   4.187  19.647   2.489
87093W        W59518   0.903  38.533  12.058
87094W        W59519  25.748   4.645  12.132
87095W        W59520  20.569  42.889  11.258
87096W        W59521  17.033  23.735   1.332
87097W        W59522  12.784   6.053   2.304
87098W        W59523  25.504  36.241   4.531
87099W        W59524  28.125  17.750  10.732
87100W        W59525   0.695  11.054  12.411
87101W        W59526  42.844   2.818   3.973
87102W        W59527  37.407  14.416   2.128
87103W        W59528   1.154   1.840  14.893
87104W        W59529  43.947  29.532   2.417
87105W        W59530   8.199  40.684  12.078
87106W        W59531   5.326   6.436   0.660
87107W        W59532   6.952  16.831  13.918
87108W        W59533   7.212  44.682   1.337
87109W        W59534  13.297  13.359  14.757
87110W        W59535  40.790  24.756   5.187
87111W        W59536  24.241   1.142  10.699
87112W        W59537  24.641  33.520  12.007
87113W        W59538  29.065   6.847  11.130
87114W        W59539   2.209  38.144   2.252
87115W        W59540  10.496  34.378   3.722
87116W        W59541   4.832   2.452   0.902
87117W        W59542  27.757  22.222  10.399
87118W        W59543  30.049  27.881   4.437
87119W        W59544  14.485   5.337   0.724
87120W        W59545  40.786   5.770   1.665
87121W        W59546  29.160  25.026  13.848
87122W        W59547  35.870   1.655  13.508
87123W        W59548  18.131   2.508   0.430
87124W        W59549  43.549  22.599  11.038
87125W        W59550   5.825  16.118   3.042
87126W        W59551  21.511  28.553  13.865
87127W        W59552  32.760  20.851  11.965
87128W        W59553  41.871  33.655   1.390
87129W        W59554  39.358   7.883   4.578
87130W        W59555   0.956  37.421  11.211
87131W        W59556   5.421  10.633  14.463
87132W        W59557  31.545  41.809   1.212
87133W        W59558  34.827  19.819  12.792
87134W        W59559  22.030  26.089  12.341
87135W        W59560  12.753  38.732  14.846
87136W        W59561  19.218  18.202   1.836
87137W        W59562  39.814   6.284   0.369
87138W        W59563  35.100  22.766  13.850
87139W        W59564  27.168  18.780  14.678
87140W        W59565   7.751   7.402  13.105
87141W        W59566   4.544   0.374  12.368
87142W        W59567   5.647  41.559   0.719
87143W        W59568  19.155  39.151   1.171
87144W        W59569  21.301  40.049  13.038
87145W        W59570  30.940  32.453   0.962
87146W        W59571  39.595  44.784   1.470
87147W        W59572  17.593  22.848   1.447
87148W        W59573  18.434  23.099  11.935
87149W        W59574  19.730  35.652   3.400
87150W        W59575  17.697  44.655  13.453
87151W        W59576  35.380  34.468   4.082
87152W        W59577  25.674   2.009   4.132
87153W        W59578   5.937   4.916  11.901
87154W        W59579  18.741  44.738  14.851
87155W        W59580  19.808   9.797  11.950
87156W        W59581  10.162   8.482   2.789
87157W        W59582  11.599  34.774   2.770
87158W        W59583  15.452  10.438  11.318
87159W        W59584  20.985  26.533  11.102
87160W        W59585  40.355  18.966  13.921
87161W        W59586  42.306  30.861   1.860
87162W        W59587  40.215  22.041   4.201
87163W        W59588   0.500   3.273  14.960
87164W        W59589   8.726  34.604  12.944
87165W        W59590   5.375  25.841   4.853
87166W        W59591  24.807  41.565  10.582
87167W        W59592  26.980  41.452   3.250
87168W        W59593   3.811   6.922  14.163
87169W        W59594  32.871  32.073   0.302
87170W        W59595   6.701  25.677  13.575
87171W        W59596  34.223  27.607  13.589
87172W        W59597  23.379  41.529   4.610
87173W        W59598  41.379  10.669  12.813
87174W        W59599  40.106   5.300   0.857
87175W        W59600  37.811   2.302   3.210
87176W        W59601  34.650  15.750   2.214
87177W        W59602  17.114  39.070  13.795
87178W        W59603   4.831   3.305   2.346
87179W        W59604   2.948   0.908   0.341
87180W        W59605  31.556  22.819   0.540
87181W        W59606  12.748   9.095   4.511
87182W        W59607  43.018   0.742  10.522
87183W        W59608  42.409  11.596  12.143
87184W        W59609  11.862   0.939  13.995
87185W        W59610   7.147  41.057  14.366
87186W        W59611   0.012   7.467  13.054
87187W        W59612   4.859  21.372   5.092
87188W        W59613  21.950  34.856   0.553
87189W        W59614   1.820  27.011   3.170
87190W        W59615  24.206   4.987  11.141
87191W        W59616  37.125  26.632   3.709
87192W        W59617  31.004  21.477   4.790
87193W        W59618  33.497  18.258   0.708
87194W        W59619   2.840  40.765  13.270
87195W        W59620  23.998   7.353   1.245
87196W        W59621  39.351  21.060  13.509
87197W        W59622  15.565  40.892   3.900
87198W        W59623  26.404   7.274   4.270
87199W        W59624  17.607  42.327   1.688
87200W        W59625   9.442  12.207   3.381
87201W        W59626   7.565  12.295  12.941
87202W        W59627  36.491  39.982  13.477
87203W        W59628   0.870  30.456   0.322
87204W        W59629  28.659  37.552  11.097
87205W        W59630  43.177  39.482  11.065
87206W        W59631  15.500  31.016   4.656
87207W        W59632   6.175  18.280   3.247
87208W        W59633   7.692  28.434   3.744
87209W        W59634  24.304  33.055  13.822
87210W        W59635  41.246  38.619  13.754
87211W        W59636  26.076   5.721  11.006
87212W        W59637   2.986  34.340  13.455
87213W        W59638   7.835  43.432  10.562
87214W        W59639   1.913  38.086   2.771
87215W        W59640  36.546   7.412   4.181
87216W        W59641  27.369  21.544  14.479
87217W        W59642   5.296   2.104  13.609
87218W        W59643   9.687   4.421  11.510
87219W        W59644   5.381   0.610  13.467
87220W        W59645  19.091   0.731   2.292
87221W        W59646  25.778   1.678  14.044
87222W        W59647  12.593  40.340  13.825
87223W        W59648  17.179  17.201  13.069
87224W        W59649   0.778  41.886   2.395
87225W        W59650  14.180  38.847   2.853
87226W        W59651   1.711   1.853  11.721
87227W        W59652  12.083  34.151  13.330
87228W        W59653  36.564  18.778   2.385
87229W        W59654  14.605   2.554  11.145
87230W        W59655  12.692  14.522  13.171
87231W        W59656  27.181   9.128  13.079
87232W        W59657  43.832  13.365  11.229
87233W        W59658   8.425  31.470  14.012
87234W        W59659  31.941  20.160  13.386
87235W        W59660   3.039  12.878   2.348
87236W        W59661  27.905  31.925   1.768
87237W        W59662   7.235   4.685   0.849
87238W        W59663   5.835  42.177  12.066
87239W        W59664  23.699  27.330   1.825
87240W        W59665  42.349   3.363   3.278
87241W        W59666  24.814  35.822   3.126
87242W        W59667  38.397   8.387  12.191
87243W        W59668  24.743  20.339  13.778
87244W        W59669  20.498  19.744  13.878
87245W        W59670  22.078   4.190   4.550
87246W        W59671  32.366  34.204  11.364
87247W        W59672  24.629  10.215   3.628
87248W        W59673   1.231  38.360  13.277
87249W        W59674  33.981  20.039   3.900
87250W        W59675   2.466  11.739   0.716
87251W        W59676   0.045  16.493   0.906
87252W        W59677  27.396  33.154   4.027
87253W        W59678  17.945  42.502  12.052
87254W        W59679  43.861  11.932   0.719
87255W        W59680   9.333  38.039   2.535
87256W        W59681  42.408   4.297   2.208
87257W        W59682  27.929  11.538   5.206
87258W        W59683  33.842  44.328   0.927
87259W        W59684  13.606   1.204   2.903
87260W        W59685  16.275  33.347   1.173
87261W        W59686   4.303   2.899   3.575
87262W        W59687  42.024  12.840   0.293
87263W        W59688   1.743   6.335   2.158
87264W        W59689   8.401  40.040  13.912
87265W        W59690  40.875   5.507  11.373
87266W        W59691  41.877   1.215  10.204
87267W        W59692  42.433  35.329   4.238
87268W        W59693   0.391  18.291  11.225
87269W        W59694  14.717  12.891  11.851
87270W        W59695   6.881  18.175   2.739
87271W        W59696  13.553  30.657  11.599
87272W        W59697  20.527  22.123  13.054
87273W        W59698   3.377  16.115  10.512
87274W        W59699  20.163   1.943   1.927
87275W        W59700  21.504  33.400   0.358
87276W        W59701  29.124  22.573   1.748
87277W        W59702  22.722  37.379   1.396
87278W        W59703   2.518  29.938   2.786
87279W        W59704  25.447  42.093  12.615
87280W        W59705   3.831  24.717  13.910
87281W        W59706  13.561  44.043  13.038
87282W        W59707  18.099  28.066  13.474
87283W        W59708  15.719  43.514  11.095
87284W        W59709  28.866  33.651   1.198
87285W        W59710  27.920  17.672  11.201
87286W        W59711  10.347  38.426  14.797
87287W        W59712  41.800   8.142   2.561
87288W        W59713  36.496  17.514   4.631
87289W        W59714   9.122  15.755   2.298
87290W        W59715  31.040  24.930   3.292
87291W        W59716   7.577  14.054   2.690
87292W        W59717  17.142  13.180  14.904
87293W        W59718  18.536  30.411  10.828
87294W        W59719   8.630   4.998   1.886
87295W        W59720  10.890  33.864  12.387
87296W        W59721  21.261  37.529   1.833
87297W        W59722  38.342  10.387   1.686
87298W        W59723  14.821  44.745   1.142
87299W        W59724  24.588  32.173  10.214
87300W        W59725  36.442   7.856  12.461
87301W        W59726  41.181  14.178  13.795
87302W        W59727  40.808   8.402  12.458
87303W        W59728  29.580  26.833  12.383
87304W        W59729  35.414  36.273   0.924
87305W        W59730   3.680   8.864   2.446
87306W        W59731  22.700  40.398   4.637
87307W        W59732   0.054  20.571   3.223
87308W        W59733   5.009  36.736   3.829
87309W        W59734  34.701  30.795   0.461
87310W        W59735  16.090  35.378  14.335
87311W        W59736   0.578  12.843  12.983
87312W        W59737  20.115  26.185   4.084
87313W        W59738   3.462  20.674  11.613
87314W        W59739   0.937  26.520   3.156
87315W        W59740   7.760  25.718   0.381
87316W        W59741  20.073  40.072  12.560
87317W        W59742  33.432  32.773  11.647
87318W        W59743  21.567  13.169   2.569
87319W        W59744  19.270  39.142  11.059
87320W        W59745   5.219  11.947   3.255
87321W        W59746  19.545  41.458   2.168
87322W        W59747  43.480  16.733  11.192
87323W        W59748   3.124  17.493   4.123
87324W        W59749  11.051  23.591  14.314
87325W        W59750   1.352  32.678   3.843
87326W        W59751  10.239  11.824   3.092
87327W        W59752  25.923  42.278  12.523
87328W        W59753  37.455  30.462  13.086
87329W        W59754   5.325  33.572  12.470
87330W        W59755   2.946  30.064   4.704
87331W        W59756  11.953  40.076   1.828
87332W        W59757  24.248  30.377  13.417
87333W        W59758  15.675  13.006  12.297
87334W        W59759  13.744  39.943  11.223
87335W        W59760  14.339  33.118  12.410
87336W        W59761  33.451  11.537   3.138
87337W        W59762  15.060   9.885   3.658
87338W        W59763   0.239   9.292   0.312
87339W        W59764  21.761  12.180  11.670
87340W        W59765  38.133  44.739   3.683
87341W        W59766   2.467  24.744  11.044
87342W        W59767   0.661  32.414   2.872
87343W        W59768  17.752  26.316   2.386
87344W        W59769  26.253  15.194  12.004
87345W        W59770  36.470   6.914  11.526
87346W        W59771   3.509  32.977  12.925
87347W        W59772  44.404  44.254   0.784
87348W        W59773   8.639  10.775  13.491
87349W        W59774  43.444   8.332  11.989
87350W        W59775  20.612  30.974  12.321
87351W        W59776  10.837  24.186   4.170
87352W        W59777   1.906  25.053  14.865
87353W        W59778  37.454  30.593   2.741
87354W        W59779  22.267  40.534   2.428
87355W        W59780  37.895  41.345  10.738
87356W        W59781  10.772  26.935   2.370
87357W        W59782  31.468  11.125   3.798
87358W        W59783  13.798  38.474  14.780
87359W        W59784  38.457  10.194   3.333
87360W        W59785  21.277  26.166  14.437
87361W        W59786   4.461  32.608  10.466
87362W        W59787   4.936  22.252  12.929
87363W        W59788  30.148  44.721  11.036
87364W        W59789  28.591  29.899  11.594
87365W        W59790  27.611  28.058  14.879
87366W        W59791  27.684  19.141   3.671
87367W        W59792  13.275  33.552   4.835
87368W        W59793   2.929  20.469   3.147
87369W        W59794  19.587  11.854  14.426
87370W        W59795  10.329  11.601   4.319
87371W        W59796  33.078  26.143   1.444
87372W        W59797  16.705  16.715   2.165
87373W        W59798  33.314  20.803  10.965
87374W        W59799  41.939   9.810   4.308
87375W        W59800  24.650  21.541  12.703
87376W        W59801  10.974  25.458   0.805
87377W        W59802  13.242  36.934  12.959
87378W        W59803  10.980   6.474  13.016
87379W        W59804  21.010  17.277  13.607
87380W        W59805  39.365  42.791   1.373
87381W        W59806  37.160   2.492   0.456
87382W        W59807  33.074   3.469   1.392
87383W        W59808  40.353   7.124  14.966
87384W        W59809  33.461  25.798   4.068
87385W        W59810  31.121  14.826  14.738
87386W        W59811  11.656   9.989   4.216
87387W        W59812   0.894  22.188  12.432
87388W        W59813  40.500  31.194  14.050
87389W        W59814  31.841  20.786   1.919
87390W        W59815  36.014  10.548  12.364
87391W        W59816  26.127  12.613  12.105
87392W        W59817  40.392   4.202   0.756
87393W        W59818  30.137   6.717   1.300
87394W        W59819  19.702  22.195  12.886
87395W        W59820  23.605  15.657   3.899
87396W        W59821  15.743  26.304  14.203
87397W        W59822  43.229  11.212  12.082
87398W        W59823  30.682  14.202  13.533
87399W        W59824  12.729  32.421  14.473
87400W        W59825   1.016  18.751  14.975
87401W        W59826  42.467  27.466   4.751
87402W        W59827   9.349  38.616  11.605
87403W        W59828  43.175  19.620  14.078
87404W        W59829  40.359  34.511   0.410
87405W        W59830  39.005  39.292   0.289
87406W        W59831   1.921   6.522   4.983
87407W        W59832  17.165  16.594   3.636
87408W        W59833  43.398   6.665  11.776
87409W        W59834  38.960  11.980  14.457
87410W        W59835  40.726  33.386   2.150
87411W        W59836  30.370  24.124   4.064
87412W        W59837  29.564  27.219   0.756
87413W        W59838  18.981  26.381   0.938
87414W        W59839   3.872   8.429   4.008
87415W        W59840  21.255   5.317  13.724
87416W        W59841  12.845  42.285   1.759
87417W        W59842  24.988  37.697   1.806
87418W        W59843  36.814  13.323  11.489
87419W        W59844   6.512   1.641   0.204
87420W        W59845  19.979  42.785   0.167
87421W        W59846  15.540  25.504  11.738
87422W        W59847   3.668   2.048   2.862
87423W        W59848   1.423  10.323   3.852
87424W        W59849  31.976   7.947   0.658
87425W        W59850  22.668  38.135   4.501
87426W        W59851  19.146  27.187   2.709
87427W        W59852  19.646  21.812   4.406
87428W        W59853  32.637  18.345   5.073
87429W        W59854   2.494   3.006   2.390
87430W        W59855  14.159   8.105   0.849
87431W        W59856  28.005  27.634   2.894
87432W        W59857  14.544   3.360   1.769
87433W        W59858  14.750   2.415  14.549
87434W        W59859  35.223  41.615   3.620
87435W        W59860  32.079  39.335  12.521
87436W        W59861  44.018   9.456  11.581
87437W        W59862  16.724  23.023   0.465
87438W        W59863  27.444  34.946   1.780
87439W        W59864  21.445  17.230  14.411
87440W        W59865  19.024   9.837   1.721
87441W        W59866  13.845  33.068  11.568
87442W        W59867   4.416  26.086   4.816
87443W        W59868  25.599  37.612  12.957
87444W        W59869  41.460   9.208   0.003
87445W        W59870  38.371   0.335  11.266
87446W        W59871  13.724  37.056   0.218
87447W        W59872   0.665   4.901   3.674
87448W        W59873  22.940   5.325   2.781
87449W        W59874  43.758   6.478   0.340
87450W        W59875  27.189  14.882   0.962
87451W        W59876  40.281  34.906   1.805
87452W        W59877  23.250  44.533  14.583
87453W        W59878  33.288   9.492   4.129
87454W        W59879   5.688   9.085  13.921
87455W        W59880  23.586  35.864   2.297
87456W        W59881  37.815  28.048   2.489
87457W        W59882   2.272  20.527  14.342
87458W        W59883   9.399  31.104   1.269
87459W        W59884   1.473   2.151   3.354
87460W        W59885   7.455  30.287  12.915
87461W        W59886  32.527  19.202  14.349
87462W        W59887  21.947  41.594   4.594
87463W        W59888  35.562  16.278  11.520
87464W        W59889   8.662  43.934   1.713
87465W        W59890  39.656  16.595  11.220
87466W        W59891   4.944   2.809   2.204
87467W        W59892  36.888  34.956   3.241
87468W        W59893  44.994  25.247  12.990
87469W        W59894  21.774  12.376   0.284
87470W        W59895   0.671  29.236  12.522
87471W        W59896  22.662  32.676   0.461
87472W        W59897  31.515   6.228   2.317
87473W        W59898  19.632  36.863   4.169
87474W        W59899   6.234   3.857  14.488
87475W        W59900  32.017  39.418   1.449
87476W        W59901  32.929  16.478  11.517
87477W        W59902   5.393  17.705  12.077
87478W        W59903  37.071  26.116  14.464
87479W        W59904   1.323  24.612   4.621
87480W        W59905  21.723  32.529   2.380
87481W        W59906  11.697  13.476  10.686
87482W        W59907   8.454  20.066  12.895
87483W        W59908  23.152  42.466   1.298
87484W        W59909  15.853  22.844  12.930
87485W        W59910  32.559   5.982  12.566
87486W        W59911  21.705   9.655  10.693
87487W        W59912  23.625  16.704   3.419
87488W        W59913   3.882   5.622  13.351
87489W        W59914  42.229  22.205  14.086
87490W        W59915  28.955  11.214   0.304
87491W        W59916   1.004  19.087   0.368
87492W        W59917  34.420  40.167   1.883
87493W        W59918  16.743  37.494   0.269
87494W        W59919  14.316  10.203  11.504
87495W        W59920  41.567  16.841   3.788
87496W        W59921  14.005  27.373   2.391
87497W        W59922  30.552   6.827   4.478
87498W        W59923   7.784  38.791  12.946
87499W        W59924  30.066  32.129   1.704
87500W        W59925  40.278  12.855  11.435
87501W        W59926  43.458  39.837  13.571
87502W        W59927  10.088  26.077  11.588
87503W        W59928  40.986  26.129   4.224
87504W        W59929  23.093  16.595  12.517
87505W        W59930  13.105  14.854  11.541
87506W        W59931  33.941  30.884  14.517
87507W        W59932  11.324  10.096  10.068
87508W        W59933  21.028  17.078  14.095
87509W        W59934  40.801  33.881   3.979
87510W        W59935  43.784  20.638   2.718
87511W        W59936   7.370  13.753  13.050
87512W        W59937  42.371  30.417  12.119
87513W        W59938   9.062  18.717  11.116
87514W        W59939  29.464   4.283  13.461
87515W        W59940  12.312  35.323   0.266
87516W        W59941   4.453  39.367   3.941
87517W        W59942  13.707  11.314   2.887
87518W        W59943  26.439  25.061  11.996
87519W        W59944   4.861   7.480   0.713
87520W        W59945   9.658  38.041   2.150
87521W        W59946  26.752  41.681  10.649
87522W        W59947   5.485   4.471   1.220
87523W        W59948  35.330  14.847   3.084
87524W        W59949  31.356  37.213   2.748
87525W        W59950   5.295  17.887   1.400
87526W        W59951  25.382  36.343   0.472
87527W        W59952  36.586  27.743  12.539
87528W        W59953  14.768  32.913  12.568
87529W        W59954  10.703  26.168  10.563
87530W        W59955  34.473  32.653  11.124
87531W        W59956   1.288   4.124  10.570
87532W        W59957   8.266  43.337  13.064
87533W        W59958  34.508  12.858   0.377
87534W        W59959  40.504  14.934  13.700
87535W        W59960  36.940  27.224  13.345
87536W        W59961  43.025  13.535   0.107
87537W        W59962   4.890   8.489   0.954
87538W        W59963  34.164  27.211   1.335
87539W        W59964  34.890  13.360   2.375
87540W        W59965   5.422   3.064   1.292
87541W        W59966  15.041   0.349   3.725
87542W        W59967  37.996  16.189  10.750
87543W        W59968   3.257  21.236   1.940
87544W        W59969  24.557   8.686   0.510
87545W        W59970  27.753  11.869   1.957
87546W        W59971   2.471   4.250  12.383
87547W        W59972  24.288  17.712   1.437
87548W        W59973  20.040   8.558  12.059
87549W        W59974  30.252  30.160   1.931
87550W        W59975  29.688  33.454  12.418
87551W        W59976  29.386   5.247  12.369
87552W        W59977   8.632  18.521   3.905
87553W        W59978  44.964  25.994  11.024
87554W        W59979   3.497  21.288   3.757
87555W        W59980  36.103  18.722   2.128
87556W        W59981  17.145  29.081  14.379
87557W        W59982  26.557  29.457   5.032
87558W        W59983  43.910   3.012  11.635
87559W        W59984  10.373  13.024  12.965
87560W        W59985  16.255  44.227   2.419
87561W        W59986   0.308  38.014  14.087
87562W        W59987  22.667  36.886   1.257
87563W        W59988  35.078  42.833  14.306
87564W        W59989  34.440   2.795   1.286
87565W        W59990  37.749  40.119   4.148
87566W        W59991  20.513  22.972  11.730
87567W        W59992  15.592  22.406   3.302
87568W        W59993  33.178  32.170  12.417
87569W        W59994   9.227   9.953   0.335
87570W        W59995  23.969  15.618   1.920
87571W        W59996  23.757  16.135   3.750
87572W        W59997  23.615  25.502  14.415
87573W        W59998   5.395  35.617  14.828
87574W        W59999  11.320  41.725   2.484
87575W        W60000  23.377  21.027   2.168
87576W        W60001   5.988  18.212  14.087
87577W        W60002  34.118   7.253  10.967
87578W        W60003  33.398  42.531   0.410
87579W        W60004   7.323  41.932   3.681
87580W        W60005  10.111  29.071   4.220
87581W        W60006  44.291   5.649  14.385
87582W        W60007   1.713   9.391   4.010
87583W        W60008   2.793   1.442  13.861
87584W        W60009  42.004  38.610  11.002
87585W        W60010  44.411  35.682  14.279
87586W        W60011  30.098  17.380  11.600
87587W        W60012  14.663  10.553   0.022
87588W        W60013  17.201  27.493  13.446
87589W        W60014  14.120  32.446   3.371
87590W        W60015  30.502  29.576   4.344
87591W        W60016   4.171  31.791  12.952
87592W        W60017  15.026   4.392   2.695
87593W        W60018   8.353  38.819  10.144
87594W        W60019  27.561  26.246   4.196
87595W        W60020   1.510  22.692  14.484
87596W        W60021  31.964  40.429  12.488
87597W        W60022  34.056  41.323  12.443
87598W        W60023  17.712  12.685  14.466
87599W        W60024  12.868   8.219  13.393
87600W        W60025  30.162   6.822  10.619
87601W        W60026   6.892   4.689   1.268
87602W        W60027  12.072  38.874   1.416
87603W        W60028  15.216  34.417   3.743
87604W        W60029   3.699  19.978  11.184
87605W        W60030  25.881  10.874   2.297
87606W        W60031   0.972   4.187  13.825
87607W        W60032  13.680  28.962  12.330
87608W        W60033  44.929  37.477  14.753
87609W        W60034  26.295  10.939   3.609
87610W        W60035   8.856  26.770   1.451
87611W        W60036  26.951  21.695  11.896
87612W        W60037  32.046  44.928   0.766
87613W        W60038  22.589   8.689   9.705
87614W        W60039  24.451  36.311   3.159
87615W        W60040  18.052  24.604   1.494
87616W        W60041  18.459  25.393   0.690
87617W        W60042   9.608  25.289  10.642
87618W        W60043  36.490  40.391  12.613
87619W        W60044  15.642  22.807   1.248
87620W        W60045  37.395   7.047  12.067
87621W        W60046   2.728  44.002   3.704
87622W        W60047  17.913  14.083  11.167
87623W        W60048  12.129   4.646  12.507
87624W        W60049  32.984  24.539   3.257
87625W        W60050   0.522  31.884  11.025
87626W        W60051  26.729  32.184  12.621
87627W        W60052  29.203  29.021   1.038
87628W        W60053  44.418   4.261  10.647
87629W        W60054  29.754  39.171   4.173
87630W        W60055  25.334  43.854  12.459
87631W        W60056   0.430  36.930  14.848
87632W        W60057   6.860   4.294  14.420
87633W        W60058  33.537  42.766   2.985
87634W        W60059  32.562  32.067  11.992
87635W        W60060  44.758   6.371   3.730
87636W        W60061   6.300  30.632  14.826
87637W        W60062   0.955  28.296   1.984
87638W        W60063  34.266  31.406   0.391
87639W        W60064  24.418  15.343  13.424
87640W        W60065  27.629  39.499  13.441
87641W        W60066  42.180  25.846  12.151
87642W        W60067  32.450  31.039  10.685
87643W        W60068  22.342  15.642  11.017
87644W        W60069  17.713  17.147  12.926
87645W        W60070  17.811   8.743  11.989
87646W        W60071  11.249  36.534   0.453
87647W        W60072  11.310  43.782  13.972
87648W        W60073  20.987   7.605   5.076
87649W        W60074  33.094  41.437  10.927
87650W        W60075   2.223  43.890  14.069
87651W        W60076  30.164  29.213   2.295
87652W        W60077  30.078  15.397   4.672
87653W        W60078  35.458   8.836  10.650
87654W        W60079  30.131  16.955   1.815
87655W        W60080  11.349  21.545   2.185
87656W        W60081  24.606  25.182  10.393
87657W        W60082  43.475  24.069   1.496
87658W        W60083  29.736  12.600  12.451
87659W        W60084  34.351  25.550  12.054
87660W        W60085  37.110  29.471  13.989
87661W        W60086  27.742  38.481   2.488
87662W        W60087  15.307  17.538   0.786
87663W        W60088  29.115  22.600   3.145
87664W        W60089   2.750  14.227   3.585
87665W        W60090   8.806  33.938   1.175
87666W        W60091  25.247  41.897   3.708
87667W        W60092  42.842  24.371   2.256
87668W        W60093   6.440  11.663  11.467
87669W        W60094  25.662   2.175  13.934
87670W        W60095  39.131  24.183  13.795
87671W        W60096  39.937  25.544  11.244
87672W        W60097  32.414  16.862   3.307
87673W        W60098  28.090   0.805  11.095
87674W        W60099   1.876  11.865  11.162
87675W        W60100  14.878  29.409   1.790
87676W        W60101   8.303  24.227   4.330
87677W        W60102   5.282  14.064  14.718
87678W        W60103  25.929   0.484   2.457
87679W        W60104  14.036  32.596   2.348
87680W        W60105  43.317   0.712   1.736
87681W        W60106  32.009  42.855   3.182
87682W        W60107   4.746  10.685   4.406
87683W        W60108   2.747  20.330  14.379
87684W        W60109  38.960  15.535  10.677
87685W        W60110  35.937  26.056   4.368
87686W        W60111  11.721  16.283   2.880
87687W        W60112  39.581  20.574   0.846
87688W        W60113  25.047  21.486  13.630
87689W        W60114  35.127  20.664   2.777
87690W        W60115  31.677  25.752  13.457
87691W        W60116  23.676   6.234   4.369
87692W        W60117  40.448  21.763  14.332
87693W        W60118  42.005  19.608  12.602
87694W        W60119  34.517  11.934   0.802
87695W        W60120   7.664   5.187   3.214
87696W        W60121  25.086   5.396   3.420
87697W        W60122  23.574  23.842   1.300
87698W        W60123  18.190  12.173   0.666
87699W        W60124  36.590  27.492  13.762
87700W        W60125  14.798  34.033   1.377
87701W        W60126  15.752  23.320   5.183
87702W        W60127  44.710   3.809   4.440
87703W        W60128  22.562   8.325  14.276
87704W        W60129  29.246   5.960  14.638
87705W        W60130  27.098  40.243  10.534
87706W        W60131  39.401  15.748  14.215
87707W        W60132  29.454  16.767  10.884
87708W        W60133  16.861  44.036   1.801
87709W        W60134  43.840  37.075   2.164
87710W        W60135  32.236   4.746  10.636
87711W        W60136   2.827  18.650  10.659
87712W        W60137  18.972   6.827   2.850
87713W        W60138  16.102   1.755  14.866
87714W        W60139   1.753  10.914  13.516
87715W        W60140  38.006  20.690  13.386
87716W        W60141  10.912  15.566  12.423
87717W        W60142  26.937  35.309   3.237
87718W        W60143  25.252  26.384   0.358
87719W        W60144   5.850  30.079  12.558
87720W        W60145  39.720  44.834  12.593
87721W        W60146  15.479  29.673  13.837
87722W        W60147  38.885  20.112   2.347
87723W        W60148  40.261  35.960   0.750
87724W        W60149  28.093  40.826   2.459
87725W        W60150  26.011  17.259   4.422
87726W        W60151  13.809  21.697  11.111
87727W        W60152  32.621  24.607   2.336
87728W        W60153  44.064  36.048   3.102
87729W        W60154  11.806  30.588  12.642
87730W        W60155   0.852  20.773  13.506
87731W        W60156  25.744  14.785  12.057
87732W        W60157  13.548  12.206  14.226
87733W        W60158  38.289   4.071  14.405
87734W        W60159   8.447  27.450   2.429
87735W        W60160  27.286  21.689   0.121
87736W        W60161   4.244  17.860  14.529
87737W        W60162  12.704  12.546  10.891
87738W        W60163  39.217  23.570   4.990
87739W        W60164  10.837  32.463  11.108
87740W        W60165  26.736  23.750  13.868
87741W        W60166   7.454  18.587   4.587
87742W        W60167   6.148  33.156   0.285
87743W        W60168  24.459  23.322  12.411
87744W        W60169   7.770  23.257   0.080
87745W        W60170  18.624  41.349  11.472
87746W        W60171  19.284  38.827  10.641
87747W        W60172   1.276  39.320   4.534
87748W        W60173   5.483  44.800  11.175
87749W        W60174  17.032  26.677  13.776
87750W        W60175  37.912  44.721   4.153
87751W        W60176   0.730  42.458  10.471
87752W        W60177  38.849  24.486   0.751
87753W        W60178  13.094  19.537   3.791
87754W        W60179   3.243  42.944  12.379
87755W        W60180   4.825  15.378  12.917
87756W        W60181   5.200  29.456   0.136
87757W        W60182   3.985  17.310   3.543
87758W        W60183  19.758   0.569   0.910
87759W        W60184  21.449  29.634  12.013
87760W        W60185  16.598  29.075   3.712
87761W        W60186  44.443  43.828  14.824
87762W        W60187  10.206   0.729  11.170
87763W        W60188  39.158  38.281  13.893
87764W        W60189  15.123  17.245   4.120
87765W        W60190  39.488   0.290  14.139
87766W        W60191   9.277   4.363   2.301
87767W        W60192  22.571  28.904  11.604
87768W        W60193  43.845   6.937   1.916
87769W        W60194   8.954  12.612  12.927
87770W        W60195   1.020  37.528   0.093
87771W        W60196  36.509   6.463   4.459
87772W        W60197  29.883   1.310  10.948
87773W        W60198  26.880  20.756   2.819
87774W        W60199  29.971  26.927  14.018
87775W        W60200   2.723  35.992  14.912
87776W        W60201  16.317   5.983   2.843
87777W        W60202  31.645  27.613   0.780
87778W        W60203   8.662   3.624   1.285
87779W        W60204  36.917  21.597   1.425
87780W        W60205  12.236  36.418   4.517
87781W        W60206  17.375  32.796   2.737
87782W        W60207  42.783  28.116  12.875
87783W        W60208  27.463  40.247  12.674
87784W        W60209  26.985  35.445  10.290
87785W        W60210   6.628  21.156   3.152
87786W        W60211   3.732  40.812  13.036
87787W        W60212   3.514   1.834  13.020
87788W        W60213  27.654  39.766  12.390
87789W        W60214   5.155  28.641   0.330
87790W        W60215  30.167  23.774  11.537
87791W        W60216  19.770  24.494   0.909
87792W        W60217   6.375  16.581  11.123
87793W        W60218  27.492  38.879  12.266
87794W        W60219   6.084  40.334   5.122
87795W        W60220  32.469   1.860   3.290
87796W        W60221  29.914  39.367  11.214
87797W        W60222  19.127   9.069  14.244
87798W        W60223  43.829  17.067   4.146
87799W        W60224  23.122  31.954  11.879
87800W        W60225   9.722  44.861   0.269
87801W        W60226  43.348  29.011   4.241
87802W        W60227  38.574  22.136   1.343
87803W        W60228   0.675  11.260  14.300
87804W        W60229  14.948  24.485   2.245
87805W        W60230  12.736  38.382   3.931
87806W        W60231  13.003  11.270  10.615
87807W        W60232  19.705  27.419   1.933
87808W        W60233   2.770  23.241  12.468
87809W        W60234  33.315  21.073   0.794
87810W        W60235  15.289   6.771   3.535
87811W        W60236  44.101  21.253  13.761
87812W        W60237   9.384   8.304  12.194
87813W        W60238  26.093   6.913   2.184
87814W        W60239  23.727  43.060   0.907
87815W        W60240  41.476  29.138  11.717
87816W        W60241  11.581  16.115  13.916
87817W        W60242   0.956  29.429   2.759
87818W        W60243  18.673  34.417   0.919
87819W        W60244  12.696  31.087   4.097
87820W        W60245  18.002  23.720   4.091
87821W        W60246  27.587  32.606   3.369
87822W        W60247   8.737  10.544   1.788
87823W        W60248   5.130   4.632  12.858
87824W        W60249  32.336  12.261   3.613
87825W        W60250   7.990  38.937  14.773
87826W        W60251  24.239   1.403  11.622
87827W        W60252  12.657  20.246   3.224
87828W        W60253  36.088  44.923  12.158
87829W        W60254  31.988  22.639   1.729
87830W        W60255   0.798  27.934   0.376
87831W        W60256  26.233  20.561  13.908
87832W        W60257  19.964  19.633   0.954
87833W        W60258  43.549  12.250   3.260
87834W        W60259  19.694  27.154  13.128
87835W        W60260  14.297  19.504   1.758
87836W        W60261  42.401  28.255   3.224
87837W        W60262  31.113  19.733  11.069
87838W        W60263  42.364  12.729  10.900
87839W        W60264  19.263   9.942   2.170
87840W        W60265  28.695  34.096   4.278
87841W        W60266  11.627  15.622   4.047
87842W        W60267  38.060  13.365   2.859
87843W        W60268   7.589  19.896   2.249
87844W        W60269  23.505  38.540  13.423
87845W        W60270  23.168  19.987  12.488
87846W        W60271  29.707  44.414   3.678
87847W        W60272  11.097   8.871   3.677
87848W        W60273  41.968   9.495   2.697
87849W        W60274  31.477  44.271   3.299
87850W        W60275   4.432   4.396  12.565
87851W        W60276  10.495  17.286  13.230
87852W        W60277  16.967  10.272   3.743
87853W        W60278  40.909  14.926  10.733
87854W        W60279   8.770  17.475  13.504
87855W        W60280  38.424   1.037  13.075
87856W        W60281  29.043  19.519   4.332
87857W        W60282   1.220  29.038  11.966
87858W        W60283  10.139  38.848   3.261
87859W        W60284  44.149  43.349  10.180
87860W        W60285  33.296  35.952  13.905
87861W        W60286  36.051  39.868  13.231
87862W        W60287  23.479  34.063  13.909
87863W        W60288  24.321  18.100   2.653
87864W        W60289  30.539   3.814  11.585
87865W        W60290  31.470  37.043   0.627
87866W        W60291  20.768  42.087  13.891
87867W        W60292  11.617  33.566  10.686
87868W        W60293  14.801   8.969   2.218
87869W        W60294  18.370  19.107  13.508
87870W        W60295  16.531  14.266   0.335
87871W        W60296  29.934   6.769   4.594
87872W        W60297   7.187  10.864  13.402
87873W        W60298   4.203  26.909  13.332
87874W        W60299   4.024   2.376  13.540
87875W        W60300  42.847  25.199  13.011
87876W        W60301  12.929   1.827  12.547
87877W        W60302  24.421  39.747   0.262
87878W        W60303   1.786  30.471  11.346
87879W        W60304   5.987  17.631   2.570
87880W        W60305  20.308  18.597  13.764
87881W        W60306  34.497  34.922   0.306
87882W        W60307  15.238   5.664  13.504
87883W        W60308   5.254  40.345   0.089
87884W        W60309   7.955  24.936  12.117
87885W        W60310  39.563   3.124   0.214
87886W        W60311   6.171  44.282  11.710
87887W        W60312  18.572  23.230   0.871
87888W        W60313   1.973  42.763   1.478
87889W        W60314  33.091  34.051  14.028
87890W        W60315  36.571  25.458  14.853
87891W        W60316  10.350  37.315   2.435
87892W        W60317   3.600  32.756  11.036
87893W        W60318   3.434  26.803  12.065
87894W        W60319  15.867  21.591   2.356
87895W        W60320   3.389  29.615  14.827
87896W        W60321  44.262  36.633   3.231
87897W        W60322  13.313  23.122  12.074
87898W        W60323   5.191  24.162  10.908
87899W        W60324   8.312   9.913  12.920
87900W        W60325  14.504  10.308   2.397
87901W        W60326   4.304  33.361   2.724
87902W        W60327  20.473   3.044  12.533
87903W        W60328  26.484  38.318   3.381
87904W        W60329   3.409  16.092   0.010
87905W        W60330  25.469   2.751   0.228
87906W        W60331  11.737  15.667   0.689
87907W        W60332   0.380   3.857  13.417
87908W        W60333   6.054   1.487  10.753
87909W        W60334  15.715  29.700  12.941
87910W        W60335  12.813  36.402   1.470
87911W        W60336  34.267  31.913  11.562
87912W        W60337  27.901  37.592   2.825
87913W        W60338  21.642  34.519  11.041
87914W        W60339  30.321  41.042   3.266
87915W        W60340  31.375  12.785  14.034
87916W        W60341  13.549  13.667   2.332
87917W        W60342  17.934   3.386   4.986
87918W        W60343  44.825  26.652  13.881
87919W        W60344   1.213  41.045  10.670
87920W        W60345  15.780  39.978   4.337
87921W        W60346  40.431  20.524  11.141
87922W        W60347   7.771  23.066  11.684
87923W        W60348   3.474  37.267   1.686
87924W        W60349  12.349  12.880  10.771
87925W        W60350  38.214  42.371   1.833
87926W        W60351   6.258  22.043   4.184
87927W        W60352   9.658  29.169  12.071
87928W        W60353   6.941   4.331  11.477
87929W        W60354  15.829  16.645  13.021
87930W        W60355  30.617  14.220  14.938
87931W        W60356  29.998   4.917   2.807
87932W        W60357  25.911  37.624   0.016
87933W        W60358  30.459   9.624  12.601
87934W        W60359  10.350  41.532   2.603
87935W        W60360  42.827   9.057   3.660
87936W        W60361  39.785  24.048   1.746
87937W        W60362   4.415  44.498  13.414
87938W        W60363  12.807  25.680   2.029
87939W        W60364  16.973  11.863   2.458
87940W        W60365   9.892   8.391   2.352
87941W        W60366   3.338  12.372   2.903
87942W        W60367  43.778   4.781  11.108
87943W        W60368   2.336  12.274   2.765
87944W        W60369  18.680  27.352   0.656
87945W        W60370  32.381   3.486  14.729
87946W        W60371  24.610   0.425   1.497
87947W        W60372  19.275  17.614  13.886
87948W        W60373   5.094  34.776  13.512
87949W        W60374   5.765  22.163   4.329
87950W        W60375  12.674  16.058   3.750
87951W        W60376  10.350   8.333   0.713
87952W        W60377  37.976  32.417   2.769
87953W        W60378   6.474   8.724   1.760
87954W        W60379  10.620  30.491  12.868
87955W        W60380  18.195  20.721  14.967
87956W        W60381  19.783   5.894   1.117
87957W        W60382  29.903  42.321  11.170
87958W        W60383  35.876  17.780   0.786
87959W        W60384  39.320  16.109   4.134
87960W        W60385  20.144   7.750   3.110
87961W        W60386  39.547  35.996   4.145
87962W        W60387   7.648  33.587   3.254
87963W        W60388  39.786  43.106  12.541
87964W        W60389  29.019   2.838   2.753
87965W        W60390  19.101   2.239  12.119
87966W        W60391  43.610  37.252  10.918
87967W        W60392  21.864  11.302  10.078
87968W        W60393  22.312  12.287   4.727
87969W        W60394  39.488  34.945   3.138
87970W        W60395  28.252  31.168   1.148
87971W        W60396   0.297  36.978   1.669
87972W        W60397  35.484   7.287  13.650
87973W        W60398  32.502   6.869  14.020
87974W        W60399  27.418  29.492   3.552
87975W        W60400  31.657  37.538   2.252
87976W        W60401  44.514  11.517   0.248
87977W        W60402   6.338   6.363  14.287
87978W        W60403   6.823  23.728   1.857
87979W        W60404  20.320  28.555  11.156
87980W        W60405   9.822  19.220   1.366
87981W        W60406  16.995  23.192  14.470
87982W        W60407  13.212  11.105  14.017
87983W        W60408  28.985  38.700   4.037
87984W        W60409  22.776  23.394  10.984
87985W        W60410  25.304  34.676   0.726
87986W        W60411   9.767   4.304   0.701
87987W        W60412  34.508  23.242   2.333
87988W        W60413  27.674  17.709  14.051
87989W        W60414  13.358   0.652   1.968
87990W        W60415  13.559   3.406  12.980
87991W        W60416  42.140   8.666  11.120
87992W        W60417  15.700  28.860  14.239
87993W        W60418  15.876  24.575   0.120
87994W        W60419  23.733  35.655   2.748
87995W        W60420  44.375   5.904   1.199
87996W        W60421  37.924   9.189   1.885
87997W        W60422  18.901  37.405   2.740
87998W        W60423  15.243  18.866  14.576
87999W        W60424  12.136   0.775  13.197
88000W        W60425  41.511  41.438  11.920
88001W        W60426  43.052  34.551   1.772
88002W        W60427  25.586   5.176  12.014
88003W        W60428  34.551  20.137   2.189
88004W        W60429  29.167  36.767   4.401
88005W        W60430  41.549  40.334  14.409
88006W        W60431  32.133  25.275   5.112
88007W        W60432  23.943  31.404  10.813
88008W        W60433  11.844  41.058  11.196
88009W        W60434  36.086  25.570   2.399
88010W        W60435   5.794  29.058   3.820
88011W        W60436   5.379   4.616  12.041
88012W        W60437  21.169   2.952   4.035
88013W        W60438  26.204  42.820   1.177
88014W        W60439  29.962   1.582   4.044
88015W        W60440  12.503  31.870   3.662
88016W        W60441  36.919  36.863  14.919
88017W        W60442  11.758  18.050  13.871
88018W        W60443  28.727  34.084   4.799
88019W        W60444   2.722  10.363   3.110
88020W        W60445  40.042  43.087   3.862
88021W        W60446  27.845   5.349  11.497
88022W        W60447  22.197   7.031  14.351
88023W        W60448  10.062  34.018   3.361
88024W        W60449  44.427  20.296  12.938
88025W        W60450  29.825  29.349   5.019
88026W        W60451   2.725  19.828   0.321
88027W        W60452  22.122   9.662   2.391
88028W        W60453  35.014   9.764  10.528
88029W        W60454  25.726  22.607   2.241
88030W        W60455   3.521   0.824  10.052
88031W        W60456   1.948  19.274   2.700
88032W        W60457  22.835  17.604  12.384
88033W        W60458  33.365  10.882   3.909
88034W        W60459  28.398  30.460  13.917
88035W        W60460  44.431   0.413  13.740
88036W        W60461   6.161   4.155   4.481
88037W        W60462  44.981  22.234  12.372
88038W        W60463  27.124  28.082   0.694
88039W        W60464  18.066  30.627  11.129
88040W        W60465  44.905  33.949   1.462
88041W        W60466  19.757  13.945   0.929
88042W        W60467  44.965  40.351  13.290
88043W        W60468  35.613  11.057   0.440
88044W        W60469  15.330  25.041  14.359
88045W        W60470  42.708  23.452   1.169
88046W        W60471  15.212  28.548   0.811
88047W        W60472  38.018  12.217  12.960
88048W        W60473  17.633  25.124   0.895
88049W        W60474  22.260  19.509  12.372
88050W        W60475  20.297  13.637   3.365
88051W        W60476  42.977  19.324   3.999
88052W        W60477   2.382  29.816  12.671
88053W        W60478   5.425  15.042   0.009
88054W        W60479  25.497  37.399   2.828
88055W        W60480  42.275  21.311   4.717
88056W        W60481  30.647  22.297  14.892
88057W        W60482  34.689  34.662  11.101
88058W        W60483  15.240  20.055   4.802
88059W        W60484   1.627  29.888  13.594
88060W        W60485  26.684  42.995   1.274
88061W        W60486   2.693   5.903   3.679
88062W        W60487  44.315  33.061   3.262
88063W        W60488   8.680  25.701  14.722
88064W        W60489  28.914  38.335   0.307
88065W        W60490   2.167  13.770  14.985
88066W        W60491   6.551  39.871   0.781
88067W        W60492  41.602  19.303   0.782
88068W        W60493  21.013  30.532   3.213
88069W        W60494  17.727  18.065  14.303
88070W        W60495  27.008  25.467   4.390
88071W        W60496  27.237  41.384   1.717
88072W        W60497   4.733  35.209   2.310
88073W        W60498  14.291  25.744   4.444
88074W        W60499  43.598  32.442  14.306
88075W        W60500  25.977  11.613   2.997
88076W        W60501  39.824   8.356   2.979
88077W        W60502  26.284   0.195   2.692
88078W        W60503   4.392  14.595  11.136
88079W        W60504  21.645  21.878   1.243
88080W        W60505   0.951  22.160   2.827
88081W        W60506  19.955  23.358  10.509
88082W        W60507  43.446  38.529   0.906
88083W        W60508  11.286  22.880  11.105
88084W        W60509  10.406  13.993   4.274
88085W        W60510  43.877  33.915  13.954
88086W        W60511   3.267  22.015   0.594
88087W        W60512   3.418  43.781  10.723
88088W        W60513  11.843  29.981  10.504
88089W        W60514  11.834  26.037   2.118
88090W        W60515  19.762   4.157   1.861
88091W        W60516  44.013  18.819  11.989
88092W        W60517  33.813  31.188   0.537
88093W        W60518   4.914   9.922  11.683
88094W        W60519  26.734  27.775   2.662
88095W        W60520  30.049  18.944  11.233
88096W        W60521   0.319  19.118  12.022
88097W        W60522  20.119  27.593   2.213
88098W        W60523  26.113   7.436   2.232
88099W        W60524  39.025  19.778   4.920
88100W        W60525  40.193  30.582   4.559
88101W        W60526  13.921  37.962   3.212
88102W        W60527  19.085  11.802  11.493
88103W        W60528  13.858  28.559  12.995
88104W        W60529   0.254  36.320  12.235
88105W        W60530   6.473  22.539   3.253
88106W        W60531  28.091  21.299   2.955
88107W        W60532   3.513  43.904  12.015
88108W        W60533  20.390  39.993   2.018
88109W        W60534   7.670  37.463  12.200
88110W        W60535   4.014  28.009  13.835
88111W        W60536  10.672   9.480  14.826
88112W        W60537  27.002   5.259   2.311
88113W        W60538  27.889  36.427   1.859
88114W        W60539  31.062  28.352  12.901
88115W        W60540  44.359  16.528  11.181
88116W        W60541  21.641   2.517  12.456
88117W        W60542  43.573  15.868  13.677
88118W        W60543  36.608   8.209  11.007
88119W        W60544  38.122  28.435  14.317
88120W        W60545  33.406  34.283   9.931
88121W        W60546  37.596  44.758   3.701
88122W        W60547  20.242  10.878  13.063
88123W        W60548  24.991  41.490   4.513
88124W        W60549   2.664   3.830  11.586
88125W        W60550  36.133  18.090  14.548
88126W        W60551  31.170  10.014   3.856
88127W        W60552  16.729  30.923   4.954
88128W        W60553  42.975  33.432  12.031
88129W        W60554  37.429  35.616   2.371
88130W        W60555  37.775  37.832  12.689
88131W        W60556  31.927  31.395  13.789
88132W        W60557  15.772  15.556  14.305
88133W        W60558  31.376  27.260  14.319
88134W        W60559  25.259  24.225  14.206
88135W        W60560  38.255  30.761   0.349
88136W        W60561  41.062  24.114   3.792
88137W        W60562  26.701  36.933  13.518
88138W        W60563  40.560  10.257  14.509
88139W        W60564  35.173  38.821   4.291
88140W        W60565   4.721   7.387   4.538
88141W        W60566   0.179   6.675   4.660
88142W        W60567  20.254  20.548  13.586
88143W        W60568  15.256  39.581   1.174
88144W        W60569   9.694  25.449   1.215
88145W        W60570  40.945  30.682   2.901
88146W        W60571  35.925  35.497  10.814
88147W        W60572   9.969  17.158   0.768
88148W        W60573  25.897  16.588   4.707
88149W        W60574  21.572  28.682  10.836
88150W        W60575  38.380  32.921   0.439
88151W        W60576  35.774  23.050   4.211
88152W        W60577  35.226  28.260   5.202
88153W        W60578  33.589   3.736  13.839
88154W        W60579  42.535  36.446   4.549
88155W        W60580  23.143  18.018   1.360
88156W        W60581  39.406  24.259   3.292
88157W        W60582  31.403  27.915  12.534
88158W        W60583   4.376   9.905  13.034
88159W        W60584   1.785  21.772  12.987
88160W        W60585  20.294  10.215  10.578
88161W        W60586  18.717   9.796   0.247
88162W        W60587  23.066  22.672  11.799
88163W        W60588  39.130  14.832   4.632
88164W        W60589  17.621   2.385   5.165
88165W        W60590  19.103   2.243  11.177
88166W        W60591   2.636   9.068   4.262
88167W        W60592   9.541   3.516  14.429
88168W        W60593  25.887  35.985  14.304
88169W        W60594  27.475  28.019   1.457
88170W        W60595  32.103  16.267  13.594
88171W        W60596  15.847  10.144   1.284
88172W        W60597  26.312  22.105   5.185
88173W        W60598  24.120   0.721  10.982
88174W        W60599   3.387  15.066   3.300
88175W        W60600  36.646  31.927  12.969
88176W        W60601  35.613  20.138   0.306
88177W        W60602   0.539  20.484  10.433
88178W        W60603  35.813  25.184   4.572
88179W        W60604  20.287  29.957   4.580
88180W        W60605   7.357  40.796  12.926
88181W        W60606  27.613  12.215   4.834
88182W        W60607  15.464  21.836  12.382
88183W        W60608  26.973  27.240   1.289
88184W        W60609   0.805  43.462   0.270
88185W        W60610  29.938  32.069  12.005
88186W        W60611   6.605  12.111   2.344
88187W        W60612  28.642   9.435  11.922
88188W        W60613  34.283  32.578   3.604
88189W        W60614  39.011  25.161  11.154
88190W        W60615  28.661  25.232  10.627
88191W        W60616  24.474   8.630   4.049
88192W        W60617  38.169  42.972   4.019
88193W        W60618  37.023  24.520  11.604
88194W        W60619  22.545  21.741  12.568
88195W        W60620  19.686   2.663  14.920
88196W        W60621   5.166   3.378  14.467
88197W        W60622   9.821  27.431  11.498
88198W        W60623  17.687  15.659  14.328
88199W        W60624  11.618  36.066   1.499
88200W        W60625  27.076  15.393   0.935
88201W        W60626  11.693  18.712   4.835
88202W        W60627  29.437  30.677  11.607
88203W        W60628  38.333  14.802  10.796
88204W        W60629  37.066   5.807   4.723
88205W        W60630  20.653  32.021  12.536
88206W        W60631  36.448  10.168   3.557
88207W        W60632  18.500  15.619   1.844
88208W        W60633  28.584  40.849   2.790
88209W        W60634   3.085  36.875  11.646
88210W        W60635  33.330  10.421  12.143
88211W        W60636  33.282  36.107  11.955
88212W        W60637  18.180  23.993  12.468
88213W        W60638  31.150  22.169  10.711
88214W        W60639   9.600  36.386  11.057
88215W        W60640  39.407  29.567   4.398
88216W        W60641  20.622   0.522   1.226
88217W        W60642  41.444  30.171  12.891
88218W        W60643  25.056  16.612  10.743
88219W        W60644  29.450  36.497   1.836
88220W        W60645   9.324  27.540  14.794
88221W        W60646  20.332   3.680  12.442
88222W        W60647  17.100   5.025   4.481
88223W        W60648  21.460   5.018  11.624
88224W        W60649  27.471  15.741  13.869
88225W        W60650  14.646  37.791   1.458
88226W        W60651  17.053  38.976   3.354
88227W        W60652  11.635  40.615  10.013
88228W        W60653  14.585  37.013   0.229
88229W        W60654  19.985   5.701   4.229
88230W        W60655  43.710   1.413   0.487
88231W        W60656   2.666   5.725  10.778
88232W        W60657  19.053  36.342   3.619
88233W        W60658   1.336  23.755  12.004
88234W        W60659  44.902  39.404   2.369
88235W        W60660  29.164  44.774   2.569
88236W        W60661  22.012  41.810   2.930
88237W        W60662  14.614  39.387  10.960
88238W        W60663  13.226   4.796   1.019
88239W        W60664  21.521  10.316   9.888
88240W        W60665  32.599  41.343   2.192
88241W        W60666  25.227  41.775  11.448
88242W        W60667  13.114  17.155  14.898
88243W        W60668  14.302  42.065   1.814
88244W        W60669   2.532  10.055  13.672
88245W        W60670   4.319  41.474   1.147
88246W        W60671  25.022  31.475  10.781
88247W        W60672   5.383  18.806  14.382
88248W        W60673   4.314   8.575  13.543
88249W        W60674  25.590  33.651   2.744
88250W        W60675   0.184  32.200  12.114
88251W        W60676  36.523   7.921  13.412
88252W        W60677  17.221  29.694   4.268
88253W        W60678   6.890  11.749  13.444
88254W        W60679  41.187   5.150  12.280
88255W        W60680   4.824   5.848   2.689
88256W        W60681  17.249  42.829  13.356
88257W        W60682  33.635  30.920   2.328
88258W        W60683  33.821  15.633  10.749
88259W        W60684   4.397   6.450   0.180
88260W        W60685  15.803  12.233   0.392
88261W        W60686  21.806   0.958  11.571
88262W        W60687  20.615   3.550   1.314
88263W        W60688  14.267  36.446   3.773
88264W        W60689  15.860  20.830   0.425
88265W        W60690   1.286   9.865   3.594
88266W        W60691   0.289  12.573  13.912
88267W        W60692  38.134  10.910  12.473
88268W        W60693  18.973   3.768  10.707
88269W        W60694  20.519  26.209   3.737
88270W        W60695  20.656  11.766  13.316
88271W        W60696   3.789  38.611   0.266
88272W        W60697   2.790  23.071  13.325
88273W        W60698  32.566  36.023  10.400
88274W        W60699  41.469  14.345   1.868
88275W        W60700  26.008  28.744  13.048
88276W        W60701   1.435  26.253  11.463
88277W        W60702  12.422  16.185   3.299
88278W        W60703  10.238  19.076   1.035
88279W        W60704  17.746  39.469   4.173
88280W        W60705  10.113  38.994  12.041
88281W        W60706   0.400  29.427   0.050
88282W        W60707  33.224   9.551   0.699
88283W        W60708  12.775  10.643  12.669
88284W        W60709   1.360   2.011  11.266
88285W        W60710  41.215  37.724   4.077
88286W        W60711  30.174   4.161  12.056
88287W        W60712  44.976   0.299   0.759
88288W        W60713  43.940  22.016  11.682
88289W        W60714  22.456  35.600  14.271
88290W        W60715  19.762  13.301   3.586
88291W        W60716  32.587  43.853  10.365
88292W        W60717   7.710  33.440   1.481
88293W        W60718  18.113  37.613  13.958
88294W        W60719   3.995  18.847  14.705
88295W        W60720  12.673   4.613   4.181
88296W        W60721   2.249  27.623  12.599
88297W        W60722  28.640  27.151  10.671
88298W        W60723   6.449  42.992   3.767
88299W        W60724   8.858   8.002  14.302
88300W        W60725  20.304  17.141   0.244
88301W        W60726  44.532   4.898   1.328
88302W        W60727  31.420   1.328  12.010
88303W        W60728  20.582  35.989  13.363
88304W        W60729  34.054  24.445   2.624
88305W        W60730  29.473  27.054  12.848
88306W        W60731  23.913  14.282   1.367
88307W        W60732  30.456  35.394   4.372
88308W        W60733  22.733   2.861  14.836
88309W        W60734  44.853   9.120  14.324
88310W        W60735  31.218  11.060  14.472
88311W        W60736  21.928  40.599  10.988
88312W        W60737  44.749  11.100  14.188
88313W        W60738  32.603  43.973   3.418
88314W        W60739  36.284  21.560   2.445
88315W        W60740  44.323   2.923  12.571
88316W        W60741  12.174  25.042   2.875
88317W        W60742  13.966  20.065  12.153
88318W        W60743  42.912  30.343  13.962
88319W        W60744  37.075  38.315  10.884
88320W        W60745  22.677   6.610  10.675
88321W        W60746  33.944   0.519  14.380
88322W        W60747  24.722   6.619  12.614
88323W        W60748  30.578  18.767   1.167
88324W        W60749  12.974  15.638   2.418
88325W        W60750  29.837   4.199   0.841
88326W        W60751  23.505   1.411   0.137
88327W        W60752  33.198  20.897   2.429
88328W        W60753  28.523   2.472   0.802
88329W        W60754  25.520  22.075   4.550
88330W        W60755   9.830   6.472   9.799
88331W        W60756   4.989   7.686  13.511
88332W        W60757  43.309  34.026   1.914
88333W        W60758  44.267  13.621  11.183
88334W        W60759  19.635  17.289  13.101
88335W        W60760  37.561  18.845   3.371
88336W        W60761  17.068   9.920  10.764
88337W        W60762  41.331   2.918  12.984
88338W        W60763  36.974  32.668  13.405
88339W        W60764  29.486  15.503   0.490
88340W        W60765  20.092  43.524  14.918
88341W        W60766  27.534  15.676  12.992
88342W        W60767   1.345  42.971  12.101
88343W        W60768  36.089  21.148  14.798
88344W        W60769  30.425   2.184   3.379
88345W        W60770  22.307  42.437  14.418
88346W        W60771  16.735  24.021   4.598
88347W        W60772  24.427   3.031  13.930
88348W        W60773   1.766  17.173   3.309
88349W        W60774  37.327  15.318   4.610
88350W        W60775  35.628  17.327  11.483
88351W        W60776  39.756  43.298   2.955
88352W        W60777  11.982  41.831  11.701
88353W        W60778  37.497  44.768  11.321
88354W        W60779  38.819  35.505  14.722
88355W        W60780  27.452   1.241  11.533
88356W        W60781   1.058  18.749   0.742
88357W        W60782  12.355  17.639   2.261
88358W        W60783   8.946  15.790  10.572
88359W        W60784  12.769  29.835   2.024
88360W        W60785   3.093   7.707   0.830
88361W        W60786  34.443  13.370   4.612
88362W        W60787  18.286  27.416   3.678
88363W        W60788   1.557  43.976   3.318
88364W        W60789  28.733  33.343  14.264
88365W        W60790   2.704  17.399  14.325
88366W        W60791   6.991  18.858   4.634
88367W        W60792  21.449   2.848  10.952
88368W        W60793  37.758  39.378  11.518
88369W        W60794  16.797  29.628  13.631
88370W        W60795  40.063   8.417   3.423
88371W        W60796  11.403  15.060  12.610
88372W        W60797  10.099  30.621  11.018
88373W        W60798  27.293   8.613   3.199
88374W        W60799  29.122  41.375  10.976
88375W        W60800  20.100  37.475   4.664
88376W        W60801  34.553   9.864   2.253
88377W        W60802   3.727   5.230   0.430
88378W        W60803  12.213  11.447   1.237
88379W        W60804  32.050  22.662   4.161
88380W        W60805  44.377  41.494  12.053
88381W        W60806  31.836  18.031  13.438
88382W        W60807   1.424  32.555  13.417
88383W        W60808  30.464  16.872  10.144
88384W        W60809  37.463  13.345   0.332
88385W        W60810  12.676   7.408   1.789
88386W        W60811  27.404   0.710   1.351
88387W        W60812   7.164  10.284   2.817
88388W        W60813   6.252   3.766  12.537
88389W        W60814  34.144  21.340  12.033
88390W        W60815  44.342  10.860  11.496
88391W        W60816  26.586  14.634   1.745
88392W        W60817  18.161  19.136   2.822
88393W        W60818  13.558  30.700   3.740
88394W        W60819  36.844  29.477  14.443
88395W        W60820  30.000   9.690  13.803
88396W        W60821  25.409   3.738   2.636
88397W        W60822  40.804   6.140   4.601
88398W        W60823  38.397   4.405  13.984
88399W        W60824   3.416  16.415  12.882
88400W        W60825  42.107  28.053   4.562
88401W        W60826   4.456  10.849   3.743
88402W        W60827   5.903  23.769  10.779
88403W        W60828   9.744  13.212   4.441
88404W        W60829   1.459  29.661   0.495
88405W        W60830  21.073  44.993   0.424
88406W        W60831  22.015  11.747  11.962
88407W        W60832  19.500  26.242   2.646
88408W        W60833  10.781  38.540   3.418
88409W        W60834  41.868  25.214  13.951
88410W        W60835  38.321  22.652  14.442
88411W        W60836  15.347  11.811  12.142
88412W        W60837  44.869  27.020  11.647
88413W        W60838  11.291  21.005  14.918
88414W        W60839  11.382  37.280  12.123
88415W        W60840  10.113  29.497   0.400
88416W        W60841  32.246  20.759   4.600
88417W        W60842  31.069  34.931   2.301
88418W        W60843   0.546  10.131  12.534
88419W        W60844  29.842  34.977  12.878
88420W        W60845  15.080  19.813   1.659
88421W        W60846  36.129  23.167   9.766
88422W        W60847  13.604  37.510   4.093
88423W        W60848  20.075  40.389  11.017
88424W        W60849   3.974  26.495  14.953
88425W        W60850  33.001  37.011   1.370
88426W        W60851   0.971  10.825   0.905
88427W        W60852  38.609  22.628  13.412
88428W        W60853  24.160  41.881  11.310
88429W        W60854  10.220   8.477   1.751
88430W        W60855  28.218  40.379   1.429
88431W        W60856  14.703  19.262   3.798
88432W        W60857   8.125  23.055   2.274
88433W        W60858  34.587  12.063   4.133
88434W        W60859   1.814   9.911   3.631
88435W        W60860   0.353  19.118   1.896
88436W        W60861  14.343   5.099  13.629
88437W        W60862  30.698  39.210  12.586
88438W        W60863  38.246   2.874   4.019
88439W        W60864  17.844  38.428   4.133
88440W        W60865  39.292   4.505  12.920
88441W        W60866  21.241  14.858   3.248
88442W        W60867   1.917  23.435  12.483
88443W        W60868  16.262  16.105   1.663
88444W        W60869   4.015  31.885   0.436
88445W        W60870  26.595  13.145  13.388
88446W        W60871  13.548  24.916  12.608
88447W        W60872   0.602  16.423   0.024
88448W        W60873  43.927  18.055  14.099
88449W        W60874  15.177  18.020  12.932
88450W        W60875   3.411  21.742  13.809
88451W        W60876  19.301  30.072  10.684
88452W        W60877  41.088  32.108  12.480
88453W        W60878   8.521  13.386   3.602
88454W        W60879   7.429  28.109  14.987
88455W        W60880   6.297  27.305  11.034
88456W        W60881  27.528  15.202   0.697
88457W        W60882  37.265   8.827  12.987
88458W        W60883  35.082  28.070   2.931
88459W        W60884  14.813  18.232  14.980
88460W        W60885  18.784  43.770  13.836
88461W        W60886   9.121  32.113  11.097
88462W        W60887  29.448  34.540  13.450
88463W        W60888   7.294  44.442   4.337
88464W        W60889  40.821  41.796   4.557
88465W        W60890  39.422  13.695   3.360
88466W        W60891  23.929  28.757  13.878
88467W        W60892  12.095   8.717  12.076
88468W        W60893   2.769  34.288   1.759
88469W        W60894  26.438  24.673  12.636
88470W        W60895   6.419  19.004   0.970
88471W        W60896  22.177   2.022   2.823
88472W        W60897  42.894  37.028   4.139
88473W        W60898  30.106  25.204   4.389
88474W        W60899  43.092   7.102   1.847
88475W        W60900  10.763  13.337  12.051
88476W        W60901  41.582  33.826  14.048
88477W        W60902  39.371  16.854   0.901
88478W        W60903   2.151   3.384   2.284
88479W        W60904  17.686  28.017   1.462
88480W        W60905  32.582  41.867   3.538
88481W        W60906   8.516  10.635  11.100
88482W        W60907  28.372  37.595   3.602
88483W        W60908   7.445   1.527  13.827
88484W        W60909  27.589  31.955  11.955
88485W        W60910  44.890  35.030  13.934
88486W        W60911  17.784  42.376   4.179
88487W        W60912  35.896  15.879  14.355
88488W        W60913  39.005  31.205   1.226
88489W        W60914  44.979  30.002   2.003
88490W        W60915   9.889  39.713  13.898
88491W        W60916  27.319  32.868  14.919
88492W        W60917   8.126  38.111   1.910
88493W        W60918  39.092  10.577  13.621
88494W        W60919  21.979  32.073   4.507
88495W        W60920   3.851  42.106  10.540
88496W        W60921  40.396  32.109   3.684
88497W        W60922  28.219  39.287  14.274
88498W        W60923  19.019  29.054   3.256
88499W        W60924  34.424   9.368   2.120
88500W        W60925   0.659  29.941  11.116
88501W        W60926   9.930  13.524  14.936
88502W        W60927  18.671  42.780   1.251
88503W        W60928  12.364  32.605  11.149
88504W        W60929   5.311  10.651   2.076
88505W        W60930   2.957  13.789   4.412
88506W        W60931   4.841  10.902   0.825
88507W        W60932   5.192   3.042   3.298
88508W        W60933   3.398   8.654  13.471
88509W        W60934  44.240  31.583  10.887
88510W        W60935  10.624  26.095  13.483
88511W        W60936   8.108  21.892  13.289
88512W        W60937   0.438  16.606  14.540
88513W        W60938  29.435  30.691  13.979
88514W        W60939  16.768  12.087  11.987
88515W        W60940  41.081  32.405   2.236
88516W        W60941  16.108  43.932  10.769
88517W        W60942   2.842  10.075   0.500
88518W        W60943  32.577  16.115  11.690
88519W        W60944  41.796  12.051   4.305
88520W        W60945  39.768  15.339  13.409
88521W        W60946  35.741  38.512   4.175
88522W        W60947   5.817  33.590  13.328
88523W        W60948  37.630  41.760  11.058
88524W        W60949  12.181   2.571  12.045
88525W        W60950  15.987   8.832   5.107
88526W        W60951  37.871  30.872   2.680
88527W        W60952  10.901  20.782  13.953
88528W        W60953  18.195  12.701  10.730
88529W        W60954   5.129   7.938   0.723
88530W        W60955  33.110  10.373   4.379
88531W        W60956   8.066  33.566  13.973
88532W        W60957  10.784  23.599  10.532
88533W        W60958  34.141  16.611  12.725
88534W        W60959  37.184  15.378   0.798
88535W        W60960  15.293   0.013   1.159
88536W        W60961  44.871  35.993   0.259
88537W        W60962  28.180  14.320   3.804
88538W        W60963  12.596  12.095  13.967
88539W        W60964   5.822  31.535   3.841
88540W        W60965  15.395  11.407   4.072
88541W        W60966  33.927  29.643   3.447
88542W        W60967  38.548  35.363   3.209
88543W        W60968  42.689   7.379  14.241
88544W        W60969  17.243   0.213   3.200
88545W        W60970   2.540  23.241  10.615
88546W        W60971  24.008  32.916  12.418
88547W        W60972  36.100  13.270  13.009
88548W        W60973   6.355  31.868  13.512
88549W        W60974  13.132   1.191  11.350
88550W        W60975  13.852   9.829  13.075
88551W        W60976   7.600  22.060   3.821
88552W        W60977  25.944   0.894   4.629
88553W        W60978   6.142  18.309   0.482
88554W        W60979  11.931  27.039   0.313
88555W        W60980  16.941   7.440  11.960
88556W        W60981   7.459  27.139   1.388
88557W        W60982  42.885  30.017  11.442
88558W        W60983  20.490  23.867  10.736
88559W        W60984   5.173  43.021  13.491
88560W        W60985   4.806  24.198   4.714
88561W        W60986  37.401   1.956  14.776
88562W        W60987   3.149  24.455   3.215
88563W        W60988  20.558  28.690   3.066
88564W        W60989  39.128   7.243  14.349
88565W        W60990   2.294  14.753  14.269
88566W        W60991  17.948  34.340  11.938
88567W        W60992   1.761  16.791   4.382
88568W        W60993  29.022  20.795  14.556
88569W        W60994   2.774  25.507  11.123
88570W        W60995  33.587  14.272   3.206
88571W        W60996  20.101  27.502   3.283
88572W        W60997  33.156   9.697  11.175
88573W        W60998  12.089  15.887   2.872
88574W        W60999  33.034  29.655  14.429
88575W        W61000  21.481   5.506   0.785
88576W        W61001  24.901   5.423   0.316
88577W        W61002  16.519  17.080  11.125
88578W        W61003   3.419  35.492  10.770
88579W        W61004  27.231  11.789   1.280
88580W        W61005  40.415  36.389   1.501
88581W        W61006  19.156   0.784   9.887
88582W        W61007  26.166  43.837  13.807
88583W        W61008  11.378   8.419  10.988
88584W        W61009  32.235   0.299   4.548
88585W        W61010   2.367  21.116  13.504
88586W        W61011  42.962  37.575   3.280
88587W        W61012   4.399   9.087  13.435
88588W        W61013  12.370  37.072  10.490
88589W        W61014  14.840  41.852  12.872
88590W        W61015  32.456  14.700   2.466
88591W        W61016  23.755  31.161  11.861
88592W        W61017   3.200  14.830   2.860
88593W        W61018  31.092  33.948   2.456
88594W        W61019   7.347  31.654  14.931
88595W        W61020   0.269   7.848  11.582
88596W        W61021  42.336  23.588   0.814
88597W        W61022  43.245  27.213  12.862
88598W        W61023   2.281  27.362   2.753
88599W        W61024  36.747  11.158  12.461
88600W        W61025  19.232   2.226   1.337
88601W        W61026  30.097  12.136  10.545
88602W        W61027  29.634  21.016   3.253
88603W        W61028  34.810  16.315  11.023
88604W        W61029   1.162  35.326  13.892
88605W        W61030  15.145   1.244  10.994
88606W        W61031   1.605  35.168  14.488
88607W        W61032  19.142  31.377  14.488
88608W        W61033  43.007   7.213   4.955
88609W        W61034  22.543  35.216   3.461
88610W        W61035   5.900  19.493   4.077
88611W        W61036  17.568  42.706  13.778
88612W        W61037  27.054  42.753   2.783
88613W        W61038  12.397  15.578   3.790
88614W        W61039  31.076  18.802   1.305
88615W        W61040  40.993  20.654   3.895
88616W        W61041  42.318  38.901  14.669
88617W        W61042  41.575  20.831   3.319
88618W        W61043   5.639  23.258   1.332
88619W        W61044  19.609  29.442   4.167
88620W        W61045  16.601  42.121  10.643
88621W        W61046   2.375   6.146  10.766
88622W        W61047  22.696  36.406  10.660
88623W        W61048   7.450   3.895   2.325
88624W        W61049  19.932  44.895  12.126
88625W        W61050  16.814  32.675  11.123
88626W        W61051   8.733  22.236   3.183
88627W        W61052   3.724  28.353   9.990
88628W        W61053   7.514  16.744  11.107
88629W        W61054  26.915   3.900  12.834
88630W        W61055   6.710  14.861  12.965
88631W        W61056  22.150   4.868  14.268
88632W        W61057  35.152   6.706  13.407
88633W        W61058  23.733   0.794   3.224
88634W        W61059   9.637  19.058   3.228
88635W        W61060   4.926   3.150   2.837
88636W        W61061  10.170  29.206   2.251
88637W        W61062   0.798   2.656   1.353
88638W        W61063  10.378  27.965   0.357
88639W        W61064  21.236   4.882  14.410
88640W        W61065   7.026  22.758   0.240
88641W        W61066  41.433  15.443  13.913
88642W        W61067  10.315  27.177   2.227
88643W        W61068  19.721  10.880  11.404
88644W        W61069  20.893  15.633  11.612
88645W        W61070  23.224  39.955  11.007
88646W        W61071  20.814  38.058   4.861
88647W        W61072  15.566  21.083  14.326
88648W        W61073   2.389  13.449  10.753
88649W        W61074  13.031  36.399  12.721
88650W        W61075  15.223  14.112   4.879
88651W        W61076   0.899   0.254  12.954
88652W        W61077   5.367  25.398  13.805
88653W        W61078  22.675   4.517  12.590
88654W        W61079   8.860  13.312  14.038
88655W        W61080   4.857  30.366   3.835
88656W        W61081  22.680  25.031  10.993
88657W        W61082  22.139  22.026   1.990
88658W        W61083  27.656  43.222  11.580
88659W        W61084  41.171  16.806  14.467
88660W        W61085  31.661  22.129   3.289
88661W        W61086  31.954   7.104  13.496
88662W        W61087  20.565  26.655   3.407
88663W        W61088  41.928  14.548   1.681
88664W        W61089  23.067  29.983  12.366
88665W        W61090  22.030  13.642  12.268
88666W        W61091  14.399  36.812  13.024
88667W        W61092  41.038  17.468  12.496
88668W        W61093  26.639  11.856  13.935
88669W        W61094  10.872   3.280   1.975
88670W        W61095   7.352  11.244   4.359
88671W        W61096  30.009  27.916  14.955
88672W        W61097   4.392  10.694   3.248
88673W        W61098  12.534  21.342   2.259
88674W        W61099  38.791  26.008   4.763
88675W        W61100  39.155  16.547  12.597
88676W        W61101  19.163  27.574  14.455
88677W        W61102  29.366   8.414   0.924
88678W        W61103  22.559  13.236   0.243
88679W        W61104   5.431  39.502   2.144
88680W        W61105  32.405  16.603   4.291
88681W        W61106  19.907  22.872  10.630
88682W        W61107  35.843  24.926  14.851
88683W        W61108  26.031   5.381   3.255
88684W        W61109  42.999  40.474  14.021
88685W        W61110  41.718   0.468  13.375
88686W        W61111  10.078  40.424  11.631
88687W        W61112  20.133  39.089   1.422
88688W        W61113  36.946  24.013  12.352
88689W        W61114  42.393   2.062  12.980
88690W        W61115  13.653  42.326   0.470
88691W        W61116  34.787  43.135   4.454
88692W        W61117  33.904  36.602   4.113
88693W        W61118  33.572  29.428  13.027
88694W        W61119   6.448  23.949   3.742
88695W        W61120  19.206   9.911  12.974
88696W        W61121  35.347  42.005  14.712
88697W        W61122  26.635   8.822  11.268
88698W        W61123  15.291  42.838  14.844
88699W        W61124   4.712   0.881  13.933
88700W        W61125  14.514  31.060  11.659
88701W        W61126  44.236  10.316   1.197
88702W        W61127  21.704  39.570  14.999
88703W        W61128  27.074  23.046  10.557
88704W        W61129  27.891   5.645   0.389
88705W        W61130  13.141  43.278  10.758
88706W        W61131   2.814  28.319  11.594
88707W        W61132  35.616  13.018  12.905
88708W        W61133  22.517  15.182  11.170
88709W        W61134   9.813   5.152   4.609
88710W        W61135   7.903  23.795   1.845
88711W        W61136   3.709  16.532  14.485
88712W        W61137  21.977  18.280   1.687
88713W        W61138  26.819  25.185   2.700
88714W        W61139  24.434  30.071   1.548
88715W        W61140  19.709   8.688   3.658
88716W        W61141   2.906  34.979   2.002
88717W        W61142  15.747  31.445  10.112
88718W        W61143   9.703  11.149   0.988
88719W        W61144  42.608  15.166  14.457
88720W        W61145  23.084  13.328  11.176
88721W        W61146  23.467   3.374   2.585
88722W        W61147  43.966  15.825  10.646
88723W        W61148   0.759  17.083   3.144
88724W        W61149  26.986  16.113  14.607
88725W        W61150  24.660  38.963  10.843
88726W        W61151  40.895  44.514  10.147
88727W        W61152  38.298  21.181  13.410
88728W        W61153  33.489  27.763   2.529
88729W        W61154  43.802   4.599   0.886
88730W        W61155  16.693  18.311  13.583
88731W        W61156  12.247   5.471  13.816
88732W        W61157  13.501   4.326  11.158
88733W        W61158  30.144  32.507  11.161
88734W        W61159   0.385  30.368   5.081
88735W        W61160  11.145  44.051  12.485
88736W        W61161  17.177   9.387   3.905
88737W        W61162   2.061  40.920   0.418
88738W        W61163  15.935  13.817   0.942
88739W        W61164   4.297  26.383   4.405
88740W        W61165  16.299  43.148  11.179
88741W        W61166  30.181  24.919  12.775
88742W        W61167  27.184   9.898  13.877
88743W        W61168  39.162  34.061  10.755
88744W        W61169   9.341   2.547  14.932
88745W        W61170  41.556  41.873   3.650
88746W        W61171  40.772  31.366   2.401
88747W        W61172  13.119  22.172   0.307
88748W        W61173  39.896  13.257  13.045
88749W        W61174  25.213  20.063   2.799
88750W        W61175  25.186  33.360  12.437
88751W        W61176  37.469   8.705  11.141
88752W        W61177  43.737  40.562   4.057
88753W        W61178  40.987  42.043  10.746
88754W        W61179   1.248  39.765   2.253
88755W        W61180  44.893  37.341  11.634
88756W        W61181  33.040  30.398  13.774
88757W        W61182  10.439  40.020   1.367
88758W        W61183  22.585  19.256   1.279
88759W        W61184  22.161  44.395   3.642
88760W        W61185  33.172  11.673   1.664
88761W        W61186  16.607  39.071  10.457
88762W        W61187  27.493  44.985   0.798
88763W        W61188  25.671   6.462  13.013
88764W        W61189  36.757  10.873  11.236
88765W        W61190  17.061  41.449   0.725
88766W        W61191  20.244  41.003   1.112
88767W        W61192  13.531  25.300  13.032
88768W        W61193   7.576  12.909  11.085
88769W        W61194  44.968  13.264  11.491
88770W        W61195   6.808  11.202   3.066
88771W        W61196  40.428  27.682  12.106
88772W        W61197   9.895   5.919   5.011
88773W        W61198  23.480  20.689  11.338
88774W        W61199  20.038  32.029   0.676
88775W        W61200  10.302  11.946   2.588
88776W        W61201  40.909  34.436  11.893
88777W        W61202   0.504  26.051  12.571
88778W        W61203  37.878  15.322  14.014
88779W        W61204  35.840  29.024   3.073
88780W        W61205   5.451  26.231  14.988
88781W        W61206  37.279  41.931  12.883
88782W        W61207  44.928   5.934  11.371
88783W        W61208   6.917  27.230   0.880
88784W        W61209  10.755  20.675   2.413
88785W        W61210   7.943  23.877   4.254
88786W        W61211  39.844  28.450  10.671
88787W        W61212  10.862   1.334   1.702
88788W        W61213  18.687  29.841  12.063
88789W        W61214  37.933   8.659  11.497
88790W        W61215   9.038   7.453   4.355
88791W        W61216  38.456  43.394  12.778
88792W        W61217  15.292  22.424   0.430
88793W        W61218  26.137  34.923  13.909
88794W        W61219  10.905   1.676  13.172
88795W        W61220  19.600  13.682  14.504
88796W        W61221   8.380  22.001  11.101
88797W        W61222  24.224  26.521   2.412
88798W        W61223  43.394   5.213   0.293
88799W        W61224  25.940  33.358   0.347
88800W        W61225  23.131   0.814  14.972
88801W        W61226  10.915  15.197  14.286
88802W        W61227  18.497   8.846  13.872
88803W        W61228  33.895  11.947  12.401
88804W        W61229  44.845  44.374  14.049
88805W        W61230  34.025  36.072   0.298
88806W        W61231   3.706  37.155   2.439
88807W        W61232   7.213   7.332   1.438
88808W        W61233   6.691  15.248  13.328
88809W        W61234   9.255  38.699  14.284
88810W        W61235  27.897  22.514   2.455
88811W        W61236  32.015  35.395  11.974
88812W        W61237   7.817  30.224   4.387
88813W        W61238  35.861  34.632   0.361
88814W        W61239  18.649  33.988  14.417
88815W        W61240  20.544  12.618  14.947
88816W        W61241  22.268  21.190   3.677
88817W        W61242  38.094  41.242  13.508
88818W        W61243   0.546  44.835  13.480
88819W        W61244  44.510   8.769  12.637
88820W        W61245  32.367  37.977   1.299
88821W        W61246  42.034  44.281  13.880
88822W        W61247  24.590  18.831   3.832
88823W        W61248  37.422  36.107  12.810
88824W        W61249  25.317   9.256   1.418
88825W        W61250   5.188  16.762   2.184
88826W        W61251  22.709  24.586  13.310
88827W        W61252  37.982   5.748   0.272
88828W        W61253  10.184  29.182  14.917
88829W        W61254  12.060  37.453  12.493
88830W        W61255   0.781  14.320  14.723
88831W        W61256  25.761  20.036   1.256
88832W        W61257  15.086  36.267  14.802
88833W        W61258  30.109  14.912   2.200
88834W        W61259   6.246  41.369   2.105
88835W        W61260   2.135  36.613  13.408
88836W        W61261  23.487  36.533  13.182
88837W        W61262  15.178   7.251   4.397
88838W        W61263  35.315  22.638   4.810
88839W        W61264  43.405  16.293   3.288
88840W        W61265  27.639  34.946   4.387
88841W        W61266  11.181  36.338   3.963
88842W        W61267   1.072   2.794  11.849
88843W        W61268   3.523  27.528   4.233
88844W        W61269  11.185  15.995  12.575
88845W        W61270   3.461  24.065   3.267
88846W        W61271  18.908  31.929  12.273
88847W        W61272  37.255   0.161  11.637
88848W        W61273   8.900  27.058  14.914
88849W        W61274  35.345  35.316   1.795
88850W        W61275  38.942   2.334  14.475
88851W        W61276  44.245   0.929  11.667
88852W        W61277  25.243  39.502  13.386
88853W        W61278  32.171  38.165  13.392
88854W        W61279   4.396  35.586   1.071
88855W        W61280  43.478  20.502  10.741
88856W        W61281  42.748  22.973  14.891
88857W        W61282  29.056  29.198  12.933
88858W        W61283  10.664  25.711  12.047
88859W        W61284   2.857  12.272   2.662
88860W        W61285  43.207  12.249  14.431
88861W        W61286  38.371   6.499  11.184
88862W        W61287  12.645   4.821   4.673
88863W        W61288  34.577  34.354   1.687
88864W        W61289  36.072   4.326  10.921
88865W        W61290   7.666  32.408  11.345
88866W        W61291  39.173  36.916  13.387
88867W        W61292   4.689  38.746   3.203
88868W        W61293  31.080  39.476   3.688
88869W        W61294  27.997   4.750  12.192
88870W        W61295  27.082  40.805  13.679
88871W        W61296  12.073   3.250  12.335
88872W        W61297  43.412  44.950   4.805
88873W        W61298  38.648  28.684   1.423
88874W        W61299   1.938   4.691  12.999
88875W        W61300  20.164  13.351   0.174
88876W        W61301  37.182   8.630   3.863
88877W        W61302  40.650  26.028   0.396
88878W        W61303  41.068  22.549   0.996
88879W        W61304  25.571  43.437  10.893
88880W        W61305  26.423   0.267   4.357
88881W        W61306   4.854   7.676  10.920
88882W        W61307  17.333  27.623   0.309
88883W        W61308  41.785  38.937   4.176
88884W        W61309  35.137  23.608   1.374
88885W        W61310  26.953  26.003  14.118
88886W        W61311  37.363   3.462  13.489
88887W        W61312  41.381  33.602  12.096
88888W        W61313  13.125  16.106   4.632
88889W        W61314  18.739  13.243  11.715
88890W        W61315  38.020   4.781  14.928
88891W        W61316  44.930  38.077  11.157
88892W        W61317  16.819  22.664  14.961
88893W        W61318  21.529   6.308   0.862
88894W        W61319   2.471   1.066   1.035
88895W        W61320  29.973  14.536   2.560
88896W        W61321  43.000   5.264  12.972
88897W        W61322   7.971  29.562  11.184
88898W        W61323  40.789  39.650  14.565
88899W        W61324   2.451  21.538  14.183
88900W        W61325  17.203  10.154   1.408
88901W        W61326   7.291  22.193  14.348
88902W        W61327  32.955  38.414   1.940
88903W        W61328  10.713   3.493   0.991
88904W        W61329  15.590  31.424   2.461
88905W        W61330  30.379  33.608   4.242
88906W        W61331  42.200  17.125  13.294
88907W        W61332  32.487  27.420  10.496
88908W        W61333  42.309  26.902   3.639
88909W        W61334  20.340  15.268  14.289
88910W        W61335  17.830   8.102   2.261
88911W        W61336  22.805  32.168  11.490
88912W        W61337   1.925  31.435  13.809
88913W        W61338  12.316  42.292   3.590
88914W        W61339   1.898   9.389   1.855
88915W        W61340  25.108  20.212  14.495
88916W        W61341  25.461   5.381   0.102
88917W        W61342  10.715  33.428  12.125
88918W        W61343   9.774   2.446  13.741
88919W        W61344  14.056  12.761  13.519
88920W        W61345   1.712   5.693   2.749
88921W        W61346  35.263  31.896   2.601
88922W        W61347  11.163  13.553   4.750
88923W        W61348  31.631  18.657  11.447
88924W        W61349  10.832  16.584   0.884
88925W        W61350   1.768  40.630  11.865
88926W        W61351   3.836  31.250   4.178
88927W        W61352  11.158  12.741  13.174
88928W        W61353  27.157   2.386   2.157
88929W        W61354  39.428  11.947  14.786
88930W        W61355  44.954  43.429   3.183
88931W        W61356  21.750  22.581  11.111
88932W        W61357  31.219  29.952   0.876
88933W        W61358  43.084   7.998   2.698
88934W        W61359   9.465  28.573  12.630
88935W        W61360  27.121  15.091   3.337
88936W        W61361  33.017   5.010  11.446
88937W        W61362  27.565   4.689  12.847
88938W        W61363  12.578  23.975   2.824
88939W        W61364  15.546   7.356  13.007
88940W        W61365  15.059  12.097   1.719
88941W        W61366  39.086   2.344   3.688
88942W        W61367   9.148   8.973   9.762
88943W        W61368  22.705   3.365  14.882
88944W        W61369  20.233  28.391   2.733
88945W        W61370  26.139   4.199   1.961
88946W        W61371   8.208  18.171   4.644
88947W        W61372  10.681   8.327  12.930
88948W        W61373  29.118  39.331   1.781
88949W        W61374  36.298  21.556   0.380
88950W        W61375   1.479  40.746  14.925
88951W        W61376   4.922  23.796  11.540
88952W        W61377  31.838  12.700   4.315
88953W        W61378   2.866   9.799   1.740
88954W        W61379   5.079  34.561   1.852
88955W        W61380  43.275  44.421  13.033
88956W        W61381  15.941  22.975   9.975
88957W        W61382  13.425  13.563  13.753
88958W        W61383  35.317  39.834  14.462
88959W        W61384  43.036   7.486  12.882
88960W        W61385  19.287  44.823   1.018
88961W        W61386  16.772  44.805   2.263
88962W        W61387  18.060  27.535   2.305
88963W        W61388  28.175  36.575   0.187
88964W        W61389  38.962  36.419  11.652
88965W        W61390  10.215   0.179   0.409
88966W        W61391  31.582  23.143  11.858
88967W        W61392   3.181  40.859   3.454
88968W        W61393  23.011   7.659   5.465
88969W        W61394  44.857  38.368   3.885
88970W        W61395  20.984  26.952  13.525
88971W        W61396  18.177   0.224  11.767
88972W        W61397  30.369  43.006  12.185
88973W        W61398   7.277   8.759  10.515
88974W        W61399  31.602  40.541   3.311
88975W        W61400  11.745  11.258  11.099
88976W        W61401  22.577  15.825   1.271
88977W        W61402  25.604   0.984   1.854
88978W        W61403  36.343   8.333  14.004
88979W        W61404   3.400   9.367   3.685
88980W        W61405   8.220  19.134   4.641
88981W        W61406   6.770  20.274   4.577
88982W        W61407  40.316  25.651  13.892
88983W        W61408  14.346  16.252   4.563
88984W        W61409  11.051  20.112   4.620
88985W        W61410  24.593  34.349  14.561
88986W        W61411  33.293  18.557   1.462
88987W        W61412  15.358  33.176  10.485
88988W        W61413  35.549  31.218  12.527
88989W        W61414  16.116   7.720   1.754
88990W        W61415  33.864  31.189  12.999
88991W        W61416  15.987  27.056  12.444
88992W        W61417  37.385  19.168  11.145
88993W        W61418   2.795  10.084  14.357
88994W        W61419   7.937  33.867   0.605
88995W        W61420  16.519   6.699   0.775
88996W        W61421  37.972   6.173  12.177
88997W        W61422  15.311  24.082   3.731
88998W        W61423  25.197   3.109   3.898
88999W        W61424  40.380  32.232  11.969
89000W        W61425  32.660  37.336  14.330
89001W        W61426  12.636   2.731  11.874
89002W        W61427  17.030  35.057   2.795
89003W        W61428  13.789  30.914  11.109
89004W        W61429  10.528  21.188   4.252
89005W        W61430   3.973  18.721   3.384
89006W        W61431  32.375  15.681  11.490
89007W        W61432  21.297  13.354  11.498
89008W        W61433   2.280  17.964   3.791
89009W        W61434  36.565   5.249  13.564
89010W        W61435  20.606  18.717   0.967
89011W        W61436  44.376   7.087  12.901
89012W        W61437  24.193  32.349  13.460
89013W        W61438   9.364   3.146  11.875
89014W        W61439   7.242   8.563  12.450
89015W        W61440   4.417  16.219   0.879
89016W        W61441  37.884  42.811   1.838
89017W        W61442  40.354   3.452   5.013
89018W        W61443  36.955  32.750   2.775
89019W        W61444  38.402  23.083   4.197
89020W        W61445  42.042  16.755   1.390
89021W        W61446  30.992   6.263   2.283
89022W        W61447  29.709  37.841  13.335
89023W        W61448  18.122  32.673  13.426
89024W        W61449  26.465  14.660   2.807
89025W        W61450  15.837  25.187  12.856
89026W        W61451  14.687  28.067  10.723
89027W        W61452   7.245  30.015  14.182
89028W        W61453  39.884  19.139   1.485
89029W        W61454  17.304  43.234  11.991
89030W        W61455  16.156  14.246  11.063
89031W        W61456   4.332  27.349   0.883
89032W        W61457   7.040  13.115  11.607
89033W        W61458  29.493  17.370  14.964
89034W        W61459  15.339  27.194  13.902
89035W        W61460  24.968  25.911  10.606
89036W        W61461  39.837  32.084   1.776
89037W        W61462  25.567  19.932   0.769
89038W        W61463  31.202  44.456  14.864
89039W        W61464  13.110  13.777  10.502
89040W        W61465  17.999   0.373   4.203
89041W        W61466  10.927  33.174   2.583
89042W        W61467  35.929   3.197  12.449
89043W        W61468  31.083  14.656   1.304
89044W        W61469   5.862  12.250   3.833
89045W        W61470  28.073  13.597   0.055
89046W        W61471  27.496  42.439   2.828
89047W        W61472  40.275  43.937  11.005
89048W        W61473  41.028  31.117  12.816
89049W        W61474  41.800  31.592   4.614
89050W        W61475  37.536  39.991  10.592
89051W        W61476  13.352  30.456   3.320
89052W        W61477  23.225  20.058  11.239
89053W        W61478  35.482  37.993   4.777
89054W        W61479  22.559  11.311  14.377
89055W        W61480   8.855  36.080  13.267
89056W        W61481   9.256  15.541  13.304
89057W        W61482  26.624  33.359  14.444
89058W        W61483  44.246  27.745  14.527
89059W        W61484  35.089   5.919  11.236
89060W        W61485   1.881  33.985  11.831
89061W        W61486  32.630   3.723  13.145
89062W        W61487   6.877  11.326   4.554
89063W        W61488  38.581   3.025  10.942
89064W        W61489  42.524  19.098   3.166
89065W        W61490  18.496  26.436   0.743
89066W        W61491  30.344   0.709  12.934
89067W        W61492  20.096  39.414  13.347
89068W        W61493  16.550  40.998   5.095
89069W        W61494  20.944  17.684  12.365
89070W        W61495  44.469  40.618  14.848
89071W        W61496  26.969  15.706   4.565
89072W        W61497  27.705  40.329   1.433
89073W        W61498  24.848  36.442  14.779
89074W        W61499  25.647  34.682  14.039
89075W        W61500   9.031   9.146  12.993
89076W        W61501  32.662  27.204  14.863
89077W        W61502  38.434  43.397  11.511
89078W        W61503   8.739  12.105   3.668
89079W        W61504  33.059  18.752  13.590
89080W        W61505   4.894  31.160   5.049
89081W        W61506   6.274  43.002   1.628
89082W        W61507  10.326  31.608   0.458
89083W        W61508  29.984  10.046  10.559
89084W        W61509  34.430   7.806  12.556
89085W        W61510   7.709   2.714  13.110
89086W        W61511  44.246  21.859  12.924
89087W        W61512  11.127  35.657  14.695
89088W        W61513  15.280   8.631   3.197
89089W        W61514  13.844  25.055   2.927
89090W        W61515  34.173  43.618   3.273
89091W        W61516  28.648  26.179  11.854
89092W        W61517  35.304   3.823   0.852
89093W        W61518   3.151  18.163   2.152
89094W        W61519  22.681   0.275   4.698
89095W        W61520   4.337  17.391   0.400
89096W        W61521   5.312  28.208   4.430
89097W        W61522  25.143  13.256  10.738
89098W        W61523   8.045  22.802  12.544
89099W        W61524  18.142   9.253   0.204
89100W        W61525  41.342  25.201  13.034
89101W        W61526   6.578  36.636  11.986
89102W        W61527  24.515  26.017   4.790
89103W        W61528  18.602  21.453   2.130
89104W        W61529  22.452  40.762  11.859
89105W        W61530  31.510  10.838  10.961
89106W        W61531  35.954  10.367   4.623
89107W        W61532  11.435  27.527   1.245
89108W        W61533   3.594  23.250   0.921
89109W        W61534  12.611  30.864   1.849
89110W        W61535  44.325   7.088  13.396
89111W        W61536  42.978  12.357  11.403
89112W        W61537  18.783  36.527  13.039
89113W        W61538  43.299   9.712   2.526
89114W        W61539  35.652  23.875  10.246
89115W        W61540   7.427  21.574  12.163
89116W        W61541  31.197  17.237   2.606
89117W        W61542  22.432  29.631   2.944
89118W        W61543  28.533  22.230  12.923
89119W        W61544  21.100   8.367   3.813
89120W        W61545   5.261   1.380   0.478
89121W        W61546   8.564  22.896   5.010
89122W        W61547   0.416  31.508   3.285
89123W        W61548  26.973  25.548  12.466
89124W        W61549  27.333  37.019   2.183
89125W        W61550  17.709  39.096  12.199
89126W        W61551  34.382   1.290  13.919
89127W        W61552  17.650  18.736   4.480
89128W        W61553   0.381  35.333   1.304
89129W        W61554  12.519  36.704   2.823
89130W        W61555  28.077  39.796  13.543
89131W        W61556  39.427  44.949  11.047
89132W        W61557  39.928  17.283  12.939
89133W        W61558  26.656  25.973  12.422
89134W        W61559  15.292  44.211   4.796
89135W        W61560  29.022   7.591   1.109
89136W        W61561  17.860  24.829  12.501
89137W        W61562  31.230   8.673   5.380
89138W        W61563  17.576  20.657  12.176
89139W        W61564  21.019  19.675  11.701
89140W        W61565  19.338  16.677   3.257
89141W        W61566  14.465  25.247  14.773
89142W        W61567  39.264  14.337   4.703
89143W        W61568   8.961  25.904   4.631
89144W        W61569  25.397  14.896   3.782
89145W        W61570  27.755   8.400   3.253
89146W        W61571  44.261   0.089  13.327
89147W        W61572  11.370  42.102  13.409
89148W        W61573  13.581   7.191  11.160
89149W        W61574  19.771  24.806   1.311
89150W        W61575  15.121  27.872  12.862
89151W        W61576  35.578  22.265   0.998
89152W        W61577  28.702   2.914   4.553
89153W        W61578  21.647  27.235  12.936
89154W        W61579  28.751  20.589   2.880
89155W        W61580  15.379   4.730   3.646
89156W        W61581  34.503  23.093  13.969
89157W        W61582  32.471   2.578  11.389
89158W        W61583  35.566  22.364  11.959
89159W        W61584   9.615  40.935  12.955
89160W        W61585  25.601  21.696   2.293
89161W        W61586  38.463  23.115   4.715
89162W        W61587  30.032  14.781   1.239
89163W        W61588  16.140   4.023  12.033
89164W        W61589  38.432  10.246  12.344
89165W        W61590  13.729  27.539   4.918
89166W        W61591  12.798   2.879  13.057
89167W        W61592  42.852  37.394  10.262
89168W        W61593  36.419  28.462  13.841
89169W        W61594  42.626   8.783  10.997
89170W        W61595  20.101  22.723   0.251
89171W        W61596   0.837   8.701   0.692
89172W        W61597  40.355  18.115   1.305
89173W        W61598  27.515  11.252   0.403
89174W        W61599  32.442  16.111   0.256
89175W        W61600   8.204  16.657  13.418
89176W        W61601   1.453   9.551  13.461
89177W        W61602  31.679  19.638   1.411
89178W        W61603  38.934   7.391   9.760
89179W        W61604   4.986  15.561   2.719
89180W        W61605   2.803  43.646  14.041
89181W        W61606   4.172  34.461   1.450
89182W        W61607  28.683   9.811  10.981
89183W        W61608   9.771  32.610   2.211
89184W        W61609   8.775  15.209  10.979
89185W        W61610  40.829   7.577   4.002
89186W        W61611  29.673  24.971  13.704
89187W        W61612   4.329  21.600   1.294
89188W        W61613  16.818  17.324   0.020
89189W        W61614  21.698  20.557   2.968
89190W        W61615  23.552  37.378  11.864
89191W        W61616  38.884  15.030  14.809
89192W        W61617   5.187  23.924   9.841
89193W        W61618  41.059  10.625  10.644
89194W        W61619   3.983  23.076   1.831
89195W        W61620  32.680  18.191   1.932
89196W        W61621  14.190  10.764   4.270
89197W        W61622  39.048   4.218  14.733
89198W        W61623   4.039   3.328  13.485
89199W        W61624  35.993  22.297   3.787
89200W        W61625  17.556   9.626  10.760
89201W        W61626  43.221   7.675  10.392
89202W        W61627   4.515   5.846   1.844
89203W        W61628  34.211   1.332  14.924
89204W        W61629  33.436  18.528   4.545
89205W        W61630  31.666  18.519  11.952
89206W        W61631  10.996  37.915  11.646
89207W        W61632  10.043  36.605  14.458
89208W        W61633  32.905  16.511   4.234
89209W        W61634  41.984  36.350  14.420
89210W        W61635   8.646  12.657   0.701
89211W        W61636  18.790   6.863   1.358
89212W        W61637   2.904  19.694  13.904
89213W        W61638  14.059  14.782  12.513
89214W        W61639  21.490  38.282   4.495
89215W        W61640  31.243  35.069  14.428
89216W        W61641  21.288  32.045  11.137
89217W        W61642  16.141  30.990  14.417
89218W        W61643  28.453  18.133   1.421
89219W        W61644  19.481  38.939   3.348
89220W        W61645  36.843  34.698   0.109
89221W        W61646   8.757  32.926  14.783
89222W        W61647  34.358  14.134  11.680
89223W        W61648  25.159  23.055   2.512
89224W        W61649  37.813  39.406   3.315
89225W        W61650  23.658   0.279   1.023
89226W        W61651  23.996  28.858  12.996
89227W        W61652  23.127  27.694   3.740
89228W        W61653  38.373  23.063   1.233
89229W        W61654  12.309  43.896   4.698
89230W        W61655  18.100   2.059  13.482
89231W        W61656  44.751  10.896   2.691
89232W        W61657  21.573  20.250  13.356
89233W        W61658  10.697   4.672  14.710
89234W        W61659   0.209  16.522   3.261
89235W        W61660   3.190  11.510   3.227
89236W        W61661  26.865   8.352  11.225
89237W        W61662  17.845   2.914   3.126
89238W        W61663  10.195  28.045   4.088
89239W        W61664  12.516  43.766  13.314
89240W        W61665   1.711   3.961   1.522
89241W        W61666  28.187   0.206   1.779
89242W        W61667  19.701   4.209  10.441
89243W        W61668   5.410  15.691   1.251
89244W        W61669  35.257   3.797   4.710
89245W        W61670  29.195  28.524  12.394
89246W        W61671   2.982  13.617   1.632
89247W        W61672   9.019  26.168   2.140
89248W        W61673  21.044   2.889   1.132
89249W        W61674  21.830  38.365  11.686
89250W        W61675  33.149  22.947  14.003
89251W        W61676  30.662  41.396  13.287
89252W        W61677  13.399  24.110   0.803
89253W        W61678   4.369   5.479  10.469
89254W        W61679  11.968  31.585   2.289
89255W        W61680  33.978  44.024   0.034
89256W        W61681  11.230   6.711   4.650
89257W        W61682   0.198  35.864  11.545
89258W        W61683  19.757  38.020   3.833
89259W        W61684  30.564  12.760   2.290
89260W        W61685  33.678   3.318   2.291
89261W        W61686  40.137  11.193  14.250
89262W        W61687   6.277  41.426  11.856
89263W        W61688  29.155  16.560   0.028
89264W        W61689  37.006  13.787   1.760
89265W        W61690   3.763  26.118   4.330
89266W        W61691   6.150  15.263  14.505
89267W        W61692   7.418   6.120  13.296
89268W        W61693  13.337  26.625   3.221
89269W        W61694  10.227  32.892  14.680
89270W        W61695  11.157   5.412   0.780
89271W        W61696   5.526  34.181   2.754
89272W        W61697  39.560  19.669  12.496
89273W        W61698   9.862  15.561  11.562
89274W        W61699  27.846  29.447   3.247
89275W        W61700  21.540   6.464  14.852
89276W        W61701  41.442  18.157  10.536
89277W        W61702  32.138  26.188  13.081
89278W        W61703  11.610  20.244  14.023
89279W        W61704   5.714   9.689   0.272
89280W        W61705  39.385  29.491  12.058
89281W        W61706   1.468  37.076  13.872
89282W        W61707  44.540  21.636  12.494
89283W        W61708  38.960  34.461  13.506
89284W        W61709  36.587  17.184   3.579
89285W        W61710  10.932  35.634   0.342
89286W        W61711  38.777  43.938  10.323
89287W        W61712  25.147  10.299   2.277
89288W        W61713  31.688  31.567   1.459
89289W        W61714  44.043  12.335   4.102
89290W        W61715  41.937  14.021  13.894
89291W        W61716  15.061  39.464  11.952
89292W        W61717  43.574  40.945   2.631
89293W        W61718  41.390  44.318  11.953
89294W        W61719  16.022   4.941   1.725
89295W        W61720  40.588  38.291   1.079
89296W        W61721   9.262  20.527   0.985
89297W        W61722  24.517  28.214   0.804
89298W        W61723   7.355  35.901   2.384
89299W        W61724  38.662  12.104  14.063
89300W        W61725  17.444  24.110  12.113
89301W        W61726  39.935  44.940   3.196
89302W        W61727   3.011  28.133   2.815
89303W        W61728  26.211  35.793  12.677
89304W        W61729  19.533  17.269  10.677
89305W        W61730  44.450  36.383  11.670
89306W        W61731  13.186  23.685   3.892
89307W        W61732  16.567  28.728   2.736
89308W        W61733  44.799   7.214   0.400
89309W        W61734  14.813  27.926   3.563
89310W        W61735  18.222  12.876   4.277
89311W        W61736  21.309  41.959  11.175
89312W        W61737  11.734   5.836  14.473
89313W        W61738   2.058  41.053   1.705
89314W        W61739  29.037  20.054  13.810
89315W        W61740   5.692  16.130  14.053
89316W        W61741  19.038  22.467   3.271
89317W        W61742  23.242  39.024  11.104
89318W        W61743  25.026  43.460  12.326
89319W        W61744  27.524  24.458   3.537
89320W        W61745  12.007  44.231   5.039
89321W        W61746   4.229  37.091  14.218
89322W        W61747  14.194   3.461  10.304
89323W        W61748  42.070   0.704   1.821
89324W        W61749   6.357  24.819   4.195
89325W        W61750  24.735  38.338  13.338
89326W        W61751   2.510  12.511  13.398
89327W        W61752  41.474  30.315   1.398
89328W        W61753  39.487  41.634   4.926
89329W        W61754   4.408  38.089   1.706
89330W        W61755   3.913  21.126   4.705
89331W        W61756  27.067   7.414  11.049
89332W        W61757  33.970   4.410   0.701
89333W        W61758  12.443   5.738   2.028
89334W        W61759   1.931  38.615   1.971
89335W        W61760   0.539   1.816   4.538
89336W        W61761  30.541  43.049   2.533
89337W        W61762  10.820  30.476   2.305
89338W        W61763  29.599  43.356  10.609
89339W        W61764  18.574   2.584   0.750
89340W        W61765   4.275  23.751  13.927
89341W        W61766  40.258  12.327  12.267
89342W        W61767  38.859  34.549  11.429
89343W        W61768  41.376  22.536  12.445
89344W        W61769  35.157  18.146  12.090
89345W        W61770  30.000   6.491  14.473
89346W        W61771  17.826  10.264  10.522
89347W        W61772  23.980  11.808  12.981
89348W        W61773  43.704  31.054  12.925
89349W        W61774  16.792  22.452   4.584
89350W        W61775  42.695  27.451   2.364
89351W        W61776  23.103  24.668   2.337
89352W        W61777  29.777  38.713   0.268
89353W        W61778  37.363  37.733   2.688
89354W        W61779  10.241   8.710   3.320
89355W        W61780  27.925  19.701   0.313
89356W        W61781  17.356  30.981   3.649
89357W        W61782  28.504  24.271  11.595
89358W        W61783   4.057  21.954   0.993
89359W        W61784   2.623  20.534   0.794
89360W        W61785  35.597  18.829  12.952
89361W        W61786  21.179  32.623  12.915
89362W        W61787  36.381  43.820   3.060
89363W        W61788  36.896  44.522   3.724
89364W        W61789  13.088  34.892   4.513
89365W        W61790  32.965  28.798   3.811
89366W        W61791   2.514   9.239   3.792
89367W        W61792  42.059  20.195  11.897
89368W        W61793  17.852  10.701  11.611
89369W        W61794   5.312  15.614  12.870
89370W        W61795  41.993  41.403   0.904
89371W        W61796  28.021  14.884   1.766
89372W        W61797  13.274   4.747   2.980
89373W        W61798  40.276  21.056  14.203
89374W        W61799  28.639  22.558   2.817
89375W        W61800  29.971  24.581  13.317
89376W        W61801  23.959   8.965   1.609
89377W        W61802  36.096  25.175  11.962
89378W        W61803  22.570  12.700   2.379
89379W        W61804  34.714  33.585  10.363
89380W        W61805   4.921  27.732  14.889
89381W        W61806  18.320  43.441  13.987
89382W        W61807  19.189  41.010  12.812
89383W        W61808   2.480  41.955   1.405
89384W        W61809  29.433   2.474   0.708
89385W        W61810  32.725  26.942  12.576
89386W        W61811   7.271  10.285   4.867
89387W        W61812  16.738  25.006   4.670
89388W        W61813  21.183   9.784   1.462
89389W        W61814  23.495  28.874   4.225
89390W        W61815  18.143  42.462   1.991
89391W        W61816  25.427  43.724   1.290
89392W        W61817   8.457  37.634  11.774
89393W        W61818  30.596  31.105  12.681
89394W        W61819  41.553  10.591   0.987
89395W        W61820  11.248  34.845  14.233
89396W        W61821   9.358  40.183  10.264
89397W        W61822  22.192  15.486   3.281
89398W        W61823  40.856  23.495   4.189
89399W        W61824  16.793   7.325  11.430
89400W        W61825   6.388  35.061   2.996
89401W        W61826   1.001  37.660   1.395
89402W        W61827  24.755   1.371  12.538
89403W        W61828  18.142  33.446   2.591
89404W        W61829  41.041  38.245   3.658
89405W        W61830  27.133  33.348   2.603
89406W        W61831  30.475  27.921   1.319
89407W        W61832  18.584  19.104  13.017
89408W        W61833  28.572   5.708  10.753
89409W        W61834  19.244   4.694  13.909
89410W        W61835  10.269  17.242   2.176
89411W        W61836  32.317   0.023  11.439
89412W        W61837   9.592   8.274   3.357
89413W        W61838   3.814  11.721  12.623
89414W        W61839  32.678  30.460   3.169
89415W        W61840  26.992  36.908  12.606
89416W        W61841  30.365  18.675   3.135
89417W        W61842  31.770   8.838  10.134
89418W        W61843  37.840  28.567   1.745
89419W        W61844  24.664  32.137  10.720
89420W        W61845  40.003  20.548   3.744
89421W        W61846  39.311  34.642  12.184
89422W        W61847  16.449  40.285   1.388
89423W        W61848  37.929  44.215  10.666
89424W        W61849  42.361  33.987  12.441
89425W        W61850  21.826  24.449  12.810
89426W        W61851   6.689   7.208   0.279
89427W        W61852  26.939   4.741   2.288
89428W        W61853   5.107  25.025  13.549
89429W        W61854  38.621  25.914   4.182
89430W        W61855  13.607  32.509  13.851
89431W        W61856  27.231  39.725   2.694
89432W        W61857  31.143  11.253   4.621
89433W        W61858  28.055   2.761   0.580
89434W        W61859  15.928  40.316   1.280
89435W        W61860  38.398  33.356  11.129
89436W        W61861   4.964   1.234  13.348
89437W        W61862  15.516  10.711   4.641
89438W        W61863  43.210  22.495  10.106
89439W        W61864  15.253  39.069   0.942
89440W        W61865  27.514   4.770   0.889
89441W        W61866  28.672   1.319  11.585
89442W        W61867  14.607  39.505  13.532
89443W        W61868  22.494  32.577   3.776
89444W        W61869  28.003  32.617   9.815
89445W        W61870  40.776  23.813  12.485
89446W        W61871  41.428  35.796   3.008
89447W        W61872   4.829  27.671   0.968
89448W        W61873   2.465  15.723   4.200
89449W        W61874   1.378  27.763  11.373
89450W        W61875  30.014  34.014   3.364
89451W        W61876  23.025  35.640  12.548
89452W        W61877  25.996  20.323  10.684
89453W        W61878  44.865   5.449  13.430
89454W        W61879  35.729  25.702   9.574
89455W        W61880  11.285  30.190   4.460
89456W        W61881  24.386  34.075   3.157
89457W        W61882  34.872  18.215   2.644
89458W        W61883  42.671   3.683  13.539
89459W        W61884  32.443  40.589  12.325
89460W        W61885   5.036  31.192  11.034
89461W        W61886  30.127  39.594  11.624
89462W        W61887  35.533  13.403   2.714
89463W        W61888  31.458  40.812  11.042
89464W        W61889  14.569  41.299   4.558
89465W        W61890  13.635   0.026   0.754
89466W        W61891  26.880  23.723   0.904
89467W        W61892  29.190   1.196  14.503
89468W        W61893  32.938  22.147  10.611
89469W        W61894  23.200  10.831  14.810
89470W        W61895  39.423  33.069   3.873
89471W        W61896   8.972  33.498   2.846
89472W        W61897  38.953  19.006   3.418
89473W        W61898   3.100  36.131  14.031
89474W        W61899  28.971  35.973  10.815
89475W        W61900  33.899  31.067  12.111
89476W        W61901  39.463  24.737  12.969
89477W        W61902  14.088  15.408  13.006
89478W        W61903  31.767  23.680   3.675
89479W        W61904   9.854  20.620   3.147
89480W        W61905  32.434  32.020  10.173
89481W        W61906  38.843  19.239  12.533
89482W        W61907  26.529  14.217  12.135
89483W        W61908  32.640   1.019   1.339
89484W        W61909   8.119  14.986   4.036
89485W        W61910   6.924  36.518  11.613
89486W        W61911  33.723   9.877  13.410
89487W        W61912  34.891  13.442   3.239
89488W        W61913  35.912  23.051   3.285
89489W        W61914   6.354   6.815   2.976
89490W        W61915  39.003  35.555   2.149
89491W        W61916  31.795  14.604  10.970
89492W        W61917  13.083  24.972   1.258
89493W        W61918  30.782  23.618  14.604
89494W        W61919   5.287  22.521  11.255
89495W        W61920  41.454  21.959  14.530
89496W        W61921  13.196  11.701  12.975
89497W        W61922  24.455  43.431   3.338
89498W        W61923  34.862   3.414  11.232
89499W        W61924  13.280  41.714   2.911
89500W        W61925  32.812  29.976  14.837
89501W        W61926  31.460  38.972   4.618
89502W        W61927  14.668  27.118  10.879
89503W        W61928   8.327  34.639   3.541
89504W        W61929  37.347  28.956   4.095
89505W        W61930  16.623  25.559  10.663
89506W        W61931  17.999   6.268  13.933
89507W        W61932  39.684  19.305  11.752
89508W        W61933  33.992  14.474  12.407
89509W        W61934  19.791  18.656  13.959
89510W        W61935  22.834  33.546  11.470
89511W        W61936  13.719  16.692  13.918
89512W        W61937  13.296  17.690  11.048
89513W        W61938  13.201   3.025   1.223
89514W        W61939  43.678  14.282  11.580
89515W        W61940   4.289  36.308   1.365
89516W        W61941  38.503  34.513  14.255
89517W        W61942   2.239  42.507  12.793
89518W        W61943  22.500  42.087  12.801
89519W        W61944  16.005  10.211   2.133
89520W        W61945  16.345  14.692   1.778
89521W        W61946  37.524  11.715  13.290
89522W        W61947  11.136  35.002   1.437
89523W        W61948  17.103  10.614   2.717
89524W        W61949  40.065  31.028  13.781
89525W        W61950  32.860  40.901  14.491
89526W        W61951  28.931  25.169   2.222
89527W        W61952  44.919  44.680   1.953
89528W        W61953  36.325  27.920   1.302
89529W        W61954  14.642  22.058   0.243
89530W        W61955  13.033  34.363  11.088
89531W        W61956  13.137  13.266   0.875
89532W        W61957  13.874  28.166   3.831
89533W        W61958  28.077  26.991   1.814
89534W        W61959  44.894  41.369  12.037
89535W        W61960  26.130  26.607   0.456
89536W        W61961   2.322  26.401  10.182
89537W        W61962  44.598  39.475   4.486
89538W        W61963  36.081   5.148   3.326
89539W        W61964  30.433  20.328  14.949
89540W        W61965   4.760  31.683  13.997
89541W        W61966   0.442  14.229   3.585
89542W        W61967   1.812  43.404  11.597
89543W        W61968  15.328  15.752  13.051
89544W        W61969  22.693  19.236   1.791
89545W        W61970  28.112  24.070  13.109
89546W        W61971  15.619  25.016  13.895
89547W        W61972  17.665  22.249   3.357
89548W        W61973  37.002  39.456  12.976
89549W        W61974  19.517  37.481  10.996
89550W        W61975  24.996  16.285  12.564
89551W        W61976  24.777   7.876  14.504
89552W        W61977   2.720   4.250   3.140
89553W        W61978  18.937  10.264   2.985
89554W        W61979  44.409  16.996  11.028
89555W        W61980  42.322  13.734  12.346
89556W        W61981  39.040  32.040   2.414
89557W        W61982  44.940   8.946   1.187
89558W        W61983  25.074  35.564   4.887
89559W        W61984  11.220  14.399  11.889
89560W        W61985  23.514  43.262   4.483
89561W        W61986  40.055  44.738   4.699
89562W        W61987  32.646  12.630  12.516
89563W        W61988  25.553   8.310   3.428
89564W        W61989  42.474   4.825  12.450
89565W        W61990  11.243  41.626   1.987
89566W        W61991  32.078   6.898   0.685
89567W        W61992   0.407   1.477  14.555
89568W        W61993  18.071  10.183   4.940
89569W        W61994  34.857  32.962   0.755
89570W        W61995   6.390  11.870   5.090
89571W        W61996  24.677  11.159  13.824
89572W        W61997  40.498  22.643  13.327
89573W        W61998  17.283   7.839  11.989
89574W        W61999  31.829  29.761   5.228
89575W        W62000  43.567  39.634   3.751
89576W        W62001   2.539  10.792  13.895
89577W        W62002  15.134  34.075  11.880
89578W        W62003  42.450  18.603  14.440
89579W        W62004  28.734  39.365  13.208
89580W        W62005   1.357  34.131   1.853
89581W        W62006  14.866   8.552   0.909
89582W        W62007  41.738  33.212   3.973
89583W        W62008  19.111   0.472   1.827
89584W        W62009  14.486   1.921   0.922
89585W        W62010   0.843  37.565   9.765
89586W        W62011  28.682  19.259  13.439
89587W        W62012  20.627  34.348   4.059
89588W        W62013  17.353  20.530   0.342
89589W        W62014   9.385  26.498   3.408
89590W        W62015  28.970   8.801  12.932
89591W        W62016  31.196   1.180   4.587
89592W        W62017   1.483  22.799  11.968
89593W        W62018  44.555   1.283   2.077
89594W        W62019   5.915   7.870  14.398
89595W        W62020   3.978  23.688  13.161
89596W        W62021  18.382  29.285  10.717
89597W        W62022  10.112  11.414   0.756
89598W        W62023  16.770  33.966  10.552
89599W        W62024  35.908  25.969  13.578
89600W        W62025  42.334  40.457  14.860
89601W        W62026   0.277  43.687   0.195
89602W        W62027   3.768  31.706  13.815
89603W        W62028  28.715  39.876   2.732
89604W        W62029  31.580  29.354  12.548
89605W        W62030  27.078  29.924   4.011
89606W        W62031  42.048  36.041  12.995
89607W        W62032  12.597  23.776   2.278
89608W        W62033  16.056  28.182   3.346
89609W        W62034  35.774  13.496   3.458
89610W        W62035  29.138  11.996   3.364
89611W        W62036  23.048  33.725  10.221
89612W        W62037  18.816  28.894  12.131
89613W        W62038  25.661   5.708   0.910
89614W        W62039  37.314  27.492  12.007
89615W        W62040  13.897  16.342   0.444
89616W        W62041  17.032   7.840  10.692
89617W        W62042   4.770  29.936  13.078
89618W        W62043  35.324   3.664   1.858
89619W        W62044  26.131  36.896   1.903
89620W        W62045   1.266  27.665   3.667
89621W        W62046  15.797  14.137  13.128
89622W        W62047  44.838   4.872  11.080
89623W        W62048   7.153  38.607   2.681
89624W        W62049  29.998  15.184  12.001
89625W        W62050  42.986  11.241   0.831
89626W        W62051  12.326  20.546  11.502
89627W        W62052  32.862  18.127  13.417
89628W        W62053  20.439  32.338   4.188
89629W        W62054   1.339  26.244  13.246
89630W        W62055  42.492  33.192   3.283
89631W        W62056  39.974  24.342  11.647
89632W        W62057  40.563  18.487  11.945
89633W        W62058  38.756   8.165  11.910
89634W        W62059   6.773  15.287  13.879
89635W        W62060   0.822  41.728   4.724
89636W        W62061  31.304  22.705   3.532
89637W        W62062  11.838   9.797   1.640
89638W        W62063  27.830  36.982   2.304
89639W        W62064   0.839  35.143   3.545
89640W        W62065  41.775  42.173   4.612
89641W        W62066  33.694  43.051   2.607
89642W        W62067  26.516  15.300  11.143
89643W        W62068   2.778  44.835  10.669
89644W        W62069  19.211  12.252   3.379
89645W        W62070  14.614  13.219   3.873
89646W        W62071  11.728  42.061  11.223
89647W        W62072  21.745  11.028  13.838
89648W        W62073   6.124   5.724   2.892
89649W        W62074  19.558  17.315   2.879
89650W        W62075  26.576   5.040   4.048
89651W        W62076  17.202  41.586  13.347
89652W        W62077   9.626  43.689  13.756
89653W        W62078  14.847   4.254  12.187
89654W        W62079  12.055  11.603   0.505
89655W        W62080  35.688   5.363   1.447
89656W        W62081  30.372  26.667   0.295
89657W        W62082  24.414   8.707  14.554
89658W        W62083  15.850  33.107   1.347
89659W        W62084  31.080  38.254  10.627
89660W        W62085   5.150  30.666   4.134
89661W        W62086  42.157  12.501  14.443
89662W        W62087   3.013  11.817  14.353
89663W        W62088  11.992  37.471  13.407
89664W        W62089  18.719  42.327   3.735
89665W        W62090  34.560   7.600  10.972
89666W        W62091  44.617  29.718   1.284
89667W        W62092   6.516   4.930   1.716
89668W        W62093  24.574   4.139   3.122
89669W        W62094   0.931  19.244   3.627
89670W        W62095  23.956   0.299  10.565
89671W        W62096  10.095  29.492  10.254
89672W        W62097   8.536  23.768  11.057
89673W        W62098  29.603   6.231   3.602
89674W        W62099  12.293  16.185  11.835
89675W        W62100  14.776  38.619  13.266
89676W        W62101   2.262  14.270  14.048
89677W        W62102  37.399   0.758   0.155
89678W        W62103  10.340   0.553   2.973
89679W        W62104  24.065  28.181   3.879
89680W        W62105  36.550  42.835  12.561
89681W        W62106  22.758  10.427   3.236
89682W        W62107  14.204  43.456  10.699
89683W        W62108  12.583  30.266   3.759
89684W        W62109  25.212   3.737  11.996
89685W        W62110   8.981   5.308  14.352
89686W        W62111   0.378  33.450  14.440
89687W        W62112  17.733  23.049   2.758
89688W        W62113   6.835   5.635   0.739
89689W        W62114   5.638  40.931  13.435
89690W        W62115  19.642  17.590  12.483
89691W        W62116  29.799  22.271  12.651
89692W        W62117  24.273  11.803   3.837
89693W        W62118  15.854  26.520   1.133
89694W        W62119  18.718   3.599  14.909
89695W        W62120   0.140  21.080   3.283
89696W        W62121  18.643   1.781   1.840
89697W        W62122   1.026  36.331  13.858
89698W        W62123  43.054   4.263  12.064
89699W        W62124  24.902  19.759   0.260
89700W        W62125  27.430   9.784  12.161
89701W        W62126   0.764  23.551  14.328
89702W        W62127   6.675  27.730  12.106
89703W        W62128   2.271  32.832  12.128
89704W        W62129   4.842  25.069  10.930
89705W        W62130  40.068  21.958  13.397
89706W        W62131  11.872  32.119   2.355
89707W        W62132  33.896  15.865   4.735
89708W        W62133  12.835  30.210   2.404
89709W        W62134  15.221  36.979   3.369
89710W        W62135   5.159  44.414  12.871
89711W        W62136   2.797  10.045   2.243
89712W        W62137  28.873  40.472  10.961
89713W        W62138   9.200  19.127  12.368
89714W        W62139  40.133  10.065   2.359
89715W        W62140   0.716  15.155   3.233
89716W        W62141  43.794  21.067   0.254
89717W        W62142  12.587  18.626   3.898
89718W        W62143   8.724  39.322   2.352
89719W        W62144  25.519  22.784   4.112
89720W        W62145  25.467  27.634  10.422
89721W        W62146   0.981   0.436   3.823
89722W        W62147  11.518  26.280   4.065
89723W        W62148  13.160  24.252   5.224
89724W        W62149   4.643  35.599  14.356
89725W        W62150  14.835  44.851  10.895
89726W        W62151   5.356   3.401  12.590
89727W        W62152  39.846   8.207  11.220
89728W        W62153  36.832   6.500  10.813
89729W        W62154  37.058  42.570   0.844
89730W        W62155  18.518  39.087   0.267
89731W        W62156  26.640  42.228  12.975
89732W        W62157   5.814  37.345   0.838
89733W        W62158  20.717  21.960  13.500
89734W        W62159  10.877  16.981  11.679
89735W        W62160  12.284  30.698  11.120
89736W        W62161  14.857  44.344  13.776
89737W        W62162  41.302  23.059  12.516
89738W        W62163  21.976  29.372  12.885
89739W        W62164   5.005   0.844   4.078
89740W        W62165  22.178   7.092  11.917
89741W        W62166  38.105   2.197  13.053
89742W        W62167  26.778   1.799  14.956
89743W        W62168  20.330  39.305  14.978
89744W        W62169  24.173  36.996  13.500
89745W        W62170  12.591  17.369  10.729
89746W        W62171  21.319   1.343  13.113
89747W        W62172  41.863  31.398   0.829
89748W        W62173  14.098  30.971  12.871
89749W        W62174  33.953   2.983   1.256
89750W        W62175  21.761  20.680   4.295
89751W        W62176  39.795  11.202   1.324
89752W        W62177   8.856   3.787   2.753
89753W        W62178  18.551  22.621  14.219
89754W        W62179   4.010  17.097   2.713
89755W        W62180  31.151  34.322   1.620
89756W        W62181  12.670   1.453  11.326
89757W        W62182  35.083  14.433  12.016
89758W        W62183   4.852  11.630   1.433
89759W        W62184   5.969   6.345  11.327
89760W        W62185  22.597  29.498  14.376
89761W        W62186  28.093  44.832  13.943
89762W        W62187  39.943  16.267  14.057
89763W        W62188  33.341  15.554  13.580
89764W        W62189  37.816  37.915   2.845
89765W        W62190  18.124  24.325  12.045
89766W        W62191  40.439  15.599  11.386
89767W        W62192  11.772  22.549  11.472
89768W        W62193  42.729  18.246   0.856
89769W        W62194  44.793   7.437   4.564
89770W        W62195  38.864  18.567   3.691
89771W        W62196   4.181  18.427   0.519
89772W        W62197  30.921   4.194   1.760
89773W        W62198  33.631  10.476   4.162
89774W        W62199  34.077   4.960  12.161
89775W        W62200  10.954  27.131  14.424
89776W        W62201  33.617  24.560   3.644
89777W        W62202  15.862   0.048  13.359
89778W        W62203  29.040  22.805  13.558
89779W        W62204  13.129   8.212   4.310
89780W        W62205   4.709  41.989   4.582
89781W        W62206  10.999  22.785  10.403
89782W        W62207  10.682  29.417  13.440
89783W        W62208   2.908   7.474  12.937
89784W        W62209  30.325  35.079  13.009
89785W        W62210  17.347  17.604  12.344
89786W        W62211  34.373  42.818  11.191
89787W        W62212  24.029   4.675  10.234
89788W        W62213   0.872  40.917  13.782
89789W        W62214  31.411  40.486   3.793
89790W        W62215   6.857  20.714  11.166
89791W        W62216   8.984   8.887  14.209
89792W        W62217  41.775  15.744   3.117
89793W        W62218  38.692  30.090  12.113
89794W        W62219  21.254   5.167   1.669
89795W        W62220  32.106  19.279  12.143
89796W        W62221   2.311   2.689  14.419
89797W        W62222  34.465   7.664   2.794
89798W        W62223   2.831   7.185  10.670
89799W        W62224  15.634  14.297  14.936
89800W        W62225  32.413  43.986   0.379
89801W        W62226  43.738  17.166   2.439
89802W        W62227   0.335   1.449  11.208
89803W        W62228  31.440  32.620  14.196
89804W        W62229  35.195  18.187   3.774
89805W        W62230   8.627  15.158   4.021
89806W        W62231  32.204  41.719  11.170
89807W        W62232  40.353  31.689  12.007
89808W        W62233  36.584  20.007  14.391
89809W        W62234  17.115  26.433   0.684
89810W        W62235  16.327  15.465  11.672
89811W        W62236   0.452  41.242   1.978
89812W        W62237  38.660  30.064  14.586
89813W        W62238  26.346  27.777  13.020
89814W        W62239  18.028  19.491  10.680
89815W        W62240  12.577  13.739  10.451
89816W        W62241   8.367  37.478  10.239
89817W        W62242   9.735  36.218  12.803
89818W        W62243   7.448   2.214  13.048
89819W        W62244  13.232  40.039   3.795
89820W        W62245  19.341  32.013   4.722
89821W        W62246   6.754  42.443   1.298
89822W        W62247  40.332   0.345   1.970
89823W        W62248  40.073  19.144  13.053
89824W        W62249  26.438  24.196   1.724
89825W        W62250  10.329  21.765  13.561
89826W        W62251   1.458  32.050  13.479
89827W        W62252  23.998   7.230  13.833
89828W        W62253   9.788  37.614   4.597
89829W        W62254  28.115   8.870   3.649
89830W        W62255   9.885  42.050  11.631
89831W        W62256  20.830  23.798  13.676
89832W        W62257  21.491  36.893  13.391
89833W        W62258  27.672  33.886   1.519
89834W        W62259  24.936  22.626   3.556
89835W        W62260   6.803   7.172  12.459
89836W        W62261  25.507  11.357  11.477
89837W        W62262  27.740   7.719  13.874
89838W        W62263  16.556  43.002  11.587
89839W        W62264   2.903  22.319   0.356
89840W        W62265  21.598  36.599   3.192
89841W        W62266  38.109  28.028  13.525
89842W        W62267  33.411   5.353  14.861
89843W        W62268  18.480  44.865  14.426
89844W        W62269  13.112   2.014  14.818
89845W        W62270  26.158  42.299   3.878
89846W        W62271   6.935  16.401  12.452
89847W        W62272  22.020  36.233  13.935
89848W        W62273  27.966  14.008   1.898
89849W        W62274  17.333  34.008  13.484
89850W        W62275  22.677  28.301  12.974
89851W        W62276   5.715  38.253  11.629
89852W        W62277  24.199  26.290   4.457
89853W        W62278  17.732  14.278   0.314
89854W        W62279  12.291  38.795   3.192
89855W        W62280   9.691  10.970   0.455
89856W        W62281  13.241  15.697   2.850
89857W        W62282   2.069  13.220  13.037
89858W        W62283  10.451   8.886   2.876
89859W        W62284   6.857   9.259   2.482
89860W        W62285   3.669   3.242  13.887
89861W        W62286  41.817  34.568   1.048
89862W        W62287  11.854  21.892   2.979
89863W        W62288  24.368   4.217  14.361
89864W        W62289  38.541  28.785  14.998
89865W        W62290  35.950  29.704  14.421
89866W        W62291  19.594  11.850  11.428
89867W        W62292  26.607   2.839  11.671
89868W        W62293  37.343   4.452  14.441
89869W        W62294  23.130  13.258   4.560
89870W        W62295  28.427  21.955   2.186
89871W        W62296  37.606  41.792   2.830
89872W        W62297  18.244  22.132  14.255
89873W        W62298  16.069  17.591  11.100
89874W        W62299   8.298  11.279   4.648
89875W        W62300  42.848  25.018  14.298
89876W        W62301  10.639  18.766   0.059
89877W        W62302  22.166  37.406  11.843
89878W        W62303  10.779  22.346   4.498
89879W        W62304  20.485  43.813   4.094
89880W        W62305   4.634  23.039  12.560
89881W        W62306  15.735  26.817   3.725
89882W        W62307  19.609  19.154  10.634
89883W        W62308  38.831  20.755  10.465
89884W        W62309  23.586  10.018   3.129
89885W        W62310  44.336  15.955   3.798
89886W        W62311  28.444  22.147   3.591
89887W        W62312  42.284   9.246   0.732
89888W        W62313   2.708  34.652   1.333
89889W        W62314  21.292  18.122   4.084
89890W        W62315  10.348  25.732  12.530
89891W        W62316  21.647  19.677   4.057
89892W        W62317  23.025  18.308   1.798
89893W        W62318  30.640  26.427   3.723
89894W        W62319  44.906  24.956   2.306
89895W        W62320  29.387   1.992   2.834
89896W        W62321   8.003  37.974   0.937
89897W        W62322   7.316  20.117  14.816
89898W        W62323  11.212  31.183  14.344
89899W        W62324  34.531   4.575   1.824
89900W        W62325  19.567  37.106   0.317
89901W        W62326  42.589  38.480   1.336
89902W        W62327  40.370  30.017   1.488
89903W        W62328  19.129   3.412  13.324
89904W        W62329  14.543  44.918   0.721
89905W        W62330  11.092   6.765  13.471
89906W        W62331  19.426  38.367  11.104
89907W        W62332   6.443  21.185  14.408
89908W        W62333  25.650   4.879   2.087
89909W        W62334  33.412  13.049  12.532
89910W        W62335  27.609  35.246  14.917
89911W        W62336  28.896   0.886   2.556
89912W        W62337  23.043  23.993  10.112
89913W        W62338  21.010  34.436  11.097
89914W        W62339  19.285  21.609   1.274
89915W        W62340  40.289   5.436  14.421
89916W        W62341  44.517  20.531   1.508
89917W        W62342  16.811  24.006   0.279
89918W        W62343   9.921  40.966   4.982
89919W        W62344  35.537  29.632  13.069
89920W        W62345  13.993  36.468   2.684
89921W        W62346  39.517  14.894  13.448
89922W        W62347   4.840  42.777   1.246
89923W        W62348  18.211  40.432   3.601
89924W        W62349  23.592  12.268   4.906
89925W        W62350   5.120  44.630   4.390
89926W        W62351   2.541   7.860  12.028
89927W        W62352  38.342  42.058   1.410
89928W        W62353   3.198  22.200   3.347
89929W        W62354  35.490  29.493   0.457
89930W        W62355  22.247  10.640  13.943
89931W        W62356  43.575  16.209  12.866
89932W        W62357  25.914   4.259  12.465
89933W        W62358  16.317  10.328  10.164
89934W        W62359  30.989  17.834  10.562
89935W        W62360  42.506   4.593   4.758
89936W        W62361  29.195  28.096  13.491
89937W        W62362  28.513  18.374  11.250
89938W        W62363  32.084  35.390  12.954
89939W        W62364  27.965  24.966   2.262
89940W        W62365  22.148   7.153  11.101
89941W        W62366  30.890  20.509  14.821
89942W        W62367   9.778  16.550  13.317
89943W        W62368   4.703  39.784   0.003
89944W        W62369  41.532   7.554  11.598
89945W        W62370  21.756  14.604   1.851
89946W        W62371  39.153  11.294  13.067
89947W        W62372  16.554  44.672   3.149
89948W        W62373  19.023  43.581   0.453
89949W        W62374   7.128  16.021   1.488
89950W        W62375  29.501  44.988  13.016
89951W        W62376  16.815   0.726   1.834
89952W        W62377  22.240  16.794  11.455
89953W        W62378  33.935  26.277   1.517
89954W        W62379  27.674   1.534   4.578
89955W        W62380  36.404  43.727  14.088
89956W        W62381  14.667  36.367  12.968
89957W        W62382  31.107  19.833  11.869
89958W        W62383  16.157  39.860   4.690
89959W        W62384  10.349  37.530  14.818
89960W        W62385  13.725   9.932   0.988
89961W        W62386  40.450  43.795   2.844
89962W        W62387  32.445  21.680  12.626
89963W        W62388  31.958  18.229   0.383
89964W        W62389  39.858  25.126  11.552
89965W        W62390  17.843  21.707  13.476
89966W        W62391  16.105  15.839   0.397
89967W        W62392  13.846  32.375  11.896
89968W        W62393  43.683  22.084  14.282
89969W        W62394   3.231  19.119  13.746
89970W        W62395  34.881  31.664   4.144
89971W        W62396   2.640  20.244   1.236
89972W        W62397   0.775  12.896   3.801
89973W        W62398   3.745  44.035   4.480
89974W        W62399   3.749  25.975   2.876
89975W        W62400  30.583  12.285  10.411
89976W        W62401  28.741  25.054   4.693
89977W        W62402  22.985   5.402   0.855
89978W        W62403  33.085  14.863   3.680
89979W        W62404  42.491   8.772  13.328
89980W        W62405  20.303  13.211  13.986
89981W        W62406  17.258  41.925   0.666
89982W        W62407   9.037  25.076   3.796
89983W        W62408  25.044  12.880   3.277
89984W        W62409   4.451  14.186  14.307
89985W        W62410   6.792   1.916  14.351
89986W        W62411  32.901  44.718  10.732
89987W        W62412  32.287  16.161   5.053
89988W        W62413  41.521   7.664   1.521
89989W        W62414  33.485  38.469   4.153
89990W        W62415  13.870  18.745   1.242
89991W        W62416  27.565  42.388  13.857
89992W        W62417  19.686  25.926  11.616
89993W        W62418  17.584  27.949   4.132
89994W        W62419   4.157  36.587  10.677
89995W        W62420  26.914  39.051   0.017
89996W        W62421  38.361  23.931  13.317
89997W        W62422  34.654  32.540   2.853
89998W        W62423  43.641  35.325   2.197
89999W        W62424  38.783  20.598   2.209
90000W        W62425  26.729  29.713   4.642
90001W        W62426  34.054  39.500  11.370
90002W        W62427  15.159  39.642  12.448
90003W        W62428  41.787  37.443  12.035
90004W        W62429  19.331  29.088   0.210
90005W        W62430   3.324   0.988  12.149
90006W        W62431  11.943  43.892   3.752
90007W        W62432  14.763  16.332  12.392
90008W        W62433  28.463  42.913  13.600
90009W        W62434  40.108  22.547   0.755
90010W        W62435  30.090  32.585   2.299
90011W        W62436   8.444  29.588  13.509
90012W        W62437  35.588  39.735   4.104
90013W        W62438  35.476  31.919   2.125
90014W        W62439  43.738  35.189  11.946
90015W        W62440   5.622  41.098   3.834
90016W        W62441  38.469   2.379   2.360
90017W        W62442  18.036  40.312   1.287
90018W        W62443   1.124   1.360  10.615
90019W        W62444  37.116  32.402   3.112
90020W        W62445  42.477  31.735   0.519
90021W        W62446   0.602  37.434  10.236
90022W        W62447  31.163  36.601  14.410
90023W        W62448  35.254  19.586   4.700
90024W        W62449  19.630  30.851   3.820
90025W        W62450  27.096   2.153  10.695
90026W        W62451  17.594  13.874  12.900
90027W        W62452   2.285  13.681   1.313
90028W        W62453   5.282   6.430   0.141
90029W        W62454  44.662  18.203   4.620
90030W        W62455   8.268  11.463   0.068
90031W        W62456   4.546  25.090   1.724
90032W        W62457  44.905  29.850  12.087
90033W        W62458  15.099  14.828  11.586
90034W        W62459   6.956  27.278   2.232
90035W        W62460  17.679  36.544   1.251
90036W        W62461   1.486  36.394  14.539
90037W        W62462  26.959  16.216   1.521
90038W        W62463  37.487   4.333  10.715
90039W        W62464  11.406   3.991  14.810
90040W        W62465  19.996  14.511  13.400
90041W        W62466  27.623  42.401   4.671
90042W        W62467  27.035   2.312   4.157
90043W        W62468  15.029  38.340  11.825
90044W        W62469  39.943  25.197   4.142
90045W        W62470  24.404  26.776  12.961
90046W        W62471   5.348  20.214  11.650
90047W        W62472  33.038  29.527  10.933
90048W        W62473   6.618  32.018  10.780
90049W        W62474  35.280  12.848  11.886
90050W        W62475  41.474  14.655  12.449
90051W        W62476  21.436  35.886   2.827
90052W        W62477  41.381  34.527   0.199
90053W        W62478  14.667  33.338  12.059
90054W        W62479  28.191   6.964  10.695
90055W        W62480  38.863  24.660  13.937
90056W        W62481  41.914   9.181   3.647
90057W        W62482  30.940  26.071  11.358
90058W        W62483  29.887   5.382   2.233
90059W        W62484  37.509   7.781   4.917
90060W        W62485  33.394   0.016  10.746
90061W        W62486  13.260  23.620  12.289
90062W        W62487  11.684  19.144   2.850
90063W        W62488  35.656  32.973  12.998
90064W        W62489  26.491  26.496  13.351
90065W        W62490  36.514  23.262  12.610
90066W        W62491   3.843  13.775  14.746
90067W        W62492  39.405  30.363  13.318
90068W        W62493  42.901   7.095   0.095
90069W        W62494  40.085  26.211   4.185
90070W        W62495  26.483  12.732   2.309
90071W        W62496   7.664   9.804   4.142
90072W        W62497  23.995  40.489   3.316
90073W        W62498  16.704   9.396   1.237
90074W        W62499  16.040  37.277   3.641
90075W        W62500  24.655  10.234   2.018
90076W        W62501   6.348   2.447   2.699
90077W        W62502  35.709  39.059   2.227
90078W        W62503   2.742  27.492  11.212
90079W        W62504   4.160  38.280   1.271
90080W        W62505  16.095  28.380   2.090
90081W        W62506  15.011  13.113   0.543
90082W        W62507  17.159  35.402   3.559
90083W        W62508   1.023   5.651  12.953
90084W        W62509  32.381  26.896   0.162
90085W        W62510  38.998  38.790   0.987
90086W        W62511  17.103  40.436  13.837
90087W        W62512   8.294  27.573  13.961
90088W        W62513  19.853   3.408  14.047
90089W        W62514  19.734  30.661   0.913
90090W        W62515  31.494  36.918   1.636
90091W        W62516   0.266   1.260  12.071
90092W        W62517  27.263  22.608  10.886
90093W        W62518  22.626  26.793  10.698
90094W        W62519  13.898  30.323  11.812
90095W        W62520   9.321  13.851   4.990
90096W        W62521  34.191   6.833  10.672
90097W        W62522  31.834  11.861  12.979
90098W        W62523   7.884  28.086  11.143
90099W        W62524   6.064  35.344   4.511
90100W        W62525  30.715  21.960  12.610
90101W        W62526  11.148   4.733   2.746
90102W        W62527  35.196  43.329  12.963
90103W        W62528  19.624  10.017  10.220
90104W        W62529  43.924  35.015   0.372
90105W        W62530  24.018  40.875   3.669
90106W        W62531   5.244  10.933  11.976
90107W        W62532  12.738  35.854  13.582
90108W        W62533  22.095  10.896  10.282
90109W        W62534  29.832  19.061   4.242
90110W        W62535  23.459  22.217   3.556
90111W        W62536  11.277  27.380  10.642
90112W        W62537  27.960  42.765   3.781
90113W        W62538  22.826   0.758  11.565
90114W        W62539   7.340  21.281  12.983
90115W        W62540   3.813  36.060  10.558
90116W        W62541  42.086   5.897   3.209
90117W        W62542  39.833  13.403   4.085
90118W        W62543  41.610   0.287   0.547
90119W        W62544  35.515  35.144   2.924
90120W        W62545  18.541  30.442   1.625
90121W        W62546   5.553   8.868  12.974
90122W        W62547   6.863  28.620   1.786
90123W        W62548  43.328  30.109  11.155
90124W        W62549  12.220  15.678   3.316
90125W        W62550  41.764  41.256  11.477
90126W        W62551   5.744  40.946  10.603
90127W        W62552   9.115   5.799  11.123
90128W        W62553  42.886  38.075   2.656
90129W        W62554  20.175  10.855   2.293
90130W        W62555   6.440  24.563  13.256
90131W        W62556  27.148   8.175   4.353
90132W        W62557  17.210  12.397  10.224
90133W        W62558  40.059  15.562   3.281
90134W        W62559  19.655  44.345   3.993
90135W        W62560  39.871  26.748   0.804
90136W        W62561  21.500  43.047  14.542
90137W        W62562  28.333   4.788   1.312
90138W        W62563  33.625   1.685   1.766
90139W        W62564  13.583  24.166   3.768
90140W        W62565  32.003  11.102   2.694
90141W        W62566  28.704  10.889  13.554
90142W        W62567  40.072  18.039   3.533
90143W        W62568  15.768  18.650  12.942
90144W        W62569  42.834  30.080   0.930
90145W        W62570  19.470  13.111  12.451
90146W        W62571   0.226  30.063   0.778
90147W        W62572  17.068   4.288  14.962
90148W        W62573  19.619   8.129   2.770
90149W        W62574   7.358  23.516  14.912
90150W        W62575   3.700  22.648  11.626
90151W        W62576   9.342   4.994  11.632
90152W        W62577  40.301  36.373   3.745
90153W        W62578   0.251  36.526   3.460
90154W        W62579  43.219  40.049  11.185
90155W        W62580   9.162  34.519  12.167
90156W        W62581  18.031  41.958   3.189
90157W        W62582  22.305  24.726   2.926
90158W        W62583  13.082  32.150   4.547
90159W        W62584   5.431   3.426   0.316
90160W        W62585   7.667  24.003  14.886
90161W        W62586  37.136  22.654  12.792
90162W        W62587  20.221  15.695  12.859
90163W        W62588  13.601  34.975   1.852
90164W        W62589  24.743   7.267   0.249
90165W        W62590  17.727  43.273  11.091
90166W        W62591  24.346   8.971   1.278
90167W        W62592  15.464  23.259   9.888
90168W        W62593  22.612  39.858  13.466
90169W        W62594  37.957  37.586  10.933
90170W        W62595  41.748  26.574   4.489
90171W        W62596   1.829  14.514  11.035
90172W        W62597  32.167   9.343   2.197
90173W        W62598  13.874   9.598  11.135
90174W        W62599  44.873  31.530   0.745
90175W        W62600  15.084  14.771  12.599
90176W        W62601  41.804  19.328  12.219
90177W        W62602   9.514  10.707  11.987
90178W        W62603  17.635  26.501   3.753
90179W        W62604  35.808  12.869   0.765
90180W        W62605  42.475  32.051  14.107
90181W        W62606  30.991  21.995   4.665
90182W        W62607  42.999  33.635   2.791
90183W        W62608  37.504  34.901  12.160
90184W        W62609   0.691  32.214   4.603
90185W        W62610  20.143  20.740   1.856
90186W        W62611  38.424  40.644   4.898
90187W        W62612  22.540  41.854   0.389
90188W        W62613  16.533  33.927  13.880
90189W        W62614  32.066   3.068  12.157
90190W        W62615  14.086  28.127  11.540
90191W        W62616  36.391  44.795  12.555
90192W        W62617  33.895   4.993   4.360
90193W        W62618  26.626  41.883  11.953
90194W        W62619  13.185  34.627   2.227
90195W        W62620  26.024  14.751  12.488
90196W        W62621  44.011  21.125   9.665
90197W        W62622   2.050  37.416   1.499
90198W        W62623  38.891   1.463  12.437
90199W        W62624  43.570  16.029  14.211
90200W        W62625  13.569  15.318   1.849
90201W        W62626  26.129  31.026   5.135
90202W        W62627  26.493  23.729  11.169
90203W        W62628  36.366  20.100  14.850
90204W        W62629   4.180  14.233   3.833
90205W        W62630  22.123  29.219  10.819
90206W        W62631  33.401  41.370   3.664
90207W        W62632  42.458  19.531   2.919
90208W        W62633   0.777  33.116  11.515
90209W        W62634   0.987   5.395   1.919
90210W        W62635  13.449  37.421   2.223
90211W        W62636  14.139  25.582  14.476
90212W        W62637  37.992   4.179  14.838
90213W        W62638  37.253  38.500  11.662
90214W        W62639  33.145   2.410   1.534
90215W        W62640  12.422  11.347  14.414
90216W        W62641   9.587  31.104   0.518
90217W        W62642  42.154  22.185   4.354
90218W        W62643  32.833  25.115   3.755
90219W        W62644   4.900   1.772   3.811
90220W        W62645  21.980  23.236   4.196
90221W        W62646  38.752  15.129  12.479
90222W        W62647  27.023  38.846  12.485
90223W        W62648  43.487  30.420   2.971
90224W        W62649   3.006   7.720   1.345
90225W        W62650   3.689  40.490   4.162
90226W        W62651  43.452  16.314  13.351
90227W        W62652  16.806  10.845  14.879
90228W        W62653  34.851  37.581   1.842
90229W        W62654   6.897  15.876  11.554
90230W        W62655  37.828  30.022   3.762
90231W        W62656  11.242  33.376  11.018
90232W        W62657  42.457  13.110  11.246
90233W        W62658   6.246   2.694   4.559
90234W        W62659  12.121   9.788   4.089
90235W        W62660   4.182  23.588   2.365
90236W        W62661   6.811   0.788  14.709
90237W        W62662   8.591   1.199  12.475
90238W        W62663  15.357   3.019  12.427
90239W        W62664  13.360  19.196   3.108
90240W        W62665  16.872  29.547   3.633
90241W        W62666   2.964  35.625  13.968
90242W        W62667  33.928  22.518   3.820
90243W        W62668  31.333  11.345   1.160
90244W        W62669  37.765   4.759  10.961
90245W        W62670  36.874  20.309   1.704
90246W        W62671  22.646   6.704  12.758
90247W        W62672   1.281  20.748  11.280
90248W        W62673  26.333  36.548   4.196
90249W        W62674   4.786   0.736   1.835
90250W        W62675  18.346  41.125  12.469
90251W        W62676  24.180   5.763  14.278
90252W        W62677   6.230  32.123   9.762
90253W        W62678  43.985  26.211  13.421
90254W        W62679   4.919  20.961   2.341
90255W        W62680   9.343  24.479  13.386
90256W        W62681  33.978  10.312  13.876
90257W        W62682   9.467  18.647   0.874
90258W        W62683   4.663  14.119   1.215
90259W        W62684  35.256  40.312   3.310
90260W        W62685   9.835  37.292  13.975
90261W        W62686  27.898  37.846   1.904
90262W        W62687  13.726  29.435  11.752
90263W        W62688  28.645  10.370   4.488
90264W        W62689  32.855  25.590   3.161
90265W        W62690  39.820   0.206  11.249
90266W        W62691  31.514  11.677  13.380
90267W        W62692  25.011  23.976   3.638
90268W        W62693  27.473  30.519   1.674
90269W        W62694  31.813  32.949  14.299
90270W        W62695   6.783   4.667   4.179
90271W        W62696   2.255  21.102   4.568
90272W        W62697  21.546  20.105   2.773
90273W        W62698  39.393   3.996  13.005
90274W        W62699   2.027  24.225  13.061
90275W        W62700   5.266  28.463   0.845
90276W        W62701   5.903  24.568   4.149
90277W        W62702  25.006  37.912  14.020
90278W        W62703  11.407  18.066  14.831
90279W        W62704  11.409   6.204   0.284
90280W        W62705  30.930   5.216  12.598
90281W        W62706  11.838  44.030   3.266
90282W        W62707  18.186  24.506   0.984
90283W        W62708  33.693   0.704   2.857
90284W        W62709  17.357   1.721   4.948
90285W        W62710   2.997   4.240   4.461
90286W        W62711  31.169  16.216  13.560
90287W        W62712  24.077  40.923   0.465
90288W        W62713  42.487  18.505  11.094
90289W        W62714  24.014   0.772   0.909
90290W        W62715  28.772  25.705  11.342
90291W        W62716  39.447  10.445   0.818
90292W        W62717   7.367  23.577   3.234
90293W        W62718   8.671  36.823  13.115
90294W        W62719  40.747  41.462   1.515
90295W        W62720   2.201  39.065   1.889
90296W        W62721   9.869  25.057   4.224
90297W        W62722   7.125  25.403  13.529
90298W        W62723  41.229   9.509   3.752
90299W        W62724   4.288  13.609  11.188
90300W        W62725  42.278  24.088   2.852
90301W        W62726  30.922  10.644  14.365
90302W        W62727  11.324  10.532   1.748
90303W        W62728  44.832  31.654   3.745
90304W        W62729  29.123  12.601   4.182
90305W        W62730  37.376   6.023   1.486
90306W        W62731  12.016  44.788  12.187
90307W        W62732  36.597  35.700  14.848
90308W        W62733  31.123  19.621  12.369
90309W        W62734  43.419  13.840   1.756
90310W        W62735   2.461  38.132   3.503
90311W        W62736  26.189  39.974   2.222
90312W        W62737  14.342  16.698  11.054
90313W        W62738   5.816  21.961  10.674
90314W        W62739  38.797  19.672  13.920
90315W        W62740  29.091  27.706   2.439
90316W        W62741   1.977  29.595  14.438
90317W        W62742  20.048  21.779   0.207
90318W        W62743  18.045   6.913  12.476
90319W        W62744   9.855  19.538  14.121
90320W        W62745  26.660   3.944   0.403
90321W        W62746  29.955  13.422   0.805
90322W        W62747   4.053   9.239  11.900
90323W        W62748  23.792  26.197  11.099
90324W        W62749   3.431   3.974   4.207
90325W        W62750  20.624  23.430  10.978
90326W        W62751  17.249  16.095   0.498
90327W        W62752  20.592  14.359  10.894
90328W        W62753  32.391  39.056   3.522
90329W        W62754  32.223  39.363   2.771
90330W        W62755  32.474  38.350  12.997
90331W        W62756   1.221  32.377   1.014
90332W        W62757   9.369  39.567  14.749
90333W        W62758  32.107  20.747   1.186
90334W        W62759  21.064  43.325  14.704
90335W        W62760  21.245  40.317   0.208
90336W        W62761   6.802  13.654   0.729
90337W        W62762   1.574  17.432   1.908
90338W        W62763  37.902  31.057  12.574
90339W        W62764  40.716   2.875  13.011
90340W        W62765   7.637  19.387   2.359
90341W        W62766   9.655  39.012   4.574
90342W        W62767  10.093  39.423  11.421
90343W        W62768   0.269   8.591  14.816
90344W        W62769  24.433  35.423   2.242
90345W        W62770   0.032  29.384  13.127
90346W        W62771  34.532   5.928   1.801
90347W        W62772  43.264  20.735  11.670
90348W        W62773  19.143  33.082  11.065
90349W        W62774   5.886  37.052   4.708
90350W        W62775  14.210  35.396   3.642
90351W        W62776  24.868  29.792   4.577
90352W        W62777   0.015   2.274   0.731
90353W        W62778   1.924   2.351   5.177
90354W        W62779  18.080  20.580  11.493
90355W        W62780  39.861  33.823   0.879
90356W        W62781   5.882   8.821  13.385
90357W        W62782  12.708  11.681   1.874
90358W        W62783  34.533  44.410   0.802
90359W        W62784  21.541  26.587   0.124
90360W        W62785  28.963  34.545  11.912
90361W        W62786   0.400  34.466  11.844
90362W        W62787   1.244  38.407  10.710
90363W        W62788   8.228  32.990  14.083
90364W        W62789  39.679   7.058   0.887
90365W        W62790  12.640  12.042  10.750
90366W        W62791  32.875  42.995   2.202
90367W        W62792  11.619  31.468  13.607
90368W        W62793  27.220  18.505   4.375
90369W        W62794  11.993   1.890   9.644
90370W        W62795  22.984  42.883   5.203
90371W        W62796   1.931  13.683  14.510
90372W        W62797   8.257  10.651  14.609
90373W        W62798   2.794  29.027  13.402
90374W        W62799  19.479  38.321   0.270
90375W        W62800   7.279  37.939  10.257
90376W        W62801  28.039  10.393   0.920
90377W        W62802  29.779   1.787   1.292
90378W        W62803  43.954  17.622  13.839
90379W        W62804   4.191  40.900  10.995
90380W        W62805  24.425  12.833   1.434
90381W        W62806  37.901  20.426  14.485
90382W        W62807  30.110  21.670  12.307
90383W        W62808  23.944  18.299  14.886
90384W        W62809  35.333  24.616  10.442
90385W        W62810  40.243  28.053  14.846
90386W        W62811   8.748  35.255   0.877
90387W        W62812  42.976  44.274  11.658
90388W        W62813   3.829  12.063  13.700
90389W        W62814  26.893  16.826  12.029
90390W        W62815  31.218  17.045   2.126
90391W        W62816  39.448  19.709  11.998
90392W        W62817  33.871  16.816   4.972
90393W        W62818   7.985  11.524  11.886
90394W        W62819  39.634  41.463  14.690
90395W        W62820   0.078  25.756  13.100
90396W        W62821  21.682  14.103   0.775
90397W        W62822  24.207  41.835  14.338
90398W        W62823  16.818   7.258   1.288
90399W        W62824  41.228  37.869  10.726
90400W        W62825  19.624  32.913   2.413
90401W        W62826  16.737  40.045  13.888
90402W        W62827  39.986  25.128   1.731
90403W        W62828  36.819   8.097  14.965
90404W        W62829  10.268  13.271  11.901
90405W        W62830   3.908  29.476   1.349
90406W        W62831  44.275  38.913  14.007
90407W        W62832  17.150   7.865   3.818
90408W        W62833  38.290  32.022  10.929
90409W        W62834  23.314   2.912  12.142
90410W        W62835  33.024  33.184   1.379
90411W        W62836  10.404   6.668  12.067
90412W        W62837   7.922  11.212  12.531
90413W        W62838  34.328  35.267   4.154
90414W        W62839  38.959  44.786   0.341
90415W        W62840  14.319   9.166  13.384
90416W        W62841  37.372  17.701  12.820
90417W        W62842  13.999  12.637   2.408
90418W        W62843  23.209  27.017  12.051
90419W        W62844  26.497  12.381  11.821
90420W        W62845  10.634  31.162   4.485
90421W        W62846  26.495  30.413  14.944
90422W        W62847  28.131  32.494  14.352
90423W        W62848  33.030  31.823  14.430
90424W        W62849   1.670   1.967   1.641
90425W        W62850  36.697  10.763  12.802
90426W        W62851  42.866  21.542   2.183
90427W        W62852  27.273  30.693  13.375
90428W        W62853  26.539  40.602  11.403
90429W        W62854  10.479  25.073  12.867
90430W        W62855  14.058  32.055   2.254
90431W        W62856  33.418  23.483  10.632
90432W        W62857  13.328  44.805  12.594
90433W        W62858  41.050  39.736   2.822
90434W        W62859  13.283  25.642   0.353
90435W        W62860   3.247  33.526  13.468
90436W        W62861  22.445  20.184   2.375
90437W        W62862  24.781  32.845  13.812
90438W        W62863   6.933  40.050   3.646
90439W        W62864   2.354  18.627  13.354
90440W        W62865   2.280   5.155  11.825
90441W        W62866  37.900  27.473  11.165
90442W        W62867  17.762   1.214  13.333
90443W        W62868  26.041  31.716   9.786
90444W        W62869   0.366  20.193   2.139
90445W        W62870  12.872  29.707   0.271
90446W        W62871  36.897  43.607  12.458
90447W        W62872  20.679   1.871   1.771
90448W        W62873  27.317   9.542  10.984
90449W        W62874  15.170   6.862  10.614
90450W        W62875   6.751  27.676  10.667
90451W        W62876  18.664  36.891  13.821
90452W        W62877  15.120  31.596  14.308
90453W        W62878  39.541  32.964  11.475
90454W        W62879  22.434  13.265  14.722
90455W        W62880  43.376  21.622   2.265
90456W        W62881  42.171  43.841   2.407
90457W        W62882  34.861  42.406   2.997
90458W        W62883  17.228  35.364  11.358
90459W        W62884   5.134  40.356   3.238
90460W        W62885  20.173  31.137   5.480
90461W        W62886  15.648  29.078   0.327
90462W        W62887   2.795  25.107  10.829
90463W        W62888  25.946   2.939  12.853
90464W        W62889   5.790  15.233  13.613
90465W        W62890  12.493  44.985   0.403
90466W        W62891  29.944  41.865  13.875
90467W        W62892  32.869  21.446  14.958
90468W        W62893  24.629   1.875  14.980
90469W        W62894  34.887  43.414   1.024
90470W        W62895  26.095  43.299   1.498
90471W        W62896  14.610   1.380  13.993
90472W        W62897  29.595  10.683   2.385
90473W        W62898   9.639  35.059   9.690
90474W        W62899   2.168   1.350   1.447
90475W        W62900  37.505  16.649   3.605
90476W        W62901  23.863  18.116  11.634
90477W        W62902   4.513   1.229   1.779
90478W        W62903   2.242  44.403   1.883
90479W        W62904  28.777  28.419  10.648
90480W        W62905  21.100  23.316  12.526
90481W        W62906  25.062  38.131  10.707
90482W        W62907  23.699  28.118  13.019
90483W        W62908  25.155  28.460   3.110
90484W        W62909  44.903  34.880   3.291
90485W        W62910  30.018  43.103   1.908
90486W        W62911   1.293  31.456  11.702
90487W        W62912  40.335  35.491   4.075
90488W        W62913  23.446   1.870  12.875
90489W        W62914  38.868  28.966  14.226
90490W        W62915  15.589  28.878   4.628
90491W        W62916  44.751   7.448   1.307
90492W        W62917  28.036  30.086  14.055
90493W        W62918   7.822   7.766  11.559
90494W        W62919  15.342  20.081  14.759
90495W        W62920  38.526  15.599   2.026
90496W        W62921  19.973  25.492   0.538
90497W        W62922   6.726  17.035   4.212
90498W        W62923  20.600  28.989  12.496
90499W        W62924   8.644  35.130  12.944
90500W        W62925  32.466   3.505   0.235
90501W        W62926  13.576   2.826  13.496
90502W        W62927  20.982  31.842  14.578
90503W        W62928  29.987  40.567   4.803
90504W        W62929  30.847   0.005   2.661
90505W        W62930  16.987   1.368   3.883
90506W        W62931  39.863  13.746   1.782
90507W        W62932  20.089   1.673  11.129
90508W        W62933  14.153  39.375   0.334
90509W        W62934  22.591  39.305   3.658
90510W        W62935  35.443   4.357   2.224
90511W        W62936  22.020   8.938   4.139
90512W        W62937   1.558  19.361  10.629
90513W        W62938   2.329  38.733   2.291
90514W        W62939  16.295  15.066  10.728
90515W        W62940  12.735   4.995   2.319
90516W        W62941  13.599   0.884  11.429
90517W        W62942  44.079   3.443  11.860
90518W        W62943   3.579  28.567   0.574
90519W        W62944  37.887  16.499  11.634
90520W        W62945  41.532  12.695   0.267
90521W        W62946  39.476  28.719   2.424
90522W        W62947  16.697   6.868   4.718
90523W        W62948  22.157  20.810   4.611
90524W        W62949  20.731  37.961   2.364
90525W        W62950  18.523   8.728  10.990
90526W        W62951  28.696   4.425   1.182
90527W        W62952  40.988  37.210   2.717
90528W        W62953  19.553  29.949   1.349
90529W        W62954  20.776  41.390  12.917
90530W        W62955  19.018   3.341  12.326
90531W        W62956  33.072  39.469  11.044
90532W        W62957   7.840  19.801   2.722
90533W        W62958  36.527  17.441   3.117
90534W        W62959  33.747  35.644   0.249
90535W        W62960  44.572  17.166   2.747
90536W        W62961   0.458  32.352  12.540
90537W        W62962  36.477  10.774  12.254
90538W        W62963  43.042  24.275  11.158
90539W        W62964  26.002  15.424   1.961
90540W        W62965   0.094  32.059  10.692
90541W        W62966  27.702  19.294  10.670
90542W        W62967  14.169  25.656   3.195
90543W        W62968  40.545  26.674  14.136
90544W        W62969  17.705   2.309   4.153
90545W        W62970  29.102  35.620  13.122
90546W        W62971  33.509  37.554  10.270
90547W        W62972   6.303   4.898  10.239
90548W        W62973  33.238   4.815  14.786
90549W        W62974   1.739   4.359   1.874
90550W        W62975  39.024  13.316  14.479
90551W        W62976   1.701  41.427   1.579
90552W        W62977  12.406  33.935   1.266
90553W        W62978  17.904  33.732   5.002
90554W        W62979  41.781  20.049   2.822
90555W        W62980   7.658  28.104  13.463
90556W        W62981  15.242  44.616   4.454
90557W        W62982  13.680  43.735  14.910
90558W        W62983  41.828  32.643   0.431
90559W        W62984  27.533  37.302   4.158
90560W        W62985  20.571   3.380  11.638
90561W        W62986  22.928   9.096  10.974
90562W        W62987  12.223  16.802   1.850
90563W        W62988  15.189  37.625   2.663
90564W        W62989   3.210   0.482  11.031
90565W        W62990   9.809  26.795   1.887
90566W        W62991  41.010   2.477  12.980
90567W        W62992  31.018  29.719   1.343
90568W        W62993  37.426  31.205   4.155
90569W        W62994  20.314  10.466  14.539
90570W        W62995  20.156   7.967   4.607
90571W        W62996  23.984   9.254   5.063
90572W        W62997  44.766  14.851   2.374
90573W        W62998  22.107  39.404  10.825
90574W        W62999  38.830  44.476  13.272
90575W        W63000  21.651  25.429  11.128
90576W        W63001   7.744  30.170  11.860
90577W        W63002  35.928  33.610   4.232
90578W        W63003  24.047   3.297  14.699
90579W        W63004  36.500  33.331   2.414
90580W        W63005   3.494   5.771  11.033
90581W        W63006   7.199  18.789   1.138
90582W        W63007   3.324   6.268   0.740
90583W        W63008  22.281  21.522   1.894
90584W        W63009  18.136  23.689   2.318
90585W        W63010  40.572  39.917   2.900
90586W        W63011  17.262   5.205  10.679
90587W        W63012  30.935  27.622  14.970
90588W        W63013   8.471  43.200  12.597
90589W        W63014   0.306   0.544   2.360
90590W        W63015  16.185   4.140  10.958
90591W        W63016  33.909  29.584   2.935
90592W        W63017  44.335  44.478   1.309
90593W        W63018  19.244  33.873   3.688
90594W        W63019  28.360  40.425   4.995
90595W        W63020  15.077  40.080  11.113
90596W        W63021   3.765  34.107   1.945
90597W        W63022  44.850  23.565  12.225
90598W        W63023  30.583   6.370  13.645
90599W        W63024  14.254   6.351  12.072
90600W        W63025  32.076  33.827   1.716
90601W        W63026  33.965  17.672  13.156
90602W        W63027  24.554   1.934  13.838
90603W        W63028  25.968  15.786  13.944
90604W        W63029  39.465  16.533  13.009
90605W        W63030   1.501   5.142   3.905
90606W        W63031  25.006   2.921   2.220
90607W        W63032   4.921  30.021   2.343
90608W        W63033  17.241   5.648  13.830
90609W        W63034  10.323  22.644   4.568
90610W        W63035   2.247  42.215   4.185
90611W        W63036  22.548   2.894   3.107
90612W        W63037   6.763  24.490   2.319
90613W        W63038   1.774  26.102   4.861
90614W        W63039  10.113  27.069   0.410
90615W        W63040  31.033  36.243   0.712
90616W        W63041   8.324   9.408   9.725
90617W        W63042  34.466   8.442   3.707
90618W        W63043  39.589  40.948   1.266
90619W        W63044  26.646   7.202  14.492
90620W        W63045   5.846  10.347  12.613
90621W        W63046  27.866  20.148  14.180
90622W        W63047  10.720  34.657   1.405
90623W        W63048  16.937   6.236  13.040
90624W        W63049   6.340   8.239   1.822
90625W        W63050   9.902  20.097  10.586
90626W        W63051  15.655  17.795  10.888
90627W        W63052   1.297  28.868   3.173
90628W        W63053  25.552  15.970  13.462
90629W        W63054  21.480  31.610   5.077
90630W        W63055  41.889   5.566   0.657
90631W        W63056   4.210   1.442  11.382
90632W        W63057  27.829  26.460  11.179
90633W        W63058  14.293   5.395  11.386
90634W        W63059  17.723  44.211  11.642
90635W        W63060  41.111   4.946   0.899
90636W        W63061  25.727  17.016  11.568
90637W        W63062  33.424  34.867  12.481
90638W        W63063  34.400  15.571  11.631
90639W        W63064  25.018   2.198   1.486
90640W        W63065  28.336  27.123   1.242
90641W        W63066  36.805  25.362   1.846
90642W        W63067  36.498  42.100  13.668
90643W        W63068  40.308  40.654  13.936
90644W        W63069   4.963  35.848  12.388
90645W        W63070  32.958  19.076  11.278
90646W        W63071  25.145  44.414  10.640
90647W        W63072  33.898  26.816   5.002
90648W        W63073  20.650  31.966   1.367
90649W        W63074  27.654  30.164  12.641
90650W        W63075   4.881  17.191  13.570
90651W        W63076   3.316  29.199   0.100
90652W        W63077   5.327   8.876  12.107
90653W        W63078   3.622   4.771   3.783
90654W        W63079  36.830  26.200   4.451
90655W        W63080  24.046  31.042  13.540
90656W        W63081  38.833  42.874  14.924
90657W        W63082  30.197  23.538  10.473
90658W        W63083  34.126  38.130   3.564
90659W        W63084  30.047   3.442   4.900
90660W        W63085   8.913  34.887  13.344
90661W        W63086  26.472  38.033  11.720
90662W        W63087  29.309  23.453  14.732
90663W        W63088   7.698  36.299   0.189
90664W        W63089  44.986  44.709  12.743
90665W        W63090  31.967  21.798  12.834
90666W        W63091  28.940  14.763   1.265
90667W        W63092  28.222  42.561  11.625
90668W        W63093  38.860  33.184   4.588
90669W        W63094  18.712  14.054   3.674
90670W        W63095  24.467   1.318  12.103
90671W        W63096  40.624  37.353  13.609
90672W        W63097  36.442  31.394  10.685
90673W        W63098  23.001  10.762   4.155
90674W        W63099  19.816  21.650  10.945
90675W        W63100  12.724  26.603   1.715
90676W        W63101  21.221  38.966  12.074
90677W        W63102  14.358  43.452   1.497
90678W        W63103  30.487  32.203   0.799
90679W        W63104  25.578  11.751   2.637
90680W        W63105  24.408  10.245  11.495
90681W        W63106  11.760  37.616   1.868
90682W        W63107  31.589  20.535   2.311
90683W        W63108  36.414  10.256   1.715
90684W        W63109  13.776  12.389  10.756
90685W        W63110  31.846   2.443   1.772
90686W        W63111  41.638  29.999   3.828
90687W        W63112   4.207  24.122   1.049
90688W        W63113  11.606  34.505  14.386
90689W        W63114  14.050  12.835  12.571
90690W        W63115  20.939  26.355  11.573
90691W        W63116  15.735  20.133   4.113
90692W        W63117  14.870  43.505   2.397
90693W        W63118   8.364  21.145   9.927
90694W        W63119   1.501   8.663   3.295
90695W        W63120  10.470  13.234  10.197
90696W        W63121  40.561  29.868  10.546
90697W        W63122  19.826  24.716   4.177
90698W        W63123  41.855  34.859   1.976
90699W        W63124  38.480  27.879   3.674
90700W        W63125  15.865  27.338  14.001
90701W        W63126  14.237  15.793  13.850
90702W        W63127  38.588  36.980  11.496
90703W        W63128  22.642   7.408  11.077
90704W        W63129  20.618  36.537   2.903
90705W        W63130  38.524  43.195  14.029
90706W        W63131  36.454  11.086   3.415
90707W        W63132  36.869   2.845   3.233
90708W        W63133   2.350   0.213  10.938
90709W        W63134  15.666  37.120  11.594
90710W        W63135  37.383   2.753  10.747
90711W        W63136  21.032  19.754   1.844
90712W        W63137  18.241  28.717   0.028
90713W        W63138   6.927  22.582  14.346
90714W        W63139   6.702  38.916  11.888
90715W        W63140  17.077  39.592   0.716
90716W        W63141   9.476  28.587   3.251
90717W        W63142  34.040  36.741   3.616
90718W        W63143  21.912  33.563  11.134
90719W        W63144   6.227  20.522  13.289
90720W        W63145  24.835   9.093   1.324
90721W        W63146  41.279  21.160   0.771
90722W        W63147  23.258  12.603  14.707
90723W        W63148  29.616  42.778   1.860
90724W        W63149  42.018  37.094  13.811
90725W        W63150   9.447  27.737   0.822
90726W        W63151   1.868   8.333   2.791
90727W        W63152  24.196  15.149   0.404
90728W        W63153  28.925  10.131   5.392
90729W        W63154  15.927   3.735  11.192
90730W        W63155  22.490  34.575  14.399
90731W        W63156   6.339  13.441  13.977
90732W        W63157   5.944  43.474  11.556
90733W        W63158  20.680  40.400  14.559
90734W        W63159  13.863  30.485   0.744
90735W        W63160  19.988  15.363  12.089
90736W        W63161  35.163  22.061  14.363
90737W        W63162  11.647  14.137   0.876
90738W        W63163   2.885  24.135   4.489
90739W        W63164  16.232  13.794   1.509
90740W        W63165  21.582  26.351   4.789
90741W        W63166  31.719  14.875  12.614
90742W        W63167  16.893  14.230   0.789
90743W        W63168  17.577  24.485  10.537
90744W        W63169  30.510  12.905   4.027
90745W        W63170  30.014   5.294   4.678
90746W        W63171  32.145  24.787   3.196
90747W        W63172   5.683  24.061  12.520
90748W        W63173  35.396  10.652  13.064
90749W        W63174  29.967  41.870   5.029
90750W        W63175  16.121  44.244   4.956
90751W        W63176  21.053  27.102   5.206
90752W        W63177  23.921   3.546  12.099
90753W        W63178   1.385  13.518   1.782
90754W        W63179  11.695  32.067  11.948
90755W        W63180  38.041   0.675   3.646
90756W        W63181  33.542  15.232   0.259
90757W        W63182   0.210  29.656  12.466
90758W        W63183  13.186  25.029  14.339
90759W        W63184  14.126   7.836  11.540
90760W        W63185  39.462  37.369  14.659
90761W        W63186  31.513  17.762   3.718
90762W        W63187   6.528  18.909   5.042
90763W        W63188   9.655  34.974  10.583
90764W        W63189  35.607  39.326  14.285
90765W        W63190  44.778   3.315  14.313
90766W        W63191  15.259  10.773   1.404
90767W        W63192   4.830  14.170   0.288
90768W        W63193  29.053  10.731   0.223
90769W        W63194  44.727  32.993   4.564
90770W        W63195  34.995  24.319  14.502
90771W        W63196  17.126  28.678  11.181
90772W        W63197  10.704  26.751  12.002
90773W        W63198  37.903  41.235   1.400
90774W        W63199  20.490  43.412  13.006
90775W        W63200   5.665  33.985  13.010
90776W        W63201  10.210  42.752   3.129
90777W        W63202  12.744  38.947  14.362
90778W        W63203  13.382  20.097  12.446
90779W        W63204  37.644  35.983  13.253
90780W        W63205  11.762  34.944   3.708
90781W        W63206  10.936  12.763   0.794
90782W        W63207  32.918  14.315  14.495
90783W        W63208  38.505  37.917  14.541
90784W        W63209  20.159  35.948   4.973
90785W        W63210  10.735   3.020   1.258
90786W        W63211   3.165  23.138   2.171
90787W        W63212  27.022  16.174  12.479
90788W        W63213   1.895   0.522  12.083
90789W        W63214  33.706  13.889   0.939
90790W        W63215  36.337  10.900  14.087
90791W        W63216   5.927  39.842   1.567
90792W        W63217  15.355  13.520   3.835
90793W        W63218  18.686  30.862   3.881
90794W        W63219  33.132   1.493  10.998
90795W        W63220  21.886  24.104   3.638
90796W        W63221  19.450   1.412  10.081
90797W        W63222  36.955   3.337   2.223
90798W        W63223  27.179   3.921   3.740
90799W        W63224  44.904  13.335   3.774
90800W        W63225  35.498  41.238  13.755
90801W        W63226   0.230  21.637   2.396
90802W        W63227  27.617  13.141   0.977
90803W        W63228  14.774  38.126  13.359
90804W        W63229  15.788   7.463  11.171
90805W        W63230  12.270  32.086   2.029
90806W        W63231  32.935  22.682   0.331
90807W        W63232  11.159  22.230   0.546
90808W        W63233  11.755  32.506   0.482
90809W        W63234  13.739  22.232   3.242
90810W        W63235  22.965  37.501   2.775
90811W        W63236  34.080   7.252   0.197
90812W        W63237  43.810  21.604  12.054
90813W        W63238  25.076  10.890   2.984
90814W        W63239  40.943  15.489   3.837
90815W        W63240  31.182  21.074  10.240
90816W        W63241   7.349   3.360   0.857
90817W        W63242  32.962  16.157  12.957
90818W        W63243   3.742  25.263  11.427
90819W        W63244  10.295  32.934   1.185
90820W        W63245  25.211  23.532   3.809
90821W        W63246   5.023   5.815  12.406
90822W        W63247  35.560  38.151  12.029
90823W        W63248   1.388  28.058   0.837
90824W        W63249  38.097  41.993  12.499
90825W        W63250  36.217  19.554   1.867
90826W        W63251  40.340  30.537  11.078
90827W        W63252   0.471   8.329  11.596
90828W        W63253  41.628  39.078   1.950
90829W        W63254  26.313  39.958  11.876
90830W        W63255  35.123  43.392   1.955
90831W        W63256   6.291  22.430   4.549
90832W        W63257  15.649  30.726  11.481
90833W        W63258  43.334  15.596  14.043
90834W        W63259  22.734  22.977  13.865
90835W        W63260  16.584   2.493  10.965
90836W        W63261  28.113  12.834   4.229
90837W        W63262  11.795  32.369  10.224
90838W        W63263  30.510  43.906  13.100
90839W        W63264  25.668   3.967  14.698
90840W        W63265   0.162   5.937   1.873
90841W        W63266   4.952  17.684  10.581
90842W        W63267   5.650  22.003  11.994
90843W        W63268  31.007   0.768   1.277
90844W        W63269  36.420  42.195   0.431
90845W        W63270  35.198  13.237  14.524
90846W        W63271   7.260   5.453  12.151
90847W        W63272   8.723  10.887  12.116
90848W        W63273  15.690  30.374  12.485
90849W        W63274  13.581  15.669   0.796
90850W        W63275  23.167  28.150  12.999
90851W        W63276  36.267  25.598  13.511
90852W        W63277  43.612  19.414  13.893
90853W        W63278  41.628  19.632   3.143
90854W        W63279  35.148  41.605  13.910
90855W        W63280  19.029  23.537   1.010
90856W        W63281   7.133   4.124  13.721
90857W        W63282  29.066  37.485   0.486
90858W        W63283  19.959  38.956  13.559
90859W        W63284  17.616  22.428   0.491
90860W        W63285   0.427   2.365  14.865
90861W        W63286  32.668   8.655   3.726
90862W        W63287  34.107   9.295  13.896
90863W        W63288  20.580  20.969  13.570
90864W        W63289  38.630  29.939  13.472
90865W        W63290  33.782   9.387  12.476
90866W        W63291  32.503  31.603   2.661
90867W        W63292   5.541  28.448   1.659
90868W        W63293   7.825  10.271  13.881
90869W        W63294  10.547  41.884  12.965
90870W        W63295  42.952  14.105  12.105
90871W        W63296  43.589  10.828  13.392
90872W        W63297  10.460  39.545  10.950
90873W        W63298   7.008  16.323  10.753
90874W        W63299  24.458  37.374  11.914
90875W        W63300  41.513  10.421  13.257
90876W        W63301  14.589  22.830  10.185
90877W        W63302  44.940  11.385   1.821
90878W        W63303   2.043  29.586  13.493
90879W        W63304  19.534   2.101  14.290
90880W        W63305   2.519  42.401  13.779
90881W        W63306  43.998   4.556  10.559
90882W        W63307  41.001  27.017   4.604
90883W        W63308   6.399  17.243  10.725
90884W        W63309  33.902  32.934  11.584
90885W        W63310  24.508  18.143  13.361
90886W        W63311  34.440  30.336   0.414
90887W        W63312  16.069  27.684  13.049
90888W        W63313  38.335   3.327  12.628
90889W        W63314  13.597  37.391   3.573
90890W        W63315  25.447  12.975  12.857
90891W        W63316  19.196   8.967   4.359
90892W        W63317   6.453  27.771  11.065
90893W        W63318   4.306  30.624  10.555
90894W        W63319  42.490   3.867   3.347
90895W        W63320  29.140   0.492   2.782
90896W        W63321  42.033  28.140   1.177
90897W        W63322   8.269  27.404  11.634
90898W        W63323  16.563  40.546   3.606
90899W        W63324  26.950  40.301   4.658
90900W        W63325  31.973   1.545   4.312
90901W        W63326  22.597   5.534  11.478
90902W        W63327  11.349  26.147  12.346
90903W        W63328  36.172  14.992  13.593
90904W        W63329  13.731  10.148   4.710
90905W        W63330  32.461  30.499  11.455
90906W        W63331   0.399   7.586  11.143
90907W        W63332  22.614  32.434  14.967
90908W        W63333  44.697  41.326   3.072
90909W        W63334  17.085  33.423   0.084
90910W        W63335  22.579  29.396  11.466
90911W        W63336  21.827  17.073   3.605
90912W        W63337  39.281  24.452  13.384
90913W        W63338  41.849  23.798  12.784
90914W        W63339  28.982  37.101  11.489
90915W        W63340  18.119  14.266  14.346
90916W        W63341  19.818   2.805  10.727
90917W        W63342  41.460  21.149   0.267
90918W        W63343  19.272   0.752   1.379
90919W        W63344  20.799  31.861  11.022
90920W        W63345   2.311  37.647  13.336
90921W        W63346  35.612  27.432   4.248
90922W        W63347  26.578  40.005   3.802
90923W        W63348  43.891   7.369   4.682
90924W        W63349  36.184  41.020   2.769
90925W        W63350  15.566  33.096   0.920
90926W        W63351  25.318  15.446   4.992
90927W        W63352  42.534  20.091   4.093
90928W        W63353  17.750   0.715   1.797
90929W        W63354  23.646  35.009  11.560
90930W        W63355  35.291  26.554  13.080
90931W        W63356  13.854   9.248   1.220
90932W        W63357   6.910  43.924  12.435
90933W        W63358   0.973  21.000  13.959
90934W        W63359   3.198  22.602   3.670
90935W        W63360  14.421  29.607   0.495
90936W        W63361  43.045  20.731  12.324
90937W        W63362  44.840  11.554  11.316
90938W        W63363  18.665   1.750   0.181
90939W        W63364   7.870   0.200  11.059
90940W        W63365   3.633   2.331   3.654
90941W        W63366  33.285  43.113   4.980
90942W        W63367  29.789  18.100  13.660
90943W        W63368  32.504  15.201   1.795
90944W        W63369  10.557   0.040   2.412
90945W        W63370  17.862  41.292  12.632
90946W        W63371  23.250  16.261   0.818
90947W        W63372  37.002  43.896  12.007
90948W        W63373  12.303  17.041  13.464
90949W        W63374   5.079  22.313  14.476
90950W        W63375  30.893  16.093  10.109
90951W        W63376  16.812  18.824   0.085
90952W        W63377  32.550   2.127  11.118
90953W        W63378  23.947  17.055   2.009
90954W        W63379  23.653   7.326  12.868
90955W        W63380  30.063  35.322  13.452
90956W        W63381   2.412  37.514   1.889
90957W        W63382  39.543  38.477   1.696
90958W        W63383   5.295   1.561   3.228
90959W        W63384  11.210  15.562  12.855
90960W        W63385  23.203  44.790  12.000
90961W        W63386  43.839  36.761  13.534
90962W        W63387  23.567  40.249  12.596
90963W        W63388   3.996  30.438   4.828
90964W        W63389  26.560  38.985  12.308
90965W        W63390  37.862   1.811  10.760
90966W        W63391  14.496   7.376  12.389
90967W        W63392  20.474  44.815  10.468
90968W        W63393   2.994   6.878  13.511
90969W        W63394  42.051  15.721  13.589
90970W        W63395  17.715  17.485  13.782
90971W        W63396  12.489  38.713  13.862
90972W        W63397  35.122  20.124   2.836
90973W        W63398  18.028   8.771   0.439
90974W        W63399   3.747  37.058   1.241
90975W        W63400  38.031   8.793   0.458
90976W        W63401  41.935  25.049   2.002
90977W        W63402   8.423   7.339  13.357
90978W        W63403  18.572  14.081  13.574
90979W        W63404  43.469  44.020  14.362
90980W        W63405   9.813  25.748  13.832
90981W        W63406  26.180  35.599  11.016
90982W        W63407  14.702  29.258  13.345
90983W        W63408  31.565  22.604  12.436
90984W        W63409  40.827   5.340   0.273
90985W        W63410  13.754  39.442  11.040
90986W        W63411  19.512  13.594  10.709
90987W        W63412   3.375  24.825  12.987
90988W        W63413   2.747  34.234   4.084
90989W        W63414  10.750  32.648   1.262
90990W        W63415  19.765  32.124  11.024
90991W        W63416  30.671  27.125  12.445
90992W        W63417  30.719  37.849  11.453
90993W        W63418  19.679  40.161   4.750
90994W        W63419  32.575   1.472  13.403
90995W        W63420  30.573   5.405   4.385
90996W        W63421  32.880  23.523  10.657
90997W        W63422  21.285  27.069   3.082
90998W        W63423  23.782  34.572   1.765
90999W        W63424  40.909  20.999  10.684
91000W        W63425  21.118  26.603   4.665
91001W        W63426  38.930  37.996  12.176
91002W        W63427   1.750  12.451   0.868
91003W        W63428  21.939  43.903  14.602
91004W        W63429  37.766  38.925   1.310
91005W        W63430  13.804  27.748  10.650
91006W        W63431  38.806   4.700  12.961
91007W        W63432  44.478   3.314  14.735
91008W        W63433   1.543  30.988   2.205
91009W        W63434  28.744  17.248  11.757
91010W        W63435  36.328  13.681   0.800
91011W        W63436  13.230  30.331  11.161
91012W        W63437  36.578  15.308   0.341
91013W        W63438   7.626  43.255  11.021
91014W        W63439  13.208  12.570   2.745
91015W        W63440   3.203   4.575  11.083
91016W        W63441  40.965  44.816   9.698
91017W        W63442  20.751   1.437   4.566
91018W        W63443  33.617  36.914   0.935
91019W        W63444  10.185  24.983  14.649
91020W        W63445  35.514  30.511  12.872
91021W        W63446  38.642  40.438  11.228
91022W        W63447  14.814   5.317   1.443
91023W        W63448  43.530   5.765   4.918
91024W        W63449   6.874  30.401  14.195
91025W        W63450  23.152  37.959  14.964
91026W        W63451  25.258   6.338  14.355
91027W        W63452  19.598  11.132   1.788
91028W        W63453  18.782   0.971   2.697
91029W        W63454  39.500  17.219   4.527
91030W        W63455  25.305  31.467  13.594
91031W        W63456  39.052   4.259   0.233
91032W        W63457  26.289  11.194  12.580
91033W        W63458  11.338  39.101  12.657
91034W        W63459  19.227   9.824   1.228
91035W        W63460  10.131   0.946   2.278
91036W        W63461   0.221  10.261  13.886
91037W        W63462  28.932   7.822  14.865
91038W        W63463  22.486   8.433  11.228
91039W        W63464  32.982   0.713   3.209
91040W        W63465  38.802  17.589   2.873
91041W        W63466   9.178  32.004   2.641
91042W        W63467  11.686  24.238  13.095
91043W        W63468  11.724  15.358  12.884
91044W        W63469  26.921  32.386   3.648
91045W        W63470  24.239  43.188  10.092
91046W        W63471  38.828  42.921  11.148
91047W        W63472  28.418   1.817  11.534
91048W        W63473  37.544  17.855   2.426
91049W        W63474  18.137  36.454  10.796
91050W        W63475  26.471  32.626   1.383
91051W        W63476  18.041  18.249   1.137
91052W        W63477  20.677  14.237   2.986
91053W        W63478   0.544  35.567   0.374
91054W        W63479   1.834   4.157  11.290
91055W        W63480  21.520  27.791  10.533
91056W        W63481  14.965  41.088   4.260
91057W        W63482  18.553  18.164   3.643
91058W        W63483  17.062  17.556   2.596
91059W        W63484  36.725  22.384  10.569
91060W        W63485  29.944  25.028  12.325
91061W        W63486   2.299  16.289   2.408
91062W        W63487   8.861  44.777   2.368
91063W        W63488   4.441  34.036   4.565
91064W        W63489  34.309   0.478   2.631
91065W        W63490  21.971  14.149  12.111
91066W        W63491  26.368  35.942  14.530
91067W        W63492  32.082   0.910  11.413
91068W        W63493   7.923  36.051  11.122
91069W        W63494   6.999  33.400   4.228
91070W        W63495  28.170  40.900  11.089
91071W        W63496  38.967  36.976   1.809
91072W        W63497  23.980   9.065   2.344
91073W        W63498   0.349  36.389   3.994
91074W        W63499   4.651   9.766   0.150
91075W        W63500   8.691   7.206  14.971
91076W        W63501  14.522  17.545   1.778
91077W        W63502  43.864  27.357  13.511
91078W        W63503  13.123   7.789  10.974
91079W        W63504  13.308  22.164  11.088
91080W        W63505  25.257  38.492   1.965
91081W        W63506   5.557  25.446   4.545
91082W        W63507   1.230  36.706   3.670
91083W        W63508  35.429   1.763   2.228
91084W        W63509  31.540   2.197   4.638
91085W        W63510  15.723  38.967  10.954
91086W        W63511  42.830  32.118   3.620
91087W        W63512   2.234  41.405   3.739
91088W        W63513   1.267  29.489  14.884
91089W        W63514   1.756   3.439   1.456
91090W        W63515   7.719  27.670   4.095
91091W        W63516  42.275  19.539  13.057
91092W        W63517  40.336  44.857   2.148
91093W        W63518  39.597  31.166  12.298
91094W        W63519  13.167   1.893   3.997
91095W        W63520  43.799  20.903   3.187
91096W        W63521  22.699  38.880   0.967
91097W        W63522  33.605   8.406   2.611
91098W        W63523  22.733  24.247   1.418
91099W        W63524  24.176   0.043   1.591
91100W        W63525   6.101  42.795  12.440
91101W        W63526  11.185  37.071  12.855
91102W        W63527  41.522  24.564  11.147
91103W        W63528  18.083  30.526  12.109
91104W        W63529   5.245  10.491   3.780
91105W        W63530  37.358  44.859   1.763
91106W        W63531  41.452  13.005  14.420
91107W        W63532  11.158   4.948  14.836
91108W        W63533  29.311  32.028  11.058
91109W        W63534  26.923   6.190  11.118
91110W        W63535  44.970  35.512   2.259
91111W        W63536  25.373  37.588   0.098
91112W        W63537   4.312  26.596  14.033
91113W        W63538  27.597  43.714   2.261
91114W        W63539  11.422  36.863   3.222
91115W        W63540  33.845  17.655   2.352
91116W        W63541   4.431  35.435  14.803
91117W        W63542   4.469  43.987  13.206
91118W        W63543  31.468   6.735   4.600
91119W        W63544  38.843  12.906  14.765
91120W        W63545   8.724   2.428   0.790
91121W        W63546  33.026  31.670  12.409
91122W        W63547  33.012  44.324   4.619
91123W        W63548  36.126  15.261   3.659
91124W        W63549  12.407  34.856   3.807
91125W        W63550  31.048   9.451   1.855
91126W        W63551  26.205  26.388  11.091
91127W        W63552  27.670  21.664  12.473
91128W        W63553   5.780  24.479  14.754
91129W        W63554  44.784  41.739   2.190
91130W        W63555  17.824  31.018  12.658
91131W        W63556  41.431  29.853   0.104
91132W        W63557   2.224  35.999   1.805
91133W        W63558  33.391  22.167  10.866
91134W        W63559  34.465   8.095   2.338
91135W        W63560   9.423  29.488  13.510
91136W        W63561  41.412  16.330   0.782
91137W        W63562  19.594  36.603   0.319
91138W        W63563  38.016  15.502   3.515
91139W        W63564  22.775  35.930  10.900
91140W        W63565   0.606  41.831  12.619
91141W        W63566  16.178  35.232   4.760
91142W        W63567  42.358  17.008  13.765
91143W        W63568  22.907  24.445   1.883
91144W        W63569  43.362  22.165   1.038
91145W        W63570  36.811  39.222   4.541
91146W        W63571  30.204  39.384   4.802
91147W        W63572  32.398  39.603  12.098
91148W        W63573   2.060  14.383  12.364
91149W        W63574  26.663  33.552   2.853
91150W        W63575  35.404  16.094   4.268
91151W        W63576  29.624  35.028   0.162
91152W        W63577  26.190  31.975  10.215
91153W        W63578  29.978  40.939  14.171
91154W        W63579   5.346  10.274  12.998
91155W        W63580  24.950   4.929  14.044
91156W        W63581  26.999  30.138  12.088
91157W        W63582  20.082  33.914  10.639
91158W        W63583  40.078  43.940  12.869
91159W        W63584  12.823  20.272   4.438
91160W        W63585  13.200  37.388   3.231
91161W        W63586  22.725  21.644  13.046
91162W        W63587  30.432  16.597   0.298
91163W        W63588  18.137  27.132   1.433
91164W        W63589  26.183  37.971   3.880
91165W        W63590  27.974  13.273  14.663
91166W        W63591  21.379  38.814   4.592
91167W        W63592  44.771  20.642   0.311
91168W        W63593  20.111   6.263   1.430
91169W        W63594  33.704  26.448   0.888
91170W        W63595  15.679  19.284   1.206
91171W        W63596  32.697   5.825   0.180
91172W        W63597  24.521  26.767   3.460
91173W        W63598  23.324  39.965   2.794
91174W        W63599  22.121  19.094  13.075
91175W        W63600  28.275  25.198   4.551
91176W        W63601  42.978  24.493  12.667
91177W        W63602  22.710  26.425   5.115
91178W        W63603  39.860   3.509  11.701
91179W        W63604  31.998  18.125  11.992
91180W        W63605  16.639  29.941   2.417
91181W        W63606  29.637  24.302   3.630
91182W        W63607   9.562   6.659  12.222
91183W        W63608  40.838  42.970  10.694
91184W        W63609  21.138   8.615  11.054
91185W        W63610   2.803  25.472   1.925
91186W        W63611  43.389   2.367   3.119
91187W        W63612  34.850  30.988  13.915
91188W        W63613  12.276  38.403   1.360
91189W        W63614  35.207   8.684  11.083
91190W        W63615  37.540   5.159  13.991
91191W        W63616   4.890  26.747  14.870
91192W        W63617   4.585  39.415   3.123
91193W        W63618  39.414  18.910  10.618
91194W        W63619  19.748  43.819  11.616
91195W        W63620   0.563  40.735   3.772
91196W        W63621  40.540  29.591   1.184
91197W        W63622  41.357  11.353  13.527
91198W        W63623  24.136  21.576  14.334
91199W        W63624  20.061  29.167   1.369
91200W        W63625   2.160  39.408   3.455
91201W        W63626  20.825  17.547   0.631
91202W        W63627  20.246  18.190  12.030
91203W        W63628  21.056  40.764  14.569
91204W        W63629  37.643  19.729   4.352
91205W        W63630  14.283  30.656   0.505
91206W        W63631  40.396  20.504  11.991
91207W        W63632  36.586   1.732   3.159
91208W        W63633  17.305   0.207  12.490
91209W        W63634  29.468  21.473   0.871
91210W        W63635   5.934  27.474  14.045
91211W        W63636   6.420   5.855  12.437
91212W        W63637  12.589  24.238  10.548
91213W        W63638  21.014  28.542  13.914
91214W        W63639  38.409  37.437  14.330
91215W        W63640  18.142   4.206   4.646
91216W        W63641  12.667  30.523   0.253
91217W        W63642  42.332  10.694  14.816
91218W        W63643  25.083   8.744  10.779
91219W        W63644  32.461  20.368   1.385
91220W        W63645  16.526  43.463  14.351
91221W        W63646  29.172  27.784   4.658
91222W        W63647   7.320  25.531  14.687
91223W        W63648  30.697  25.549   1.339
91224W        W63649  31.113  19.558  14.861
91225W        W63650  41.692  39.385   0.346
91226W        W63651  42.816  18.764   0.995
91227W        W63652  35.919  11.847  12.360
91228W        W63653  33.493  43.407   0.617
91229W        W63654  11.245  33.862  13.273
91230W        W63655  41.273  44.095  14.866
91231W        W63656  28.292   7.882   3.712
91232W        W63657  14.215   0.477  13.766
91233W        W63658  37.763   3.452   1.946
91234W        W63659   2.955  38.568  11.928
91235W        W63660  40.524  18.590   2.737
91236W        W63661  26.563  38.362   1.896
91237W        W63662   5.221  34.305   2.291
91238W        W63663  41.806   0.210  14.282
91239W        W63664   6.697  22.472  12.503
91240W        W63665  17.782  29.163   2.213
91241W        W63666  32.613  18.580   0.715
91242W        W63667  15.314  38.093  12.180
91243W        W63668  16.330  30.976  10.674
91244W        W63669  18.675   9.225  14.456
91245W        W63670  30.588  16.483   9.803
91246W        W63671  29.558  21.685  12.145
91247W        W63672  28.702   2.788   1.163
91248W        W63673  11.763   0.397  13.244
91249W        W63674  17.846  38.059  13.213
91250W        W63675  24.795   2.522   4.245
91251W        W63676  11.069   1.438   3.677
91252W        W63677  41.451  37.452   4.629
91253W        W63678   4.438  13.549  12.966
91254W        W63679   3.333  35.178   2.322
91255W        W63680   8.139  13.054   4.182
91256W        W63681  40.835  14.132  13.420
91257W        W63682  34.074  39.762   1.775
91258W        W63683  30.917  28.624  13.342
91259W        W63684  15.710  41.808   3.379
91260W        W63685  38.219   3.621   1.737
91261W        W63686   8.816   1.296   0.716
91262W        W63687   9.935  17.262   0.268
91263W        W63688  29.147  27.450  12.898
91264W        W63689   7.736  17.623  10.575
91265W        W63690  32.572   7.772  13.453
91266W        W63691  41.857  21.707   3.565
91267W        W63692  26.528  32.113   1.325
91268W        W63693  35.038  20.605  11.506
91269W        W63694   5.293  34.850   4.558
91270W        W63695   1.258  22.296   0.961
91271W        W63696   8.377  43.405   3.003
91272W        W63697  33.891  21.978  11.489
91273W        W63698  38.281  24.396  13.540
91274W        W63699   6.866  25.437   0.416
91275W        W63700  34.299  42.244  13.946
91276W        W63701  29.362  24.578   4.756
91277W        W63702  34.625  29.180   4.389
91278W        W63703  40.367   5.439  12.996
91279W        W63704  23.214  23.679   0.474
91280W        W63705  15.940  35.892   5.227
91281W        W63706  34.669   3.894  14.931
91282W        W63707   5.448  32.121  12.526
91283W        W63708  41.918  32.591  11.538
91284W        W63709  34.920  13.776  10.771
91285W        W63710  33.491   6.868   0.426
91286W        W63711  27.953  14.373   2.804
91287W        W63712  30.464   5.548   3.854
91288W        W63713  39.004  44.253   3.713
91289W        W63714  28.133  30.264   0.425
91290W        W63715  36.963  22.276  14.757
91291W        W63716  18.615  43.690   4.363
91292W        W63717  15.668   1.038   4.618
91293W        W63718  43.584  36.026  12.942
91294W        W63719  16.853  14.167   2.292
91295W        W63720   1.712  22.775  12.973
91296W        W63721   2.508  29.634   3.615
91297W        W63722   9.881  21.228  14.927
91298W        W63723  11.264  33.520   4.874
91299W        W63724  27.456  40.245   4.660
91300W        W63725  42.761  20.229   0.375
91301W        W63726  29.441  18.300   0.502
91302W        W63727  29.819  12.200   3.163
91303W        W63728  29.449  41.324   4.831
91304W        W63729  15.224  16.792   3.203
91305W        W63730  32.673   9.352  14.053
91306W        W63731  44.263  13.594   4.506
91307W        W63732  21.259  42.637   3.176
91308W        W63733  24.089  39.960   4.612
91309W        W63734  23.139  13.764  10.924
91310W        W63735   0.668  14.370   0.717
91311W        W63736  30.984  16.403  14.000
91312W        W63737  44.915  24.458  13.287
91313W        W63738  32.595  39.367   0.270
91314W        W63739  11.303  42.155  12.025
91315W        W63740  14.657   0.658   1.427
91316W        W63741  17.306  13.418   3.590
91317W        W63742  43.355  35.429   2.619
91318W        W63743  32.501  14.610   0.416
91319W        W63744   3.802  38.156   4.943
91320W        W63745  32.051  13.619   1.816
91321W        W63746  31.374   5.165  10.598
91322W        W63747  10.685   2.348  14.789
91323W        W63748  36.687  24.050   3.312
91324W        W63749  34.999  22.580   4.392
91325W        W63750  12.210   5.795  12.010
91326W        W63751  37.541  25.149  10.991
91327W        W63752  13.090   0.844   4.322
91328W        W63753  38.121  11.120   3.306
91329W        W63754  29.550   6.101   4.112
91330W        W63755  21.220  38.406  13.507
91331W        W63756  15.732  17.166   2.248
91332W        W63757   5.283  26.915   0.831
91333W        W63758  34.604  25.488  14.548
91334W        W63759  42.292  28.996   2.410
91335W        W63760  37.548  28.970  14.429
91336W        W63761  10.826  42.870   3.675
91337W        W63762  34.554  26.892  14.738
91338W        W63763   1.527   8.714   1.480
91339W        W63764  38.028  16.035  12.839
91340W        W63765   4.881  16.436   4.316
91341W        W63766  22.109  13.193   4.462
91342W        W63767   9.407   8.835  12.848
91343W        W63768  43.409  24.725  14.721
91344W        W63769  32.008   2.434  13.405
91345W        W63770  17.202  22.564   1.243
91346W        W63771  43.387  11.201   4.812
91347W        W63772  23.039  40.958   0.372
91348W        W63773  18.028  31.561   2.584
91349W        W63774  10.376  10.823  14.701
91350W        W63775   1.275  38.918   3.597
91351W        W63776  27.031   4.267  11.569
91352W        W63777  28.122   7.196  13.389
91353W        W63778  22.709   2.466   1.196
91354W        W63779  41.829  22.325   1.465
91355W        W63780  43.864   9.101   0.231
91356W        W63781  27.036  29.195   2.218
91357W        W63782   8.876  10.692   4.900
91358W        W63783  18.353   5.244   2.730
91359W        W63784  39.604  44.980   4.631
91360W        W63785  42.958  21.030   0.920
91361W        W63786  11.292  39.963  10.729
91362W        W63787   6.244   6.872   0.941
91363W        W63788  10.428   9.289   2.177
91364W        W63789   1.301  19.891  14.572
91365W        W63790   6.773  37.969   0.331
91366W        W63791  13.664   5.005  10.432
91367W        W63792  39.850  12.737  12.350
91368W        W63793   4.554  33.550  10.858
91369W        W63794  23.212   1.699   4.580
91370W        W63795  25.944  11.200  12.987
91371W        W63796   8.476  10.359  11.544
91372W        W63797  39.893  42.398  13.072
91373W        W63798  10.234  19.341  13.132
91374W        W63799  30.687   8.248   3.185
91375W        W63800  40.457  16.457  13.015
91376W        W63801  23.656  14.181  12.510
91377W        W63802   3.903   4.823  13.807
91378W        W63803  32.391  27.165   3.850
91379W        W63804  43.539  13.241   0.927
91380W        W63805  22.547  36.005  12.404
91381W        W63806  14.850  20.117  11.152
91382W        W63807  18.268  26.598  14.431
91383W        W63808  26.716  18.057   1.756
91384W        W63809  33.614  18.592   2.767
91385W        W63810   0.534  12.058   1.306
91386W        W63811   2.976  19.533  14.903
91387W        W63812  32.227  43.266  11.517
91388W        W63813  21.678   9.299   1.911
91389W        W63814   9.739  38.574  10.851
91390W        W63815  16.776  29.023  14.874
91391W        W63816  26.649  14.746   4.164
91392W        W63817  12.316   2.178   2.227
91393W        W63818  43.456  28.450   0.582
91394W        W63819  37.103  28.558   0.374
91395W        W63820  18.245  42.499   1.081
91396W        W63821  25.467  10.752  13.493
91397W        W63822  34.686  13.986  13.110
91398W        W63823  34.342  17.641   2.212
91399W        W63824   2.915  32.920  12.621
91400W        W63825  13.082  43.913  12.901
91401W        W63826  35.888  31.165   4.582
91402W        W63827  40.902  22.528  10.668
91403W        W63828  17.137  19.920  12.918
91404W        W63829   6.720  29.969  13.964
91405W        W63830  13.986  44.482   3.609
91406W        W63831  22.222  19.365   4.091
91407W        W63832  33.610  33.177   2.565
91408W        W63833  36.151  32.897  12.879
91409W        W63834  25.583  32.398  13.550
91410W        W63835  42.286  10.821  13.920
91411W        W63836  17.470  34.852   1.811
91412W        W63837  24.028  24.908   5.084
91413W        W63838  37.591  44.036   2.293
91414W        W63839  22.284  24.166  14.477
91415W        W63840   4.372  13.154   2.619
91416W        W63841  26.174  43.094   2.433
91417W        W63842  27.936  29.724   2.139
91418W        W63843   1.736  14.679   1.826
91419W        W63844  15.226   9.194  13.659
91420W        W63845  31.138  29.227   1.397
91421W        W63846  20.667  28.197   4.332
91422W        W63847  18.972  19.608   2.201
91423W        W63848  28.202  29.280  14.435
91424W        W63849  15.228  44.490  11.503
91425W        W63850   0.536  12.122  14.757
91426W        W63851  13.213   2.391   4.232
91427W        W63852   2.727   6.839   4.547
91428W        W63853  43.723  30.922   2.216
91429W        W63854  12.159  16.960  11.195
91430W        W63855  21.764  41.306   1.281
91431W        W63856  31.466  36.336  13.423
91432W        W63857  23.362   3.243  13.521
91433W        W63858  15.160  18.185   4.422
91434W        W63859  23.378  25.258   0.825
91435W        W63860  44.768  12.632   2.158
91436W        W63861   8.713  39.806   1.851
91437W        W63862  33.913  27.010  12.049
91438W        W63863  26.583   1.795  11.505
91439W        W63864   1.380  23.701   0.510
91440W        W63865  35.746  18.968  10.655
91441W        W63866  31.188  20.691   4.809
91442W        W63867  27.690   6.956   0.341
91443W        W63868  31.139  32.219  14.181
91444W        W63869   8.691  30.263  11.103
91445W        W63870  18.067  18.630   2.751
91446W        W63871  27.452   6.741   2.805
91447W        W63872  13.527   3.952   1.570
91448W        W63873  39.948  29.369   1.846
91449W        W63874  28.894  43.176  14.644
91450W        W63875   7.775  44.815  11.973
91451W        W63876  36.010  25.403   2.874
91452W        W63877  22.531  14.384   1.285
91453W        W63878  29.540  44.983  10.692
91454W        W63879   7.148  23.283   4.069
91455W        W63880   4.658  19.807  11.882
91456W        W63881  44.711  35.127  11.993
91457W        W63882  31.190   5.661  13.366
91458W        W63883  32.586  35.566   4.807
91459W        W63884   1.852  37.223   4.565
91460W        W63885  10.794  34.735   0.021
91461W        W63886  44.555   5.819  10.997
91462W        W63887  16.615  17.463  14.481
91463W        W63888  39.828   7.955   3.314
91464W        W63889  28.038   4.903   0.872
91465W        W63890  27.855  27.930  11.393
91466W        W63891  29.496  33.461   3.534
91467W        W63892   6.356  12.540  14.917
91468W        W63893  34.920   4.534   3.077
91469W        W63894  21.980  11.835   2.199
91470W        W63895  21.515   3.747   3.734
91471W        W63896  35.729  24.660   2.834
91472W        W63897   0.392  41.081   3.395
91473W        W63898  32.621   5.534   4.730
91474W        W63899  40.316   0.205  12.005
91475W        W63900  17.925  10.416   2.741
91476W        W63901  27.924  41.630  14.979
91477W        W63902  12.643   5.688   1.001
91478W        W63903  26.013  22.253  12.817
91479W        W63904   8.434  34.063  11.591
91480W        W63905  20.426  18.531   2.658
91481W        W63906  35.354   2.018  10.597
91482W        W63907  11.575  26.140  11.174
91483W        W63908  19.645  39.619   2.635
91484W        W63909  26.376  27.613   0.846
91485W        W63910  24.462  15.611  13.911
91486W        W63911   4.392   2.734  10.610
91487W        W63912  29.448  10.562  12.068
91488W        W63913   2.228  35.598  12.540
91489W        W63914  20.577  35.429  11.534
91490W        W63915  13.654  42.515  13.511
91491W        W63916   9.313   7.920   3.645
91492W        W63917  30.033   0.506  14.106
91493W        W63918  41.532   9.883  12.005
91494W        W63919  29.156  10.252   0.372
91495W        W63920  10.394  23.248   1.827
91496W        W63921  13.426  15.669   3.731
91497W        W63922  13.354   2.027  12.995
91498W        W63923  32.509  13.319   1.770
91499W        W63924  37.160  37.112  11.469
91500W        W63925  13.600   0.265   2.341
91501W        W63926   9.542  42.919  14.840
91502W        W63927   7.877   6.452   5.358
91503W        W63928  31.492  43.841   1.349
91504W        W63929  27.512  12.262   0.200
91505W        W63930  37.964  41.079  13.989
91506W        W63931  26.885   1.827  11.064
91507W        W63932  24.089  36.077   4.514
91508W        W63933  30.171   3.860  12.482
91509W        W63934  22.155  41.388  13.462
91510W        W63935  22.602   3.401   3.145
91511W        W63936  30.797   2.757  13.922
91512W        W63937  21.318  32.806  14.379
91513W        W63938  12.311  24.713  14.073
91514W        W63939  18.983   5.962  14.813
91515W        W63940  10.664  39.452   4.392
91516W        W63941  17.489   8.714   0.412
91517W        W63942  22.044  40.975   3.792
91518W        W63943  20.600  33.971  11.462
91519W        W63944  11.712  24.036   3.870
91520W        W63945   3.410  23.506  13.062
91521W        W63946  21.258  28.335  14.692
91522W        W63947  26.710  17.068   2.756
91523W        W63948  43.058  29.833  12.550
91524W        W63949  29.562  32.861   4.210
91525W        W63950  23.902   9.287  11.023
91526W        W63951  20.135   9.408   1.904
91527W        W63952  32.935   4.922   3.773
91528W        W63953  37.555   2.515   2.244
91529W        W63954  33.672  25.410  14.040
91530W        W63955  39.462   0.793  14.029
91531W        W63956  39.493  17.038   3.192
91532W        W63957  40.311  30.852   1.694
91533W        W63958  12.306  43.540   1.936
91534W        W63959  26.091  24.784   0.176
91535W        W63960  43.330  40.466  12.391
91536W        W63961  11.108  17.324   4.558
91537W        W63962  10.329   8.829  10.682
91538W        W63963  33.094  29.233  14.041
91539W        W63964  12.631   4.273  11.630
91540W        W63965  15.599  19.304   3.743
91541W        W63966  40.291  23.993  12.624
91542W        W63967  26.876   7.075   5.187
91543W        W63968  18.717   6.347  11.289
91544W        W63969  18.061  11.714  12.465
91545W        W63970  12.339  31.435   4.447
91546W        W63971  17.609  34.425   0.387
91547W        W63972  25.961  14.200  14.941
91548W        W63973  26.450  33.010   5.002
91549W        W63974  33.077   5.781  10.671
91550W        W63975  36.617  21.637   0.970
91551W        W63976  26.545  12.118  14.362
91552W        W63977  36.895  18.539  12.586
91553W        W63978   4.950  20.262  14.913
91554W        W63979  39.859  24.759   2.680
91555W        W63980  32.446   1.957  14.420
91556W        W63981  21.144  27.528  14.025
91557W        W63982   1.268  38.763   2.758
91558W        W63983  15.785  24.633  12.554
91559W        W63984  14.277  25.537   1.792
91560W        W63985  10.424  40.527   4.553
91561W        W63986  24.424  38.329   1.687
91562W        W63987  29.346  40.789  12.802
91563W        W63988  23.199   4.612   0.541
91564W        W63989   4.222   8.099  13.343
91565W        W63990  43.527   9.322   2.261
91566W        W63991  36.115  34.236  12.150
91567W        W63992  27.542  29.892   0.926
91568W        W63993  41.815  29.928   1.345
91569W        W63994  30.883   1.408  10.839
91570W        W63995   1.764  25.698  14.189
91571W        W63996  39.593  26.519   2.529
91572W        W63997  30.100  36.552   0.384
91573W        W63998  31.455  44.800   3.331
91574W        W63999  32.722  40.404  11.477
91575W        W64000  16.122  43.185   3.753
91576W        W64001   9.876  23.904  12.835
91577W        W64002  33.389   1.284   4.402
91578W        W64003  30.031  11.745  11.420
91579W        W64004  20.716  22.582  12.934
91580W        W64005  28.502  41.266   1.001
91581W        W64006  37.572  24.552  11.362
91582W        W64007  37.985  18.596   2.110
91583W        W64008  27.251  11.808   1.815
91584W        W64009  19.301  33.537  10.191
91585W        W64010  30.356  20.788  13.541
91586W        W64011  42.131  24.672  10.896
91587W        W64012  23.418  17.396  12.389
91588W        W64013   2.587  23.087   0.696
91589W        W64014  44.617  35.563   0.077
91590W        W64015  14.174  43.754  12.176
91591W        W64016  20.827  12.356  10.680
91592W        W64017  17.779   6.857  11.218
91593W        W64018  31.714  31.594  10.520
91594W        W64019   6.856  14.296   0.017
91595W        W64020   1.011  39.546  12.095
91596W        W64021  31.382  39.891   3.596
91597W        W64022  30.688  23.622  12.146
91598W        W64023  10.379  22.537  14.935
91599W        W64024  29.265  22.182   1.014
91600W        W64025  40.270   4.416  13.016
91601W        W64026  16.678  43.336  13.809
91602W        W64027  37.466  12.838   0.350
91603W        W64028   0.605  32.794  11.035
91604W        W64029  29.517  30.322   5.639
91605W        W64030  12.763   7.521   1.227
91606W        W64031  10.911   3.425  11.187
91607W        W64032  27.404  12.309  12.055
91608W        W64033  24.946  11.221   3.791
91609W        W64034   7.942  42.604   1.261
91610W        W64035  11.816  24.666   1.237
91611W        W64036  31.934  36.466   4.132
91612W        W64037  26.506  32.580  14.007
91613W        W64038  37.895  25.911  12.901
91614W        W64039  14.465  15.487  11.097
91615W        W64040  28.928  19.143  11.243
91616W        W64041  29.715  41.104   4.127
91617W        W64042  30.645  28.979   2.279
91618W        W64043  43.284  28.473  11.203
91619W        W64044   4.690  27.073   3.864
91620W        W64045  28.641   7.841   3.273
91621W        W64046   8.436  25.735  11.091
91622W        W64047  38.308  30.955  13.471
91623W        W64048  44.687  14.619   0.972
91624W        W64049  15.803  10.145  14.413
91625W        W64050  29.122  29.204   4.420
91626W        W64051  20.165  39.466  10.959
91627W        W64052  44.274   5.722   4.224
91628W        W64053  39.320   9.435  11.188
91629W        W64054  36.634  27.258   4.583
91630W        W64055  38.357  25.013   1.929
91631W        W64056  25.526  29.700  12.048
91632W        W64057   0.083  12.937   1.811
91633W        W64058  27.694  23.101   3.508
91634W        W64059  23.108   3.168   0.530
91635W        W64060  27.998  33.830   4.120
91636W        W64061  12.048   6.456   5.191
91637W        W64062  13.226   0.462   4.960
91638W        W64063  22.593  29.695   4.538
91639W        W64064  20.620  19.607  11.357
91640W        W64065  16.106   6.261  14.737
91641W        W64066   1.813   3.280  14.015
91642W        W64067   3.387   3.103  12.862
91643W        W64068  32.509  18.231   2.408
91644W        W64069  33.460  17.291  11.668
91645W        W64070  17.744  32.509  12.427
91646W        W64071  17.723  44.224   1.727
91647W        W64072  12.551   9.093  13.651
91648W        W64073  16.687  31.535   5.616
91649W        W64074  36.327   1.733   1.279
91650W        W64075   6.204  42.530   3.823
91651W        W64076  34.890   0.574  11.971
91652W        W64077  16.571  11.314  14.954
91653W        W64078  29.496  22.414   0.375
91654W        W64079  19.435   7.259  10.784
91655W        W64080  32.991  35.625  12.033
91656W        W64081  44.300   6.140   4.649
91657W        W64082  28.593   6.818   4.547
91658W        W64083  34.035  16.591   3.989
91659W        W64084  24.059  25.329  12.131
91660W        W64085  12.702   6.716   1.040
91661W        W64086  43.945  28.678   3.014
91662W        W64087  34.557  23.944   1.887
91663W        W64088  29.270  34.118  11.910
91664W        W64089  20.047  42.023  14.469
91665W        W64090  43.949  13.452  14.032
91666W        W64091   3.950  12.299  10.676
91667W        W64092  34.609  26.560   4.014
91668W        W64093   5.304  44.190  10.637
91669W        W64094  41.218  17.813   1.274
91670W        W64095  26.029  30.632  14.806
91671W        W64096   8.886   3.418  13.201
91672W        W64097  31.601  11.088  14.853
91673W        W64098   0.718  21.715   1.398
91674W        W64099  34.971  43.996  14.034
91675W        W64100  42.590  15.027  12.027
91676W        W64101   6.659  43.023  14.458
91677W        W64102   4.392  41.283   1.635
91678W        W64103  24.413  43.016  13.664
91679W        W64104  30.094  23.292   3.146
91680W        W64105   9.278  43.549   3.884
91681W        W64106  37.030   8.267   2.638
91682W        W64107  28.703  27.397   2.258
91683W        W64108  24.298  38.395   1.205
91684W        W64109  28.156  16.965  14.060
91685W        W64110  34.070  21.402   2.494
91686W        W64111  29.048  17.096   4.366
91687W        W64112  13.142  14.856   4.144
91688W        W64113  37.864  31.202  12.064
91689W        W64114  35.169  16.960   4.583
91690W        W64115  27.371  11.593  11.832
91691W        W64116  16.125  22.749   0.625
91692W        W64117  42.071   8.209   3.497
91693W        W64118  38.986  31.704   4.490
91694W        W64119   1.907  28.177  13.936
91695W        W64120  28.661  26.394  12.326
91696W        W64121  27.043  41.253   3.792
91697W        W64122   5.831  25.130   0.427
91698W        W64123  39.872  36.613  14.306
91699W        W64124   2.523  29.459  13.027
91700W        W64125  41.983  15.048   2.861
91701W        W64126  31.090  40.991   4.391
91702W        W64127   6.594  15.619  11.194
91703W        W64128  16.692  37.942  11.331
91704W        W64129   6.439  41.956  14.274
91705W        W64130  26.799   2.779   2.299
91706W        W64131  21.227  28.001  10.147
91707W        W64132  33.074  26.403  12.033
91708W        W64133   8.045   0.433  12.764
91709W        W64134  42.758  33.459   4.266
91710W        W64135  27.539   1.753  12.406
91711W        W64136  44.014   7.341  14.070
91712W        W64137   3.199  33.817  12.945
91713W        W64138  23.953  39.490  11.092
91714W        W64139  12.352   9.723   1.604
91715W        W64140   1.438  18.886  12.935
91716W        W64141  40.075  12.252   0.411
91717W        W64142  14.241  27.319  11.110
91718W        W64143  19.682  18.246   3.126
91719W        W64144   7.299   9.289   3.817
91720W        W64145  18.221  27.060  13.484
91721W        W64146   3.488  18.831   1.931
91722W        W64147  22.003  37.535  14.306
91723W        W64148  33.461  12.795   3.639
91724W        W64149  15.334  15.721  14.554
91725W        W64150  24.746  30.380   0.875
91726W        W64151  12.773  13.644   1.821
91727W        W64152   2.800  36.538   1.226
91728W        W64153  37.871  43.489  10.072
91729W        W64154  37.433   3.941  14.425
91730W        W64155  43.340   0.027   1.344
91731W        W64156  33.656  23.620  11.976
91732W        W64157   4.824   3.769   0.441
91733W        W64158  15.347  38.073   3.253
91734W        W64159   2.269  27.131   0.498
91735W        W64160   2.904  30.920   3.375
91736W        W64161  38.856  39.411   3.271
91737W        W64162  39.775  23.500   0.776
91738W        W64163  34.092  22.823  14.759
91739W        W64164  14.458  40.980  13.040
91740W        W64165  37.279   2.260   4.487
91741W        W64166   3.412  42.458   1.433
91742W        W64167  26.632  19.301  11.986
91743W        W64168   7.309   2.467  12.647
91744W        W64169  34.386  16.991   4.186
91745W        W64170  25.096  14.020   1.850
91746W        W64171   8.462  33.822  13.026
91747W        W64172  30.144  16.171   3.688
91748W        W64173  33.531  23.123   1.929
91749W        W64174  36.931  34.577   2.576
91750W        W64175  14.232   9.231   3.936
91751W        W64176  22.760  26.165  10.912
91752W        W64177  14.876  11.333  13.133
91753W        W64178  40.558  14.724   3.629
91754W        W64179   1.495  13.448  12.437
91755W        W64180  12.603  39.137  13.604
91756W        W64181  30.904  37.233  11.599
91757W        W64182   2.955  22.269  12.695
91758W        W64183  40.716  29.985   3.250
91759W        W64184  34.207  13.779   0.857
91760W        W64185  44.476  13.887   2.581
91761W        W64186   1.787   8.389   1.863
91762W        W64187  38.069  39.359  11.945
91763W        W64188  42.436   6.308   3.247
91764W        W64189  28.456  43.493   3.745
91765W        W64190  18.271  35.335   1.871
91766W        W64191   2.691   4.621   0.796
91767W        W64192  12.740  12.816   4.370
91768W        W64193   8.165  36.879   0.020
91769W        W64194  44.774  21.984   4.889
91770W        W64195  10.612  23.283  12.811
91771W        W64196  19.145  33.437  13.875
91772W        W64197   5.288  26.872  14.146
91773W        W64198  33.107   2.571   3.531
91774W        W64199  21.477  38.007   1.877
91775W        W64200   1.406  15.696  10.624
91776W        W64201  33.045  13.139   4.247
91777W        W64202  37.484  22.619   0.911
91778W        W64203  29.205  17.761  12.856
91779W        W64204   6.125  36.024  13.109
91780W        W64205   5.206  28.677   1.317
91781W        W64206  39.328   5.462  12.107
91782W        W64207  15.897  11.393   3.964
91783W        W64208  30.282  23.545  14.442
91784W        W64209  27.912  28.624   0.769
91785W        W64210  30.980  34.524   0.427
91786W        W64211   1.865  33.116   0.863
91787W        W64212  20.666  12.144   1.435
91788W        W64213  43.932  42.339   4.871
91789W        W64214  30.989   2.923  14.374
91790W        W64215  10.817  14.662  14.380
91791W        W64216  13.214  28.081  14.980
91792W        W64217  37.487  42.321  14.675
91793W        W64218  23.213   1.766  12.376
91794W        W64219  19.099   7.056   3.391
91795W        W64220  39.999  38.969   4.405
91796W        W64221  43.543  25.451  13.830
91797W        W64222   9.201   1.739   0.270
91798W        W64223  17.908   2.890   2.196
91799W        W64224  16.470  34.825   1.604
91800W        W64225  43.508  41.476  13.717
91801W        W64226  24.503  19.098  14.992
91802W        W64227   8.069  27.978   3.165
91803W        W64228  11.843  17.616   0.848
91804W        W64229  15.661   9.434   4.083
91805W        W64230   6.592   2.447  14.271
91806W        W64231  23.459   8.011  13.914
91807W        W64232  17.997  23.346  11.881
91808W        W64233   2.391  33.895   5.003
91809W        W64234  22.666  11.446  12.173
91810W        W64235   1.551   1.398   0.754
91811W        W64236  26.425  24.861   2.667
91812W        W64237   6.884  16.062   3.290
91813W        W64238  35.736  28.451  12.477
91814W        W64239  37.033  11.648  13.870
91815W        W64240  27.388  36.922   3.854
91816W        W64241  22.939  39.525  11.141
91817W        W64242  14.066   3.700  10.757
91818W        W64243  19.284  27.655   1.766
91819W        W64244  38.034   6.508   2.373
91820W        W64245  24.481  11.351   1.275
91821W        W64246  21.282  39.342  14.698
91822W        W64247  13.670  43.595  11.912
91823W        W64248  14.992  21.608  11.571
91824W        W64249  16.101  43.737   2.220
91825W        W64250  16.272  41.675  12.878
91826W        W64251  34.798  28.368   0.940
91827W        W64252   1.779  39.922  12.390
91828W        W64253  15.994   5.740  14.926
91829W        W64254  14.785  42.738   1.540
91830W        W64255  25.315   7.608   2.401
91831W        W64256  12.693   0.967  11.553
91832W        W64257  20.522  27.062   0.176
91833W        W64258  17.022  11.011   0.869
91834W        W64259  20.621   5.111   4.574
91835W        W64260  23.431  38.326   4.681
91836W        W64261   0.498   1.851  14.192
91837W        W64262  14.066  19.520   5.034
91838W        W64263  18.097  43.058   3.688
91839W        W64264  21.722   7.832  10.579
91840W        W64265  43.627  37.361   1.742
91841W        W64266  11.730  16.872   2.201
91842W        W64267  19.376  37.702  14.210
91843W        W64268  12.338  30.323   1.067
91844W        W64269  18.559  35.014  10.356
91845W        W64270   9.261   0.349   1.846
91846W        W64271  21.139  11.655  12.539
91847W        W64272  27.200  22.156  10.506
91848W        W64273   1.375  36.630   0.902
91849W        W64274  12.329   7.336   1.020
91850W        W64275  34.633  14.979  13.020
91851W        W64276  37.426  38.617   2.653
91852W        W64277  41.753  40.785   4.152
91853W        W64278  44.425   4.492   3.389
91854W        W64279   1.418   9.173   1.749
91855W        W64280   3.745  23.438  11.177
91856W        W64281  11.158  26.117   0.365
91857W        W64282  19.267  35.902   4.679
91858W        W64283  35.913   9.347  13.373
91859W        W64284  33.889   1.297  13.726
91860W        W64285  36.600  10.804   1.282
91861W        W64286  23.740  32.596  12.052
91862W        W64287   3.154   4.489  13.413
91863W        W64288  42.961  36.403  12.767
91864W        W64289   2.309  27.542   1.231
91865W        W64290   2.998  35.104   1.246
91866W        W64291  38.110  40.467   4.364
91867W        W64292  17.136   9.175   2.028
91868W        W64293   4.779  39.294  14.899
91869W        W64294  20.154   9.005   4.752
91870W        W64295  28.975  29.452  14.819
91871W        W64296  44.772  11.154  13.672
91872W        W64297  23.135  26.743  13.079
91873W        W64298  29.115  31.607  14.676
91874W        W64299  14.021  19.545   2.770
91875W        W64300  42.885  19.060   1.827
91876W        W64301  24.843  24.533  14.300
91877W        W64302  15.760  21.748   3.762
91878W        W64303  28.876  29.631   4.081
91879W        W64304  33.486  39.354   2.358
91880W        W64305  38.156   9.838   0.012
91881W        W64306  38.407  34.255  12.026
91882W        W64307  16.025  36.344   3.404
91883W        W64308  20.621   3.882  11.186
91884W        W64309  34.433  12.605   2.169
91885W        W64310   4.526   2.433  13.489
91886W        W64311  23.221  18.989  11.657
91887W        W64312  42.982  22.549   4.738
91888W        W64313   8.620  18.899   3.549
91889W        W64314  34.120   3.367  10.810
91890W        W64315  34.059  34.635   2.093
91891W        W64316  29.002  27.491  14.766
91892W        W64317  19.298   6.953  11.193
91893W        W64318   7.079  21.950  11.315
91894W        W64319  24.262  19.680   4.083
91895W        W64320   6.858  43.516  14.507
91896W        W64321   7.212  44.722   2.277
91897W        W64322  26.811   0.713   3.334
91898W        W64323  38.549   1.871   4.182
91899W        W64324  42.665   2.020   3.460
91900W        W64325  25.247  17.521   3.189
91901W        W64326  25.527  14.646  13.373
91902W        W64327  39.897  42.317   3.313
91903W        W64328  32.426  16.001  13.965
91904W        W64329  41.944   8.717  13.331
91905W        W64330  24.760  31.033  10.724
91906W        W64331  30.724  23.090   0.305
91907W        W64332  24.196  37.367  14.338
91908W        W64333  18.080  21.360   3.905
91909W        W64334  14.086  42.797  14.294
91910W        W64335  41.236  16.376   2.355
91911W        W64336  10.326  39.985  14.936
91912W        W64337  21.441  40.900   1.235
91913W        W64338   5.119  40.980  11.960
91914W        W64339  14.669  32.332   0.415
91915W        W64340  27.379   0.870  14.499
91916W        W64341  14.746   1.172   1.372
91917W        W64342  18.521   1.435   2.216
91918W        W64343  33.430  11.777   1.198
91919W        W64344   1.482   0.517  11.429
91920W        W64345  11.789  37.007   9.967
91921W        W64346  26.606  40.257   4.265
91922W        W64347  37.133  44.336   1.413
91923W        W64348   5.471  24.383  14.113
91924W        W64349  42.447  18.324  12.471
91925W        W64350   0.460  43.772  14.290
91926W        W64351  19.639   5.348  11.560
91927W        W64352  12.146  11.914  13.640
91928W        W64353  31.490  44.381   2.154
91929W        W64354   0.325  27.587   0.447
91930W        W64355  42.429  22.589   2.785
91931W        W64356   5.651  18.445   2.239
91932W        W64357  40.969  36.064  11.007
91933W        W64358  28.680   5.239   1.663
91934W        W64359  36.078  22.652  12.568
91935W        W64360  34.723   4.851   5.027
91936W        W64361  40.060   6.623   2.683
91937W        W64362  19.783  26.286  13.366
91938W        W64363  14.762  36.820   4.843
91939W        W64364  30.685   9.387   3.319
91940W        W64365  30.121  39.677   0.034
91941W        W64366  40.056  18.565   3.589
91942W        W64367  21.595   8.342  10.937
91943W        W64368  28.390  39.037  11.994
91944W        W64369   0.835  20.533   3.691
91945W        W64370  15.016   9.904   0.715
91946W        W64371  20.022  19.420   2.180
91947W        W64372  23.784  34.375   4.886
91948W        W64373  10.346  27.036  13.662
91949W        W64374  15.608  36.314   4.241
91950W        W64375  36.301  25.038  11.457
91951W        W64376   9.886  17.948   3.838
91952W        W64377  10.923  32.093  12.514
91953W        W64378  26.805  27.220   3.539
91954W        W64379  30.578  40.974   0.026
91955W        W64380   6.003  19.651  11.793
91956W        W64381   4.801  16.570   0.359
91957W        W64382  39.347   3.796  14.765
91958W        W64383   7.116  40.786  12.087
91959W        W64384  34.445  42.337  11.369
91960W        W64385  38.949  15.615   5.038
91961W        W64386  24.649  37.927   4.450
91962W        W64387  27.675  26.980   3.400
91963W        W64388   5.855   6.278   4.062
91964W        W64389  41.087  42.057  13.425
91965W        W64390  28.419   3.862   2.543
91966W        W64391   1.902  32.397  11.107
91967W        W64392  39.579  31.583   0.798
91968W        W64393  23.161  39.967  12.470
91969W        W64394  11.111  22.582   1.805
91970W        W64395   4.508  30.951   2.192
91971W        W64396  12.114  30.916   0.829
91972W        W64397  38.071   4.310   0.332
91973W        W64398  18.131   0.726  10.223
91974W        W64399  28.775  23.862  13.414
91975W        W64400  26.932  19.809   3.164
91976W        W64401  13.262  15.232   2.608
91977W        W64402  15.589   7.758   1.785
91978W        W64403   9.805  21.902   3.795
91979W        W64404  44.887  34.594  14.820
91980W        W64405  13.131   6.328   4.006
91981W        W64406  33.578  30.528  14.385
91982W        W64407  17.024   7.162   1.767
91983W        W64408  27.396   8.107  13.833
91984W        W64409  42.940   0.480   5.023
91985W        W64410   6.343  20.483   1.347
91986W        W64411  11.656   3.751   2.897
91987W        W64412  41.809   9.378  11.388
91988W        W64413  15.782  41.431   4.166
91989W        W64414  22.841  35.072  10.961
91990W        W64415   6.807  31.504  12.805
91991W        W64416  21.269  23.891  14.895
91992W        W64417  22.177  43.980   3.331
91993W        W64418  44.418   0.930  13.529
91994W        W64419  31.025  21.338  14.542
91995W        W64420   4.949  11.906   0.997
91996W        W64421  27.980  12.190  12.989
91997W        W64422  40.327  13.845   1.967
91998W        W64423  30.119  11.232   0.319
91999W        W64424  39.590   2.285  13.915
92000W        W64425   4.300  14.670   4.095
92001W        W64426   4.253  14.841  10.690
92002W        W64427  34.040   1.820  14.911
92003W        W64428  37.374  33.312   4.536
92004W        W64429  23.955   5.584  10.505
92005W        W64430  40.846  22.073   2.465
92006W        W64431  33.461  13.552   4.328
92007W        W64432  27.678  18.026   4.782
92008W        W64433  34.518  11.571   4.872
92009W        W64434  40.355  17.207  13.784
92010W        W64435  37.985  38.948   3.133
92011W        W64436  34.020   5.312  14.030
92012W        W64437  29.560   9.597  13.474
92013W        W64438  26.975  26.642   0.340
92014W        W64439  20.327  25.142  12.242
92015W        W64440  20.741   1.948   4.676
92016W        W64441   8.298  21.789  12.437
92017W        W64442  17.832  42.792   0.884
92018W        W64443  36.984   7.940   0.449
92019W        W64444  17.539  16.611  13.709
92020W        W64445  26.132  41.227   0.474
92021W        W64446  22.615  23.422   3.314
92022W        W64447   4.239  13.635  12.065
92023W        W64448   6.927  27.365   3.718
92024W        W64449  18.328  32.624  14.335
92025W        W64450  37.819  33.124  10.032
92026W        W64451  31.946  17.013  14.628
92027W        W64452   3.702  11.625   3.151
92028W        W64453  22.329  17.749  12.488
92029W        W64454  17.659  42.501   2.154
92030W        W64455  39.493   5.195  12.494
92031W        W64456   8.373  36.878   1.393
92032W        W64457  40.957  19.150   1.605
92033W        W64458  18.481  18.656  14.305
92034W        W64459  31.903  31.598   3.867
92035W        W64460  43.536  26.698   4.249
92036W        W64461  25.155   3.203   0.370
92037W        W64462  28.966  21.530   3.722
92038W        W64463  26.083  43.261   0.964
92039W        W64464  13.845  12.253   0.308
92040W        W64465  15.287  11.661  14.561
92041W        W64466  14.882   3.719   4.613
92042W        W64467   8.236   4.333  10.690
92043W        W64468  28.556  20.825   4.332
92044W        W64469  17.044  42.826  11.682
92045W        W64470  11.896   7.773  13.926
92046W        W64471   5.051  10.570   0.404
92047W        W64472   3.194  13.043  14.375
92048W        W64473   6.489  38.091   3.132
92049W        W64474  29.642   3.750   1.961
92050W        W64475   4.877  29.471   3.652
92051W        W64476  16.797  37.883  13.942
92052W        W64477  29.893  30.547   1.815
92053W        W64478   2.306  18.425  12.888
92054W        W64479  25.033  42.251  12.270
92055W        W64480   9.714  20.110  11.565
92056W        W64481  34.957  33.135  11.568
92057W        W64482  34.841  30.031  11.271
92058W        W64483  34.589  21.455   3.710
92059W        W64484  24.123  33.134   3.744
92060W        W64485  25.158  42.096  14.713
92061W        W64486   3.359  30.683   3.191
92062W        W64487  20.268  13.510  10.887
92063W        W64488  41.459  19.594  14.018
92064W        W64489  16.082  37.680   2.737
92065W        W64490  44.783  44.240  12.566
92066W        W64491  38.337  32.352  13.774
92067W        W64492  12.378  26.922   0.548
92068W        W64493  12.033  11.114   3.633
92069W        W64494  20.874  19.568   0.457
92070W        W64495  19.560  10.825  12.376
92071W        W64496  38.352   6.941   1.993
92072W        W64497  12.284   1.237  14.013
92073W        W64498  31.679   8.960   0.555
92074W        W64499  43.475  23.100   4.156
92075W        W64500  16.526   7.806   4.926
92076W        W64501  34.959  42.906  12.041
92077W        W64502   2.642  18.609   1.704
92078W        W64503  24.361  16.965  13.768
92079W        W64504  35.935  19.849  10.536
92080W        W64505   5.418  27.731  11.457
92081W        W64506  18.672  19.129   2.667
92082W        W64507  21.794  28.897  11.654
92083W        W64508  19.380  14.677   2.150
92084W        W64509  43.474   8.156  11.118
92085W        W64510  18.684  22.936   4.593
92086W        W64511  41.116  26.060   1.514
92087W        W64512   0.207  14.730  14.985
92088W        W64513  24.471  20.526   5.010
92089W        W64514   0.462  41.016   0.428
92090W        W64515  15.241  44.216   2.896
92091W        W64516  27.678  39.077  10.919
92092W        W64517   4.249  14.312  11.542
92093W        W64518  40.498  12.941   4.645
92094W        W64519   3.819  14.353   2.709
92095W        W64520  19.515   0.852  12.105
92096W        W64521  16.629  22.790  12.604
92097W        W64522   8.866   1.462   1.747
92098W        W64523  12.320   8.223  12.222
92099W        W64524  34.105  38.656   3.561
92100W        W64525  14.701  24.911   2.871
92101W        W64526  26.563  20.212  11.949
92102W        W64527   6.361   6.118  13.827
92103W        W64528  41.920  33.556   2.711
92104W        W64529  34.556   9.811  14.436
92105W        W64530  14.786  31.569  14.726
92106W        W64531  35.077   0.308  10.512
92107W        W64532  37.871   9.178  12.407
92108W        W64533   1.750  38.292  10.732
92109W        W64534  13.243  21.152  10.199
92110W        W64535  22.783  15.601   4.146
92111W        W64536  30.592  10.646  11.571
92112W        W64537  17.699  22.518  13.477
92113W        W64538  44.085  44.385   1.932
92114W        W64539  38.302   0.114  13.080
92115W        W64540   5.298  27.171   3.835
92116W        W64541  31.819  19.135  13.434
92117W        W64542  23.761   7.846  12.394
92118W        W64543  21.315   7.289  11.198
92119W        W64544  22.826  41.474  14.524
92120W        W64545  13.588  17.120  12.102
92121W        W64546  12.710   1.529   1.431
92122W        W64547  43.501  22.130  13.499
92123W        W64548  42.471  35.189   0.811
92124W        W64549  37.970  25.058   0.210
92125W        W64550  16.859  12.193   0.258
92126W        W64551  12.138  20.141   3.265
92127W        W64552  37.020  44.265   3.252
92128W        W64553  44.432  37.774   4.119
92129W        W64554   8.925  11.658   2.728
92130W        W64555  43.566   8.693   5.051
92131W        W64556  12.570  23.582   0.917
92132W        W64557  18.797   1.961   2.788
92133W        W64558  38.057  29.524   3.337
92134W        W64559  22.744  17.326   1.532
92135W        W64560  29.258  12.737  11.726
92136W        W64561  22.685  17.776   1.303
92137W        W64562  14.250   9.067   3.400
92138W        W64563   9.307   9.614   1.660
92139W        W64564  22.383  23.574   4.241
92140W        W64565  26.196  42.729   1.822
92141W        W64566  16.789  14.341  12.523
92142W        W64567  30.497   7.284  12.781
92143W        W64568  43.013  18.888   2.320
92144W        W64569  43.046  26.793   3.691
92145W        W64570  33.917  28.211  13.878
92146W        W64571  37.047  38.603  14.511
92147W        W64572  24.618  16.814  10.525
92148W        W64573   6.385  25.452   4.577
92149W        W64574  39.920  26.915   4.607
92150W        W64575  22.494  42.287   1.732
92151W        W64576  18.219  40.693   4.172
92152W        W64577  19.757  16.457  10.715
92153W        W64578  31.227   5.287  11.506
92154W        W64579   1.463  38.891   0.811
92155W        W64580  38.934  38.396   1.894
92156W        W64581  14.102  44.796  13.043
92157W        W64582  44.419  12.645   4.429
92158W        W64583  33.918   0.382   1.193
92159W        W64584  11.584   3.394   0.874
92160W        W64585  39.418  29.475  14.961
92161W        W64586  39.438  26.565  10.041
92162W        W64587  38.733  13.318   1.658
92163W        W64588  34.650  40.978   1.439
92164W        W64589   4.135  34.123   4.166
92165W        W64590  30.439  35.618  13.706
92166W        W64591  25.606   4.798  11.652
92167W        W64592  20.187  28.721  12.685
92168W        W64593   1.156  17.771  12.542
92169W        W64594  32.081  17.014   1.493
92170W        W64595  31.387  25.723   2.436
92171W        W64596  20.019  28.536   0.385
92172W        W64597  20.969  13.735   4.239
92173W        W64598   0.961  10.581   4.120
92174W        W64599  18.290  16.604  10.585
92175W        W64600  36.386  34.612   0.357
92176W        W64601  23.213   2.705  14.686
92177W        W64602  21.583  32.193  13.536
92178W        W64603   5.365  33.045   3.340
92179W        W64604  23.933   4.848   3.361
92180W        W64605  20.630  17.820   4.117
92181W        W64606  27.879  41.862  12.558
92182W        W64607   0.824   1.011   2.612
92183W        W64608  28.151  37.480  11.198
92184W        W64609  19.205  35.152  14.270
92185W        W64610  19.255  39.925  10.606
92186W        W64611  40.342   9.344   0.239
92187W        W64612  18.959   0.442   0.433
92188W        W64613  26.214  18.673   4.134
92189W        W64614  31.217  12.805  12.426
92190W        W64615  15.934   8.320   1.106
92191W        W64616  42.111  27.454   0.508
92192W        W64617  28.935   5.672  14.988
92193W        W64618  38.431  29.231  14.219
92194W        W64619  42.261  34.483  10.663
92195W        W64620  23.203  32.121   1.763
92196W        W64621  43.945  35.649  14.462
92197W        W64622   6.998  22.273  12.958
92198W        W64623  15.269  39.772  12.948
92199W        W64624  32.640  40.484  14.296
92200W        W64625   3.310  33.919   4.790
92201W        W64626   1.200  43.317  10.761
92202W        W64627  27.398  14.209  14.213
92203W        W64628  35.107  10.271   0.542
92204W        W64629  39.149  42.463   3.709
92205W        W64630  41.026  20.693  12.485
92206W        W64631  36.069  30.558   4.148
92207W        W64632  38.422  12.421   3.967
92208W        W64633  40.870  21.911  10.440
92209W        W64634   5.481   4.252  12.880
92210W        W64635  16.127  30.852  12.624
92211W        W64636   7.158  20.231  13.906
92212W        W64637  26.621  43.330   2.214
92213W        W64638   7.167  26.179   4.131
92214W        W64639  24.369  30.375   4.544
92215W        W64640  25.779   6.665  13.497
92216W        W64641  40.771  43.639   4.168
92217W        W64642   3.460  19.724   3.321
92218W        W64643  24.971  33.654   0.462
92219W        W64644  39.901  13.226   2.673
92220W        W64645   3.035   6.169   1.405
92221W        W64646  43.391  42.517   0.290
92222W        W64647   4.785  13.204   0.692
92223W        W64648  28.706   2.284  11.480
92224W        W64649   4.879  19.207   4.105
92225W        W64650  27.165  32.984  10.690
92226W        W64651  13.657  34.046   0.272
92227W        W64652  43.268   8.260  12.463
92228W        W64653  21.430  44.023   1.963
92229W        W64654  16.476  44.107  11.082
92230W        W64655   3.747  12.093   1.779
92231W        W64656  24.690  16.675   5.013
92232W        W64657  28.969  36.145   1.151
92233W        W64658  16.614  41.220  13.362
92234W        W64659   7.627  36.533  12.046
92235W        W64660  11.900  30.340  14.910
92236W        W64661  16.046  42.298   4.534
92237W        W64662  34.669  10.918  12.404
92238W        W64663  40.092  14.386   3.587
92239W        W64664  25.687  30.173  11.901
92240W        W64665  38.447  36.111   3.836
92241W        W64666  19.197  22.271  11.487
92242W        W64667   8.532  17.558  10.824
92243W        W64668  20.632  14.827   2.067
92244W        W64669  41.972  21.079   5.091
92245W        W64670  17.730   8.344  12.585
92246W        W64671   3.331  38.465  10.964
92247W        W64672  10.289  33.647  14.466
92248W        W64673  35.561   0.214  13.930
92249W        W64674  35.705  22.209  11.501
92250W        W64675   7.423  21.097  11.962
92251W        W64676   5.941  34.176  12.574
92252W        W64677   4.451   8.121   3.551
92253W        W64678   4.961  11.805   3.710
92254W        W64679  23.503  40.009   3.743
92255W        W64680  38.495  26.984   0.676
92256W        W64681  24.007  33.045  14.844
92257W        W64682  14.623   2.356   4.679
92258W        W64683  39.573   2.497  12.845
92259W        W64684  29.893  40.561  11.652
92260W        W64685  17.060   7.888   0.332
92261W        W64686   2.349  42.001  12.918
92262W        W64687  17.588  37.124  10.489
92263W        W64688   8.570  14.841  10.658
92264W        W64689   4.712  34.026   2.410
92265W        W64690  10.762  22.038  13.468
92266W        W64691  10.787   5.523   2.495
92267W        W64692   9.184  18.537   1.748
92268W        W64693  30.699  16.813  14.883
92269W        W64694  30.601  15.539  11.420
92270W        W64695  39.100   6.361  14.814
92271W        W64696   9.924   8.475   5.121
92272W        W64697   0.729   1.760   0.198
92273W        W64698  13.786  41.104   1.351
92274W        W64699  36.077  28.128   0.860
92275W        W64700  30.114  39.318   3.797
92276W        W64701  31.137  11.125   2.285
92277W        W64702  32.406  25.701   0.799
92278W        W64703  11.626  43.085  14.523
92279W        W64704  26.979   0.891   4.792
92280W        W64705  22.265  12.727  14.852
92281W        W64706  27.669  13.824  12.959
92282W        W64707   2.252  20.837  11.673
92283W        W64708  30.374  41.960   4.036
92284W        W64709  32.363   4.959  14.585
92285W        W64710   0.411  38.159   0.889
92286W        W64711  44.787  23.732  14.568
92287W        W64712  19.012   4.696  10.718
92288W        W64713  44.992   4.497  11.630
92289W        W64714  21.022  20.144  14.709
92290W        W64715  13.863  34.710   4.961
92291W        W64716  40.832  42.524  10.971
92292W        W64717  42.771   4.627  11.119
92293W        W64718   0.860  29.593   0.186
92294W        W64719   4.049  24.771   1.972
92295W        W64720  22.024   5.874  10.657
92296W        W64721  17.730   1.461  10.456
92297W        W64722   4.596  42.581   1.733
92298W        W64723  11.139   9.654   1.433
92299W        W64724  32.827  23.950  13.879
92300W        W64725  32.005  15.830   0.298
92301W        W64726  38.515   6.216  13.265
92302W        W64727  26.532   2.536   2.799
92303W        W64728   7.165  26.165   3.609
92304W        W64729  33.547   0.760  13.971
92305W        W64730  30.087  17.570  13.652
92306W        W64731  21.704  21.064   3.063
92307W        W64732   5.924  36.915  11.992
92308W        W64733  18.294  43.357  14.955
92309W        W64734  10.205  34.628   9.743
92310W        W64735  31.512   8.916   3.183
92311W        W64736  12.854  26.029   3.367
92312W        W64737  33.363  35.783   2.388
92313W        W64738  22.337  39.031   0.076
92314W        W64739  44.262  22.110  10.724
92315W        W64740   6.844  10.320  12.397
92316W        W64741   5.281  27.928   0.838
92317W        W64742  28.125  42.330  12.123
92318W        W64743  41.476  42.504   1.419
92319W        W64744   7.957  40.141  14.814
92320W        W64745  32.882   3.168   1.768
92321W        W64746  37.661  31.935  13.420
92322W        W64747  40.057  15.101  12.044
92323W        W64748  28.925   9.760  14.098
92324W        W64749   8.645  32.946   4.605
92325W        W64750   1.261  11.076  14.702
92326W        W64751  19.766  13.210  11.507
92327W        W64752  23.470  25.320   1.742
92328W        W64753  18.951   8.610  13.314
92329W        W64754  10.155  20.658   2.627
92330W        W64755   7.181  16.886   0.934
92331W        W64756  38.963  23.065  14.438
92332W        W64757  33.093   7.879   0.342
92333W        W64758  23.110  16.471   2.259
92334W        W64759   2.202  24.137   0.341
92335W        W64760  21.422  17.199   1.308
92336W        W64761  35.348  32.411  12.997
92337W        W64762  22.645  34.083   1.574
92338W        W64763  14.118  35.012   2.335
92339W        W64764   5.770  40.595   3.835
92340W        W64765  26.976  28.460   0.321
92341W        W64766  28.942  25.687   2.212
92342W        W64767  12.563  25.197  13.983
92343W        W64768  17.540  39.099  14.980
92344W        W64769   4.886  33.132  11.462
92345W        W64770  41.295   3.004   2.776
92346W        W64771  15.409  15.153  12.443
92347W        W64772  11.594  39.023   1.314
92348W        W64773   6.885  13.488   3.197
92349W        W64774  16.272  28.413  11.555
92350W        W64775  20.805  25.467   0.892
92351W        W64776  33.405  42.409  13.942
92352W        W64777  15.092  10.408  14.707
92353W        W64778  37.556  31.864   9.859
92354W        W64779  44.518  25.659   1.702
92355W        W64780  12.956  15.147   1.091
92356W        W64781  34.180  21.471  14.457
92357W        W64782  25.746   9.309  11.968
92358W        W64783  20.105   7.694   4.158
92359W        W64784  22.974  12.884   2.664
92360W        W64785  21.404   8.813   3.171
92361W        W64786  33.596  15.577  14.874
92362W        W64787  13.209   5.881  10.546
92363W        W64788  15.585   0.741   4.202
92364W        W64789  30.624   4.012   2.155
92365W        W64790  15.850  43.342   4.168
92366W        W64791   1.262   0.282   2.613
92367W        W64792   5.622  15.180  10.651
92368W        W64793  25.673  28.402   3.266
92369W        W64794  12.378   2.461   2.702
92370W        W64795  15.763  43.341   3.142
92371W        W64796  37.905   3.767  14.209
92372W        W64797  36.907   1.143   2.945
92373W        W64798  36.013  35.991   1.028
92374W        W64799  25.024   6.197   3.797
92375W        W64800  14.597   1.868  12.593
92376W        W64801  40.545  17.553  10.641
92377W        W64802  34.502   6.164  12.575
92378W        W64803  32.095  20.991  13.844
92379W        W64804  13.333  19.556  11.691
92380W        W64805   9.840  44.954  10.992
92381W        W64806   9.329   2.735  13.797
92382W        W64807   1.442  43.403   0.755
92383W        W64808   0.872   6.217  11.406
92384W        W64809   6.112  16.626  12.428
92385W        W64810  34.829  27.905  11.552
92386W        W64811  40.857  42.500  13.502
92387W        W64812  21.647  27.001  14.312
92388W        W64813  17.643  36.955   3.251
92389W        W64814  37.318  33.846   4.495
92390W        W64815  12.363  39.508  12.374
92391W        W64816  32.721  29.508  13.078
92392W        W64817  26.416  17.055  14.936
92393W        W64818  37.936   6.938  14.838
92394W        W64819  14.693  44.768  10.398
92395W        W64820  30.039  27.478   3.837
92396W        W64821   2.736  18.312  11.077
92397W        W64822   0.495  15.974  14.820
92398W        W64823  41.231  15.318   0.256
92399W        W64824   0.621   1.283   0.501
92400W        W64825  17.357  21.944   0.414
92401W        W64826  44.483  34.817   2.198
92402W        W64827   9.828  44.000   2.968
92403W        W64828  13.679  35.636   3.682
92404W        W64829  26.567  44.734  12.424
92405W        W64830  27.286  42.691  14.496
92406W        W64831  29.426  17.270  13.703
92407W        W64832  12.366  26.795  13.464
92408W        W64833  20.718  37.564   3.269
92409W        W64834  11.837  21.749  10.050
92410W        W64835  20.723  14.223   0.551
92411W        W64836  13.700  15.206   3.728
92412W        W64837  32.336  26.192   0.916
92413W        W64838  41.215   2.798   3.264
92414W        W64839  41.737  16.367  10.741
92415W        W64840  10.334  11.591   2.158
92416W        W64841   1.276  19.300  11.043
92417W        W64842   5.924  30.616   2.906
92418W        W64843  35.645   5.819   4.126
92419W        W64844   9.036  24.530   0.840
92420W        W64845  17.597  34.587  10.850
92421W        W64846   4.210   4.497   1.721
92422W        W64847   0.791  35.622   3.313
92423W        W64848  19.164  38.362   3.807
92424W        W64849  35.485  12.883   4.529
92425W        W64850  28.199  19.688   3.782
92426W        W64851  38.911  26.436  10.097
92427W        W64852  43.795   0.678   1.918
92428W        W64853  18.059  13.736  14.364
92429W        W64854   4.914  36.630  11.159
92430W        W64855  21.001   7.647   0.887
92431W        W64856  21.261  17.549  11.516
92432W        W64857  36.498   6.858  13.014
92433W        W64858  39.497  22.184   0.066
92434W        W64859  10.645  38.876  14.239
92435W        W64860  29.579  16.258   2.458
92436W        W64861  23.430  14.208  10.922
92437W        W64862  17.121  37.185   0.538
92438W        W64863  29.594  37.473  12.005
92439W        W64864  31.086   8.211  11.486
92440W        W64865  34.885  22.009  12.517
92441W        W64866  40.739   6.520  13.413
92442W        W64867  22.782  42.074   0.791
92443W        W64868   1.981   6.256  14.777
92444W        W64869   8.175  34.847   4.854
92445W        W64870  43.007  19.892   2.136
92446W        W64871  19.820  36.312   4.124
92447W        W64872  30.142  22.294   2.326
92448W        W64873  14.185   5.416   4.420
92449W        W64874  22.645   1.743   2.830
92450W        W64875   8.869   8.985   5.352
92451W        W64876  13.896  25.208   4.462
92452W        W64877  15.548  11.636  12.565
92453W        W64878  39.096  19.085  10.983
92454W        W64879   2.291   3.176  14.196
92455W        W64880  16.132  38.847   1.355
92456W        W64881  19.046  19.528  12.122
92457W        W64882  37.878  17.026  11.671
92458W        W64883  24.332  17.323  11.287
92459W        W64884  35.365  18.212   2.778
92460W        W64885  19.408  42.150   0.512
92461W        W64886  36.560  33.332  10.714
92462W        W64887  13.109  36.336   0.427
92463W        W64888   8.464  11.799   2.963
92464W        W64889   6.697   7.466   2.202
92465W        W64890  14.757  16.336  14.288
92466W        W64891  44.987  40.318   4.658
92467W        W64892  41.799  29.659   0.841
92468W        W64893  28.013  34.009   5.519
92469W        W64894  21.679  29.642   1.788
92470W        W64895  26.712  17.549  13.971
92471W        W64896   6.336  14.511   0.897
92472W        W64897   3.764  12.595   1.123
92473W        W64898  28.311  13.244   1.512
92474W        W64899  28.832   6.132  12.819
92475W        W64900   0.080   1.903  12.684
92476W        W64901  29.403   5.144  14.930
92477W        W64902  11.119  36.737  14.004
92478W        W64903  22.136   2.794   1.247
92479W        W64904  18.182  44.065   0.458
92480W        W64905  23.350  10.725   2.383
92481W        W64906  31.093  34.536   3.064
92482W        W64907  19.569  15.069  10.506
92483W        W64908  42.875   7.223   3.172
92484W        W64909  20.212  41.528  12.234
92485W        W64910  39.234  27.484  10.404
92486W        W64911  40.917   8.932  14.736
92487W        W64912   6.767  21.969   2.244
92488W        W64913  35.920  32.393   3.826
92489W        W64914  24.958  38.294   3.756
92490W        W64915  22.984  29.967  14.880
92491W        W64916  25.509  29.500  13.601
92492W        W64917  32.021   8.798   4.149
92493W        W64918  10.147  20.778  14.422
92494W        W64919  12.359  15.151   0.219
92495W        W64920  33.793  33.081   2.018
92496W        W64921  36.945   7.079  11.734
92497W        W64922  32.945  32.665  11.540
92498W        W64923  44.395  22.074   2.563
92499W        W64924  37.137  39.117  14.392
92500W        W64925  38.312  39.860   3.678
92501W        W64926  15.823  23.602   1.716
92502W        W64927  21.856  33.057   0.200
92503W        W64928   5.289  39.934   4.000
92504W        W64929  12.873   7.415  13.597
92505W        W64930  23.913  42.035  13.940
92506W        W64931  32.086   0.628  14.614
92507W        W64932  38.710  27.831   2.795
92508W        W64933  28.133  15.165   1.329
92509W        W64934  18.299  21.077   2.358
92510W        W64935   6.291   0.470   2.312
92511W        W64936   9.379  33.152   0.398
92512W        W64937  23.243  32.660   3.567
92513W        W64938   0.400  41.279  12.016
92514W        W64939   3.268  31.912  13.860
92515W        W64940  42.893  22.138  11.693
92516W        W64941  23.287  23.322  13.844
92517W        W64942  20.057  35.472  14.992
92518W        W64943  12.666  38.483   1.002
92519W        W64944  16.822  43.311  11.862
92520W        W64945  35.130  19.783   3.679
92521W        W64946  13.999  23.536   2.189
92522W        W64947  28.113  16.008   3.932
92523W        W64948  24.733  19.331   1.832
92524W        W64949  17.846  25.174   3.227
92525W        W64950  30.505  21.598  12.948
92526W        W64951  40.696  35.036  11.084
92527W        W64952   7.856   1.413   0.827
92528W        W64953  21.182  26.885  14.869
92529W        W64954  20.721  21.200   3.421
92530W        W64955  10.972  25.503  11.079
92531W        W64956  44.921   9.881   3.660
92532W        W64957  31.520  40.489   4.319
92533W        W64958   0.831  21.336   4.657
92534W        W64959  11.195  32.048  14.272
92535W        W64960   3.524   1.035  14.800
92536W        W64961   5.664  15.404  14.437
92537W        W64962  15.762  23.704  12.517
92538W        W64963  35.640   8.479  14.502
92539W        W64964  20.755  10.823  12.931
92540W        W64965  38.231  33.453   2.673
92541W        W64966  14.152  11.603   2.204
92542W        W64967  30.399  14.357  14.425
92543W        W64968   6.932  33.220   1.456
92544W        W64969  29.039  42.496  12.656
92545W        W64970   7.806   9.942   3.642
92546W        W64971  26.559  35.254   1.961
92547W        W64972   9.405  17.781   3.710
92548W        W64973  44.911  17.127  10.939
92549W        W64974   3.801  21.440   0.345
92550W        W64975   5.543  44.241  11.083
92551W        W64976  36.706  18.304   1.486
92552W        W64977  11.208   3.225   1.200
92553W        W64978   4.778  26.035   1.153
92554W        W64979  26.734  18.369  13.514
92555W        W64980  17.841  39.056   0.901
92556W        W64981   7.697  21.490  12.582
92557W        W64982   7.385  41.498   4.167
92558W        W64983   1.250  30.027   0.892
92559W        W64984  27.242  13.743  14.820
92560W        W64985  32.470   1.236   1.819
92561W        W64986  12.430  20.025  11.515
92562W        W64987   3.697   0.758   2.788
92563W        W64988   8.845  39.466   2.860
92564W        W64989  31.221  26.449  13.083
92565W        W64990  10.317   9.222   3.269
92566W        W64991  30.914   5.679   4.067
92567W        W64992  17.976  19.987  12.507
92568W        W64993  33.987   2.435  10.902
92569W        W64994  15.601  40.825  13.041
92570W        W64995  11.756  19.734  14.016
92571W        W64996  33.112   6.996   3.245
92572W        W64997  28.453  20.774  11.967
92573W        W64998  19.751   2.209   4.133
92574W        W64999  16.530  22.232  11.066
92575W        W65000   4.185  22.131   3.390
92576W        W65001  11.604  35.636  14.516
92577W        W65002  16.704   6.801   3.258
92578W        W65003  21.194  27.458  13.030
92579W        W65004  32.064  10.635   1.474
92580W        W65005  36.440  18.961  14.422
92581W        W65006  25.086  26.145  14.701
92582W        W65007  24.713  14.288  13.805
92583W        W65008  35.920  13.979   3.311
92584W        W65009   2.002  18.531   0.912
92585W        W65010  10.676  32.474  14.001
92586W        W65011  43.092  39.924   1.873
92587W        W65012  29.153  18.116  12.424
92588W        W65013  32.481  24.149  14.688
92589W        W65014  34.610  13.846  14.251
92590W        W65015  12.768   2.254   0.448
92591W        W65016  28.666   3.023  11.076
92592W        W65017  13.637  19.113   0.957
92593W        W65018   2.532  41.568  11.617
92594W        W65019  24.765  15.630   2.205
92595W        W65020  31.466  11.325  11.155
92596W        W65021   7.818   2.661   0.287
92597W        W65022  43.989   8.317   0.041
92598W        W65023  19.048  29.161  14.779
92599W        W65024   9.134  34.233  13.981
92600W        W65025  11.821  29.925  11.454
92601W        W65026  23.152  32.460   0.354
92602W        W65027   4.502  21.935  14.879
92603W        W65028   9.119  28.431   1.527
92604W        W65029   3.078  23.051  12.876
92605W        W65030  16.066  20.571  12.592
92606W        W65031  22.612  14.680  10.933
92607W        W65032  27.485  33.145  13.128
92608W        W65033  40.828  29.301   0.867
92609W        W65034  35.111   7.654  14.416
92610W        W65035  31.060  35.470  12.926
92611W        W65036   8.683  29.635   2.876
92612W        W65037  22.760  40.472  11.523
92613W        W65038  21.796   7.869   1.289
92614W        W65039  31.223  36.929   0.206
92615W        W65040  36.239  13.652   1.331
92616W        W65041  17.082   3.347  13.038
92617W        W65042   5.374  34.671  11.957
92618W        W65043   6.670  13.750  10.512
92619W        W65044  17.158  22.653  14.285
92620W        W65045   8.321  21.134   2.618
92621W        W65046  30.664  12.610  11.719
92622W        W65047  17.710  16.716  12.622
92623W        W65048  17.627  24.596  11.462
92624W        W65049  36.796  13.386  14.866
92625W        W65050   9.109  31.165   3.553
92626W        W65051  18.829   6.377  12.495
92627W        W65052  12.599  43.035  10.765
92628W        W65053   8.691  25.495   2.084
92629W        W65054   6.311   6.396   1.439
92630W        W65055   1.303  32.224  13.953
92631W        W65056  23.216  24.907  10.970
92632W        W65057   8.863  37.093   1.338
92633W        W65058  39.961   8.625  11.495
92634W        W65059  37.008   9.184  12.548
92635W        W65060  33.374  38.655  14.376
92636W        W65061  32.084  19.115  10.769
92637W        W65062   6.904   2.801  12.033
92638W        W65063   0.704  18.012   3.264
92639W        W65064   8.690  31.911  14.905
92640W        W65065  14.700  36.902   1.228
92641W        W65066  39.343  13.359   3.793
92642W        W65067   0.562  24.300   0.934
92643W        W65068  24.987  24.530  13.441
92644W        W65069  33.200  19.055   1.400
92645W        W65070   1.439  36.821   2.345
92646W        W65071  10.514   4.586   5.102
92647W        W65072  12.782   2.377   2.369
92648W        W65073   1.412  21.482  12.504
92649W        W65074  43.738  28.135   1.740
92650W        W65075  42.356  15.308  12.452
92651W        W65076  28.687  19.600   0.775
92652W        W65077  37.307  36.399  14.961
92653W        W65078  10.795  31.518   3.372
92654W        W65079  31.786  11.246   2.245
92655W        W65080  14.761   7.715   0.318
92656W        W65081  40.870   8.382   5.012
92657W        W65082  14.587  32.071   4.586
92658W        W65083  25.669  20.539  12.019
92659W        W65084  42.404   2.805  13.994
92660W        W65085   9.146   9.429  14.876
92661W        W65086  41.898  19.079   4.666
92662W        W65087  27.780  29.800   9.482
92663W        W65088  32.095  44.369   2.827
92664W        W65089  19.696   2.324  13.400
92665W        W65090  20.587   7.336  14.045
92666W        W65091  16.155  11.254   2.142
92667W        W65092  13.686  34.411  13.356
92668W        W65093  39.875  26.234   0.838
92669W        W65094  38.860  10.364  14.038
92670W        W65095  21.071  13.312  14.675
92671W        W65096   6.740   6.279   3.887
92672W        W65097  30.980  25.429  14.054
92673W        W65098  22.970  20.479   2.802
92674W        W65099   9.344   0.941  14.824
92675W        W65100  14.664  21.654  14.883
92676W        W65101  27.501  21.086   3.693
92677W        W65102  25.093  13.357  12.903
92678W        W65103  23.191   6.320  14.021
92679W        W65104  23.615  37.173  11.401
92680W        W65105  32.536  10.307   4.688
92681W        W65106  36.786  23.290   5.439
92682W        W65107  27.002   8.215  14.373
92683W        W65108   6.179  28.544  10.612
92684W        W65109  32.892   7.911  12.060
92685W        W65110  44.344  42.369   4.083
92686W        W65111   0.422   8.375   2.919
92687W        W65112  21.904  31.332  14.448
92688W        W65113   0.843  41.740  13.218
92689W        W65114   9.577  22.749  14.360
92690W        W65115  34.877  20.168   1.764
92691W        W65116  21.318  19.181  11.441
92692W        W65117  41.939  34.904   2.483
92693W        W65118  44.189   3.328  14.324
92694W        W65119  40.348   9.069  12.038
92695W        W65120  30.041   9.937  12.794
92696W        W65121  11.835  22.672  10.986
92697W        W65122   3.366  40.089   0.492
92698W        W65123  44.891  27.968   0.285
92699W        W65124  23.088  37.682  12.925
92700W        W65125   9.322  44.961   0.833
92701W        W65126   3.115  25.775  11.969
92702W        W65127   2.790  33.205   4.538
92703W        W65128  30.699  32.933  11.928
92704W        W65129  44.871  40.375   0.709
92705W        W65130   9.743  33.064  12.407
92706W        W65131  15.726  44.953   1.794
92707W        W65132  39.359  15.102   4.129
92708W        W65133  18.116  34.307   0.271
92709W        W65134  41.669  41.380  13.360
92710W        W65135  21.144   5.129  12.009
92711W        W65136  25.910  29.178   3.034
92712W        W65137  20.065   1.776   3.295
92713W        W65138   2.762  44.413   1.908
92714W        W65139  32.222  19.773  10.189
92715W        W65140  16.084  28.013  12.486
92716W        W65141   0.877  19.852  10.288
92717W        W65142  36.625  15.072   3.704
92718W        W65143  24.189   3.488   2.462
92719W        W65144  44.824  23.195  11.414
92720W        W65145  25.449  32.337  12.582
92721W        W65146   7.758  31.873   2.324
92722W        W65147  11.384   4.178  12.983
92723W        W65148   8.243  31.662   2.305
92724W        W65149  32.593  38.496  13.482
92725W        W65150   2.870  17.632  12.883
92726W        W65151  31.511  37.829   1.017
92727W        W65152  44.756  35.180   1.923
92728W        W65153  21.720  10.211  13.357
92729W        W65154  36.564  29.920  11.236
92730W        W65155  35.459  41.030  13.289
92731W        W65156  11.889  37.406   2.845
92732W        W65157  29.623   2.149  13.895
92733W        W65158  39.409   9.031  14.831
92734W        W65159  31.848  11.144   4.776
92735W        W65160   9.211  41.528   1.847
92736W        W65161  42.284  41.472  10.662
92737W        W65162   2.976  42.009   0.507
92738W        W65163  44.257  19.038  14.301
92739W        W65164  24.116   2.395   4.575
92740W        W65165  44.325  33.930   0.171
92741W        W65166  20.239   9.589   0.961
92742W        W65167  29.142  26.464  11.489
92743W        W65168  14.069   5.870   4.218
92744W        W65169  10.920  37.279  11.177
92745W        W65170  33.190  10.872  14.202
92746W        W65171  36.475  22.244   0.836
92747W        W65172   8.861  23.953   4.985
92748W        W65173   3.033  29.443  13.104
92749W        W65174  42.271  24.749   3.436
92750W        W65175  11.788  33.336  12.770
92751W        W65176  39.613  36.795  11.575
92752W        W65177  29.056   5.132  10.249
92753W        W65178  42.411  22.199  13.317
92754W        W65179  39.003  41.935  14.873
92755W        W65180  32.040  32.779   3.736
92756W        W65181  42.692  34.513  11.522
92757W        W65182   1.489   2.027   0.277
92758W        W65183   0.795   9.893   0.771
92759W        W65184   1.013  14.740   1.403
92760W        W65185  31.925  20.778   2.780
92761W        W65186  31.076  36.551  12.184
92762W        W65187  16.587  35.320   2.882
92763W        W65188  21.687  14.294  14.290
92764W        W65189  16.525  17.115   3.312
92765W        W65190  39.261  42.556  11.376
92766W        W65191  10.433  25.739  14.389
92767W        W65192  38.356  34.992   3.569
92768W        W65193  28.157   6.292  13.920
92769W        W65194  26.036  22.078   0.251
92770W        W65195   6.135   2.426   4.121
92771W        W65196  40.738  33.947  10.920
92772W        W65197   9.346  20.798   3.712
92773W        W65198  11.858  41.587   3.810
92774W        W65199  15.154  42.598  11.000
92775W        W65200  17.479   8.331  12.118
92776W        W65201  27.790  15.683  12.521
92777W        W65202  42.457   7.898   0.268
92778W        W65203  16.599  18.269   3.774
92779W        W65204  41.935  24.634  12.096
92780W        W65205  29.112  17.939  10.667
92781W        W65206  38.857  20.192  12.552
92782W        W65207  10.916  29.922  12.058
92783W        W65208   9.806   0.227   4.152
92784W        W65209  21.735  19.738   4.561
92785W        W65210  14.114  23.700   2.687
92786W        W65211  41.909  39.036   2.391
92787W        W65212  23.066  38.057  11.934
92788W        W65213  29.578  35.030   5.242
92789W        W65214  24.652  33.220  10.720
92790W        W65215  39.820  42.622  13.995
92791W        W65216  37.372  19.502  12.971
92792W        W65217   3.092  14.629  12.104
92793W        W65218  29.900  40.794   2.365
92794W        W65219  38.572   8.159   3.172
92795W        W65220   5.829  32.418   1.329
92796W        W65221   3.786  27.540  13.869
92797W        W65222   8.113   9.377  13.907
92798W        W65223  15.500  42.940   4.827
92799W        W65224  40.360  11.378  10.606
92800W        W65225  23.043  30.026   1.666
92801W        W65226   5.130   9.369   0.787
92802W        W65227  42.953   1.004   0.403
92803W        W65228  21.898  22.756   0.738
92804W        W65229   6.968  37.563  12.874
92805W        W65230   1.940   2.408   1.470
92806W        W65231  44.152  43.641   3.274
92807W        W65232  38.023  44.818  12.770
92808W        W65233  31.886  34.818   5.045
92809W        W65234  12.672   7.061   0.277
92810W        W65235  24.732  34.325  14.052
92811W        W65236  39.409  32.991  14.481
92812W        W65237  37.619  18.054  12.549
92813W        W65238  14.865  31.445  11.622
92814W        W65239   4.576  40.624  11.182
92815W        W65240  37.845  21.549  11.154
92816W        W65241  17.689  11.717  11.574
92817W        W65242  37.779  10.452   2.725
92818W        W65243  32.446   6.128   1.652
92819W        W65244   0.936  36.920   0.952
92820W        W65245  14.147   5.750   0.966
92821W        W65246  35.542   0.978  14.533
92822W        W65247  30.018  22.259   4.596
92823W        W65248  25.409  28.034   3.763
92824W        W65249  24.399  37.643  12.960
92825W        W65250  44.003  41.911   4.057
92826W        W65251  24.137  44.466  10.302
92827W        W65252  41.797  35.768  12.444
92828W        W65253  20.393  38.786   3.242
92829W        W65254  37.125  31.446   1.915
92830W        W65255  31.761   0.524   3.687
92831W        W65256  29.797  19.743   3.128
92832W        W65257  28.560   4.914   0.823
92833W        W65258  31.200  15.886   2.671
92834W        W65259  34.910  43.756   2.722
92835W        W65260   1.901  15.466  14.277
92836W        W65261  28.687  36.067   1.620
92837W        W65262  10.061  42.405  13.526
92838W        W65263  34.969   3.920  10.728
92839W        W65264   9.534   3.861   2.262
92840W        W65265  14.117  38.229  12.154
92841W        W65266  40.612  40.834  10.981
92842W        W65267  28.802  30.341   2.697
92843W        W65268  11.318  21.121  14.020
92844W        W65269  14.688  20.765  12.409
92845W        W65270   1.249   7.387   0.232
92846W        W65271  14.056  27.106   4.895
92847W        W65272  33.960  33.324   3.765
92848W        W65273  29.453   1.508   0.994
92849W        W65274  23.450  26.614   1.130
92850W        W65275  17.329  14.119   3.711
92851W        W65276  33.345   1.846   1.292
92852W        W65277  15.900  17.146   1.294
92853W        W65278  31.628  34.728  14.383
92854W        W65279  26.664  15.559  10.729
92855W        W65280  13.818   6.478  10.657
92856W        W65281   6.415  31.554   3.013
92857W        W65282  11.737  18.199   4.939
92858W        W65283   1.054  20.557   3.160
92859W        W65284   2.790   3.987  14.494
92860W        W65285  30.539  42.975   4.084
92861W        W65286  11.382  20.332  12.924
92862W        W65287  36.938  43.520   3.685
92863W        W65288  30.873  29.301   4.075
92864W        W65289  28.083  35.887  14.884
92865W        W65290  35.587  30.116   3.696
92866W        W65291   8.417  24.761  11.216
92867W        W65292  30.093  11.162   4.086
92868W        W65293  40.376  17.903   2.207
92869W        W65294  31.477   8.903  14.121
92870W        W65295   0.434  39.112   9.884
92871W        W65296  21.603  27.642  12.511
92872W        W65297  24.524  28.724  12.891
92873W        W65298  32.925  34.196   1.188
92874W        W65299   2.772  34.460  12.521
92875W        W65300  14.119  21.243  12.459
92876W        W65301  32.364  40.461  11.841
92877W        W65302  15.159   7.475   2.971
92878W        W65303  28.039   0.515  11.512
92879W        W65304  10.225  32.854   2.227
92880W        W65305  30.944  31.983   0.695
92881W        W65306  23.138  42.085   4.285
92882W        W65307   2.040  43.375  13.456
92883W        W65308  15.179  39.527   0.176
92884W        W65309  14.486  16.869   4.826
92885W        W65310  42.804  27.527   4.257
92886W        W65311   7.073   9.005   4.192
92887W        W65312   6.759   5.313  12.303
92888W        W65313  39.246  12.178   1.498
92889W        W65314  35.586  34.198   2.394
92890W        W65315  40.964  21.772  11.182
92891W        W65316   0.970  43.322  12.431
92892W        W65317  37.785  21.610  12.959
92893W        W65318  44.752   8.847  10.285
92894W        W65319   9.367  23.442  13.434
92895W        W65320  12.981  35.785   4.564
92896W        W65321  32.918   2.505  11.141
92897W        W65322  25.973   5.332   0.756
92898W        W65323  37.412   1.971  13.437
92899W        W65324  39.105  19.377  10.537
92900W        W65325  33.316  27.960   0.854
92901W        W65326  35.091  25.595  14.143
92902W        W65327  26.103   1.933  10.633
92903W        W65328  26.620   4.667  12.401
92904W        W65329  11.284  19.983  14.923
92905W        W65330  14.544   3.768  10.574
92906W        W65331  37.395  15.083  11.247
92907W        W65332  36.365  38.003  13.402
92908W        W65333  31.880   8.461  12.045
92909W        W65334  25.718  19.544   4.154
92910W        W65335  13.570  44.032  11.635
92911W        W65336  29.158  28.607  13.834
92912W        W65337   9.960  19.569   0.911
92913W        W65338  35.906  34.065  13.482
92914W        W65339   3.960   7.886   3.365
92915W        W65340  24.242   9.120   4.613
92916W        W65341  21.617  30.125  12.645
92917W        W65342   1.695   1.534   0.285
92918W        W65343  37.412  29.382  11.102
92919W        W65344  44.588  22.540  10.729
92920W        W65345  43.718  24.460   2.365
92921W        W65346  44.703   4.262   0.933
92922W        W65347  22.604  10.906  10.651
92923W        W65348   6.694  43.771   4.357
92924W        W65349  16.582  38.243  12.883
92925W        W65350  21.762  40.829  14.050
92926W        W65351  39.767  25.600  14.575
92927W        W65352  23.729  12.220   2.815
92928W        W65353  40.582  15.769  13.395
92929W        W65354  14.377   0.190   3.167
92930W        W65355  27.116  15.977   2.767
92931W        W65356  37.080  27.705  10.716
92932W        W65357  32.542  34.002   2.833
92933W        W65358  41.990  18.059   3.642
92934W        W65359  17.204  31.228   4.100
92935W        W65360  18.082  32.037   2.846
92936W        W65361  24.248   1.801   4.541
92937W        W65362  11.135  33.174  11.914
92938W        W65363  12.162  38.299   3.295
92939W        W65364  38.519  19.264   3.215
92940W        W65365  44.043   6.191   3.266
92941W        W65366   9.886  21.845   4.471
92942W        W65367  14.639  37.039   3.842
92943W        W65368  34.844   9.422   0.943
92944W        W65369  37.152  25.713  12.496
92945W        W65370  10.320  34.021  11.077
92946W        W65371  27.909   1.988  11.502
92947W        W65372  33.629  38.410  14.806
92948W        W65373   8.694  41.977  13.100
92949W        W65374  35.978   7.773   0.110
92950W        W65375  35.634  13.249  14.986
92951W        W65376  15.562  39.948  12.521
92952W        W65377  30.659  15.892   3.601
92953W        W65378  33.545   7.733   2.286
92954W        W65379  20.490  14.980  14.701
92955W        W65380  18.436  41.284  10.692
92956W        W65381   5.922   8.382   2.213
92957W        W65382  21.301   6.216   4.970
92958W        W65383   2.465  25.265   4.120
92959W        W65384  14.627  17.637   3.334
92960W        W65385  33.447  16.599  10.949
92961W        W65386   6.373  25.548   2.696
92962W        W65387  22.157  34.513   0.228
92963W        W65388   2.933  28.081  13.065
92964W        W65389  12.810  13.617  13.015
92965W        W65390  13.455  35.239  12.542
92966W        W65391   5.266  22.581  10.748
92967W        W65392  25.949  22.619   3.851
92968W        W65393  37.012   9.693  14.838
92969W        W65394  14.372  15.190  10.547
92970W        W65395  31.159  17.074  11.960
92971W        W65396  12.226  35.992  14.467
92972W        W65397   3.868  12.136   3.167
92973W        W65398  36.703  26.810   2.257
92974W        W65399   6.996  23.537  13.526
92975W        W65400  13.090  21.222  13.543
92976W        W65401  30.372  28.973   1.813
92977W        W65402   6.764  41.655  12.119
92978W        W65403  37.996  11.340   4.578
92979W        W65404  37.103   1.883   4.831
92980W        W65405  43.541  27.889   0.125
92981W        W65406  39.878  42.820   2.206
92982W        W65407  26.612  43.125   3.639
92983W        W65408  15.538  41.894   2.437
92984W        W65409  33.623  32.611   0.808
92985W        W65410   7.880  29.645   1.621
92986W        W65411  26.940  13.709  11.522
92987W        W65412   2.867  32.123   4.695
92988W        W65413   8.164  38.968   4.366
92989W        W65414  40.358  43.788   0.753
92990W        W65415  26.239  15.830  10.646
92991W        W65416  28.047  35.678  12.574
92992W        W65417  20.754  29.153   1.725
92993W        W65418  41.122  16.322  12.952
92994W        W65419   6.718   5.932   2.655
92995W        W65420  34.366  15.828   0.238
92996W        W65421   7.999  20.103  14.216
92997W        W65422   5.867  12.567   0.461
92998W        W65423  13.475  18.670   1.604
92999W        W65424  33.168  37.059   3.590
93000W        W65425  25.074  13.031   4.650
93001W        W65426  29.126  10.227   4.854
93002W        W65427  24.931  18.709  11.931
93003W        W65428  44.909  10.949  14.735
93004W        W65429  39.047  10.561   1.430
93005W        W65430  18.655  40.394  10.001
93006W        W65431  30.232  42.009  11.929
93007W        W65432  18.158  43.512  14.482
93008W        W65433  27.562  12.550  13.329
93009W        W65434  17.028  27.007  14.255
93010W        W65435   5.385  27.154  10.603
93011W        W65436   0.756  13.834   2.911
93012W        W65437  37.137   6.269  12.567
93013W        W65438  44.510  25.119  13.959
93014W        W65439  44.042  32.156  13.377
93015W        W65440  44.387  34.886   5.102
93016W        W65441  26.220  29.779   4.815
93017W        W65442  28.641  39.922  14.803
93018W        W65443  33.483  11.924  12.999
93019W        W65444  39.551  31.970  11.398
93020W        W65445  33.441   6.063   1.848
93021W        W65446   8.262  40.183  11.983
93022W        W65447  42.281  19.228  11.031
93023W        W65448  44.794  36.825  11.546
93024W        W65449  21.369  38.996   3.470
93025W        W65450  43.405  11.119  13.852
93026W        W65451  12.307  21.996  14.907
93027W        W65452   7.217   1.390   3.341
93028W        W65453   4.829  35.026  14.420
93029W        W65454   0.222  16.333   1.413
93030W        W65455  34.407  42.462   0.839
93031W        W65456   7.766  19.600  12.608
93032W        W65457  37.839  23.143  13.438
93033W        W65458  17.612  35.628   3.657
93034W        W65459  19.212   2.837   2.967
93035W        W65460   6.418  37.406   2.047
93036W        W65461  26.461   6.563   1.510
93037W        W65462  16.972  25.186   4.249
93038W        W65463  43.280   2.688  11.254
93039W        W65464  28.117  41.893  14.429
93040W        W65465  36.863  43.007  14.917
93041W        W65466  28.510  21.570  13.924
93042W        W65467  30.426  16.343   4.381
93043W        W65468   9.595  41.661  10.323
93044W        W65469  37.938  35.357   2.440
93045W        W65470  11.879   3.460   3.343
93046W        W65471  40.029  22.967  14.960
93047W        W65472  16.660  21.160   3.924
93048W        W65473  21.741   9.725  12.527
93049W        W65474  13.370  27.950   1.514
93050W        W65475  16.541  22.236   3.716
93051W        W65476  42.912  21.651   2.701
93052W        W65477  18.083  43.024   2.661
93053W        W65478  27.239  16.655  10.992
93054W        W65479  34.512  24.218   2.353
93055W        W65480  25.262  40.891  13.365
93056W        W65481  13.388  16.821   5.167
93057W        W65482  18.183  23.977  13.922
93058W        W65483  40.995  12.668   3.891
93059W        W65484  29.076  19.774  12.486
93060W        W65485  34.119  44.815  12.714
93061W        W65486  39.011  32.588   0.057
93062W        W65487   6.156  41.249  10.547
93063W        W65488  27.445  34.733  14.899
93064W        W65489   7.782  31.038  10.794
93065W        W65490  26.792  15.358  13.356
93066W        W65491   4.156  36.081  12.021
93067W        W65492  44.294  26.136   4.683
93068W        W65493  17.479  13.534   3.083
93069W        W65494  44.408  43.407  11.990
93070W        W65495  10.358  20.993  14.874
93071W        W65496   6.885  17.876   1.102
93072W        W65497  13.642  18.741   2.580
93073W        W65498  28.655  25.892   1.828
93074W        W65499  21.978  36.805  10.646
93075W        W65500  29.519   8.852  12.003
93076W        W65501  24.389  34.517   3.430
93077W        W65502   0.197  38.882  14.330
93078W        W65503  22.081  24.637   4.741
93079W        W65504  22.019   9.757  14.038
93080W        W65505  29.489   1.921   1.904
93081W        W65506   3.748  34.523  13.764
93082W        W65507  19.787  31.618  12.946
93083W        W65508  27.317  29.046   2.616
93084W        W65509  21.854   9.641   4.965
93085W        W65510  25.531  20.825   0.008
93086W        W65511  19.796  19.889   1.386
93087W        W65512  34.819  27.875   0.758
93088W        W65513  28.184  19.332  12.007
93089W        W65514  32.455  41.719   1.216
93090W        W65515  26.136  10.733   2.741
93091W        W65516  33.533  28.186  10.047
93092W        W65517  23.238  16.664   2.716
93093W        W65518  14.281  37.378  10.735
93094W        W65519  15.082  12.401  12.868
93095W        W65520  22.089   9.895   4.038
93096W        W65521  17.682  31.160  14.817
93097W        W65522  13.755  36.065   3.398
93098W        W65523  28.413   0.513  13.778
93099W        W65524  10.944   5.208  13.508
93100W        W65525  17.683  37.489   3.159
93101W        W65526  25.689  25.158  14.929
93102W        W65527  15.579   2.061   4.627
93103W        W65528   5.419  32.325   2.664
93104W        W65529  43.497  29.104  13.028
93105W        W65530  31.127  40.066   2.803
93106W        W65531  35.699   4.729   3.566
93107W        W65532  42.039   5.283  13.267
93108W        W65533   0.488  33.050  13.306
93109W        W65534  40.063  25.010   3.227
93110W        W65535  32.074  28.073   0.358
93111W        W65536  14.998  27.080   2.227
93112W        W65537  17.259  26.137  10.621
93113W        W65538   5.030  28.603   3.280
93114W        W65539   9.856  17.025  12.250
93115W        W65540  27.740  27.114   0.285
93116W        W65541   9.381  31.026  11.971
93117W        W65542  31.634   8.306  11.465
93118W        W65543  19.120   9.436  10.674
93119W        W65544  39.061   0.000   9.715
93120W        W65545  39.921  30.823   2.032
93121W        W65546  17.152   9.204   1.055
93122W        W65547  23.481   2.966   4.156
93123W        W65548  43.429  17.539   2.697
93124W        W65549  41.400  40.141   3.751
93125W        W65550  17.794  17.423   3.649
93126W        W65551   0.469  30.461  10.459
93127W        W65552  19.562   9.365  12.101
93128W        W65553   1.687  28.632  13.821
93129W        W65554  35.463  30.622  14.256
93130W        W65555   9.701  15.815   3.808
93131W        W65556  20.636  19.316   5.071
93132W        W65557  33.914  18.081  14.266
93133W        W65558  34.473   1.416  13.423
93134W        W65559  24.364  23.644   5.078
93135W        W65560  23.083  13.635   2.166
93136W        W65561  16.767  14.591  13.455
93137W        W65562  27.504   6.303  14.816
93138W        W65563  13.125  29.904  14.840
93139W        W65564   3.978  37.892  14.705
93140W        W65565  41.519  43.653  14.980
93141W        W65566   0.500  18.137  12.695
93142W        W65567   3.920   0.331   3.959
93143W        W65568  10.393  24.667   0.904
93144W        W65569  40.478  41.315  11.730
93145W        W65570  34.184  39.858  12.663
93146W        W65571  10.183  31.503  10.640
93147W        W65572  29.866  37.910  12.027
93148W        W65573  26.003  39.743  13.365
93149W        W65574  36.861  27.739  12.055
93150W        W65575  33.442  32.389   2.291
93151W        W65576  40.347   2.983   2.932
93152W        W65577  33.158  27.926   3.693
93153W        W65578   1.379  22.322  11.776
93154W        W65579  17.136  44.835   3.719
93155W        W65580  25.085  12.660  14.372
93156W        W65581   6.972  21.530   1.286
93157W        W65582   5.434  26.481   1.057
93158W        W65583  11.623  10.223   0.947
93159W        W65584  39.377  34.563   4.522
93160W        W65585  16.996  33.390   4.637
93161W        W65586  12.046  12.722  12.187
93162W        W65587  24.050  43.426   0.171
93163W        W65588  16.359   6.812   3.844
93164W        W65589   0.526  34.054   4.966
93165W        W65590  19.126   9.766   3.173
93166W        W65591   6.995  13.068  13.884
93167W        W65592  15.618   2.351   2.334
93168W        W65593   3.258  38.071   0.436
93169W        W65594  14.750  43.423  13.979
93170W        W65595  25.971  13.929   0.385
93171W        W65596   4.684  23.064   1.053
93172W        W65597  41.840  22.972  11.614
93173W        W65598  14.095  31.103   3.208
93174W        W65599   7.223  13.769   0.327
93175W        W65600  16.066  17.814   4.110
93176W        W65601  16.394  40.994   1.656
93177W        W65602  16.142  27.876   4.648
93178W        W65603  35.322  39.395   3.824
93179W        W65604  35.100  18.005  11.164
93180W        W65605  13.477  37.935   1.928
93181W        W65606  11.722  42.076   3.660
93182W        W65607   8.324  31.065  11.582
93183W        W65608  10.231  11.115  12.923
93184W        W65609  38.860  32.355   4.129
93185W        W65610  31.556  40.126  10.658
93186W        W65611  20.596  25.781  13.250
93187W        W65612   5.775  11.074   0.368
93188W        W65613   9.913   9.444   3.730
93189W        W65614   7.159  31.823   3.438
93190W        W65615  14.087  42.683   3.573
93191W        W65616  44.312  37.032  13.472
93192W        W65617  24.991  21.910   0.484
93193W        W65618  11.080   7.684  12.432
93194W        W65619  28.932  36.413   4.110
93195W        W65620  17.370  28.013  14.010
93196W        W65621  30.148  29.693   1.569
93197W        W65622  29.424  33.552  10.147
93198W        W65623  21.398  12.661  14.501
93199W        W65624  19.192  23.350  12.939
93200W        W65625  38.518  34.751  13.592
93201W        W65626  41.202  39.316   0.196
93202W        W65627  10.915   2.592  10.736
93203W        W65628   2.513  43.823  12.115
93204W        W65629  16.809  12.905  14.188
93205W        W65630  23.453  13.099   2.793
93206W        W65631  33.394  36.704   2.894
93207W        W65632   3.312  44.271  10.885
93208W        W65633  32.094  41.778   4.219
93209W        W65634   0.290  34.048   1.910
93210W        W65635   7.147  14.127   4.572
93211W        W65636   8.075  41.134  11.906
93212W        W65637  10.920  39.830   4.126
93213W        W65638  30.974   9.766  10.664
93214W        W65639  37.466   2.323   3.624
93215W        W65640  18.214  44.710   4.994
93216W        W65641  14.807   4.930  13.400
93217W        W65642  38.084   8.544  10.066
93218W        W65643  42.000  31.047   3.777
93219W        W65644   2.880   0.764   0.852
93220W        W65645  27.721  16.679  11.493
93221W        W65646   9.768   3.849  13.586
93222W        W65647  21.680  25.739   1.477
93223W        W65648  39.448   2.054   4.035
93224W        W65649  11.172  36.578  13.116
93225W        W65650   8.824  42.204   2.360
93226W        W65651  21.303  35.546   4.751
93227W        W65652   0.437  26.916   4.320
93228W        W65653  23.060  26.087   3.749
93229W        W65654   9.734  44.249   2.305
93230W        W65655   1.238  31.423   3.449
93231W        W65656  38.336  12.243   2.960
93232W        W65657   2.250  15.726  14.005
93233W        W65658  43.548   4.633   0.383
93234W        W65659  19.366  29.273  13.072
93235W        W65660  17.626  10.107  11.863
93236W        W65661  10.378   5.800  11.194
93237W        W65662  14.233  16.816  11.542
93238W        W65663  42.909  14.569  12.527
93239W        W65664   9.113  40.847   3.141
93240W        W65665  37.680  25.686  12.479
93241W        W65666  27.495  35.458   4.337
93242W        W65667  15.619   9.477   1.724
93243W        W65668  38.685  22.110  14.620
93244W        W65669   3.566   1.975  13.904
93245W        W65670  18.303  29.758  11.677
93246W        W65671  21.707   2.507  10.659
93247W        W65672  20.126  21.043  11.552
93248W        W65673  11.851  37.542  11.986
93249W        W65674  29.625  26.763   1.712
93250W        W65675   4.979  31.491   1.327
93251W        W65676  19.039  17.589  14.998
93252W        W65677  15.158  19.247  10.670
93253W        W65678  26.171  13.053  11.198
93254W        W65679  32.587   2.832   2.919
93255W        W65680  15.413  33.518  13.711
93256W        W65681  17.099   4.952  11.111
93257W        W65682  26.239   7.358   1.276
93258W        W65683  26.177  21.623  11.263
93259W        W65684  14.323  25.377   3.643
93260W        W65685  14.305   0.695  12.899
93261W        W65686   2.200  11.794  11.950
93262W        W65687  10.650  44.109   2.412
93263W        W65688  42.767   8.232   4.156
93264W        W65689   7.854  25.246   1.840
93265W        W65690  36.330  18.471  14.266
93266W        W65691  13.042  27.844  13.947
93267W        W65692  22.995  36.465  14.545
93268W        W65693  31.055  40.098  10.717
93269W        W65694  25.113  17.371  11.008
93270W        W65695   4.550   1.879   1.382
93271W        W65696  38.372  12.791   2.307
93272W        W65697  28.921  29.525   0.852
93273W        W65698  15.680  33.092  12.991
93274W        W65699   6.890  31.121   0.487
93275W        W65700  37.593   8.737   3.574
93276W        W65701   2.301  40.344   3.859
93277W        W65702  12.088  33.546   0.951
93278W        W65703  13.580  42.003   2.220
93279W        W65704  33.950   6.318   2.225
93280W        W65705  22.305   3.855  10.120
93281W        W65706  14.096   8.293   1.343
93282W        W65707   9.185  32.471  11.479
93283W        W65708  23.749  37.108   2.732
93284W        W65709   7.874  42.352   0.446
93285W        W65710  14.243   6.349  14.324
93286W        W65711   1.981   9.024   0.395
93287W        W65712  38.352   0.468   4.424
93288W        W65713  29.488  11.065   2.790
93289W        W65714  30.221  17.112   0.814
93290W        W65715  39.515  25.954   1.823
93291W        W65716  30.713  36.923   0.275
93292W        W65717  40.929  17.643   4.393
93293W        W65718  35.593  31.260  10.703
93294W        W65719  30.605  13.220   3.604
93295W        W65720  24.512  34.905   4.325
93296W        W65721  24.732  27.581   4.273
93297W        W65722  37.431  19.148   2.758
93298W        W65723  18.931  24.172  11.692
93299W        W65724   4.192  11.285   3.822
93300W        W65725   4.300  33.155   4.386
93301W        W65726  36.562  24.708   3.794
93302W        W65727   0.136  31.114   2.000
93303W        W65728  40.802  30.675  12.631
93304W        W65729  32.579  25.223   0.684
93305W        W65730  30.501  30.949   4.177
93306W        W65731   0.986  36.923  12.366
93307W        W65732  33.941  10.337   1.890
93308W        W65733  41.963   4.186   4.118
93309W        W65734  15.207  33.083   0.503
93310W        W65735  14.798  10.524  12.353
93311W        W65736  32.597  18.758  13.358
93312W        W65737   0.755  36.291   1.431
93313W        W65738  41.917   6.363  10.297
93314W        W65739   7.803   6.611   1.379
93315W        W65740   4.194  33.174  12.094
93316W        W65741  10.895   0.214   4.124
93317W        W65742  44.247  24.719  12.555
93318W        W65743  27.697  25.973   2.119
93319W        W65744   6.242  39.861  14.175
93320W        W65745  13.071  18.314   2.866
93321W        W65746  19.693  16.581  13.575
93322W        W65747   8.256  41.321  11.214
93323W        W65748  40.470  27.644  14.088
93324W        W65749  11.077  32.435   2.302
93325W        W65750  39.776  35.010   1.800
93326W        W65751  30.652   9.306   2.218
93327W        W65752  27.017   2.270   0.732
93328W        W65753  26.913  17.017  11.117
93329W        W65754   1.712  31.507   1.249
93330W        W65755  43.818  27.631   0.482
93331W        W65756  27.383  32.045  12.805
93332W        W65757  12.261  41.560   2.605
93333W        W65758  40.570  13.737  11.002
93334W        W65759  40.717  24.453  10.830
93335W        W65760  31.559  34.077   0.990
93336W        W65761  21.776  17.319   0.374
93337W        W65762  17.046  32.440   2.457
93338W        W65763   5.930  23.674   4.704
93339W        W65764  11.303  28.414  13.060
93340W        W65765  24.738  28.600   2.798
93341W        W65766  33.776  21.167   3.663
93342W        W65767  24.852  15.350  11.602
93343W        W65768  20.134  29.212  12.554
93344W        W65769  11.141  38.810   4.253
93345W        W65770  21.518   9.220   5.750
93346W        W65771   6.792  39.401   3.460
93347W        W65772  33.617  29.867  13.378
93348W        W65773  27.894   6.368   3.869
93349W        W65774   5.396   9.943   4.668
93350W        W65775  31.466   2.020   0.471
93351W        W65776  16.436  11.084   1.741
93352W        W65777  44.008  41.559   3.552
93353W        W65778  12.688   2.317  14.897
93354W        W65779  40.252  33.936  11.071
93355W        W65780  11.263  18.310   0.781
93356W        W65781  25.069  13.754  10.624
93357W        W65782  32.611  12.404   0.806
93358W        W65783  19.164  20.615   3.409
93359W        W65784  37.601  18.064   3.801
93360W        W65785  20.967  25.687   0.356
93361W        W65786   3.930  44.757  14.455
93362W        W65787  15.625  14.270  10.813
93363W        W65788  17.977  30.967   3.264
93364W        W65789  21.310   7.888   4.100
93365W        W65790  28.726  38.895  10.198
93366W        W65791  29.136  41.387   0.451
93367W        W65792  26.074  22.740  12.618
93368W        W65793  19.508  41.426   1.384
93369W        W65794  44.904  34.508   2.158
93370W        W65795  21.960  36.842  12.431
93371W        W65796  21.341   9.647  13.481
93372W        W65797   2.862  13.588  14.868
93373W        W65798  44.390  16.911  11.548
93374W        W65799  14.694   5.298  14.455
93375W        W65800  32.616  30.965   3.392
93376W        W65801  21.500  25.996   3.753
93377W        W65802  21.256  18.248   3.066
93378W        W65803  26.719  21.592   2.235
93379W        W65804   9.730  25.560   2.624
93380W        W65805  26.138  35.495  14.429
93381W        W65806  42.248  23.577   2.865
93382W        W65807  39.455  12.292  11.180
93383W        W65808  31.037  18.644   1.795
93384W        W65809   1.987  12.701   1.520
93385W        W65810  34.191  16.113   2.846
93386W        W65811  39.915   4.188  14.777
93387W        W65812  32.551  28.681   0.574
93388W        W65813  38.054  25.103   2.366
93389W        W65814  38.450  40.854   0.710
93390W        W65815  19.956  19.330  11.184
93391W        W65816  16.086  20.540  12.058
93392W        W65817  28.481   0.442   3.273
93393W        W65818  25.433  43.952  13.945
93394W        W65819  19.170  33.296   2.427
93395W        W65820  16.061  32.474  13.576
93396W        W65821   6.221  27.629   0.222
93397W        W65822  10.814  44.892  14.538
93398W        W65823  35.933   5.236  11.892
93399W        W65824  14.181  34.522  13.528
93400W        W65825   0.119  22.941  10.662
93401W        W65826  41.957  31.403  12.947
93402W        W65827   3.677   3.032   2.870
93403W        W65828  44.009  23.840   3.248
93404W        W65829   2.901  27.457  14.301
93405W        W65830   0.103  20.294   1.097
93406W        W65831  27.449  15.113  14.288
93407W        W65832  22.003   8.213   0.047
93408W        W65833  18.819  33.528   3.388
93409W        W65834  40.829  19.489  11.546
93410W        W65835   3.088   9.208   4.063
93411W        W65836   1.645  24.078   0.699
93412W        W65837  32.026   1.272   2.199
93413W        W65838  13.829  13.245  13.877
93414W        W65839   0.826  37.567   3.709
93415W        W65840  41.943  39.910  11.710
93416W        W65841  39.092  39.167  12.316
93417W        W65842  36.644  39.646  12.030
93418W        W65843  36.482  37.342  14.241
93419W        W65844   8.162  18.103   0.888
93420W        W65845  39.018   7.911  11.124
93421W        W65846  36.457  26.086   0.786
93422W        W65847  38.910  35.137  11.111
93423W        W65848  31.999  17.844  12.422
93424W        W65849  27.385  14.713  10.717
93425W        W65850   6.896  24.600  13.460
93426W        W65851  11.488  15.612  13.753
93427W        W65852   5.030  37.566   2.697
93428W        W65853   2.079  32.487   1.287
93429W        W65854  22.087   5.681  13.847
93430W        W65855  29.004  34.862  12.534
93431W        W65856  34.183  25.501  10.696
93432W        W65857  14.269   7.315   2.904
93433W        W65858   9.432   6.624  10.734
93434W        W65859  15.163  43.984   1.241
93435W        W65860  17.684   0.702  13.250
93436W        W65861   4.816   2.865  13.433
93437W        W65862  36.007   7.855   1.897
93438W        W65863  39.333  23.741   3.242
93439W        W65864  42.113  16.602  11.100
93440W        W65865   4.902   1.588   1.676
93441W        W65866  21.261  34.540  14.926
93442W        W65867   5.833   8.093   1.224
93443W        W65868  17.080  34.539   4.647
93444W        W65869  30.939  12.630   4.130
93445W        W65870  16.168  19.198   1.359
93446W        W65871  27.246  21.048  14.341
93447W        W65872  43.569  41.039   3.953
93448W        W65873  28.840  17.038   1.975
93449W        W65874  35.120   7.127  14.417
93450W        W65875  27.401  13.801  13.415
93451W        W65876  25.126  23.007  13.386
93452W        W65877   0.436  10.805  10.468
93453W        W65878  21.366   4.763   0.465
93454W        W65879  13.257   7.771   1.456
93455W        W65880  26.229  14.258  11.720
93456W        W65881  24.394   4.436  14.828
93457W        W65882  36.284  21.090   3.152
93458W        W65883  37.106  40.513   4.565
93459W        W65884  22.298  31.690   4.706
93460W        W65885  27.587  17.169   0.970
93461W        W65886  27.740  32.688   4.996
93462W        W65887  36.578   4.709   2.592
93463W        W65888  39.042  34.089   0.302
93464W        W65889  33.371  34.999   1.682
93465W        W65890   7.804   4.207  11.931
93466W        W65891   8.149  24.430  14.043
93467W        W65892  11.281  21.083   4.769
93468W        W65893  32.869   7.687   2.656
93469W        W65894  21.370  15.170  12.662
93470W        W65895  43.396  38.826   2.606
93471W        W65896   7.042   4.992   4.513
93472W        W65897   5.769  36.933  11.113
93473W        W65898  17.887  15.831  11.107
93474W        W65899  22.365   9.282  12.714
93475W        W65900   8.356   7.269  14.333
93476W        W65901  36.081   2.490  11.884
93477W        W65902  25.261  28.675   1.292
93478W        W65903  11.589  41.967   1.793
93479W        W65904  37.923   8.350  11.920
93480W        W65905  32.943  14.915   0.054
93481W        W65906  41.059   9.841   2.802
93482W        W65907  39.402  23.944   4.668
93483W        W65908   5.978   0.944  11.528
93484W        W65909   5.938  14.173  13.855
93485W        W65910  15.172  21.351  10.210
93486W        W65911  21.009  42.326  12.980
93487W        W65912  37.854  33.569  10.850
93488W        W65913  12.169  20.482  14.789
93489W        W65914  17.018   4.265  11.420
93490W        W65915   6.703  30.451   2.305
93491W        W65916   5.136  35.510  14.303
93492W        W65917  29.457  14.876   4.179
93493W        W65918  19.959   5.782  13.956
93494W        W65919  17.937  17.752   2.667
93495W        W65920  14.876  12.636  14.459
93496W        W65921  16.177  11.250  12.653
93497W        W65922  13.587  42.589   1.335
93498W        W65923  12.388  20.912   4.504
93499W        W65924   5.715   9.835   0.781
93500W        W65925  15.503  20.593   4.268
93501W        W65926   4.789  41.311  12.534
93502W        W65927  20.523  10.192   1.631
93503W        W65928  35.584   0.841  14.028
93504W        W65929   2.312   5.297   1.213
93505W        W65930  41.314   1.703  11.937
93506W        W65931   5.398   2.205   0.914
93507W        W65932   4.714  24.672  13.519
93508W        W65933   1.240  27.409   2.247
93509W        W65934  31.674  14.812   2.041
93510W        W65935  30.523  19.547   0.426
93511W        W65936  27.205  20.261   1.758
93512W        W65937  28.122  13.857   2.862
93513W        W65938  42.327  22.023   3.878
93514W        W65939  22.531  11.758   3.474
93515W        W65940  37.124   6.986   2.813
93516W        W65941  34.359  17.796  12.377
93517W        W65942  36.167  31.510   1.654
93518W        W65943  32.783  18.794   9.890
93519W        W65944  37.124  10.070   0.729
93520W        W65945  18.963  23.714   3.758
93521W        W65946  43.798  39.721   1.371
93522W        W65947  21.897   2.122   0.540
93523W        W65948  26.077   7.632   2.816
93524W        W65949  37.536  25.658   3.510
93525W        W65950  17.676  19.163   2.124
93526W        W65951   1.251  27.934   2.668
93527W        W65952  30.086  40.334  12.091
93528W        W65953  11.042  30.369   1.383
93529W        W65954  12.204   0.756   3.822
93530W        W65955  42.856   0.001  13.969
93531W        W65956  39.051   2.866   3.757
93532W        W65957   3.832  16.680  13.022
93533W        W65958  12.894  35.430   3.298
93534W        W65959  36.978  23.131  10.153
93535W        W65960  40.932   5.002   3.010
93536W        W65961  12.851  42.843   2.902
93537W        W65962  15.190  20.466  10.948
93538W        W65963   1.976  27.941  11.726
93539W        W65964  28.680  20.752   0.725
93540W        W65965  35.919   0.637  14.668
93541W        W65966   5.797  33.353   3.497
93542W        W65967  21.458  42.280   0.726
93543W        W65968  27.651  28.709  10.852
93544W        W65969  40.345   8.823   3.740
93545W        W65970  31.432  10.756   2.915
93546W        W65971  18.562  21.700  12.478
93547W        W65972  32.898   3.197  14.340
93548W        W65973  33.831  29.299   0.466
93549W        W65974  10.296  28.913  11.380
93550W        W65975  24.768   1.090   0.730
93551W        W65976  40.341  19.454  11.174
93552W        W65977   3.248   3.407   1.326
93553W        W65978  39.952  25.752   1.013
93554W        W65979  20.750  42.399  14.301
93555W        W65980   9.996  37.085  13.529
93556W        W65981  39.597  30.978   1.233
93557W        W65982  13.155  19.898  12.029
93558W        W65983  34.799  11.420  12.382
93559W        W65984  35.511  35.579   1.380
93560W        W65985  44.905  29.653  10.796
93561W        W65986  35.093  38.353  10.699
93562W        W65987  13.800  17.186   4.543
93563W        W65988  12.086  38.172   1.996
93564W        W65989  20.521  41.929  14.326
93565W        W65990  34.575  36.024  12.420
93566W        W65991  19.594   0.912   3.153
93567W        W65992  40.303   6.869  11.955
93568W        W65993  37.370  17.222   0.907
93569W        W65994  24.987  39.817  14.335
93570W        W65995  28.421  15.550  11.576
93571W        W65996  18.671   7.774  10.713
93572W        W65997  33.562  43.740  14.280
93573W        W65998  36.017  35.981  10.660
93574W        W65999  35.525  24.701  10.905
93575W        W66000   9.493  35.872  10.982
93576W        W66001  25.003   8.809   4.628
93577W        W66002  44.508   2.032   4.894
93578W        W66003   5.043  30.107  14.915
93579W        W66004  40.442  31.613  12.506
93580W        W66005  44.303  33.346   4.558
93581W        W66006  39.439  24.268   0.428
93582W        W66007  10.376  22.512  12.061
93583W        W66008  29.366  16.305   1.451
93584W        W66009  36.600  10.109  10.240
93585W        W66010  24.579  11.439  13.001
93586W        W66011  21.339  40.020   5.104
93587W        W66012  41.379   7.833   3.187
93588W        W66013  35.579  20.349   2.845
93589W        W66014   7.959  22.144  14.986
93590W        W66015  31.016  32.428  11.204
93591W        W66016  28.405   2.712  11.403
93592W        W66017   2.940  33.158  10.639
93593W        W66018  40.958  17.561  14.950
93594W        W66019  26.126  21.752  12.912
93595W        W66020   3.743   8.310  11.014
93596W        W66021   5.778  31.093   3.581
93597W        W66022  30.570   5.709  14.481
93598W        W66023   8.311   8.071   2.780
93599W        W66024  31.596  23.286  10.894
93600W        W66025  25.203  15.522   0.080
93601W        W66026   9.694  33.558   3.657
93602W        W66027  22.013  24.143   2.318
93603W        W66028  43.564  35.603   3.578
93604W        W66029   8.538  35.625  14.403
93605W        W66030   9.468  36.670  12.858
93606W        W66031  17.498  13.138  13.375
93607W        W66032  33.304  37.190   2.700
93608W        W66033  44.508  25.222   0.035
93609W        W66034  31.513  24.184  14.736
93610W        W66035  14.958  18.979   1.867
93611W        W66036  26.502  32.143   3.228
93612W        W66037  38.545  39.342  12.889
93613W        W66038  38.559  44.816  11.570
93614W        W66039   2.781  20.356  12.131
93615W        W66040  43.810   4.727   3.631
93616W        W66041  33.013  12.145   0.003
93617W        W66042  33.369  27.589  13.953
93618W        W66043  35.428   3.762  12.950
93619W        W66044   9.708   7.419   2.232
93620W        W66045  19.161  16.638  12.133
93621W        W66046  24.784  21.329   4.094
93622W        W66047  20.063  12.795   4.688
93623W        W66048  34.563  44.014  13.365
93624W        W66049  14.262  28.785  11.981
93625W        W66050  30.476  28.909  12.109
93626W        W66051  28.499   7.123   2.336
93627W        W66052   4.805  27.020   3.321
93628W        W66053   6.902  10.070   0.709
93629W        W66054  39.683  15.077   3.240
93630W        W66055  37.471  13.067  13.963
93631W        W66056  39.950  16.705   1.730
93632W        W66057   9.239  22.662  12.796
93633W        W66058   8.200  19.751  13.778
93634W        W66059  38.865   5.971   1.419
93635W        W66060   9.430  24.477   2.737
93636W        W66061   1.673  36.338  13.223
93637W        W66062  33.916  15.609   0.277
93638W        W66063  19.567   3.453  14.477
93639W        W66064  29.228  28.008  12.964
93640W        W66065  31.923  20.099   1.463
93641W        W66066   7.293   8.528  11.006
93642W        W66067  40.916   6.688  12.936
93643W        W66068  40.877  18.066  13.988
93644W        W66069  25.534  31.878  11.670
93645W        W66070  17.316  25.932   3.235
93646W        W66071  10.973  19.548   1.929
93647W        W66072   6.311  38.854   0.416
93648W        W66073  25.158  30.110   3.639
93649W        W66074  42.561  40.901   3.545
93650W        W66075   0.297  37.687   0.075
93651W        W66076  27.245   9.568   1.860
93652W        W66077  18.520  20.591   4.738
93653W        W66078  26.850  29.358   4.288
93654W        W66079  38.145  15.876  14.968
93655W        W66080  28.885   4.246  14.802
93656W        W66081   6.262  17.918  12.159
93657W        W66082  26.425  23.478   2.318
93658W        W66083  22.844  23.805   4.297
93659W        W66084  13.840  30.136   1.507
93660W        W66085  12.257  24.709   1.510
93661W        W66086  44.035  41.368  13.788
93662W        W66087  30.817  12.063   0.569
93663W        W66088  41.103  43.125  12.555
93664W        W66089  28.950  19.714  13.397
93665W        W66090  29.936  37.573  14.923
93666W        W66091   4.669  15.058   1.324
93667W        W66092  36.397  15.319   4.670
93668W        W66093  23.512  22.660  13.583
93669W        W66094  24.581  19.810  13.934
93670W        W66095  30.114  10.123   1.204
93671W        W66096  15.687   1.397   2.369
93672W        W66097  12.434  25.017   4.203
93673W        W66098  33.902  30.467   2.896
93674W        W66099  19.744  11.394   3.403
93675W        W66100  24.795  10.893   1.489
93676W        W66101   4.394   5.660   3.399
93677W        W66102  18.284  31.503  10.095
93678W        W66103  27.466  31.729  11.459
93679W        W66104  44.903   0.276   4.540
93680W        W66105  20.713  15.505   1.428
93681W        W66106  16.863  12.061   3.920
93682W        W66107  36.408   6.612  11.966
93683W        W66108  19.987  26.911  14.006
93684W        W66109  10.786  14.764   4.560
93685W        W66110  16.710   2.996  10.940
93686W        W66111  20.065   7.738  12.365
93687W        W66112  26.545  32.384  10.393
93688W        W66113  17.391  16.793   3.206
93689W        W66114  38.508  11.254   4.247
93690W        W66115  42.410  14.783   2.761
93691W        W66116  10.028  22.563  14.537
93692W        W66117   0.979  41.114   2.663
93693W        W66118  10.186  25.158   1.200
93694W        W66119  16.288  20.808   3.788
93695W        W66120  11.284   5.472  14.806
93696W        W66121  23.357   7.078   4.339
93697W        W66122  37.360  30.239  11.582
93698W        W66123  34.119  40.716  14.031
93699W        W66124  37.227  15.788   1.876
93700W        W66125   5.158  44.031   2.753
93701W        W66126  18.591  22.354   5.047
93702W        W66127  18.620  28.898  12.602
93703W        W66128  20.244  11.331  14.928
93704W        W66129  42.755  40.901   3.057
93705W        W66130   9.079  21.461  11.491
93706W        W66131   0.435  17.283  12.576
93707W        W66132  40.018   2.733   4.695
93708W        W66133  17.804  18.889   3.123
93709W        W66134  23.608   3.980   1.273
93710W        W66135  26.709  23.319  12.660
93711W        W66136  32.445   1.831   0.730
93712W        W66137  19.699  27.583  14.901
93713W        W66138  39.435   5.257   3.593
93714W        W66139   2.337  26.788  13.884
93715W        W66140   6.646  32.727  11.502
93716W        W66141  12.674   1.952  14.538
93717W        W66142  26.935  27.131   2.163
93718W        W66143  34.398  41.549   0.637
93719W        W66144  34.111  37.923  13.786
93720W        W66145  37.619  44.951   0.687
93721W        W66146  22.455  26.987  13.719
93722W        W66147  11.096  11.624   3.656
93723W        W66148  17.003  38.956   2.823
93724W        W66149  31.586  27.097   2.308
93725W        W66150  23.166  38.309   4.230
93726W        W66151  15.719  12.226  10.683
93727W        W66152  25.250  33.449   4.254
93728W        W66153  39.579  31.655  12.168
93729W        W66154  24.277  13.352  13.915
93730W        W66155  40.745  44.623   1.894
93731W        W66156   2.386  38.439   0.240
93732W        W66157  11.662  17.772   2.127
93733W        W66158  17.596  23.757   2.372
93734W        W66159  23.550  35.953  11.898
93735W        W66160  21.228  14.633   3.738
93736W        W66161   1.838   9.882  13.382
93737W        W66162  11.220  25.448  14.894
93738W        W66163  18.188  36.878   3.236
93739W        W66164  32.673  44.807   3.224
93740W        W66165  23.179  38.288  11.494
93741W        W66166  22.999  29.695  11.530
93742W        W66167  30.162   8.276   3.161
93743W        W66168  30.662  23.255   1.297
93744W        W66169  34.345  38.566   0.363
93745W        W66170  24.332  33.988   2.293
93746W        W66171  28.220   5.708  12.024
93747W        W66172   0.193  10.979   0.198
93748W        W66173  27.152  20.926  13.013
93749W        W66174  31.599  34.705   2.334
93750W        W66175  29.514  32.645  13.346
93751W        W66176   9.841  13.722   1.209
93752W        W66177  33.000   5.404   4.008
93753W        W66178  29.716  15.707   3.641
93754W        W66179  31.199  19.684  10.123
93755W        W66180  31.302  28.410   0.069
93756W        W66181  13.424  37.851   3.155
93757W        W66182  22.353  41.762   4.269
93758W        W66183  20.990  16.012   3.579
93759W        W66184  43.220  38.226  10.755
93760W        W66185  18.156  39.610  14.952
93761W        W66186  33.537   0.487   3.884
93762W        W66187  17.369  29.600  10.714
93763W        W66188  31.470  32.373  12.450
93764W        W66189   4.936  38.864  13.456
93765W        W66190  39.409   4.353  12.046
93766W        W66191  33.401   2.844  12.837
93767W        W66192  16.250  44.581  11.148
93768W        W66193  22.641   3.983  13.481
93769W        W66194  38.544  28.379   3.785
93770W        W66195  14.803  15.831  13.726
93771W        W66196  37.705  13.216  14.882
93772W        W66197  20.653  28.710  12.926
93773W        W66198  44.448   9.917  11.108
93774W        W66199  23.059  13.175   3.159
93775W        W66200  41.317  23.678   4.363
93776W        W66201  34.034  40.833  12.592
93777W        W66202   2.889  39.527   0.022
93778W        W66203  13.607  23.314  11.689
93779W        W66204  36.355   2.275  13.947
93780W        W66205  21.122   0.062  11.108
93781W        W66206  10.153   6.364   5.049
93782W        W66207  16.543  34.739   4.231
93783W        W66208  34.841  22.662   2.786
93784W        W66209   4.024  14.373  10.736
93785W        W66210  35.504  15.713  10.592
93786W        W66211  28.213   4.254  12.980
93787W        W66212  11.615  13.296   3.698
93788W        W66213  36.070  24.820   3.645
93789W        W66214   1.788  40.796  14.475
93790W        W66215  12.589  38.900   1.383
93791W        W66216   9.344   5.827  10.219
93792W        W66217   0.215  37.431   3.895
93793W        W66218   9.538   6.304  10.215
93794W        W66219  19.137  19.520   3.117
93795W        W66220  33.069   3.900  13.903
93796W        W66221  14.659  21.188  10.308
93797W        W66222  20.473  13.656  11.707
93798W        W66223  22.259   7.328   2.939
93799W        W66224  19.514   0.550  14.107
93800W        W66225  25.517  38.549   0.614
93801W        W66226   3.780  26.662  14.072
93802W        W66227  39.329  15.604   1.717
93803W        W66228  31.894  17.751   2.360
93804W        W66229  29.421   2.007  10.784
93805W        W66230   9.155   9.211  12.048
93806W        W66231   0.043   4.975   1.383
93807W        W66232   5.369  31.358  14.493
93808W        W66233   8.272  37.520   4.074
93809W        W66234  18.598  38.575   0.358
93810W        W66235  43.607  23.555   3.404
93811W        W66236   4.339  11.851  10.421
93812W        W66237   4.367  12.244   3.073
93813W        W66238  17.534  27.715   1.071
93814W        W66239  34.396  11.690  11.060
93815W        W66240  20.162  22.472  14.777
93816W        W66241  34.745  14.451  12.929
93817W        W66242  27.517  15.860  11.971
93818W        W66243  42.455   5.722  14.485
93819W        W66244   1.692  12.237  12.557
93820W        W66245  38.099  30.623  10.542
93821W        W66246  25.146  31.868   2.222
93822W        W66247  17.325  24.728  10.142
93823W        W66248  35.564   9.796  10.611
93824W        W66249  27.486  12.253  11.137
93825W        W66250  39.840  41.921  10.135
93826W        W66251  36.638  14.159  13.849
93827W        W66252  32.123   4.928   2.830
93828W        W66253  19.281  32.655   2.731
93829W        W66254  10.683  10.409  12.421
93830W        W66255   7.007  12.162  12.879
93831W        W66256  22.984  11.828   5.049
93832W        W66257  19.798  20.393   0.415
93833W        W66258  33.454  44.761  14.035
93834W        W66259  17.489  37.438   3.630
93835W        W66260  20.603  32.536  13.574
93836W        W66261  27.128  18.612   1.219
93837W        W66262  29.982  15.359   3.292
93838W        W66263   3.302  22.592  12.521
93839W        W66264  25.126  38.610   0.957
93840W        W66265  29.723  24.027  11.549
93841W        W66266  41.854   5.321   1.146
93842W        W66267  20.496   5.507   4.184
93843W        W66268  13.156  11.767   2.157
93844W        W66269  23.556  40.946   0.468
93845W        W66270  22.338  41.089  11.488
93846W        W66271  13.744  17.555  11.431
93847W        W66272  34.979  44.562   1.953
93848W        W66273   7.335   9.816   0.773
93849W        W66274  25.848  38.989   3.059
93850W        W66275   6.392  18.841   2.649
93851W        W66276  20.078   8.647   2.819
93852W        W66277   2.337  38.984  13.191
93853W        W66278  15.440  39.568  14.742
93854W        W66279  44.453  30.569  11.392
93855W        W66280  27.512  36.635  14.010
93856W        W66281  15.026  18.379   2.915
93857W        W66282  11.157  38.441   0.637
93858W        W66283  37.065  23.686   3.196
93859W        W66284  18.594  43.828   0.243
93860W        W66285   0.952  10.301   3.688
93861W        W66286  26.274  35.991   4.225
93862W        W66287  36.515   5.691   2.363
93863W        W66288  17.186  35.997   0.842
93864W        W66289  14.100  24.187   5.386
93865W        W66290  16.748  18.170  11.784
93866W        W66291  13.094  27.678   1.922
93867W        W66292  16.297  18.043  10.956
93868W        W66293  19.067   7.689  11.642
93869W        W66294  37.118  20.253  11.944
93870W        W66295   3.775  25.467  14.405
93871W        W66296  18.610  14.541   0.895
93872W        W66297  16.613  41.532   3.110
93873W        W66298  30.399  31.175  10.063
93874W        W66299  11.439   4.678   1.978
93875W        W66300  25.458  20.473   1.350
93876W        W66301  32.305  28.960   0.959
93877W        W66302  13.395  25.550   3.867
93878W        W66303  42.120  41.792   4.589
93879W        W66304  20.035  25.970  14.309
93880W        W66305  13.117  44.318  13.947
93881W        W66306   6.169  40.510   9.831
93882W        W66307   3.418   1.414  10.868
93883W        W66308  16.140  22.041   2.282
93884W        W66309  43.827  40.545  10.378
93885W        W66310  10.222  36.239   1.884
93886W        W66311  25.584   2.213   0.341
93887W        W66312  32.074  14.853  13.002
93888W        W66313   4.161  42.079  12.089
93889W        W66314  27.710  25.661  14.565
93890W        W66315  36.631  28.823  10.745
93891W        W66316  22.968   7.396   3.430
93892W        W66317  10.248  25.130   0.691
93893W        W66318  38.547  37.332  14.839
93894W        W66319  13.773  14.610   3.335
93895W        W66320  39.596  16.010   1.905
93896W        W66321  36.025  16.078   3.293
93897W        W66322  41.899  24.341   0.809
93898W        W66323   3.448  31.187  12.967
93899W        W66324   7.676  16.772   0.759
93900W        W66325   6.401  29.717  12.896
93901W        W66326  14.923  34.094   0.853
93902W        W66327  42.834   3.479  11.531
93903W        W66328  17.518  34.805  13.082
93904W        W66329  13.444  23.743   0.434
93905W        W66330  30.042  39.121   2.127
93906W        W66331  44.492  16.054  11.341
93907W        W66332   7.598  17.635  14.956
93908W        W66333  19.366  31.951   2.236
93909W        W66334  28.224  15.619  14.508
93910W        W66335   0.758   5.793  11.073
93911W        W66336  10.773  20.246   1.380
93912W        W66337  35.446   2.826   4.428
93913W        W66338  21.840   5.720  14.575
93914W        W66339  25.299   7.868  13.988
93915W        W66340  16.326   6.073   0.177
93916W        W66341  35.877  35.356   3.808
93917W        W66342  29.228  16.079  13.280
93918W        W66343  35.016  19.367  14.226
93919W        W66344  38.484  34.778   1.874
93920W        W66345  33.147  10.829   1.238
93921W        W66346  26.644  11.796   1.675
93922W        W66347   4.424  24.942   4.184
93923W        W66348   4.769  33.052  14.754
93924W        W66349  15.121  27.669  13.590
93925W        W66350  24.223  15.288  11.055
93926W        W66351  42.935  14.586   1.267
93927W        W66352  31.092  26.942   3.326
93928W        W66353   2.498  41.160  12.523
93929W        W66354  12.240  21.780  12.016
93930W        W66355  26.528   2.039  12.982
93931W        W66356   6.753  33.113   2.717
93932W        W66357  38.083   3.526   2.839
93933W        W66358  18.798   3.722  11.561
93934W        W66359  43.304  31.893   1.455
93935W        W66360  41.415  44.278  13.372
93936W        W66361  18.141  14.155  12.153
93937W        W66362  16.231  25.966  14.945
93938W        W66363   6.297  31.277   3.427
93939W        W66364   6.288   3.849   0.390
93940W        W66365  19.171  41.338   3.604
93941W        W66366  12.754  41.116   0.495
93942W        W66367  16.049  27.667   3.264
93943W        W66368   7.664  30.197   0.835
93944W        W66369  18.934  15.344  14.877
93945W        W66370  34.014  38.533  10.886
93946W        W66371  27.992   2.958  12.755
93947W        W66372  14.076   9.366  11.549
93948W        W66373  35.428  23.048  10.225
93949W        W66374  13.521   2.906   2.205
93950W        W66375   0.461  13.901   1.674
93951W        W66376  37.012   0.423   9.945
93952W        W66377   8.596  31.099   3.573
93953W        W66378   8.796  15.647   0.374
93954W        W66379  39.338  38.935   1.853
93955W        W66380  28.271  28.153  12.836
93956W        W66381  18.131   4.136  11.069
93957W        W66382  39.313  11.597  14.431
93958W        W66383  15.123  24.003  11.585
93959W        W66384  35.031  13.711   0.314
93960W        W66385  14.407  30.133  11.872
93961W        W66386  24.223  26.715   4.173
93962W        W66387  17.296  18.813  12.074
93963W        W66388   4.313  28.426  14.946
93964W        W66389  34.986  20.860  13.549
93965W        W66390  36.478  24.184   1.460
93966W        W66391  19.941  32.318   9.754
93967W        W66392   4.401  13.278  13.851
93968W        W66393  41.261  20.815   4.563
93969W        W66394  20.075  37.628   0.756
93970W        W66395   2.187  12.663   1.041
93971W        W66396  17.165  20.701   2.128
93972W        W66397  22.279   3.289  13.847
93973W        W66398   3.698  25.985  14.285
93974W        W66399  31.366  41.855   2.141
93975W        W66400   8.373  16.294   2.830
93976W        W66401  38.054  34.453   2.395
93977W        W66402  11.302  42.738   1.271
93978W        W66403  40.746  34.850   4.178
93979W        W66404  34.297  16.092  11.786
93980W        W66405  35.568   3.362  12.096
93981W        W66406   5.704  38.380  14.380
93982W        W66407  13.648   6.224  11.138
93983W        W66408  36.777  32.941  11.643
93984W        W66409  28.715  17.246  12.262
93985W        W66410  10.005   2.839  11.553
93986W        W66411   8.445  41.510   4.166
93987W        W66412  36.792   0.918  11.705
93988W        W66413  11.287   7.258   9.712
93989W        W66414  35.578  29.105  12.859
93990W        W66415  13.591  20.624   2.379
93991W        W66416  27.484  39.489   3.465
93992W        W66417  35.097  35.883  12.960
93993W        W66418  24.166  44.722   4.189
93994W        W66419  34.325  10.252  12.086
93995W        W66420  33.311  21.114  11.564
93996W        W66421   8.103   6.249   1.605
93997W        W66422  25.192  32.135   0.761
93998W        W66423  24.261  10.460   5.043
93999W        W66424  26.858  24.650  14.366
94000W        W66425  28.645  23.491   3.923
94001W        W66426   4.950  12.363   3.123
94002W        W66427  10.483  11.555  12.957
94003W        W66428  39.025  30.704   2.894
94004W        W66429  15.756  27.422  12.734
94005W        W66430  34.148   0.980   1.762
94006W        W66431   6.892  40.749   2.972
94007W        W66432   6.764  38.552   4.052
94008W        W66433  15.096  37.946   1.215
94009W        W66434  42.851  37.448   0.478
94010W        W66435  30.947  31.639  12.249
94011W        W66436  34.220  24.017   1.123
94012W        W66437   8.493  10.929   3.007
94013W        W66438   4.331  33.055  12.583
94014W        W66439  37.573  29.816  14.813
94015W        W66440  20.039  10.918  14.415
94016W        W66441  41.885  43.607   4.573
94017W        W66442  37.981  37.542  11.950
94018W        W66443  43.013  11.427  11.679
94019W        W66444  21.815  10.244  12.394
94020W        W66445  19.972  40.859   1.898
94021W        W66446   0.379  23.739   2.650
94022W        W66447  42.424  34.131   3.293
94023W        W66448   9.432  20.588  14.929
94024W        W66449  31.091  44.499  13.293
94025W        W66450  14.759  13.928   4.673
94026W        W66451  39.273  13.749  14.199
94027W        W66452   1.764   6.898  12.089
94028W        W66453  42.596  23.819  11.519
94029W        W66454  27.612   8.812  11.460
94030W        W66455  37.308  19.746   1.104
94031W        W66456  26.403  29.526   0.513
94032W        W66457  27.779  11.219  11.477
94033W        W66458   6.241  13.613  12.527
94034W        W66459   3.383   2.982   4.206
94035W        W66460   1.730  23.628  13.041
94036W        W66461  10.351  27.228  12.392
94037W        W66462  39.491   0.351   2.141
94038W        W66463  30.311   9.666  11.728
94039W        W66464   7.864  15.797   3.837
94040W        W66465  43.568   5.382   2.078
94041W        W66466  13.212  39.077   3.389
94042W        W66467  14.375  13.732  10.822
94043W        W66468  27.010  20.511   1.343
94044W        W66469  44.526  17.635   2.951
94045W        W66470  39.475  37.843  13.007
94046W        W66471  29.154   2.307  11.727
94047W        W66472  12.516  35.534  14.429
94048W        W66473  23.162  16.586  11.125
94049W        W66474   3.732  33.487   3.667
94050W        W66475  11.376  20.677  11.167
94051W        W66476  22.244  13.044   0.855
94052W        W66477  17.101  22.948  11.940
94053W        W66478  28.921  23.558  11.600
94054W        W66479  26.967  12.318  13.065
94055W        W66480   3.847  29.696  14.588
94056W        W66481  27.169  30.880   0.412
94057W        W66482  41.215  39.541  13.331
94058W        W66483  44.806  37.384  13.393
94059W        W66484  44.045   8.447  10.575
94060W        W66485  29.335  16.533  14.549
94061W        W66486  32.888   2.487   4.586
94062W        W66487  39.459  38.576   0.294
94063W        W66488  16.792  36.625   0.764
94064W        W66489  12.834  16.151   2.371
94065W        W66490  17.211   5.901   3.446
94066W        W66491   9.184   9.639  12.888
94067W        W66492  11.592  13.167  14.375
94068W        W66493  20.655  10.587  10.668
94069W        W66494  24.478  26.759   0.808
94070W        W66495  29.563  13.279  10.656
94071W        W66496  14.454  32.978   4.752
94072W        W66497  30.491  40.821  14.036
94073W        W66498   5.652  24.628   1.246
94074W        W66499  32.944  29.682   2.960
94075W        W66500  34.465  19.140   2.675
94076W        W66501  33.673  40.486  13.310
94077W        W66502   9.357  17.023  12.377
94078W        W66503   4.736   2.232   0.315
94079W        W66504  21.518   8.644   0.824
94080W        W66505  41.256  32.586   1.790
94081W        W66506  38.675  25.206   5.459
94082W        W66507  23.228   9.627  13.116
94083W        W66508  18.803  17.402  13.864
94084W        W66509   2.206  21.262   0.981
94085W        W66510  24.092  16.193   0.348
94086W        W66511  25.350  41.783  14.341
94087W        W66512  26.990   3.176   1.274
94088W        W66513  22.024  14.017   3.332
94089W        W66514  17.150  30.945  14.743
94090W        W66515  38.835  17.141   3.125
94091W        W66516  44.425   5.899  11.508
94092W        W66517  25.616   5.919  13.855
94093W        W66518  10.229   0.219  11.175
94094W        W66519  33.700   8.831  11.156
94095W        W66520  15.670   7.281   4.117
94096W        W66521  30.561  33.898  12.586
94097W        W66522   0.247   6.441   1.875
94098W        W66523  26.590  39.292   3.275
94099W        W66524  21.681  29.018  14.498
94100W        W66525  19.591  21.468   4.022
94101W        W66526  12.765  10.381  10.582
94102W        W66527  34.523   9.887  11.779
94103W        W66528  37.053  27.159   2.373
94104W        W66529   4.705  36.625   0.300
94105W        W66530  35.886  37.582   1.823
94106W        W66531  38.329  31.396  11.612
94107W        W66532  17.811  22.947  13.801
94108W        W66533  21.752  42.853  14.958
94109W        W66534  16.545  13.581  12.057
94110W        W66535  42.266   9.237  11.133
94111W        W66536   5.892  18.099   2.847
94112W        W66537   6.815   5.349  12.814
94113W        W66538  22.326  27.121   3.034
94114W        W66539  41.051   9.367   2.307
94115W        W66540  18.781  26.517   4.087
94116W        W66541  19.253  11.703   2.796
94117W        W66542  35.660  32.203   1.732
94118W        W66543  13.943  44.588  14.212
94119W        W66544   6.810  37.075   4.225
94120W        W66545   1.178   4.835   0.038
94121W        W66546   8.477  30.056   2.631
94122W        W66547  41.975  19.437  13.465
94123W        W66548  11.913   5.902  13.008
94124W        W66549   0.743  36.321   4.361
94125W        W66550  26.614  35.497   0.382
94126W        W66551  40.978  11.608  11.373
94127W        W66552  29.140   5.447  11.942
94128W        W66553  28.588  39.551   0.189
94129W        W66554  24.444  20.600   1.420
94130W        W66555  44.636  20.962   3.398
94131W        W66556  16.464  37.520  14.826
94132W        W66557  43.423   6.161   2.770
94133W        W66558  33.458  15.627   1.669
94134W        W66559  40.840   5.408  12.684
94135W        W66560  20.287  22.304   2.139
94136W        W66561  21.543  39.580   2.803
94137W        W66562  30.692  42.845  10.203
94138W        W66563   5.627  32.663  12.449
94139W        W66564  27.098  15.157   1.411
94140W        W66565   1.230  12.761   4.634
94141W        W66566   1.870  16.674  13.298
94142W        W66567   3.879  38.465  12.799
94143W        W66568  20.754   2.263   2.151
94144W        W66569  27.142  32.436  14.681
94145W        W66570  20.272  32.619   1.783
94146W        W66571  17.318  10.603  13.519
94147W        W66572  36.371  13.151  12.529
94148W        W66573  16.332   1.941  13.082
94149W        W66574  39.109  28.154   1.109
94150W        W66575   6.156  26.058  14.359
94151W        W66576  43.874   5.362   4.906
94152W        W66577  42.394  36.369   0.412
94153W        W66578  18.976  43.381   4.598
94154W        W66579   9.715  25.553   4.111
94155W        W66580  32.989  35.576   0.624
94156W        W66581  10.812  10.207  10.927
94157W        W66582  21.751   4.865  11.243
94158W        W66583  26.456  10.122   2.214
94159W        W66584   3.851  15.161   0.168
94160W        W66585  13.401  12.423  12.440
94161W        W66586  40.332  27.223   3.790
94162W        W66587   5.673  12.924   2.529
94163W        W66588  41.517  17.689  10.798
94164W        W66589  34.367   3.938   3.306
94165W        W66590  35.104  33.937   4.097
94166W        W66591  38.323  40.795  13.739
94167W        W66592  14.148  25.416  11.369
94168W        W66593  41.308  27.736   4.111
94169W        W66594  42.877   5.963  13.738
94170W        W66595   9.140  23.793   3.743
94171W        W66596  34.460  18.661  14.756
94172W        W66597  42.042   1.509  11.194
94173W        W66598  40.479  32.966  11.431
94174W        W66599  30.947  36.895   2.675
94175W        W66600  44.209  16.763   3.967
94176W        W66601  23.889  23.481   2.347
94177W        W66602  16.154  14.139  14.923
94178W        W66603   7.455  34.456  13.836
94179W        W66604  32.995  10.352   1.889
94180W        W66605  41.247   3.289   0.722
94181W        W66606  13.748  14.910   0.430
94182W        W66607   7.821  32.376   2.303
94183W        W66608  20.722   5.442   0.118
94184W        W66609  18.297  32.994   2.796
94185W        W66610  16.090  42.852   0.519
94186W        W66611  14.444  44.800  13.466
94187W        W66612  29.965   3.807   2.613
94188W        W66613   4.880   0.754  13.453
94189W        W66614   5.790   2.737  11.487
94190W        W66615  22.835   0.091  11.244
94191W        W66616  18.049  38.480  11.193
94192W        W66617  32.928  18.156   1.492
94193W        W66618  15.187  30.617  13.957
94194W        W66619  43.141  29.664   2.611
94195W        W66620  37.214  13.083  14.813
94196W        W66621  33.363  38.352  13.948
94197W        W66622  43.218  21.545   3.709
94198W        W66623  20.207   8.712  14.434
94199W        W66624   1.734  24.746   3.536
94200W        W66625  12.812  42.908  12.970
94201W        W66626   0.348  15.321   2.257
94202W        W66627  23.429   1.243  14.549
94203W        W66628  28.158  11.289  14.087
94204W        W66629  14.313  21.276  13.964
94205W        W66630  33.827  34.957   4.082
94206W        W66631  26.597  37.187  12.010
94207W        W66632  22.723  19.017  14.781
94208W        W66633  15.405  30.113  12.140
94209W        W66634  15.243  37.266  12.149
94210W        W66635   1.873  36.091   2.678
94211W        W66636  11.156  28.597   2.044
94212W        W66637  29.220  44.464   3.011
94213W        W66638   7.738  29.707   3.114
94214W        W66639  27.085  11.484  14.676
94215W        W66640  37.817  22.559  14.545
94216W        W66641  29.114  14.576  12.484
94217W        W66642  25.386  44.460  11.108
94218W        W66643  36.162  42.748  14.400
94219W        W66644   9.717   1.170   0.427
94220W        W66645  36.824  33.546  13.847
94221W        W66646   2.841  21.466  14.949
94222W        W66647  21.845  42.664  12.774
94223W        W66648  41.279   2.989  13.484
94224W        W66649  18.618  26.963   3.845
94225W        W66650  19.735  19.053   1.999
94226W        W66651  30.677   9.263   0.283
94227W        W66652  10.825  35.446  10.759
94228W        W66653  37.528   1.045   4.085
94229W        W66654   8.038  41.557  12.564
94230W        W66655  26.889  29.451   0.345
94231W        W66656  29.593  40.066  13.823
94232W        W66657  38.484  22.225  14.162
94233W        W66658  13.883  34.515   4.259
94234W        W66659  33.070  24.580   3.788
94235W        W66660  20.314   8.450   2.382
94236W        W66661   0.766   2.887   4.666
94237W        W66662  15.216   4.482   4.536
94238W        W66663  44.495   8.099  12.966
94239W        W66664  30.632  27.577   4.607
94240W        W66665  19.593  33.584  11.609
94241W        W66666   8.153  22.156   0.647
94242W        W66667  13.765   9.082   4.138
94243W        W66668  22.618  21.239  11.431
94244W        W66669  40.432  28.993  14.010
94245W        W66670   6.352  36.395  13.405
94246W        W66671  19.172   2.346   0.370
94247W        W66672   1.898  19.765  13.952
94248W        W66673  25.607  40.905  14.371
94249W        W66674  38.510   6.246  12.347
94250W        W66675  44.508  22.263  10.277
94251W        W66676   1.784  11.650   2.407
94252W        W66677  25.353  42.940   0.107
94253W        W66678  13.705  21.604  14.707
94254W        W66679  34.547  43.121  10.206
94255W        W66680  43.999  39.327   3.717
94256W        W66681  16.956  30.963  11.524
94257W        W66682  29.899  24.126  12.509
94258W        W66683  30.010  28.072   1.521
94259W        W66684  10.764   5.351   2.018
94260W        W66685  15.316  12.397  13.336
94261W        W66686  35.138  44.480   4.927
94262W        W66687  12.099  14.235   5.074
94263W        W66688  22.119  23.278  13.928
94264W        W66689   0.812  18.604  11.492
94265W        W66690  34.263   3.937  11.991
94266W        W66691  10.333  17.272  13.751
94267W        W66692  40.851  29.551   4.774
94268W        W66693  34.035  25.689  11.657
94269W        W66694  18.179  11.175   0.770
94270W        W66695  17.679  25.990  10.921
94271W        W66696   4.051  28.527  11.587
94272W        W66697  12.187   8.620  13.117
94273W        W66698  12.855  40.268  13.383
94274W        W66699  35.619  14.781  11.583
94275W        W66700  17.985  29.197   0.010
94276W        W66701  10.157  36.089   3.766
94277W        W66702  16.738  13.696  14.557
94278W        W66703  39.400  11.251   4.509
94279W        W66704  16.538   1.841   9.855
94280W        W66705  10.083   8.151  11.524
94281W        W66706  35.622  25.113  12.988
94282W        W66707  20.603  44.434   2.935
94283W        W66708  32.205   1.751  14.042
94284W        W66709   4.332   2.471  12.202
94285W        W66710  18.173  44.868  12.607
94286W        W66711  42.098  44.808   1.794
94287W        W66712  39.421  21.727  14.330
94288W        W66713  30.184  37.070   1.641
94289W        W66714   2.331  27.371  12.166
94290W        W66715  20.254   2.800   4.108
94291W        W66716  22.171  18.193   2.170
94292W        W66717  26.663  37.880  11.205
94293W        W66718  36.063  16.387  11.415
94294W        W66719  24.162  22.569   2.233
94295W        W66720   9.946  14.250  12.810
94296W        W66721  12.539  10.299  11.912
94297W        W66722  26.228   8.651  12.553
94298W        W66723  31.595  34.013  13.835
94299W        W66724   9.636  42.036   2.291
94300W        W66725  14.113  18.161   4.602
94301W        W66726   4.261  22.185   2.424
94302W        W66727  28.577  33.787  14.471
94303W        W66728  28.597  13.819   0.824
94304W        W66729   7.631  26.794   2.706
94305W        W66730  25.967  41.795   1.808
94306W        W66731  23.443  26.212  11.478
94307W        W66732  17.773  20.325  13.532
94308W        W66733  33.375  37.534  14.850
94309W        W66734  15.619  26.410   4.662
94310W        W66735  27.180  38.946   1.446
94311W        W66736  21.958  25.098   1.195
94312W        W66737   8.803  22.262  11.995
94313W        W66738   6.831   9.068   3.741
94314W        W66739   8.833  32.784  13.380
94315W        W66740  25.151  36.609  12.609
94316W        W66741  32.403  19.917   1.655
94317W        W66742  20.676  30.956  14.991
94318W        W66743  23.915  34.108  12.996
94319W        W66744  37.921  40.502  14.304
94320W        W66745  26.088  44.088   3.349
94321W        W66746   4.684  17.668   3.783
94322W        W66747  32.006   1.055   3.046
94323W        W66748  32.604  32.506  13.797
94324W        W66749   5.201  27.643   2.253
94325W        W66750  31.175  34.104  12.383
94326W        W66751  25.696  25.402   2.241
94327W        W66752   9.151  29.242  11.952
94328W        W66753  16.813  10.606  11.625
94329W        W66754  14.748  30.600   2.379
94330W        W66755   7.629  15.336   1.830
94331W        W66756  11.720   5.712   0.487
94332W        W66757  33.848  34.943   2.734
94333W        W66758  38.564  40.477   4.081
94334W        W66759  12.783  23.105   4.515
94335W        W66760  34.076  13.215  11.964
94336W        W66761  15.727  39.555   4.677
94337W        W66762  33.195  42.267   4.613
94338W        W66763  40.034  43.367  11.734
94339W        W66764  37.290  29.242   1.868
94340W        W66765  28.778  16.753  12.934
94341W        W66766   4.889  42.971  10.564
94342W        W66767  36.483  15.099   0.801
94343W        W66768  31.326  17.976   4.183
94344W        W66769  31.533  25.115  14.288
94345W        W66770  26.531  17.309   3.236
94346W        W66771  22.626  23.625   4.738
94347W        W66772  37.519  18.656   2.890
94348W        W66773  30.525  14.847  14.314
94349W        W66774  19.916  35.986  13.495
94350W        W66775  43.024  40.489  11.446
94351W        W66776  17.129  32.425   3.484
94352W        W66777   6.165  40.809   0.835
94353W        W66778   6.270  42.112  11.562
94354W        W66779  43.950  11.591  11.854
94355W        W66780  26.208  11.125   0.883
94356W        W66781  22.610  37.397   5.097
94357W        W66782  41.972  34.888   0.219
94358W        W66783  27.451  21.039   2.276
94359W        W66784   0.072  15.123   0.279
94360W        W66785  18.328  18.858   3.218
94361W        W66786   4.840  10.574   4.888
94362W        W66787  18.850  38.924   4.552
94363W        W66788   9.338  35.459   1.896
94364W        W66789  31.151  43.979   2.036
94365W        W66790  42.498  19.007   0.652
94366W        W66791  12.303  19.594  13.380
94367W        W66792  25.968  15.814   4.322
94368W        W66793  26.308  34.013  14.740
94369W        W66794   3.435  16.277   0.533
94370W        W66795  35.160  10.626  12.142
94371W        W66796  26.958  39.557  12.034
94372W        W66797   2.954  34.935  12.624
94373W        W66798  21.584  21.365  10.402
94374W        W66799  19.672  31.133  12.063
94375W        W66800  43.827  19.988   1.001
94376W        W66801  40.959  40.443   1.779
94377W        W66802  35.865   1.489  11.120
94378W        W66803  21.694  28.114  14.893
94379W        W66804   8.380  18.969  13.427
94380W        W66805  38.530  12.240  13.166
94381W        W66806  24.451  38.963   0.532
94382W        W66807  11.354  12.104  13.536
94383W        W66808  10.710  11.064   4.175
94384W        W66809  21.161  11.119   0.284
94385W        W66810   2.446  36.807   2.680
94386W        W66811  40.459  23.306   1.928
94387W        W66812  23.688   5.997  10.355
94388W        W66813  24.469   2.508   1.778
94389W        W66814  36.428  27.674  13.312
94390W        W66815   6.238  24.876  10.272
94391W        W66816  25.762   4.178   3.903
94392W        W66817  43.030   6.214   1.864
94393W        W66818  44.853  16.210   4.572
94394W        W66819  24.637   2.287   4.698
94395W        W66820  15.335  43.036  13.414
94396W        W66821  19.991  44.490   4.979
94397W        W66822  31.378  14.082  12.881
94398W        W66823  31.082   5.725  14.303
94399W        W66824  32.555   3.930   0.542
94400W        W66825   4.762  14.834  10.794
94401W        W66826  43.939   3.289  12.862
94402W        W66827  23.742  31.184  11.348
94403W        W66828   2.885  16.289   1.160
94404W        W66829  31.955  43.430  13.632
94405W        W66830  17.108  20.129  11.445
94406W        W66831  13.188  35.808  11.502
94407W        W66832  28.329  34.715   1.831
94408W        W66833  26.258  39.615  14.513
94409W        W66834  10.253  29.661  13.564
94410W        W66835   1.050  37.853   4.642
94411W        W66836  39.876  26.961  14.442
94412W        W66837   3.423  43.165   0.215
94413W        W66838  37.454  42.919   1.484
94414W        W66839  10.521  37.659   5.319
94415W        W66840  40.826  35.621  13.587
94416W        W66841  41.916  13.584   0.657
94417W        W66842   8.394  26.510   3.229
94418W        W66843  21.540   8.345  10.409
94419W        W66844  30.706  43.898  12.621
94420W        W66845   1.333  28.687   1.848
94421W        W66846  24.517  44.964  13.560
94422W        W66847   0.819  36.586  14.991
94423W        W66848  44.374  15.572   4.162
94424W        W66849  44.337  27.423  12.801
94425W        W66850  35.869  30.449   0.452
94426W        W66851  28.138  16.543  10.695
94427W        W66852  42.020  11.288  14.237
94428W        W66853  33.079  25.237  11.607
94429W        W66854  10.356  37.816   2.453
94430W        W66855  17.224   6.925   1.239
94431W        W66856  10.371  26.848   4.662
94432W        W66857  12.281   1.258  11.631
94433W        W66858   0.492  21.963  12.643
94434W        W66859  17.170  25.272  10.654
94435W        W66860   7.831  41.764  10.770
94436W        W66861   3.519  35.931   1.218
94437W        W66862  37.401  39.894  11.430
94438W        W66863  25.985  17.444  12.095
94439W        W66864   6.992   2.028  11.151
94440W        W66865  40.724   7.662  10.645
94441W        W66866  33.099  39.729  12.931
94442W        W66867  39.029  42.074   4.477
94443W        W66868  24.146  13.547  11.355
94444W        W66869  35.947  26.992  13.317
94445W        W66870  39.709  33.371  12.441
94446W        W66871  40.924  20.748  11.140
94447W        W66872  17.326  43.953   1.555
94448W        W66873   3.680  27.504   2.907
94449W        W66874  33.991  14.643   0.434
94450W        W66875  44.178  24.221   0.764
94451W        W66876  36.603   5.709  13.805
94452W        W66877  39.557  34.327   1.319
94453W        W66878  12.521  30.591   2.889
94454W        W66879   3.440  23.530   0.290
94455W        W66880  41.738   3.870  11.890
94456W        W66881  32.035   6.936   2.368
94457W        W66882  35.395  42.030  11.616
94458W        W66883  32.389  17.277  10.787
94459W        W66884  19.493  44.503  12.077
94460W        W66885  12.742  30.819  13.671
94461W        W66886  23.482  15.787   1.843
94462W        W66887  40.982   3.391  12.022
94463W        W66888  21.903  13.886   1.313
94464W        W66889  44.401  35.651  13.256
94465W        W66890  39.086  16.545   1.320
94466W        W66891  36.478  20.229   2.814
94467W        W66892  44.743  43.565  11.620
94468W        W66893   2.252  30.580  13.472
94469W        W66894  31.018   5.936  11.953
94470W        W66895  41.790  24.470  13.372
94471W        W66896   6.388  17.085  14.885
94472W        W66897   5.795  43.030  10.704
94473W        W66898  29.012  40.878   2.221
94474W        W66899  36.640   4.178   2.386
94475W        W66900  29.694  19.741  12.022
94476W        W66901  13.284  20.587  11.442
94477W        W66902  28.048  43.786   3.622
94478W        W66903  17.299  29.038   1.923
94479W        W66904   7.351   5.453   1.198
94480W        W66905   3.277  26.607  12.522
94481W        W66906   0.843  21.852   4.526
94482W        W66907   5.897  41.202  13.923
94483W        W66908  37.895   2.841  14.072
94484W        W66909  29.570   6.727  11.949
94485W        W66910  26.634  34.975  11.347
94486W        W66911  16.338  21.107  10.970
94487W        W66912  13.849  36.494  14.330
94488W        W66913   8.150   7.334  11.545
94489W        W66914  33.587  29.984   1.862
94490W        W66915  28.070  30.540   1.428
94491W        W66916  14.329  37.087   4.637
94492W        W66917   5.432  35.938  14.390
94493W        W66918  24.447  11.714  14.460
94494W        W66919  36.149  32.849  11.033
94495W        W66920   7.714  27.124   3.197
94496W        W66921  19.726  26.929   1.798
94497W        W66922  13.606   8.946   0.886
94498W        W66923  18.574  15.458  12.871
94499W        W66924   5.338   8.638  11.648
94500W        W66925  19.510  26.043   3.742
94501W        W66926  12.733  19.838   1.316
94502W        W66927  12.578  14.144  14.451
94503W        W66928  33.032  24.056   3.924
94504W        W66929  20.505  31.229  11.522
94505W        W66930   3.478   0.963   3.252
94506W        W66931  40.766  15.776  10.183
94507W        W66932  44.218  37.022  14.295
94508W        W66933  15.336  19.942  13.528
94509W        W66934  17.481  44.395   4.577
94510W        W66935  19.768  18.610  14.490
94511W        W66936  24.591  32.706  10.845
94512W        W66937  10.155  30.539  14.622
94513W        W66938  18.313   7.714   1.221
94514W        W66939  33.962  18.648   3.710
94515W        W66940   7.874  28.859  11.781
94516W        W66941   0.735   3.695   1.275
94517W        W66942  23.104   7.675  12.057
94518W        W66943  34.099  11.765  12.873
94519W        W66944  38.017   6.266   1.482
94520W        W66945   5.288  24.941   2.791
94521W        W66946  18.538   2.250   1.612
94522W        W66947  40.786  41.063   0.326
94523W        W66948  37.959  13.151  14.339
94524W        W66949  21.827  16.194  12.104
94525W        W66950  30.465  22.811   4.614
94526W        W66951  38.004  19.284   2.819
94527W        W66952  29.233  25.504  11.188
94528W        W66953   4.920  44.166  11.564
94529W        W66954  36.508  44.810   2.802
94530W        W66955   9.255   9.777   4.773
94531W        W66956  33.115  38.627   3.804
94532W        W66957   2.168   4.973  13.832
94533W        W66958  12.645   3.708  12.130
94534W        W66959   3.817  28.979  11.430
94535W        W66960   3.852  23.573  14.958
94536W        W66961  15.391  12.604   4.781
94537W        W66962  36.159  38.410  14.292
94538W        W66963   8.461  17.379   0.386
94539W        W66964  41.191   6.799  13.365
94540W        W66965  11.928  20.047   4.240
94541W        W66966  19.061   1.485   2.736
94542W        W66967   9.351   2.425   4.621
94543W        W66968  40.942   6.541   1.758
94544W        W66969  15.897   1.450   0.855
94545W        W66970   2.755  27.250   1.178
94546W        W66971   8.858   2.959   4.448
94547W        W66972  39.116  12.557   2.759
94548W        W66973  25.960   8.387   1.835
94549W        W66974   8.023  13.557  12.395
94550W        W66975  26.140  34.040   3.700
94551W        W66976   1.413  12.205   1.781
94552W        W66977  22.475  12.756  12.520
94553W        W66978   4.430  18.060  11.028
94554W        W66979  22.040  35.445  11.159
94555W        W66980  13.877  35.483  11.491
94556W        W66981  24.700  35.260   1.755
94557W        W66982  11.818  37.851  11.091
94558W        W66983   1.633  28.271  12.530
94559W        W66984  32.371  30.881   1.933
94560W        W66985  33.469  11.931   0.685
94561W        W66986  40.658  36.010   1.124
94562W        W66987  38.974  30.693   1.455
94563W        W66988  30.063  13.614  14.735
94564W        W66989  13.371  37.597  14.926
94565W        W66990  39.147   7.282  13.840
94566W        W66991   7.437   3.803   0.552
94567W        W66992  22.325  23.189   4.603
94568W        W66993  13.560  39.223  11.575
94569W        W66994   0.916  17.243  13.843
94570W        W66995  25.728  34.619   4.458
94571W        W66996  21.711  22.253  10.692
94572W        W66997  10.402   4.969  11.641
94573W        W66998  15.286  34.811  14.872
94574W        W66999  34.988  27.670   3.225
94575W        W67000  14.025  32.039   2.791
94576W        W67001  41.766  37.117  11.216
94577W        W67002  13.151  13.416   3.116
94578W        W67003  10.702   2.094  10.803
94579W        W67004  11.410  29.472  14.938
94580W        W67005  16.711  21.991   0.529
94581W        W67006  16.724  15.769   3.581
94582W        W67007  26.560   0.582  14.403
94583W        W67008  43.026  24.626  13.197
94584W        W67009  29.851   0.018   2.630
94585W        W67010  25.725  27.915   3.378
94586W        W67011  38.522   3.757  12.383
94587W        W67012  18.957  27.459  10.561
94588W        W67013  13.640  16.739   4.351
94589W        W67014  22.742  12.760   0.116
94590W        W67015  30.880  21.790  14.789
94591W        W67016  13.536   7.866  12.435
94592W        W67017  23.576  10.203   3.626
94593W        W67018  36.275  27.442   3.281
94594W        W67019  38.796  18.573   2.343
94595W        W67020  26.712  30.186   1.994
94596W        W67021   0.021  25.109  11.160
94597W        W67022  33.117   9.324  13.788
94598W        W67023   0.262  10.938  12.939
94599W        W67024  33.114  27.616   2.133
94600W        W67025  40.379  12.402   0.846
94601W        W67026  21.507  13.746  14.556
94602W        W67027  32.304  30.924  11.167
94603W        W67028  19.217   2.883  13.350
94604W        W67029   8.736  43.393   4.734
94605W        W67030  15.776  17.304   4.557
94606W        W67031  18.392  29.479  12.905
94607W        W67032   7.590   0.768   2.906
94608W        W67033   0.378   0.298  14.442
94609W        W67034   6.372  18.342   2.790
94610W        W67035  29.473   1.511  10.714
94611W        W67036  10.839  33.456   4.591
94612W        W67037  37.824  35.442   1.885
94613W        W67038  38.919   9.361   1.748
94614W        W67039  12.301   6.294  11.921
94615W        W67040   0.526  35.485   4.150
94616W        W67041  19.729  26.803   9.750
94617W        W67042  43.467  18.468   1.431
94618W        W67043  22.675  11.879   5.459
94619W        W67044  33.112  30.048   0.845
94620W        W67045  21.022  28.716  12.558
94621W        W67046  15.811  17.890   4.991
94622W        W67047  20.304   8.176  12.228
94623W        W67048   1.465   8.587  12.756
94624W        W67049  34.136  12.343  13.539
94625W        W67050   6.940   6.814  14.319
94626W        W67051  28.182  10.212  14.007
94627W        W67052  10.203   5.928   4.202
94628W        W67053  41.429  22.644   1.359
94629W        W67054  15.782  29.903  10.712
94630W        W67055   1.870  20.588  10.455
94631W        W67056  24.011  10.744   4.150
94632W        W67057  34.536  31.451  10.980
94633W        W67058  17.832  25.786  12.972
94634W        W67059  16.122  28.646   3.594
94635W        W67060  26.127  41.533   2.229
94636W        W67061  12.673   0.477   1.324
94637W        W67062  31.950  40.852  12.209
94638W        W67063  19.537  10.624   1.626
94639W        W67064   6.279  30.933   4.956
94640W        W67065  43.825   7.907   4.587
94641W        W67066   6.815  30.860   1.510
94642W        W67067  15.788  27.955   4.216
94643W        W67068  23.431  31.397  10.741
94644W        W67069  14.144  42.547  10.925
94645W        W67070   8.171   7.778   0.991
94646W        W67071  11.296  43.902   4.467
94647W        W67072  44.960  27.902  10.084
94648W        W67073  18.216  12.667   2.668
94649W        W67074   5.990   7.736  13.488
94650W        W67075  35.901  38.838   1.172
94651W        W67076  34.391   5.381  12.103
94652W        W67077  29.810  14.573   0.163
94653W        W67078  40.878  20.607   2.896
94654W        W67079   3.275  10.242   2.277
94655W        W67080  33.323  41.616  12.575
94656W        W67081   6.750  33.164   2.172
94657W        W67082  13.106  14.279  13.388
94658W        W67083  30.159  39.488   2.882
94659W        W67084   2.422  16.596  10.655
94660W        W67085  20.434  10.317   1.118
94661W        W67086  12.852  36.494   4.475
94662W        W67087  14.867   0.962   3.146
94663W        W67088  15.168  43.745  14.318
94664W        W67089   1.903  25.277  10.395
94665W        W67090  12.239  27.441   3.440
94666W        W67091  14.601  31.433   1.894
94667W        W67092  28.646  27.739   2.706
94668W        W67093  40.494  20.262  14.866
94669W        W67094  40.970   1.163  13.479
94670W        W67095  15.926   4.539   5.343
94671W        W67096  18.142  32.076  14.992
94672W        W67097   6.857  10.342  10.414
94673W        W67098  16.873  39.547  10.730
94674W        W67099   9.681   7.710   1.806
94675W        W67100  16.810  27.073   3.695
94676W        W67101  25.764  24.688   4.186
94677W        W67102   9.278   0.069   2.290
94678W        W67103  27.106  17.602  10.621
94679W        W67104   7.638  38.945   0.752
94680W        W67105   2.367  41.034  13.077
94681W        W67106   4.378  12.772  10.867
94682W        W67107  25.890   3.720   2.815
94683W        W67108  13.944  13.420  13.014
94684W        W67109  26.004  29.037  13.818
94685W        W67110  36.929  26.092  10.065
94686W        W67111  34.901  10.371   4.176
94687W        W67112  22.713  18.693  14.332
94688W        W67113  33.448  15.747   5.086
94689W        W67114  30.031  34.844   1.692
94690W        W67115  15.194   0.940   1.213
94691W        W67116  21.528   3.709  12.984
94692W        W67117  33.249   9.155  12.407
94693W        W67118  33.888  21.005   4.138
94694W        W67119   8.358  32.667   0.014
94695W        W67120  34.818  40.801  14.365
94696W        W67121   6.521  34.850  13.426
94697W        W67122  14.253  23.625  11.078
94698W        W67123   6.856  31.493   2.389
94699W        W67124   0.735   1.266  13.005
94700W        W67125  20.629  44.421   3.451
94701W        W67126  40.313  28.126  13.837
94702W        W67127  25.559  17.381  11.253
94703W        W67128  25.947  36.508  12.929
94704W        W67129  27.453  19.790   1.907
94705W        W67130  22.012   6.118  12.904
94706W        W67131  15.890  36.922   2.240
94707W        W67132  42.258  28.888  12.175
94708W        W67133   1.996  25.651   3.128
94709W        W67134  37.514  37.916   1.911
94710W        W67135   5.932   6.481   2.442
94711W        W67136  29.040  10.672   4.344
94712W        W67137  30.608  35.396  12.723
94713W        W67138  15.645  39.848  10.500
94714W        W67139  27.435  23.976  12.480
94715W        W67140  43.071   8.008   3.792
94716W        W67141  10.653  36.623   4.408
94717W        W67142  23.532  25.616  12.888
94718W        W67143  33.534   4.433   1.900
94719W        W67144   0.759   1.083  13.673
94720W        W67145  16.810  32.168   4.122
94721W        W67146  25.662  22.213  10.644
94722W        W67147  28.901  36.998  14.814
94723W        W67148   8.928   1.108  14.509
94724W        W67149  25.198  29.099   4.588
94725W        W67150  32.648  15.589   3.961
94726W        W67151  41.458  28.415  11.974
94727W        W67152  37.069  36.092  14.555
94728W        W67153  44.078   4.691  11.529
94729W        W67154  44.020  18.441  12.892
94730W        W67155   4.935  36.711  14.841
94731W        W67156  33.327  20.077  14.977
94732W        W67157  42.600  26.721   0.277
94733W        W67158   4.142  21.493  10.999
94734W        W67159  28.070  42.934   1.612
94735W        W67160  28.117  16.633   3.011
94736W        W67161   3.286  24.726  12.107
94737W        W67162  25.341  32.436  11.117
94738W        W67163  15.324   4.506   2.278
94739W        W67164  44.339  38.400   3.225
94740W        W67165   2.932  36.867   4.085
94741W        W67166  30.655  18.237   2.470
94742W        W67167   2.171  42.982   1.056
94743W        W67168  35.400  15.240  13.663
94744W        W67169  21.030  11.918  11.683
94745W        W67170  21.166  19.232   1.818
94746W        W67171  21.484   1.910   4.338
94747W        W67172  19.689  43.009   9.950
94748W        W67173  10.075  22.503  12.986
94749W        W67174  28.085  12.551   0.376
94750W        W67175   3.814  23.497   1.546
94751W        W67176  30.727  32.082  12.426
94752W        W67177   6.156  31.910  10.583
94753W        W67178  40.412  15.566  14.302
94754W        W67179   2.035   3.105   2.694
94755W        W67180   3.401  15.398  12.956
94756W        W67181  21.677  36.051   0.817
94757W        W67182  27.060  19.148   0.478
94758W        W67183  24.573  19.283  10.483
94759W        W67184  18.360  31.886   2.403
94760W        W67185  14.639  35.016  11.508
94761W        W67186  15.628  32.766   0.499
94762W        W67187  38.298  33.593  12.599
94763W        W67188  17.925  13.879   1.873
94764W        W67189  35.482  31.445  11.183
94765W        W67190  42.368   5.335   0.310
94766W        W67191  37.378  44.303   0.941
94767W        W67192  31.128  20.008   0.778
94768W        W67193  23.938   8.537   1.920
94769W        W67194  20.749  28.664   1.878
94770W        W67195   5.815  35.548  10.248
94771W        W67196  19.990  38.079  13.549
94772W        W67197  11.618  32.839   1.396
94773W        W67198   3.915  37.313  13.884
94774W        W67199   9.270  41.093  14.876
94775W        W67200  34.596   7.261  12.340
94776W        W67201  29.508  19.448  12.428
94777W        W67202  38.108  29.992  13.428
94778W        W67203  41.618  26.542  12.103
94779W        W67204  17.544   5.050   3.729
94780W        W67205  34.579   1.811  11.723
94781W        W67206  25.643  11.154  11.937
94782W        W67207  44.035   7.904  12.911
94783W        W67208  42.996  32.008   1.884
94784W        W67209  23.075  32.664  13.300
94785W        W67210   9.911  24.431  12.816
94786W        W67211  15.278   7.668   0.215
94787W        W67212  22.995  12.749  12.609
94788W        W67213  10.327   1.914   4.775
94789W        W67214  36.272  19.220   2.260
94790W        W67215  40.605  19.812   0.774
94791W        W67216  15.946  34.863  13.649
94792W        W67217  44.355  40.746  10.501
94793W        W67218  21.527   9.257   5.140
94794W        W67219   8.195   3.827   1.153
94795W        W67220  26.891  41.025  14.820
94796W        W67221   4.920   1.921   3.327
94797W        W67222  21.369   5.833  14.410
94798W        W67223  38.470  20.573   3.034
94799W        W67224  26.064   2.273   0.143
94800W        W67225  38.288   0.076   5.050
94801W        W67226   8.609  14.370  12.493
94802W        W67227   8.762  28.467  11.013
94803W        W67228  20.774  32.526   4.577
94804W        W67229  13.903  31.489  13.698
94805W        W67230   5.874  37.578  14.811
94806W        W67231  22.512  11.185   1.655
94807W        W67232  33.826  17.690   3.283
94808W        W67233  34.838  22.285   1.295
94809W        W67234  36.939  37.999   2.765
94810W        W67235  35.961  44.008   2.824
94811W        W67236   6.019   0.964   4.419
94812W        W67237  31.620  20.204   9.879
94813W        W67238  34.131   0.631  12.415
94814W        W67239  43.572   6.724  12.716
94815W        W67240  10.303  10.707   0.328
94816W        W67241  24.547  17.190  11.809
94817W        W67242   4.843  22.461   2.943
94818W        W67243   4.384  28.724  12.425
94819W        W67244  43.307  21.609  11.393
94820W        W67245  27.030  24.014  10.719
94821W        W67246  10.336   2.240   4.376
94822W        W67247  24.443   2.276  14.668
94823W        W67248   6.782  12.619   0.958
94824W        W67249   4.464  43.071   2.472
94825W        W67250  24.370  19.727   1.762
94826W        W67251  31.951  18.577   3.226
94827W        W67252  36.352  20.182   3.657
94828W        W67253   0.496   6.909   3.707
94829W        W67254   3.908  30.590  14.014
94830W        W67255  30.234  35.092  11.988
94831W        W67256  26.697  44.889  11.114
94832W        W67257  42.821  43.517  13.135
94833W        W67258  20.613  12.100  11.907
94834W        W67259  14.676  42.544  10.782
94835W        W67260  26.400  43.264  12.298
94836W        W67261  28.336  10.117   4.142
94837W        W67262   4.357  16.345  11.534
94838W        W67263  40.778  17.091  10.715
94839W        W67264   2.330  30.786  12.043
94840W        W67265  29.410  42.618  13.743
94841W        W67266   4.821  20.576  10.719
94842W        W67267  16.369  40.067   2.457
94843W        W67268  43.889  12.068  11.441
94844W        W67269  27.764   2.985  10.444
94845W        W67270  35.869  23.213   2.785
94846W        W67271  33.617   0.846   4.589
94847W        W67272  35.085  27.394  13.760
94848W        W67273  17.382  25.687  14.478
94849W        W67274  26.685  32.993   2.533
94850W        W67275  41.857  31.065   0.409
94851W        W67276  34.722  27.057   2.709
94852W        W67277  37.046   4.256   0.275
94853W        W67278  15.781  40.760   4.778
94854W        W67279  42.239  26.100   3.265
94855W        W67280  21.735  17.694  10.936
94856W        W67281  14.192  37.578   0.506
94857W        W67282  20.094  29.152  14.960
94858W        W67283  34.588   7.594   2.275
94859W        W67284  20.452  34.022   2.258
94860W        W67285  23.908  27.572  14.806
94861W        W67286  15.606  16.018   4.110
94862W        W67287  30.361   5.406   0.776
94863W        W67288   8.621  37.396   5.039
94864W        W67289   7.858  23.199   1.836
94865W        W67290  11.349   7.199  10.548
94866W        W67291  39.617   7.928  13.352
94867W        W67292  16.632  21.073   2.662
94868W        W67293  19.751  27.030   3.813
94869W        W67294  19.003  32.466   4.580
94870W        W67295   6.866  31.227   1.862
94871W        W67296  22.645  16.610  13.462
94872W        W67297  25.516  19.965   2.388
94873W        W67298  22.054  43.439   3.209
94874W        W67299  23.508  26.121   2.370
94875W        W67300  28.151  10.489  10.214
94876W        W67301  40.067  34.067   0.466
94877W        W67302  27.561  29.075   0.012
94878W        W67303   9.146  32.694  12.347
94879W        W67304  24.997  18.996   4.121
94880W        W67305  35.442   4.324   3.740
94881W        W67306  41.889  44.553   5.474
94882W        W67307  42.113   7.741   2.689
94883W        W67308  20.087  24.736  11.959
94884W        W67309   7.813  22.501   1.429
94885W        W67310  34.442  36.906  12.437
94886W        W67311  12.707  37.403   3.459
94887W        W67312   2.207  16.710  14.113
94888W        W67313   6.595  22.640  10.620
94889W        W67314  21.073  27.458   1.306
94890W        W67315  24.564  43.892   1.199
94891W        W67316  16.140  18.588   0.659
94892W        W67317   1.334  25.638  12.063
94893W        W67318   2.283  41.075   2.215
94894W        W67319  12.362   5.170  11.538
94895W        W67320  18.024  29.117  11.048
94896W        W67321  44.363   8.719  11.105
94897W        W67322  44.265   4.956  11.134
94898W        W67323  29.420  40.278   2.763
94899W        W67324  20.097   5.203  13.414
94900W        W67325   4.502  23.008   3.610
94901W        W67326  38.592  29.763   1.301
94902W        W67327  16.102   1.852   4.609
94903W        W67328  42.080  38.433  13.443
94904W        W67329  19.666   7.013  12.051
94905W        W67330  39.361  19.741   2.670
94906W        W67331  13.869  36.782  10.515
94907W        W67332   6.230  44.889  10.704
94908W        W67333  43.512  20.639  14.996
94909W        W67334  39.799  36.260  14.700
94910W        W67335  24.633  31.586   3.304
94911W        W67336  28.187  17.230   3.694
94912W        W67337  13.864  11.182   4.274
94913W        W67338  15.685   6.950   2.553
94914W        W67339  42.853  32.076  13.212
94915W        W67340  22.082  21.801   1.518
94916W        W67341  34.349  44.001   2.329
94917W        W67342  28.967  14.793  10.723
94918W        W67343  36.326  17.798  13.613
94919W        W67344  26.263   6.955  12.089
94920W        W67345  27.291  44.346   4.110
94921W        W67346  43.315  18.672   3.927
94922W        W67347   9.691  33.559   2.230
94923W        W67348  21.967  25.990   4.634
94924W        W67349  26.506  22.693   3.678
94925W        W67350  41.438   0.713  11.682
94926W        W67351  39.894   9.683   3.670
94927W        W67352  11.642   7.715   3.682
94928W        W67353  21.752  22.571  13.773
94929W        W67354  15.214  44.918   1.659
94930W        W67355  36.673   5.187   2.382
94931W        W67356  39.907   5.658   2.628
94932W        W67357  31.630  27.002   3.292
94933W        W67358  29.739  40.250   1.199
94934W        W67359  13.185   7.806   4.647
94935W        W67360  38.545   6.712   4.614
94936W        W67361  12.499  20.511  13.348
94937W        W67362  10.941  32.060   2.662
94938W        W67363   4.963  36.028   1.869
94939W        W67364  19.286  25.449  13.088
94940W        W67365  28.550  36.945  12.467
94941W        W67366  13.662   4.283  11.634
94942W        W67367   3.185   4.326   1.665
94943W        W67368  34.528   4.200   1.456
94944W        W67369  39.712  12.967  14.742
94945W        W67370   2.831   0.958  12.355
94946W        W67371   1.159  27.385   4.662
94947W        W67372  33.962  22.012  13.239
94948W        W67373  44.024   2.386   0.228
94949W        W67374  32.166  22.753   2.566
94950W        W67375  11.797  24.728  12.924
94951W        W67376   7.285  32.533  11.039
94952W        W67377  29.037  44.488  14.080
94953W        W67378  37.194  22.186  14.283
94954W        W67379  11.898  36.560  11.651
94955W        W67380  16.370  18.434  12.412
94956W        W67381  31.535  29.878  13.417
94957W        W67382  23.492  33.843   0.294
94958W        W67383  22.178  22.651  11.959
94959W        W67384   5.164  10.378   4.508
94960W        W67385  32.560  26.138   0.055
94961W        W67386  39.487  13.308   1.230
94962W        W67387  34.744  42.913  10.775
94963W        W67388   9.381  30.177   1.275
94964W        W67389   7.351  29.286   2.907
94965W        W67390   2.333   9.672  12.049
94966W        W67391   8.719   6.675  13.976
94967W        W67392  15.076   1.375  13.287
94968W        W67393  19.870  12.581  10.537
94969W        W67394  37.913   9.743   2.641
94970W        W67395  17.518  12.162  12.870
94971W        W67396  31.982  43.432   3.035
94972W        W67397  21.134   6.212  10.200
94973W        W67398  15.270  39.416   1.673
94974W        W67399   0.827  34.073   1.782
94975W        W67400  34.356  37.801  12.380
94976W        W67401  38.651  29.741   5.048
94977W        W67402  17.258  10.686   4.601
94978W        W67403  29.088   2.399   3.682
94979W        W67404  22.509  22.599  13.351
94980W        W67405   0.995   8.681  12.551
94981W        W67406  21.687  18.251   3.760
94982W        W67407   1.170   1.358   4.402
94983W        W67408  23.622  22.638   2.588
94984W        W67409  32.966  17.130   1.232
94985W        W67410   8.855  36.612   2.852
94986W        W67411   3.949   2.531  14.466
94987W        W67412  16.089  21.143  13.656
94988W        W67413  18.558   9.369   0.524
94989W        W67414  28.331  27.069  14.409
94990W        W67415   2.135  38.380   1.326
94991W        W67416  38.374  22.468  12.974
94992W        W67417  29.216  37.545   3.315
94993W        W67418  10.198  16.941  11.361
94994W        W67419  26.613  24.549   1.357
94995W        W67420  32.096  31.067   0.649
94996W        W67421  24.945  18.604   0.753
94997W        W67422  17.806  16.808   0.557
94998W        W67423  18.626  44.237   2.964
94999W        W67424  21.735  28.970  13.587
95000W        W67425  30.815  42.201  14.071
95001W        W67426  15.147  41.965  11.585
95002W        W67427   3.793   3.434  10.785
95003W        W67428  20.652  36.339  10.517
95004W        W67429  18.168  37.347   1.764
95005W        W67430  15.451  22.481  12.956
95006W        W67431   0.334  25.338  14.856
95007W        W67432  16.090   9.824   2.801
95008W        W67433   0.751  14.123   4.491
95009W        W67434   2.348  13.893   4.839
95010W        W67435  24.493   8.190  14.800
95011W        W67436  32.192   4.804   0.044
95012W        W67437   0.006   3.480   1.411
95013W        W67438  40.686  35.122  13.702
95014W        W67439  36.469  44.835  13.074
95015W        W67440   1.905  26.473  11.392
95016W        W67441  17.287  37.415  11.904
95017W        W67442  10.837  34.062  11.080
95018W        W67443  38.303  28.090   2.347
95019W        W67444  44.920  21.738   1.750
95020W        W67445   4.232  28.985   0.067
95021W        W67446  40.253  36.937   0.785
95022W        W67447   3.985  10.782   0.968
95023W        W67448   1.397  38.603   1.939
95024W        W67449  11.215  15.708  10.465
95025W        W67450  15.749  43.992   4.722
95026W        W67451  34.034  13.813   2.681
95027W        W67452  37.435  34.334   4.631
95028W        W67453  33.806  43.130  14.847
95029W        W67454  18.217  16.115   4.584
95030W        W67455   5.927  31.980   0.448
95031W        W67456  41.108   3.611   3.172
95032W        W67457  10.821  42.144  14.377
95033W        W67458  12.671  10.237   1.675
95034W        W67459  29.463  41.513   4.345
95035W        W67460  30.102  24.287  14.980
95036W        W67461  35.106  13.756  12.539
95037W        W67462   3.766  25.783   4.710
95038W        W67463   9.992  26.561   0.479
95039W        W67464  25.583  14.295   1.233
95040W        W67465  42.497  18.626   4.809
95041W        W67466  18.979  15.115  13.016
95042W        W67467   4.462  22.545   4.156
95043W        W67468   1.751  21.328   4.498
95044W        W67469  31.203  19.706   3.362
95045W        W67470   2.016   6.233   1.334
95046W        W67471  23.084   3.833   3.721
95047W        W67472  32.970  39.746  13.844
95048W        W67473  22.146  21.998   3.313
95049W        W67474  37.435  22.128   5.049
95050W        W67475  18.261  36.601  13.956
95051W        W67476  17.082  15.789   0.951
95052W        W67477  31.097  18.575  11.451
95053W        W67478   9.180  36.102  10.131
95054W        W67479   3.449  39.523   3.007
95055W        W67480  16.715  32.080  12.532
95056W        W67481  41.423  25.010   2.201
95057W        W67482  36.847   7.424   2.779
95058W        W67483  37.906  24.153  10.333
95059W        W67484  29.707   7.628  12.506
95060W        W67485  25.240  20.274   3.802
95061W        W67486  38.103  18.639  13.825
95062W        W67487   0.476  34.570   0.885
95063W        W67488  13.130  39.523   2.602
95064W        W67489  40.351  31.674  11.130
95065W        W67490  21.088  26.630   1.772
95066W        W67491   3.345  12.876   1.919
95067W        W67492   2.491  21.819  13.746
95068W        W67493  41.834  44.346  11.704
95069W        W67494  34.997  24.475   0.848
95070W        W67495  29.865  10.777   0.251
95071W        W67496  27.656  42.046  11.059
95072W        W67497   8.903  41.151  10.896
95073W        W67498   9.102  16.734  12.029
95074W        W67499  35.629  38.789  11.452
95075W        W67500   1.335  27.681  13.776
95076W        W67501  31.939  20.727  14.721
95077W        W67502   7.437  17.224  12.025
95078W        W67503  32.884  19.473   2.239
95079W        W67504   1.884  34.363   4.668
95080W        W67505  20.488  21.454  12.669
95081W        W67506  21.294  33.103  12.118
95082W        W67507   9.427  37.831   3.162
95083W        W67508   7.711  25.371  14.991
95084W        W67509   7.230   8.638   2.866
95085W        W67510  27.456  29.449  13.894
95086W        W67511   3.283  28.478  13.819
95087W        W67512  39.078  27.468   2.845
95088W        W67513  10.118  31.594  14.977
95089W        W67514  10.419  15.087  12.558
95090W        W67515  31.417  10.145   1.628
95091W        W67516  13.845  43.358   2.285
95092W        W67517  44.812   0.340  11.971
95093W        W67518  39.425  28.221  14.324
95094W        W67519   6.524  15.669  13.612
95095W        W67520   5.160   2.434   0.499
95096W        W67521  34.496  28.461   1.341
95097W        W67522  15.960  39.325  13.992
95098W        W67523  23.531  11.742   2.714
95099W        W67524  40.986  40.109   0.439
95100W        W67525   7.432   0.527  11.263
95101W        W67526  19.489  26.765   2.649
95102W        W67527  33.798  24.986   4.461
95103W        W67528  38.310  29.525  13.476
95104W        W67529   8.430  33.915   2.027
95105W        W67530  25.172   0.427  10.718
95106W        W67531  13.011  36.603   2.792
95107W        W67532  29.342  30.760  14.863
95108W        W67533  44.243  36.420  11.203
95109W        W67534  23.066   0.806   1.008
95110W        W67535  43.279  29.137  11.877
95111W        W67536   7.345  43.044   4.217
95112W        W67537  18.032  21.657  12.498
95113W        W67538  44.734  15.945   4.114
95114W        W67539   7.517  35.836  10.953
95115W        W67540  44.422  21.486   1.801
95116W        W67541  30.082  10.429   2.603
95117W        W67542   6.786   1.796   4.510
95118W        W67543  29.659   4.473  13.013
95119W        W67544   9.323  24.705   3.601
95120W        W67545  31.769  24.628  13.481
95121W        W67546   9.316  23.617   2.498
95122W        W67547  36.810  44.841  14.360
95123W        W67548  31.333   6.217  11.117
95124W        W67549  14.208  25.130  10.535
95125W        W67550   9.153  14.067   3.403
95126W        W67551  44.259  21.275   1.254
95127W        W67552  44.730   0.045  13.515
95128W        W67553   3.050  16.807   0.470
95129W        W67554  34.727  18.294   1.776
95130W        W67555  26.582  18.265   4.476
95131W        W67556  34.095  22.319   1.738
95132W        W67557  16.285  39.385   3.590
95133W        W67558  27.467  18.671   3.568
95134W        W67559  24.061  29.902  14.285
95135W        W67560  15.257  14.368   0.400
95136W        W67561  14.198  18.721   0.505
95137W        W67562  11.348  16.041   1.417
95138W        W67563  38.319  37.485  13.407
95139W        W67564   2.346  13.192  11.187
95140W        W67565   2.919   4.865  14.009
95141W        W67566  33.240  19.792  11.686
95142W        W67567   1.456   9.311   1.236
95143W        W67568  40.948  15.647  12.155
95144W        W67569  25.998  32.703   1.182
95145W        W67570  39.910  27.322   2.560
95146W        W67571  41.525   4.507  11.366
95147W        W67572  35.040  19.336  12.884
95148W        W67573  13.245   5.224   0.278
95149W        W67574  35.051  32.034  13.235
95150W        W67575   8.216  14.530  13.856
95151W        W67576  38.760   9.059  14.475
95152W        W67577  16.934  13.752   1.985
95153W        W67578   3.894  40.968   4.981
95154W        W67579   6.207  43.374   2.779
95155W        W67580  28.088  17.043  10.631
95156W        W67581  23.056  17.926   0.014
95157W        W67582  17.479   9.632   0.473
95158W        W67583  16.504  21.870   0.995
95159W        W67584  25.603  24.525  13.081
95160W        W67585  16.747  11.242   0.448
95161W        W67586  31.868  30.103  12.048
95162W        W67587  21.084  31.243   1.726
95163W        W67588  40.988  22.609  14.941
95164W        W67589  43.710  42.028  13.054
95165W        W67590  32.018  10.994   4.155
95166W        W67591   9.884   2.204   4.710
95167W        W67592  40.978   3.199  14.900
95168W        W67593  23.954  37.402   3.798
95169W        W67594  32.999  35.374   1.796
95170W        W67595  16.227  39.355   1.166
95171W        W67596  15.260  15.533   4.696
95172W        W67597  32.922  15.317  13.370
95173W        W67598  39.665  14.352  14.746
95174W        W67599  10.311   9.093   3.760
95175W        W67600  18.168  44.817  12.088
95176W        W67601   1.016  27.174  14.769
95177W        W67602  33.395   6.421  13.957
95178W        W67603  26.058   1.991  12.774
95179W        W67604  11.872  17.286  12.841
95180W        W67605   7.423  30.912  12.034
95181W        W67606  21.458  23.928  11.129
95182W        W67607  21.137  32.267   0.747
95183W        W67608  15.593   7.878  12.928
95184W        W67609   8.702  13.520  14.511
95185W        W67610  24.329  38.073   0.787
95186W        W67611  27.182  36.887  11.633
95187W        W67612  12.407  11.204   0.805
95188W        W67613  10.861  38.414  14.818
95189W        W67614  36.537  12.267   2.590
95190W        W67615  35.041  14.328   3.743
95191W        W67616  27.610  33.483   9.516
95192W        W67617  16.859  17.523   3.334
95193W        W67618  15.475  23.163   2.880
95194W        W67619  22.291  27.618   2.844
95195W        W67620   2.255  27.194  13.119
95196W        W67621  29.858  41.837  10.952
95197W        W67622  42.460  13.572  13.217
95198W        W67623  25.472   0.241   2.342
95199W        W67624  17.143  20.636   4.401
95200W        W67625  26.095  31.602  11.583
95201W        W67626  41.671  16.712   2.357
95202W        W67627  12.853  13.557  14.479
95203W        W67628  23.458  30.470   3.770
95204W        W67629  20.746   8.352   2.656
95205W        W67630  15.569  10.615  14.644
95206W        W67631  13.023  26.490   3.631
95207W        W67632  39.370  32.554  12.096
95208W        W67633   3.823  26.604  13.566
95209W        W67634  15.623  32.694  12.042
95210W        W67635  10.085   1.318  11.639
95211W        W67636   9.581   1.461  12.633
95212W        W67637  14.053  20.338  14.782
95213W        W67638  44.446  26.983   1.744
95214W        W67639  22.060  44.403  11.914
95215W        W67640  20.638  44.715   0.870
95216W        W67641  16.297  18.300   4.188
95217W        W67642   3.910  24.075  11.821
95218W        W67643  36.970  17.199   3.199
95219W        W67644  36.919   9.908   1.173
95220W        W67645  23.199   3.759  11.146
95221W        W67646  41.324  33.250  10.648
95222W        W67647  28.618   9.334   4.871
95223W        W67648  19.772  12.432   1.406
95224W        W67649   5.315  27.424   0.831
95225W        W67650  39.439  14.081   4.298
95226W        W67651  24.627  25.518   4.762
95227W        W67652  13.586  21.865   1.777
95228W        W67653  41.284  38.559  11.833
95229W        W67654  28.359  23.821  14.862
95230W        W67655  34.488   0.874   3.170
95231W        W67656  35.873  24.338  10.197
95232W        W67657   1.022  21.779  14.325
95233W        W67658  16.564   3.351  11.631
95234W        W67659   2.003  32.262   2.782
95235W        W67660  37.967   7.654   3.367
95236W        W67661   5.945  30.815  14.357
95237W        W67662  44.053   5.870  11.151
95238W        W67663  30.208   7.106   0.406
95239W        W67664  32.751   0.861   9.979
95240W        W67665  17.826  32.216   5.135
95241W        W67666  30.985   2.224  11.879
95242W        W67667   1.498  29.926  11.481
95243W        W67668  27.082  14.442   4.180
95244W        W67669   9.680  32.606  12.150
95245W        W67670  13.277   5.164  12.359
95246W        W67671  16.309  18.169  14.515
95247W        W67672  11.412   7.260  11.447
95248W        W67673  32.750  38.393   2.425
95249W        W67674  24.104  25.037  10.630
95250W        W67675   4.012  33.526  12.757
95251W        W67676  14.774   7.593   1.454
95252W        W67677  26.606  22.144   3.811
95253W        W67678  36.531  17.243  11.088
95254W        W67679   1.326  11.862   2.252
95255W        W67680  28.522  44.501  13.971
95256W        W67681  15.562  32.105   1.386
95257W        W67682  42.463  40.500   4.656
95258W        W67683  44.002  15.850  14.005
95259W        W67684  31.213  18.887  12.825
95260W        W67685  19.119  24.032   0.766
95261W        W67686  21.407  17.237   2.847
95262W        W67687  30.873  15.128   4.074
95263W        W67688   7.758  26.130  12.963
95264W        W67689  32.580  32.903   1.413
95265W        W67690   9.367   1.631  11.185
95266W        W67691  36.097  20.173  10.895
95267W        W67692  17.442   5.204   3.232
95268W        W67693  42.516   0.879  14.469
95269W        W67694  12.032  22.120   2.526
95270W        W67695  12.510  18.043  12.431
95271W        W67696   3.236   2.995   1.649
95272W        W67697  33.619  10.401  13.501
95273W        W67698  21.738  23.995  13.909
95274W        W67699  30.677  28.637  13.824
95275W        W67700  16.270  43.107  14.078
95276W        W67701  34.636  15.322   4.616
95277W        W67702  39.082  44.073  13.077
95278W        W67703  17.117  33.667   4.212
95279W        W67704   6.439  24.410  11.167
95280W        W67705   4.383  12.559  13.017
95281W        W67706  13.767  35.562  13.805
95282W        W67707   9.933   8.881  11.975
95283W        W67708  16.030   5.857   0.927
95284W        W67709   3.679  24.762   4.535
95285W        W67710  10.667   9.728   2.290
95286W        W67711  16.720  44.995   4.620
95287W        W67712  44.829  35.434  12.597
95288W        W67713  32.245  37.890  12.962
95289W        W67714   6.207  28.884   2.678
95290W        W67715  42.362  33.204   1.893
95291W        W67716  27.685  44.929   2.871
95292W        W67717  14.547  43.150   5.112
95293W        W67718  15.850   2.372   9.594
95294W        W67719  24.256  15.628   0.204
95295W        W67720  38.925  44.940  10.208
95296W        W67721  23.105  16.358  13.459
95297W        W67722  18.177  28.128   1.548
95298W        W67723  10.950  11.704  12.827
95299W        W67724  22.587  24.542  14.276
95300W        W67725   1.767   1.042   1.388
95301W        W67726  22.948   7.355   1.984
95302W        W67727  13.065  14.043  14.365
95303W        W67728   7.315  40.133   4.799
95304W        W67729   0.848   1.282   2.153
95305W        W67730   6.392  32.607  11.058
95306W        W67731   2.365   0.103  10.444
95307W        W67732  10.294  28.588  12.078
95308W        W67733  34.799   2.197   4.580
95309W        W67734  22.628  37.568  13.105
95310W        W67735   2.548   5.285  10.494
95311W        W67736   2.590  11.414  11.528
95312W        W67737  17.544  44.621   1.265
95313W        W67738   5.163   6.696   1.963
95314W        W67739  18.740  13.563   0.971
95315W        W67740   3.267   4.330   0.152
95316W        W67741  38.928  11.556  13.440
95317W        W67742  30.146  19.758   1.208
95318W        W67743   0.035  36.343  13.238
95319W        W67744  35.537  28.663  13.980
95320W        W67745   1.873  42.366  12.456
95321W        W67746  15.064  25.682   0.395
95322W        W67747  39.369  25.470   2.732
95323W        W67748  44.879  11.745   0.816
95324W        W67749  30.915  37.868  10.958
95325W        W67750  10.860  31.913  13.905
95326W        W67751  11.841  27.131  14.817
95327W        W67752  35.421  16.387   3.836
95328W        W67753  37.614  11.771  13.810
95329W        W67754  17.884   6.442  13.431
95330W        W67755  26.188  36.621  11.041
95331W        W67756  37.353   1.331   2.207
95332W        W67757  11.662   2.822   3.616
95333W        W67758  37.812  38.900  13.785
95334W        W67759  15.727   7.934  13.417
95335W        W67760   6.801  37.653   0.760
95336W        W67761  23.524   2.717  12.563
95337W        W67762  20.247   2.648  14.286
95338W        W67763  36.097  18.718   4.598
95339W        W67764   8.896  39.475   4.424
95340W        W67765  32.140   3.400   1.352
95341W        W67766  34.338  27.746   4.222
95342W        W67767  17.978   7.260   2.357
95343W        W67768  43.330   2.824   4.195
95344W        W67769  42.022  17.059   3.653
95345W        W67770  22.463   7.185   2.125
95346W        W67771  15.530   1.813  14.040
95347W        W67772   9.711  23.748  14.164
95348W        W67773  24.689  12.148   3.667
95349W        W67774  26.509  16.250  13.348
95350W        W67775   3.385  30.161   2.328
95351W        W67776  11.267  14.639  12.900
95352W        W67777  14.443  44.887  11.208
95353W        W67778  26.541   6.153  13.482
95354W        W67779   2.015   6.355  12.962
95355W        W67780  31.300  11.272   0.252
95356W        W67781  42.403  20.578   2.241
95357W        W67782  39.305  12.768  14.989
95358W        W67783  42.387  22.218  14.986
95359W        W67784  25.505  15.094   2.759
95360W        W67785  21.559  35.172   0.400
95361W        W67786  31.920  21.250  14.855
95362W        W67787   6.281  25.168  11.579
95363W        W67788  20.292  14.755  10.691
95364W        W67789  36.901  21.778  11.210
95365W        W67790  38.098  38.765   4.220
95366W        W67791  32.117  24.677   4.134
95367W        W67792  23.116  17.484  14.666
95368W        W67793  28.018  34.512   0.430
95369W        W67794   2.517  21.594   0.746
95370W        W67795   5.554   4.909   1.971
95371W        W67796   5.345  35.125  14.556
95372W        W67797   4.240  44.261   2.820
95373W        W67798  28.091  25.120  14.264
95374W        W67799  34.517  19.734  13.748
95375W        W67800   5.307  34.130   1.660
95376W        W67801  34.145  25.982  10.488
95377W        W67802  33.625  40.562   4.669
95378W        W67803   9.419  31.105  13.016
95379W        W67804  38.958  23.076   0.458
95380W        W67805   5.893   8.711   1.010
95381W        W67806  40.009  39.591  14.051
95382W        W67807  25.133  34.598  10.461
95383W        W67808  31.432  26.935   1.070
95384W        W67809  14.524   8.205   2.722
95385W        W67810  31.525  39.535  14.402
95386W        W67811   9.320   3.177  11.074
95387W        W67812  32.865  17.336   3.199
95388W        W67813  18.801  30.009  10.650
95389W        W67814  43.271  40.419   1.914
95390W        W67815  21.008  11.265   0.894
95391W        W67816   5.792  29.951  14.089
95392W        W67817   3.851   7.372   2.154
95393W        W67818  24.521  30.024  11.191
95394W        W67819   9.284  29.583  10.662
95395W        W67820  17.756  21.309   1.305
95396W        W67821  38.748  18.304   4.561
95397W        W67822  43.703   3.302   3.492
95398W        W67823  41.416  20.985  14.447
95399W        W67824  31.071  31.064   0.269
95400W        W67825  34.387  24.782   1.707
95401W        W67826  40.362  31.936   0.392
95402W        W67827   6.696   8.873  11.664
95403W        W67828  38.447   1.438   4.517
95404W        W67829  30.973  26.641  12.094
95405W        W67830  37.050   8.614  10.813
95406W        W67831  36.532  13.214   0.865
95407W        W67832  44.866  40.219  14.722
95408W        W67833  12.463  31.078   1.187
95409W        W67834  13.176  18.084  14.580
95410W        W67835  39.809  13.434   3.584
95411W        W67836  40.482  19.326   0.726
95412W        W67837  24.500   6.434  14.724
95413W        W67838  10.772  10.678  14.322
95414W        W67839  43.770  35.794  13.385
95415W        W67840  36.523  38.919   3.777
95416W        W67841  19.130  32.852   2.172
95417W        W67842  18.733  16.055  14.282
95418W        W67843   1.007  17.308   2.754
95419W        W67844   7.188  21.027  11.508
95420W        W67845   1.828  27.551   2.993
95421W        W67846  10.768   3.387  14.039
95422W        W67847   6.109  12.114  14.779
95423W        W67848  21.354  22.149   0.228
95424W        W67849  41.391  24.985  13.994
95425W        W67850  33.504  44.550   3.706
95426W        W67851  40.216  38.070  10.651
95427W        W67852  39.625  17.184   3.675
95428W        W67853  35.332  16.637   0.248
95429W        W67854  15.022  27.557   3.890
95430W        W67855   9.761  17.158  10.796
95431W        W67856  14.307  41.232   3.411
95432W        W67857  14.121  44.368  14.851
95433W        W67858  29.659  16.176   3.884
95434W        W67859   4.929  33.413  13.794
95435W        W67860  18.328  34.758   0.476
95436W        W67861   6.788  32.975  10.557
95437W        W67862  15.071   6.230  11.161
95438W        W67863  39.386  33.621   3.838
95439W        W67864  31.552  32.489   0.766
95440W        W67865   4.209   4.388   3.643
95441W        W67866  45.000  26.096  14.431
95442W        W67867  19.104   0.071  10.379
95443W        W67868  24.114  26.225   3.626
95444W        W67869  25.202  41.874  10.729
95445W        W67870  36.370  29.603   2.681
95446W        W67871  10.787  31.453   0.723
95447W        W67872  30.380   5.422   2.063
95448W        W67873  25.750  15.292  11.945
95449W        W67874  25.616  12.599  12.075
95450W        W67875  24.729   5.253  11.031
95451W        W67876  17.584   6.404   4.900
95452W        W67877  27.599   1.486   2.683
95453W        W67878  18.280  19.270   3.829
95454W        W67879  32.350  30.781  14.907
95455W        W67880  31.523  13.611   0.659
95456W        W67881  31.124  31.925  13.761
95457W        W67882  38.947  16.990   2.645
95458W        W67883  39.897   8.296  13.965
95459W        W67884  18.313  18.058   4.223
95460W        W67885   3.480  21.541  14.390
95461W        W67886  40.458  35.205   2.188
95462W        W67887  43.806  44.540  14.803
95463W        W67888   9.460  11.874   4.564
95464W        W67889   7.644   0.426   1.757
95465W        W67890  21.124  40.283  14.199
95466W        W67891  21.224   3.769   0.860
95467W        W67892  23.483  14.352   3.841
95468W        W67893  43.426  35.205  11.525
95469W        W67894  14.100  35.579  10.449
95470W        W67895  16.079  25.172   0.921
95471W        W67896  33.055  39.306   4.685
95472W        W67897  42.076  13.807   4.603
95473W        W67898  32.584   3.818  12.177
95474W        W67899  22.601  32.622   1.356
95475W        W67900  35.309  32.536  11.150
95476W        W67901  28.577  32.621   4.953
95477W        W67902  38.515  22.961  11.032
95478W        W67903   3.950  41.115   4.161
95479W        W67904  36.845  20.016  12.459
95480W        W67905  29.932  34.795  11.627
95481W        W67906  38.963  24.608   2.616
95482W        W67907  26.894   2.330   4.661
95483W        W67908  13.520   6.127  13.241
95484W        W67909  39.169  43.465   1.747
95485W        W67910  31.622  23.692   1.237
95486W        W67911  23.108  44.905   4.063
95487W        W67912   9.906  24.577  11.062
95488W        W67913  12.249  14.167   1.719
95489W        W67914  19.961  20.449  12.898
95490W        W67915  41.068  16.188   1.841
95491W        W67916  35.736  36.846  12.932
95492W        W67917  35.360  18.579   3.448
95493W        W67918  43.256   3.486   2.175
95494W        W67919  25.132   9.351  14.539
95495W        W67920  11.456   3.857  12.566
95496W        W67921  31.446  31.394   4.086
95497W        W67922   5.401  39.164   3.514
95498W        W67923   4.484  42.582  14.220
95499W        W67924  42.421   3.250   4.290
95500W        W67925  38.571  36.053   5.287
95501W        W67926  38.374  15.194  14.960
95502W        W67927  18.067  20.073  11.597
95503W        W67928  20.051  23.663   4.564
95504W        W67929  31.912  10.557  11.132
95505W        W67930  34.580  43.442  14.754
95506W        W67931   9.677  13.290  13.043
95507W        W67932  13.837  32.994  12.515
95508W        W67933  36.302  29.415  13.472
95509W        W67934  41.234   6.985   0.060
95510W        W67935  28.410  34.523   2.717
95511W        W67936  43.835  34.142   0.902
95512W        W67937   4.995  16.401   3.144
95513W        W67938   4.337  21.636   0.410
95514W        W67939   8.922  44.824  14.318
95515W        W67940  18.024  25.451  12.489
95516W        W67941  21.903  35.390  11.640
95517W        W67942  23.476  19.250  11.219
95518W        W67943   9.359   0.142  12.644
95519W        W67944  20.659   6.189   2.881
95520W        W67945  29.330   4.802   1.237
95521W        W67946  34.664  33.526  13.476
95522W        W67947   7.155  22.262   0.264
95523W        W67948  23.940  36.052  12.641
95524W        W67949  35.963  15.836   2.789
95525W        W67950  34.126   6.336   4.510
95526W        W67951  29.852   7.893   1.511
95527W        W67952  29.462  43.880   1.893
95528W        W67953  27.776  33.372  13.509
95529W        W67954   3.725  40.803  11.703
95530W        W67955  22.928   3.212   4.529
95531W        W67956  21.029   3.443   2.319
95532W        W67957  18.762  42.737  14.367
95533W        W67958   2.412  20.104  10.958
95534W        W67959  15.188  14.548   1.348
95535W        W67960  41.043   9.686   0.370
95536W        W67961   1.047  18.833  11.076
95537W        W67962  10.425  13.881  13.793
95538W        W67963  35.934  43.735  11.117
95539W        W67964  40.997  23.224   2.857
95540W        W67965  12.995  19.562   0.934
95541W        W67966  37.086   4.622   2.601
95542W        W67967  24.746  28.900  13.350
95543W        W67968  32.791   9.991  14.438
95544W        W67969  13.210  33.006  14.481
95545W        W67970  42.053  27.981  14.800
95546W        W67971  23.185  42.816  14.406
95547W        W67972  10.143  32.900  11.611
95548W        W67973  24.648  21.823  11.701
95549W        W67974  37.362  31.129   0.770
95550W        W67975  27.844  22.109  13.379
95551W        W67976  34.590   2.532   2.907
95552W        W67977  40.321   4.875  11.249
95553W        W67978  17.082  44.867  12.981
95554W        W67979  35.155  22.503   3.183
95555W        W67980  37.802  32.594   2.321
95556W        W67981  23.679  36.462  10.728
95557W        W67982   8.314  10.593  11.972
95558W        W67983  28.916   6.574   2.646
95559W        W67984  28.728   3.274  12.882
95560W        W67985   1.053  37.816   2.840
95561W        W67986   1.663   9.827  11.085
95562W        W67987  27.097  12.659   3.159
95563W        W67988  36.505   3.853   0.346
95564W        W67989   2.910  20.187  13.001
95565W        W67990  26.990  18.194   3.164
95566W        W67991   9.904  35.687  11.769
95567W        W67992  33.470  38.935  14.814
95568W        W67993   8.240  43.515   0.055
95569W        W67994  10.265  17.755   4.573
95570W        W67995   0.360  16.170  13.299
95571W        W67996  39.120   6.334   5.107
95572W        W67997  16.794  32.937   4.454
95573W        W67998  38.055   8.337   1.246
95574W        W67999  14.705  18.004   1.667
95575W        W68000  36.956  22.653  14.227
95576W        W68001  30.421  14.541  12.929
95577W        W68002   3.457  26.467   0.007
95578W        W68003  20.077  17.676  12.129
95579W        W68004  13.729  23.108   2.333
95580W        W68005  17.144  24.986   2.290
95581W        W68006  27.888   3.478  13.374
95582W        W68007  39.535   7.527  14.115
95583W        W68008  44.401  24.592  11.641
95584W        W68009  44.519   0.297  10.598
95585W        W68010  14.185  38.821  14.904
95586W        W68011  16.502  14.899   3.509
95587W        W68012  38.887  10.688  12.901
95588W        W68013   6.741  31.153  12.413
95589W        W68014  28.083  12.823  11.489
95590W        W68015  28.767  29.668   3.192
95591W        W68016   1.009  18.025  10.624
95592W        W68017  10.747  14.369   2.862
95593W        W68018  15.339  29.325   2.592
95594W        W68019  18.243  28.105   3.772
95595W        W68020  34.002  44.038  11.155
95596W        W68021  18.614  32.525  10.332
95597W        W68022  43.532  22.616  10.527
95598W        W68023  29.525  11.084  14.032
95599W        W68024  33.388  35.367  13.413
95600W        W68025  15.567  10.725  10.572
95601W        W68026  24.881   0.798   0.288
95602W        W68027  31.935  15.336  11.584
95603W        W68028  25.112  25.978   4.142
95604W        W68029  25.221  20.903   1.505
95605W        W68030  30.392  30.065   4.630
95606W        W68031  19.586  37.583   3.558
95607W        W68032  31.635  39.289  13.035
95608W        W68033  44.337  18.549   0.854
95609W        W68034  44.804  18.609  11.615
95610W        W68035  30.651  23.969  11.656
95611W        W68036   3.826   9.697   1.903
95612W        W68037  14.644  33.163   1.296
95613W        W68038   0.023  25.283  13.940
95614W        W68039  44.932  30.496   2.754
95615W        W68040  35.116  19.098   0.710
95616W        W68041   0.938  15.861  13.447
95617W        W68042  20.477  17.906  12.431
95618W        W68043  20.082  24.176   4.205
95619W        W68044  21.117  23.555  10.984
95620W        W68045  39.843  33.828  14.941
95621W        W68046  22.036  26.648   4.782
95622W        W68047  35.778  25.219   0.720
95623W        W68048  18.284  26.709   4.186
95624W        W68049  16.632  36.978  13.498
95625W        W68050  25.213  38.643  10.728
95626W        W68051  11.231  42.499  10.665
95627W        W68052  26.555  20.988   3.675
95628W        W68053  16.746  32.428  12.970
95629W        W68054  40.367  16.569   4.555
95630W        W68055  24.576  14.852  12.446
95631W        W68056  23.292  34.687   0.868
95632W        W68057  26.180  15.350   2.855
95633W        W68058  38.957  17.923   4.829
95634W        W68059  43.072  33.866   1.446
95635W        W68060  44.579  27.913  11.436
95636W        W68061  41.805  28.766  11.883
95637W        W68062  26.219  44.856  14.358
95638W        W68063   2.535  28.273   2.866
95639W        W68064  17.279  11.515  13.865
95640W        W68065   7.443  23.858   2.366
95641W        W68066  18.770  38.335  13.955
95642W        W68067  36.977  30.199  14.737
95643W        W68068   4.949   4.456  10.515
95644W        W68069  22.622  27.091  14.219
95645W        W68070  27.685   6.721   4.183
95646W        W68071  41.760  14.182   4.416
95647W        W68072   2.740  41.460  10.720
95648W        W68073  21.249  37.248  13.146
95649W        W68074  12.530  36.495  14.015
95650W        W68075  14.849   8.581  12.117
95651W        W68076   1.511  23.536  13.528
95652W        W68077   8.768   6.248   3.422
95653W        W68078   5.248  17.258   4.255
95654W        W68079   6.839  16.845  14.743
95655W        W68080  44.950  43.644  12.610
95656W        W68081   9.074  18.676   3.667
95657W        W68082   3.407  31.346  14.084
95658W        W68083  18.640  36.057   3.809
95659W        W68084  29.616  36.753   0.251
95660W        W68085  13.395  37.274  13.362
95661W        W68086  11.668  34.140   1.958
95662W        W68087   6.164  35.703   9.895
95663W        W68088  21.080   5.673  13.402
95664W        W68089   4.400   6.801  11.073
95665W        W68090  10.101  31.595   1.419
95666W        W68091  39.432  18.313  14.353
95667W        W68092  37.987  40.853  12.695
95668W        W68093  25.554  44.726   2.337
95669W        W68094   0.020   7.871   3.758
95670W        W68095   3.518   1.241  13.546
95671W        W68096  29.098   4.013  11.181
95672W        W68097   0.722  38.604   3.621
95673W        W68098  16.067  39.776  13.417
95674W        W68099  25.440   4.454  12.517
95675W        W68100  10.243  25.412   4.190
95676W        W68101  19.633  28.671  12.447
95677W        W68102  23.879  13.195   5.077
95678W        W68103   0.455  20.201  11.203
95679W        W68104  17.228  35.381  12.368
95680W        W68105  37.422   5.679   0.460
95681W        W68106  34.074  31.516   3.890
95682W        W68107  44.535  23.077   3.248
95683W        W68108  24.614  39.400   1.323
95684W        W68109  32.809  30.009  12.963
95685W        W68110   6.291  21.325  11.673
95686W        W68111   0.874  35.439  11.042
95687W        W68112  10.028   9.975   3.733
95688W        W68113  14.063  25.487   2.245
95689W        W68114  34.928   8.549  11.502
95690W        W68115  16.104  38.019  13.636
95691W        W68116   2.532  29.166  12.138
95692W        W68117  43.906  14.889  10.785
95693W        W68118   6.753  36.551  11.135
95694W        W68119   5.464  18.414   3.645
95695W        W68120   6.113  10.674   0.319
95696W        W68121  25.241  33.614  14.434
95697W        W68122  20.706  38.545   3.580
95698W        W68123  37.442  33.314   3.262
95699W        W68124   2.895   8.512   0.490
95700W        W68125  35.820  23.981  14.385
95701W        W68126  37.889  41.906   1.805
95702W        W68127  29.735  31.592  11.328
95703W        W68128  16.346  17.140   0.028
95704W        W68129  13.201  34.214  12.685
95705W        W68130  13.889  39.353   1.631
95706W        W68131  17.307   0.755  14.876
95707W        W68132  14.760  40.574  12.537
95708W        W68133  12.274  27.000   1.951
95709W        W68134  27.072  33.374   0.746
95710W        W68135  35.174   1.861  12.415
95711W        W68136  28.673   6.845  13.933
95712W        W68137   2.478  29.432   4.108
95713W        W68138  18.430  33.783   5.102
95714W        W68139  28.601  22.581  13.860
95715W        W68140  18.694  30.864  10.563
95716W        W68141  13.304  36.845   0.417
95717W        W68142  24.499   1.533  13.429
95718W        W68143  11.141   9.795  14.869
95719W        W68144  36.116  18.628   3.141
95720W        W68145  42.824  18.099  12.738
95721W        W68146  19.292  24.132   3.740
95722W        W68147  11.120  17.225  14.180
95723W        W68148  20.647  29.234  11.059
95724W        W68149  18.352  35.620   2.374
95725W        W68150  42.863  14.692  11.527
95726W        W68151  43.604  13.608   1.327
95727W        W68152   4.740  20.750  13.952
95728W        W68153  41.072  25.140   1.404
95729W        W68154  16.552  10.004   2.634
95730W        W68155   2.233  25.840   0.896
95731W        W68156  36.949  21.801  14.552
95732W        W68157  21.260   6.966  13.439
95733W        W68158  36.933  14.254   1.374
95734W        W68159  42.037  18.538   4.599
95735W        W68160   4.426  40.601  13.889
95736W        W68161  38.435  30.394  10.870
95737W        W68162  18.144  41.077   0.761
95738W        W68163  29.835  15.639  11.786
95739W        W68164   9.681  11.114  12.903
95740W        W68165  15.454  14.327   4.184
95741W        W68166  13.659  30.129   4.504
95742W        W68167   7.330  23.933  12.562
95743W        W68168  34.941  40.314   2.204
95744W        W68169  32.629  42.940  11.515
95745W        W68170  25.627   6.805   1.942
95746W        W68171  38.823  22.571  14.368
95747W        W68172  11.888  34.053   3.922
95748W        W68173  36.379  41.500  12.396
95749W        W68174   0.502   9.714   0.353
95750W        W68175  23.240  10.452   1.690
95751W        W68176  32.171  40.483   1.937
95752W        W68177  30.487  42.359  14.461
95753W        W68178  15.910   8.664  14.328
95754W        W68179  37.439  23.160  12.600
95755W        W68180  16.835   1.979  12.183
95756W        W68181  39.012  21.459   2.725
95757W        W68182  20.196  44.790   0.471
95758W        W68183  32.877  26.180   1.922
95759W        W68184  38.380   7.372  11.555
95760W        W68185  15.100  24.281  14.763
95761W        W68186  16.392  12.607   4.440
95762W        W68187  14.712   0.132   1.481
95763W        W68188  35.556   1.448  12.913
95764W        W68189   6.401  44.180   4.508
95765W        W68190   7.745  14.381  14.749
95766W        W68191   4.825  35.054   1.820
95767W        W68192   8.456  18.374  12.689
95768W        W68193  32.217  28.935  10.535
95769W        W68194  19.595  31.841   3.084
95770W        W68195  37.428  43.399  11.255
95771W        W68196  14.067  33.362   0.967
95772W        W68197  39.991   5.236   4.499
95773W        W68198  44.694   5.822   4.540
95774W        W68199  43.375  39.729   2.857
95775W        W68200   7.772  15.348  12.485
95776W        W68201  40.560  34.663   1.473
95777W        W68202   2.143  25.241   4.587
95778W        W68203   5.635   4.429   0.331
95779W        W68204  23.953  34.408   3.168
95780W        W68205  10.119   4.441   0.319
95781W        W68206  29.582  17.035   3.562
95782W        W68207  27.134  15.818  10.956
95783W        W68208  28.970  39.434   0.825
95784W        W68209  13.696  25.621   2.633
95785W        W68210  35.064  32.114  11.534
95786W        W68211  41.407  20.797  10.724
95787W        W68212  28.587   2.367  12.902
95788W        W68213  36.645   4.374   1.065
95789W        W68214  23.108  25.225   3.279
95790W        W68215  34.080  21.537  13.469
95791W        W68216   0.530  26.426   4.480
95792W        W68217   5.438  17.469  10.633
95793W        W68218   1.539  19.742   1.906
95794W        W68219  11.117   6.682   5.129
95795W        W68220  34.903  34.404   4.212
95796W        W68221  26.474  40.456   2.872
95797W        W68222  27.160  18.496  14.254
95798W        W68223  20.441   3.859  12.926
95799W        W68224  29.500  29.987  14.328
95800W        W68225   4.715  18.144  14.436
95801W        W68226  31.524   5.151  11.926
95802W        W68227  37.778  20.633  10.466
95803W        W68228  30.963  15.097  14.325
95804W        W68229  38.447   3.788   2.601
95805W        W68230  16.057  18.770  10.721
95806W        W68231  39.194  42.848   4.074
95807W        W68232  26.925   5.203  14.491
95808W        W68233   0.475  15.240  12.837
95809W        W68234  41.945  18.819   3.353
95810W        W68235  12.279  27.487   5.015
95811W        W68236  32.114  32.918   2.835
95812W        W68237  12.235  22.597  13.286
95813W        W68238  11.406   2.357  11.510
95814W        W68239  31.014  36.925  10.510
95815W        W68240  12.304  29.985  13.218
95816W        W68241  34.001  41.291   0.395
95817W        W68242   1.669  36.553   0.238
95818W        W68243  20.989   3.188  13.051
95819W        W68244  24.557  32.502   1.788
95820W        W68245  31.417  13.172   3.197
95821W        W68246  30.016  33.188   0.222
95822W        W68247  17.273   2.227  12.387
95823W        W68248   8.909  12.209  12.436
95824W        W68249  32.123  27.409  13.407
95825W        W68250  17.153  31.046   2.748
95826W        W68251   1.346   5.300   0.779
95827W        W68252  21.053  32.795   2.753
95828W        W68253  19.122  38.493   4.722
95829W        W68254  26.214  24.957   0.654
95830W        W68255   6.104  42.340   0.850
95831W        W68256   1.722   9.967  12.855
95832W        W68257  36.095  30.917   0.376
95833W        W68258  23.914   6.879  13.013
95834W        W68259  18.714  38.585  11.590
95835W        W68260  39.469  33.333   3.427
95836W        W68261   0.490  34.463  12.982
95837W        W68262   5.789  12.816  12.450
95838W        W68263  44.564  22.740  14.948
95839W        W68264  31.993  16.559  12.041
95840W        W68265  19.728  43.507  12.040
95841W        W68266  35.346  14.237   4.136
95842W        W68267  37.577  15.088   0.932
95843W        W68268  27.956  11.574   3.290
95844W        W68269  25.437  19.227  14.061
95845W        W68270   7.789  20.273   4.473
95846W        W68271  14.688   0.453  13.520
95847W        W68272  36.160  12.240  11.463
95848W        W68273  21.593  26.786  12.672
95849W        W68274  28.500  17.801  13.868
95850W        W68275  10.394   4.783  12.512
95851W        W68276  37.502  41.755   3.684
95852W        W68277   1.174  33.642   1.782
95853W        W68278  15.414  11.227  14.276
95854W        W68279  34.060  20.993  13.836
95855W        W68280  12.609  31.925   0.359
95856W        W68281  41.303  22.999  10.774
95857W        W68282   5.846  17.171  14.264
95858W        W68283  21.001  14.087  11.109
95859W        W68284  26.576  41.516   3.746
95860W        W68285  37.963   0.431   4.808
95861W        W68286  18.912  17.930  11.505
95862W        W68287   0.899   6.230   4.102
95863W        W68288  43.359  16.545   2.826
95864W        W68289  19.763  28.123   0.002
95865W        W68290  34.930  32.918  11.117
95866W        W68291  21.131  42.020   3.761
95867W        W68292  28.877  18.679   2.258
95868W        W68293  10.823   6.235  10.645
95869W        W68294  10.768  43.428  10.612
95870W        W68295   2.677   4.473  11.062
95871W        W68296  11.260   9.742  12.901
95872W        W68297   0.966  37.066  14.847
95873W        W68298  31.061  31.693   3.880
95874W        W68299  12.813  21.734   0.315
95875W        W68300  19.475   4.726   4.545
95876W        W68301  18.252  38.304   1.749
95877W        W68302  33.983  44.236   3.627
95878W        W68303  33.412   7.674  13.384
95879W        W68304  27.626   7.422  14.270
95880W        W68305  17.352  43.979  13.501
95881W        W68306  21.217  28.870  13.535
95882W        W68307   1.736  21.567   2.854
95883W        W68308  27.904  29.506   0.737
95884W        W68309  38.952  41.551  14.069
95885W        W68310  22.347  31.431   2.629
95886W        W68311  33.653   3.710   3.817
95887W        W68312  26.696   6.787  14.834
95888W        W68313  24.055   8.067  11.946
95889W        W68314  27.957   3.413   0.946
95890W        W68315  23.609   3.002  13.980
95891W        W68316  31.452  26.462  11.858
95892W        W68317  10.124  34.043  12.471
95893W        W68318  41.771   6.590   4.741
95894W        W68319  17.119  14.239  14.714
95895W        W68320  38.499  24.937  10.440
95896W        W68321  34.108  27.262  13.970
95897W        W68322  39.914  12.235  14.527
95898W        W68323  22.238  39.046   4.728
95899W        W68324  11.143  22.502   4.065
95900W        W68325  37.036  35.440  13.605
95901W        W68326  19.239  14.821  11.226
95902W        W68327  38.310  29.899   3.613
95903W        W68328   9.356  34.060  12.064
95904W        W68329  35.407  21.462   0.082
95905W        W68330  41.910   1.810  13.068
95906W        W68331  34.962  44.131  14.876
95907W        W68332  13.367   4.724  14.526
95908W        W68333  13.545  16.560   0.793
95909W        W68334  29.988  31.097   2.426
95910W        W68335  33.626  44.202  13.139
95911W        W68336   3.276  29.909  12.606
95912W        W68337  41.341  40.853  14.398
95913W        W68338  37.606  32.373   4.890
95914W        W68339  32.504  30.590  12.804
95915W        W68340   1.242  18.698  12.492
95916W        W68341  42.034  26.071   0.913
95917W        W68342  33.427  16.992  12.969
95918W        W68343  24.285  25.958   4.054
95919W        W68344  42.997  27.174  13.857
95920W        W68345  28.687  35.541   4.560
95921W        W68346   5.361  29.941  10.985
95922W        W68347  38.178   2.073   0.769
95923W        W68348  16.140  16.684  11.405
95924W        W68349  14.858  39.069   4.213
95925W        W68350  15.701  38.873  13.934
95926W        W68351  30.114  18.206   1.855
95927W        W68352  39.789  11.320   0.294
95928W        W68353  36.632  16.277  13.855
95929W        W68354  37.379  18.998  12.867
95930W        W68355  44.197  21.883   0.134
95931W        W68356  43.635  25.219  13.340
95932W        W68357  30.523  20.467   1.729
95933W        W68358  15.551   3.884  13.902
95934W        W68359  35.036  17.190  10.852
95935W        W68360  33.126  42.438   2.831
95936W        W68361  15.147  23.136   1.774
95937W        W68362  30.532  11.530   3.563
95938W        W68363   7.817  21.751   2.345
95939W        W68364  42.804   6.110   0.230
95940W        W68365  40.451  27.827  12.588
95941W        W68366  24.775  41.388   2.260
95942W        W68367  25.657   6.666  11.214
95943W        W68368  44.276   4.948  13.157
95944W        W68369  38.415  21.217  10.854
95945W        W68370  24.642   4.813   4.866
95946W        W68371  14.451  39.766   2.256
95947W        W68372  24.323   9.906   2.747
95948W        W68373  43.391  11.101  14.376
95949W        W68374  30.492  41.413  14.705
95950W        W68375  28.961  19.275  12.596
95951W        W68376   0.228  34.468  10.458
95952W        W68377   6.751  27.719   2.444
95953W        W68378  34.046  14.867  12.724
95954W        W68379  31.259   1.713  14.735
95955W        W68380   8.726  44.499  13.065
95956W        W68381  36.781  39.902   0.959
95957W        W68382  13.224  25.413   2.845
95958W        W68383   0.492  18.094   4.223
95959W        W68384   5.365   1.661   2.325
95960W        W68385  30.265   4.289   2.925
95961W        W68386  15.597   9.137   3.641
95962W        W68387  32.027  23.069   0.790
95963W        W68388   6.439  36.100   4.209
95964W        W68389  16.720  41.266  10.520
95965W        W68390  12.811  44.725  12.610
95966W        W68391  33.883  43.445   2.897
95967W        W68392  17.797  40.943  11.671
95968W        W68393  10.719  29.739  10.870
95969W        W68394   0.425  39.918   4.135
95970W        W68395  22.255   0.725   0.296
95971W        W68396   4.886  22.825   3.324
95972W        W68397  26.203  29.638  12.854
95973W        W68398   6.371  16.867   2.358
95974W        W68399  34.533  31.086   0.054
95975W        W68400  11.157  27.984   4.313
95976W        W68401  12.305  16.532  12.600
95977W        W68402   6.657  13.401   4.113
95978W        W68403  43.468  28.116   4.185
95979W        W68404  37.952  28.166   0.407
95980W        W68405   7.784  15.845  12.414
95981W        W68406  41.720   1.927  11.146
95982W        W68407  18.756  17.143  14.332
95983W        W68408  11.175  18.953  12.993
95984W        W68409   9.671  21.273   1.259
95985W        W68410   8.833  29.596   1.697
95986W        W68411  38.094  33.181  13.850
95987W        W68412  34.575  44.959   0.887
95988W        W68413  31.906  19.787   3.693
95989W        W68414  16.604  38.838  14.557
95990W        W68415  26.161  29.677   2.333
95991W        W68416  27.960  39.787   3.258
95992W        W68417  20.047  42.473   2.281
95993W        W68418  38.837  41.762   3.326
95994W        W68419  39.621  37.366  14.102
95995W        W68420  14.708   6.580  11.909
95996W        W68421  18.101  22.668   1.424
95997W        W68422  39.622  25.672   2.337
95998W        W68423  41.900  42.251   1.269
95999W        W68424  22.948  39.973   1.517
96000W        W68425  26.128   4.745   1.526
96001W        W68426   6.553  42.987  12.385
96002W        W68427  39.655  44.046  13.771
96003W        W68428  17.674  27.917  11.645
96004W        W68429  41.405  15.844  12.866
96005W        W68430   6.946  36.473  14.796
96006W        W68431   5.529  36.942   5.087
96007W        W68432  37.809  23.702  11.151
96008W        W68433  18.188  13.003   1.880
96009W        W68434   3.340  12.006   4.901
96010W        W68435   3.650  23.948  11.148
96011W        W68436  40.920   8.749   3.281
96012W        W68437  42.004  25.144   0.954
96013W        W68438  36.173  32.515  14.713
96014W        W68439   7.615  44.950   2.610
96015W        W68440  37.059   8.359  14.468
96016W        W68441  43.400  21.512   2.782
96017W        W68442   7.641   2.962   0.677
96018W        W68443  10.856  37.587   3.257
96019W        W68444   8.203  24.244   1.847
96020W        W68445   5.269  23.153   3.297
96021W        W68446  29.089  37.925   5.022
96022W        W68447   2.729  35.951   1.691
96023W        W68448  25.693  28.553  11.585
96024W        W68449  32.470   6.441  14.367
96025W        W68450  32.251  17.852   0.203
96026W        W68451  32.045  21.783   3.443
96027W        W68452  20.321  31.323  14.007
96028W        W68453  37.454   9.546   2.875
96029W        W68454  42.434  19.680  13.550
96030W        W68455   7.744   1.504   3.315
96031W        W68456  31.042  14.056   9.783
96032W        W68457  27.796  34.838  12.420
96033W        W68458  32.540  36.517  11.980
96034W        W68459  31.191  16.117   4.691
96035W        W68460  12.629  40.446   1.382
96036W        W68461  13.162  26.306   0.803
96037W        W68462  20.837   9.765   5.081
96038W        W68463  21.961  43.765  10.502
96039W        W68464  15.793  10.437  10.921
96040W        W68465   3.017  40.975   0.155
96041W        W68466   5.619  14.579   4.165
96042W        W68467  23.692   5.823  14.442
96043W        W68468  36.932  14.274   1.921
96044W        W68469  36.076  33.811   0.881
96045W        W68470  18.188  28.322   4.262
96046W        W68471  26.346  41.850  12.396
96047W        W68472  32.989  11.738  12.887
96048W        W68473  24.181  14.719   3.223
96049W        W68474   9.915   4.168   1.721
96050W        W68475  10.557   9.590  10.178
96051W        W68476  24.735   7.067  13.471
96052W        W68477  38.268   5.281   4.586
96053W        W68478  24.973  15.655   4.500
96054W        W68479  36.933  16.188   1.743
96055W        W68480  12.415  31.222  11.123
96056W        W68481  30.498  28.913  11.007
96057W        W68482  16.039   5.316  10.455
96058W        W68483  10.513   7.747  14.654
96059W        W68484  36.480   9.905  10.703
96060W        W68485  43.431  35.066   4.140
96061W        W68486  29.703  36.524   2.779
96062W        W68487  27.297  18.666  11.252
96063W        W68488  28.417  32.103   1.854
96064W        W68489  30.841   8.302  12.051
96065W        W68490  41.797   8.276   3.929
96066W        W68491  33.584  27.501  11.516
96067W        W68492   5.719  16.648   3.946
96068W        W68493  20.928  33.573  11.392
96069W        W68494  11.833  30.395   1.819
96070W        W68495  24.148   4.744  11.626
96071W        W68496  30.661  44.915   3.613
96072W        W68497  15.102  15.129  12.014
96073W        W68498  41.835   7.544   3.325
96074W        W68499  41.283  27.987   2.271
96075W        W68500  34.733  17.439  13.524
96076W        W68501  30.945   5.559  14.846
96077W        W68502  25.029  44.353  14.596
96078W        W68503   2.971  16.754  11.468
96079W        W68504  35.108  11.156   0.194
96080W        W68505  38.936  17.509   5.199
96081W        W68506  23.113  31.937  13.756
96082W        W68507  30.845  28.545  12.004
96083W        W68508   2.221  10.203  13.218
96084W        W68509  40.487  42.589   0.233
96085W        W68510  11.328  39.908  14.744
96086W        W68511  26.590   7.069   3.439
96087W        W68512  11.870  37.053  12.197
96088W        W68513  14.238  30.118   0.359
96089W        W68514  43.979  37.602   3.351
96090W        W68515   2.284   8.887   0.819
96091W        W68516  43.450  22.293  12.577
96092W        W68517  42.342  15.175  13.324
96093W        W68518  27.721   2.835  12.345
96094W        W68519  43.264   1.437  12.878
96095W        W68520   6.473  16.291  10.704
96096W        W68521  23.444  28.549  13.179
96097W        W68522  20.496  23.669   1.304
96098W        W68523  41.759  28.974  10.425
96099W        W68524   4.519  16.392   4.695
96100W        W68525  11.866  14.041   2.480
96101W        W68526  32.164   5.049   3.433
96102W        W68527   8.895  18.059  10.701
96103W        W68528  12.176  23.723   4.966
96104W        W68529   5.657  43.058  12.541
96105W        W68530   8.684  33.577   3.259
96106W        W68531  37.999  13.157   3.841
96107W        W68532  22.807  12.120   4.659
96108W        W68533  17.031  10.405   3.239
96109W        W68534  12.188  24.152  11.083
96110W        W68535  43.771  38.605   0.450
96111W        W68536   6.653   6.869  11.131
96112W        W68537   6.921  16.687  13.091
96113W        W68538  28.412  32.355   0.016
96114W        W68539   8.154  11.314  11.077
96115W        W68540   3.947  28.955   3.657
96116W        W68541   4.958  16.842   4.917
96117W        W68542  10.835   7.973  15.000
96118W        W68543  32.224  21.679   1.746
96119W        W68544  39.453  15.825   2.392
96120W        W68545  35.769  29.545  12.588
96121W        W68546  31.463  31.137  11.634
96122W        W68547  41.091  30.982  14.345
96123W        W68548  44.248  30.232   2.112
96124W        W68549  26.571   9.829  14.967
96125W        W68550  25.896  27.830   2.888
96126W        W68551  23.044  35.578   1.622
96127W        W68552   4.425  33.049   1.441
96128W        W68553  11.109  31.713   1.299
96129W        W68554  39.626  44.801  11.542
96130W        W68555  11.869   7.260   3.658
96131W        W68556  14.328  44.011   1.657
96132W        W68557   4.289  18.223   3.158
96133W        W68558  32.828  38.796   3.399
96134W        W68559   9.980   8.215   9.879
96135W        W68560  17.831  39.363   1.315
96136W        W68561  36.294  16.760  11.062
96137W        W68562   3.254  35.504   3.431
96138W        W68563  12.070   4.679  10.572
96139W        W68564  19.750  44.852   4.099
96140W        W68565  17.631  28.980   0.324
96141W        W68566  44.730  11.481  14.535
96142W        W68567  41.417   9.478  11.717
96143W        W68568  20.301  21.663   1.389
96144W        W68569   8.194  22.980  10.564
96145W        W68570   8.477  26.675  11.095
96146W        W68571  19.184  19.677  12.590
96147W        W68572  31.828   7.746   4.548
96148W        W68573  21.572  26.619   1.934
96149W        W68574  20.958  36.399   0.858
96150W        W68575  16.454  27.256   2.460
96151W        W68576  35.976  43.246  14.418
96152W        W68577  10.160  41.437   4.931
96153W        W68578  39.065  35.480  13.371
96154W        W68579  37.457  38.433   3.782
96155W        W68580  24.428  25.036  13.456
96156W        W68581  42.807  16.864  14.017
96157W        W68582   9.239  11.386   4.574
96158W        W68583  21.171  21.503  10.945
96159W        W68584  12.412  15.626  13.861
96160W        W68585  31.805  34.506  13.898
96161W        W68586  18.287  40.523   3.083
96162W        W68587  23.575  33.581  14.089
96163W        W68588  23.088  43.712  14.344
96164W        W68589  14.144  40.441  12.913
96165W        W68590   8.668  14.799  14.011
96166W        W68591   6.870  29.510  12.920
96167W        W68592  35.884  26.418  12.463
96168W        W68593  26.723  33.621  11.181
96169W        W68594  19.830   5.856  10.692
96170W        W68595  13.229   7.302  12.161
96171W        W68596  36.006  15.567   2.255
96172W        W68597  10.346  33.491   4.932
96173W        W68598   6.481  31.487  10.674
96174W        W68599  19.515   4.527  11.246
96175W        W68600   0.310  17.731  11.408
96176W        W68601  27.171  21.448   0.574
96177W        W68602  41.976  28.080  11.117
96178W        W68603  23.878  38.542  11.123
96179W        W68604  13.298  38.941  14.394
96180W        W68605  14.270   0.755   4.884
96181W        W68606   0.534   6.920  10.550
96182W        W68607  29.636  21.732  10.542
96183W        W68608  13.056  26.980   4.336
96184W        W68609  35.434  34.848  12.629
96185W        W68610  23.081  20.547  14.271
96186W        W68611   8.084   2.819   0.946
96187W        W68612  26.187   4.159   4.701
96188W        W68613  37.772   2.437  12.448
96189W        W68614  15.104   3.245   4.525
96190W        W68615  30.375  44.431   1.180
96191W        W68616  10.305  19.314  10.452
96192W        W68617   2.961  36.200   4.615
96193W        W68618   0.303   7.371   2.813
96194W        W68619  12.087   5.478   1.723
96195W        W68620  26.122   4.212   0.490
96196W        W68621  30.430  33.031  12.348
96197W        W68622  22.462  11.618  11.186
96198W        W68623   9.036  38.891   2.183
96199W        W68624  34.917  36.369  14.762
96200W        W68625  14.501  22.575   1.898
96201W        W68626  24.257  36.511   4.777
96202W        W68627   1.862  17.695   2.294
96203W        W68628  26.161  26.681   4.835
96204W        W68629  25.058  27.411   0.467
96205W        W68630  28.341  12.635  11.891
96206W        W68631  32.390   7.902   2.778
96207W        W68632   8.697  31.150   0.622
96208W        W68633   5.850  32.492   0.207
96209W        W68634   3.932  27.149   4.907
96210W        W68635  12.254  38.723  11.129
96211W        W68636  12.639   9.297   3.603
96212W        W68637  40.917  12.157   4.596
96213W        W68638   2.259  15.304   4.411
96214W        W68639   0.665  23.214  10.814
96215W        W68640   0.283  30.493  12.416
96216W        W68641  10.477  15.019  14.495
96217W        W68642  25.712  30.870  13.868
96218W        W68643  19.277  27.877   4.236
96219W        W68644  29.446   8.597   2.896
96220W        W68645   4.040  25.716  14.018
96221W        W68646  42.531  40.911   0.799
96222W        W68647  32.013  15.222   9.831
96223W        W68648  17.179  34.944  13.983
96224W        W68649  30.125  44.019   3.252
96225W        W68650   6.404   4.519  13.130
96226W        W68651  37.937  30.197  14.734
96227W        W68652  25.990  44.024   4.289
96228W        W68653  44.367   2.396   2.747
96229W        W68654  20.369  18.677  12.909
96230W        W68655  32.033  32.479   1.035
96231W        W68656  20.610  41.507  11.462
96232W        W68657  32.454   0.303  14.514
96233W        W68658  13.915  32.049  12.980
96234W        W68659  18.829  23.157   1.318
96235W        W68660   6.261  19.135   3.728
96236W        W68661  34.915  43.743   3.727
96237W        W68662  33.602  39.528  11.153
96238W        W68663  27.504  12.261   1.690
96239W        W68664  40.411  26.485   1.552
96240W        W68665  39.756  41.903  13.782
96241W        W68666   1.717  42.842  13.804
96242W        W68667   2.940  38.122  14.423
96243W        W68668  18.567   7.618  13.431
96244W        W68669  44.792  35.037   2.825
96245W        W68670   3.473   8.342   5.029
96246W        W68671  16.541  17.826   0.361
96247W        W68672  16.637  15.249   4.318
96248W        W68673   3.251  37.539  11.960
96249W        W68674  21.399  23.711  10.592
96250W        W68675  21.381  42.788  11.463
96251W        W68676  41.030  41.341  12.898
96252W        W68677   7.478  36.895   3.679
96253W        W68678  32.958  23.029  11.165
96254W        W68679  40.073  12.922   3.759
96255W        W68680  28.769  31.788   1.409
96256W        W68681   1.409  17.078   0.775
96257W        W68682  14.053  34.432  10.837
96258W        W68683  32.217  10.613  13.544
96259W        W68684  20.993   5.821   1.614
96260W        W68685  31.649   2.849  14.871
96261W        W68686  28.905  29.962  12.092
96262W        W68687  37.982  43.982  13.912
96263W        W68688  12.112   9.646  14.805
96264W        W68689  38.538  21.644   2.909
96265W        W68690   8.829  41.897  13.602
96266W        W68691   8.221  22.706  14.312
96267W        W68692  23.812  23.749   0.480
96268W        W68693  15.566   0.974  10.209
96269W        W68694  24.061   8.276  12.414
96270W        W68695  32.828  33.675   1.253
96271W        W68696  43.273  35.860  12.587
96272W        W68697  28.103  39.351   1.337
96273W        W68698  41.825   2.288   3.252
96274W        W68699  12.245   1.709   0.305
96275W        W68700  32.505  41.816   4.598
96276W        W68701  41.632  32.543   2.229
96277W        W68702   8.835  19.571  10.307
96278W        W68703  14.805   7.244   0.526
96279W        W68704  32.604  42.213   2.152
96280W        W68705  16.220  20.021   3.464
96281W        W68706  19.214  12.405  12.127
96282W        W68707  43.772  22.460   4.190
96283W        W68708  27.136  13.018  13.370
96284W        W68709  36.052  23.551  12.633
96285W        W68710  13.969  22.979   0.366
96286W        W68711  34.051   4.368   1.745
96287W        W68712   5.308   5.929  11.595
96288W        W68713  17.789  13.105  12.954
96289W        W68714  26.292  41.257   4.101
96290W        W68715  24.258  18.005  11.928
96291W        W68716   2.834  44.690  14.400
96292W        W68717  43.971  15.140   2.592
96293W        W68718  17.664  32.909   4.005
96294W        W68719   8.071   4.599   2.320
96295W        W68720  11.313  44.680  12.911
96296W        W68721  29.145  42.351   0.355
96297W        W68722  18.704  40.447   3.377
96298W        W68723  34.453  31.425  11.525
96299W        W68724  40.944   9.067   1.865
96300W        W68725  26.889  33.739   0.356
96301W        W68726  23.093  20.330   0.980
96302W        W68727   5.990   9.152   3.918
96303W        W68728  16.321  43.096  12.058
96304W        W68729  23.736  34.362   4.378
96305W        W68730  29.639  11.568   3.619
96306W        W68731  38.095   6.091  11.046
96307W        W68732  18.875  18.707   0.262
96308W        W68733   2.587  31.113   2.388
96309W        W68734  33.065  13.284  10.397
96310W        W68735  38.235  19.284  14.944
96311W        W68736  34.176  41.236  13.412
96312W        W68737  39.339  23.181  13.682
96313W        W68738  27.584  24.504   1.678
96314W        W68739  21.710  18.005  12.112
96315W        W68740  40.925  34.521   1.167
96316W        W68741  43.386  23.674  13.567
96317W        W68742  15.965   4.888   0.573
96318W        W68743   0.439  23.295   0.739
96319W        W68744  44.166   8.377  12.690
96320W        W68745  23.246  43.271  10.745
96321W        W68746   0.056  26.925   3.509
96322W        W68747  22.053  19.100  10.658
96323W        W68748  20.293  10.106  12.384
96324W        W68749  23.673  12.336  13.339
96325W        W68750  27.258  34.406   3.404
96326W        W68751   0.776  10.764  14.442
96327W        W68752  19.782  35.054   5.095
96328W        W68753  23.618  32.148   3.382
96329W        W68754  18.140  44.851  14.050
96330W        W68755  35.977  14.554  12.702
96331W        W68756   4.326  38.558  10.579
96332W        W68757  37.924  28.089   1.935
96333W        W68758  14.615  39.922   1.179
96334W        W68759   3.028  12.510  13.009
96335W        W68760  42.729  28.926  10.806
96336W        W68761  27.055  24.560   4.835
96337W        W68762  13.112   8.859   5.091
96338W        W68763  13.591  39.471   2.362
96339W        W68764  16.573  19.533   3.183
96340W        W68765   4.292  37.782   1.267
96341W        W68766  44.512  40.427  14.369
96342W        W68767   1.306   7.308   1.155
96343W        W68768  16.375  26.221  13.523
96344W        W68769   3.667   0.268  11.132
96345W        W68770  41.069  11.157  14.426
96346W        W68771   6.271   4.391  14.460
96347W        W68772   7.982  37.219   5.682
96348W        W68773  12.059  23.994   2.908
96349W        W68774  23.017  28.742  13.989
96350W        W68775   7.304  24.587   0.797
96351W        W68776  28.334  34.095  13.752
96352W        W68777  30.868  26.069  14.901
96353W        W68778  12.091  19.034  11.124
96354W        W68779  14.524  42.391   2.785
96355W        W68780   3.116  30.974   0.433
96356W        W68781   1.895  27.405   1.521
96357W        W68782   1.712  31.497   2.299
96358W        W68783  15.281  40.881   0.089
96359W        W68784  23.061  23.964   1.736
96360W        W68785  44.175  35.100   4.076
96361W        W68786  11.163   9.810   2.353
96362W        W68787  18.639   9.281   0.021
96363W        W68788   7.580  40.342  12.941
96364W        W68789  12.948  35.238  14.405
96365W        W68790   7.413  43.297   3.219
96366W        W68791  14.874  40.457  13.457
96367W        W68792  43.958  43.161   3.202
96368W        W68793   7.808  27.406   3.671
96369W        W68794  42.359  42.651  11.534
96370W        W68795  18.821  32.178   4.190
96371W        W68796  11.125  17.623  13.510
96372W        W68797  34.942  16.697  12.102
96373W        W68798   3.288   1.034  11.654
96374W        W68799   1.607  44.086   0.270
96375W        W68800  17.567  38.127  11.910
96376W        W68801  18.815  10.686   3.667
96377W        W68802  22.875   9.278  11.921
96378W        W68803   5.292   4.431  11.538
96379W        W68804  31.212   3.322  14.097
96380W        W68805  28.966  21.066   4.773
96381W        W68806   0.251  18.616   0.477
96382W        W68807   2.177  34.937   0.777
96383W        W68808  16.301   4.684  12.602
96384W        W68809  29.382   2.790  12.799
96385W        W68810  27.901   4.397   0.910
96386W        W68811  16.859  22.678   3.688
96387W        W68812  21.061  38.390  14.515
96388W        W68813  20.638   5.025  11.993
96389W        W68814   4.334  33.865   0.695
96390W        W68815  37.417  27.547   3.944
96391W        W68816  30.585  33.475  11.751
96392W        W68817   3.365   5.901  11.502
96393W        W68818   9.452  40.028  13.917
96394W        W68819  18.095  17.607   4.083
96395W        W68820  39.865  25.551   4.566
96396W        W68821  12.759  11.713  11.730
96397W        W68822  11.797  43.431  11.744
96398W        W68823  37.017  13.587  14.458
96399W        W68824  35.215  37.054   4.207
96400W        W68825  24.589   3.808  11.154
96401W        W68826  32.372  15.211  14.539
96402W        W68827  20.321  37.976   3.936
96403W        W68828  35.969  28.210  12.056
96404W        W68829   2.893  27.018   0.204
96405W        W68830  41.735  43.267  14.726
96406W        W68831  26.861  31.313   3.715
96407W        W68832  26.256  37.094  11.171
96408W        W68833   7.851  20.112   1.847
96409W        W68834  14.692  26.016   3.535
96410W        W68835  15.268  17.747   1.286
96411W        W68836  21.703   8.102   2.664
96412W        W68837  23.755  34.508  11.524
96413W        W68838  41.426  27.812   3.600
96414W        W68839   3.334   7.225   3.394
96415W        W68840   8.926  11.236  11.549
96416W        W68841  29.571  32.546  11.352
96417W        W68842  34.799  14.184  12.430
96418W        W68843  33.522  33.375   1.280
96419W        W68844  42.537  14.054   3.268
96420W        W68845   3.974   2.373   0.932
96421W        W68846  26.674   5.341   0.449
96422W        W68847   8.349  28.956   0.658
96423W        W68848  25.798  23.176  12.480
96424W        W68849  44.896  28.444  12.099
96425W        W68850  17.566   8.402  14.754
96426W        W68851  44.990  39.325   4.825
96427W        W68852  16.969   0.400   0.491
96428W        W68853  25.904  23.642  13.538
96429W        W68854  32.386   3.042  11.117
96430W        W68855  42.905  36.732   2.826
96431W        W68856  30.346   0.185  11.273
96432W        W68857   6.157  15.033  11.936
96433W        W68858  16.828  26.334   2.310
96434W        W68859   4.780  36.264  13.462
96435W        W68860  16.049  25.807  13.571
96436W        W68861  18.366  33.998  13.547
96437W        W68862  36.956  14.235  12.479
96438W        W68863  38.462  11.878  10.570
96439W        W68864  35.625  40.006  11.394
96440W        W68865  34.193  26.952  13.020
96441W        W68866  11.432   1.501  14.597
96442W        W68867  40.523  42.077   2.174
96443W        W68868  26.084  33.582   0.852
96444W        W68869  25.049  44.930   4.496
96445W        W68870  38.850  37.046  13.756
96446W        W68871   9.291  21.202   2.760
96447W        W68872  40.825  38.885  12.490
96448W        W68873  43.949  28.516   2.251
96449W        W68874  34.335  22.693   3.348
96450W        W68875   5.001  21.629   1.672
96451W        W68876  11.754  41.461   1.363
96452W        W68877  12.487  42.764  11.660
96453W        W68878  20.724   0.323   1.710
96454W        W68879  37.435  19.892  11.641
96455W        W68880  36.655   5.396   1.500
96456W        W68881  44.392  23.023  11.616
96457W        W68882  38.325   8.688  14.006
96458W        W68883  40.894  17.967  12.410
96459W        W68884   4.406  30.479  13.857
96460W        W68885   0.425  10.735  10.967
96461W        W68886  40.395  43.044   1.364
96462W        W68887   9.727  41.365   1.799
96463W        W68888  34.950  14.254  10.543
96464W        W68889  16.219   9.198  13.530
96465W        W68890  32.152  30.764   3.203
96466W        W68891  43.906  42.971   2.735
96467W        W68892  16.209  38.425  14.463
96468W        W68893  29.255  21.853  13.562
96469W        W68894  28.488   3.415   4.586
96470W        W68895  28.597   7.637  11.097
96471W        W68896  20.677  35.923  12.452
96472W        W68897  39.406  11.314  12.618
96473W        W68898  37.989  29.160   2.747
96474W        W68899  32.076   8.697  12.510
96475W        W68900  19.633  41.401  13.734
96476W        W68901  18.051  34.495   4.672
96477W        W68902  40.976  15.509  14.170
96478W        W68903  39.895  44.367  11.528
96479W        W68904  16.811  40.345   0.260
96480W        W68905   7.009  11.686  11.468
96481W        W68906   9.480  33.455  14.910
96482W        W68907  35.091  21.005  12.535
96483W        W68908  40.835  40.643  13.269
96484W        W68909  15.227  22.769   3.170
96485W        W68910  40.415  33.593  14.746
96486W        W68911  17.670  34.048   3.106
96487W        W68912  38.811  38.908   2.739
96488W        W68913  23.760  29.478   3.201
96489W        W68914  24.473  31.225  12.587
96490W        W68915  42.406  23.219   4.806
96491W        W68916   3.391   0.339   2.755
96492W        W68917  18.620  16.296  12.467
96493W        W68918  31.637   8.874   2.328
96494W        W68919  21.184  23.234   2.886
96495W        W68920  15.273  22.351  12.446
96496W        W68921  11.158  10.529  11.125
96497W        W68922  21.851   9.705  13.490
96498W        W68923  30.526   9.106  14.435
96499W        W68924  40.531  14.950   2.665
96500W        W68925  22.299  33.172  12.830
96501W        W68926  18.125  14.173  11.633
96502W        W68927  19.232   3.681   1.271
96503W        W68928  30.112  20.238   0.828
96504W        W68929  22.662   4.906   4.018
96505W        W68930  33.916  23.420   4.068
96506W        W68931  21.938  38.458  14.355
96507W        W68932  39.853  28.287   2.922
96508W        W68933  32.461  21.782   3.128
96509W        W68934  32.077   7.647  13.408
96510W        W68935  33.585  29.266  12.010
96511W        W68936  19.435  18.298   3.581
96512W        W68937  20.913  26.602   5.147
96513W        W68938  33.336  20.089   5.106
96514W        W68939  14.172  11.301   2.632
96515W        W68940  18.842  12.051   2.712
96516W        W68941  30.094  43.275  14.010
96517W        W68942  20.992  13.184  10.166
96518W        W68943  35.097   8.277   0.289
96519W        W68944  25.592  10.238  12.373
96520W        W68945  30.663  43.799  14.402
96521W        W68946  27.439   2.418  14.880
96522W        W68947  32.132  21.509  13.962
96523W        W68948   2.227  24.053  13.526
96524W        W68949   3.917  30.393  13.010
96525W        W68950  36.929   4.584   3.678
96526W        W68951  31.443  21.043   0.430
96527W        W68952  33.504   8.971  13.709
96528W        W68953   7.787   3.641  14.312
96529W        W68954  24.477  10.714   1.865
96530W        W68955  26.897   1.032   0.330
96531W        W68956  25.035  36.033   4.626
96532W        W68957  34.155  32.968  12.043
96533W        W68958  21.651   5.278   1.346
96534W        W68959  18.129  13.490   0.236
96535W        W68960  39.089  23.690  12.010
96536W        W68961   8.814   8.684   1.034
96537W        W68962  36.358  15.172  14.871
96538W        W68963  12.082  27.606   0.309
96539W        W68964  21.693  35.362   3.720
96540W        W68965   3.524  24.455  11.102
96541W        W68966   2.011  32.016   4.107
96542W        W68967   5.662   4.873   4.366
96543W        W68968  43.755  12.540  11.580
96544W        W68969  32.975  32.643  12.441
96545W        W68970  25.015   3.985   1.347
96546W        W68971  10.686  16.289  11.077
96547W        W68972  42.365   4.104   4.910
96548W        W68973  19.330  22.531  12.068
96549W        W68974  15.584  23.319   1.151
96550W        W68975  29.784  39.534   0.474
96551W        W68976  33.020  11.259  12.605
96552W        W68977  18.054  32.217  11.331
96553W        W68978   8.498   1.986  11.172
96554W        W68979  16.660  27.196  10.605
96555W        W68980  29.463   6.160   0.314
96556W        W68981  37.164  11.685   0.740
96557W        W68982   0.739  26.518  11.088
96558W        W68983  28.412  35.034   2.801
96559W        W68984  16.661  37.115  14.473
96560W        W68985  21.467  11.892  11.973
96561W        W68986  31.454  36.085  10.632
96562W        W68987   4.906  13.663   1.986
96563W        W68988  25.080  41.096   2.613
96564W        W68989  28.906   9.765  12.236
96565W        W68990  21.725  28.017  11.395
96566W        W68991  19.271   1.277   1.172
96567W        W68992  14.652  10.157  14.687
96568W        W68993  33.475  12.120  11.928
96569W        W68994  13.063  26.203   1.739
96570W        W68995  13.487   5.191  14.385
96571W        W68996  14.142   4.317  11.409
96572W        W68997  26.793  22.833   3.235
96573W        W68998  42.341  44.443   1.124
96574W        W68999  24.372  37.127  13.027
96575W        W69000  41.855  23.655  14.136
96576W        W69001  43.210  41.280   4.198
96577W        W69002  16.236  35.651   2.694
96578W        W69003  15.559  43.772   2.221
96579W        W69004  31.353  18.184   2.858
96580W        W69005  12.127  20.469   4.626
96581W        W69006  17.696   0.461  10.112
96582W        W69007  42.472  26.760  14.447
96583W        W69008  21.069  34.988  11.528
96584W        W69009  34.067  25.762   1.397
96585W        W69010   4.489  24.231   0.035
96586W        W69011  10.332   5.081   2.123
96587W        W69012  45.000  32.888  13.363
96588W        W69013   3.986  28.361  12.335
96589W        W69014  27.937  20.731   1.874
96590W        W69015  15.142  19.446   3.993
96591W        W69016  28.653   7.795  11.612
96592W        W69017   1.909  30.383   3.882
96593W        W69018  33.813  39.811  10.547
96594W        W69019  36.687  20.042   4.961
96595W        W69020  33.194  16.321   3.850
96596W        W69021  39.396   3.662  13.412
96597W        W69022  43.900  33.557   2.348
96598W        W69023  18.653  32.537   9.826
96599W        W69024  11.161   5.880   2.562
96600W        W69025  17.292  36.939  12.528
96601W        W69026  27.120  24.634   3.832
96602W        W69027   7.871   3.133  14.378
96603W        W69028  40.626  29.988   1.945
96604W        W69029  39.813  20.775  10.428
96605W        W69030  17.275  35.378   4.083
96606W        W69031   0.002  13.974   1.913
96607W        W69032   9.284  43.793  11.710
96608W        W69033  38.848  40.495   2.410
96609W        W69034  11.395  26.166   3.102
96610W        W69035  32.813  20.123  12.741
96611W        W69036   4.836  22.737  14.705
96612W        W69037   2.908  16.318   0.644
96613W        W69038  26.671   9.271  12.964
96614W        W69039  35.533  32.677  11.594
96615W        W69040  21.096  25.639  13.368
96616W        W69041  24.417  33.567   3.240
96617W        W69042   3.252  29.629  10.792
96618W        W69043  16.812  34.589   2.997
96619W        W69044  31.424  26.714  13.466
96620W        W69045   4.465  23.998   2.517
96621W        W69046  43.138  14.249  11.619
96622W        W69047  32.429  23.309   1.063
96623W        W69048   2.707   0.861   3.882
96624W        W69049   1.678  17.577  10.587
96625W        W69050  20.603  43.458   3.210
96626W        W69051  14.034  27.266   0.508
96627W        W69052  27.744  34.693  14.464
96628W        W69053   0.891  16.768  14.743
96629W        W69054  31.579  30.932  14.558
96630W        W69055   5.737  24.705  13.774
96631W        W69056  34.128  27.139  12.504
96632W        W69057  18.773  26.685  13.410
96633W        W69058  44.028  15.197   4.051
96634W        W69059   3.893  22.103  13.047
96635W        W69060  23.938  35.366  13.830
96636W        W69061  12.335  44.771   4.247
96637W        W69062   4.877   2.723   3.609
96638W        W69063  29.731  12.873  11.939
96639W        W69064  22.560  14.768  10.435
96640W        W69065  10.817   4.439   1.494
96641W        W69066  23.024   6.865   1.340
96642W        W69067  25.297   2.838   4.921
96643W        W69068  13.784  24.585  13.919
96644W        W69069  44.944  40.767  14.804
96645W        W69070  22.535  16.579   4.128
96646W        W69071  27.683   5.022   9.932
96647W        W69072  37.950  42.352   3.231
96648W        W69073  16.680  35.544  12.026
96649W        W69074  31.529  43.388  11.941
96650W        W69075  43.417   1.936   4.121
96651W        W69076  14.604  39.509   4.409
96652W        W69077  37.651  33.060  14.091
96653W        W69078   9.680  37.082  13.090
96654W        W69079  19.582  10.208   1.322
96655W        W69080  18.822  43.859  12.316
96656W        W69081   3.930  35.732  10.944
96657W        W69082  31.069  10.805   3.743
96658W        W69083   3.036  14.113   0.732
96659W        W69084  31.038  33.377  14.023
96660W        W69085   3.780  34.947   2.176
96661W        W69086  14.082  24.445   0.354
96662W        W69087  41.905   7.935   1.261
96663W        W69088  43.970  34.422   3.327
96664W        W69089  43.401  13.072   3.868
96665W        W69090   2.608  31.581  14.825
96666W        W69091  19.560  42.721  13.968
96667W        W69092  38.078  13.881  13.729
96668W        W69093  38.345  44.454  13.438
96669W        W69094  42.889  31.461  13.931
96670W        W69095  36.532  16.117  10.611
96671W        W69096   0.326  20.261  11.694
96672W        W69097  34.216   1.648  12.073
96673W        W69098  32.527  13.139   3.559
96674W        W69099  38.421  18.091  13.082
96675W        W69100  29.872   4.756   0.398
96676W        W69101  29.113   4.694  14.929
96677W        W69102   3.477  36.118  13.397
96678W        W69103   9.788  20.148  14.987
96679W        W69104  14.316  35.211  12.141
96680W        W69105  44.580  25.648  13.899
96681W        W69106  26.050  43.031   4.322
96682W        W69107  39.962  21.636   4.388
96683W        W69108  18.852  14.463  12.649
96684W        W69109  43.168   1.302   1.737
96685W        W69110  22.228  25.244   2.151
96686W        W69111  29.924  14.347  11.531
96687W        W69112   3.788   5.110  10.296
96688W        W69113  26.143   4.385  12.931
96689W        W69114  17.271  36.897  12.005
96690W        W69115   3.154  43.351  13.217
96691W        W69116  16.867  25.421   3.417
96692W        W69117  15.160  38.919  10.569
96693W        W69118  17.262  28.888  14.971
96694W        W69119   3.947  42.416  13.885
96695W        W69120  21.762  22.572   4.836
96696W        W69121  12.280   8.662   3.266
96697W        W69122  39.663  10.195   2.164
96698W        W69123  42.624   4.069  12.900
96699W        W69124   1.453   2.475  11.656
96700W        W69125  30.631  30.894   0.556
96701W        W69126  24.246  28.910  12.326
96702W        W69127   7.222  30.483   2.260
96703W        W69128  40.533  37.522  11.649
96704W        W69129  33.178  24.067   2.753
96705W        W69130  43.853   9.018   0.757
96706W        W69131   6.243  24.730   0.415
96707W        W69132  22.041  18.705  11.716
96708W        W69133  38.418   7.649   4.650
96709W        W69134  29.984  40.744   3.848
96710W        W69135   8.962  42.984  12.088
96711W        W69136   7.652  11.578  12.301
96712W        W69137  33.901  36.332  12.823
96713W        W69138  35.796  29.027   1.570
96714W        W69139  14.761  11.760  11.521
96715W        W69140  11.056  34.628  12.883
96716W        W69141   9.741  36.678  14.892
96717W        W69142   9.367  16.531  14.144
96718W        W69143  26.622  23.846  14.747
96719W        W69144  32.863  39.820  10.696
96720W        W69145  22.886  28.522   3.492
96721W        W69146  12.735  17.711  13.982
96722W        W69147  15.203  44.736  10.564
96723W        W69148  28.370   6.205  12.077
96724W        W69149  43.457  26.587   3.229
96725W        W69150  42.789  43.680  14.458
96726W        W69151  12.626   9.607  14.862
96727W        W69152   7.574  24.032  12.095
96728W        W69153  15.794  33.429   1.749
96729W        W69154  24.650   9.755  11.546
96730W        W69155  30.906  27.600   1.326
96731W        W69156  19.726   4.558   3.653
96732W        W69157  16.372  44.438   9.947
96733W        W69158  41.777  44.211  14.721
96734W        W69159   5.391  13.029   4.220
96735W        W69160  20.734  32.303   0.380
96736W        W69161  28.214  23.899   2.694
96737W        W69162  23.826   5.028  14.733
96738W        W69163  14.125   8.693  14.261
96739W        W69164  27.994   0.304  12.842
96740W        W69165  26.622  26.154   2.343
96741W        W69166  26.970   4.223   2.306
96742W        W69167  35.102   2.920   4.799
96743W        W69168  38.066  20.216   0.471
96744W        W69169   4.663  32.958   4.094
96745W        W69170  42.305  41.981   2.085
96746W        W69171  12.213  22.993  10.941
96747W        W69172  24.061  28.495  12.046
96748W        W69173  24.094   2.012  12.114
96749W        W69174  21.904  14.148  10.575
96750W        W69175   2.909  40.350   2.705
96751W        W69176   0.328  42.793   4.848
96752W        W69177  35.339  13.294  12.569
96753W        W69178   4.199   0.805   2.759
96754W        W69179   4.489  30.216   1.455
96755W        W69180  29.400   0.059   2.908
96756W        W69181   0.031   7.347   4.086
96757W        W69182  13.305  40.872  12.154
96758W        W69183  37.236  25.208  14.430
96759W        W69184  19.934   1.240  11.388
96760W        W69185  15.148  37.056   1.465
96761W        W69186   7.571  11.182  10.171
96762W        W69187  31.397  42.376  11.849
96763W        W69188  41.344  27.420  13.529
96764W        W69189  20.457  43.889   0.353
96765W        W69190  35.174  23.959   4.802
96766W        W69191  19.537  18.224  10.778
96767W        W69192  27.109  12.741  11.992
96768W        W69193  32.996  14.339  13.579
96769W        W69194  12.317  26.044  14.511
96770W        W69195   4.216  24.768   1.461
96771W        W69196  23.492  14.105   2.860
96772W        W69197  22.752  25.063  13.087
96773W        W69198  26.514  41.366  12.594
96774W        W69199  25.256  24.637   4.133
96775W        W69200   4.240  29.905   1.826
96776W        W69201  26.958   8.433   1.226
96777W        W69202  14.795  36.974   4.337
96778W        W69203  37.800   7.375  12.862
96779W        W69204   9.068   9.756  11.345
96780W        W69205  43.030  35.578  12.253
96781W        W69206  16.807  24.701   1.015
96782W        W69207  36.577  25.093  12.122
96783W        W69208  28.655   1.998   4.718
96784W        W69209  13.125  27.994   4.230
96785W        W69210  13.856  10.616   3.628
96786W        W69211   3.872  38.097  13.445
96787W        W69212   3.505   2.266  14.487
96788W        W69213  34.142  32.140   0.327
96789W        W69214   2.651  24.020   3.722
96790W        W69215  33.637   4.799   0.736
96791W        W69216   7.930   8.334  14.343
96792W        W69217  24.697  23.472  11.534
96793W        W69218  24.643  31.138   4.160
96794W        W69219  11.675  40.558   1.089
96795W        W69220  26.835  44.378  12.070
96796W        W69221   4.719  28.083  11.133
96797W        W69222  44.479   3.646   0.366
96798W        W69223  20.995  14.273  13.496
96799W        W69224  11.204   2.491   0.940
96800W        W69225  32.064  10.955  12.096
96801W        W69226   3.897  41.132  14.864
96802W        W69227  11.397   6.727   0.282
96803W        W69228  24.651   9.035   4.297
96804W        W69229   7.327  20.757   1.537
96805W        W69230  36.811  37.520   3.066
96806W        W69231   1.798  36.335  10.984
96807W        W69232  24.223  27.609  14.348
96808W        W69233  32.161  10.687  12.540
96809W        W69234  26.180  27.221   4.892
96810W        W69235   4.946   1.347  14.464
96811W        W69236  11.936  30.592   4.227
96812W        W69237  32.477  26.673  10.714
96813W        W69238   9.872  35.591  11.248
96814W        W69239   7.726   7.927  13.020
96815W        W69240   2.159   2.191  14.279
96816W        W69241  28.452  14.706   1.015
96817W        W69242  16.641  44.302  12.585
96818W        W69243   4.773  10.773  14.213
96819W        W69244   4.258  26.214  12.640
96820W        W69245  23.097  10.120   3.002
96821W        W69246  37.961  13.512   0.251
96822W        W69247  31.173   7.054   3.307
96823W        W69248  41.008  30.610   0.467
96824W        W69249  19.622  38.040   3.284
96825W        W69250  10.753  26.694  10.510
96826W        W69251  21.085  27.685  12.578
96827W        W69252  20.048  35.214   1.937
96828W        W69253  34.671   0.853   2.655
96829W        W69254  26.410  10.640   2.107
96830W        W69255  36.108  44.840   0.834
96831W        W69256  20.704  22.610   3.259
96832W        W69257  35.986  10.960   3.759
96833W        W69258   9.001  18.470  13.450
96834W        W69259  20.545  42.368   1.272
96835W        W69260   9.058  22.662  13.293
96836W        W69261   4.924  27.455   3.589
96837W        W69262   1.779  40.811   0.854
96838W        W69263  43.415  13.640   5.133
96839W        W69264  39.755  22.195   4.027
96840W        W69265   6.166   9.189   1.729
96841W        W69266   9.700  11.166   3.908
96842W        W69267  28.995  42.541   1.289
96843W        W69268  15.142  16.243   4.109
96844W        W69269  33.676  11.696   1.684
96845W        W69270  33.102  18.700  13.081
96846W        W69271  42.298  40.845  14.443
96847W        W69272  16.753  31.921  14.514
96848W        W69273  44.544   0.219   9.793
96849W        W69274  33.894   7.732  12.147
96850W        W69275  11.212  18.833  13.911
96851W        W69276  22.564   0.164  14.526
96852W        W69277   8.851  35.177  14.338
96853W        W69278  15.651   0.409   5.437
96854W        W69279  42.873  15.543   2.892
96855W        W69280  23.640  16.674  11.414
96856W        W69281   3.085  23.562  10.111
96857W        W69282  25.712  28.697   2.833
96858W        W69283   6.369  33.816   3.779
96859W        W69284  15.500  13.301   0.808
96860W        W69285  37.478  18.292   5.181
96861W        W69286  37.818  40.018   1.733
96862W        W69287  39.154  31.736  14.055
96863W        W69288  26.959   1.237  14.318
96864W        W69289  38.487   0.637   3.421
96865W        W69290  29.052  24.143  10.948
96866W        W69291   0.751  24.242   2.017
96867W        W69292  10.074  33.878  10.628
96868W        W69293  34.595  43.284  11.122
96869W        W69294  39.052  26.154  12.368
96870W        W69295   0.199  43.626  13.575
96871W        W69296  29.709  23.752  14.952
96872W        W69297  36.517  30.345  10.857
96873W        W69298   7.206  27.929   4.548
96874W        W69299  13.944  42.387   0.038
96875W        W69300   5.300  42.299  10.807
96876W        W69301  27.905   6.374  11.938
96877W        W69302  31.692  41.471   3.263
96878W        W69303   3.473   7.509   1.416
96879W        W69304  37.834  39.041  11.097
96880W        W69305   9.472   8.556   9.848
96881W        W69306  37.037  43.021  11.083
96882W        W69307  43.854  30.174   1.652
96883W        W69308  24.148  15.105  12.535
96884W        W69309  34.139  37.483   0.408
96885W        W69310  26.424  44.410  13.348
96886W        W69311  13.602  29.533   3.896
96887W        W69312  11.354  41.208   2.433
96888W        W69313  16.702  27.758   1.594
96889W        W69314  10.978  32.655   4.236
96890W        W69315  10.059   2.159   0.118
96891W        W69316   9.443  10.150  14.342
96892W        W69317   4.630  38.072  12.996
96893W        W69318  12.473   9.411  12.225
96894W        W69319  41.778  27.519  13.799
96895W        W69320  15.245  12.885   0.970
96896W        W69321  12.784  34.131  13.807
96897W        W69322   8.306  11.593  14.566
96898W        W69323  43.537  42.280  14.739
96899W        W69324   6.363  10.705   0.773
96900W        W69325  37.626  28.425  14.430
96901W        W69326  34.379   7.965   4.623
96902W        W69327  32.047  24.087   0.441
96903W        W69328   6.650  30.529  11.773
96904W        W69329   0.335   7.902  14.401
96905W        W69330  40.933  15.183   2.432
96906W        W69331  27.990  42.596  13.627
96907W        W69332  31.940  23.282   1.254
96908W        W69333  14.070  26.088  14.859
96909W        W69334  40.269  24.944  13.207
96910W        W69335  39.585  16.535   4.106
96911W        W69336  15.108  18.813  11.745
96912W        W69337  39.759  33.561   1.892
96913W        W69338  32.903  39.962  12.499
96914W        W69339  15.345  36.861  10.431
96915W        W69340  29.068  40.188   1.567
96916W        W69341  13.363  33.584  14.453
96917W        W69342   7.424   7.353   0.958
96918W        W69343  39.011  40.262   0.500
96919W        W69344  42.765  17.746   3.596
96920W        W69345  31.086   1.911  10.148
96921W        W69346  44.772  33.561  10.690
96922W        W69347   7.964   8.263   0.838
96923W        W69348  31.618  41.599  12.161
96924W        W69349  13.075  39.510   0.835
96925W        W69350  22.141  29.204  14.249
96926W        W69351  43.765  27.818  14.334
96927W        W69352  44.949  33.086  10.676
96928W        W69353  11.396  30.939  14.754
96929W        W69354  28.943  36.364   4.642
96930W        W69355   9.874  10.758   2.705
96931W        W69356   1.524  18.879  10.844
96932W        W69357  42.881  41.714  13.251
96933W        W69358   8.144  20.562  14.453
96934W        W69359   9.304   6.520   2.322
96935W        W69360   2.522  30.159   3.249
96936W        W69361   1.481  18.497   0.881
96937W        W69362  37.534  10.900   4.120
96938W        W69363  27.099  31.380   0.293
96939W        W69364   1.630  31.140   0.297
96940W        W69365  27.052  14.180   4.646
96941W        W69366  31.854  33.612  11.386
96942W        W69367  41.120  21.009   3.174
96943W        W69368  12.298  26.984   2.834
96944W        W69369  33.084  34.511  12.867
96945W        W69370  17.108  24.146  13.421
96946W        W69371   7.831  42.719  14.663
96947W        W69372  31.824  32.564   1.517
96948W        W69373  10.707  31.894   1.927
96949W        W69374   3.143  37.995  13.957
96950W        W69375   8.288   5.076  12.442
96951W        W69376  23.265  26.250  11.002
96952W        W69377   1.309  39.231   4.012
96953W        W69378  39.253  37.918  12.554
96954W        W69379  34.320  33.402  10.664
96955W        W69380  28.119  26.759  11.472
96956W        W69381  24.623  44.014  14.922
96957W        W69382   0.621  29.254   0.515
96958W        W69383  44.507  39.004  11.927
96959W        W69384  21.252  10.366   0.941
96960W        W69385  36.594  14.576   0.694
96961W        W69386  33.362  15.570  11.569
96962W        W69387   6.141  40.881  13.529
96963W        W69388  12.757   4.153  14.009
96964W        W69389   8.232  37.752  12.960
96965W        W69390   2.729   2.783   1.758
96966W        W69391  36.314  32.799  11.863
96967W        W69392  10.161  26.015  10.573
96968W        W69393  20.010  31.351  11.612
96969W        W69394   7.514  40.007  10.938
96970W        W69395   9.830  35.160   5.568
96971W        W69396  33.552  12.430   0.023
96972W        W69397   8.091  24.148   4.792
96973W        W69398  13.384  21.873   5.573
96974W        W69399  12.095  27.997   4.165
96975W        W69400  10.358  30.053   4.339
96976W        W69401  27.418  20.719   1.876
96977W        W69402  32.114  32.064   2.654
96978W        W69403  28.389  12.017   4.120
96979W        W69404   0.920  12.315   4.597
96980W        W69405  22.684  27.558   4.453
96981W        W69406  30.556   4.600  12.048
96982W        W69407  26.720  31.611  12.072
96983W        W69408   8.911  10.415   0.384
96984W        W69409  25.031  19.243   2.244
96985W        W69410  41.071  26.136   0.047
96986W        W69411  10.807  25.879   2.136
96987W        W69412  40.850  19.451   2.689
96988W        W69413  18.272  40.936  12.938
96989W        W69414   4.905  32.531   0.935
96990W        W69415  13.712   9.807  13.991
96991W        W69416  17.549  19.351   3.230
96992W        W69417   9.093  19.070   3.230
96993W        W69418  19.590  33.981  14.585
96994W        W69419  16.174  19.098   4.644
96995W        W69420  13.631  37.031  12.440
96996W        W69421  40.810   9.298   1.400
96997W        W69422  25.167  20.293  11.104
96998W        W69423   9.349  43.782  12.211
96999W        W69424  18.611  28.730   3.178
97000W        W69425  23.254  43.334  12.171
97001W        W69426  30.978  41.019   0.823
97002W        W69427  17.628  26.935  10.325
97003W        W69428  32.585  25.644   3.669
97004W        W69429  43.773  21.681  14.590
97005W        W69430  28.502  20.071   2.867
97006W        W69431  43.004  18.172   0.427
97007W        W69432  36.921  10.995  12.011
97008W        W69433  44.398  37.447  12.859
97009W        W69434  16.733  33.888   2.353
97010W        W69435   6.678   6.245  12.653
97011W        W69436   5.164  34.035   3.092
97012W        W69437   3.053  17.601  12.364
97013W        W69438  38.314  44.418   4.033
97014W        W69439  38.580  27.978  12.085
97015W        W69440  38.790   1.455   1.933
97016W        W69441  24.764  25.285   0.930
97017W        W69442  30.627  29.074   4.522
97018W        W69443  21.907  30.542   3.148
97019W        W69444  42.642  34.560  10.136
97020W        W69445  44.385   1.997   1.495
97021W        W69446  42.006  23.201  14.341
97022W        W69447  19.646  11.097  14.865
97023W        W69448  23.944   7.186  12.419
97024W        W69449  31.963  33.639  13.844
97025W        W69450  14.222  38.989   1.789
97026W        W69451   0.734  19.085   0.965
97027W        W69452   2.880  39.989   4.469
97028W        W69453  10.415  39.549   1.715
97029W        W69454  38.520  33.017  11.899
97030W        W69455  37.852  23.651   1.763
97031W        W69456  19.024  42.614  10.665
97032W        W69457   2.017  26.447   1.123
97033W        W69458  18.672  11.180   3.892
97034W        W69459  42.483  13.265  14.001
97035W        W69460  10.242  34.498  13.853
97036W        W69461  35.559  14.187  11.958
97037W        W69462  24.517  42.526   0.932
97038W        W69463   9.496  42.101   2.785
97039W        W69464  16.317  13.595  13.728
97040W        W69465   0.828   7.751  14.540
97041W        W69466  24.890   3.474   1.362
97042W        W69467  21.662  31.586  13.024
97043W        W69468  38.782  13.795  12.861
97044W        W69469  27.352  12.767  11.005
97045W        W69470  15.611  34.462  12.911
97046W        W69471  14.217   4.257   0.511
97047W        W69472   2.792  34.543   3.286
97048W        W69473  23.615   2.173  12.074
97049W        W69474  26.573  30.518   4.615
97050W        W69475  21.029  42.036  12.122
97051W        W69476  10.483  24.105   2.158
97052W        W69477  31.924   7.379   0.539
97053W        W69478  30.678  17.168  11.118
97054W        W69479  19.137  39.756  13.354
97055W        W69480  44.251  20.547   0.754
97056W        W69481  42.080  30.958   2.906
97057W        W69482  40.624  34.062   0.446
97058W        W69483   1.222  22.396   4.064
97059W        W69484  18.710   5.689   4.787
97060W        W69485  32.633  11.375   0.939
97061W        W69486   7.325  36.880  13.941
97062W        W69487   0.412  25.110  14.376
97063W        W69488  13.887  40.062   2.915
97064W        W69489  36.454  33.831  12.889
97065W        W69490   7.666  29.548   2.622
97066W        W69491   7.580  38.447  11.155
97067W        W69492  16.391  29.078   0.831
97068W        W69493  12.002  12.450   4.686
97069W        W69494  29.876   9.863  11.894
97070W        W69495  31.574  28.829  12.410
97071W        W69496  39.536   6.461  12.875
97072W        W69497  34.358  26.744  12.000
97073W        W69498  33.583  31.592   4.751
97074W        W69499  23.936  44.983  12.894
97075W        W69500  27.497   3.342   1.232
97076W        W69501  13.084  21.703  14.093
97077W        W69502  29.610   9.910  13.074
97078W        W69503  30.386  41.403  11.671
97079W        W69504  35.031  42.383  13.071
97080W        W69505  25.393  23.749  13.549
97081W        W69506  37.717   0.844  13.361
97082W        W69507  41.105  12.615  12.463
97083W        W69508  20.189  13.255   1.716
97084W        W69509   5.646  15.341   3.815
97085W        W69510  22.278  44.429  14.011
97086W        W69511   5.767   7.201  13.319
97087W        W69512   2.303  26.443   3.719
97088W        W69513  21.245  18.731  14.537
97089W        W69514  40.528  41.299  11.235
97090W        W69515   3.672   5.487   1.721
97091W        W69516  35.156  32.877  13.044
97092W        W69517   2.571  24.612  11.553
97093W        W69518  36.932   0.444  11.950
97094W        W69519   6.401  21.158   3.612
97095W        W69520  10.195  31.890  12.039
97096W        W69521  17.678  15.333  12.840
97097W        W69522  21.199   1.685   4.705
97098W        W69523   6.323  12.794   0.381
97099W        W69524  31.567  28.451  12.762
97100W        W69525  44.515  16.306   0.785
97101W        W69526   9.163  24.589  13.860
97102W        W69527  20.229  34.471   0.958
97103W        W69528  36.427  24.266  13.637
97104W        W69529  24.499  23.914  12.440
97105W        W69530   5.281  16.902   1.700
97106W        W69531  32.641  27.468   2.877
97107W        W69532   7.882  25.749   3.720
97108W        W69533  43.385  26.746   2.329
97109W        W69534  15.674  40.441  12.350
97110W        W69535  19.503  16.144   0.367
97111W        W69536  26.475  11.378   3.864
97112W        W69537  21.482  15.803  10.730
97113W        W69538  24.537  25.183  10.891
97114W        W69539  42.976   8.116   4.650
97115W        W69540  27.879  34.835  11.597
97116W        W69541   1.253  34.829   1.257
97117W        W69542  44.041  43.472   2.787
97118W        W69543  37.016   8.928  13.926
97119W        W69544  12.151   2.774  12.546
97120W        W69545  30.749  12.247   2.002
97121W        W69546  41.881  10.678  12.971
97122W        W69547  13.442  42.511  14.985
97123W        W69548   1.197  25.006   0.442
97124W        W69549  21.132  44.056  10.997
97125W        W69550  27.195  39.342  12.443
97126W        W69551  37.716   3.826  11.600
97127W        W69552  37.573   8.125   1.246
97128W        W69553   9.379   5.528   3.649
97129W        W69554   9.064  17.778  13.786
97130W        W69555  43.501  42.816  10.574
97131W        W69556  13.828  36.883   4.698
97132W        W69557   2.284   3.463   4.741
97133W        W69558   5.860  31.449   2.303
97134W        W69559  44.230  21.259   3.198
97135W        W69560  34.804   7.724  13.510
97136W        W69561   6.236  26.956   0.900
97137W        W69562  40.648  44.666  11.518
97138W        W69563  42.513   2.276   4.755
97139W        W69564   1.480  15.802   3.267
97140W        W69565   5.757  44.297  13.437
97141W        W69566  35.573  20.707   4.600
97142W        W69567  30.358  41.342  12.427
97143W        W69568  35.860  28.851   3.596
97144W        W69569  15.560  32.169  11.914
97145W        W69570  44.801   2.218   1.774
97146W        W69571  33.467  20.225  11.503
97147W        W69572   5.970  33.535   1.727
97148W        W69573  12.702  42.458  10.741
97149W        W69574   5.870   1.977   0.777
97150W        W69575  43.288  40.254  14.827
97151W        W69576  37.134   9.268  11.618
97152W        W69577  12.252   9.716   0.690
97153W        W69578  17.881   3.729  13.079
97154W        W69579   5.925  31.140   0.752
97155W        W69580  39.997  24.105  13.100
97156W        W69581   4.438  33.661   4.144
97157W        W69582  18.741  22.455   3.687
97158W        W69583  27.952  40.158  12.529
97159W        W69584  20.740  36.838   0.648
97160W        W69585  33.405  20.134   1.958
97161W        W69586   7.290  23.786   4.936
97162W        W69587   7.834  44.339  12.179
97163W        W69588  33.776  15.790  12.482
97164W        W69589  31.007  31.228  10.418
97165W        W69590  24.601  40.479  10.721
97166W        W69591  42.210  21.741   1.717
97167W        W69592  12.755  42.609  13.949
97168W        W69593  44.259   9.479  12.112
97169W        W69594   4.961  16.701  11.181
97170W        W69595  43.872  36.454  12.874
97171W        W69596  35.908  26.507   4.700
97172W        W69597  35.162  14.774  14.447
97173W        W69598  13.602  37.901   3.627
97174W        W69599  19.261   9.281  13.802
97175W        W69600  31.352  29.933  14.818
97176W        W69601  26.540  27.659  13.968
97177W        W69602  18.001  29.070  13.432
97178W        W69603   2.669  27.001  13.437
97179W        W69604  10.929  28.669  12.307
97180W        W69605  28.898   8.151   3.610
97181W        W69606  29.400  43.189  14.536
97182W        W69607  22.129   1.737   4.619
97183W        W69608  30.927  42.914   1.249
97184W        W69609  44.856  35.132  14.918
97185W        W69610   2.505  34.114   3.411
97186W        W69611  24.852  44.778   0.362
97187W        W69612   8.135  26.510  14.707
97188W        W69613  41.590   9.035   4.394
97189W        W69614  19.515  41.657  13.313
97190W        W69615  32.091  33.617  10.785
97191W        W69616  24.458  39.431  11.010
97192W        W69617  11.736  23.050   2.270
97193W        W69618  34.364  42.763  14.053
97194W        W69619  13.588  21.546   4.096
97195W        W69620  40.924  37.779  13.448
97196W        W69621  11.454  24.565   0.862
97197W        W69622   3.973  13.215  12.064
97198W        W69623  40.740   8.338   0.863
97199W        W69624  14.838  15.313  10.754
97200W        W69625  31.178  34.870  13.963
97201W        W69626  11.794  43.879   4.661
97202W        W69627   6.690  41.332   0.216
97203W        W69628  36.006  36.620  13.312
97204W        W69629  27.306   7.719   2.698
97205W        W69630  41.212  10.900   3.303
97206W        W69631  17.497  42.549   3.352
97207W        W69632  12.055   7.276   2.571
97208W        W69633  20.845  28.461  11.489
97209W        W69634  19.805   1.029   2.655
97210W        W69635  12.101  24.605  11.642
97211W        W69636  15.497   0.930   2.939
97212W        W69637  17.347  31.573   4.473
97213W        W69638  12.383  16.260   4.158
97214W        W69639  23.530  27.032  10.681
97215W        W69640  25.440  35.689   4.511
97216W        W69641  30.898  12.645  13.844
97217W        W69642  21.415  34.331   1.330
97218W        W69643  11.086  36.794   4.182
97219W        W69644  22.541  43.496  13.729
97220W        W69645   4.940   3.232   1.373
97221W        W69646   1.996  14.534  14.605
97222W        W69647   5.021   2.795  14.064
97223W        W69648  17.459   4.924   4.896
97224W        W69649  39.798  29.520   4.791
97225W        W69650  40.324  23.925   3.053
97226W        W69651  32.303  18.284   2.940
97227W        W69652   4.314  18.720   2.981
97228W        W69653  22.185  17.295   4.215
97229W        W69654  18.696  20.674   3.175
97230W        W69655   3.309  32.183   3.293
97231W        W69656  18.692   4.975   1.205
97232W        W69657  31.462  33.399  11.621
97233W        W69658  33.860  24.136  11.963
97234W        W69659  28.702  19.510  14.832
97235W        W69660  42.384  10.674  10.832
97236W        W69661  13.782  42.447  10.543
97237W        W69662  29.975  43.401  12.989
97238W        W69663  12.214   1.027   0.771
97239W        W69664  36.240  39.485  10.618
97240W        W69665  14.612  31.080  14.845
97241W        W69666   9.432  14.681  13.279
97242W        W69667  21.135  22.692   1.676
97243W        W69668  17.209  17.308   0.848
97244W        W69669  17.968   3.701   2.441
97245W        W69670   0.019  25.946   1.324
97246W        W69671  25.389   3.936   4.168
97247W        W69672  27.110  23.230   4.846
97248W        W69673  24.549  44.815  11.657
97249W        W69674  24.423  14.982  14.840
97250W        W69675  35.846  38.662  11.028
97251W        W69676  16.697  16.151  13.358
97252W        W69677   7.858  12.739  14.009
97253W        W69678  36.833  21.637   0.030
97254W        W69679  16.167  15.868  12.570
97255W        W69680   2.299  25.552  11.836
97256W        W69681  21.017   7.090   3.307
97257W        W69682  37.147  36.060   4.739
97258W        W69683  43.812  35.946   1.808
97259W        W69684  32.517  38.884   0.802
97260W        W69685  36.452  10.124   4.567
97261W        W69686  25.488  31.374   3.275
97262W        W69687  39.138  31.165  11.298
97263W        W69688   6.718   9.173  12.935
97264W        W69689  35.598   3.282   3.320
97265W        W69690   2.446  13.659   0.422
97266W        W69691  32.857  31.542   0.396
97267W        W69692  20.027  29.127   2.332
97268W        W69693  31.596   9.953   1.195
97269W        W69694  26.040  27.091   0.204
97270W        W69695   0.753  18.574   0.389
97271W        W69696   0.450  21.469  12.479
97272W        W69697  33.398  20.436   1.339
97273W        W69698  21.344   3.323  10.709
97274W        W69699   9.351  20.555   3.260
97275W        W69700  12.290  25.184  12.337
97276W        W69701   8.745  25.170   1.669
97277W        W69702  15.593  31.400  14.295
97278W        W69703   0.114  23.995  14.907
97279W        W69704  38.558   0.178   2.709
97280W        W69705   3.334  37.998   1.345
97281W        W69706  22.475   4.792  11.491
97282W        W69707   5.791  44.740   3.280
97283W        W69708  21.942  39.522   2.240
97284W        W69709  16.125  31.390  13.519
97285W        W69710  32.098  28.960  11.068
97286W        W69711  10.108  28.375   0.252
97287W        W69712  11.610  35.467   3.745
97288W        W69713  26.676  28.007   0.968
97289W        W69714  36.828  33.244   2.852
97290W        W69715  25.229  10.442  14.806
97291W        W69716  28.039  42.724   4.649
97292W        W69717  37.401  38.031   1.378
97293W        W69718  29.477  25.649   3.309
97294W        W69719  34.096  40.512  14.526
97295W        W69720  24.195  10.361   3.860
97296W        W69721  18.289  18.658  12.969
97297W        W69722   7.327  31.631  11.041
97298W        W69723  21.711  39.059  12.572
97299W        W69724  29.967   4.301  13.398
97300W        W69725   6.869  26.482  12.799
97301W        W69726  41.819  38.554   3.190
97302W        W69727  34.710  17.742   0.445
97303W        W69728  15.887  30.617   2.918
97304W        W69729  38.582  33.613   2.339
97305W        W69730  25.223   0.405   3.180
97306W        W69731  42.945  14.777  10.670
97307W        W69732   1.129  23.192   2.350
97308W        W69733  41.044  22.958  13.403
97309W        W69734  17.251  35.914  10.727
97310W        W69735  11.670  14.679  10.747
97311W        W69736  18.260  36.596  13.115
97312W        W69737  28.161  12.174   2.378
97313W        W69738  10.327  44.514   3.708
97314W        W69739  39.191   3.206   0.619
97315W        W69740   5.035   6.353  11.649
97316W        W69741   7.337  36.659  13.469
97317W        W69742  42.372  11.696  13.550
97318W        W69743  43.218  16.069   1.269
97319W        W69744   0.010  40.491  12.793
97320W        W69745  39.480  15.078  14.383
97321W        W69746  31.589  43.700   3.285
97322W        W69747  11.469  12.344  13.068
97323W        W69748  15.724  43.602  12.472
97324W        W69749  44.005  17.171  11.319
97325W        W69750   4.735  16.317  11.931
97326W        W69751  14.508   5.452  13.992
97327W        W69752  33.551  34.397   2.321
97328W        W69753  43.580   9.700   0.934
97329W        W69754  26.793   1.846   0.549
97330W        W69755  40.316   5.316   0.375
97331W        W69756  19.106  24.208  12.708
97332W        W69757   2.218  41.458   9.925
97333W        W69758   7.124  30.210   0.903
97334W        W69759  36.461  31.181   4.562
97335W        W69760  40.079  18.070  13.541
97336W        W69761  18.576   5.768  11.904
97337W        W69762  15.277  14.338  14.547
97338W        W69763  29.580  15.220  11.568
97339W        W69764  35.525   9.826   4.322
97340W        W69765  24.565  12.583   3.348
97341W        W69766  21.973   1.851  11.019
97342W        W69767  25.937  21.067   3.151
97343W        W69768  39.937  28.042   2.095
97344W        W69769  35.207  43.732   0.772
97345W        W69770  26.458  18.873   1.493
97346W        W69771  31.834  38.935   1.411
97347W        W69772  38.320   5.662  14.871
97348W        W69773  13.250  38.343  13.462
97349W        W69774  43.537  21.117  11.366
97350W        W69775  12.195  37.341   1.711
97351W        W69776  40.053   5.914  14.463
97352W        W69777  30.422  39.506   2.188
97353W        W69778   8.737   4.656   1.517
97354W        W69779  29.514  33.830   3.883
97355W        W69780  17.393   0.967  14.402
97356W        W69781  17.325   7.686   2.643
97357W        W69782  12.404  41.146  12.337
97358W        W69783  32.892   3.144   0.259
97359W        W69784  22.262  37.217  12.314
97360W        W69785  34.354   1.829   1.029
97361W        W69786   6.350  42.056   4.015
97362W        W69787  41.881   7.406   1.245
97363W        W69788  33.578  44.671  11.138
97364W        W69789  17.668  10.448  10.040
97365W        W69790  22.707  29.351   4.174
97366W        W69791  10.457  25.341   5.100
97367W        W69792   4.833  38.369  13.347
97368W        W69793  18.657   6.532  12.934
97369W        W69794  32.507   7.255   3.420
97370W        W69795  15.841  38.942  11.897
97371W        W69796  31.491  25.940   1.246
97372W        W69797  17.605  32.143   1.882
97373W        W69798   7.058  41.581  12.545
97374W        W69799  28.613  15.646   2.757
97375W        W69800  24.608  18.587  14.949
97376W        W69801  44.175   5.745  10.643
97377W        W69802  31.997  36.833  10.734
97378W        W69803  23.127  29.212  13.740
97379W        W69804  26.426  25.523   2.808
97380W        W69805  31.116   5.060  13.098
97381W        W69806  24.784  38.486  12.615
97382W        W69807  34.584  23.647  13.551
97383W        W69808   8.162   0.182  12.010
97384W        W69809   3.451  42.705  14.910
97385W        W69810  32.384  33.822   1.020
97386W        W69811   3.038   2.463  11.067
97387W        W69812  42.395  20.772  13.653
97388W        W69813  17.627  35.694  12.473
97389W        W69814   1.495  35.836   1.282
97390W        W69815  11.311  13.996   1.253
97391W        W69816  41.921  41.333   1.475
97392W        W69817   3.809   0.219   2.007
97393W        W69818  33.399  40.027  13.718
97394W        W69819  10.180  25.668   1.275
97395W        W69820  43.688  20.532   4.227
97396W        W69821   7.009  11.281   1.253
97397W        W69822  44.781  18.030   2.681
97398W        W69823  38.353  22.144   0.024
97399W        W69824  38.379  37.062   4.317
97400W        W69825  12.786  39.060   0.428
97401W        W69826  14.227  31.623   0.032
97402W        W69827  13.590  36.808  13.399
97403W        W69828   6.899  28.596   0.839
97404W        W69829   3.863   9.312   4.634
97405W        W69830  25.900  10.426  11.478
97406W        W69831  26.420   7.228  14.950
97407W        W69832  10.627  32.972  11.863
97408W        W69833  38.190  29.945  14.370
97409W        W69834  15.891  42.331  14.470
97410W        W69835  24.726  23.739   2.000
97411W        W69836  22.494  12.865   4.362
97412W        W69837  18.340  23.211   3.443
97413W        W69838  10.051  41.252  13.093
97414W        W69839   4.783  13.199   3.287
97415W        W69840   8.468  20.326  12.463
97416W        W69841  20.560   9.313  13.496
97417W        W69842   8.329  34.149  10.623
97418W        W69843  17.049   9.730  12.543
97419W        W69844  33.001   9.707   1.150
97420W        W69845  12.380  16.811  11.628
97421W        W69846  39.993  35.904   2.194
97422W        W69847  23.358  26.725  14.740
97423W        W69848  13.335   9.436   2.883
97424W        W69849   7.232  25.263   3.773
97425W        W69850  30.948  25.138  10.934
97426W        W69851  38.307  24.098  10.644
97427W        W69852  36.075  30.957  11.537
97428W        W69853  32.402   3.685   0.976
97429W        W69854  40.944  16.134  12.023
97430W        W69855  20.477  40.347  11.305
97431W        W69856  30.652   3.388   0.424
97432W        W69857  11.875  32.067  10.649
97433W        W69858  14.586   8.849   3.776
97434W        W69859  10.991  24.036  14.938
97435W        W69860  13.749   9.836  14.513
97436W        W69861   0.181  11.381  13.467
97437W        W69862  22.245   4.461  13.339
97438W        W69863  18.994  17.345   0.866
97439W        W69864   8.854   0.880  12.810
97440W        W69865  31.255   4.717   4.476
97441W        W69866  24.770  36.309  11.621
97442W        W69867  44.296  40.943   1.273
97443W        W69868   7.081  39.856   0.770
97444W        W69869  18.193  37.558   3.129
97445W        W69870   9.656  29.004  13.531
97446W        W69871  25.447   7.264   1.752
97447W        W69872  13.321   6.409   0.502
97448W        W69873  38.870   7.666  14.513
97449W        W69874  23.580  43.750   2.855
97450W        W69875   4.151  40.059  14.330
97451W        W69876   9.903  36.994   0.292
97452W        W69877  23.195  35.100  14.589
97453W        W69878  43.690  18.209   4.437
97454W        W69879  40.773   4.262  11.165
97455W        W69880  31.029   9.023   3.514
97456W        W69881   2.765  26.906  14.266
97457W        W69882  31.981  28.045   2.833
97458W        W69883  19.728  20.206   1.801
97459W        W69884  43.887  20.229  12.264
97460W        W69885   6.206  18.210  11.704
97461W        W69886  18.875  12.049  13.486
97462W        W69887  18.866  31.884   2.301
97463W        W69888  12.627  40.808  14.059
97464W        W69889  22.613  13.608   1.956
97465W        W69890  21.500  35.750   1.253
97466W        W69891  19.627   4.935  12.126
97467W        W69892  20.200   2.361   0.247
97468W        W69893  10.749  34.114  13.284
97469W        W69894  11.586   3.791   3.653
97470W        W69895   1.681  17.761  12.501
97471W        W69896  34.973  28.015  12.053
97472W        W69897  22.684  40.725  12.883
97473W        W69898  44.482  15.768  10.527
97474W        W69899  33.863  40.598   3.708
97475W        W69900  25.388   1.506  13.321
97476W        W69901  24.950  44.199   1.849
97477W        W69902  24.314   4.227  10.449
97478W        W69903   1.049  16.128  10.589
97479W        W69904  23.442  36.158  12.785
97480W        W69905  38.999  35.145   3.092
97481W        W69906   3.301  26.656  13.435
97482W        W69907  44.496  26.920   0.354
97483W        W69908  36.857  11.331   2.012
97484W        W69909  19.828  30.381   5.927
97485W        W69910  36.072  32.655  13.356
97486W        W69911  24.176  22.573  14.553
97487W        W69912  44.358  38.416  12.921
97488W        W69913  27.579  13.247   5.050
97489W        W69914  26.476  16.212  10.934
97490W        W69915   9.794   1.318  13.566
97491W        W69916  34.384  43.987  14.253
97492W        W69917  40.438   4.636   0.411
97493W        W69918  29.541  35.841  10.390
97494W        W69919   9.909  30.908  12.159
97495W        W69920  34.459  42.550  12.622
97496W        W69921  15.682  21.903   3.286
97497W        W69922  12.147  18.525  11.118
97498W        W69923  41.516  10.481  11.480
97499W        W69924  16.184   3.940   3.665
97500W        W69925   8.319  44.525   3.811
97501W        W69926  26.147  28.096  12.444
97502W        W69927   6.135   7.342  14.346
97503W        W69928   8.167  35.781   3.030
97504W        W69929   9.232  17.594  12.478
97505W        W69930  17.990  44.927   1.115
97506W        W69931  29.967  24.197   4.348
97507W        W69932  38.203  42.244  14.967
97508W        W69933  10.265  44.337   1.050
97509W        W69934  18.115  42.010   1.202
97510W        W69935  23.212  40.376  14.398
97511W        W69936  27.508  19.283  12.388
97512W        W69937   5.804  14.646  11.893
97513W        W69938  21.141  30.710   4.487
97514W        W69939  19.816   3.715  13.337
97515W        W69940  13.557  31.582  13.227
97516W        W69941  19.279  12.288  11.577
97517W        W69942   0.291  32.374   0.919
97518W        W69943  17.631   4.554   3.758
97519W        W69944  11.904  12.095  12.896
97520W        W69945   7.908  42.223  14.571
97521W        W69946  27.558  16.300   2.714
97522W        W69947  42.705   6.431  13.556
97523W        W69948  33.647   0.258  10.329
97524W        W69949   4.807  35.336   0.786
97525W        W69950  10.966  12.708  14.202
97526W        W69951  32.235  42.969  10.607
97527W        W69952   9.751  33.546  14.481
97528W        W69953  18.329   8.464   2.455
97529W        W69954  44.747  14.995   1.457
97530W        W69955  22.225   4.852   2.686
97531W        W69956  11.216  12.735   1.809
97532W        W69957   1.493  17.609   3.246
97533W        W69958  28.442  20.740   1.853
97534W        W69959  35.909  34.395  11.587
97535W        W69960  18.837  33.090   0.505
97536W        W69961   7.668  24.836  12.536
97537W        W69962  19.216  18.991   1.080
97538W        W69963  35.039  32.163   4.089
97539W        W69964   6.243  41.806   1.781
97540W        W69965  17.777  33.998  12.276
97541W        W69966  21.783   1.801  14.591
97542W        W69967  29.413   0.752   2.394
97543W        W69968   0.777  33.454  10.480
97544W        W69969   0.378  23.722   3.685
97545W        W69970  20.847  22.488   2.757
97546W        W69971  13.791   7.677  11.158
97547W        W69972  33.272  44.485   4.185
97548W        W69973  26.596  35.321   0.927
97549W        W69974  17.691   8.047  13.879
97550W        W69975  13.168  35.332   0.202
97551W        W69976  39.045  10.065  13.418
97552W        W69977   6.932  19.046   1.868
97553W        W69978   0.840  41.840   0.778
97554W        W69979  27.465  41.684   3.346
97555W        W69980  16.982   9.600   1.778
97556W        W69981  33.966  34.276  11.656
97557W        W69982  25.018  29.414   4.207
97558W        W69983  14.500  42.923   2.241
97559W        W69984  34.428   0.475   0.926
97560W        W69985  11.377  37.097  11.029
97561W        W69986  17.625  39.081  11.680
97562W        W69987   4.855   8.750   1.792
97563W        W69988  11.272  39.664   1.172
97564W        W69989  37.706  41.821   5.021
97565W        W69990  23.601  37.867   1.186
97566W        W69991  21.014  36.128  13.089
97567W        W69992  16.841   9.107  10.424
97568W        W69993   6.442  27.664  13.934
97569W        W69994  13.840  31.498  12.286
97570W        W69995  18.339  32.978   0.332
97571W        W69996   6.745  20.058   0.462
97572W        W69997  24.032  25.155   2.225
97573W        W69998  40.389  37.616  10.437
97574W        W69999  40.461  38.342   2.098
97575W        W70000   3.717  43.266   4.062
97576W        W70001  27.933  34.905  10.622
97577W        W70002  28.659  14.457  13.425
97578W        W70003  14.251  31.472  12.621
97579W        W70004  43.320  39.423   3.345
97580W        W70005   9.971  15.224   0.394
97581W        W70006  42.013  42.824  10.094
97582W        W70007  30.953   1.028  11.896
97583W        W70008  12.394  15.285  10.750
97584W        W70009   7.217  29.874   0.466
97585W        W70010  44.859   3.512  10.609
97586W        W70011  17.767  33.834  14.435
97587W        W70012   3.465  15.371   0.752
97588W        W70013   6.398  26.709   4.063
97589W        W70014   0.882   8.180  14.273
97590W        W70015  31.026  21.620  12.827
97591W        W70016  21.721  11.111  12.854
97592W        W70017  18.402  19.549  13.224
97593W        W70018  13.308  41.046   0.648
97594W        W70019  26.003  19.634   3.139
97595W        W70020  38.356  27.629  14.379
97596W        W70021  44.372  16.749  10.123
97597W        W70022  44.855  34.368   3.314
97598W        W70023  26.648  28.839  10.204
97599W        W70024   8.946   0.867  10.600
97600W        W70025  33.402  10.158  12.591
97601W        W70026  44.038   0.505  11.483
97602W        W70027  32.605  32.134   4.047
97603W        W70028  18.507  25.210   4.143
97604W        W70029  43.323  33.583  10.763
97605W        W70030  26.174  17.595  14.742
97606W        W70031  36.393  10.653   4.600
97607W        W70032   4.128  25.485   0.777
97608W        W70033  21.511  14.721   0.406
97609W        W70034  37.967  14.201  12.789
97610W        W70035  35.193  17.347   0.250
97611W        W70036  35.935   7.684   1.018
97612W        W70037  39.014  24.461  12.942
97613W        W70038   3.500   1.212   3.714
97614W        W70039  34.279  17.240   1.499
97615W        W70040  24.162   6.708  12.537
97616W        W70041  36.951  15.645   0.417
97617W        W70042   9.238  42.973   2.432
97618W        W70043  39.470  33.217  11.987
97619W        W70044  10.250   2.490  13.022
97620W        W70045  13.056  25.163  13.836
97621W        W70046  20.063   7.836  11.459
97622W        W70047   7.877  42.067  13.201
97623W        W70048  11.852   8.963   5.108
97624W        W70049  20.154  36.535  12.907
97625W        W70050  28.901  34.607   2.620
97626W        W70051  28.035  35.868  13.842
97627W        W70052  30.375  33.386   2.808
97628W        W70053   4.646  44.883   2.642
97629W        W70054   6.363   4.404   4.048
97630W        W70055  11.325  18.354   4.643
97631W        W70056  25.214  33.484  13.933
97632W        W70057  36.748   2.210  12.635
97633W        W70058  20.733  37.585   4.710
97634W        W70059  40.306   8.497  10.802
97635W        W70060  31.086  37.466   2.370
97636W        W70061  29.037  27.077  14.477
97637W        W70062  19.661   3.189   2.408
97638W        W70063  17.140   6.146  12.372
97639W        W70064  22.048  15.934   4.635
97640W        W70065  17.269  26.479   2.555
97641W        W70066   6.509  18.630  14.698
97642W        W70067  21.470   3.492   2.810
97643W        W70068  26.582  38.328   2.807
97644W        W70069   7.894  15.853   4.369
97645W        W70070   1.650  31.331   1.793
97646W        W70071  10.275  17.194   3.776
97647W        W70072  10.077  19.569  10.844
97648W        W70073  26.073   4.447  13.797
97649W        W70074   9.332  16.524  12.540
97650W        W70075  29.725  33.224   4.535
97651W        W70076  25.049   6.251   2.651
97652W        W70077  27.755  33.370   1.377
97653W        W70078  19.140  40.617   4.151
97654W        W70079   8.304  25.593   1.128
97655W        W70080   1.742  22.729   3.318
97656W        W70081  41.764  38.826  14.696
97657W        W70082  11.171  17.112  14.697
97658W        W70083  43.866  15.500  12.485
97659W        W70084  42.046   1.227   1.413
97660W        W70085  32.517  37.865   0.811
97661W        W70086  30.993  32.112  10.293
97662W        W70087  37.227  30.899   3.241
97663W        W70088   4.656  20.204   2.644
97664W        W70089  22.101   3.829   2.373
97665W        W70090  24.080   7.381  11.070
97666W        W70091  23.498  11.598   2.163
97667W        W70092  11.077  17.763  10.790
97668W        W70093  23.000  40.041   3.779
97669W        W70094  10.790  35.263   2.661
97670W        W70095  40.386  27.883  11.114
97671W        W70096  21.096  41.786   1.777
97672W        W70097   3.471  40.504   4.818
97673W        W70098   3.322  20.270   0.924
97674W        W70099   2.727  14.144  13.841
97675W        W70100  33.227   6.553   1.925
97676W        W70101   4.392   2.398   1.268
97677W        W70102  19.839  16.626   3.314
97678W        W70103  40.219   6.207   3.349
97679W        W70104  12.985  13.116   1.869
97680W        W70105  32.900   1.265  14.100
97681W        W70106  16.852   3.448  11.231
97682W        W70107  29.351  13.091   4.622
97683W        W70108  29.349  29.086   1.543
97684W        W70109  14.477  21.686   5.110
97685W        W70110  11.349  30.415   3.578
97686W        W70111  14.281  25.613  10.352
97687W        W70112  13.667   3.269   0.465
97688W        W70113  10.322   8.826   4.206
97689W        W70114  31.861  34.690   0.308
97690W        W70115  12.566   2.140  14.053
97691W        W70116  32.426  26.479   2.254
97692W        W70117  19.842  19.789  14.587
97693W        W70118  37.853  27.702   0.651
97694W        W70119  10.671  23.557   1.240
97695W        W70120  23.381  23.840  13.089
97696W        W70121   4.702  31.589   0.905
97697W        W70122  30.613  34.728   3.237
97698W        W70123  24.706  28.553   0.455
97699W        W70124  22.761  24.529   4.839
97700W        W70125  11.346  21.239  12.905
97701W        W70126  40.444   4.894   0.868
97702W        W70127  41.549  11.721   2.364
97703W        W70128  20.489  21.197  13.117
97704W        W70129  35.747  17.092  13.131
97705W        W70130  36.116  17.887   0.347
97706W        W70131  19.150   9.890   4.165
97707W        W70132  25.024  18.154   4.006
97708W        W70133  21.572   8.146   3.736
97709W        W70134  33.071  30.969  12.561
97710W        W70135  17.410  38.301  11.452
97711W        W70136  37.695  35.813  12.452
97712W        W70137   2.392  10.271  12.696
97713W        W70138  22.079  44.482   1.184
97714W        W70139  10.077  41.928  11.132
97715W        W70140  34.051   1.690  13.397
97716W        W70141  20.081   0.377  11.582
97717W        W70142  17.270   2.024   1.419
97718W        W70143  10.021  31.024   1.989
97719W        W70144  37.101  14.002   2.314
97720W        W70145  32.128  30.488   4.642
97721W        W70146  40.862   1.844   4.052
97722W        W70147  23.231  44.354   1.677
97723W        W70148  11.126  25.224   2.741
97724W        W70149   6.681  27.084   2.697
97725W        W70150  39.342  42.194  11.013
97726W        W70151  22.562   3.855   3.685
97727W        W70152   9.767  16.306   4.761
97728W        W70153  21.674  17.888  11.430
97729W        W70154   0.198  14.216   2.301
97730W        W70155  17.200  30.188  13.380
97731W        W70156   1.250  22.995  13.164
97732W        W70157  12.455  23.071  13.376
97733W        W70158  36.484   7.302  14.812
97734W        W70159  36.563  34.696  11.484
97735W        W70160  21.545   0.525  10.555
97736W        W70161  22.479  17.238  12.357
97737W        W70162  33.469  22.828  12.719
97738W        W70163  11.881   7.238   5.009
97739W        W70164  14.551   5.810  12.254
97740W        W70165  36.468  12.853   0.502
97741W        W70166  10.403  22.019  14.964
97742W        W70167  41.488  29.820   4.724
97743W        W70168  23.728  25.021  12.429
97744W        W70169   0.718  10.208  11.918
97745W        W70170  17.772   4.939  11.321
97746W        W70171  42.494  38.292  11.146
97747W        W70172  42.226  32.748   3.257
97748W        W70173   1.285   6.107   3.809
97749W        W70174  26.141  11.651  12.371
97750W        W70175   1.497  15.800   4.591
97751W        W70176  10.003  18.848  13.979
97752W        W70177  29.383  12.330  11.465
97753W        W70178  11.868   6.336  14.656
97754W        W70179  19.596  30.994  11.073
97755W        W70180  44.384  28.994  14.293
97756W        W70181  26.436  27.205  11.562
97757W        W70182  36.116  13.194  12.095
97758W        W70183   4.009  20.995  11.076
97759W        W70184   9.706  34.218  13.311
97760W        W70185  33.170  19.854   0.418
97761W        W70186  41.005  37.749  11.628
97762W        W70187   2.234  21.047   1.857
97763W        W70188   8.137  37.529  10.704
97764W        W70189  42.767  44.492  13.186
97765W        W70190  21.084  15.299   1.741
97766W        W70191  28.914  15.686   2.322
97767W        W70192  20.000  34.395  12.013
97768W        W70193  24.585  40.958   4.852
97769W        W70194  38.473  27.483   2.057
97770W        W70195  33.423   7.144   2.348
97771W        W70196   3.525  21.188   1.470
97772W        W70197  38.551  26.980   3.292
97773W        W70198  26.840  10.105   4.297
97774W        W70199   4.405  42.543  13.716
97775W        W70200  40.826  11.302  12.958
97776W        W70201  42.420  41.693   3.578
97777W        W70202  24.572   8.845  10.195
97778W        W70203  38.099  13.788   4.286
97779W        W70204  26.535  13.456  13.893
97780W        W70205   8.664  18.142   4.290
97781W        W70206   9.335  22.732   4.671
97782W        W70207  17.867  10.260  14.319
97783W        W70208  19.809  25.380  11.519
97784W        W70209   7.239   5.420  13.118
97785W        W70210  41.469  13.889  12.422
97786W        W70211  16.614  22.291  12.461
97787W        W70212  18.706  18.256   2.104
97788W        W70213  12.745  20.102   1.776
97789W        W70214   7.603   0.079  13.950
97790W        W70215  33.962  13.335   0.941
97791W        W70216  37.632  26.288   4.965
97792W        W70217   7.845  12.291   3.812
97793W        W70218   3.509  43.967  14.876
97794W        W70219  34.352  33.882  13.278
97795W        W70220   7.093  42.414   3.679
97796W        W70221   5.751  21.174   0.368
97797W        W70222   8.742   1.792   2.149
97798W        W70223   4.662  15.053  14.476
97799W        W70224   3.207  23.003   4.226
97800W        W70225  18.281  18.231   1.803
97801W        W70226  25.208  33.484   3.044
97802W        W70227  37.305  19.123   2.261
97803W        W70228  29.814  42.975  12.352
97804W        W70229  39.232  16.887  11.305
97805W        W70230   8.844  20.551  13.452
97806W        W70231  33.654   6.437  12.022
97807W        W70232  29.650  19.105  10.443
97808W        W70233   4.823  12.487  12.686
97809W        W70234   3.274  35.522   1.422
97810W        W70235  33.655  28.685   4.825
97811W        W70236   8.759  10.204  10.076
97812W        W70237  11.715   4.315  10.534
97813W        W70238  29.699  32.505   3.866
97814W        W70239  34.428   6.732  11.205
97815W        W70240  14.554  42.379   3.380
97816W        W70241  30.378   6.198   1.699
97817W        W70242  11.870  16.241   4.137
97818W        W70243  38.406  34.307  13.334
97819W        W70244  40.311  20.235  11.553
97820W        W70245   4.333  13.298  10.751
97821W        W70246  42.677  41.587   2.211
97822W        W70247  14.525  13.212   1.287
97823W        W70248  36.422  25.577   0.919
97824W        W70249   8.096  27.449  14.834
97825W        W70250  11.001   4.865   2.226
97826W        W70251  30.766  22.921  10.055
97827W        W70252  36.940  38.456   0.393
97828W        W70253  41.832  44.574  13.464
97829W        W70254  39.302  22.217   2.461
97830W        W70255  36.908  12.194  12.954
97831W        W70256   4.499  17.550  14.895
97832W        W70257  27.216  31.987  11.078
97833W        W70258  16.259  13.122   1.436
97834W        W70259   7.382  39.164   0.341
97835W        W70260  14.283   8.879   0.280
97836W        W70261  20.117   2.401  14.720
97837W        W70262  11.720  43.255  13.992
97838W        W70263  25.474  29.712  14.419
97839W        W70264   1.504  21.605  13.501
97840W        W70265  29.186  17.253   2.277
97841W        W70266  13.227  25.244   5.220
97842W        W70267  42.557  35.961  13.945
97843W        W70268  15.290  19.775  14.342
97844W        W70269  41.776  26.492  14.886
97845W        W70270  27.059  15.673  11.475
97846W        W70271  29.425  14.206   1.851
97847W        W70272  20.652   3.954  14.452
97848W        W70273  18.828  20.058   2.489
97849W        W70274  38.345  19.442   3.704
97850W        W70275  32.379   5.672  14.768
97851W        W70276  11.176  27.912   3.756
97852W        W70277  43.480   4.780   4.256
97853W        W70278  20.820  33.144   0.824
97854W        W70279  34.549  37.090   0.695
97855W        W70280  22.768  25.395   4.582
97856W        W70281  14.989   5.441   0.810
97857W        W70282  42.957   4.203   3.242
97858W        W70283  28.393   4.805  13.983
97859W        W70284  36.367  17.928   1.429
97860W        W70285  43.995  23.227   4.109
97861W        W70286  22.271  27.700  13.335
97862W        W70287  19.201  33.345   3.765
97863W        W70288   4.552  31.897   0.511
97864W        W70289  11.204  17.154  12.094
97865W        W70290   9.149  41.540  13.881
97866W        W70291  24.241   8.942   3.574
97867W        W70292   9.861  36.738   4.346
97868W        W70293   7.455  20.565  12.563
97869W        W70294  13.532  11.589  11.186
97870W        W70295  31.756   2.459   4.253
97871W        W70296  33.056  12.192  13.123
97872W        W70297   9.713   3.129  12.566
97873W        W70298  35.764  28.560   0.754
97874W        W70299  31.138  42.637  14.952
97875W        W70300  44.970   1.418   1.285
97876W        W70301   0.090   6.391   1.373
97877W        W70302  35.918  27.067  11.131
97878W        W70303  15.593  38.884  13.406
97879W        W70304   0.984  41.932  12.284
97880W        W70305  18.020   7.925   4.829
97881W        W70306  24.565  28.745   1.864
97882W        W70307  18.598  13.740  13.991
97883W        W70308  43.896  34.144   0.381
97884W        W70309  13.663  40.673   4.313
97885W        W70310   4.404  25.069   0.631
97886W        W70311  14.159  27.319   3.228
97887W        W70312  15.552  30.225   2.847
97888W        W70313  29.911   7.874  12.944
97889W        W70314  23.162  11.364   1.557
97890W        W70315  35.019  10.351   1.484
97891W        W70316  10.794  40.859   0.457
97892W        W70317  31.786  32.845  11.137
97893W        W70318   9.158  28.314  11.818
97894W        W70319   9.771  31.619  11.006
97895W        W70320  28.394  12.658   3.267
97896W        W70321  12.335  10.386  12.509
97897W        W70322   4.319  31.451   0.424
97898W        W70323  19.221  31.957  11.838
97899W        W70324  39.486   6.126   4.136
97900W        W70325  14.557  18.232   3.774
97901W        W70326  16.986  34.551  12.247
97902W        W70327  16.709   9.951   0.499
97903W        W70328  21.979   0.795  10.578
97904W        W70329  34.248  37.834  14.780
97905W        W70330  23.678   6.901  14.390
97906W        W70331  10.789  43.184  11.076
97907W        W70332   2.548   0.806   0.010
97908W        W70333  41.599  22.514  10.614
97909W        W70334  38.896   5.529   2.738
97910W        W70335  12.553  13.177   1.584
97911W        W70336  17.275   4.392  13.373
97912W        W70337  23.664  33.877   3.695
97913W        W70338  17.825  31.667  14.838
97914W        W70339  16.771  35.868  14.320
97915W        W70340  12.336   1.306   4.331
97916W        W70341  41.045   4.563  11.538
97917W        W70342  33.096  21.915  14.936
97918W        W70343  44.033  24.030  14.271
97919W        W70344  12.876  44.506  14.392
97920W        W70345  25.020  28.900  10.711
97921W        W70346  39.953  36.925  11.959
97922W        W70347   6.525  37.428   5.142
97923W        W70348  19.324  31.953  12.576
97924W        W70349  44.954   9.957   4.575
97925W        W70350   7.236  27.861   2.547
97926W        W70351  18.520   2.095  12.929
97927W        W70352  10.929   9.227   2.299
97928W        W70353   5.919   8.097  11.182
97929W        W70354  41.773  36.829  12.518
97930W        W70355  19.182  32.488  11.951
97931W        W70356  35.527  41.768  14.265
97932W        W70357  22.535  30.918  12.344
97933W        W70358  31.011  36.077   4.713
97934W        W70359  35.813  38.417   3.317
97935W        W70360  44.813   7.241   3.048
97936W        W70361   8.322   2.251   4.387
97937W        W70362  25.134  41.885   2.262
97938W        W70363  12.649   3.432  11.686
97939W        W70364  29.470   5.314   4.692
97940W        W70365  29.022   7.486   3.107
97941W        W70366   8.193  39.410  12.402
97942W        W70367  21.304  43.781  14.838
97943W        W70368  43.113   3.152  11.076
97944W        W70369  15.241  24.438   1.822
97945W        W70370  20.535  18.283  11.608
97946W        W70371  42.944  32.661   2.670
97947W        W70372  16.209  27.480  10.542
97948W        W70373  18.507   0.303   4.049
97949W        W70374  29.192  33.888   4.975
97950W        W70375   5.101  42.493   1.880
97951W        W70376  39.055   1.217  11.496
97952W        W70377   2.620  13.714  11.208
97953W        W70378  36.165  13.644  12.597
97954W        W70379  28.951  31.430   1.705
97955W        W70380  16.611  27.690  10.810
97956W        W70381   1.429  44.887   0.430
97957W        W70382  43.178  34.499  13.495
97958W        W70383  17.266  37.934   3.657
97959W        W70384   1.966  29.938  14.048
97960W        W70385  20.640  30.101  13.550
97961W        W70386  44.994  23.288   3.833
97962W        W70387  39.898  41.793   3.311
97963W        W70388   2.056   7.382   3.736
97964W        W70389  24.464  28.148   3.567
97965W        W70390  31.670  33.393  12.344
97966W        W70391  18.944  42.000   1.879
97967W        W70392   4.974  43.228  11.875
97968W        W70393  20.069  11.280  13.323
97969W        W70394  10.922  10.844  14.788
97970W        W70395  15.889   5.937   4.788
97971W        W70396  16.660  23.250  12.007
97972W        W70397  44.866  18.275  11.215
97973W        W70398  10.634  15.762   3.327
97974W        W70399  12.133  17.536  13.607
97975W        W70400   0.446   8.190  13.860
97976W        W70401  31.637  24.580   1.400
97977W        W70402  13.246  31.869  11.157
97978W        W70403  26.917  31.429  10.039
97979W        W70404  10.171  11.150   4.119
97980W        W70405  42.852  43.909   4.201
97981W        W70406  39.351  35.118  12.026
97982W        W70407  25.516  19.550  10.586
97983W        W70408   1.546  44.997  11.448
97984W        W70409  44.422  26.530   2.004
97985W        W70410   0.368  13.021   0.719
97986W        W70411  20.651  40.039   4.142
97987W        W70412  15.709  16.801  11.709
97988W        W70413  13.210  21.608   3.342
97989W        W70414  15.918  23.285  14.352
97990W        W70415  17.158  31.684  14.331
97991W        W70416   5.874   2.672  11.994
97992W        W70417  18.694  33.996  11.173
97993W        W70418  19.215  25.733  12.672
97994W        W70419  16.737  30.443   2.397
97995W        W70420  26.769   1.208   3.193
97996W        W70421   9.139   0.841   9.809
97997W        W70422  37.161  29.954   0.165
97998W        W70423   0.580  33.429   3.761
97999W        W70424   3.694  27.959   3.174
98000W        W70425  11.675  43.059  13.489
98001W        W70426  21.017  16.624   4.554
98002W        W70427   9.295  37.320   4.883
98003W        W70428  39.669  30.163   3.143
98004W        W70429   6.833   3.581   3.112
98005W        W70430  19.894  17.273  14.952
98006W        W70431  23.223  37.402  12.508
98007W        W70432   2.612  21.338  11.993
98008W        W70433   3.268   5.387  12.119
98009W        W70434  18.204  16.877   1.300
98010W        W70435  31.779  24.421   3.292
98011W        W70436   4.184  27.738   3.173
98012W        W70437  24.115  27.771   5.310
98013W        W70438  40.309   0.831   1.799
98014W        W70439  18.653   2.753   4.330
98015W        W70440  38.269  42.389   5.553
98016W        W70441  16.567  17.616  11.090
98017W        W70442  34.835  14.366  11.565
98018W        W70443  34.172   3.735  14.942
98019W        W70444  38.973  22.935  14.950
98020W        W70445  16.282  43.103   0.074
98021W        W70446  38.468  15.851  14.536
98022W        W70447  13.634  18.158   3.719
98023W        W70448  13.718  30.582  13.852
98024W        W70449  12.090  41.060   4.050
98025W        W70450  26.212   1.312   2.375
98026W        W70451   3.384  28.475   2.935
98027W        W70452   2.239  24.497   4.634
98028W        W70453  19.552   7.675   1.769
98029W        W70454   9.830  30.107   4.198
98030W        W70455   0.503   2.476   0.915
98031W        W70456  14.445  18.737  11.124
98032W        W70457   2.179  27.520   4.615
98033W        W70458  44.891  24.955  13.441
98034W        W70459  25.174  39.279   5.100
98035W        W70460  29.119  25.211  12.565
98036W        W70461  41.088  20.572   0.903
98037W        W70462  36.777  28.637  12.218
98038W        W70463  43.228  43.551   4.084
98039W        W70464  19.297   8.789  10.760
98040W        W70465  42.088  20.025  14.738
98041W        W70466  30.396  15.856   2.303
98042W        W70467  13.158  25.687   4.315
98043W        W70468  41.816  41.425   0.252
98044W        W70469  15.892  31.549   3.388
98045W        W70470   7.491  43.904   3.689
98046W        W70471  26.808  17.703   2.364
98047W        W70472  18.366  12.257  14.851
98048W        W70473  29.116  37.978   0.667
98049W        W70474  22.571  27.665  12.156
98050W        W70475  40.275  17.524   1.241
98051W        W70476  14.646   6.275   0.941
98052W        W70477  10.244  16.246  13.922
98053W        W70478  17.356   8.697  11.740
98054W        W70479   5.224  24.643   3.243
98055W        W70480  20.762  21.643  13.080
98056W        W70481  40.018  21.682   2.904
98057W        W70482   2.888  42.564   0.679
98058W        W70483  43.136  30.305  13.460
98059W        W70484  40.811  22.753  11.117
98060W        W70485  16.174  41.556  14.084
98061W        W70486  44.225  11.311   1.317
98062W        W70487  41.514  16.431   1.922
98063W        W70488  36.992  25.667  11.609
98064W        W70489  17.979  35.893  11.065
98065W        W70490  39.508  35.754  10.738
98066W        W70491  10.300  19.501   1.304
98067W        W70492  37.617  31.605  12.949
98068W        W70493   1.242  42.760   1.809
98069W        W70494   0.015  32.779   0.750
98070W        W70495   8.766  22.981   0.321
98071W        W70496  38.017   1.286  13.296
98072W        W70497  30.435  14.877  12.017
98073W        W70498  42.401  11.432   1.746
98074W        W70499  42.948  41.640   0.647
98075W        W70500  37.528  36.522  11.930
98076W        W70501  29.367   5.423   2.309
98077W        W70502  12.731  13.401  12.084
98078W        W70503   2.889   7.673   3.555
98079W        W70504  43.774   2.731  13.945
98080W        W70505  40.520   9.815  11.235
98081W        W70506  14.825  24.587   3.664
98082W        W70507  23.311  26.083   0.798
98083W        W70508  39.793  17.173  10.586
98084W        W70509   5.199  13.161   1.883
98085W        W70510   2.428  37.410  13.803
98086W        W70511  42.048  11.888   3.298
98087W        W70512  24.029  38.312   2.927
98088W        W70513  22.027  26.462  14.806
98089W        W70514   0.960  42.479  13.421
98090W        W70515  31.877  20.143  12.068
98091W        W70516  39.520  38.913  13.041
98092W        W70517  42.440  23.724  11.015
98093W        W70518  34.142  42.342   4.601
98094W        W70519  17.532  32.433  14.372
98095W        W70520  14.113  21.730   4.658
98096W        W70521  21.230  32.146   3.837
98097W        W70522  22.511  24.175   4.507
98098W        W70523  32.592  14.711   3.857
98099W        W70524  19.515   6.073  11.037
98100W        W70525  37.858  28.513   4.217
98101W        W70526  11.228  39.976   2.818
98102W        W70527  43.253  12.254   3.753
98103W        W70528  18.879  26.443   4.957
98104W        W70529  27.621  21.056  11.226
98105W        W70530  20.423  30.420  11.080
98106W        W70531  23.631  38.548   2.666
98107W        W70532   0.635  35.077   1.681
98108W        W70533  34.703  28.500   1.814
98109W        W70534  11.885  37.651  12.930
98110W        W70535  35.282  33.657  14.964
98111W        W70536  18.097   9.233   4.595
98112W        W70537  37.770  34.847   2.183
98113W        W70538   4.897  44.327  13.306
98114W        W70539  21.187  41.259   1.787
98115W        W70540  36.451  35.416   2.121
98116W        W70541   5.394  13.663  13.061
98117W        W70542   4.285  14.865   0.265
98118W        W70543  29.453  38.347  13.349
98119W        W70544  24.323  11.757   4.360
98120W        W70545  33.608  14.766   3.644
98121W        W70546   0.328  44.440   4.630
98122W        W70547  27.314  34.237  14.947
98123W        W70548  27.718  43.925  11.057
98124W        W70549   0.941  16.043   5.207
98125W        W70550   6.852  34.947   3.228
98126W        W70551  10.659  25.165  13.345
98127W        W70552   2.906  27.509   0.443
98128W        W70553  25.855  29.562   4.481
98129W        W70554  25.826  39.943  11.689
98130W        W70555  43.142   4.867  11.862
98131W        W70556   3.171  12.149  11.182
98132W        W70557   4.834  27.014  14.392
98133W        W70558  14.700  40.547   3.885
98134W        W70559  19.556  20.262  13.160
98135W        W70560  31.193  37.401  10.636
98136W        W70561  28.333   7.857  12.005
98137W        W70562  39.326  42.467  13.957
98138W        W70563  23.493  36.393   2.207
98139W        W70564  19.711  27.925   2.007
98140W        W70565  22.662  28.146   1.882
98141W        W70566  18.357  34.673   4.253
98142W        W70567  20.260  16.686   1.110
98143W        W70568  28.651  12.154   2.191
98144W        W70569  44.841  28.501  13.488
98145W        W70570  25.960  26.172  12.904
98146W        W70571  40.690   9.900  13.891
98147W        W70572  21.152   5.232   4.629
98148W        W70573  34.047   0.896  14.034
98149W        W70574   7.163  31.535  11.500
98150W        W70575  27.490  30.013   3.695
98151W        W70576  30.442  10.871   3.343
98152W        W70577  25.457  13.245   4.397
98153W        W70578  19.911  17.574  10.861
98154W        W70579  12.847  39.837   2.892
98155W        W70580  29.806  36.844   4.489
98156W        W70581  12.147  43.407   3.702
98157W        W70582  17.797  20.822  13.321
98158W        W70583  29.371  11.084  12.540
98159W        W70584  33.283   3.332   3.737
98160W        W70585  36.147  14.673   2.877
98161W        W70586  13.819  31.170   2.775
98162W        W70587  26.538   9.845  11.142
98163W        W70588  13.206   3.835   2.500
98164W        W70589  36.322  35.127   0.971
98165W        W70590  20.103  41.945  10.655
98166W        W70591   3.424  33.911   1.239
98167W        W70592  37.735  29.521  11.497
98168W        W70593   8.195   1.110  11.410
98169W        W70594  10.985  20.200   2.405
98170W        W70595  28.295  27.622   1.006
98171W        W70596  13.132   6.178  14.993
98172W        W70597  15.292  17.892  14.446
98173W        W70598   6.521  22.959  12.580
98174W        W70599  20.715   8.366  12.492
98175W        W70600   2.973  42.530   1.194
98176W        W70601  24.751  32.252  14.411
98177W        W70602  16.769   9.793  13.553
98178W        W70603   2.945   9.601  14.444
98179W        W70604   6.052  13.507  12.014
98180W        W70605  10.772  19.172   0.462
98181W        W70606   2.825  43.921  13.351
98182W        W70607   9.190  22.612   1.968
98183W        W70608  19.021   4.041   2.203
98184W        W70609  26.904  21.437   1.429
98185W        W70610   0.370  14.114  12.479
98186W        W70611  39.929  17.642   2.123
98187W        W70612   8.053  20.589  10.649
98188W        W70613  32.952  43.888   0.330
98189W        W70614  26.430  19.935   1.950
98190W        W70615  24.471  44.465   3.796
98191W        W70616  30.372  33.883  11.181
98192W        W70617  26.556  40.863   1.218
98193W        W70618  24.546  19.032   2.227
98194W        W70619   1.966  16.198   0.663
98195W        W70620  36.553  34.510  12.077
98196W        W70621  15.585  24.046   1.876
98197W        W70622  16.426  34.646   3.337
98198W        W70623  33.233  17.589   4.246
98199W        W70624  44.698  32.312  10.995
98200W        W70625  21.688   6.846   0.160
98201W        W70626  20.132  42.308  13.371
98202W        W70627  40.307  20.532   4.172
98203W        W70628  44.314   7.177  11.934
98204W        W70629  37.425  33.927   1.291
98205W        W70630  36.987  10.259  13.497
98206W        W70631  32.436  30.518   3.619
98207W        W70632   0.063  24.005  11.521
98208W        W70633  34.624   0.388   1.765
98209W        W70634  40.451  31.406   3.193
98210W        W70635  22.190  38.778   1.010
98211W        W70636  38.015  29.116   0.178
98212W        W70637  24.914  25.842  12.926
98213W        W70638   4.789   7.876   1.646
98214W        W70639  28.172  13.612   3.352
98215W        W70640   4.790  34.952   0.415
98216W        W70641  44.269  20.691  11.578
98217W        W70642  42.013   2.200  10.509
98218W        W70643  18.855  34.622   4.092
98219W        W70644  27.688  36.924   1.821
98220W        W70645  38.545   3.213   1.760
98221W        W70646   3.477  24.400   3.683
98222W        W70647   0.871  43.656   1.851
98223W        W70648  36.571  30.732   4.320
98224W        W70649  37.781  33.280  14.928
98225W        W70650   6.315  38.511  12.477
98226W        W70651  22.428  19.012  11.013
98227W        W70652  37.345  43.004   2.452
98228W        W70653  23.711  17.734   1.435
98229W        W70654  33.843  38.360  11.873
98230W        W70655   0.553  36.569  13.941
98231W        W70656  44.085   0.244   1.866
98232W        W70657  39.743   3.000  11.623
98233W        W70658  15.282  34.650   4.798
98234W        W70659  38.301  14.597   1.210
98235W        W70660   0.391  15.604  14.474
98236W        W70661   4.093  13.343  13.420
98237W        W70662  43.458  39.232   2.902
98238W        W70663  26.646   8.764   2.766
98239W        W70664  42.437  32.606  11.493
98240W        W70665  36.338  32.841   0.495
98241W        W70666  41.243   0.268  13.439
98242W        W70667  44.650  21.284  13.685
98243W        W70668   5.812  31.959   2.412
98244W        W70669  28.615  11.609  13.888
98245W        W70670  15.339   7.880   2.249
98246W        W70671  27.449  41.269  14.335
98247W        W70672  26.238   9.611  12.975
98248W        W70673  26.126  37.788   2.403
98249W        W70674   7.459  37.415  13.089
98250W        W70675  33.850  14.714   3.195
98251W        W70676  42.415  44.861  12.094
98252W        W70677  40.533  40.903  12.921
98253W        W70678   0.024  26.021  11.930
98254W        W70679  15.966  21.924  14.093
98255W        W70680  38.125  26.083   4.932
98256W        W70681  43.580  30.789  11.640
98257W        W70682  28.803  21.979  13.338
98258W        W70683  18.359  29.544   9.830
98259W        W70684  18.221   6.794  12.963
98260W        W70685  24.877  33.878   3.185
98261W        W70686   0.540   6.749  11.565
98262W        W70687  17.846  23.492  10.481
98263W        W70688   6.791  26.725  11.944
98264W        W70689  41.380  40.806   2.998
98265W        W70690  39.089  12.625   3.648
98266W        W70691   8.944  21.329  13.933
98267W        W70692  23.187  43.899  12.849
98268W        W70693  23.293   8.828   3.798
98269W        W70694   9.349  28.312   4.433
98270W        W70695   5.809   6.182  13.048
98271W        W70696  24.480  26.675  14.614
98272W        W70697  27.020  10.039  14.780
98273W        W70698   3.022  39.523   0.509
98274W        W70699   1.184  10.077   0.011
98275W        W70700  12.629  26.509   5.245
98276W        W70701  36.483  15.854   3.250
98277W        W70702   5.167  18.180  12.810
98278W        W70703  44.264  20.248   1.171
98279W        W70704  34.160  23.732  13.869
98280W        W70705  37.594  36.502   3.159
98281W        W70706   8.691  40.764   4.148
98282W        W70707  17.619  15.548  11.447
98283W        W70708  41.818  22.581  11.095
98284W        W70709  35.611  37.106   0.375
98285W        W70710  16.246   4.637  10.142
98286W        W70711  14.963  23.692  14.143
98287W        W70712  40.375   9.553  13.684
98288W        W70713  20.317  18.226   3.992
98289W        W70714   5.776  40.509  14.899
98290W        W70715  32.798   3.562  10.226
98291W        W70716  33.396  42.869  14.694
98292W        W70717  29.609   3.242   1.301
98293W        W70718   6.703  31.295  14.333
98294W        W70719  19.298  25.437  13.608
98295W        W70720  14.681  18.758  10.625
98296W        W70721  32.469   4.747   4.314
98297W        W70722  22.273   1.449   1.763
98298W        W70723  44.562  27.630   3.225
98299W        W70724  11.871   8.183   0.411
98300W        W70725  32.433  34.723  11.167
98301W        W70726  37.116  36.932  10.619
98302W        W70727  41.799  10.319   0.248
98303W        W70728  35.528  15.565  13.041
98304W        W70729   3.744  22.816  12.422
98305W        W70730  27.531  41.289  14.859
98306W        W70731  35.360  23.967   3.986
98307W        W70732  17.630  13.766   2.274
98308W        W70733   0.240  20.185   1.606
98309W        W70734  10.439   0.709   4.244
98310W        W70735  14.600  35.870  12.056
98311W        W70736  17.738  35.305   1.827
98312W        W70737  24.039  38.563   0.796
98313W        W70738  24.429  22.583   3.518
98314W        W70739  17.081  23.618   3.257
98315W        W70740  19.607  26.304   0.839
98316W        W70741  43.348   1.965   3.598
98317W        W70742  32.482  34.367   4.372
98318W        W70743  26.621   0.052   0.270
98319W        W70744  10.974  19.101   3.687
98320W        W70745  10.203   6.530   1.858
98321W        W70746  26.247  24.097  14.472
98322W        W70747  13.792  36.150  12.997
98323W        W70748   3.496   2.013   9.871
98324W        W70749  39.492  30.612   2.220
98325W        W70750  17.203  13.460   4.453
98326W        W70751  26.139  26.559   0.972
98327W        W70752   3.303  15.542   3.116
98328W        W70753  20.208  27.688  11.263
98329W        W70754  15.691   1.746   3.293
98330W        W70755  39.875  24.686  14.750
98331W        W70756  43.455  29.537  10.687
98332W        W70757   0.559   8.375  10.702
98333W        W70758  11.899  22.681   4.670
98334W        W70759   3.635   4.276   0.498
98335W        W70760  15.285  23.535   5.045
98336W        W70761  14.240  12.919   0.003
98337W        W70762  19.274  42.138   2.724
98338W        W70763  29.631  14.421   3.377
98339W        W70764  37.005  29.174   3.746
98340W        W70765  13.231   8.201   0.895
98341W        W70766   9.263  25.546   4.391
98342W        W70767  39.864  44.858   9.865
98343W        W70768  44.370   1.868  11.003
98344W        W70769  11.827  36.094   1.971
98345W        W70770  28.676   1.488   4.622
98346W        W70771  33.936  43.871   2.615
98347W        W70772  30.592  35.583   1.936
98348W        W70773   2.354  40.882  11.243
98349W        W70774   8.892   4.482  11.092
98350W        W70775  32.027  39.869   0.344
98351W        W70776   4.342  17.677   3.367
98352W        W70777  24.618  29.257  12.150
98353W        W70778  42.751  41.919  14.183
98354W        W70779  32.878  40.896  11.507
98355W        W70780  22.891  22.795   4.139
98356W        W70781  38.874  40.076  12.531
98357W        W70782  30.922  37.382  13.932
98358W        W70783  41.538  10.051   3.302
98359W        W70784  15.242  22.860  12.650
98360W        W70785  21.264   4.433   3.785
98361W        W70786  14.342   5.365   2.250
98362W        W70787   3.956  39.813  13.873
98363W        W70788  24.087  15.562  14.258
98364W        W70789  24.222  27.970  14.901
98365W        W70790  22.863  10.976   3.714
98366W        W70791  28.537  20.127  11.223
98367W        W70792  18.625   9.157   4.546
98368W        W70793  16.175  25.939   4.682
98369W        W70794  36.071  21.655  11.529
98370W        W70795  12.072  42.329   2.089
98371W        W70796   6.366  14.227  14.703
98372W        W70797  32.995  25.488  11.151
98373W        W70798  26.949  25.136   3.591
98374W        W70799   1.277   6.783   1.893
98375W        W70800  31.035  38.019   0.732
98376W        W70801  10.367  10.191   4.573
98377W        W70802  20.231  33.042   2.416
98378W        W70803  42.586  42.954   3.878
98379W        W70804  18.024  36.040  12.501
98380W        W70805  24.531  39.840   2.165
98381W        W70806  13.649  18.680   3.623
98382W        W70807  32.672  37.391   0.642
98383W        W70808  36.068   0.290   0.529
98384W        W70809  13.158   9.302   4.795
98385W        W70810   7.533  17.259   0.885
98386W        W70811  31.406  30.438   1.027
98387W        W70812  34.862   6.964   4.070
98388W        W70813  13.084  23.066   1.433
98389W        W70814  10.704   0.803  12.045
98390W        W70815  31.962  34.089  11.630
98391W        W70816   4.179  36.668  14.522
98392W        W70817  31.069   8.586   1.452
98393W        W70818  31.355  10.634   1.723
98394W        W70819  43.370   2.002  12.023
98395W        W70820   9.157  25.455  11.501
98396W        W70821   3.629  40.351  12.141
98397W        W70822  29.097  36.402   2.289
98398W        W70823  34.396  14.824   0.697
98399W        W70824   0.558   9.179   2.440
98400W        W70825  41.063   2.510   3.678
98401W        W70826  41.864  18.390   2.395
98402W        W70827  33.622  12.196   4.189
98403W        W70828  32.206  36.563  14.599
98404W        W70829   5.373  43.268   4.202
98405W        W70830   2.959  25.543  13.989
98406W        W70831  27.023  41.955  10.302
98407W        W70832  15.299  13.441  12.977
98408W        W70833  39.088  40.871  14.826
98409W        W70834   0.586   4.056   3.878
98410W        W70835  24.985  35.295  11.628
98411W        W70836  14.103  38.438   1.634
98412W        W70837  17.628  18.875  11.649
98413W        W70838  42.824  30.132  10.451
98414W        W70839  22.235   0.461   0.724
98415W        W70840  40.452  30.606   2.143
98416W        W70841   6.210   3.254  11.202
98417W        W70842  25.100  24.215  12.132
98418W        W70843   4.466   3.815   1.796
98419W        W70844   2.237  29.161   0.335
98420W        W70845  40.367  27.560   4.655
98421W        W70846  38.334  10.128   1.198
98422W        W70847   9.635  36.811   0.784
98423W        W70848  11.442  41.923  12.478
98424W        W70849  22.551   8.006   4.647
98425W        W70850  18.873   3.024   0.649
98426W        W70851  29.161  13.170  11.949
98427W        W70852  31.100   6.735  11.448
98428W        W70853  12.076  13.738  13.477
98429W        W70854  38.099  22.678  12.162
98430W        W70855  17.185  12.900   2.219
98431W        W70856   6.374  11.190  11.655
98432W        W70857  39.358  24.747  11.014
98433W        W70858  28.011  13.512   0.555
98434W        W70859   2.400  27.157   3.254
98435W        W70860  40.798   8.587   1.994
98436W        W70861  15.692  21.606   2.844
98437W        W70862   2.041  30.446  13.985
98438W        W70863  22.215   2.829   5.044
98439W        W70864  39.894  10.207   5.161
98440W        W70865  40.802  15.305   1.503
98441W        W70866   6.350  36.923   9.992
98442W        W70867  44.287  36.744   4.190
98443W        W70868   1.837  27.426   0.158
98444W        W70869  23.143  42.930  12.487
98445W        W70870  21.624  34.868  13.031
98446W        W70871  33.510  38.567  11.109
98447W        W70872   5.301  33.056  12.589
98448W        W70873  15.585  13.151   1.296
98449W        W70874   6.209   8.891   2.210
98450W        W70875  40.476  20.817   3.772
98451W        W70876  39.977  42.286   2.355
98452W        W70877  22.567  35.483  11.075
98453W        W70878   6.482  35.880   4.985
98454W        W70879  37.543  20.183  10.641
98455W        W70880   3.862  13.610   0.234
98456W        W70881  30.561  44.320   4.665
98457W        W70882  36.204  14.135  12.887
98458W        W70883  15.587  11.174   1.419
98459W        W70884  18.724  43.893   3.360
98460W        W70885  11.838  27.503   4.699
98461W        W70886  20.789  33.609   3.635
98462W        W70887   4.847  24.811  11.410
98463W        W70888  18.011   8.711  13.900
98464W        W70889  39.608   7.703   2.234
98465W        W70890  39.347  30.617  14.893
98466W        W70891   2.221  40.766  13.944
98467W        W70892   4.475  23.945  14.586
98468W        W70893  29.113  33.054  14.988
98469W        W70894  23.978   8.120  13.975
98470W        W70895  43.271  32.939   0.523
98471W        W70896  24.814  43.393  12.783
98472W        W70897  38.496  33.926  12.980
98473W        W70898  41.332  34.259  13.802
98474W        W70899  16.374  25.637   0.816
98475W        W70900  33.001  43.247  12.132
98476W        W70901  35.887  29.193  11.109
98477W        W70902  30.871   8.775   5.018
98478W        W70903  18.240  36.825   1.795
98479W        W70904  43.985  12.551  14.890
98480W        W70905   7.730  38.637   4.504
98481W        W70906   7.558  37.318  13.848
98482W        W70907  26.349  40.917  11.820
98483W        W70908  41.426  27.567   1.293
98484W        W70909  26.603  32.545   0.340
98485W        W70910  25.015  35.011   4.498
98486W        W70911   9.849  37.894   4.160
98487W        W70912  15.174  25.596   2.785
98488W        W70913  40.806   8.050  11.441
98489W        W70914   9.088  32.844   1.342
98490W        W70915   6.857  20.233   2.750
98491W        W70916  24.784  37.359  12.794
98492W        W70917  41.472  41.537  14.006
98493W        W70918  11.669  28.447  13.441
98494W        W70919  10.711  40.414   0.686
98495W        W70920   9.359  43.386   1.187
98496W        W70921  43.814  25.976  14.311
98497W        W70922  25.741  25.674  10.687
98498W        W70923  10.211   9.661   2.501
98499W        W70924  23.951  41.011  10.758
98500W        W70925  29.164   4.865  13.491
98501W        W70926  20.258   8.299  11.223
98502W        W70927  35.483  27.361   0.368
98503W        W70928   1.364  33.999   3.746
98504W        W70929  38.096  41.074   2.740
98505W        W70930  34.978   7.247   2.139
98506W        W70931  22.987   0.795  13.326
98507W        W70932  25.117  41.357  12.593
98508W        W70933  44.547  34.582  11.083
98509W        W70934   7.944  30.074  12.390
98510W        W70935  41.342  43.564   3.323
98511W        W70936  14.615  28.052   4.959
98512W        W70937  12.789  31.961  12.629
98513W        W70938   6.251  40.050  11.586
98514W        W70939   4.092   5.318  13.711
98515W        W70940  21.892  38.649   4.593
98516W        W70941  43.926  38.058  14.418
98517W        W70942  12.278  38.337  13.550
98518W        W70943   2.158  24.200   2.909
98519W        W70944  12.078  43.951  10.567
98520W        W70945   6.899  27.059   4.569
98521W        W70946   4.430  14.933   3.200
98522W        W70947  42.043   2.517  14.611
98523W        W70948  26.569  12.925  13.874
98524W        W70949  24.280   4.662   3.777
98525W        W70950   0.254  44.443  12.408
98526W        W70951  23.465   8.925   1.658
98527W        W70952  44.595  13.632   1.210
98528W        W70953  18.466  23.515  13.925
98529W        W70954  11.424  24.685  11.189
98530W        W70955   8.713  15.605   4.927
98531W        W70956  22.070  36.782  13.952
98532W        W70957   3.822   4.568  11.878
98533W        W70958  21.433  14.056  13.332
98534W        W70959   9.124  43.765  13.564
98535W        W70960  35.580  37.042   2.709
98536W        W70961  18.568  17.659   0.828
98537W        W70962   1.959  27.841   3.724
98538W        W70963  12.171  28.958   3.253
98539W        W70964  21.133   0.682  13.500
98540W        W70965  23.413  17.553   3.848
98541W        W70966  30.346  17.819  10.084
98542W        W70967  39.249   9.933  14.901
98543W        W70968  28.242   6.693  11.139
98544W        W70969  34.288  19.158  11.537
98545W        W70970  24.623  39.471   2.792
98546W        W70971   0.718  43.749  12.825
98547W        W70972  27.730   9.768  10.649
98548W        W70973  22.019  36.439  11.701
98549W        W70974  11.375   6.280   9.772
98550W        W70975   9.216  22.167  12.615
98551W        W70976  14.797   3.463   3.092
98552W        W70977   1.675  28.926   3.980
98553W        W70978   2.876   6.186  10.640
98554W        W70979  27.226  15.258   4.497
98555W        W70980   1.749  22.109  12.193
98556W        W70981  25.454   1.361  13.822
98557W        W70982  29.562  42.733  11.577
98558W        W70983  26.166  13.247   0.677
98559W        W70984   4.275  19.803  14.597
98560W        W70985  43.490  10.857   2.462
98561W        W70986  39.072  25.271  12.563
98562W        W70987  26.297  19.002  13.028
98563W        W70988  41.401   6.401  13.025
98564W        W70989  27.711  27.486  11.209
98565W        W70990   3.764  16.682  11.078
98566W        W70991   0.796  24.279   2.530
98567W        W70992  11.106  28.051   4.824
98568W        W70993  13.228  22.138   3.104
98569W        W70994  16.648  15.392  13.823
98570W        W70995  38.953  26.025   0.822
98571W        W70996   1.001   2.818   3.202
98572W        W70997  31.719  28.077   3.771
98573W        W70998  25.880  24.428   2.191
98574W        W70999   0.531  31.157  10.709
98575W        W71000  39.418  38.646   2.799
98576W        W71001  19.032  44.839  14.432
98577W        W71002  24.070  25.988  12.367
98578W        W71003  30.395  37.949  11.904
98579W        W71004  32.413   1.517   1.365
98580W        W71005   4.675  36.288  12.479
98581W        W71006   8.881  13.816   1.309
98582W        W71007  41.568  35.321   4.112
98583W        W71008  40.590  43.999  12.837
98584W        W71009  22.471  37.991  10.482
98585W        W71010  14.123  17.875   1.878
98586W        W71011  36.704   6.705   1.482
98587W        W71012  26.466  40.449   4.733
98588W        W71013  24.196  16.085  11.922
98589W        W71014  11.090  33.022   4.622
98590W        W71015  33.413   8.829  13.222
98591W        W71016  15.548   4.333   2.714
98592W        W71017  35.487  16.492  12.026
98593W        W71018  17.252   4.072   1.923
98594W        W71019  14.268  30.052   1.811
98595W        W71020  38.813  40.748  10.612
98596W        W71021  17.653   9.302  13.316
98597W        W71022   4.543  22.155   0.900
98598W        W71023  24.508  43.217  12.370
98599W        W71024  44.031  40.842   0.017
98600W        W71025   4.355  18.270  11.496
98601W        W71026  44.011  22.813   4.995
98602W        W71027  11.135  27.152  11.117
98603W        W71028   7.841  29.038  14.914
98604W        W71029   4.857  19.761  12.857
98605W        W71030  43.051  34.079  10.743
98606W        W71031  42.779  40.789   2.303
98607W        W71032  17.535  28.524  14.458
98608W        W71033  39.540  37.342   2.343
98609W        W71034  31.983  20.747  12.491
98610W        W71035  34.969   2.690   4.307
98611W        W71036  18.179  10.710   4.489
98612W        W71037  36.317  23.175  14.065
98613W        W71038  22.792  29.178   2.210
98614W        W71039  31.921  16.197   3.241
98615W        W71040   2.310  28.760  10.964
98616W        W71041  25.150  43.963  14.980
98617W        W71042  39.967  27.742  13.932
98618W        W71043  40.307  16.837  12.148
98619W        W71044  44.895  36.072  11.954
98620W        W71045  17.165  14.875   4.166
98621W        W71046  42.713  17.177  13.291
98622W        W71047  21.839  41.274  13.008
98623W        W71048  34.038  37.106   2.280
98624W        W71049   0.226  29.430   4.110
98625W        W71050  32.389  44.069  13.006
98626W        W71051   1.882   3.961   3.603
98627W        W71052  17.825   1.218  13.847
98628W        W71053  30.739  18.321  13.494
98629W        W71054  39.054  27.593   1.958
98630W        W71055  28.343  29.549  12.428
98631W        W71056  20.183  19.175   1.743
98632W        W71057  36.304  20.351   4.133
98633W        W71058  33.055   3.345   2.249
98634W        W71059   5.402   8.466  10.707
98635W        W71060   0.806  26.736  11.924
98636W        W71061   2.260  11.035  11.651
98637W        W71062   3.491  14.255  10.588
98638W        W71063  30.164  17.049   3.652
98639W        W71064  27.647  31.398  12.106
98640W        W71065  41.096   4.038  11.501
98641W        W71066   3.733  40.077  13.498
98642W        W71067  16.950  26.567   0.192
98643W        W71068  25.236  42.986   2.639
98644W        W71069  38.190   1.037   3.263
98645W        W71070  13.122   1.525  12.968
98646W        W71071  28.528   5.679  14.530
98647W        W71072  23.269   1.294  10.665
98648W        W71073  15.545   7.956   4.760
98649W        W71074   6.266  28.622   4.839
98650W        W71075  32.850   3.892   4.115
98651W        W71076  40.836  13.087   0.848
98652W        W71077   3.711  26.598   2.121
98653W        W71078   8.485  35.320   9.771
98654W        W71079  23.231  37.877   3.230
98655W        W71080  32.055  24.889   4.603
98656W        W71081  34.080  19.619   0.004
98657W        W71082   0.502  24.317  14.760
98658W        W71083  21.443  19.176  14.309
98659W        W71084  18.862  43.644   1.880
98660W        W71085  27.233  27.104   2.592
98661W        W71086   3.634   3.328   3.879
98662W        W71087  34.576  11.353   3.164
98663W        W71088  12.844   0.424   4.126
98664W        W71089   4.802   6.836  13.356
98665W        W71090  13.469  15.756   9.731
98666W        W71091   3.283   1.989   0.815
98667W        W71092  14.160  37.790  14.898
98668W        W71093  39.975  33.438   2.874
98669W        W71094  33.998   0.495   3.212
98670W        W71095  23.472  30.219   4.580
98671W        W71096  34.016  28.509  12.254
98672W        W71097   0.795  18.629  10.648
98673W        W71098  40.343  21.330   2.704
98674W        W71099  13.476  12.821  10.817
98675W        W71100   8.622  33.126   2.946
98676W        W71101  16.099  37.017   4.520
98677W        W71102  38.957  43.481  13.468
98678W        W71103   8.378  32.441  14.014
98679W        W71104  17.346  11.650  14.792
98680W        W71105   3.871   0.176   1.477
98681W        W71106  40.215   2.774  12.974
98682W        W71107  34.961   6.939   3.145
98683W        W71108  11.764  10.528   0.504
98684W        W71109  39.014  15.685   2.166
98685W        W71110  30.834  37.062  12.096
98686W        W71111  44.291  26.436   0.991
98687W        W71112  22.316   4.991   0.336
98688W        W71113  16.524  28.506  14.753
98689W        W71114   6.061   4.910  13.259
98690W        W71115  24.071   5.810   4.836
98691W        W71116   0.770  13.078   2.463
98692W        W71117  21.624  37.566  13.947
98693W        W71118  24.119   0.297   0.745
98694W        W71119  37.850  18.127   4.311
98695W        W71120  26.786  12.328   2.458
98696W        W71121  25.607  31.885  13.551
98697W        W71122  23.716  22.602  14.313
98698W        W71123  28.897   1.737  12.438
98699W        W71124  23.389  12.593   2.738
98700W        W71125  15.721   6.348   1.870
98701W        W71126  20.146  26.082  12.455
98702W        W71127  15.775   0.335  14.825
98703W        W71128  21.515  40.539  14.387
98704W        W71129  40.844  26.803  11.183
98705W        W71130  25.579  44.418   0.955
98706W        W71131  44.301  35.040  11.063
98707W        W71132  23.176  32.902  14.216
98708W        W71133   1.025   1.481   2.593
98709W        W71134  17.858  22.096  12.751
98710W        W71135  20.919  35.594   1.520
98711W        W71136  41.886   1.652  14.815
98712W        W71137   0.824  40.338  11.527
98713W        W71138  10.716  15.094  11.617
98714W        W71139  24.590  42.515  14.510
98715W        W71140   1.433  27.501  14.735
98716W        W71141  29.093  30.124   2.296
98717W        W71142  43.285  40.267   2.817
98718W        W71143  32.098  25.061  13.370
98719W        W71144   2.347   8.546  11.624
98720W        W71145  10.254  33.503  10.933
98721W        W71146  13.842   0.681   1.571
98722W        W71147  14.999   1.832   0.744
98723W        W71148  36.777  29.621   3.884
98724W        W71149   0.853  29.394   1.867
98725W        W71150  36.064   8.146  13.597
98726W        W71151  20.598  23.026   1.888
98727W        W71152  44.365  28.897  13.791
98728W        W71153   8.416  16.703  10.629
98729W        W71154  20.087  22.177  13.325
98730W        W71155  27.014  41.151   2.588
98731W        W71156  35.009   0.633  11.479
98732W        W71157  23.753  31.570   2.343
98733W        W71158  10.535  18.262  13.456
98734W        W71159  23.632  32.387   3.822
98735W        W71160   6.664  41.871   4.862
98736W        W71161   7.701  17.884  12.604
98737W        W71162  16.190  27.700  12.015
98738W        W71163  14.136  18.319  13.097
98739W        W71164   8.411   0.027   3.651
98740W        W71165  31.486  38.053  12.574
98741W        W71166  35.782  26.667  12.940
98742W        W71167  11.564   4.090  13.939
98743W        W71168  28.564  21.803  12.296
98744W        W71169  24.697   4.486   2.725
98745W        W71170  20.109  38.921   2.825
98746W        W71171  43.582  44.835  12.073
98747W        W71172  19.042  41.591  14.915
98748W        W71173  31.895  10.466  12.007
98749W        W71174  35.580  19.099   0.462
98750W        W71175  29.360  26.683   0.406
98751W        W71176  11.667   9.348  13.306
98752W        W71177  43.051  25.298  13.903
98753W        W71178  15.452  38.302   0.321
98754W        W71179  33.983  36.572  11.029
98755W        W71180  31.896  42.888  13.239
98756W        W71181  21.173   9.674   2.375
98757W        W71182  25.077  18.653  14.267
98758W        W71183  36.525   0.869  14.843
98759W        W71184  23.914  15.556  13.763
98760W        W71185  37.405   3.221   4.408
98761W        W71186   8.170  34.159  14.843
98762W        W71187  16.718  37.125   0.967
98763W        W71188  10.773  19.370   1.490
98764W        W71189   2.370  30.078   2.296
98765W        W71190  10.138   2.707   4.433
98766W        W71191   5.794  36.729  10.616
98767W        W71192  22.290  39.918  13.049
98768W        W71193   0.412  39.381   2.117
98769W        W71194   7.616  30.040   0.192
98770W        W71195  15.181  21.225   1.902
98771W        W71196  16.098   5.721   1.428
98772W        W71197  21.506  41.833  12.394
98773W        W71198  28.643  31.394  13.817
98774W        W71199  39.664  18.351  13.419
98775W        W71200  21.722  13.245  12.403
98776W        W71201  31.988  37.786   0.790
98777W        W71202   2.551  35.547  10.628
98778W        W71203  16.573   1.984  11.710
98779W        W71204  25.488  31.481   3.830
98780W        W71205  44.381  16.674  14.099
98781W        W71206  34.769  32.353  13.881
98782W        W71207  25.943  44.786   2.727
98783W        W71208  25.950  22.847   0.939
98784W        W71209  12.230  24.167   4.706
98785W        W71210  28.700  24.984  11.114
98786W        W71211  12.901  33.808  10.393
98787W        W71212  30.141  28.504  12.105
98788W        W71213  12.271   0.757  11.794
98789W        W71214  28.164  36.323  12.911
98790W        W71215   3.037   5.219  10.648
98791W        W71216  40.791   8.061   2.031
98792W        W71217  25.018   4.919  10.761
98793W        W71218   0.347  19.498  12.862
98794W        W71219  33.547  37.529  13.445
98795W        W71220   6.686  41.267  11.405
98796W        W71221   6.749  21.588   4.660
98797W        W71222  11.804  29.661  12.158
98798W        W71223  20.054  14.128   4.196
98799W        W71224  11.377  10.246  14.110
98800W        W71225   2.254  40.424   2.842
98801W        W71226  26.232  14.022  12.507
98802W        W71227  36.773  36.802  12.992
98803W        W71228  20.617  10.944  13.450
98804W        W71229  41.499   8.342   2.179
98805W        W71230   1.191  18.424   2.322
98806W        W71231  31.994  40.532   0.709
98807W        W71232   3.835  43.503  11.996
98808W        W71233  14.853  22.354  14.320
98809W        W71234  36.327  20.732  13.441
98810W        W71235  42.538  28.044  11.912
98811W        W71236  13.833   3.930   3.138
98812W        W71237  35.921  23.663   0.346
98813W        W71238  34.607  23.054  12.516
98814W        W71239  22.678  15.774  10.653
98815W        W71240  24.202  20.138   4.811
98816W        W71241   4.514  13.096  14.411
98817W        W71242   4.820  42.010  13.740
98818W        W71243   6.972  41.262  14.810
98819W        W71244  17.517   0.114  10.881
98820W        W71245  38.264  22.548   1.281
98821W        W71246   2.033   8.297   0.294
98822W        W71247  23.981  38.099   1.790
98823W        W71248  36.379  12.622  11.164
98824W        W71249  12.556  30.553  11.562
98825W        W71250  35.597  35.074   1.290
98826W        W71251   4.489  27.550   1.347
98827W        W71252  29.907   6.899   0.801
98828W        W71253  14.857  41.517  10.597
98829W        W71254  39.956  39.082   0.437
98830W        W71255   6.969  21.559   3.160
98831W        W71256  15.747   0.555  13.355
98832W        W71257  35.009  21.633  14.690
98833W        W71258  43.251  36.141   4.049
98834W        W71259  44.793  26.877   2.153
98835W        W71260  36.009  28.288   2.034
98836W        W71261  17.504  25.508   3.456
98837W        W71262  40.444  43.595   1.266
98838W        W71263  29.842  36.183   0.121
98839W        W71264   6.877  11.261  12.482
98840W        W71265   8.392  23.930   0.524
98841W        W71266  42.546  15.778   0.054
98842W        W71267  33.464  29.556   4.780
98843W        W71268  20.334   4.482  12.157
98844W        W71269  36.928  21.772  14.018
98845W        W71270  30.082  27.046   0.040
98846W        W71271  25.187  29.167  12.465
98847W        W71272   3.398  29.011  12.580
98848W        W71273  15.081   1.580  14.109
98849W        W71274  12.931  43.171   3.334
98850W        W71275  22.428  30.371  14.886
98851W        W71276   9.574  12.611   3.073
98852W        W71277  22.013  11.610  10.888
98853W        W71278  41.447  41.132   1.468
98854W        W71279  42.104   6.024  14.252
98855W        W71280  11.285  41.371  12.976
98856W        W71281  21.643   9.436  13.887
98857W        W71282  34.828  26.062   4.103
98858W        W71283  40.911  44.260  11.705
98859W        W71284   7.908  42.453  11.935
98860W        W71285  36.046  24.154   2.841
98861W        W71286  39.074  25.044   2.215
98862W        W71287  43.889   6.275  14.888
98863W        W71288  27.056   8.772  10.992
98864W        W71289  11.209  22.661  12.646
98865W        W71290  37.050   1.974   1.732
98866W        W71291  13.254  30.446   0.717
98867W        W71292  35.409  41.059   2.402
98868W        W71293   2.715  15.463  14.616
98869W        W71294  24.118  15.264   2.410
98870W        W71295  33.196  25.741  11.544
98871W        W71296  30.880  38.544   0.829
98872W        W71297  26.642   6.305  11.592
98873W        W71298  19.235  10.496   0.512
98874W        W71299  22.096   6.861   1.334
98875W        W71300  35.058  28.853  13.865
98876W        W71301  37.681   3.666   4.611
98877W        W71302  15.550  33.032   2.694
98878W        W71303  22.081  38.340   1.256
98879W        W71304   0.747  43.956   0.126
98880W        W71305  36.898  26.630  10.793
98881W        W71306  31.598  29.586   2.723
98882W        W71307  25.438  29.761   1.780
98883W        W71308  20.083  30.019  11.004
98884W        W71309  30.062  41.425  14.378
98885W        W71310  36.418   5.381   2.779
98886W        W71311  25.411  36.826   0.637
98887W        W71312  20.800  30.975   2.481
98888W        W71313  40.911  25.689  12.998
98889W        W71314  44.895  19.258   0.716
98890W        W71315  22.553  36.321  11.143
98891W        W71316   3.838   9.829   4.127
98892W        W71317  41.899  10.691  11.113
98893W        W71318   3.553  29.520   0.425
98894W        W71319  39.916  42.374  10.351
98895W        W71320  40.899  31.965  12.929
98896W        W71321  27.113   4.444   3.851
98897W        W71322  22.186  24.998   3.368
98898W        W71323  20.781   6.996   4.128
98899W        W71324  41.331  30.137  13.906
98900W        W71325  31.050  37.475   3.413
98901W        W71326   4.726   1.623  14.850
98902W        W71327  30.579  37.363   2.427
98903W        W71328  15.746  29.969   0.253
98904W        W71329  18.592  39.967  13.882
98905W        W71330  11.693  30.853   2.695
98906W        W71331  34.002  13.282  11.458
98907W        W71332  11.376  11.800  12.155
98908W        W71333  33.986   7.038   3.985
98909W        W71334  25.034   3.254   4.782
98910W        W71335   5.284   6.842  12.976
98911W        W71336   5.600  36.463  12.020
98912W        W71337  19.556  41.760   3.849
98913W        W71338  27.049   1.279  11.026
98914W        W71339   0.990  25.133  12.134
98915W        W71340  17.776   7.388   1.735
98916W        W71341  38.365   5.309  10.633
98917W        W71342  22.855   8.956  12.337
98918W        W71343   0.361  41.958   4.877
98919W        W71344   1.997  20.342  11.699
98920W        W71345  11.259  14.803   0.994
98921W        W71346  21.120  19.143   0.277
98922W        W71347   6.835  16.549   4.062
98923W        W71348  33.575  36.599   0.532
98924W        W71349   6.422   1.262   4.277
98925W        W71350   2.009   6.879  13.040
98926W        W71351  36.507   1.264   1.867
98927W        W71352  22.699  35.684  13.399
98928W        W71353   3.718  30.991  14.291
98929W        W71354  15.064  28.885   4.605
98930W        W71355   7.218  27.410   3.285
98931W        W71356  11.636  18.516   4.261
98932W        W71357   5.800  30.679  13.331
98933W        W71358  33.057  19.305  14.420
98934W        W71359  27.907   1.003  11.616
98935W        W71360  44.497  12.788  14.556
98936W        W71361  39.829  28.557  14.444
98937W        W71362  44.046  38.593  11.012
98938W        W71363  38.547  36.013  13.456
98939W        W71364  41.198  25.700  11.988
98940W        W71365   6.038   6.374  11.842
98941W        W71366  24.772  12.341   0.568
98942W        W71367  21.698  19.106   1.836
98943W        W71368  33.950  29.159   3.277
98944W        W71369  30.246  18.862  11.720
98945W        W71370  42.688  33.599   0.777
98946W        W71371  22.543  23.785   1.254
98947W        W71372  39.885   9.273   2.901
98948W        W71373  34.486  30.498   4.660
98949W        W71374  43.122   8.850  10.856
98950W        W71375  11.132  19.140  13.481
98951W        W71376  40.777  36.004   4.582
98952W        W71377  10.378   0.208   4.177
98953W        W71378  39.041  12.410  12.839
98954W        W71379   7.829  35.038   1.817
98955W        W71380  29.658  27.585   4.756
98956W        W71381  40.923  44.793   4.480
98957W        W71382  10.987  12.280  12.917
98958W        W71383  19.024   3.760  12.028
98959W        W71384  22.130  43.450   0.672
98960W        W71385  14.504  15.696  10.619
98961W        W71386  41.585   2.441   3.688
98962W        W71387  36.797  11.733   3.593
98963W        W71388  20.753  17.041   0.488
98964W        W71389  36.634  21.306  12.590
98965W        W71390   9.903  14.347  14.553
98966W        W71391  22.022   1.319  12.016
98967W        W71392   5.031  20.090  10.472
98968W        W71393  35.871  12.431  11.091
98969W        W71394  30.899   9.398  12.391
98970W        W71395  41.753  34.313  14.105
98971W        W71396  30.114   0.372   0.002
98972W        W71397   4.927  42.248   2.298
98973W        W71398  13.773   4.354  12.645
98974W        W71399  30.830  25.739  12.009
98975W        W71400  34.507   0.916  12.192
98976W        W71401  11.267   9.137   3.227
98977W        W71402   1.783   9.068   0.895
98978W        W71403  11.660  30.627   3.237
98979W        W71404  40.340  10.808  11.091
98980W        W71405   0.510   5.394   3.736
98981W        W71406  37.877  17.452   0.042
98982W        W71407  28.961   2.559  12.130
98983W        W71408  34.012  28.053   3.856
98984W        W71409  33.576  18.214   4.132
98985W        W71410  22.725  23.103  12.112
98986W        W71411  12.675  22.537   2.837
98987W        W71412  17.631  33.188   1.038
98988W        W71413   0.901  16.372  11.016
98989W        W71414   8.229  42.534   3.084
98990W        W71415   0.986   7.448  13.780
98991W        W71416  37.008  17.697   4.695
98992W        W71417  11.458  25.174   4.570
98993W        W71418  36.791  26.586  14.398
98994W        W71419  12.382  23.326   4.127
98995W        W71420   8.114  33.869  12.001
98996W        W71421  21.322   0.720  14.036
98997W        W71422  18.473  16.641  11.463
98998W        W71423  15.672  22.132  11.641
98999W        W71424  26.025   8.437   3.331
99000W        W71425  21.921  40.101   1.590
99001W        W71426  23.701   6.225   3.863
99002W        W71427   4.336  35.235  11.629
99003W        W71428  19.619  27.127   0.692
99004W        W71429  16.142  18.695  13.313
99005W        W71430  18.568  44.443  11.459
99006W        W71431  14.343  39.578  14.440
99007W        W71432  44.451  18.537   3.056
99008W        W71433  23.066   6.664   4.380
99009W        W71434  35.566  16.353   2.170
99010W        W71435  27.705   6.745  10.568
99011W        W71436  32.849  42.001   1.417
99012W        W71437  40.955  16.904  11.754
99013W        W71438   7.227  41.019  10.747
99014W        W71439  39.934   9.093   4.617
99015W        W71440   9.330  19.213  12.888
99016W        W71441  13.725  33.287  10.666
99017W        W71442  38.377  32.585   3.857
99018W        W71443  16.768   2.760   0.280
99019W        W71444  26.958  15.760  13.736
99020W        W71445  28.490   3.747   2.039
99021W        W71446  36.778   0.896  12.651
99022W        W71447   2.308  20.611   0.321
99023W        W71448  24.979  37.061  12.433
99024W        W71449  20.965  42.414  14.773
99025W        W71450  28.397   1.861  12.426
99026W        W71451  38.005  32.291   3.652
99027W        W71452   0.505  14.259   2.689
99028W        W71453   6.450  42.613  11.534
99029W        W71454  35.653   5.794  13.513
99030W        W71455   0.253  40.965  14.450
99031W        W71456  34.828  31.545  13.344
99032W        W71457  28.791  38.372   1.831
99033W        W71458  19.718  32.137  12.023
99034W        W71459  11.696  24.139   2.527
99035W        W71460  36.379  20.546  12.964
99036W        W71461   6.653  15.608   4.535
99037W        W71462  27.112  19.547   3.631
99038W        W71463  35.857  18.616   3.589
99039W        W71464  36.297  14.014   4.161
99040W        W71465  32.700  20.692   0.341
99041W        W71466  19.309   0.974  10.340
99042W        W71467  10.914  26.627   2.784
99043W        W71468  23.537  42.364  11.051
99044W        W71469  28.999   6.315  10.840
99045W        W71470   6.822  13.241  14.755
99046W        W71471  21.734  19.539  13.382
99047W        W71472   2.687  27.689  13.865
99048W        W71473  26.989   6.893   3.085
99049W        W71474  27.221  25.636  14.369
99050W        W71475  30.496  37.637  14.072
99051W        W71476  21.017  38.460   0.297
99052W        W71477  33.326   1.131  12.141
99053W        W71478  32.657  41.372  13.683
99054W        W71479  32.396   8.277  12.458
99055W        W71480  26.169   8.183  10.714
99056W        W71481  27.110  25.905  11.056
99057W        W71482  12.217  40.301   2.356
99058W        W71483  33.285  36.561   3.397
99059W        W71484  32.106  18.342  10.151
99060W        W71485  39.726  10.149   3.896
99061W        W71486  11.159  27.136   4.689
99062W        W71487   4.413  25.499  14.318
99063W        W71488  42.786  38.736   4.219
99064W        W71489  26.456  20.768  14.333
99065W        W71490  44.841   7.257   3.571
99066W        W71491  13.191   9.879   1.020
99067W        W71492  37.874  10.417  12.012
99068W        W71493  34.521  17.262  10.699
99069W        W71494  35.044  27.940   1.887
99070W        W71495  11.080  25.439  12.133
99071W        W71496   0.857  41.092  11.041
99072W        W71497   8.881  23.653  13.560
99073W        W71498  22.298   3.883  12.383
99074W        W71499  19.537  13.733   1.379
99075W        W71500  36.299   6.376  13.072
99076W        W71501   6.412  41.254  10.984
99077W        W71502  29.045   4.625   3.103
99078W        W71503  40.634  39.775  12.646
99079W        W71504  35.593  44.897   0.841
99080W        W71505  15.818  24.528  10.739
99081W        W71506  19.602  33.982  10.837
99082W        W71507  34.155  33.564  13.621
99083W        W71508  33.370  43.504  12.374
99084W        W71509  12.319  44.417  12.014
99085W        W71510  13.082  44.931  13.025
99086W        W71511  27.573  17.216   4.802
99087W        W71512  42.533  17.483   1.713
99088W        W71513  24.123  23.425  11.038
99089W        W71514   3.404  20.540   2.845
99090W        W71515   5.379  33.007  13.613
99091W        W71516  29.440  43.386   4.660
99092W        W71517   6.907   3.288   1.175
99093W        W71518   5.241  28.995   0.913
99094W        W71519  14.404  28.570   2.774
99095W        W71520  10.939   4.353   0.039
99096W        W71521   7.225  13.294   2.147
99097W        W71522   4.443   1.261   2.764
99098W        W71523  33.145  17.527  11.182
99099W        W71524   1.841   8.742  14.079
99100W        W71525  13.887   5.176   1.930
99101W        W71526  22.493  13.468  11.967
99102W        W71527  23.138  22.271   4.871
99103W        W71528  36.888  36.463  10.674
99104W        W71529  27.597  34.667   2.498
99105W        W71530  12.083   7.941   1.785
99106W        W71531  19.374  17.174  14.944
99107W        W71532   2.032   3.375   1.021
99108W        W71533  30.035  22.793  13.980
99109W        W71534  10.917  11.814  11.934
99110W        W71535  19.258  27.681   0.714
99111W        W71536  14.278  40.770   3.686
99112W        W71537  24.613  31.939   0.452
99113W        W71538  41.813  28.593   3.753
99114W        W71539  35.331  19.995   0.772
99115W        W71540  18.581  14.775   0.425
99116W        W71541  11.702  44.991   2.571
99117W        W71542  30.944  16.818  11.437
99118W        W71543  41.003  25.194   2.456
99119W        W71544  17.798   8.391  14.275
99120W        W71545  14.699  37.430  11.490
99121W        W71546  31.305  17.562  11.888
99122W        W71547  25.708  11.707   3.596
99123W        W71548  28.235  37.191   4.218
99124W        W71549  21.029  30.554  11.159
99125W        W71550  35.483  35.563  10.543
99126W        W71551  24.487  30.564  10.688
99127W        W71552  30.959   3.826   3.992
99128W        W71553  31.104  30.706   4.669
99129W        W71554  12.653  41.285   2.919
99130W        W71555  15.607   7.022   0.828
99131W        W71556  24.966  33.904   2.267
99132W        W71557  26.250  35.199  10.677
99133W        W71558  32.959   3.619   0.446
99134W        W71559  44.120  13.254  13.590
99135W        W71560   8.363  25.263  12.117
99136W        W71561  21.642  35.585  14.496
99137W        W71562  14.598  24.958   4.980
99138W        W71563  18.519  12.291  10.861
99139W        W71564  20.590  10.168  10.993
99140W        W71565   9.052  38.543  13.855
99141W        W71566  38.431  34.434   0.511
99142W        W71567  12.874   1.053  13.021
99143W        W71568  32.198  23.984   1.799
99144W        W71569  28.306  11.166  11.516
99145W        W71570  10.584  35.562  11.998
99146W        W71571  38.541  30.111   4.017
99147W        W71572  19.462   7.440  13.417
99148W        W71573  30.462   6.356   2.181
99149W        W71574  20.074   7.451   0.017
99150W        W71575  36.408   9.718   0.423
99151W        W71576  15.724  34.635   2.770
99152W        W71577   5.266  20.048   4.546
99153W        W71578  13.872  38.002  13.418
99154W        W71579  10.596  31.006  12.609
99155W        W71580  16.806  42.484   2.730
99156W        W71581  25.970  17.149   3.279
99157W        W71582   8.368  19.054   0.861
99158W        W71583   6.238  31.656  11.080
99159W        W71584  34.911  33.368   3.651
99160W        W71585   0.963   6.336  10.925
99161W        W71586  10.742  10.532   4.182
99162W        W71587   2.369  33.237   2.368
99163W        W71588  22.726  28.313   5.029
99164W        W71589  20.026   4.462   2.220
99165W        W71590  38.993  18.773  12.311
99166W        W71591   4.297   0.773  14.253
99167W        W71592  23.751   9.455  14.964
99168W        W71593  11.352  18.735   3.436
99169W        W71594   1.005  32.021   2.826
99170W        W71595  17.348  11.669   2.758
99171W        W71596  12.092  11.608  10.540
99172W        W71597   5.283   3.915   2.626
99173W        W71598  40.078  27.705   1.730
99174W        W71599  31.852   6.221  11.145
99175W        W71600  14.735  28.615   2.368
99176W        W71601  32.117  12.383  11.444
99177W        W71602  19.170   4.601   3.159
99178W        W71603  40.972  37.748   3.604
99179W        W71604  12.241  16.356  10.545
99180W        W71605  32.942  17.775   4.723
99181W        W71606  20.053  41.450   0.782
99182W        W71607  36.516  29.446   1.288
99183W        W71608   5.784  31.116   4.121
99184W        W71609   9.870   1.293  13.044
99185W        W71610  37.181  14.864  14.873
99186W        W71611  17.578  41.262  11.304
99187W        W71612  14.513  21.064  10.808
99188W        W71613  16.559   6.151   2.424
99189W        W71614  14.117   6.923  10.726
99190W        W71615  42.741  16.775   0.775
99191W        W71616  32.961   3.380   4.141
99192W        W71617  35.844  37.800   1.339
99193W        W71618  26.131   8.603  13.478
99194W        W71619  16.580  34.419   4.677
99195W        W71620  41.365  41.362   2.324
99196W        W71621  39.070   6.303   4.534
99197W        W71622  32.825  13.548  12.569
99198W        W71623  11.450  26.599   1.303
99199W        W71624   2.817  17.622   4.537
99200W        W71625  15.203   0.909   3.884
99201W        W71626   3.860  22.402   0.335
99202W        W71627  40.628  26.669   2.456
99203W        W71628  43.195  27.299   3.750
99204W        W71629  27.333  27.351   0.888
99205W        W71630  30.628   6.772   0.374
99206W        W71631  29.325  19.899  10.574
99207W        W71632  22.238  20.076  12.065
99208W        W71633  12.484  37.524  13.506
99209W        W71634   6.933  20.107   1.766
99210W        W71635  12.600   6.433   4.656
99211W        W71636  27.464  11.621  13.032
99212W        W71637  29.526  29.585   1.673
99213W        W71638  34.161   0.204  13.432
99214W        W71639  11.242  19.246   4.173
99215W        W71640   7.256   0.465   4.589
99216W        W71641  40.823  42.576   0.636
99217W        W71642  19.471  18.751  12.608
99218W        W71643  15.281  24.327  12.940
99219W        W71644   1.332  42.294   3.519
99220W        W71645  11.502  36.133   9.874
99221W        W71646  30.145  28.027  10.889
99222W        W71647  31.914  40.558   2.841
99223W        W71648  34.091  44.543  11.143
99224W        W71649  22.713  24.207   4.019
99225W        W71650   6.387  19.578   3.957
99226W        W71651  18.066  18.591  11.660
99227W        W71652  33.928  33.732   0.422
99228W        W71653   2.215  30.947  10.702
99229W        W71654   4.213  24.699  11.998
99230W        W71655  18.204  10.361  10.866
99231W        W71656  42.945  34.843   1.321
99232W        W71657  30.187  39.940   3.149
99233W        W71658  28.144  32.835   2.112
99234W        W71659  39.038  42.545  13.530
99235W        W71660  19.868   7.358  11.563
99236W        W71661  23.046   6.168  12.083
99237W        W71662  19.606  26.758  13.428
99238W        W71663  36.489  23.845   2.891
99239W        W71664   2.634   9.674   0.791
99240W        W71665  22.017  34.226   0.692
99241W        W71666  34.466  44.037   3.630
99242W        W71667   7.277   7.582  10.720
99243W        W71668  40.679  27.171   4.174
99244W        W71669  33.215  34.483  10.934
99245W        W71670  23.584  16.350  12.580
99246W        W71671  43.188  15.023   0.336
99247W        W71672   5.685  16.636  10.609
99248W        W71673  13.564  38.608   1.166
99249W        W71674  18.107   1.462   4.251
99250W        W71675  19.154  35.471   4.200
99251W        W71676  16.271  30.192  14.978
99252W        W71677  19.695  31.519  11.157
99253W        W71678  28.201  19.107  13.565
99254W        W71679  34.517   9.344   3.121
99255W        W71680  32.608  14.103  10.650
99256W        W71681  35.851  15.755   0.443
99257W        W71682   3.743  15.304   2.959
99258W        W71683  22.768  27.405   1.053
99259W        W71684   2.917  16.065  14.758
99260W        W71685  13.653  29.066  13.340
99261W        W71686   3.940  28.135   0.701
99262W        W71687  40.410  19.995  12.008
99263W        W71688   9.417  25.973   1.875
99264W        W71689  11.232  11.068   1.381
99265W        W71690  40.337  30.565   0.250
99266W        W71691  14.744  13.686   1.305
99267W        W71692   2.621  41.721  14.009
99268W        W71693  39.497  18.736  12.075
99269W        W71694  10.734  36.483  11.881
99270W        W71695   9.670   0.747   4.023
99271W        W71696   9.405   3.908   4.415
99272W        W71697  23.650  25.696   0.875
99273W        W71698  33.334  18.164   2.718
99274W        W71699  27.103   7.423  11.919
99275W        W71700  32.431  25.685   1.716
99276W        W71701  43.973  32.914  10.560
99277W        W71702  14.635  10.364   1.905
99278W        W71703  27.947  42.135  14.876
99279W        W71704   0.013   2.856   3.571
99280W        W71705   5.942   6.964   2.667
99281W        W71706  12.326  41.762   3.601
99282W        W71707   1.716   6.142   3.039
99283W        W71708  13.601  40.199   1.936
99284W        W71709   0.315  16.947  12.987
99285W        W71710   1.236  37.903  11.583
99286W        W71711  25.660  40.915   0.942
99287W        W71712  38.141  29.552   0.422
99288W        W71713  29.561   6.228  14.336
99289W        W71714   5.916  44.362  14.966
99290W        W71715   0.633  42.882  14.656
99291W        W71716  29.111  24.402   2.597
99292W        W71717  27.953  41.041   3.392
99293W        W71718  41.926   3.864   4.742
99294W        W71719  10.186  43.761   3.275
99295W        W71720   9.317  33.309  11.703
99296W        W71721   0.906  33.930   4.134
99297W        W71722  26.013  17.475  13.158
99298W        W71723  22.482  26.901   4.937
99299W        W71724   3.853  32.317  12.386
99300W        W71725  43.306   9.942   1.358
99301W        W71726  26.516  16.396   2.324
99302W        W71727  35.002   0.967  12.304
99303W        W71728  29.898  14.547  12.967
99304W        W71729  37.888  23.643  10.160
99305W        W71730  27.740  17.597   4.516
99306W        W71731  16.806   2.306   4.203
99307W        W71732  16.286  11.375  13.130
99308W        W71733  16.378   3.164   9.971
99309W        W71734   7.650  28.702   1.409
99310W        W71735  15.045  11.121   0.400
99311W        W71736  28.467  40.647  10.681
99312W        W71737  17.048   8.160   4.922
99313W        W71738  25.550  23.784   4.190
99314W        W71739  34.978  23.600   0.264
99315W        W71740  13.219   1.236  14.577
99316W        W71741  24.451   5.912   2.810
99317W        W71742  27.312  34.559  11.887
99318W        W71743   9.946  40.158   3.157
99319W        W71744  37.252  16.197   4.267
99320W        W71745   9.413   1.630  12.118
99321W        W71746  26.453  20.082  13.782
99322W        W71747  33.169  30.602   3.978
99323W        W71748  22.802  40.006  11.285
99324W        W71749  20.705  10.173   3.291
99325W        W71750  21.143  29.536  13.977
99326W        W71751  12.977  36.865   4.115
99327W        W71752  35.399  27.560   1.365
99328W        W71753  39.368  23.248  11.959
99329W        W71754  18.790  15.685   1.390
99330W        W71755  32.328   1.872  10.712
99331W        W71756  44.730  35.775  10.570
99332W        W71757  31.347   1.667  10.603
99333W        W71758  30.652   6.241  10.605
99334W        W71759  31.411   8.116   1.825
99335W        W71760  28.553   7.749   4.828
99336W        W71761  27.737   2.630  13.537
99337W        W71762  24.975  28.234   3.574
99338W        W71763  34.470   4.637  11.003
99339W        W71764  19.267  43.649  14.012
99340W        W71765  30.386   1.356  10.972
99341W        W71766   2.397  41.026  11.722
99342W        W71767   1.358  43.836   1.874
99343W        W71768  19.224  39.627  14.408
99344W        W71769   6.792  25.907   3.927
99345W        W71770   7.828  37.995  13.663
99346W        W71771   3.897  41.867  11.655
99347W        W71772  17.203   4.910  12.831
99348W        W71773  27.853  17.633  12.638
99349W        W71774  23.606  38.109  11.247
99350W        W71775  27.756  26.245  10.365
99351W        W71776  19.572   2.015  11.996
99352W        W71777  24.178  42.318   2.242
99353W        W71778  25.568  25.491   1.260
99354W        W71779  36.265  10.734  11.288
99355W        W71780   5.854  29.069   2.293
99356W        W71781  37.058   8.662   1.860
99357W        W71782  42.600  10.225  14.866
99358W        W71783  29.373  26.914   3.720
99359W        W71784   9.150   6.425   3.725
99360W        W71785  32.714  20.155   2.679
99361W        W71786   1.194  27.162  13.046
99362W        W71787  44.932  24.472   3.226
99363W        W71788  26.188   1.732  13.742
99364W        W71789  22.790   6.165  13.747
99365W        W71790  28.235  15.570   3.724
99366W        W71791  33.728  24.016   0.950
99367W        W71792  37.661  18.273  14.563
99368W        W71793  38.846  30.465  14.325
99369W        W71794  16.865   2.742   2.040
99370W        W71795   2.970  38.613   4.334
99371W        W71796  30.991   8.920   2.980
99372W        W71797  43.328  15.738  12.190
99373W        W71798  34.072  41.801   3.318
99374W        W71799  13.678  42.009  12.599
99375W        W71800  26.645   5.515   2.606
99376W        W71801  20.292   1.040  11.690
99377W        W71802  35.426  29.071  14.780
99378W        W71803  19.287  36.408   1.761
99379W        W71804  12.121  39.740   4.433
99380W        W71805  21.042  21.150  14.304
99381W        W71806  17.930  13.688   3.356
99382W        W71807  14.538  19.098   0.463
99383W        W71808  12.279  23.739  11.993
99384W        W71809  34.011  42.545   4.121
99385W        W71810   2.619   4.867   4.652
99386W        W71811   5.938  12.063  14.293
99387W        W71812   6.145  12.250  12.776
99388W        W71813  27.026   9.728   4.674
99389W        W71814  29.651  11.727   4.106
99390W        W71815  10.393  39.880  12.564
99391W        W71816  24.767   6.499  14.259
99392W        W71817  40.296  32.972   3.856
99393W        W71818  30.916  10.048   0.752
99394W        W71819  37.976   7.563   5.143
99395W        W71820   8.932  39.838   3.217
99396W        W71821  18.149  10.763  13.002
99397W        W71822  22.834  24.130   2.736
99398W        W71823  14.706  42.319  11.673
99399W        W71824  15.348  29.599   1.747
99400W        W71825  28.511  24.881   1.130
99401W        W71826  39.035  25.656   4.020
99402W        W71827  35.443  16.417   4.665
99403W        W71828  24.226  20.135   1.425
99404W        W71829  40.177  36.103  11.561
99405W        W71830  40.188  43.104  12.220
99406W        W71831  32.914  35.502   4.081
99407W        W71832  10.465   3.229   2.301
99408W        W71833  42.426   9.706   1.937
99409W        W71834  25.723  42.597   4.124
99410W        W71835  27.440  38.382   2.086
99411W        W71836  30.219   0.853   3.071
99412W        W71837  42.884   8.859  11.834
99413W        W71838   2.237  43.798   1.775
99414W        W71839  18.613  21.413   3.778
99415W        W71840   0.669  12.803   2.893
99416W        W71841  39.867  37.839   0.808
99417W        W71842  33.028  10.845  12.036
99418W        W71843  39.548  11.647   3.230
99419W        W71844  31.068  11.136  10.868
99420W        W71845  16.495  10.907  12.461
99421W        W71846  13.170  24.624   3.369
99422W        W71847  13.222  27.640   3.469
99423W        W71848  30.000  19.942  10.360
99424W        W71849  30.054   1.441  14.348
99425W        W71850  14.257  40.282   1.374
99426W        W71851  36.628  17.677  11.667
99427W        W71852  25.684  36.561  11.101
99428W        W71853  35.997  42.778  12.015
99429W        W71854  20.443  40.644   1.884
99430W        W71855   4.103  20.260  12.470
99431W        W71856  27.475  10.517  12.796
99432W        W71857   0.895  30.599  14.425
99433W        W71858  41.341  35.995   0.548
99434W        W71859  43.431  14.386   1.819
99435W        W71860   1.885   8.887   1.918
99436W        W71861   7.282   6.924   4.125
99437W        W71862  13.790  31.886   4.104
99438W        W71863  27.650   5.935   2.305
99439W        W71864  34.508   2.296   1.185
99440W        W71865   8.636  43.391   0.398
99441W        W71866  37.536  16.695   0.413
99442W        W71867  23.457   4.132  11.965
99443W        W71868  10.415  42.467   1.328
99444W        W71869  18.788  20.724  13.371
99445W        W71870  10.286   8.410  14.231
99446W        W71871   2.207  41.755  11.178
99447W        W71872  44.750  36.516  11.109
99448W        W71873   8.250   6.809   5.270
99449W        W71874  29.666  36.405   0.626
99450W        W71875  22.251  16.895   3.854
99451W        W71876  16.063  11.650   0.339
99452W        W71877  15.863   2.842  11.166
99453W        W71878   4.286  30.951  13.996
99454W        W71879  25.406  33.587   3.567
99455W        W71880   0.095   0.416  13.537
99456W        W71881   7.092  18.499  11.093
99457W        W71882  15.394   8.115  10.976
99458W        W71883  32.807  31.621   2.221
99459W        W71884  35.356  37.442   1.757
99460W        W71885   9.689   4.019  10.708
99461W        W71886  32.389  23.196  13.576
99462W        W71887   5.874  11.848  11.323
99463W        W71888  13.768  42.821   1.767
99464W        W71889  16.209  27.909   0.370
99465W        W71890  30.504  26.532   2.755
99466W        W71891   6.206  36.666   3.389
99467W        W71892  44.597  36.049  11.299
99468W        W71893   4.951  28.481   4.669
99469W        W71894  23.253  17.682  13.643
99470W        W71895  30.438  35.065  14.696
99471W        W71896  17.557  13.669   0.902
99472W        W71897  15.257  20.184   2.739
99473W        W71898  33.504   6.660  10.220
99474W        W71899  22.150  10.186  10.511
99475W        W71900   8.207  40.226  10.366
99476W        W71901  31.048  31.476  12.764
99477W        W71902   6.627  44.821   0.433
99478W        W71903  31.078  39.398   1.029
99479W        W71904  38.948  32.153   0.419
99480W        W71905  40.947  19.366   2.187
99481W        W71906   0.396  43.267  14.396
99482W        W71907  42.563  24.318   1.289
99483W        W71908  43.950  20.497  13.076
99484W        W71909  41.954  32.088   4.606
99485W        W71910   0.865  20.824   4.573
99486W        W71911  23.486  20.735   3.925
99487W        W71912  44.279   2.967   4.549
99488W        W71913  25.579  32.525   1.502
99489W        W71914   2.367  15.357  13.652
99490W        W71915  43.584  21.793  12.519
99491W        W71916  26.616   4.426  10.650
99492W        W71917   6.266  44.930  14.931
99493W        W71918  38.504  37.899   3.714
99494W        W71919   4.530   9.399  11.756
99495W        W71920  32.703   6.919  14.486
99496W        W71921  40.485  33.481   4.026
99497W        W71922  27.591  23.244  11.614
99498W        W71923   3.175  39.108  13.748
99499W        W71924   2.741  30.045   1.900
99500W        W71925   0.505   8.252   0.791
99501W        W71926  15.344  18.268   3.342
99502W        W71927   4.913  37.375   3.156
99503W        W71928  14.719  17.269   0.074
99504W        W71929  29.808   2.376   4.205
99505W        W71930  27.614   2.176   2.062
99506W        W71931   0.064  33.670  11.102
99507W        W71932  24.729  29.955   3.389
99508W        W71933  30.521   7.308  10.920
99509W        W71934  26.997  38.427  14.222
99510W        W71935   6.702  11.299   4.047
99511W        W71936  44.722  27.145  14.957
99512W        W71937  19.671   5.448   0.717
99513W        W71938  10.217  36.533  11.953
99514W        W71939  11.447  25.492   1.938
99515W        W71940   5.033  33.642  10.645
99516W        W71941   9.623  31.171  14.387
99517W        W71942   5.380   7.051   3.036
99518W        W71943  35.068  27.092  14.733
99519W        W71944  27.515  36.278  13.630
99520W        W71945  35.861  25.034  12.450
99521W        W71946  17.368  36.374  14.393
99522W        W71947   8.196  35.331   3.326
99523W        W71948  13.302  42.513   0.889
99524W        W71949  10.402  35.384  10.479
99525W        W71950  25.638  24.666  10.523
99526W        W71951  27.454   8.312   1.096
99527W        W71952  28.868   2.747  11.624
99528W        W71953  29.986  13.437   2.623
99529W        W71954  31.955  40.546   4.623
99530W        W71955   5.742  30.162   2.734
99531W        W71956  28.396  41.725  11.629
99532W        W71957  20.601  17.804   1.512
99533W        W71958  21.151  22.652  11.374
99534W        W71959  23.817  27.167  13.524
99535W        W71960  44.074  23.195   1.360
99536W        W71961  19.378  17.714  10.894
99537W        W71962  30.012  37.489   1.344
99538W        W71963  44.858  34.133   3.765
99539W        W71964  17.806  42.297   0.193
99540W        W71965   2.031  29.259  12.108
99541W        W71966   1.662   2.264   2.434
99542W        W71967  15.834  33.231   2.252
99543W        W71968  29.507  16.768   2.184
99544W        W71969  38.996  23.178  11.087
99545W        W71970   7.383  25.103  10.515
99546W        W71971   6.438   1.880  12.115
99547W        W71972  25.644  43.300   4.670
99548W        W71973  38.743   7.673   3.806
99549W        W71974  28.220  43.270  10.974
99550W        W71975  31.686  34.315   3.965
99551W        W71976  41.311   3.941  10.608
99552W        W71977  34.683  34.116  11.046
99553W        W71978  22.204   4.175  13.772
99554W        W71979  14.595  25.403   2.258
99555W        W71980  16.126  32.857   0.318
99556W        W71981  16.847  15.870  13.802
99557W        W71982  35.101  23.729   5.417
99558W        W71983  32.909  10.740  13.760
99559W        W71984  30.502   9.592  10.568
99560W        W71985   4.468  10.370  11.276
99561W        W71986  14.629  44.001   4.423
99562W        W71987  39.538  43.884  12.887
99563W        W71988  38.526  30.562  12.993
99564W        W71989  22.050  41.754   1.263
99565W        W71990  34.851  24.185  12.917
99566W        W71991   4.639  18.711   3.977
99567W        W71992   2.206   6.319  11.236
99568W        W71993  10.255   5.236  13.776
99569W        W71994  25.503  31.142   0.771
99570W        W71995   9.236  31.900   4.214
99571W        W71996  27.533   4.107  11.673
99572W        W71997  41.763  32.906  11.994
99573W        W71998  34.807   4.362  10.408
99574W        W71999  41.280  22.228  13.050
99575W        W72000  40.119   3.324  13.782
99576W        W72001   6.456  37.373  10.220
99577W        W72002  42.800  14.630   4.378
99578W        W72003  42.022  40.993   1.836
99579W        W72004  39.635   9.164   2.252
99580W        W72005  25.265  32.805   0.199
99581W        W72006  24.556   4.631  10.227
99582W        W72007  22.731  28.844   4.115
99583W        W72008  33.440  13.818   0.507
99584W        W72009  12.640  14.120   0.940
99585W        W72010   1.256  41.419  11.080
99586W        W72011  43.409  40.745   0.805
99587W        W72012  16.618  27.998   4.183
99588W        W72013   8.437  17.340   2.848
99589W        W72014  11.647  41.218   1.959
99590W        W72015  44.720  13.299  12.420
99591W        W72016  38.476  39.849  12.868
99592W        W72017  25.346  12.088  11.014
99593W        W72018  44.057  29.523  14.994
99594W        W72019  12.249   6.974   1.734
99595W        W72020  11.166  35.394  13.320
99596W        W72021  41.664  40.887   4.920
99597W        W72022  12.429  31.432   0.419
99598W        W72023  31.467  32.047  13.399
99599W        W72024  17.666  35.635   0.004
99600W        W72025  36.483  16.283  11.105
99601W        W72026  31.458  20.399  11.304
99602W        W72027   3.460  21.708   4.075
99603W        W72028  14.959  21.935  12.385
99604W        W72029  10.800  36.509   0.716
99605W        W72030  20.961  10.841   1.623
99606W        W72031  43.296   8.896   1.292
99607W        W72032  22.496   1.521  11.912
99608W        W72033  42.996  34.950  10.849
99609W        W72034   4.728  38.335  10.867
99610W        W72035  21.314  27.378  13.538
99611W        W72036   9.643  44.034  11.423
99612W        W72037  22.943  37.786  13.505
99613W        W72038  27.897  13.094   4.647
99614W        W72039   1.298  41.365   1.876
99615W        W72040  10.223  22.265   0.387
99616W        W72041  17.085  42.046  14.269
99617W        W72042  40.693  41.723  13.361
99618W        W72043  29.267   4.534  11.089
99619W        W72044  14.793  27.575  12.603
99620W        W72045  19.419  15.799   0.749
99621W        W72046   3.266  20.252  11.249
99622W        W72047  13.134  31.177   1.872
99623W        W72048  35.436  26.075  10.708
99624W        W72049  37.787  31.110  13.084
99625W        W72050  14.104  31.518   3.935
99626W        W72051  40.287   9.334   1.142
99627W        W72052  12.893  11.186  11.880
99628W        W72053   6.586  44.111   1.262
99629W        W72054  14.044  32.847   0.081
99630W        W72055  27.603  21.747   4.305
99631W        W72056  20.158  34.912   4.732
99632W        W72057  31.966  43.993   4.298
99633W        W72058  32.064   6.089   3.436
99634W        W72059  25.643  33.115   1.779
99635W        W72060  37.094  40.848  12.922
99636W        W72061   3.468  39.321  11.531
99637W        W72062  24.687  16.610  13.535
99638W        W72063  17.559   4.840  10.890
99639W        W72064  27.234  25.349  12.845
99640W        W72065  39.285   3.069   4.191
99641W        W72066  22.681   3.491   2.243
99642W        W72067   1.420  16.035  14.747
99643W        W72068  39.145  10.199   2.262
99644W        W72069  16.520  21.280   4.963
99645W        W72070  32.377  30.128  12.092
99646W        W72071  26.898  42.873   0.369
99647W        W72072   4.399   5.713  13.827
99648W        W72073   5.651   0.859  12.889
99649W        W72074  16.079   1.016  10.140
99650W        W72075  23.087  36.347   0.438
99651W        W72076   4.823  26.183   3.687
99652W        W72077  36.408  13.560   3.437
99653W        W72078  39.335  35.012  14.125
99654W        W72079  22.177  42.241   0.351
99655W        W72080  18.334   7.532  12.979
99656W        W72081  43.026  15.999   2.675
99657W        W72082   8.295  41.930  13.490
99658W        W72083  18.608  29.112  13.429
99659W        W72084  32.585  23.682  11.106
99660W        W72085  18.750  31.434  12.138
99661W        W72086  31.536  40.526  13.639
99662W        W72087   7.522  43.460  11.491
99663W        W72088  23.563  24.934   2.289
99664W        W72089  11.052  29.497   1.898
99665W        W72090  29.984  27.988   1.027
99666W        W72091  40.514  44.169  13.338
99667W        W72092   3.480  39.554   4.018
99668W        W72093  38.575  11.571  14.720
99669W        W72094  17.416  22.233   2.827
99670W        W72095  29.715  26.673  11.479
99671W        W72096   6.211  12.060  11.705
99672W        W72097  20.626  21.534   1.804
99673W        W72098  24.794  10.699   0.999
99674W        W72099  24.067  33.861   1.349
99675W        W72100  21.786  27.497   2.797
99676W        W72101   5.239  25.637   3.273
99677W        W72102   0.813  31.721   2.258
99678W        W72103  44.023  35.691   2.367
99679W        W72104  17.309  40.983   0.781
99680W        W72105  32.300  21.135   0.760
99681W        W72106   7.302  24.573   4.141
99682W        W72107  21.132  11.054   3.746
99683W        W72108  39.854  19.636  11.399
99684W        W72109  35.120   2.378   0.536
99685W        W72110  25.946   9.656  14.273
99686W        W72111   9.079  38.038  12.848
99687W        W72112  28.827  38.096  12.148
99688W        W72113   5.314  43.240   4.758
99689W        W72114   5.769  15.840  11.002
99690W        W72115   3.350  27.295   0.297
99691W        W72116  28.666  19.979  14.573
99692W        W72117   6.778   4.805  11.514
99693W        W72118   5.464  23.087   4.623
99694W        W72119  44.764  19.018   1.176
99695W        W72120  10.672  10.299  11.391
99696W        W72121  25.562  19.981  11.245
99697W        W72122  37.820   0.046   1.631
99698W        W72123   6.415  34.650  12.857
99699W        W72124  20.477  16.565   4.569
99700W        W72125  16.327  23.405  13.911
99701W        W72126   3.922  43.479  13.829
99702W        W72127  35.129   3.639  11.603
99703W        W72128  41.036  15.946   3.594
99704W        W72129  26.716  26.311  13.786
99705W        W72130  11.278  34.983   2.371
99706W        W72131  32.153   3.936  12.404
99707W        W72132  31.083  43.923   4.685
99708W        W72133  18.588  24.803   0.802
99709W        W72134   9.431  28.562   3.995
99710W        W72135  40.995  32.155  13.425
99711W        W72136  32.076   9.137   3.241
99712W        W72137  36.949  31.306  11.526
99713W        W72138  41.762   1.893   4.593
99714W        W72139  27.626   8.933   0.327
99715W        W72140  10.738   7.873   2.788
99716W        W72141  36.139   8.910   3.854
99717W        W72142   1.546   3.010  13.072
99718W        W72143  25.195  30.488   3.241
99719W        W72144   3.868  20.598   0.260
99720W        W72145  29.316  23.342  10.757
99721W        W72146  22.378   9.244  12.106
99722W        W72147  34.349  18.638  14.211
99723W        W72148  24.128  10.166   5.451
99724W        W72149  31.117   7.360  14.866
99725W        W72150  17.553  12.174  14.287
99726W        W72151  44.509  12.089   3.235
99727W        W72152  16.660  35.923  12.442
99728W        W72153   2.827   8.097  14.279
99729W        W72154  19.842  25.271   2.404
99730W        W72155   6.214   3.737   1.468
99731W        W72156  30.663  16.730   0.790
99732W        W72157  15.338  24.511  10.574
99733W        W72158  26.962  26.188   1.268
99734W        W72159  16.007  14.635  14.967
99735W        W72160  22.995  41.060  13.083
99736W        W72161  23.593  24.233  13.400
99737W        W72162  43.531  35.340  13.383
99738W        W72163   9.858  11.911   0.759
99739W        W72164  23.172  44.279  13.571
99740W        W72165  16.203  32.391   3.282
99741W        W72166  20.094   2.013  12.048
99742W        W72167   9.701   4.501  14.318
99743W        W72168  16.335  42.303   2.509
99744W        W72169   4.261   1.562   3.217
99745W        W72170   6.720  19.684   2.654
99746W        W72171   5.857  31.190  13.406
99747W        W72172  21.949  16.277   2.220
99748W        W72173  30.187   3.876  13.605
99749W        W72174  28.082  20.182   0.160
99750W        W72175  29.601  19.764   2.367
99751W        W72176   7.698   6.645  10.344
99752W        W72177  26.633  44.103   0.332
99753W        W72178  44.996  29.326   3.616
99754W        W72179  21.007  41.920  14.458
99755W        W72180  24.692  37.852  10.431
99756W        W72181  21.169  14.121  14.330
99757W        W72182  35.960  40.529   2.784
99758W        W72183   6.290   1.889  11.568
99759W        W72184  20.047  22.209  12.397
99760W        W72185  12.713  18.555  14.057
99761W        W72186  37.340   7.919   0.831
99762W        W72187   3.637  11.799  14.817
99763W        W72188  22.261  37.110  11.430
99764W        W72189   7.869  13.895   5.022
99765W        W72190  19.453  23.584  14.068
99766W        W72191  12.791  44.794   1.670
99767W        W72192  37.023  15.096  10.400
99768W        W72193  17.244  36.439  13.293
99769W        W72194  35.916  22.062  12.889
99770W        W72195   3.708  17.130   9.999
99771W        W72196   2.822   0.969  11.409
99772W        W72197  18.229  20.570   2.983
99773W        W72198  30.605   5.881   0.774
99774W        W72199   7.217   4.962   2.662
99775W        W72200  33.495   7.504   2.751
99776W        W72201  12.910  34.936   3.957
99777W        W72202  15.738   8.846  12.185
99778W        W72203   6.397  41.032  13.971
99779W        W72204   3.759  23.446   3.658
99780W        W72205  30.835  41.420  13.794
99781W        W72206  33.695  15.186  12.899
99782W        W72207  40.544  36.791   0.342
99783W        W72208   4.905   6.339  13.428
99784W        W72209   1.016  23.753  11.617
99785W        W72210   3.960  13.256   4.655
99786W        W72211   9.915  28.435   3.849
99787W        W72212  26.539  15.223  14.295
99788W        W72213  44.195  13.767  12.081
99789W        W72214  31.469  28.715   4.216
99790W        W72215  44.570   9.284   3.227
99791W        W72216   8.476  10.647   3.867
99792W        W72217  21.227  17.903   0.711
99793W        W72218  13.210  37.656  11.975
99794W        W72219  21.691   6.277  14.383
99795W        W72220  26.120  29.503  10.678
99796W        W72221  16.231   6.574  14.307
99797W        W72222  42.324   1.400   4.244
99798W        W72223  11.650  16.596   0.279
99799W        W72224  37.912  37.937   1.529
99800W        W72225  11.851  39.267   5.139
99801W        W72226  13.206  44.390   3.367
99802W        W72227  35.579  44.348   2.847
99803W        W72228  24.878  14.775   1.401
99804W        W72229  30.425  22.459  13.882
99805W        W72230  22.629  35.078  11.437
99806W        W72231  30.183  25.685  14.660
99807W        W72232  12.146  22.631   0.586
99808W        W72233   0.299  35.901   1.845
99809W        W72234  30.746  15.716   2.859
99810W        W72235  23.078  41.330  11.973
99811W        W72236   6.387   7.387  13.453
99812W        W72237   8.276  26.703  12.650
99813W        W72238  17.219  20.133  13.390
99814W        W72239  20.156  29.668  10.048
99815W        W72240  33.974  27.303   2.663
99816W        W72241  35.572   7.439  14.516
99817W        W72242  41.702  18.407   4.239
99818W        W72243  20.027  13.748   4.636
99819W        W72244  34.849  32.039   0.827
99820W        W72245  27.623  21.146  13.081
99821W        W72246  42.676  13.730   4.481
99822W        W72247  32.824   4.554  13.361
99823W        W72248  18.411  31.179   1.445
99824W        W72249   5.793  34.010   1.819
99825W        W72250  40.095  40.202  14.121
99826W        W72251  36.724  14.269   4.087
99827W        W72252  36.120  12.315   3.355
99828W        W72253  13.445   6.180  12.528
99829W        W72254  23.762  40.564   4.819
99830W        W72255  19.817  23.172   0.279
99831W        W72256  27.885  33.405  14.021
99832W        W72257  30.579  26.372   1.268
99833W        W72258  35.009  16.159  14.562
99834W        W72259  37.329  22.979   1.820
99835W        W72260  26.456  31.044   3.920
99836W        W72261  11.161  28.984   1.667
99837W        W72262  20.448  13.743   4.271
99838W        W72263   4.962  21.497  14.328
99839W        W72264  31.707  43.355   4.905
99840W        W72265  24.673   5.047   2.725
99841W        W72266  12.836  38.438  12.566
99842W        W72267  13.565   1.411   0.466
99843W        W72268  28.212  21.112  14.418
99844W        W72269  24.510  16.309  11.444
99845W        W72270  21.036  42.059   4.629
99846W        W72271  30.694  20.238  10.565
99847W        W72272  15.305  37.523   3.261
99848W        W72273  36.773  33.420  14.876
99849W        W72274  10.686   2.268   1.665
99850W        W72275  34.377   8.110  10.897
99851W        W72276  19.816   2.791   2.778
99852W        W72277   6.395  14.880  14.101
99853W        W72278  44.920  14.545  11.918
99854W        W72279   3.249   2.909   3.183
99855W        W72280   0.831  28.863   1.928
99856W        W72281  14.375  20.781   3.003
99857W        W72282  16.786  11.413  14.486
99858W        W72283  23.972  24.799  11.571
99859W        W72284  22.034   9.163  11.241
99860W        W72285  30.533  11.232   1.782
99861W        W72286  39.465  10.787   1.238
99862W        W72287  12.298  23.311  13.896
99863W        W72288  22.825   5.118  11.676
99864W        W72289  13.333   9.565  14.619
99865W        W72290  11.249   4.399   2.382
99866W        W72291  27.695  16.336   4.582
99867W        W72292  18.142   4.606  14.275
99868W        W72293  31.162  20.620   0.478
99869W        W72294  16.066   0.459   0.244
99870W        W72295   1.281   0.805   2.747
99871W        W72296  43.940   3.893  11.036
99872W        W72297  16.250  14.665   2.904
99873W        W72298   7.228  12.760   4.688
99874W        W72299  13.851  31.124  13.310
99875W        W72300  23.699   3.864  11.196
99876W        W72301  33.122  34.436   1.631
99877W        W72302   2.203  39.065  14.448
99878W        W72303  33.867  13.293  12.541
99879W        W72304  14.327   7.759  11.067
99880W        W72305  18.559  17.615   4.402
99881W        W72306   9.733  43.236  14.002
99882W        W72307  12.375   0.245  11.525
99883W        W72308  39.332  12.844  10.644
99884W        W72309  39.386  35.997  14.509
99885W        W72310   7.706  33.686   1.945
99886W        W72311  12.640   9.682  13.876
99887W        W72312  33.143   7.605  11.146
99888W        W72313  28.612  37.600  14.560
99889W        W72314  27.912  30.431   2.802
99890W        W72315  21.305   2.926   0.240
99891W        W72316  29.094  41.257   1.838
99892W        W72317   0.353  33.363  12.912
99893W        W72318  14.042  21.790  12.558
99894W        W72319   3.074  37.019  12.549
99895W        W72320  18.194   8.733   2.028
99896W        W72321  23.175  20.956   2.664
99897W        W72322  17.064  41.416   4.530
99898W        W72323  11.406   6.757  13.031
99899W        W72324  35.886  28.434  11.600
99900W        W72325  42.853  15.392   0.249
99901W        W72326  27.716  12.215  12.490
99902W        W72327  29.478  11.033  11.102
99903W        W72328  18.045  15.353   0.859
99904W        W72329  32.897  28.217  11.680
99905W        W72330  30.855   3.556  12.943
99906W        W72331   9.444   7.872   2.235
99907W        W72332  21.855  27.157   1.667
99908W        W72333  41.402  22.564   3.879
99909W        W72334  39.977  34.489   1.872
99910W        W72335   0.528  33.932   0.396
99911W        W72336   4.812  30.158  13.915
99912W        W72337  12.365   7.460  13.759
99913W        W72338  44.488   5.084   0.839
99914W        W72339  20.001  29.893   1.781
99915W        W72340  25.025  27.990   0.774
99916W        W72341  14.972  42.977  13.797
99917W        W72342  27.190  34.135   4.642
99918W        W72343  35.388  25.201   5.484
99919W        W72344  28.321   9.765  12.884
99920W        W72345  20.344  18.746   0.520
99921W        W72346   7.299  31.515  13.095
99922W        W72347  30.955   5.908  10.879
99923W        W72348  38.336  25.907  14.949
99924W        W72349  11.365  28.443   2.997
99925W        W72350  26.014  20.748   2.348
99926W        W72351  42.351  30.875  12.515
99927W        W72352  17.284  18.073  14.817
99928W        W72353  19.120   0.297  11.950
99929W        W72354   9.701   6.759  14.414
99930W        W72355  28.559  31.157  12.507
99931W        W72356  38.722  13.420  14.875
99932W        W72357   9.728  33.496  10.829
99933W        W72358  18.018  23.320  11.361
99934W        W72359  12.309  14.612  14.450
99935W        W72360   8.941  26.155  14.698
99936W        W72361   1.832  23.976  12.636
99937W        W72362   0.752  15.833   4.309
99938W        W72363  15.958   0.788   3.161
99939W        W72364  15.251  43.360  10.623
99940W        W72365  29.586  40.084  10.909
99941W        W72366  25.454  13.325   2.043
99942W        W72367  44.826  12.753   4.779
99943W        W72368  21.678  22.734  12.000
99944W        W72369  37.357  15.899  11.862
99945W        W72370  14.360  35.523  11.707
99946W        W72371  34.557  18.637   0.336
99947W        W72372   7.097  24.705  11.957
99948W        W72373  11.766  25.217  14.161
99949W        W72374  10.770  13.114   2.230
99950W        W72375  18.266  25.500   1.152
99951W        W72376  16.147   6.431   2.593
99952W        W72377  30.420  37.377  13.080
99953W        W72378  36.509   0.884  13.953
99954W        W72379  31.484  17.958  12.596
99955W        W72380  35.458  15.220  12.119
99956W        W72381   6.783  11.298  14.398
99957W        W72382  18.171  12.545   0.320
99958W        W72383  20.509   7.858  14.471
99959W        W72384  23.948  20.533   4.043
99960W        W72385  17.795  17.005  14.449
99961W        W72386   0.968  22.951  11.174
99962W        W72387  14.711  30.590   1.258
99963W        W72388  28.974  21.621   2.845
99964W        W72389  13.363  34.511  11.476
99965W        W72390   0.306   6.854  13.782
99966W        W72391  17.226  21.206   4.811
99967W        W72392  15.530  42.225   1.432
99968W        W72393   4.839  18.713   2.673
99969W        W72394  39.776   9.641  12.908
99970W        W72395  21.606  37.132  14.350
99971W        W72396  19.462  10.441  11.648
99972W        W72397   4.169  43.913   4.167
99973W        W72398  44.456  37.908  12.426
99974W        W72399  29.562  21.180  12.017
99975W        W72400  20.261  23.908   1.762
99976W        W72401  31.128   4.936  12.207
99977W        W72402  24.048  17.826  14.366
99978W        W72403   8.755   7.391  12.492
99979W        W72404  34.118  34.045   4.333
99980W        W72405  12.157  25.663   3.257
99981W        W72406  19.799  18.661  10.750
99982W        W72407  43.989   7.271   4.169
99983W        W72408  34.581  11.116   0.060
99984W        W72409   4.383  17.273   1.766
99985W        W72410  17.556  21.144   0.398
99986W        W72411  38.952  38.951   4.596
99987W        W72412  32.540  29.081  11.339
99988W        W72413   5.097   7.780  14.406
99989W        W72414  13.754  42.236   0.978
99990W        W72415  18.243  32.511   5.045
99991W        W72416  31.032  22.833  14.422
99992W        W72417  21.847   0.126  11.202
99993W        W72418  39.095  25.489   0.823
99994W        W72419  21.462   0.597   4.850
99995W        W72420  23.670  39.421  10.634
99996W        W72421  38.202  33.282   0.926
99997W        W72422   7.060  14.028  11.720
99998W        W72423  35.215  14.013  11.614
99999W        W72424  31.635  33.380  13.248
    0W        W72425   3.851  18.768  13.621
    1W        W72426  43.942  34.117  12.476
    2W        W72427  21.195  19.631  10.706
    3W        W72428  12.299  18.557   3.193
    4W        W72429  14.109   5.211   3.426
    5W        W72430   3.960  10.189  13.808
    6W        W72431   3.473   2.469  14.972
    7W        W72432   3.630   2.885  14.675
    8W        W72433  18.632  35.916  14.826
    9W        W72434  30.222  26.904   1.992
   10W        W72435  17.289  33.602  12.147
   11W        W72436  32.479  13.053  10.709
   12W        W72437   6.142  11.225   1.662
   13W        W72438  22.704  13.303   3.646
   14W        W72439  40.348  38.946  13.593
   15W        W72440  31.597  18.138  11.582
   16W        W72441  39.045  16.568  10.721
   17W        W72442  15.388  22.159  13.394
   18W        W72443   8.323  25.575  14.354
   19W        W72444  20.819  17.328   0.070
   20W        W72445  13.808  38.023   4.063
   21W        W72446  19.206  10.817  10.725
   22W        W72447  44.156  36.212   2.239
   23W        W72448  27.894  27.018   4.559
   24W        W72449  25.785  37.418  11.632
   25W        W72450  16.982   6.959  11.737
   26W        W72451  11.748   2.256  14.979
   27W        W72452  23.664  14.574  12.875
   28W        W72453  30.137   3.761   0.847
   29W        W72454  11.284  35.188  11.872
   30W        W72455   7.687  39.379  14.716
   31W        W72456  33.744   0.057   3.192
   32W        W72457   4.915  14.671   0.046
   33W        W72458  27.933  27.859   1.264
   34W        W72459  15.855  23.590   0.329
   35W        W72460  10.944  40.501   3.327
   36W        W72461  41.357  35.611   1.699
   37W        W72462  32.618  16.843   1.765
   38W        W72463  20.193   4.171  14.314
   39W        W72464  18.074   1.514  12.582
   40W        W72465  20.664  38.402  13.543
   41W        W72466  29.649  37.534   2.558
   42W        W72467  10.029  19.042   4.161
   43W        W72468  43.019  36.216  13.767
   44W        W72469  17.574  13.869  10.626
   45W        W72470  10.668  25.192  11.951
   46W        W72471  31.010  42.132  14.978
   47W        W72472  19.818  42.900  10.610
   48W        W72473  29.314  34.990  14.743
   49W        W72474  27.442  36.843   2.685
   50W        W72475  41.046  30.178  12.551
   51W        W72476  32.172   3.951  14.825
   52W        W72477  43.449  39.481  11.909
   53W        W72478  33.098  22.140   3.705
   54W        W72479  37.382  29.040  13.082
   55W        W72480  30.852  33.391   0.266
   56W        W72481   3.445   1.771  14.358
   57W        W72482  40.186  25.420  14.326
   58W        W72483   1.417  38.112  13.871
   59W        W72484  31.151  13.309  11.476
   60W        W72485   1.723  15.118   4.893
   61W        W72486  36.924  29.092  11.918
   62W        W72487   9.639  37.837   3.657
   63W        W72488  27.637  18.606   1.374
   64W        W72489   4.822  41.303   3.217
   65W        W72490  41.828  43.290   3.278
   66W        W72491   6.232  11.842  13.090
   67W        W72492   2.376  19.807   4.114
   68W        W72493  27.134  38.817   3.860
   69W        W72494  17.581  21.186   4.131
   70W        W72495  19.636  20.350   3.313
   71W        W72496  40.497  22.715  14.858
   72W        W72497  27.772  30.676  11.047
   73W        W72498  12.249  11.869   3.196
   74W        W72499  36.888   2.944   0.484
   75W        W72500   6.801  36.651  13.906
   76W        W72501  21.471   4.770   1.378
   77W        W72502   4.953  43.491   0.324
   78W        W72503   3.713  39.293   2.627
   79W        W72504  30.363  36.376  11.677
   80W        W72505  19.118  43.082   1.372
   81W        W72506  37.208  34.593   2.133
   82W        W72507  20.128  24.655  10.484
   83W        W72508  26.934   4.306   3.188
   84W        W72509  17.783   5.818  10.586
   85W        W72510   2.027  34.516   3.724
   86W        W72511  27.707   1.997  11.973
   87W        W72512  36.165  20.723   3.723
   88W        W72513  31.562   3.214   3.623
   89W        W72514  43.342  35.630   3.099
   90W        W72515   2.690  44.318  12.082
   91W        W72516  14.122  10.844   0.251
   92W        W72517  20.287  42.484  12.472
   93W        W72518  35.333   2.324   2.347
   94W        W72519  41.631   4.455  14.414
   95W        W72520   2.876   3.284  10.375
   96W        W72521   5.996  18.121   1.479
   97W        W72522  20.634   1.504   0.362
   98W        W72523  17.028  10.883  12.170
   99W        W72524  41.481   9.917   0.224
  100W        W72525   8.416  30.899   4.038
  101W        W72526  10.698  18.368  14.246
  102W        W72527   3.166  31.967  12.003
  103W        W72528  28.936  42.837   1.694
  104W        W72529  32.434   1.924  12.595
  105W        W72530   5.881  37.988   3.767
  106W        W72531  31.181  25.994   2.001
  107W        W72532  28.212  17.794  12.950
  108W        W72533   2.949   4.706   1.390
  109W        W72534   8.607   3.651   0.744
  110W        W72535   1.821  29.221   4.834
  111W        W72536  10.796  26.145  14.416
  112W        W72537   4.927  44.318  13.808
  113W        W72538   8.815  10.593   0.865
  114W        W72539  44.706  21.941   3.373
  115W        W72540  43.862  27.380  13.003
  116W        W72541  28.294  13.547  11.868
  117W        W72542  23.577   7.814  13.275
  118W        W72543  27.840  43.697   3.148
  119W        W72544  11.107  41.119   3.580
  120W        W72545  33.402  23.703   3.222
  121W        W72546  30.255  37.357   0.890
  122W        W72547  31.491  26.225   2.354
  123W        W72548  20.233  30.702  14.822
  124W        W72549   6.412   4.423   2.695
  125W        W72550  35.694  29.831   3.267
  126W        W72551  24.091  44.189  11.211
  127W        W72552  24.812  42.312   3.217
  128W        W72553  43.855  34.042   1.961
  129W        W72554  28.899  39.012  11.931
  130W        W72555  20.308  22.336   4.552
  131W        W72556   6.376  28.499   3.342
  132W        W72557   0.672  39.166  14.458
  133W        W72558   0.710   9.864  14.880
  134W        W72559   3.463  30.416  12.175
  135W        W72560  27.516  35.863  13.318
  136W        W72561  29.444  23.595  14.110
  137W        W72562   3.814   7.442  14.289
  138W        W72563  26.471  32.695   4.219
  139W        W72564  39.336  13.799   4.747
  140W        W72565  27.121  43.607  14.642
  141W        W72566  36.058  44.457  11.910
  142W        W72567  28.753  43.983  11.916
  143W        W72568   2.736  37.289   3.791
  144W        W72569  38.313   0.876   1.274
  145W        W72570  26.040  22.462   0.596
  146W        W72571  29.776  23.420  11.940
  147W        W72572  33.336  11.185   2.368
  148W        W72573   8.654  39.025   4.520
  149W        W72574  37.860  36.338   1.382
  150W        W72575  25.244  39.306   0.167
  151W        W72576  41.738  43.813   2.115
  152W        W72577  24.371  20.164  12.941
  153W        W72578  19.318  16.078  13.956
  154W        W72579  43.411  17.093   3.721
  155W        W72580  41.787  38.556   2.622
  156W        W72581  18.659  11.569  11.622
  157W        W72582   1.686  20.136  14.324
  158W        W72583  16.554  40.113  14.830
  159W        W72584  36.512  26.652   0.673
  160W        W72585  19.279   1.724   5.584
  161W        W72586   5.347  17.679   0.876
  162W        W72587  26.851  43.313  13.191
  163W        W72588   2.217  44.096   4.980
  164W        W72589  11.305  39.097  14.395
  165W        W72590  15.828  42.998   1.805
  166W        W72591   7.174  35.443   3.250
  167W        W72592  24.071  34.908  14.016
  168W        W72593  13.145   6.302  11.253
  169W        W72594  32.788   5.315   2.187
  170W        W72595   5.505   8.696   3.179
  171W        W72596  33.538  11.892  13.523
  172W        W72597  20.540  35.124  10.628
  173W        W72598  18.576  19.485  11.949
  174W        W72599   2.472   5.800   2.304
  175W        W72600  41.064   7.884   1.396
  176W        W72601  39.220  24.022   0.019
  177W        W72602  15.803  35.077   2.153
  178W        W72603  33.879   2.476   0.346
  179W        W72604   2.272  43.488  10.709
  180W        W72605   7.840  37.295   4.228
  181W        W72606   8.669  33.345  13.378
  182W        W72607  19.642   9.392  10.710
  183W        W72608   1.228   4.643  10.593
  184W        W72609  27.012  28.966   3.230
  185W        W72610   5.735  33.361  14.369
  186W        W72611  36.071  13.230  13.595
  187W        W72612  17.212  24.531  11.926
  188W        W72613  16.512  15.066  14.183
  189W        W72614  14.260   9.199  10.564
  190W        W72615  25.247  35.537   2.838
  191W        W72616   2.721  22.232  11.706
  192W        W72617   1.858  33.365  13.392
  193W        W72618   2.631  31.403  11.561
  194W        W72619  28.054  28.961  14.826
  195W        W72620  31.027  30.001  10.749
  196W        W72621  31.290  37.927   2.252
  197W        W72622   4.006   7.252   3.683
  198W        W72623  10.732  27.136  13.329
  199W        W72624  19.054  30.751  10.199
  200W        W72625  11.267   3.892  14.323
  201W        W72626  19.100  13.279  12.097
  202W        W72627  44.032  33.634  13.551
  203W        W72628  31.415  11.275   5.087
  204W        W72629  14.781  40.833   0.947
  205W        W72630   2.893   2.534  12.004
  206W        W72631  44.510  25.269  11.862
  207W        W72632   8.648  37.129  13.560
  208W        W72633  40.043  19.592   4.973
  209W        W72634  37.551   7.817  10.616
  210W        W72635   4.120  34.976   4.566
  211W        W72636  41.039  36.310   3.813
  212W        W72637  10.842  11.407  13.282
  213W        W72638  42.937  22.811   3.712
  214W        W72639   8.186   4.848  11.432
  215W        W72640  31.113  34.570  14.504
  216W        W72641  22.438   2.370  11.551
  217W        W72642  22.000  15.418   0.734
  218W        W72643  33.677  26.632   1.850
  219W        W72644  31.572  13.764   1.138
  220W        W72645   5.846  34.665   0.128
  221W        W72646   0.652   4.222   1.284
  222W        W72647  29.943  42.470   4.573
  223W        W72648  42.682  35.496   0.433
  224W        W72649  42.489  31.247  13.661
  225W        W72650  40.521   0.952  13.805
  226W        W72651  41.210  30.027   2.320
  227W        W72652  24.603   0.504  13.481
  228W        W72653  30.068  21.923   3.620
  229W        W72654  37.052  42.817   0.375
  230W        W72655  31.184  27.039  11.406
  231W        W72656   2.079  33.508  11.589
  232W        W72657  22.095  44.023   1.416
  233W        W72658   4.654  11.869   1.861
  234W        W72659  21.285  25.414   0.065
  235W        W72660  33.912  30.027  11.180
  236W        W72661  33.215  27.122  12.354
  237W        W72662  35.591   7.400  11.688
  238W        W72663  24.087  41.496   3.280
  239W        W72664   1.918  41.944  12.164
  240W        W72665   8.846  14.648   4.631
  241W        W72666  33.565  21.565  11.509
  242W        W72667   6.616  22.756   2.783
  243W        W72668   0.549   5.401  12.893
  244W        W72669  14.439  11.591   5.065
  245W        W72670  38.527  41.852  11.651
  246W        W72671  19.586   4.173   2.370
  247W        W72672  12.296  25.036   4.907
  248W        W72673  30.550  25.473   2.682
  249W        W72674  32.571  21.520   2.698
  250W        W72675  43.990  39.845  13.374
  251W        W72676  20.549   9.358  12.186
  252W        W72677  19.579  20.340  14.578
  253W        W72678  34.547  31.971  11.988
  254W        W72679  42.636  28.415   0.939
  255W        W72680  31.627  11.849   3.100
  256W        W72681  18.179  42.474   0.510
  257W        W72682  24.097  13.236   1.434
  258W        W72683   0.548  13.087  10.636
  259W        W72684  37.878  10.631   1.804
  260W        W72685  38.905  16.617   0.819
  261W        W72686  29.946  20.792  14.900
  262W        W72687  25.743  41.800   0.806
  263W        W72688  29.529   9.099   2.873
  264W        W72689  29.425  19.138  11.393
  265W        W72690   4.497   4.704   1.325
  266W        W72691  12.645  22.124  11.936
  267W        W72692   6.807  12.447  11.157
  268W        W72693  19.306  27.943   2.390
  269W        W72694  15.244  11.001  12.934
  270W        W72695  39.573  41.403  13.074
  271W        W72696   6.355  17.533  12.608
  272W        W72697  14.386  17.017   2.598
  273W        W72698  24.962  33.675   3.892
  274W        W72699  23.486   1.394  12.637
  275W        W72700  10.214  29.604  10.761
  276W        W72701  11.127  26.476  12.025
  277W        W72702  40.286  42.738   0.905
  278W        W72703  31.116  11.859   0.025
  279W        W72704  28.645   5.386  11.136
  280W        W72705   3.798  30.515   0.462
  281W        W72706  34.814  44.235   2.312
  282W        W72707  24.538  20.515  13.341
  283W        W72708  20.058  24.379   1.873
  284W        W72709  20.166  10.840   2.905
  285W        W72710  17.227  22.995   4.394
  286W        W72711  18.112  30.655  13.477
  287W        W72712  38.828   3.286   2.207
  288W        W72713   8.247  25.795   0.649
  289W        W72714  18.793   9.201  12.471
  290W        W72715   0.416   2.422   4.173
  291W        W72716   4.253  34.021  12.121
  292W        W72717  30.770  18.537  12.962
  293W        W72718  21.228  19.482   4.264
  294W        W72719  23.477  44.244   2.649
  295W        W72720  42.438  15.784  12.686
  296W        W72721   9.423  19.581  12.037
  297W        W72722  36.373  40.861   0.379
  298W        W72723  28.557  30.319   1.455
  299W        W72724   9.599  22.547   9.560
  300W        W72725   8.951   0.935   3.335
  301W        W72726  36.006  15.039   3.214
  302W        W72727   7.652  27.307  12.904
  303W        W72728  23.023  18.055   3.163
  304W        W72729  19.066  13.661  11.662
  305W        W72730  10.230  18.554  12.605
  306W        W72731  39.581  22.501   0.824
  307W        W72732   0.686   4.351  14.302
  308W        W72733   3.204  19.900   0.508
  309W        W72734  39.890  29.568  14.439
  310W        W72735  28.057  15.150   2.832
  311W        W72736   4.817  38.780   0.800
  312W        W72737   4.307  33.112  11.142
  313W        W72738  41.462   2.947   3.717
  314W        W72739   3.157   2.635  14.566
  315W        W72740  20.732   4.591   4.509
  316W        W72741  34.397  27.544   0.927
  317W        W72742   0.364  39.442  12.371
  318W        W72743  26.149  27.228  10.759
  319W        W72744  33.883  28.513   4.122
  320W        W72745  22.183  26.476  11.549
  321W        W72746  26.425   4.405   3.242
  322W        W72747  11.029  24.077  14.135
  323W        W72748  35.210  12.468   1.935
  324W        W72749  11.301  10.024  11.034
  325W        W72750   2.476   4.941  14.268
  326W        W72751  39.838  35.673  14.521
  327W        W72752  16.825   3.763   2.820
  328W        W72753   4.958  31.520   1.844
  329W        W72754  42.656  32.418  11.909
  330W        W72755  18.551  32.496  10.833
  331W        W72756   9.937  15.553  10.736
  332W        W72757   2.296  29.841   0.908
  333W        W72758  12.071  36.976   1.336
  334W        W72759  41.398  24.042   0.150
  335W        W72760  23.292  22.906   0.199
  336W        W72761  14.077  35.502  13.358
  337W        W72762  28.149  10.264   4.610
  338W        W72763  38.312  12.270   2.442
  339W        W72764  38.603  33.450  12.179
  340W        W72765  14.336  28.075   2.836
  341W        W72766  33.895  10.641   2.582
  342W        W72767  40.280  16.347  11.961
  343W        W72768   3.328   6.705  11.868
  344W        W72769  13.639  28.748   1.254
  345W        W72770   3.207  21.191   1.020
  346W        W72771  10.951  14.995   0.288
  347W        W72772  22.626  37.886   0.131
  348W        W72773  26.166  42.046   3.182
  349W        W72774  43.416  23.065  10.832
  350W        W72775   3.894  11.205  14.820
  351W        W72776  30.502  36.527  13.339
  352W        W72777  21.555   6.507   2.788
  353W        W72778   1.918  27.177  10.709
  354W        W72779   3.570  30.127  13.397
  355W        W72780  19.656   1.947   1.676
  356W        W72781  23.422  18.376  11.574
  357W        W72782  37.449  31.842  14.022
  358W        W72783  25.496  37.533   4.074
  359W        W72784  42.329   1.295   0.969
  360W        W72785  27.569  40.737   3.192
  361W        W72786  35.110  15.488   4.757
  362W        W72787  11.963  13.126  10.968
  363W        W72788  10.360  11.342   3.183
  364W        W72789  29.135  15.284  10.730
  365W        W72790  12.194  13.782   2.084
  366W        W72791  21.969  31.953  10.414
  367W        W72792   2.759  44.108  13.826
  368W        W72793  32.662  20.534   4.418
  369W        W72794  36.327   8.632   0.705
  370W        W72795  21.126  36.919  10.984
  371W        W72796  34.051  10.389   4.529
  372W        W72797  14.202  43.108   1.847
  373W        W72798  37.051  35.903  13.940
  374W        W72799  21.551  11.038  11.567
  375W        W72800  39.080  33.286  12.956
  376W        W72801  25.548   2.397   4.994
  377W        W72802  16.095  14.085  10.566
  378W        W72803  40.329  24.769   1.482
  379W        W72804  34.731  41.953  13.848
  380W        W72805  23.240  36.163  10.937
  381W        W72806  10.944  26.882  14.952
  382W        W72807   1.504   4.493   1.407
  383W        W72808  18.263  40.188   4.184
  384W        W72809  28.410  18.058  11.642
  385W        W72810   5.738  27.475  11.758
  386W        W72811   9.094  43.138   0.236
  387W        W72812  41.760  22.014   4.663
  388W        W72813  40.540  36.001  10.254
  389W        W72814  37.682  34.174  14.039
  390W        W72815  38.727  13.751  12.355
  391W        W72816   9.290  20.859  13.439
  392W        W72817   3.881  37.091  13.395
  393W        W72818  17.978  39.566   0.836
  394W        W72819  40.286  27.447   1.304
  395W        W72820  11.170  35.934  10.545
  396W        W72821   1.397  11.862   3.198
  397W        W72822  38.937   3.731  10.682
  398W        W72823  19.706  35.167   3.583
  399W        W72824  35.105  21.301   5.012
  400W        W72825  32.645  12.847   2.107
  401W        W72826  17.629   3.511  10.706
  402W        W72827  23.192  30.472   4.222
  403W        W72828  29.995  23.967  14.556
  404W        W72829  21.596  16.685  13.212
  405W        W72830   6.730  18.675  10.349
  406W        W72831   7.228  19.784   3.879
  407W        W72832  11.135  19.299   4.689
  408W        W72833   1.888  39.485   1.966
  409W        W72834  31.128   3.255  11.025
  410W        W72835   8.972  39.783   2.323
  411W        W72836   9.217  37.098  11.406
  412W        W72837  43.254  39.278  14.427
  413W        W72838   5.342  37.337  13.112
  414W        W72839  22.556  21.215  12.471
  415W        W72840  10.311  10.576  11.617
  416W        W72841  21.300  33.105   2.409
  417W        W72842  25.227  22.230  12.767
  418W        W72843  20.362  29.261   5.094
  419W        W72844  13.907  34.987   4.082
  420W        W72845  21.549  24.000  12.841
  421W        W72846  43.018  38.411  11.835
  422W        W72847  33.372  24.129  11.121
  423W        W72848   2.224  44.744  13.496
  424W        W72849  10.363  43.300   0.888
  425W        W72850  15.735  39.443   2.986
  426W        W72851  31.112  32.675   4.842
  427W        W72852   1.690  16.706  14.934
  428W        W72853  28.521  42.731   1.416
  429W        W72854   4.895  27.103  11.526
  430W        W72855  31.959   8.993  12.105
  431W        W72856  24.493  39.973  14.318
  432W        W72857   3.714   4.741  12.342
  433W        W72858  29.749   9.661  12.445
  434W        W72859  43.026  30.014  11.930
  435W        W72860   3.980  31.480   3.122
  436W        W72861  36.659  29.722  12.408
  437W        W72862   0.272   9.489   3.773
  438W        W72863  16.494  22.044  10.590
  439W        W72864  36.436  28.328   2.330
  440W        W72865  15.598  22.067  10.588
  441W        W72866  11.059  23.634   0.889
  442W        W72867  38.775  44.257  14.715
  443W        W72868  39.462  36.044   0.048
  444W        W72869  44.524  13.175   4.672
  445W        W72870   1.771  33.843  14.495
  446W        W72871   9.474   2.865  11.456
  447W        W72872  43.203  38.580   2.197
  448W        W72873  15.869  13.713   3.711
  449W        W72874  39.899  33.475  13.508
  450W        W72875  11.074   8.185   3.082
  451W        W72876  23.181  38.362  10.606
  452W        W72877  29.570   1.593  14.488
  453W        W72878  38.369  42.556   1.334
  454W        W72879   5.908  25.909   2.230
  455W        W72880  42.928  28.441   3.171
  456W        W72881  31.826   1.549   2.843
  457W        W72882  43.864  32.542   1.705
  458W        W72883  23.771  42.332  13.521
  459W        W72884  19.252   7.702  14.554
  460W        W72885  15.200  39.497   0.673
  461W        W72886  25.388   3.610   1.315
  462W        W72887   3.867  35.467   1.127
  463W        W72888  19.508  29.360  11.907
  464W        W72889  23.198  10.157  12.381
  465W        W72890  22.746  43.268  12.419
  466W        W72891  10.974   0.897  11.630
  467W        W72892  39.286  35.145   1.807
  468W        W72893  24.207  29.142   1.799
  469W        W72894  23.129   3.921   1.021
  470W        W72895   2.936  21.895  13.033
  471W        W72896   0.673  22.142  14.483
  472W        W72897  33.171  30.485   5.015
  473W        W72898  41.585  35.880  11.573
  474W        W72899  23.556  14.274   1.808
  475W        W72900  16.569  31.698  10.271
  476W        W72901  14.084   8.173  14.768
  477W        W72902  15.881  44.521  13.468
  478W        W72903   5.704  17.819  13.410
  479W        W72904  41.775  17.814   3.223
  480W        W72905  32.881  19.656   2.742
  481W        W72906  36.844  16.488   0.984
  482W        W72907   8.562  14.754   0.079
  483W        W72908  26.069  24.467  14.782
  484W        W72909  38.831  11.929   4.668
  485W        W72910  25.735   5.825  14.793
  486W        W72911  11.060  30.333  11.708
  487W        W72912  12.189  44.301   3.572
  488W        W72913  24.960   9.411   2.429
  489W        W72914  31.127  40.954   2.916
  490W        W72915  11.250  24.484   4.102
  491W        W72916  30.216   7.669  12.525
  492W        W72917  28.943  19.824   0.371
  493W        W72918  10.213  12.315   2.229
  494W        W72919  20.156  27.223   0.863
  495W        W72920  32.025  29.671   1.450
  496W        W72921  42.785  32.464   3.136
  497W        W72922  10.141  26.074   3.092
  498W        W72923   6.233  20.176   2.282
  499W        W72924  31.388  19.569   2.368
  500W        W72925  19.605  31.504  12.468
  501W        W72926  15.076  28.629  12.367
  502W        W72927  36.107  29.933  13.543
  503W        W72928  10.419  11.070   1.754
  504W        W72929  20.316  37.517  10.658
  505W        W72930  20.014  26.882  14.521
  506W        W72931  32.483   2.415   4.905
  507W        W72932  37.462   2.754   4.673
  508W        W72933  17.613  40.770  11.077
  509W        W72934   6.710  21.909  13.626
  510W        W72935  26.121  43.016   4.830
  511W        W72936  32.178   5.984  14.402
  512W        W72937  24.234  12.234   1.408
  513W        W72938  33.596  36.347   1.634
  514W        W72939  11.322  40.376  12.668
  515W        W72940  26.014  10.829  11.765
  516W        W72941   2.685  44.283   2.683
  517W        W72942  34.097  40.293  10.721
  518W        W72943   6.953  28.215   2.244
  519W        W72944  36.221  35.076  11.551
  520W        W72945  41.717  25.664   4.503
  521W        W72946   9.853   3.311  13.531
  522W        W72947  21.063   1.146  14.954
  523W        W72948  16.575  11.736  13.525
  524W        W72949   5.755  21.951  13.298
  525W        W72950  44.578  17.176   3.675
  526W        W72951  41.933  12.313   0.320
  527W        W72952  31.979  35.363   1.903
  528W        W72953   4.924  14.696  13.518
  529W        W72954  16.351   5.338   4.363
  530W        W72955  16.666  28.139  13.329
  531W        W72956  36.077  39.448   0.683
  532W        W72957  21.601  19.831  12.974
  533W        W72958  35.123  16.128  13.539
  534W        W72959  14.768  18.757  14.256
  535W        W72960  38.882  21.468   2.181
  536W        W72961  27.542  42.190   3.297
  537W        W72962  23.306  21.461   1.877
  538W        W72963  22.142   9.347  13.736
  539W        W72964  19.607  12.198  14.023
  540W        W72965  40.860  14.373  12.959
  541W        W72966  15.281  11.903   0.006
  542W        W72967  35.417  17.317   1.941
  543W        W72968  34.283  24.420   0.371
  544W        W72969  24.288  41.314   2.394
  545W        W72970   1.426  22.700   1.298
  546W        W72971  16.346   4.011   1.749
  547W        W72972  39.617   9.363  11.583
  548W        W72973  10.722  23.381   2.623
  549W        W72974   5.712  34.475  14.236
  550W        W72975  28.630  25.095   0.302
  551W        W72976  23.280   4.918   1.906
  552W        W72977   0.831   7.300   2.777
  553W        W72978   1.296  12.181   0.709
  554W        W72979  15.622   1.370  12.379
  555W        W72980  30.441   0.912  12.474
  556W        W72981  37.902  30.386   0.438
  557W        W72982  34.622  11.700  12.898
  558W        W72983  26.293   9.291  11.944
  559W        W72984  31.050  44.471  11.062
  560W        W72985  32.815  18.210   2.820
  561W        W72986  21.151  11.925   0.091
  562W        W72987  26.848  19.773  11.893
  563W        W72988  32.650  25.561   1.236
  564W        W72989  21.250  22.458  13.789
  565W        W72990   3.662   7.424  12.519
  566W        W72991  21.340  16.629   4.107
  567W        W72992  21.027  10.247   3.714
  568W        W72993  36.013  15.407  12.914
  569W        W72994  30.520  16.859   1.296
  570W        W72995  10.859  15.278  14.812
  571W        W72996  20.113   6.816  11.862
  572W        W72997  38.179  34.381   0.942
  573W        W72998  24.574  20.674   3.388
  574W        W72999  29.103  36.817  11.084
  575W        W73000   2.185   5.949   3.693
  576W        W73001  18.023  35.558   1.471
  577W        W73002  20.963  16.809  10.168
  578W        W73003   9.200  26.785  13.026
  579W        W73004  14.583   1.493   0.037
  580W        W73005  39.406  32.508  10.663
  581W        W73006  17.363  13.414  12.968
  582W        W73007  40.863  42.483   3.755
  583W        W73008  44.819  18.330   2.207
  584W        W73009  40.556  13.426  14.419
  585W        W73010  21.666  26.707   4.330
  586W        W73011   8.118   2.683   4.147
  587W        W73012   2.374  36.267  12.111
  588W        W73013  38.350  23.764   2.460
  589W        W73014   6.746  27.569   4.499
  590W        W73015  29.919   2.561  13.880
  591W        W73016  19.773  34.100  12.378
  592W        W73017  21.215  19.561  10.194
  593W        W73018  14.742  17.027  13.100
  594W        W73019  32.806   0.043   1.241
  595W        W73020   3.675  30.833  12.382
  596W        W73021  37.573  39.472   0.884
  597W        W73022  20.352  40.203  13.914
  598W        W73023  35.596   3.775  12.455
  599W        W73024  31.945  21.935   2.395
  600W        W73025  34.453  21.577  13.843
  601W        W73026  31.246  31.925  12.541
  602W        W73027   7.671  36.618  14.278
  603W        W73028  19.449  12.524   4.915
  604W        W73029  37.959   8.767  14.522
  605W        W73030  23.622  10.846  12.032
  606W        W73031  23.646   0.095  13.344
  607W        W73032  14.878  41.956   3.326
  608W        W73033  12.535  27.527  11.243
  609W        W73034  10.914   1.861   2.940
  610W        W73035  34.908  19.486  11.157
  611W        W73036  30.646  38.891  13.943
  612W        W73037  41.579  37.764   3.709
  613W        W73038  43.653  10.067   1.754
  614W        W73039  39.834  21.040  11.470
  615W        W73040   8.183  32.402  11.341
  616W        W73041  18.018  36.390   2.726
  617W        W73042  31.021   1.352  14.453
  618W        W73043  25.951  12.105  13.114
  619W        W73044  15.625  12.720   3.282
  620W        W73045  11.591  17.165  14.368
  621W        W73046  33.557  33.316  11.683
  622W        W73047  25.019  11.078  13.148
  623W        W73048  23.032   6.288  11.576
  624W        W73049  32.362  23.267  14.425
  625W        W73050  13.072  26.224  11.580
  626W        W73051  22.741  27.855  11.607
  627W        W73052  42.717  15.710   3.870
  628W        W73053  34.967   6.960   1.008
  629W        W73054  40.330  35.932   4.335
  630W        W73055  27.648  14.885   0.269
  631W        W73056   2.348  17.579  11.703
  632W        W73057  27.262  20.943   1.423
  633W        W73058  30.383  30.567  13.842
  634W        W73059  26.116  43.577   3.408
  635W        W73060  42.736  19.001  11.074
  636W        W73061  37.299   0.025  14.421
  637W        W73062  19.942  22.645   4.395
  638W        W73063  14.908   5.420   2.444
  639W        W73064  23.991   8.242  14.701
  640W        W73065   3.963   4.303  12.384
  641W        W73066  39.001  22.526   4.596
  642W        W73067   9.171  36.429  13.978
  643W        W73068  43.033  23.479  11.652
  644W        W73069  22.041   3.008   4.149
  645W        W73070   4.518  31.793   2.626
  646W        W73071  44.286  38.640   9.967
  647W        W73072  27.442  24.213  12.012
  648W        W73073   5.203  36.489   0.246
  649W        W73074  21.453   4.928   3.134
  650W        W73075   5.988  44.378   1.714
  651W        W73076  18.262  21.080  14.572
  652W        W73077   0.330   9.930  14.523
  653W        W73078  41.227  43.627  10.928
  654W        W73079  11.673  38.032  11.980
  655W        W73080  21.648  28.494  13.373
  656W        W73081  28.296  41.044  14.455
  657W        W73082  28.512  39.581   2.185
  658W        W73083  44.304  35.017   1.719
  659W        W73084  16.162  26.300  14.520
  660W        W73085  17.549  39.746   4.573
  661W        W73086  29.258  18.677  13.060
  662W        W73087  16.135  38.912  10.627
  663W        W73088  22.188  23.072  12.713
  664W        W73089  25.286  28.167   2.330
  665W        W73090  11.385   1.845   2.229
  666W        W73091  42.511  21.558  14.840
  667W        W73092  12.296  42.800   3.746
  668W        W73093  19.732  35.566   4.936
  669W        W73094  23.351  43.594   4.087
  670W        W73095   8.198  36.945  13.365
  671W        W73096  33.391  22.274   0.368
  672W        W73097  27.088  29.426   1.747
  673W        W73098  24.420  43.932  13.467
  674W        W73099  26.055  28.554   4.155
  675W        W73100  34.085  20.688   1.882
  676W        W73101   4.729  42.717   2.223
  677W        W73102  27.595  40.946  10.387
  678W        W73103   4.254  27.708   0.468
  679W        W73104  24.728  27.469  11.441
  680W        W73105   0.375  32.618   1.708
  681W        W73106   5.893  25.061   3.407
  682W        W73107   7.339   9.897  14.733
  683W        W73108  39.801  34.915  12.195
  684W        W73109  42.249  31.311   2.104
  685W        W73110  17.729   4.457  13.576
  686W        W73111  43.327  36.350  10.713
  687W        W73112  29.474  12.756   1.439
  688W        W73113  25.889  31.486   5.062
  689W        W73114  17.604   3.338  14.416
  690W        W73115  24.796   5.354   1.317
  691W        W73116  34.124  33.179  14.418
  692W        W73117  29.031  15.144   3.173
  693W        W73118   8.444  44.034   1.238
  694W        W73119   3.821   3.710  11.940
  695W        W73120  24.652   6.225   4.378
  696W        W73121  13.757  15.724   1.307
  697W        W73122  10.917  40.023  12.527
  698W        W73123  38.019  24.648   2.121
  699W        W73124  25.485  44.338  14.332
  700W        W73125   8.789  43.964  10.988
  701W        W73126  12.682  34.439  14.770
  702W        W73127  36.516  37.015   4.182
  703W        W73128  17.206  26.623  11.411
  704W        W73129  23.719  16.342  13.895
  705W        W73130  43.984   1.495  13.340
  706W        W73131   2.191  11.149   1.804
  707W        W73132  19.700  29.440   0.181
  708W        W73133  41.576   7.901   0.459
  709W        W73134  39.132  29.677   0.328
  710W        W73135  38.398  29.467  11.972
  711W        W73136  23.207   8.638  12.538
  712W        W73137  12.096  32.407  13.959
  713W        W73138   6.887   1.993   2.375
  714W        W73139  43.855  12.856  11.186
  715W        W73140  31.354  15.488   4.120
  716W        W73141  39.865  22.087   4.613
  717W        W73142   6.379   4.648   3.555
  718W        W73143  12.211  29.245  14.342
  719W        W73144  19.142  28.927  12.574
  720W        W73145  42.604  33.642   1.809
  721W        W73146  26.638   9.517   1.519
  722W        W73147   3.205  40.589   0.471
  723W        W73148  44.067  17.200   4.626
  724W        W73149   9.147  33.007   2.759
  725W        W73150  31.684  13.020  14.408
  726W        W73151  34.168  32.998  12.930
  727W        W73152  38.814   0.697  12.514
  728W        W73153  22.758  22.068   2.745
  729W        W73154  22.338  24.626   4.294
  730W        W73155  20.719  33.104   3.319
  731W        W73156  13.311  14.342  14.727
  732W        W73157   1.478  11.271   1.348
  733W        W73158  15.318  28.604   1.848
  734W        W73159  43.923  11.586  11.337
  735W        W73160  21.792   1.808  11.960
  736W        W73161  29.093  32.936  14.005
  737W        W73162  17.130  31.793  12.475
  738W        W73163  23.122  18.562   3.164
  739W        W73164  26.632  10.945  13.728
  740W        W73165  32.112  17.274   0.481
  741W        W73166  29.464   0.264  11.145
  742W        W73167  44.751  36.661   3.404
  743W        W73168  41.995   1.807   4.131
  744W        W73169  16.802  37.569  11.869
  745W        W73170   2.266   8.251  11.224
  746W        W73171  12.828  15.355   2.893
  747W        W73172   0.672  39.445  10.203
  748W        W73173  26.074   2.818  14.451
  749W        W73174  30.632  42.978   0.825
  750W        W73175  23.975  44.560   2.479
  751W        W73176  38.966  15.199   2.348
  752W        W73177  37.999  32.617   3.251
  753W        W73178  13.708  30.986  14.400
  754W        W73179  16.183   7.944  14.773
  755W        W73180  20.149  22.665  11.029
  756W        W73181  31.021  43.145  13.769
  757W        W73182   1.820  20.611  10.963
  758W        W73183  36.128   4.922  12.926
  759W        W73184  20.628  32.804  11.413
  760W        W73185  39.269  28.470  11.765
  761W        W73186  16.231   3.862  14.780
  762W        W73187  30.085   4.780  14.929
  763W        W73188   9.618  42.890   4.253
  764W        W73189  44.379  35.377  12.824
  765W        W73190  21.684  38.111  13.046
  766W        W73191  16.760  15.522  11.952
  767W        W73192  17.837  17.827  10.420
  768W        W73193  12.252  20.621  14.293
  769W        W73194  13.359  25.543   5.624
  770W        W73195  40.593  21.925   1.124
  771W        W73196  21.426   2.549  14.905
  772W        W73197  15.696  25.420  13.593
  773W        W73198  18.073  39.552   2.218
  774W        W73199  40.174   4.544   5.048
  775W        W73200  13.672  29.928  13.083
  776W        W73201  41.988  29.580  13.398
  777W        W73202  34.792  31.660   2.180
  778W        W73203  17.002  27.045   4.180
  779W        W73204  18.713  20.154  14.143
  780W        W73205  16.263  30.533  13.130
  781W        W73206  34.376  27.981  14.816
  782W        W73207  31.079  33.997   4.450
  783W        W73208  43.826  41.432  10.757
  784W        W73209  16.021  23.770  13.010
  785W        W73210  12.780  11.600  12.225
  786W        W73211  24.619   0.834   2.158
  787W        W73212  39.362  15.579  11.242
  788W        W73213  43.176  30.000   3.941
  789W        W73214  31.961  28.439  11.341
  790W        W73215  26.522   3.972   1.287
  791W        W73216  26.503  21.486  13.929
  792W        W73217  23.241  15.408   2.719
  793W        W73218  24.676  11.611   3.554
  794W        W73219  32.838   7.531   1.759
  795W        W73220  37.839  12.268   4.256
  796W        W73221  18.002  25.307  14.434
  797W        W73222  31.939  44.207   2.370
  798W        W73223  37.493  12.646   2.794
  799W        W73224  10.847  16.261   4.196
  800W        W73225  15.010  22.265   4.772
  801W        W73226   3.211  27.412   2.109
  802W        W73227  21.896  27.536   1.264
  803W        W73228  13.378  29.682   0.299
  804W        W73229   0.506  30.190   2.791
  805W        W73230  27.180   4.346  12.941
  806W        W73231  22.595  21.032   4.397
  807W        W73232  16.686  41.848  13.996
  808W        W73233  17.365  39.493  11.487
  809W        W73234  21.727  27.956   0.675
  810W        W73235  34.685  19.004  14.444
  811W        W73236  23.329  12.755   4.666
  812W        W73237   6.456  24.913  12.091
  813W        W73238  22.251  25.768   0.225
  814W        W73239  42.010  44.190  12.564
  815W        W73240  33.468  43.234   1.626
  816W        W73241  21.153  31.148  14.890
  817W        W73242  43.403  40.651   3.638
  818W        W73243   2.452  16.175  13.873
  819W        W73244  17.952   4.694   0.931
  820W        W73245   4.678  37.504  11.879
  821W        W73246  11.797  22.511   1.010
  822W        W73247  41.494  34.994   0.004
  823W        W73248  21.521  10.824   3.122
  824W        W73249   6.787  24.451   3.782
  825W        W73250   0.970  43.490  11.197
  826W        W73251  36.098  16.355  10.773
  827W        W73252  44.973  27.013  12.184
  828W        W73253  40.525  15.790   1.757
  829W        W73254   4.676   3.234  14.290
  830W        W73255  44.545  33.503   0.385
  831W        W73256  32.636  13.935  14.720
  832W        W73257  19.444   6.209  14.046
  833W        W73258  19.340  24.014   0.301
  834W        W73259  23.227  11.807  12.489
  835W        W73260  23.578  21.498  14.398
  836W        W73261  42.954  18.587   3.376
  837W        W73262  29.482  25.169   3.033
  838W        W73263  25.076   5.042  11.763
  839W        W73264  25.691  20.722   1.762
  840W        W73265  26.325  25.022  13.471
  841W        W73266  14.979  37.942   1.864
  842W        W73267   2.285  44.298   3.697
  843W        W73268  34.894   6.484  12.457
  844W        W73269  24.185  41.119  12.488
  845W        W73270  22.545  33.587   0.464
  846W        W73271  26.424  11.426   2.791
  847W        W73272  21.161  43.272  14.189
  848W        W73273  39.132  37.953   3.130
  849W        W73274  29.090  16.593   1.841
  850W        W73275  40.245  38.608  11.385
  851W        W73276   4.956  42.935  14.131
  852W        W73277  29.033  14.697   3.938
  853W        W73278   1.726  26.118   2.949
  854W        W73279  30.370  27.100   4.734
  855W        W73280  27.084  26.419  11.085
  856W        W73281   1.691  14.364   0.936
  857W        W73282  42.366  44.144   0.311
  858W        W73283  43.304  18.157  13.455
  859W        W73284  11.412  43.738   3.190
  860W        W73285  30.552  13.899   1.357
  861W        W73286  20.451   4.294   4.095
  862W        W73287  11.508  37.836  11.539
  863W        W73288  36.857  13.607   0.839
  864W        W73289  35.063  30.462  12.118
  865W        W73290  43.866   9.783  12.884
  866W        W73291   3.369  17.351   4.872
  867W        W73292  37.572  25.147  14.841
  868W        W73293  11.665   5.143   5.094
  869W        W73294  32.677  28.354  12.168
  870W        W73295  40.442   9.266   4.603
  871W        W73296  15.178  24.068   5.009
  872W        W73297  36.795  41.796   0.442
  873W        W73298  15.640  30.875  12.435
  874W        W73299  31.538  23.050   0.044
  875W        W73300  13.278   6.731   3.690
  876W        W73301   7.138  20.655   4.423
  877W        W73302  33.998  21.833   2.212
  878W        W73303  30.117  11.874   0.907
  879W        W73304   0.422  16.247  10.975
  880W        W73305  20.392  12.639  10.578
  881W        W73306  18.636  21.466  13.101
  882W        W73307  25.698  33.372   3.172
  883W        W73308  26.604   4.863  11.926
  884W        W73309   9.481  24.622   1.157
  885W        W73310  13.148  33.816   3.301
  886W        W73311  27.516   4.803   4.139
  887W        W73312  10.400  22.633   1.271
  888W        W73313   7.863   0.445  14.222
  889W        W73314   8.315   1.898   0.245
  890W        W73315   4.374  20.739  13.046
  891W        W73316  40.814   2.151  13.310
  892W        W73317   9.269  16.212  11.857
  893W        W73318  33.853  18.183   4.583
  894W        W73319  32.097  30.894  14.455
  895W        W73320  16.009  19.688   1.236
  896W        W73321  12.929  39.713  14.136
  897W        W73322  41.732  17.610   1.297
  898W        W73323  38.150  22.717  13.602
  899W        W73324  38.181  18.396  14.884
  900W        W73325  18.101   4.085  13.378
  901W        W73326   0.336   0.549   4.623
  902W        W73327  42.102  34.692   4.538
  903W        W73328  10.640   6.511   3.622
  904W        W73329   9.128   3.340   3.620
  905W        W73330  39.139   7.782  13.554
  906W        W73331  10.833  36.404   2.614
  907W        W73332  35.271   2.230   1.840
  908W        W73333  37.483  25.000   0.799
  909W        W73334   5.105  43.864  14.000
  910W        W73335  31.110  13.582  12.044
  911W        W73336  16.146  18.027   1.477
  912W        W73337  27.288  14.105  11.645
  913W        W73338  34.262  19.753   4.222
  914W        W73339  21.494  38.943  14.031
  915W        W73340  24.423  16.836   2.055
  916W        W73341  29.943   1.294   3.055
  917W        W73342  39.780  20.295   4.151
  918W        W73343   4.874   5.681  11.129
  919W        W73344   7.204  36.964   3.258
  920W        W73345  35.973  26.221   5.359
  921W        W73346  37.312  10.676  13.518
  922W        W73347  25.595  33.942  14.636
  923W        W73348  20.077  30.470   5.056
  924W        W73349  10.594   0.736  13.455
  925W        W73350  12.196  37.284   4.277
  926W        W73351  33.346  44.494  12.798
  927W        W73352  16.460   5.775  13.103
  928W        W73353  32.539  31.378   1.792
  929W        W73354  25.956  37.847  13.879
  930W        W73355  19.837  36.620   3.244
  931W        W73356  12.207  26.780  10.734
  932W        W73357   6.200  11.729   4.650
  933W        W73358  43.512  16.309   1.819
  934W        W73359  28.087   7.684  13.507
  935W        W73360  25.893  24.453  13.518
  936W        W73361  11.408   1.797  13.769
  937W        W73362   7.451  25.577  12.036
  938W        W73363  25.044  29.963  11.137
  939W        W73364  10.737   4.424   3.235
  940W        W73365  11.355  23.285   5.529
  941W        W73366   0.487  33.028  10.604
  942W        W73367   8.665   5.264   3.162
  943W        W73368  16.504   4.808   1.481
  944W        W73369  30.540  17.584  11.457
  945W        W73370  14.595  42.834   4.312
  946W        W73371  10.172  30.043   3.705
  947W        W73372   0.989  14.173   3.546
  948W        W73373  27.139  27.403   1.764
  949W        W73374   0.998  34.266  13.464
  950W        W73375  14.035  34.482   2.342
  951W        W73376   5.174  38.829  12.106
  952W        W73377  35.062   0.772   3.650
  953W        W73378  35.099   6.054  11.804
  954W        W73379  30.245  34.066   0.282
  955W        W73380  30.722  26.593  10.245
  956W        W73381  24.097  31.757   4.559
  957W        W73382   5.023  12.675   4.244
  958W        W73383  33.036   3.985   1.430
  959W        W73384  33.857  25.001  11.382
  960W        W73385  17.119  33.739   0.528
  961W        W73386  34.566  19.222   3.194
  962W        W73387  34.005  25.666   0.302
  963W        W73388  37.587   1.107  11.438
  964W        W73389  41.822  20.603   2.656
  965W        W73390   7.273  10.307  10.726
  966W        W73391  38.512  19.333   2.673
  967W        W73392   6.239  33.103   4.429
  968W        W73393  39.002  37.109   1.306
  969W        W73394  41.909   0.888  11.589
  970W        W73395  18.396  10.282   2.922
  971W        W73396  27.570  22.159   3.400
  972W        W73397  41.078   7.668  13.136
  973W        W73398  31.453  23.120  12.378
  974W        W73399  38.473   0.259  10.750
  975W        W73400  24.248  20.569   1.906
  976W        W73401  22.156  40.582   1.713
  977W        W73402   0.366  27.333   3.440
  978W        W73403  24.222  13.094   0.942
  979W        W73404  38.388   2.012  10.671
  980W        W73405  40.039   2.536  11.584
  981W        W73406  11.549  44.920   3.062
  982W        W73407  22.079  38.804  11.877
  983W        W73408  38.194  15.900   2.835
  984W        W73409  43.371   1.933   0.291
  985W        W73410   8.795  33.062  12.957
  986W        W73411   4.296  18.354  10.592
  987W        W73412   3.388  35.537   2.937
  988W        W73413  21.625   0.095  12.937
  989W        W73414  33.867  17.571   1.391
  990W        W73415  17.561  24.268   2.422
  991W        W73416  25.066  11.571  13.056
  992W        W73417   8.864  19.991  12.579
  993W        W73418  24.680  39.825  12.411
  994W        W73419   4.191  23.664   3.819
  995W        W73420  10.807   8.730  11.592
  996W        W73421   6.381  28.402   2.653
  997W        W73422  35.014  16.088  12.352
  998W        W73423   2.412   2.526   2.160
  999W        W73424  27.435  36.047  12.043
 1000W        W73425  30.025  29.631  10.544
 1001W        W73426   7.779  15.776  14.423
 1002W        W73427   3.701  14.040  13.779
 1003W        W73428  22.778  11.337   1.220
 1004W        W73429  26.377  20.741   2.726
 1005W        W73430   3.462  11.089   3.178
 1006W        W73431  18.229  22.294  10.449
 1007W        W73432   3.831  24.995  12.821
 1008W        W73433  11.299   5.802   4.628
 1009W        W73434  37.248   5.721  10.920
 1010W        W73435  26.215  16.524  12.577
 1011W        W73436  12.139  21.671  12.955
 1012W        W73437  21.511   4.182  12.005
 1013W        W73438  22.688   7.641  10.609
 1014W        W73439  40.438  30.399  14.284
 1015W        W73440  22.254  24.495  13.079
 1016W        W73441  32.572  31.900   4.538
 1017W        W73442   3.458   7.162   0.473
 1018W        W73443   5.685  40.077   0.218
 1019W        W73444   4.972   2.487  12.460
 1020W        W73445  10.580   0.462  11.438
 1021W        W73446  37.732  26.628   2.198
 1022W        W73447  40.068  44.520  10.666
 1023W        W73448  25.997  23.510   4.149
 1024W        W73449   3.890   2.831   2.412
 1025W        W73450   0.905  18.363  11.928
 1026W        W73451  33.589  23.036   3.912
 1027W        W73452  28.704   5.362  13.776
 1028W        W73453  36.529   7.344  12.422
 1029W        W73454  26.885  35.330  14.355
 1030W        W73455  15.187  19.564   5.070
 1031W        W73456  18.555  30.276   3.304
 1032W        W73457  17.854   6.303  11.615
 1033W        W73458  24.061  44.873  14.837
 1034W        W73459  17.636  17.878   1.208
 1035W        W73460  30.219  30.692  10.142
 1036W        W73461   1.923   0.391  14.069
 1037W        W73462  17.378   5.533   2.805
 1038W        W73463   3.704  43.900   0.737
 1039W        W73464  11.363  13.286  12.002
 1040W        W73465  30.807   8.495   4.574
 1041W        W73466   0.797  17.602  11.536
 1042W        W73467  32.978   1.289  11.453
 1043W        W73468  23.902  35.901  11.535
 1044W        W73469   7.743  37.061   3.263
 1045W        W73470   5.656  19.642  14.072
 1046W        W73471   2.291  36.175   0.774
 1047W        W73472   9.329  13.862   2.793
 1048W        W73473  33.936  30.968   4.632
 1049W        W73474   6.399  21.664   3.830
 1050W        W73475  12.465  26.140   4.320
 1051W        W73476  33.270  44.436  14.714
 1052W        W73477   2.720  25.408  13.545
 1053W        W73478  10.866  30.449   4.247
 1054W        W73479   7.544   9.285  13.810
 1055W        W73480  26.170   0.481  11.498
 1056W        W73481  10.389  33.995  12.922
 1057W        W73482  43.964   2.863  14.413
 1058W        W73483  38.226  19.721  13.825
 1059W        W73484  38.381   5.469   3.727
 1060W        W73485  16.392  20.585  13.025
 1061W        W73486  37.880  38.521  11.044
 1062W        W73487   3.249  36.523  11.987
 1063W        W73488  15.023   1.915   4.484
 1064W        W73489  33.025  38.184   0.374
 1065W        W73490  26.953  38.436   3.148
 1066W        W73491   9.860   1.793  12.378
 1067W        W73492   4.234  19.502  10.585
 1068W        W73493  18.711  20.504   1.680
 1069W        W73494  33.947  24.962  13.992
 1070W        W73495  36.344   4.919   5.125
 1071W        W73496  40.012  20.523   2.865
 1072W        W73497   2.553  30.405  13.856
 1073W        W73498  19.731   7.589  11.116
 1074W        W73499  44.239  26.667  11.097
 1075W        W73500  39.549   4.262   2.133
 1076W        W73501  13.368  15.183   0.699
 1077W        W73502  23.045   8.733  10.173
 1078W        W73503  28.375  37.029   3.704
 1079W        W73504  19.561   0.237   1.851
 1080W        W73505  13.448  14.137   4.885
 1081W        W73506  25.080  13.553   3.725
 1082W        W73507  32.488  32.483  12.313
 1083W        W73508  43.023  29.615   3.625
 1084W        W73509  11.689  36.591  13.088
 1085W        W73510   3.247  21.309  13.555
 1086W        W73511  30.433  19.444   1.874
 1087W        W73512  40.797  12.176   3.593
 1088W        W73513  17.626  30.456   0.489
 1089W        W73514  14.636  37.395   0.697
 1090W        W73515  30.901  29.015   1.810
 1091W        W73516  10.457  26.005  14.830
 1092W        W73517   8.892   5.865   2.365
 1093W        W73518  36.370  25.477  13.012
 1094W        W73519  14.675  24.159  11.402
 1095W        W73520  22.879   7.732   1.330
 1096W        W73521   9.350  21.393  14.249
 1097W        W73522  15.570  37.512   3.716
 1098W        W73523  30.639  10.357   3.284
 1099W        W73524  20.792  43.720  14.968
 1100W        W73525  40.265  35.010   4.308
 1101W        W73526  12.628  27.497  14.486
 1102W        W73527  24.291  30.849   4.770
 1103W        W73528  36.439  23.194  10.173
 1104W        W73529  22.090  31.231   2.221
 1105W        W73530   9.735  26.635  13.797
 1106W        W73531  23.034  11.784   1.272
 1107W        W73532  14.201  40.990   1.711
 1108W        W73533   9.263  43.994   2.369
 1109W        W73534  11.405  40.408  13.165
 1110W        W73535   5.098  32.457   2.288
 1111W        W73536  16.578  24.709  12.994
 1112W        W73537  37.813  30.862   4.079
 1113W        W73538  34.701  15.192   0.902
 1114W        W73539  42.554  20.095  11.955
 1115W        W73540  42.737  42.432   2.427
 1116W        W73541   9.276  30.109  12.061
 1117W        W73542   4.705  36.999   2.176
 1118W        W73543  16.777  17.341   1.368
 1119W        W73544  22.101  24.345  14.019
 1120W        W73545  21.130  33.529  14.990
 1121W        W73546  39.610  44.735  13.420
 1122W        W73547  42.243  42.631  12.023
 1123W        W73548  22.934   8.584  11.047
 1124W        W73549   4.427   0.005  11.042
 1125W        W73550  25.150  12.639   0.278
 1126W        W73551  14.165  18.528  13.952
 1127W        W73552  18.618  30.425  10.307
 1128W        W73553  25.712  28.201   0.381
 1129W        W73554  28.383  36.054  12.512
 1130W        W73555  43.394   0.348  12.845
 1131W        W73556  21.197  23.444   9.770
 1132W        W73557  28.375   1.482   0.758
 1133W        W73558  11.333  25.324  14.394
 1134W        W73559  34.745  31.159   4.170
 1135W        W73560   2.895  21.208   3.159
 1136W        W73561  43.763  41.840  13.935
 1137W        W73562  41.760  11.848   0.044
 1138W        W73563  42.908  43.862  12.453
 1139W        W73564   7.950   3.719  12.894
 1140W        W73565  38.991   6.461  12.415
 1141W        W73566  20.728  16.639  10.651
 1142W        W73567  28.527  22.156   4.104
 1143W        W73568  40.359   3.906  13.059
 1144W        W73569  19.738  28.977  12.855
 1145W        W73570  23.778   5.972  14.950
 1146W        W73571  13.005  42.893  10.444
 1147W        W73572  18.732   0.472  12.950
 1148W        W73573  25.146  26.615   4.605
 1149W        W73574  16.582  10.770   3.801
 1150W        W73575  40.739  26.374   0.757
 1151W        W73576  17.624  40.386   2.707
 1152W        W73577   2.491  35.158  12.643
 1153W        W73578  12.361  28.476  13.097
 1154W        W73579  18.006   8.776  12.492
 1155W        W73580  10.779  38.692   1.406
 1156W        W73581  41.207   3.518  11.564
 1157W        W73582  36.640  20.561   4.499
 1158W        W73583  31.032  23.007  13.844
 1159W        W73584   5.444   9.159  11.692
 1160W        W73585  38.015  43.358   1.154
 1161W        W73586   2.657  35.454  11.853
 1162W        W73587  28.538   8.828   4.782
 1163W        W73588  26.162   0.340   1.684
 1164W        W73589  34.651  37.525   0.461
 1165W        W73590  33.824   8.718   4.244
 1166W        W73591  35.074  17.224  12.066
 1167W        W73592  43.226  24.206  14.490
 1168W        W73593  35.010   2.823   0.840
 1169W        W73594  36.246  39.214  11.555
 1170W        W73595  24.403   0.937   1.680
 1171W        W73596   3.718  18.528  14.416
 1172W        W73597  32.581   9.380   3.092
 1173W        W73598  26.090  14.452  14.509
 1174W        W73599  16.037   0.174   2.175
 1175W        W73600  36.976  13.260  13.775
 1176W        W73601  28.516   7.950  13.583
 1177W        W73602  34.865  23.526   1.809
 1178W        W73603  36.363  19.865  13.940
 1179W        W73604  17.343  21.044  11.177
 1180W        W73605  11.172  11.129  14.457
 1181W        W73606  35.337  14.425  11.304
 1182W        W73607  22.732   0.077  12.123
 1183W        W73608  44.119   2.239   2.321
 1184W        W73609  31.314  15.124  12.796
 1185W        W73610   8.112  37.483   5.004
 1186W        W73611  39.473  43.876   4.894
 1187W        W73612  24.253  30.347   5.094
 1188W        W73613  20.708  39.434  12.560
 1189W        W73614  42.754  31.351  11.198
 1190W        W73615  28.411  26.449   0.513
 1191W        W73616  23.317  23.102   4.391
 1192W        W73617  34.484  14.297  13.444
 1193W        W73618  21.173   5.423  12.427
 1194W        W73619  32.815  13.567   4.514
 1195W        W73620  32.954  10.851   0.292
 1196W        W73621   8.440  43.530   3.497
 1197W        W73622   9.768  19.089   0.825
 1198W        W73623  41.062  36.695   2.655
 1199W        W73624  20.242  21.260   2.152
 1200W        W73625  28.105  13.274   5.105
 1201W        W73626  10.812  43.504  14.532
 1202W        W73627  11.751  23.848  11.054
 1203W        W73628  29.247  18.693  11.682
 1204W        W73629   0.761  38.655  14.437
 1205W        W73630  11.645  24.589   0.393
 1206W        W73631   8.931  44.047  14.768
 1207W        W73632  36.961  13.907  12.977
 1208W        W73633   6.246   3.785   2.302
 1209W        W73634  39.453  17.981   4.072
 1210W        W73635  18.653  11.060  11.699
 1211W        W73636  17.191  19.608  13.345
 1212W        W73637   8.613   1.863  12.964
 1213W        W73638  23.330  10.173  10.612
 1214W        W73639  12.676  40.914  13.162
 1215W        W73640  23.192   2.350   1.008
 1216W        W73641   8.938  30.002  12.444
 1217W        W73642   5.856  18.566  11.694
 1218W        W73643  28.625   9.681   0.034
 1219W        W73644   5.856  27.268  11.289
 1220W        W73645  21.625   0.516  12.415
 1221W        W73646  17.330   2.306  10.537
 1222W        W73647  30.075  10.804  11.592
 1223W        W73648  12.911  44.646  13.482
 1224W        W73649  27.678  31.735   2.757
 1225W        W73650  21.074  44.529   2.718
 1226W        W73651   0.510  24.837  14.815
 1227W        W73652  35.625  42.828  14.329
 1228W        W73653  28.636  34.014  12.781
 1229W        W73654  29.202  10.611  11.215
 1230W        W73655  21.172   0.694   4.454
 1231W        W73656  36.332  19.319  12.560
 1232W        W73657  30.141  33.775  14.866
 1233W        W73658  22.632  30.526   4.223
 1234W        W73659  35.113  25.197  12.928
 1235W        W73660  12.126  22.720   5.439
 1236W        W73661  29.387   4.218  14.918
 1237W        W73662   9.145  43.978   4.153
 1238W        W73663  30.783   0.408  11.107
 1239W        W73664  44.857  22.783   3.776
 1240W        W73665  19.544  31.005   2.226
 1241W        W73666  14.874   4.825   3.428
 1242W        W73667   7.969  21.197  13.398
 1243W        W73668   7.144   8.721  14.276
 1244W        W73669  44.399  22.290   1.593
 1245W        W73670   0.793  41.868  13.708
 1246W        W73671  19.064  33.023  11.964
 1247W        W73672  35.097  42.873   3.675
 1248W        W73673  28.871  23.696   2.210
 1249W        W73674  27.405  28.691   3.429
 1250W        W73675   7.351  10.388  11.751
 1251W        W73676   8.365  20.829   2.167
 1252W        W73677  38.180   2.280   1.250
 1253W        W73678  32.632  16.803  12.003
 1254W        W73679  33.345  26.787  14.478
 1255W        W73680  33.963  10.712  13.024
 1256W        W73681  11.133   1.366   2.314
 1257W        W73682  34.041  21.090   0.555
 1258W        W73683  23.248  39.034   4.607
 1259W        W73684  28.857   0.251  12.509
 1260W        W73685  38.095   1.383   1.284
 1261W        W73686  25.736  28.408   2.390
 1262W        W73687   7.863  37.518  13.497
 1263W        W73688  25.953   8.657  12.992
 1264W        W73689  41.821  25.539  11.938
 1265W        W73690   5.794   5.587  10.980
 1266W        W73691  10.722  37.946  14.031
 1267W        W73692   2.306  34.152  13.456
 1268W        W73693  36.930   9.412  11.164
 1269W        W73694  18.043  25.986   1.016
 1270W        W73695   8.144  22.758   2.820
 1271W        W73696  17.531  26.071   1.718
 1272W        W73697  41.381  25.786   3.295
 1273W        W73698   1.501  36.314   2.241
 1274W        W73699   8.404   8.335   2.311
 1275W        W73700  18.533  20.076   1.418
 1276W        W73701  27.465  34.111  14.027
 1277W        W73702  27.912   5.180   1.301
 1278W        W73703  40.801  29.223  14.873
 1279W        W73704  15.547  22.580   4.131
 1280W        W73705   6.888  12.222  12.011
 1281W        W73706   5.463  14.841  13.645
 1282W        W73707  41.024  27.514   3.669
 1283W        W73708  19.325  43.177  12.951
 1284W        W73709  10.242  43.769  12.575
 1285W        W73710   4.461  17.181   0.913
 1286W        W73711  11.159  41.088  13.397
 1287W        W73712  38.053  35.068  10.516
 1288W        W73713  20.615  19.221  12.817
 1289W        W73714  12.505  28.467   1.958
 1290W        W73715  20.855   3.352  14.832
 1291W        W73716  36.957   6.738   4.535
 1292W        W73717  10.825  30.468  13.329
 1293W        W73718   1.480  15.653  11.991
 1294W        W73719  15.016  27.867  14.084
 1295W        W73720  20.051  32.008  14.202
 1296W        W73721  25.507  13.640   3.046
 1297W        W73722   0.081  22.964   4.236
 1298W        W73723   3.456  13.808  11.585
 1299W        W73724  40.836  19.974  10.737
 1300W        W73725  12.849   5.442  11.168
 1301W        W73726  11.350  32.491  12.344
 1302W        W73727  33.866  17.088  11.445
 1303W        W73728  28.573  26.022  13.311
 1304W        W73729  43.031  43.522  12.094
 1305W        W73730  32.448  19.780  13.342
 1306W        W73731  38.544   1.879   2.542
 1307W        W73732  14.944  26.852  13.866
 1308W        W73733   6.175  32.142  14.348
 1309W        W73734  19.683  37.112   3.208
 1310W        W73735   4.948   8.246  13.045
 1311W        W73736  34.325  39.822  10.643
 1312W        W73737  28.128  38.917  13.068
 1313W        W73738  14.040   9.929  13.586
 1314W        W73739  44.726  15.899  13.897
 1315W        W73740  28.166  13.948  14.008
 1316W        W73741  15.141  21.567  12.698
 1317W        W73742  26.707  18.564  14.858
 1318W        W73743  42.164  18.713   2.130
 1319W        W73744  22.046  44.821   4.451
 1320W        W73745  34.458  14.141   2.671
 1321W        W73746  37.836  41.948  11.654
 1322W        W73747  38.456  14.750  14.689
 1323W        W73748  34.106  38.995  11.554
 1324W        W73749   2.121  27.907   5.009
 1325W        W73750   3.134   7.347  12.499
 1326W        W73751  38.078  21.582   2.619
 1327W        W73752  22.977  39.065  11.962
 1328W        W73753  14.330  44.891  12.588
 1329W        W73754  33.513  32.049  14.473
 1330W        W73755  29.575  19.198   0.345
 1331W        W73756  44.415  18.829   0.392
 1332W        W73757  29.437  23.947   1.269
 1333W        W73758  13.161  33.884  11.221
 1334W        W73759  26.761  15.107   2.865
 1335W        W73760   2.302  43.354  12.104
 1336W        W73761  43.602  15.315  12.063
 1337W        W73762  30.354  28.867  14.411
 1338W        W73763  36.882  34.079   2.783
 1339W        W73764  14.557  27.122   4.618
 1340W        W73765  17.330  44.417  13.763
 1341W        W73766  19.709  21.725  13.135
 1342W        W73767   1.947  43.723   3.069
 1343W        W73768  38.947   5.976  13.491
 1344W        W73769  38.072  15.891   1.249
 1345W        W73770  17.722  11.997  14.776
 1346W        W73771  15.355   2.902  11.164
 1347W        W73772  26.112  34.055  11.545
 1348W        W73773   5.828  44.590  11.488
 1349W        W73774  14.749  29.009  13.805
 1350W        W73775  23.441  33.116  12.472
 1351W        W73776  26.750  34.927  14.642
 1352W        W73777  41.224  13.993   2.874
 1353W        W73778  20.573  11.370   4.787
 1354W        W73779   8.912  36.057   3.153
 1355W        W73780  34.147  18.102  12.929
 1356W        W73781  15.204  28.460   0.296
 1357W        W73782  13.675  12.287   2.122
 1358W        W73783   0.211  32.744   2.177
 1359W        W73784  37.364   8.407  13.263
 1360W        W73785   0.661   1.922  14.694
 1361W        W73786   1.692  26.197  11.004
 1362W        W73787  26.756  33.476   1.820
 1363W        W73788  25.044  32.580  11.544
 1364W        W73789  17.024  29.570   2.323
 1365W        W73790  30.120  20.545   2.224
 1366W        W73791  13.414  23.222   1.085
 1367W        W73792   6.104   9.830  13.346
 1368W        W73793  25.677   6.780  14.893
 1369W        W73794   6.764   6.414  14.589
 1370W        W73795  21.525  13.407  11.028
 1371W        W73796   3.223  32.360  11.185
 1372W        W73797   7.827   2.476   3.735
 1373W        W73798  36.296  23.733   3.724
 1374W        W73799  36.599  39.063  14.867
 1375W        W73800  38.190  34.056  14.150
 1376W        W73801  36.044  31.014  10.689
 1377W        W73802  15.700   0.988   3.731
 1378W        W73803  33.884  10.967   3.803
 1379W        W73804  28.016   7.339   0.504
 1380W        W73805  38.890  35.367   2.628
 1381W        W73806  37.593  26.803   4.444
 1382W        W73807  13.890  23.676  11.471
 1383W        W73808   4.197   8.713   2.333
 1384W        W73809  17.695  34.657  13.942
 1385W        W73810  37.537  35.917  14.792
 1386W        W73811  12.607   2.932  11.103
 1387W        W73812  14.051   8.400   2.817
 1388W        W73813  24.600   4.781   0.794
 1389W        W73814  12.951  16.187   3.319
 1390W        W73815  10.030  11.713  14.323
 1391W        W73816  37.770  23.630   0.868
 1392W        W73817   1.830  10.904   0.764
 1393W        W73818  34.842  40.335   1.647
 1394W        W73819  25.116  26.457   3.236
 1395W        W73820   9.412  11.698  11.213
 1396W        W73821  24.089  21.298  11.454
 1397W        W73822  19.662  12.422  13.488
 1398W        W73823  14.378   1.806   2.444
 1399W        W73824  25.942  26.549  12.486
 1400W        W73825  41.875  12.380   2.561
 1401W        W73826  42.986  21.197  12.558
 1402W        W73827  18.497  44.913  11.162
 1403W        W73828  16.742   3.969  14.673
 1404W        W73829  20.210   1.975  10.692
 1405W        W73830   1.047  23.878   5.000
 1406W        W73831  24.374  23.808  14.453
 1407W        W73832   2.965  32.385  12.590
 1408W        W73833  41.656  17.716  10.302
 1409W        W73834  11.606  32.601  10.649
 1410W        W73835  25.130  34.937  12.928
 1411W        W73836  17.074  32.621  13.472
 1412W        W73837  16.098  23.049  14.788
 1413W        W73838  17.471   3.592   4.638
 1414W        W73839  24.175  12.796   2.412
 1415W        W73840  29.056  31.885   4.849
 1416W        W73841  18.598  32.130   5.066
 1417W        W73842  14.224  11.111   2.136
 1418W        W73843   7.141  32.193   4.541
 1419W        W73844   3.739  24.017  12.822
 1420W        W73845   8.096  40.294  12.903
 1421W        W73846  34.115  37.512   4.608
 1422W        W73847  11.992  28.830   1.906
 1423W        W73848   9.082   4.291   1.349
 1424W        W73849   7.300  19.837   4.374
 1425W        W73850  27.693  17.359   2.701
 1426W        W73851  22.720  33.697   2.888
 1427W        W73852  30.803  30.458   2.856
 1428W        W73853  16.745  13.238  10.425
 1429W        W73854  16.653  28.607  10.979
 1430W        W73855   5.678  29.612  11.649
 1431W        W73856  27.951   5.631  12.477
 1432W        W73857  33.879  21.258  14.829
 1433W        W73858  37.319  36.572   2.285
 1434W        W73859   1.235  39.451   3.536
 1435W        W73860   3.321  26.048  11.589
 1436W        W73861   8.666  37.599  14.487
 1437W        W73862  13.193  32.518  14.216
 1438W        W73863   7.750  34.646  11.634
 1439W        W73864  14.716  38.830   2.189
 1440W        W73865  12.253  30.995  10.668
 1441W        W73866  30.376  38.878  12.912
 1442W        W73867  16.658  18.713   4.561
 1443W        W73868  12.845  37.821   0.299
 1444W        W73869  17.033  19.723  11.040
 1445W        W73870  25.895  36.996  13.902
 1446W        W73871  19.681  31.505   2.223
 1447W        W73872  33.914  16.549  11.741
 1448W        W73873  20.663  22.549   4.260
 1449W        W73874   6.159  18.490  11.263
 1450W        W73875  25.289  16.153   1.908
 1451W        W73876  20.104  41.879   2.798
 1452W        W73877  13.078  40.560  14.960
 1453W        W73878  36.614  28.151  13.421
 1454W        W73879  21.055   9.559   4.630
 1455W        W73880  17.403   2.337  11.404
 1456W        W73881  17.515  35.343   3.176
 1457W        W73882  11.387  37.376   3.152
 1458W        W73883  38.382   8.295  10.626
 1459W        W73884  29.279  30.431  13.403
 1460W        W73885  44.997   1.983  14.045
 1461W        W73886  13.387  44.557   0.805
 1462W        W73887  40.958  38.315   2.733
 1463W        W73888  39.101   0.889  10.233
 1464W        W73889   4.781  43.215   4.042
 1465W        W73890  36.113  41.877  12.139
 1466W        W73891  18.799  43.436  14.979
 1467W        W73892  21.251  44.284   4.068
 1468W        W73893  36.956  34.169   0.324
 1469W        W73894  27.200  11.983  14.787
 1470W        W73895   4.419  31.439  11.579
 1471W        W73896  30.651  38.994  14.488
 1472W        W73897  11.805  40.848   4.699
 1473W        W73898  18.644  42.728   4.084
 1474W        W73899  41.243  41.613   1.445
 1475W        W73900   1.251  27.903   2.154
 1476W        W73901   2.978  29.906   1.412
 1477W        W73902  28.991  23.082   3.900
 1478W        W73903  38.527  20.540  14.326
 1479W        W73904  40.884  27.546  10.517
 1480W        W73905  22.020  21.949  10.996
 1481W        W73906  11.833  44.993   2.071
 1482W        W73907   3.422  23.719   0.750
 1483W        W73908  22.501   4.814  10.606
 1484W        W73909  15.266  11.601  10.716
 1485W        W73910  31.070   2.803   0.397
 1486W        W73911  44.689  38.030   3.057
 1487W        W73912  12.679  21.758  12.922
 1488W        W73913  25.889  18.142   2.499
 1489W        W73914  30.529  44.847   4.610
 1490W        W73915  25.985  22.700   2.713
 1491W        W73916  17.249  16.705  12.836
 1492W        W73917  18.347  14.095   2.076
 1493W        W73918  40.766  22.144   1.943
 1494W        W73919  20.308  12.574  12.775
 1495W        W73920  12.106   1.347   2.723
 1496W        W73921   4.433  29.157   3.638
 1497W        W73922   9.930  24.022   4.557
 1498W        W73923  42.358   2.183  14.902
 1499W        W73924  36.466  17.139   2.695
 1500W        W73925  33.920   5.268   2.933
 1501W        W73926   7.719  38.144   4.643
 1502W        W73927  32.862  10.388  11.021
 1503W        W73928  11.436  19.822   0.713
 1504W        W73929   2.988   9.432  11.084
 1505W        W73930  36.501  30.019   2.970
 1506W        W73931  17.817  15.771   1.302
 1507W        W73932  18.628  18.625   3.899
 1508W        W73933   1.589  44.613  11.111
 1509W        W73934  14.080  10.509   3.174
 1510W        W73935  26.928  29.353  13.998
 1511W        W73936  26.101  33.538  14.868
 1512W        W73937  21.195  27.204  14.436
 1513W        W73938  28.818   9.726   1.449
 1514W        W73939  20.640  26.569   1.520
 1515W        W73940  10.122  31.131   3.697
 1516W        W73941  23.603   3.524  14.865
 1517W        W73942   1.725  43.350   1.194
 1518W        W73943   0.271  21.045  12.211
 1519W        W73944  38.391  19.871  11.617
 1520W        W73945  39.489  27.123  10.669
 1521W        W73946  36.576  11.268   1.013
 1522W        W73947  25.122  22.237   0.912
 1523W        W73948   7.851   3.808   0.208
 1524W        W73949   0.829   8.685  14.338
 1525W        W73950   9.075  25.470   0.481
 1526W        W73951  36.633   1.800   3.693
 1527W        W73952  38.386  13.357   4.631
 1528W        W73953  23.466  40.809  10.811
 1529W        W73954  17.045  25.572  13.363
 1530W        W73955  39.123   8.700  14.522
 1531W        W73956   9.839  16.195  14.695
 1532W        W73957   8.156   0.434   0.769
 1533W        W73958  38.607   5.686  13.243
 1534W        W73959  28.573  28.936   2.206
 1535W        W73960   0.025  19.718   1.721
 1536W        W73961  33.110  39.024  14.084
 1537W        W73962  35.245  39.149  12.484
 1538W        W73963  35.630  31.403  13.837
 1539W        W73964   7.302  34.972   2.960
 1540W        W73965  10.213   6.477   3.310
 1541W        W73966   0.064  16.250   2.536
 1542W        W73967   5.742  27.515   0.444
 1543W        W73968   7.314   9.049   2.405
 1544W        W73969  25.964  37.131  14.848
 1545W        W73970  32.985  10.330   1.381
 1546W        W73971  38.075  33.625   3.659
 1547W        W73972  44.510  24.731  14.780
 1548W        W73973  24.501  12.550   3.957
 1549W        W73974  27.434   8.627   0.696
 1550W        W73975  34.428  31.885  13.483
 1551W        W73976  15.210  33.083  12.804
 1552W        W73977  12.338  32.374   4.136
 1553W        W73978   4.339  29.584   0.054
 1554W        W73979  25.159  14.744   3.364
 1555W        W73980  28.531  43.028   0.412
 1556W        W73981   7.832   3.443   0.618
 1557W        W73982  39.875   1.335   4.076
 1558W        W73983   8.249  41.094  12.409
 1559W        W73984   6.907  12.541   2.955
 1560W        W73985  23.557  20.103   0.093
 1561W        W73986   6.544  36.297   4.681
 1562W        W73987  24.105  13.600   4.089
 1563W        W73988  13.519  26.977   1.427
 1564W        W73989   3.909  33.100  10.789
 1565W        W73990  20.260  10.371   3.122
 1566W        W73991   8.746   4.372   0.215
 1567W        W73992  38.508   0.680   0.097
 1568W        W73993  17.197  35.322   0.376
 1569W        W73994  39.339  35.979  11.172
 1570W        W73995  12.852   0.986   3.658
 1571W        W73996  21.312  44.196   4.581
 1572W        W73997  26.712  27.563   3.156
 1573W        W73998  33.193  43.822   0.821
 1574W        W73999  33.603  14.194  14.831
 1575W        W74000   8.379  25.682   3.513
 1576W        W74001  26.701   5.859  13.866
 1577W        W74002  26.723  30.616  11.214
 1578W        W74003   7.345  20.769   0.505
 1579W        W74004   5.712  19.294   3.645
 1580W        W74005   2.569  11.024  13.411
 1581W        W74006  29.121   1.147   1.305
 1582W        W74007  14.515  24.704   1.311
 1583W        W74008   5.358  38.267   2.336
 1584W        W74009  27.756  32.001   1.251
 1585W        W74010  41.016  20.334  14.205
 1586W        W74011  35.176  36.982  12.997
 1587W        W74012   1.177  38.391  14.622
 1588W        W74013   8.751  34.708  12.432
 1589W        W74014  39.886  41.747   4.542
 1590W        W74015   5.697  26.563   4.753
 1591W        W74016  39.280  37.572  11.947
 1592W        W74017  12.162  35.172  14.631
 1593W        W74018  16.570  34.522  11.928
 1594W        W74019  31.591  20.061  10.699
 1595W        W74020  20.764   6.727  13.079
 1596W        W74021  35.341  43.471   4.112
 1597W        W74022  17.632  16.897   2.763
 1598W        W74023   0.415  38.806  14.813
 1599W        W74024  38.387  35.152   4.659
 1600W        W74025   2.513  27.988   9.879
 1601W        W74026   6.164   1.984   2.574
 1602W        W74027  15.699  39.383   0.910
 1603W        W74028  35.507  27.508  11.490
 1604W        W74029  15.629  20.559  11.725
 1605W        W74030  26.421  40.751   4.202
 1606W        W74031   1.572  28.256  14.441
 1607W        W74032   1.865  22.692   0.298
 1608W        W74033  43.060  15.340   4.048
 1609W        W74034  14.667  28.105  12.657
 1610W        W74035  20.300  10.433   2.586
 1611W        W74036  32.037  41.581   0.913
 1612W        W74037   2.927  37.426   2.902
 1613W        W74038  29.918  39.497   3.327
 1614W        W74039  11.325  16.115  10.782
 1615W        W74040  25.508  11.970  10.331
 1616W        W74041  11.127   0.567   3.545
 1617W        W74042   7.218  11.633  12.581
 1618W        W74043  34.008  43.202   0.367
 1619W        W74044  32.078  29.146  13.927
 1620W        W74045  42.939  38.377  12.866
 1621W        W74046  11.294  15.570   3.682
 1622W        W74047  20.795   8.810  13.296
 1623W        W74048  44.754   6.930  13.735
 1624W        W74049  43.531  19.172  13.068
 1625W        W74050  16.537  28.422   3.387
 1626W        W74051  24.502  29.050   2.580
 1627W        W74052  44.057  35.542   3.742
 1628W        W74053  44.269  33.735  12.616
 1629W        W74054  28.546  27.222  12.966
 1630W        W74055  27.586   5.705  10.669
 1631W        W74056  14.101   1.277  13.227
 1632W        W74057  39.550  28.467   1.953
 1633W        W74058  38.512  16.705   0.486
 1634W        W74059  41.122  39.803  12.859
 1635W        W74060  41.914  27.167   4.564
 1636W        W74061  15.362  35.713  10.375
 1637W        W74062  25.924  44.315   1.815
 1638W        W74063  40.483  23.205   0.080
 1639W        W74064   3.426  25.339  12.911
 1640W        W74065  21.087  44.469   0.684
 1641W        W74066  16.278  40.496   4.044
 1642W        W74067  27.703  27.057  11.555
 1643W        W74068  30.620   7.641  14.414
 1644W        W74069  29.115   3.481   1.344
 1645W        W74070  32.929  28.014  13.890
 1646W        W74071  13.390  41.508  10.070
 1647W        W74072   4.450  36.100   1.825
 1648W        W74073  29.422  36.961  14.807
 1649W        W74074   8.330   3.279   2.356
 1650W        W74075  12.635  29.244   0.341
 1651W        W74076  12.737   3.913   4.698
 1652W        W74077  44.408  33.142  10.763
 1653W        W74078  43.063  37.779  14.477
 1654W        W74079  30.651  23.703   3.892
 1655W        W74080  28.546  22.039   1.643
 1656W        W74081   7.232  32.081  11.337
 1657W        W74082  23.097  37.559  12.010
 1658W        W74083  43.317   3.460  13.466
 1659W        W74084   0.511  40.254   2.382
 1660W        W74085   6.483  44.032   2.490
 1661W        W74086  29.045  27.424   2.881
 1662W        W74087   3.523  27.872  10.595
 1663W        W74088  41.570  28.854   1.922
 1664W        W74089  11.242  18.196   2.595
 1665W        W74090  22.624  41.275   0.881
 1666W        W74091  44.494  40.080   3.542
 1667W        W74092  11.830   1.335   1.025
 1668W        W74093  30.402   7.931  13.463
 1669W        W74094  24.086  35.363  14.340
 1670W        W74095  29.677  37.170   1.628
 1671W        W74096  30.361  39.129  11.101
 1672W        W74097   6.264   0.273   0.399
 1673W        W74098  10.222  28.774  10.194
 1674W        W74099  36.820   3.919  12.824
 1675W        W74100  37.877   4.180   4.586
 1676W        W74101  39.804  32.867   4.147
 1677W        W74102  39.303  32.216  13.074
 1678W        W74103  19.468  12.825   1.251
 1679W        W74104  33.913   3.937   1.478
 1680W        W74105  28.431  31.680   2.705
 1681W        W74106  15.550  23.036   3.882
 1682W        W74107  31.169  21.556  13.864
 1683W        W74108  22.674   9.280  13.589
 1684W        W74109  37.874  34.113  10.656
 1685W        W74110  40.205  25.803   3.638
 1686W        W74111   0.932  19.266  14.867
 1687W        W74112  11.814   1.821   2.632
 1688W        W74113  15.683  13.107  12.788
 1689W        W74114  10.124  23.959   4.037
 1690W        W74115  17.376   5.305   1.556
 1691W        W74116   4.922  43.840  10.739
 1692W        W74117  44.109  17.083  14.908
 1693W        W74118  33.934  30.496   2.378
 1694W        W74119  30.579  13.929   4.109
 1695W        W74120  16.336   7.234   5.009
 1696W        W74121  25.082  30.536  12.805
 1697W        W74122  32.568  43.255  13.845
 1698W        W74123  22.490  28.912   3.224
 1699W        W74124  16.531  31.934   0.913
 1700W        W74125   4.705  21.066  14.399
 1701W        W74126   4.941  39.604   2.245
 1702W        W74127  35.980  28.926  11.542
 1703W        W74128  17.650  30.131  13.981
 1704W        W74129  36.098   8.891   2.267
 1705W        W74130  30.037  27.922  13.995
 1706W        W74131  28.579  36.092  14.413
 1707W        W74132  28.435  34.467  11.990
 1708W        W74133  31.683  11.417  10.211
 1709W        W74134  16.392  14.385   2.175
 1710W        W74135  24.498  13.719   2.297
 1711W        W74136  42.907  22.040   0.773
 1712W        W74137   8.854  10.146   2.093
 1713W        W74138  28.257  18.808  11.384
 1714W        W74139  35.902   3.709   3.204
 1715W        W74140  25.528  12.210  12.800
 1716W        W74141  41.814   5.745  13.923
 1717W        W74142  20.655  26.683  10.732
 1718W        W74143   2.894  36.358  12.340
 1719W        W74144   8.946  14.329   1.461
 1720W        W74145  43.692   7.903   0.201
 1721W        W74146  38.277  19.303  13.409
 1722W        W74147  29.577  29.965   0.224
 1723W        W74148  33.978  20.490   4.162
 1724W        W74149  20.079   9.117  13.539
 1725W        W74150  16.010  34.981  11.444
 1726W        W74151   2.748   3.289  10.864
 1727W        W74152  28.346   8.083  14.512
 1728W        W74153  33.103  33.548  13.406
 1729W        W74154  29.160   6.324  13.774
 1730W        W74155  39.556   4.644   5.000
 1731W        W74156   4.206  13.324  12.547
 1732W        W74157  42.048  11.642   2.282
 1733W        W74158  34.037  10.954  12.566
 1734W        W74159   6.934  35.317   4.192
 1735W        W74160  32.357  11.052   1.333
 1736W        W74161  42.313  33.522  14.521
 1737W        W74162   3.269  43.894  13.984
 1738W        W74163   4.949  22.780   1.985
 1739W        W74164  26.145  11.893   1.970
 1740W        W74165  27.639   5.836  13.489
 1741W        W74166  16.710  23.228  11.038
 1742W        W74167  35.616  20.672  10.677
 1743W        W74168  31.202  41.265  11.069
 1744W        W74169  25.419  30.594  11.812
 1745W        W74170   5.877  11.879   2.047
 1746W        W74171  28.600  18.827  12.546
 1747W        W74172  32.610   7.237   0.321
 1748W        W74173   1.011  18.047   0.265
 1749W        W74174  31.022  23.647   4.249
 1750W        W74175  31.635  32.618   4.819
 1751W        W74176  13.903   6.781   2.215
 1752W        W74177  24.722  30.428  13.189
 1753W        W74178  27.863  13.106  12.906
 1754W        W74179   2.740   7.765   4.086
 1755W        W74180   0.234   2.805  11.289
 1756W        W74181  40.387  37.796   0.845
 1757W        W74182  22.997   1.302   4.288
 1758W        W74183   5.760  13.791  10.662
 1759W        W74184  16.579  30.491   0.407
 1760W        W74185  35.921   3.818   2.672
 1761W        W74186  26.455  23.657  14.289
 1762W        W74187  26.698  25.216  10.738
 1763W        W74188  36.638  43.069  10.181
 1764W        W74189  29.837  36.670   1.520
 1765W        W74190  41.883   6.338   1.342
 1766W        W74191  15.735  18.062   2.389
 1767W        W74192  19.818  36.784  14.386
 1768W        W74193  36.802   6.253  10.358
 1769W        W74194  20.742  34.286   2.619
 1770W        W74195  39.760  38.522  14.182
 1771W        W74196  39.915  43.724   2.669
 1772W        W74197  13.091  21.832   0.926
 1773W        W74198  18.298  23.669  10.629
 1774W        W74199  10.564  37.478  10.233
 1775W        W74200  39.030  24.801   1.698
 1776W        W74201  19.683  39.398   2.182
 1777W        W74202  40.616  23.695   9.888
 1778W        W74203  11.837  21.280  14.961
 1779W        W74204  32.374  36.093   0.084
 1780W        W74205  21.708   2.925   4.931
 1781W        W74206  18.776  41.348   4.377
 1782W        W74207  26.123  29.138  14.825
 1783W        W74208  11.078  26.586  14.318
 1784W        W74209  28.034   4.568   4.274
 1785W        W74210  18.521  27.770  11.901
 1786W        W74211  18.430  40.876  14.705
 1787W        W74212  30.310  17.278  14.028
 1788W        W74213   8.400  42.848  11.204
 1789W        W74214   9.226  29.569  12.383
 1790W        W74215   8.177   0.641  11.154
 1791W        W74216  22.148   5.315  12.329
 1792W        W74217  36.508  12.036   0.046
 1793W        W74218  32.586   0.951  11.521
 1794W        W74219  40.479  12.735  14.117
 1795W        W74220  17.268   1.223   0.937
 1796W        W74221  17.616  29.516   0.997
 1797W        W74222  25.485  16.475  13.397
 1798W        W74223   4.137  17.052   4.263
 1799W        W74224  22.991  10.979  11.483
 1800W        W74225  34.910  16.916   0.251
 1801W        W74226  40.767  37.824  14.915
 1802W        W74227   4.847  11.117  11.163
 1803W        W74228  15.131  32.591   0.390
 1804W        W74229  13.783   7.482   2.694
 1805W        W74230  17.796   2.011  12.063
 1806W        W74231  17.738  34.987   2.242
 1807W        W74232  27.739   5.297   1.947
 1808W        W74233  25.576  10.854   3.129
 1809W        W74234  42.725  12.784   1.666
 1810W        W74235  42.972   5.135  13.475
 1811W        W74236  11.792  28.416   4.250
 1812W        W74237  22.312  17.620   2.802
 1813W        W74238  41.535   7.409  12.989
 1814W        W74239  20.117   0.913  13.008
 1815W        W74240  43.966  38.825   4.570
 1816W        W74241  13.536  44.711   3.647
 1817W        W74242  37.027  25.152   2.287
 1818W        W74243  37.777   6.384  10.727
 1819W        W74244  40.398  25.677   1.229
 1820W        W74245  43.808  23.622   2.773
 1821W        W74246   4.911  43.649  11.615
 1822W        W74247  28.098   4.940   2.824
 1823W        W74248  21.298  11.343  10.194
 1824W        W74249  41.272   7.999  11.661
 1825W        W74250  15.703  37.529  14.485
 1826W        W74251  25.107  31.109   0.434
 1827W        W74252  29.527  38.617  11.035
 1828W        W74253   8.841  44.931   0.220
 1829W        W74254  22.367   5.717  12.108
 1830W        W74255   4.886  17.252  12.390
 1831W        W74256   2.006  31.138   1.447
 1832W        W74257  30.571  21.730   3.671
 1833W        W74258   2.387  23.518  12.674
 1834W        W74259  24.109  21.753   1.242
 1835W        W74260   2.151   8.774   2.762
 1836W        W74261  32.428  28.707   3.902
 1837W        W74262   5.013  20.184  14.124
 1838W        W74263  28.214  23.473   0.479
 1839W        W74264  35.071  40.324  13.385
 1840W        W74265  43.010  27.063   0.277
 1841W        W74266  35.351  25.498   3.398
 1842W        W74267  23.135  16.786   0.823
 1843W        W74268   2.904  14.120  11.012
 1844W        W74269  15.849  22.475   2.434
 1845W        W74270  33.372  16.062  12.263
 1846W        W74271  29.536  43.678  13.132
 1847W        W74272   3.250  27.654  11.404
 1848W        W74273  23.945  44.302  10.743
 1849W        W74274  44.753  18.275  12.107
 1850W        W74275  30.627  14.415   1.382
 1851W        W74276   8.142  28.767  12.875
 1852W        W74277   8.603   1.870   1.566
 1853W        W74278  28.116   4.908   5.069
 1854W        W74279  33.992  16.396   1.999
 1855W        W74280  41.526   0.912   1.890
 1856W        W74281   1.553  37.640   1.803
 1857W        W74282   1.274  28.702   0.243
 1858W        W74283  40.267  23.583   0.686
 1859W        W74284   5.207  17.837  14.392
 1860W        W74285  25.477  20.093  10.745
 1861W        W74286  20.524  14.118   3.464
 1862W        W74287  16.060  44.940   0.042
 1863W        W74288  26.589  15.647   0.099
 1864W        W74289  19.654  39.174   2.919
 1865W        W74290  19.572  36.080   3.712
 1866W        W74291  14.360   6.850   4.927
 1867W        W74292   7.670  41.718   4.576
 1868W        W74293   0.146   3.812  12.267
 1869W        W74294  27.362  38.257   0.412
 1870W        W74295  20.588  16.466  14.401
 1871W        W74296  23.081  32.875  11.138
 1872W        W74297  25.565  10.634  11.967
 1873W        W74298  16.294  32.211   3.996
 1874W        W74299   1.370   2.232  12.606
 1875W        W74300  36.500  25.974  10.389
 1876W        W74301  18.587  21.740  14.288
 1877W        W74302  22.462   3.489  11.543
 1878W        W74303  16.398  24.174  14.320
 1879W        W74304  15.192  35.902  11.396
 1880W        W74305  31.593  33.212   0.441
 1881W        W74306   0.336  30.193   4.571
 1882W        W74307  15.593  43.860   0.297
 1883W        W74308  26.679   6.250  10.657
 1884W        W74309  44.483  38.094  13.380
 1885W        W74310  18.154  44.014   1.297
 1886W        W74311  37.266  11.091   1.824
 1887W        W74312  37.722   1.806   2.463
 1888W        W74313   4.943   1.925  11.222
 1889W        W74314  29.363  18.229  11.019
 1890W        W74315  27.387  37.877  12.651
 1891W        W74316  41.974  29.889  10.757
 1892W        W74317  12.899  24.248  14.801
 1893W        W74318   7.822  22.274  10.712
 1894W        W74319  27.192   7.930  12.562
 1895W        W74320  14.288  22.586  11.382
 1896W        W74321  38.536  32.538  14.230
 1897W        W74322  19.147  22.781  11.628
 1898W        W74323   6.274  17.755  10.718
 1899W        W74324  38.488  23.097  14.733
 1900W        W74325  29.935  26.100   2.291
 1901W        W74326  11.955  38.960  14.993
 1902W        W74327  44.867  31.153   0.378
 1903W        W74328  31.418  27.906   0.005
 1904W        W74329   7.328  41.977   0.770
 1905W        W74330   6.188  35.866   2.840
 1906W        W74331  24.127   3.344  12.521
 1907W        W74332  30.598  19.066   4.692
 1908W        W74333   0.893  40.581   1.321
 1909W        W74334  33.120  44.321   1.890
 1910W        W74335   2.819  30.149  11.893
 1911W        W74336  37.017  25.525   1.347
 1912W        W74337  32.739  12.902   0.844
 1913W        W74338  41.478  43.515  12.314
 1914W        W74339  11.433   7.768   4.152
 1915W        W74340   5.619   2.160   2.395
 1916W        W74341  38.993   8.761  12.668
 1917W        W74342   0.413  39.329  14.898
 1918W        W74343  22.497   5.084   3.051
 1919W        W74344  35.908  19.085   2.904
 1920W        W74345  36.489  15.153   1.944
 1921W        W74346  24.472   8.143   1.326
 1922W        W74347  14.492  35.487  10.761
 1923W        W74348   0.966  16.868  13.294
 1924W        W74349  44.566  28.026   1.802
 1925W        W74350  34.027  18.562   0.361
 1926W        W74351  16.762  15.692   4.598
 1927W        W74352  31.493  16.510  14.038
 1928W        W74353  14.659  10.709  14.523
 1929W        W74354  19.233  20.758   1.369
 1930W        W74355  30.545  24.073  13.842
 1931W        W74356   8.023   0.873  10.701
 1932W        W74357   7.238  14.200   1.364
 1933W        W74358  25.204  14.131  13.829
 1934W        W74359  25.635   6.756   0.919
 1935W        W74360  39.083  39.991   0.084
 1936W        W74361  41.025  13.885   1.486
 1937W        W74362  33.116  30.780   2.972
 1938W        W74363   8.359  15.825  13.028
 1939W        W74364  38.381   4.363  13.050
 1940W        W74365  24.673   2.475  11.890
 1941W        W74366  42.299  19.247  13.830
 1942W        W74367   8.268  37.800   3.304
 1943W        W74368  25.503   5.199   2.481
 1944W        W74369  41.313   9.991  11.554
 1945W        W74370  39.001  18.787  14.998
 1946W        W74371  17.576  21.481  11.316
 1947W        W74372  25.421   4.204  12.069
 1948W        W74373  30.843  40.959   3.357
 1949W        W74374  26.295  11.514   5.128
 1950W        W74375   1.815  26.533  11.902
 1951W        W74376  38.953   3.437   4.482
 1952W        W74377  39.328   7.430  11.632
 1953W        W74378  34.549  15.585  14.169
 1954W        W74379  11.751  27.107   3.778
 1955W        W74380  44.964   8.328  12.976
 1956W        W74381   8.396  18.107   1.866
 1957W        W74382  20.704   8.197  11.512
 1958W        W74383  39.084  24.864  14.368
 1959W        W74384  10.386  17.060  11.840
 1960W        W74385  26.062   8.968   2.456
 1961W        W74386  12.363  30.736   3.866
 1962W        W74387  35.654   2.730  13.944
 1963W        W74388  36.890  28.095   0.417
 1964W        W74389   2.778  40.144  12.686
 1965W        W74390   0.728  35.000   2.612
 1966W        W74391  15.958  35.049  10.116
 1967W        W74392  38.373  23.623   3.393
 1968W        W74393   4.271  23.508   4.308
 1969W        W74394  11.151  17.270  10.679
 1970W        W74395  37.350   2.982   2.236
 1971W        W74396  11.644  40.448  11.430
 1972W        W74397  25.487  41.518  11.852
 1973W        W74398  40.614  18.112  11.593
 1974W        W74399   5.936  41.931  14.422
 1975W        W74400  16.735  38.365  14.333
 1976W        W74401  20.723  43.680  12.647
 1977W        W74402  28.636  21.138   2.152
 1978W        W74403  11.601   5.922  12.580
 1979W        W74404   3.957   6.424   2.441
 1980W        W74405  23.013   4.252   0.049
 1981W        W74406  34.857  38.429  11.651
 1982W        W74407  14.643   5.820   0.679
 1983W        W74408  23.106   5.154   4.112
 1984W        W74409  23.207  27.771   2.457
 1985W        W74410  22.777  31.570   4.553
 1986W        W74411  11.679   6.257  11.772
 1987W        W74412  30.014  33.022   1.704
 1988W        W74413  10.607  25.135   2.877
 1989W        W74414  43.731   4.224  12.473
 1990W        W74415  15.140  17.739   4.191
 1991W        W74416  11.264   3.901   2.506
 1992W        W74417  16.547   9.422   3.694
 1993W        W74418  17.521  22.037  13.706
 1994W        W74419   7.256  11.335   2.828
 1995W        W74420  29.619  20.590   0.283
 1996W        W74421  44.952   8.688   4.051
 1997W        W74422  40.355  28.078   2.392
 1998W        W74423   8.923  21.134   5.027
 1999W        W74424  18.592   6.754  11.591
 2000W        W74425  20.602  41.710  10.674
 2001W        W74426  24.997  20.156  12.930
 2002W        W74427  41.494   9.393  10.780
 2003W        W74428   5.033  36.215   2.536
 2004W        W74429  30.889  38.812  12.870
 2005W        W74430  39.570  40.591  12.243
 2006W        W74431   1.347   1.128   0.333
 2007W        W74432  30.153  10.298   4.595
 2008W        W74433   1.232  28.627  11.681
 2009W        W74434   2.904  20.311   0.374
 2010W        W74435   7.708  15.149  10.656
 2011W        W74436   1.988  36.632  12.451
 2012W        W74437   1.836  15.802   1.207
 2013W        W74438  34.313  11.268   2.156
 2014W        W74439  21.034  22.014   2.744
 2015W        W74440  12.866  37.547   2.315
 2016W        W74441  37.323   2.781  11.570
 2017W        W74442  33.946  22.641   0.223
 2018W        W74443  32.571   4.912  10.011
 2019W        W74444  20.652  42.888   0.401
 2020W        W74445  33.542  27.845   5.114
 2021W        W74446  23.794  21.369   2.000
 2022W        W74447  39.979  15.732  11.166
 2023W        W74448  43.007  36.584  11.087
 2024W        W74449  20.011  43.598   1.257
 2025W        W74450  36.424   5.484  13.122
 2026W        W74451   3.923  44.288   3.220
 2027W        W74452   6.254   8.367   4.930
 2028W        W74453  27.427  19.054   3.214
 2029W        W74454  43.809   7.736  12.493
 2030W        W74455   5.671  15.366  13.132
 2031W        W74456   3.905  18.028  10.735
 2032W        W74457   2.351  42.083   2.422
 2033W        W74458  38.930   2.705  11.818
 2034W        W74459  21.773  15.534  12.657
 2035W        W74460   7.016  38.415  13.522
 2036W        W74461   7.229  40.364  13.942
 2037W        W74462  34.928  28.840   0.694
 2038W        W74463   5.334   7.873  12.189
 2039W        W74464   7.921  42.821   3.806
 2040W        W74465  37.976  41.936  14.286
 2041W        W74466  23.584  34.976  13.786
 2042W        W74467  22.867  16.575  13.011
 2043W        W74468  27.145  16.356   0.570
 2044W        W74469  18.230  32.822   9.851
 2045W        W74470  42.769  34.838  14.866
 2046W        W74471  20.622  35.413   2.367
 2047W        W74472  35.016   3.132  13.915
 2048W        W74473   7.793  41.265  10.980
 2049W        W74474  14.569  14.760  11.603
 2050W        W74475  20.563  30.072   0.008
 2051W        W74476  17.820  40.099  12.913
 2052W        W74477   8.852  39.433  13.313
 2053W        W74478   4.680  30.505   2.405
 2054W        W74479  39.748  33.039   3.111
 2055W        W74480   4.285  39.993  10.522
 2056W        W74481  17.658  26.440  10.594
 2057W        W74482  25.489  32.400  14.452
 2058W        W74483  35.835  13.733  14.870
 2059W        W74484   8.382  33.379   4.492
 2060W        W74485  27.899  33.057   3.092
 2061W        W74486  32.227  28.194   3.641
 2062W        W74487  33.837  38.021  12.916
 2063W        W74488  13.364  27.989   2.266
 2064W        W74489  14.883  20.173   2.362
 2065W        W74490  23.987  10.636  14.430
 2066W        W74491  20.093  41.989  12.017
 2067W        W74492  24.181  13.507   1.887
 2068W        W74493   6.126  23.224  13.558
 2069W        W74494  10.141  15.767   2.231
 2070W        W74495   5.008   7.091  12.059
 2071W        W74496  41.914  37.239   0.486
 2072W        W74497  19.935  18.336   2.680
 2073W        W74498  10.843   0.964   4.548
 2074W        W74499  26.397   1.957  11.053
 2075W        W74500   7.041  12.669  13.030
 2076W        W74501  31.538   7.825  14.466
 2077W        W74502  23.936  15.074  14.371
 2078W        W74503  38.073  35.344   1.380
 2079W        W74504   6.913  17.097  13.427
 2080W        W74505  21.144   5.391   1.192
 2081W        W74506  43.954  24.293  10.529
 2082W        W74507  17.438  31.059   2.280
 2083W        W74508  27.046  44.537   4.824
 2084W        W74509  21.782  40.055  10.300
 2085W        W74510   0.287  14.122  14.836
 2086W        W74511  40.582   7.957   1.190
 2087W        W74512  25.415  13.491   2.550
 2088W        W74513  30.537  37.985   4.785
 2089W        W74514  23.022  19.997  13.372
 2090W        W74515   0.861  37.053   3.626
 2091W        W74516  14.346  36.258  14.320
 2092W        W74517  38.084  30.645   1.282
 2093W        W74518   4.790  15.762  10.749
 2094W        W74519   7.204  42.018  11.630
 2095W        W74520   9.477  35.469  10.660
 2096W        W74521   2.252  20.539  11.245
 2097W        W74522   1.645   2.446   3.851
 2098W        W74523  18.978  14.695   4.590
 2099W        W74524  26.085  36.278  11.404
 2100W        W74525  32.166  18.971  13.064
 2101W        W74526  11.679   6.157   4.927
 2102W        W74527   3.428  18.583   2.422
 2103W        W74528  40.263  13.893  12.526
 2104W        W74529  15.344  42.063   0.584
 2105W        W74530  44.382  40.153   0.736
 2106W        W74531  11.068  21.126   4.288
 2107W        W74532  43.806  22.632  12.380
 2108W        W74533   7.447  36.418  13.005
 2109W        W74534  17.637   5.894  11.840
 2110W        W74535  15.077   6.274  11.662
 2111W        W74536  12.688  43.116  11.262
 2112W        W74537  29.305   1.758   2.375
 2113W        W74538  34.180  41.404   1.978
 2114W        W74539  10.947  26.636   1.423
 2115W        W74540  12.589  41.919  14.803
 2116W        W74541  43.021   8.639  14.071
 2117W        W74542  37.314  13.589  14.887
 2118W        W74543   5.768  27.990   4.308
 2119W        W74544  33.947   6.373   3.141
 2120W        W74545   4.979  19.307  12.595
 2121W        W74546  14.032  25.015  12.647
 2122W        W74547  28.775  31.964   0.003
 2123W        W74548  36.498  24.962   3.327
 2124W        W74549   1.617  23.006   2.348
 2125W        W74550  41.929  42.249  12.993
 2126W        W74551  33.008  35.997   4.252
 2127W        W74552  31.250  34.397  14.983
 2128W        W74553  31.810  24.153  11.373
 2129W        W74554  11.107  23.755  11.488
 2130W        W74555  27.638  41.959  13.053
 2131W        W74556   3.364  20.742   1.247
 2132W        W74557   7.330  10.338   3.315
 2133W        W74558  42.387  26.115  12.526
 2134W        W74559  42.538   9.181  14.679
 2135W        W74560  10.427  30.906  13.108
 2136W        W74561  39.292  44.562  13.055
 2137W        W74562  44.505  44.028   3.683
 2138W        W74563   3.769  34.028   3.798
 2139W        W74564   7.846  41.861   0.792
 2140W        W74565  11.631  35.376   2.261
 2141W        W74566  12.616  10.099   4.996
 2142W        W74567  16.112  36.337  11.629
 2143W        W74568   7.274   4.776   4.097
 2144W        W74569  44.286   1.682  12.028
 2145W        W74570  29.685   2.782  10.971
 2146W        W74571  38.951   7.660   4.851
 2147W        W74572   2.921  30.159   0.965
 2148W        W74573  31.129  42.504   4.634
 2149W        W74574  10.679  44.286   0.313
 2150W        W74575   0.777  18.521   4.297
 2151W        W74576   2.778   3.804  12.605
 2152W        W74577  29.135  25.436   4.655
 2153W        W74578  44.220  14.306  11.389
 2154W        W74579  38.928  38.462  10.696
 2155W        W74580  19.721  37.965  11.115
 2156W        W74581   9.883  23.363  12.874
 2157W        W74582  28.541   8.154  11.276
 2158W        W74583  17.951  27.187  10.659
 2159W        W74584  13.806  20.429  12.522
 2160W        W74585  42.902  24.692   4.079
 2161W        W74586   9.183  41.842  10.977
 2162W        W74587  42.146  24.751  13.121
 2163W        W74588   3.656   9.336  12.480
 2164W        W74589  26.189  35.073   4.764
 2165W        W74590  44.021   8.109   0.538
 2166W        W74591  42.473  30.064   0.539
 2167W        W74592  23.382   9.341  11.010
 2168W        W74593  34.967   2.007  10.931
 2169W        W74594  43.001  34.925  10.348
 2170W        W74595  30.453  12.771  10.729
 2171W        W74596   3.203   9.140  11.435
 2172W        W74597  29.725  35.461   3.226
 2173W        W74598  18.207   1.733   0.953
 2174W        W74599   5.699  43.590  12.491
 2175W        W74600  15.095   5.313  14.805
 2176W        W74601  13.205   9.716  13.967
 2177W        W74602  21.998  22.459  13.327
 2178W        W74603  40.284   7.924   3.523
 2179W        W74604  28.187   2.647  13.783
 2180W        W74605   4.024  42.430  13.359
 2181W        W74606   3.375   8.320   4.120
 2182W        W74607  15.654   6.922   4.867
 2183W        W74608  35.544  34.558   4.557
 2184W        W74609  18.453  23.529  11.582
 2185W        W74610  32.129   2.927  13.454
 2186W        W74611  25.996  11.372   2.164
 2187W        W74612   3.504  39.587   0.365
 2188W        W74613  42.910  34.519  13.029
 2189W        W74614   5.342  12.769  10.382
 2190W        W74615  23.493  39.348   4.168
 2191W        W74616   7.292  31.749   0.893
 2192W        W74617  13.236   1.991   2.261
 2193W        W74618  43.923  11.841  12.847
 2194W        W74619   6.857  19.640  13.465
 2195W        W74620  26.982  23.414   0.426
 2196W        W74621  17.177   8.272  12.547
 2197W        W74622  12.240  11.373  11.120
 2198W        W74623   5.997  44.876  14.462
 2199W        W74624   4.513  39.403   0.378
 2200W        W74625  22.209  29.201  11.862
 2201W        W74626  44.960  35.190   3.690
 2202W        W74627   6.758  10.081  13.946
 2203W        W74628  15.836   5.826  11.658
 2204W        W74629  32.062  18.488  14.031
 2205W        W74630  43.361  18.017  10.513
 2206W        W74631   2.079  33.429   1.505
 2207W        W74632  33.045  43.370  10.659
 2208W        W74633  42.097  23.061   4.425
 2209W        W74634  38.095   3.612   3.706
 2210W        W74635  21.543  10.259   3.825
 2211W        W74636  43.797   3.681  13.476
 2212W        W74637  40.813  14.247  10.739
 2213W        W74638   1.492   8.122  11.634
 2214W        W74639   1.807  33.047  11.904
 2215W        W74640  30.962   0.105   0.349
 2216W        W74641   5.863  26.508  14.288
 2217W        W74642  24.225  20.059   2.771
 2218W        W74643  17.056   9.177  11.703
 2219W        W74644  38.018   6.650   4.542
 2220W        W74645  12.151  11.720   4.625
 2221W        W74646   5.348  13.618  11.535
 2222W        W74647  18.670   1.964  12.136
 2223W        W74648  36.886  36.604   0.913
 2224W        W74649   0.272  44.388  13.508
 2225W        W74650  15.301  31.160   3.868
 2226W        W74651  14.240  30.106  13.796
 2227W        W74652   0.192  21.591  11.417
 2228W        W74653  31.650  39.895   4.553
 2229W        W74654  27.491   7.774   3.220
 2230W        W74655  28.569  13.890   3.164
 2231W        W74656  16.318  40.750  11.672
 2232W        W74657  35.091  18.412  13.794
 2233W        W74658   4.904  41.541   2.761
 2234W        W74659  11.696   7.395   5.471
 2235W        W74660   8.165  17.808   3.637
 2236W        W74661   9.826  44.371   3.733
 2237W        W74662  30.296  28.501   1.621
 2238W        W74663  20.310  34.414   1.946
 2239W        W74664   0.417   8.219   4.584
 2240W        W74665  39.307  12.331  12.057
 2241W        W74666   8.154  10.104   1.702
 2242W        W74667  39.019   4.529   5.132
 2243W        W74668  38.791   7.216   0.682
 2244W        W74669  18.844  42.918   0.782
 2245W        W74670   9.075  31.449  11.718
 2246W        W74671  31.418  26.719   1.537
 2247W        W74672   4.677  10.077   1.447
 2248W        W74673   8.381   9.508   4.903
 2249W        W74674  20.842  24.615   4.292
 2250W        W74675  40.336  28.993   0.010
 2251W        W74676  22.263  19.484   0.777
 2252W        W74677   2.116  35.932   4.721
 2253W        W74678  26.545   9.136   2.417
 2254W        W74679  11.198  13.863   0.762
 2255W        W74680  15.131   9.452  11.617
 2256W        W74681  20.488  21.611   0.893
 2257W        W74682   2.845  24.802   1.318
 2258W        W74683  34.508  26.169  13.397
 2259W        W74684   2.039  43.498   4.553
 2260W        W74685  44.651  12.294  14.410
 2261W        W74686  22.620  13.621   2.468
 2262W        W74687  28.514  40.470  12.143
 2263W        W74688  31.611  14.595   3.805
 2264W        W74689  42.525  34.024  11.572
 2265W        W74690   4.635  21.685  13.070
 2266W        W74691  41.297  41.443  12.439
 2267W        W74692  15.673  36.313   5.063
 2268W        W74693  26.671  31.626   3.316
 2269W        W74694  22.810  12.753  14.055
 2270W        W74695  23.627  34.635  13.373
 2271W        W74696  10.983  22.916   2.670
 2272W        W74697  29.068  30.503   3.170
 2273W        W74698   5.953  13.342  14.991
 2274W        W74699  30.120  10.799   2.264
 2275W        W74700   0.559  16.311   2.420
 2276W        W74701  34.963  19.315   2.437
 2277W        W74702   4.991  35.879  14.647
 2278W        W74703  13.190   4.344   1.299
 2279W        W74704  29.186  33.517  12.409
 2280W        W74705  28.975   0.659   2.127
 2281W        W74706  22.265  21.501   3.265
 2282W        W74707   7.244  17.174  11.047
 2283W        W74708   5.640  26.048  14.384
 2284W        W74709  25.205   7.928   0.924
 2285W        W74710  12.535  22.743  14.761
 2286W        W74711  39.164  14.280  14.004
 2287W        W74712  27.011  19.138   1.002
 2288W        W74713  26.476   5.178  13.294
 2289W        W74714  19.632   9.923  10.738
 2290W        W74715  38.255  35.326  12.872
 2291W        W74716  44.773  32.883   1.216
 2292W        W74717   7.781  33.137  11.995
 2293W        W74718  20.183  30.929   1.754
 2294W        W74719  27.212  29.645  14.326
 2295W        W74720  34.931  11.070  11.994
 2296W        W74721   8.107  42.890  14.259
 2297W        W74722  39.858  39.047   1.358
 2298W        W74723  19.057  40.750   0.475
 2299W        W74724  38.816  42.994  12.625
 2300W        W74725  43.363   6.179  14.386
 2301W        W74726   4.839  22.963   2.836
 2302W        W74727   5.306  17.572   2.504
 2303W        W74728  30.931   6.131  14.604
 2304W        W74729  20.221   3.656  14.340
 2305W        W74730  33.478  31.538  14.461
 2306W        W74731   7.796  28.624  13.473
 2307W        W74732  32.240  29.982   1.071
 2308W        W74733  22.564  16.142   0.225
 2309W        W74734  26.822   8.690   4.129
 2310W        W74735  22.706  37.484  10.657
 2311W        W74736  33.364  19.326  10.583
 2312W        W74737   3.004   7.195   4.783
 2313W        W74738  37.143  25.226  10.121
 2314W        W74739  19.707  10.096  14.805
 2315W        W74740   9.150  18.175   4.538
 2316W        W74741  12.372  22.333   0.961
 2317W        W74742  40.280  15.698   4.006
 2318W        W74743   1.556  12.997  11.606
 2319W        W74744  30.931  29.197  11.073
 2320W        W74745  12.559  44.270  12.464
 2321W        W74746  12.802  36.423   2.347
 2322W        W74747  19.105  12.981   0.485
 2323W        W74748  25.739  29.348  10.345
 2324W        W74749  26.179   3.484  12.036
 2325W        W74750   9.020   4.959  11.224
 2326W        W74751  14.054  40.773  12.161
 2327W        W74752  31.297  17.613  10.962
 2328W        W74753  34.643   7.133  13.828
 2329W        W74754  25.112  44.766  12.379
 2330W        W74755  13.070   7.956   3.281
 2331W        W74756  36.320   0.535   3.262
 2332W        W74757  26.901   2.400   3.643
 2333W        W74758  31.610   0.299  11.556
 2334W        W74759  44.307  30.090  11.569
 2335W        W74760  32.526  28.041   4.558
 2336W        W74761   8.256  18.646  11.699
 2337W        W74762  39.792  38.021   1.697
 2338W        W74763   6.889  20.550   0.586
 2339W        W74764  37.067  20.457   3.630
 2340W        W74765  26.040  35.048   2.644
 2341W        W74766  31.388   7.840  13.192
 2342W        W74767  23.451  37.930   2.195
 2343W        W74768  31.882   7.928  13.016
 2344W        W74769  20.089  18.886   2.823
 2345W        W74770  23.269  34.548   1.884
 2346W        W74771   4.718  27.887  12.020
 2347W        W74772   8.254   5.883   1.949
 2348W        W74773  21.148  29.226  14.480
 2349W        W74774  35.294  42.379  12.008
 2350W        W74775  24.840   8.404  10.044
 2351W        W74776  38.499  12.282   4.850
 2352W        W74777   6.967  32.035   0.628
 2353W        W74778  39.333  44.306  10.128
 2354W        W74779   1.187   6.165  14.360
 2355W        W74780   9.041  23.580   2.924
 2356W        W74781  44.356  13.735  14.941
 2357W        W74782  16.644  21.667  11.147
 2358W        W74783  32.343  16.566  11.663
 2359W        W74784  28.910  12.243  11.289
 2360W        W74785  17.153  31.514   2.421
 2361W        W74786  37.011   3.401  10.791
 2362W        W74787  44.785  15.029  14.847
 2363W        W74788   3.704  28.902  10.916
 2364W        W74789  27.622  43.302   0.060
 2365W        W74790  37.379  22.142   4.137
 2366W        W74791  17.237  26.436   1.216
 2367W        W74792  18.496   3.967   3.679
 2368W        W74793   4.397  16.591  13.942
 2369W        W74794  11.797  16.086  14.387
 2370W        W74795  25.904  34.638   1.846
 2371W        W74796  25.483  35.291  12.820
 2372W        W74797   1.329  34.075  12.593
 2373W        W74798  27.421  23.702  13.451
 2374W        W74799  10.260   2.855   1.985
 2375W        W74800  12.771  24.739  10.547
 2376W        W74801  37.498  39.593   2.946
 2377W        W74802  23.486  20.514   4.400
 2378W        W74803  30.475   9.603   2.855
 2379W        W74804  10.868  18.594   3.281
 2380W        W74805   3.188  18.542  11.031
 2381W        W74806   6.832  41.862   0.942
 2382W        W74807  14.737  20.259   1.425
 2383W        W74808  29.580  15.694   3.111
 2384W        W74809  41.294  16.108   1.286
 2385W        W74810  44.418   3.559   3.698
 2386W        W74811  13.708   0.039  13.965
 2387W        W74812  24.382  43.683  12.593
 2388W        W74813  40.249   8.170   0.834
 2389W        W74814   6.435  40.853   3.204
 2390W        W74815  39.420  10.285  10.641
 2391W        W74816   6.698  20.134  13.397
 2392W        W74817  29.573  32.627   1.006
 2393W        W74818  33.565  41.856   1.477
 2394W        W74819  25.566  14.761  14.379
 2395W        W74820  21.429  43.795   2.826
 2396W        W74821  18.578  25.616   4.570
 2397W        W74822   5.845  37.816   4.560
 2398W        W74823  39.434  11.373  13.532
 2399W        W74824  29.144   6.748   2.193
 2400W        W74825  38.394  37.884  12.132
 2401W        W74826  19.270  43.970  12.578
 2402W        W74827   3.222  10.974  14.363
 2403W        W74828   9.751   0.134  14.761
 2404W        W74829  27.023   1.805   4.679
 2405W        W74830  42.954  26.643  14.284
 2406W        W74831  11.097   6.131  12.624
 2407W        W74832  32.424  28.113   1.858
 2408W        W74833  40.926  16.658   2.718
 2409W        W74834  42.217  42.694   9.577
 2410W        W74835  26.490  30.584   5.134
 2411W        W74836  43.907  36.409   0.233
 2412W        W74837  27.994   1.735  13.741
 2413W        W74838  17.778  34.002  11.513
 2414W        W74839  31.599  41.398   2.185
 2415W        W74840  12.855  29.437  14.833
 2416W        W74841   5.089  26.211   0.784
 2417W        W74842  27.436   9.644  12.638
 2418W        W74843  13.538  44.059  14.052
 2419W        W74844  23.042  38.392  12.662
 2420W        W74845  31.622   6.288   1.357
 2421W        W74846  42.916   2.530  12.424
 2422W        W74847   2.796  10.667   0.687
 2423W        W74848  21.487  25.106  13.276
 2424W        W74849  24.457  10.192   3.146
 2425W        W74850   3.563  24.921   3.729
 2426W        W74851  15.493  33.017   0.041
 2427W        W74852   7.703  30.680  11.680
 2428W        W74853  20.831  24.459   2.798
 2429W        W74854   9.482   6.731  11.697
 2430W        W74855  21.117  27.421  14.894
 2431W        W74856  15.152  22.640  11.148
 2432W        W74857  31.605  20.555  12.161
 2433W        W74858  37.988  19.326   0.435
 2434W        W74859  27.598  16.821  10.513
 2435W        W74860   6.955   6.226   2.261
 2436W        W74861  19.702   7.410   1.320
 2437W        W74862  23.701  28.012  14.961
 2438W        W74863   6.408   9.376   3.716
 2439W        W74864   5.795  40.317   2.790
 2440W        W74865  38.546  44.076   4.787
 2441W        W74866  38.315   5.382   0.498
 2442W        W74867   4.476  22.484  13.534
 2443W        W74868   9.169  26.739  14.528
 2444W        W74869  24.712  42.084  13.098
 2445W        W74870   4.649   2.927   3.191
 2446W        W74871   2.976  26.085  12.940
 2447W        W74872  42.888  27.142  12.509
 2448W        W74873  34.241   9.643  11.412
 2449W        W74874  41.544  12.374   4.640
 2450W        W74875   0.195  29.503  13.985
 2451W        W74876  40.706  34.397  10.676
 2452W        W74877   8.256  29.265   3.651
 2453W        W74878  10.852  33.391  10.595
 2454W        W74879  28.664  44.093   4.531
 2455W        W74880  39.453   7.136   3.250
 2456W        W74881  41.851   6.055   0.857
 2457W        W74882  19.678  33.089   1.538
 2458W        W74883   0.299  26.779  11.852
 2459W        W74884  25.841   3.905  11.185
 2460W        W74885   6.250   7.138  12.988
 2461W        W74886   8.883  41.310   2.293
 2462W        W74887  29.183  27.240  13.452
 2463W        W74888  18.241  43.916   3.120
 2464W        W74889  20.503  37.170   4.579
 2465W        W74890  21.839  25.075  11.454
 2466W        W74891  20.649  29.877   1.086
 2467W        W74892  34.313  24.193   3.183
 2468W        W74893   8.721  27.136   4.148
 2469W        W74894  11.805   5.039   4.086
 2470W        W74895   8.347  29.049   0.155
 2471W        W74896  41.841  34.162   1.414
 2472W        W74897   5.280  14.557  11.549
 2473W        W74898  44.085  35.980   1.323
 2474W        W74899   5.863  17.089  13.333
 2475W        W74900  35.413  39.234  13.810
 2476W        W74901  13.158  22.682  11.134
 2477W        W74902  18.794  31.817  11.035
 2478W        W74903  37.083   2.393  11.788
 2479W        W74904  30.150   2.942  11.141
 2480W        W74905  29.732  10.421  10.297
 2481W        W74906  17.247   4.442  10.998
 2482W        W74907  28.715   1.238  14.282
 2483W        W74908  32.377  31.297   2.266
 2484W        W74909   2.360  25.755   1.796
 2485W        W74910  38.103  26.862  14.732
 2486W        W74911  33.122   0.116   1.642
 2487W        W74912  28.444  41.652   2.439
 2488W        W74913  35.154  22.114  13.384
 2489W        W74914  20.866   3.026  11.407
 2490W        W74915   6.800  27.104  13.459
 2491W        W74916  29.135  37.332  11.053
 2492W        W74917  24.187  43.338  11.065
 2493W        W74918  15.852  10.318  10.412
 2494W        W74919  31.398   1.131   1.363
 2495W        W74920   6.541   4.916  11.085
 2496W        W74921  32.620   8.366  13.923
 2497W        W74922   8.326  24.438   0.491
 2498W        W74923  21.701  38.537  13.315
 2499W        W74924  21.299  28.829   0.321
 2500W        W74925  10.925  33.365  12.615
 2501W        W74926   4.313  15.504   2.379
 2502W        W74927  11.438   2.828  14.324
 2503W        W74928  35.623  10.164   0.725
 2504W        W74929   2.721   1.514  11.532
 2505W        W74930   2.714  32.857  13.620
 2506W        W74931  12.732  36.063  12.397
 2507W        W74932  40.676   0.773   1.382
 2508W        W74933  16.997  33.036  11.435
 2509W        W74934  34.131  21.985  13.733
 2510W        W74935  31.771  16.709   3.002
 2511W        W74936   3.923  15.078   1.654
 2512W        W74937  44.330  37.915  11.911
 2513W        W74938  20.474   7.564   0.869
 2514W        W74939  26.406  18.068   2.283
 2515W        W74940  19.275  43.364   1.919
 2516W        W74941  31.215  16.332   5.153
 2517W        W74942   5.355  23.647  13.308
 2518W        W74943  19.657   2.791  12.541
 2519W        W74944  33.500  33.540   4.894
 2520W        W74945   4.205  40.426   4.105
 2521W        W74946  20.927  17.437   2.727
 2522W        W74947  30.639   8.394   1.210
 2523W        W74948  31.933   7.296   1.039
 2524W        W74949  20.151  19.981   0.619
 2525W        W74950  14.323  20.445   1.692
 2526W        W74951  24.931  12.295  14.025
 2527W        W74952  15.570  16.758   1.274
 2528W        W74953  30.816  11.722  12.867
 2529W        W74954   3.283  37.800   4.139
 2530W        W74955  25.060  35.976  14.730
 2531W        W74956   0.695  37.057  14.377
 2532W        W74957  17.122  19.007  12.523
 2533W        W74958  32.120  15.790  11.038
 2534W        W74959  26.186  28.602   0.994
 2535W        W74960   0.334  13.607  14.827
 2536W        W74961   2.214   1.628   2.345
 2537W        W74962  35.486   7.618   2.729
 2538W        W74963  28.643  14.747  14.261
 2539W        W74964   8.244  17.068   2.398
 2540W        W74965  28.089   4.884  14.414
 2541W        W74966  17.190   0.711  12.329
 2542W        W74967  22.653  24.404   2.334
 2543W        W74968  37.303  23.137   4.065
 2544W        W74969  32.476  16.498  13.864
 2545W        W74970   4.788  39.251  10.808
 2546W        W74971  23.067  38.786  11.530
 2547W        W74972  41.563  32.213  14.098
 2548W        W74973  27.275  42.853  11.562
 2549W        W74974  31.394  32.445  10.450
 2550W        W74975  44.385  28.575   3.293
 2551W        W74976  22.183  40.323   2.881
 2552W        W74977  27.635   0.391   3.112
 2553W        W74978  22.042  41.888  12.499
 2554W        W74979  28.583  20.654   1.357
 2555W        W74980  20.736  15.985  14.519
 2556W        W74981  26.308  38.984   1.320
 2557W        W74982   3.666  31.669  12.952
 2558W        W74983  27.641  27.454  13.018
 2559W        W74984  35.474  28.979  11.289
 2560W        W74985  40.865   2.303   0.884
 2561W        W74986  20.777  30.544  14.208
 2562W        W74987  25.938   9.658  10.640
 2563W        W74988  41.911  23.414  13.158
 2564W        W74989  22.677  14.340  14.306
 2565W        W74990   0.312  20.824   2.841
 2566W        W74991  26.363  33.540   1.380
 2567W        W74992   8.168  29.469  14.907
 2568W        W74993  24.826  23.360   1.633
 2569W        W74994  38.384  44.089  12.051
 2570W        W74995   7.818   3.252  13.463
 2571W        W74996  10.272   1.415   2.454
 2572W        W74997  33.659   3.439   0.816
 2573W        W74998  22.633  42.982  13.808
 2574W        W74999  25.627  35.987  12.062
 2575W        W75000  42.517  30.343  11.216
 2576W        W75001  31.516   9.273   3.562
 2577W        W75002  12.616  29.451   1.691
 2578W        W75003  24.117   5.832   3.761
 2579W        W75004  31.296  33.794  14.204
 2580W        W75005  19.378   7.249  11.662
 2581W        W75006   4.265  28.309  11.171
 2582W        W75007  43.872   1.766  10.772
 2583W        W75008  10.562  23.688   3.843
 2584W        W75009  24.509   5.358   0.851
 2585W        W75010   8.777   4.359  14.334
 2586W        W75011   5.668  22.692  12.478
 2587W        W75012  24.464  15.674   4.573
 2588W        W75013   0.415  16.489   3.740
 2589W        W75014  26.747  37.381  13.921
 2590W        W75015  34.112  16.762  13.243
 2591W        W75016   4.457  26.625   2.767
 2592W        W75017  42.980  43.753  11.635
 2593W        W75018  36.301  26.146  13.904
 2594W        W75019  14.196   1.267  14.778
 2595W        W75020   1.540  42.740  12.553
 2596W        W75021  13.807  22.550  12.328
 2597W        W75022  18.639  33.380   2.381
 2598W        W75023   0.627  18.178   1.743
 2599W        W75024  12.081  14.283   3.700
 2600W        W75025  29.146  35.894  12.103
 2601W        W75026  20.548  42.067  11.520
 2602W        W75027   2.750  36.483  13.965
 2603W        W75028   4.032  43.324  12.885
 2604W        W75029  17.298  36.451  13.862
 2605W        W75030  41.804  15.667  12.063
 2606W        W75031  34.881  29.227   5.364
 2607W        W75032  16.083  34.412  12.142
 2608W        W75033   9.290  32.390  14.997
 2609W        W75034   3.274  30.485   4.212
 2610W        W75035  13.245  42.621   2.647
 2611W        W75036  39.593  25.949   0.243
 2612W        W75037  19.158  18.926  11.438
 2613W        W75038  36.144  25.536  11.402
 2614W        W75039  42.431  11.501  14.495
 2615W        W75040  32.497  34.014   1.477
 2616W        W75041  32.578  26.267   4.399
 2617W        W75042   5.207  24.115   3.169
 2618W        W75043  39.111   7.422   3.534
 2619W        W75044  35.845  13.779   0.939
 2620W        W75045  24.643  42.747  14.032
 2621W        W75046  40.803  37.555   3.118
 2622W        W75047   1.934  41.916  10.731
 2623W        W75048  10.664  23.706  14.700
 2624W        W75049   9.328  43.854   3.176
 2625W        W75050  44.998  27.083  12.708
 2626W        W75051  13.259  42.465  10.613
 2627W        W75052  29.608  14.665  13.372
 2628W        W75053  26.583  39.493   3.808
 2629W        W75054   5.887  37.225  10.693
 2630W        W75055  19.487  11.813   0.379
 2631W        W75056   7.481  18.552  13.529
 2632W        W75057  43.765  10.181  10.056
 2633W        W75058  41.350  36.750  13.971
 2634W        W75059  15.584  27.251   1.493
 2635W        W75060  41.535  21.298  10.708
 2636W        W75061  33.656  10.277   0.202
 2637W        W75062  17.060  23.752  13.061
 2638W        W75063  28.974  33.010  10.543
 2639W        W75064   4.690  25.707  14.906
 2640W        W75065  33.369   3.295   0.429
 2641W        W75066  38.905   0.944  13.938
 2642W        W75067  12.561  24.516  10.116
 2643W        W75068  19.982  11.770   4.513
 2644W        W75069  10.175   2.840  13.443
 2645W        W75070   8.149  29.857   4.566
 2646W        W75071  42.510  16.277   2.720
 2647W        W75072  39.329  35.463  11.143
 2648W        W75073   8.098  34.390   5.126
 2649W        W75074  14.319  23.203   4.372
 2650W        W75075  40.971  15.927  14.475
 2651W        W75076  37.615  27.057  11.073
 2652W        W75077   0.130  10.374  10.656
 2653W        W75078   9.087   0.818   1.164
 2654W        W75079  30.025  28.923   0.917
 2655W        W75080  22.492  24.111  13.302
 2656W        W75081   3.054  43.183   5.042
 2657W        W75082  28.141  19.886   5.178
 2658W        W75083  44.063  12.803   3.817
 2659W        W75084  24.230  25.967  10.939
 2660W        W75085   2.836  42.701   4.162
 2661W        W75086   4.928  23.112   4.572
 2662W        W75087  31.236  29.834  11.677
 2663W        W75088  39.042  28.411   0.661
 2664W        W75089  15.322  31.274  10.367
 2665W        W75090  14.557  23.269   3.918
 2666W        W75091  15.639  20.683  14.975
 2667W        W75092   2.302  18.469   3.663
 2668W        W75093  14.671  13.310   4.744
 2669W        W75094  15.231   3.421   0.386
 2670W        W75095   5.562  32.866   0.412
 2671W        W75096   0.817   0.161   3.250
 2672W        W75097  17.211  15.353  11.184
 2673W        W75098  20.471  38.643  11.014
 2674W        W75099  17.817  34.421   1.848
 2675W        W75100  22.558  19.097  13.405
 2676W        W75101  26.122  40.345  11.566
 2677W        W75102  44.951  39.421  11.548
 2678W        W75103   7.239  33.109  13.826
 2679W        W75104  39.347  26.714   0.310
 2680W        W75105   9.815  40.542   1.005
 2681W        W75106  39.415  39.491  14.380
 2682W        W75107  14.700  34.035   2.809
 2683W        W75108  27.042  27.133  12.829
 2684W        W75109  17.479  33.646   4.611
 2685W        W75110  40.341  33.091  14.477
 2686W        W75111  14.662  16.047   4.209
 2687W        W75112  22.997   7.828  13.988
 2688W        W75113  43.887   0.830  12.098
 2689W        W75114  31.446  29.501   3.767
 2690W        W75115  27.164  25.006  10.956
 2691W        W75116  11.434  24.504  12.586
 2692W        W75117  35.483  44.849  11.103
 2693W        W75118  28.239  26.663  14.097
 2694W        W75119  27.169   3.748  11.576
 2695W        W75120  15.605  17.539   4.120
 2696W        W75121  37.437  25.228  12.496
 2697W        W75122   4.320  41.260  10.634
 2698W        W75123  14.374   2.290   0.268
 2699W        W75124  10.740  26.378  13.928
 2700W        W75125  36.122  11.182   4.214
 2701W        W75126   6.388  43.685  10.405
 2702W        W75127  41.579  12.293  10.922
 2703W        W75128  13.387  32.375  11.121
 2704W        W75129   9.786   4.917  14.632
 2705W        W75130  39.420  41.995  11.502
 2706W        W75131  17.372  42.520  14.971
 2707W        W75132  19.517  13.448   2.788
 2708W        W75133  42.524  39.664  12.251
 2709W        W75134  35.064  31.374   1.288
 2710W        W75135  25.138   9.131   2.865
 2711W        W75136  17.972   9.734   1.872
 2712W        W75137  16.216   1.888  11.171
 2713W        W75138   7.421  27.862  14.532
 2714W        W75139   7.153  17.265   0.526
 2715W        W75140  11.377   4.210   0.280
 2716W        W75141  17.820  17.171   1.838
 2717W        W75142   4.397  13.606   2.372
 2718W        W75143  14.181  15.520   3.243
 2719W        W75144  40.580  29.459   3.810
 2720W        W75145   0.817  13.068   0.398
 2721W        W75146  41.849   2.449  12.435
 2722W        W75147  42.731  29.634   0.704
 2723W        W75148  12.091  12.557   0.292
 2724W        W75149  29.380  25.286  13.442
 2725W        W75150   7.090  12.251   2.483
 2726W        W75151   3.154  10.547  11.552
 2727W        W75152  39.377  11.777   3.713
 2728W        W75153   1.787  20.745  11.441
 2729W        W75154  38.059  25.914  13.929
 2730W        W75155  14.257  28.682   0.576
 2731W        W75156  13.665  24.662   3.588
 2732W        W75157  44.458   7.607   1.740
 2733W        W75158   2.768  37.061   1.019
 2734W        W75159  16.053  17.701  11.933
 2735W        W75160  29.710  16.161  12.435
 2736W        W75161  25.250  43.430  11.873
 2737W        W75162  35.976   6.639   1.493
 2738W        W75163  39.457  22.233  10.970
 2739W        W75164  16.400  28.059  12.897
 2740W        W75165  32.879  18.572   2.226
 2741W        W75166  20.061  43.171  13.157
 2742W        W75167  22.608  18.811   4.946
 2743W        W75168  42.230  32.883   1.463
 2744W        W75169   7.437  20.372   0.868
 2745W        W75170  42.433  26.821  12.941
 2746W        W75171  31.201  10.703  13.343
 2747W        W75172   4.662   8.710   4.754
 2748W        W75173  27.933  39.815   0.046
 2749W        W75174   8.948   6.755  10.694
 2750W        W75175  32.127  18.487   4.161
 2751W        W75176  12.196  24.437  13.053
 2752W        W75177  31.318  18.821  11.058
 2753W        W75178   3.190   6.403  13.777
 2754W        W75179  19.563  15.248  13.805
 2755W        W75180   6.839  31.788  11.170
 2756W        W75181  17.995  10.846   3.984
 2757W        W75182  17.312  39.011   0.837
 2758W        W75183  15.848  28.108   0.721
 2759W        W75184  11.706  35.692  10.689
 2760W        W75185  24.677  27.230  11.890
 2761W        W75186   7.729  34.679  14.526
 2762W        W75187  31.954  31.282  10.857
 2763W        W75188  26.029  43.784   2.901
 2764W        W75189  19.715   8.456   3.189
 2765W        W75190  12.702  40.404   2.271
 2766W        W75191  34.864  14.593   0.732
 2767W        W75192  43.488  36.483   0.995
 2768W        W75193  35.564   6.300  11.854
 2769W        W75194  24.766  39.553   4.178
 2770W        W75195   4.693   9.145  10.604
 2771W        W75196  24.968   6.697   2.906
 2772W        W75197  24.167  28.353  12.999
 2773W        W75198  12.123  37.435  14.472
 2774W        W75199  26.251  35.360  11.828
 2775W        W75200  30.622  11.629   0.884
 2776W        W75201   8.825  43.744   3.773
 2777W        W75202  11.743   0.033  13.990
 2778W        W75203  16.667  35.913   2.614
 2779W        W75204  20.015   9.327  13.065
 2780W        W75205  20.969   3.016  12.564
 2781W        W75206  42.001  42.360   4.196
 2782W        W75207  38.263  25.987   3.328
 2783W        W75208  30.892   1.361  14.982
 2784W        W75209  25.028   3.263  12.701
 2785W        W75210  10.272   4.961   0.398
 2786W        W75211  28.162  38.977   3.709
 2787W        W75212   5.781  36.920  13.027
 2788W        W75213  16.685  32.656   3.280
 2789W        W75214  27.661   3.296  14.708
 2790W        W75215  27.465  19.429   0.210
 2791W        W75216   0.783  31.627   4.157
 2792W        W75217   5.421  41.966  13.531
 2793W        W75218  36.979  39.277  12.109
 2794W        W75219  14.787  15.106  13.450
 2795W        W75220  10.733   8.861   3.319
 2796W        W75221  17.494   2.354   2.793
 2797W        W75222  22.162  23.489   0.251
 2798W        W75223  11.830  40.954   0.252
 2799W        W75224  44.233  15.397   1.764
 2800W        W75225   3.324  34.381   0.865
 2801W        W75226  39.282  20.627   4.153
 2802W        W75227  32.013  11.643  14.112
 2803W        W75228  24.747   1.515  11.692
 2804W        W75229  30.951  43.519   0.460
 2805W        W75230  16.063  17.338   1.741
 2806W        W75231  26.698  10.380  11.041
 2807W        W75232  11.716   4.304  12.504
 2808W        W75233  40.383   7.440  10.285
 2809W        W75234  10.783  18.201   2.893
 2810W        W75235  32.127  42.604   4.596
 2811W        W75236   1.765   9.468  13.049
 2812W        W75237  36.830  15.559  13.435
 2813W        W75238   0.735   0.810  14.136
 2814W        W75239  36.355  32.050   9.888
 2815W        W75240  10.176  21.293  10.724
 2816W        W75241  19.117  24.578  14.543
 2817W        W75242  21.511  23.029  13.955
 2818W        W75243  33.239  31.967   3.863
 2819W        W75244  30.076  41.496   3.182
 2820W        W75245   2.985   1.340  11.965
 2821W        W75246  33.567  20.328  10.504
 2822W        W75247  38.074   9.159  11.475
 2823W        W75248  33.482  25.276  14.968
 2824W        W75249  15.518  16.051  11.924
 2825W        W75250  41.457  12.600  12.848
 2826W        W75251  38.066  16.554  12.887
 2827W        W75252  25.193   9.635   4.517
 2828W        W75253   6.413  42.558   2.521
 2829W        W75254  43.017  15.148  11.112
 2830W        W75255  18.237  41.633  12.474
 2831W        W75256  12.185   5.802   0.268
 2832W        W75257   8.824  23.675  14.074
 2833W        W75258  14.703  17.981  13.154
 2834W        W75259  36.322  29.332  14.399
 2835W        W75260  16.958   0.539   4.150
 2836W        W75261   5.752  14.711  10.866
 2837W        W75262  39.850  16.650   4.543
 2838W        W75263  12.204  41.265   3.604
 2839W        W75264  16.649  35.445   3.435
 2840W        W75265  16.282   3.701  14.292
 2841W        W75266  17.041  34.967   3.786
 2842W        W75267  38.087   3.027   1.955
 2843W        W75268  43.934  18.485   1.202
 2844W        W75269  31.412  23.431   0.840
 2845W        W75270  29.224  35.074   4.260
 2846W        W75271  19.587  38.939  13.170
 2847W        W75272  21.514  22.529   2.012
 2848W        W75273   0.666   6.391  14.389
 2849W        W75274  27.321  24.121   2.265
 2850W        W75275  38.500  22.483   2.915
 2851W        W75276  30.441  15.166   0.781
 2852W        W75277  42.035  20.567  13.951
 2853W        W75278  26.178  23.400  13.921
 2854W        W75279  23.202   5.099  10.210
 2855W        W75280  23.676  20.110  14.596
 2856W        W75281  41.356  40.780  10.871
 2857W        W75282  28.537  18.505   3.733
 2858W        W75283  44.746  22.474   3.362
 2859W        W75284   6.964  39.800  12.298
 2860W        W75285  20.256  23.703  14.447
 2861W        W75286  14.213  14.542   3.070
 2862W        W75287  41.041  26.531   0.360
 2863W        W75288   1.839  37.096  12.081
 2864W        W75289   2.193  40.900   4.734
 2865W        W75290  44.214   1.830  12.983
 2866W        W75291  40.291  36.320  12.125
 2867W        W75292  17.007   2.474  13.119
 2868W        W75293  24.066  38.194  10.722
 2869W        W75294   1.392  24.484  12.819
 2870W        W75295   6.012   7.242  12.010
 2871W        W75296  42.123   0.624  12.516
 2872W        W75297  12.806  21.162   4.323
 2873W        W75298  21.677  19.018   3.416
 2874W        W75299   2.313   6.901   3.733
 2875W        W75300  36.537   4.811  13.880
 2876W        W75301   0.016  22.488  14.963
 2877W        W75302  27.707  26.123  12.279
 2878W        W75303   9.765  23.687  10.965
 2879W        W75304  36.370  27.687   3.734
 2880W        W75305  18.566  18.733  11.697
 2881W        W75306  17.360  12.076   0.154
 2882W        W75307  40.465  10.601   3.865
 2883W        W75308  34.384  42.253   3.299
 2884W        W75309  14.331  39.919  11.923
 2885W        W75310  26.020  44.040  11.855
 2886W        W75311  14.549   9.126   2.869
 2887W        W75312  21.208   9.973   1.942
 2888W        W75313  29.501  17.665  11.872
 2889W        W75314  14.663  19.582   3.331
 2890W        W75315  20.015   8.340   0.345
 2891W        W75316  44.727   3.893   1.290
 2892W        W75317  12.235   1.258   1.697
 2893W        W75318  31.397  16.030   4.203
 2894W        W75319   5.492  44.069  13.065
 2895W        W75320  41.559  14.728   0.047
 2896W        W75321  11.854  25.125   2.229
 2897W        W75322  40.161  17.023   4.730
 2898W        W75323  27.587  44.819  13.832
 2899W        W75324  13.770   6.507  14.191
 2900W        W75325  36.188   4.712   4.218
 2901W        W75326   4.859  39.451   1.336
 2902W        W75327  26.456  19.905   3.381
 2903W        W75328  36.867  37.302   1.662
 2904W        W75329  43.114  43.642   2.557
 2905W        W75330   7.816  17.145  13.798
 2906W        W75331  33.038  27.220   3.102
 2907W        W75332  44.375   7.143   4.563
 2908W        W75333  30.137   2.831  12.193
 2909W        W75334  18.949  36.405   2.748
 2910W        W75335  35.900  34.399  14.454
 2911W        W75336  41.301  11.982  11.247
 2912W        W75337  41.436  10.274  14.243
 2913W        W75338  42.780  11.411   1.369
 2914W        W75339  15.859   7.808   2.245
 2915W        W75340  19.763  20.660  14.953
 2916W        W75341   4.389  10.434  14.040
 2917W        W75342   6.746  37.608   2.423
 2918W        W75343  41.490  32.989  11.485
 2919W        W75344  12.837  21.054  10.656
 2920W        W75345   1.939  25.743  10.593
 2921W        W75346  40.164  16.748  13.951
 2922W        W75347  27.035  40.468  12.921
 2923W        W75348  16.677  11.829   1.653
 2924W        W75349  20.601  37.366  11.370
 2925W        W75350  30.499  33.015   0.379
 2926W        W75351   4.853  32.900   3.241
 2927W        W75352  19.609  26.887  12.137
 2928W        W75353  37.556  34.598  13.127
 2929W        W75354  35.921  21.096  10.708
 2930W        W75355   6.775  43.986  11.552
 2931W        W75356  37.470   8.113  11.995
 2932W        W75357  17.939   6.835   2.638
 2933W        W75358  40.604  43.236  13.405
 2934W        W75359  34.631  15.540  13.010
 2935W        W75360   3.461  13.904   0.430
 2936W        W75361  21.254  40.543  12.304
 2937W        W75362  31.990   6.823  10.435
 2938W        W75363  24.402  27.711   2.828
 2939W        W75364  32.910  29.566   0.921
 2940W        W75365  36.453  16.598   2.710
 2941W        W75366   6.488  44.473   0.056
 2942W        W75367   6.169   2.206  14.426
 2943W        W75368  19.135  33.330  10.625
 2944W        W75369   4.648   4.555  13.041
 2945W        W75370   8.761  36.187   1.839
 2946W        W75371  37.971   8.142  11.445
 2947W        W75372  43.792  29.122   1.400
 2948W        W75373   1.701  32.101   4.971
 2949W        W75374  11.915   5.470  13.420
 2950W        W75375  32.863  38.463  14.387
 2951W        W75376  15.669   3.319  10.992
 2952W        W75377  41.469  33.424  12.626
 2953W        W75378   8.540   1.022  11.983
 2954W        W75379  20.533  40.057   0.417
 2955W        W75380  24.460  18.667  13.428
 2956W        W75381  10.985   9.308   4.624
 2957W        W75382  23.280  39.597  13.990
 2958W        W75383  18.725  41.910   4.571
 2959W        W75384  25.007  44.709   1.766
 2960W        W75385   4.856  31.184  11.507
 2961W        W75386   1.144  33.474  14.708
 2962W        W75387   2.214  22.905   3.236
 2963W        W75388  40.619  44.168   1.004
 2964W        W75389  20.265  13.729  14.215
 2965W        W75390  17.687  17.831  11.438
 2966W        W75391  20.014  33.030   1.934
 2967W        W75392  27.363  29.863  12.340
 2968W        W75393  23.077  21.934   1.789
 2969W        W75394   6.250  32.612   1.547
 2970W        W75395  11.899  34.070  12.036
 2971W        W75396   7.474  29.625  13.759
 2972W        W75397  23.572   1.472  11.065
 2973W        W75398   5.186   7.256  11.415
 2974W        W75399  11.125  20.822  10.738
 2975W        W75400  29.504  18.723   4.038
 2976W        W75401  40.901  23.674   3.128
 2977W        W75402  26.373  28.319  13.372
 2978W        W75403  21.710  23.452  12.048
 2979W        W75404  41.864  39.570  10.844
 2980W        W75405  15.253  19.036  13.781
 2981W        W75406   1.890   0.768  12.961
 2982W        W75407  32.590  18.776  11.120
 2983W        W75408  20.574  38.010  12.772
 2984W        W75409  28.215  14.746   3.129
 2985W        W75410  24.355  38.369  11.148
 2986W        W75411  37.870   3.277  12.825
 2987W        W75412  21.827  38.138   0.041
 2988W        W75413  15.484   9.632  14.903
 2989W        W75414  19.413  14.132   0.117
 2990W        W75415  24.523  20.186   3.202
 2991W        W75416  30.340  35.157  13.930
 2992W        W75417   9.887  10.442   0.425
 2993W        W75418  28.113  15.737  11.194
 2994W        W75419  37.885   9.819   0.486
 2995W        W75420   5.724  17.172   1.782
 2996W        W75421  26.509  28.554   4.410
 2997W        W75422  38.586  20.131   1.383
 2998W        W75423  24.348   1.517   1.630
 2999W        W75424   2.904  18.170  12.917
 3000W        W75425  24.118   9.078  14.914
 3001W        W75426   6.438   8.660  12.871
 3002W        W75427  38.605  28.398   0.393
 3003W        W75428  31.570  22.529   1.423
 3004W        W75429  21.000   6.332  11.074
 3005W        W75430  22.798  41.576  10.776
 3006W        W75431  28.732   0.886  14.633
 3007W        W75432  14.580  18.283   1.258
 3008W        W75433   5.964  19.528   1.692
 3009W        W75434  25.661  37.770   1.006
 3010W        W75435   9.409   1.009  12.921
 3011W        W75436  43.432  11.774   3.046
 3012W        W75437  25.500  42.566  13.934
 3013W        W75438  11.555  38.815  11.575
 3014W        W75439  40.255  43.379   4.682
 3015W        W75440  15.027   0.994  11.606
 3016W        W75441  23.261  20.616   1.831
 3017W        W75442  26.467  38.608   2.361
 3018W        W75443  16.015   4.143   4.536
 3019W        W75444   7.875  43.995   1.265
 3020W        W75445   6.785  39.086  13.809
 3021W        W75446  21.551   5.985  10.425
 3022W        W75447  39.421  34.855  10.387
 3023W        W75448   6.092   2.922  13.067
 3024W        W75449  15.156  18.231   0.401
 3025W        W75450  37.989  24.174   1.700
 3026W        W75451   6.765  25.059   4.474
 3027W        W75452  23.035  42.836  10.894
 3028W        W75453  20.963  36.528  14.827
 3029W        W75454  28.481  12.892  14.390
 3030W        W75455   8.805   4.850  13.497
 3031W        W75456  19.017  26.202   2.795
 3032W        W75457  43.607  12.575  14.296
 3033W        W75458  33.725  38.275  14.318
 3034W        W75459  21.466   9.173  12.557
 3035W        W75460  17.024   3.844   4.579
 3036W        W75461  32.660  43.840  11.567
 3037W        W75462   0.952   8.153  11.532
 3038W        W75463   5.409  15.162   0.804
 3039W        W75464  30.888   9.216   0.779
 3040W        W75465  36.554  32.095  12.501
 3041W        W75466  20.524  35.292  13.894
 3042W        W75467  24.643  25.373  14.373
 3043W        W75468  38.459  17.829  14.061
 3044W        W75469   4.509   8.206   4.578
 3045W        W75470  14.477  33.746  11.228
 3046W        W75471   2.073  43.454   0.005
 3047W        W75472  27.223  18.254   1.766
 3048W        W75473  32.989  15.538  12.404
 3049W        W75474  37.491  18.138  12.060
 3050W        W75475  13.289  40.902   1.682
 3051W        W75476  22.246  19.046   1.583
 3052W        W75477  14.989  32.525  12.823
 3053W        W75478   6.905  26.645   4.206
 3054W        W75479  37.963   6.644   1.878
 3055W        W75480  38.415  17.786   2.349
 3056W        W75481   8.668  37.946  13.130
 3057W        W75482  19.352   8.461  11.169
 3058W        W75483  21.188  30.979   0.378
 3059W        W75484  11.333  16.566   1.404
 3060W        W75485  19.239   0.519  12.897
 3061W        W75486  21.913  35.909  10.660
 3062W        W75487  34.344  23.457   1.808
 3063W        W75488  44.805  27.652  10.543
 3064W        W75489   1.407  44.280  13.825
 3065W        W75490   8.360   8.759   5.109
 3066W        W75491  23.519  12.301  10.825
 3067W        W75492  22.955  33.940  13.036
 3068W        W75493  29.514  31.316   2.317
 3069W        W75494   3.397   6.738  12.817
 3070W        W75495   7.359  35.956   4.440
 3071W        W75496   2.003  14.958  12.962
 3072W        W75497  24.149   2.475   3.204
 3073W        W75498   9.736  30.762   2.365
 3074W        W75499  25.131  28.375   1.692
 3075W        W75500  44.868  34.164  11.210
 3076W        W75501  22.779  26.111   0.788
 3077W        W75502  13.171  24.497  14.307
 3078W        W75503  22.347   1.491  11.131
 3079W        W75504  12.927  10.862  11.468
 3080W        W75505  28.774  27.703   1.820
 3081W        W75506  43.802  18.298  10.580
 3082W        W75507   4.963  27.965  11.558
 3083W        W75508   2.808  12.425   4.594
 3084W        W75509  41.509  24.573   4.942
 3085W        W75510  12.564  38.303  14.518
 3086W        W75511   4.256  37.469  12.184
 3087W        W75512  28.493  30.527  12.600
 3088W        W75513  38.318   8.374   0.650
 3089W        W75514  36.109  20.209   0.294
 3090W        W75515  10.392  42.839  11.810
 3091W        W75516   7.852  23.918   1.244
 3092W        W75517  28.548   9.720   0.999
 3093W        W75518  36.572  25.728   0.310
 3094W        W75519   1.266  15.266   2.333
 3095W        W75520  18.703  22.231   0.034
 3096W        W75521  41.779  13.300   1.142
 3097W        W75522   1.526  41.806   1.969
 3098W        W75523  35.317   0.335   0.904
 3099W        W75524   9.269  30.119  14.845
 3100W        W75525  22.173  16.710   2.946
 3101W        W75526  23.650  34.149   1.430
 3102W        W75527  13.707  36.622   4.229
 3103W        W75528  29.466  41.062  13.735
 3104W        W75529  30.514  30.489   4.920
 3105W        W75530  39.420  37.414   3.761
 3106W        W75531  21.776  38.450   4.112
 3107W        W75532   1.602  32.233  11.565
 3108W        W75533  24.000  27.731   4.130
 3109W        W75534  31.123  44.696   2.374
 3110W        W75535  15.669  21.676   4.651
 3111W        W75536  30.125  32.898  14.342
 3112W        W75537  25.962  19.054  11.189
 3113W        W75538  30.373  14.546   3.331
 3114W        W75539  15.233  22.630  13.976
 3115W        W75540   6.127  28.539  14.863
 3116W        W75541  28.458  33.900   3.341
 3117W        W75542  34.476   4.790  13.406
 3118W        W75543   0.041   2.366  11.524
 3119W        W75544   5.542   6.282  13.507
 3120W        W75545  23.086   9.129   2.196
 3121W        W75546  28.870  33.037   3.441
 3122W        W75547  14.092   4.213  11.905
 3123W        W75548   3.850   6.920   2.393
 3124W        W75549  34.620  10.415  12.472
 3125W        W75550  12.509  11.790   4.056
 3126W        W75551  29.544   9.387  11.141
 3127W        W75552  41.029  39.057   1.306
 3128W        W75553  41.453  24.528   4.424
 3129W        W75554  22.710  10.840   9.785
 3130W        W75555   4.513  43.513   0.714
 3131W        W75556  21.578  32.997  10.378
 3132W        W75557  21.538  35.587  12.603
 3133W        W75558  35.002   3.253  10.376
 3134W        W75559  41.120  19.484   3.257
 3135W        W75560   2.362  23.758   1.350
 3136W        W75561  10.143  10.151   2.255
 3137W        W75562  38.058  37.085  11.625
 3138W        W75563  11.673  22.813   0.033
 3139W        W75564  34.676  36.834  12.909
 3140W        W75565  19.801  34.963   3.121
 3141W        W75566  33.096  29.561  14.957
 3142W        W75567  27.238  43.014  11.082
 3143W        W75568  14.570  22.119   2.182
 3144W        W75569  21.810  33.039   2.510
 3145W        W75570   1.735  38.462  12.597
 3146W        W75571  34.730  13.051   1.393
 3147W        W75572  32.150  38.706  13.322
 3148W        W75573  42.503  44.999   3.601
 3149W        W75574  18.503  44.855   1.230
 3150W        W75575  44.718  44.513  13.535
 3151W        W75576  30.643  32.378  10.602
 3152W        W75577  42.518  17.832  13.938
 3153W        W75578  18.637  27.452   4.515
 3154W        W75579  18.306  25.109  10.313
 3155W        W75580  15.550  42.076  13.631
 3156W        W75581  13.073  24.076  12.936
 3157W        W75582  22.504   8.997   4.286
 3158W        W75583  17.926   7.191  12.897
 3159W        W75584  24.049  15.386  14.765
 3160W        W75585  25.621  21.490   0.861
 3161W        W75586  11.225   3.216  13.899
 3162W        W75587  14.913  33.614   1.134
 3163W        W75588   2.220  30.159   1.787
 3164W        W75589  36.079  25.524  10.046
 3165W        W75590  40.964   8.131  12.921
 3166W        W75591  28.214  20.264   1.901
 3167W        W75592  23.305  32.649  10.721
 3168W        W75593   0.033  25.531  12.098
 3169W        W75594  21.154  30.613  14.988
 3170W        W75595  33.092  18.243  13.869
 3171W        W75596  10.479  28.169  11.549
 3172W        W75597  18.125  25.198   2.369
 3173W        W75598  29.007  41.347   0.938
 3174W        W75599   3.393  34.210   0.309
 3175W        W75600  10.818  15.489  10.702
 3176W        W75601  16.546  37.383  12.575
 3177W        W75602  43.467  29.648  13.921
 3178W        W75603   1.288  14.327  12.530
 3179W        W75604  26.571  11.811  10.575
 3180W        W75605  25.242  40.271   0.294
 3181W        W75606  11.221  24.532  10.728
 3182W        W75607  29.799   6.344  10.246
 3183W        W75608  34.851  24.009  10.141
 3184W        W75609  16.179   3.666   3.205
 3185W        W75610  36.954  43.542  11.093
 3186W        W75611  11.788  27.178   0.778
 3187W        W75612  40.055   9.768   0.306
 3188W        W75613  34.549  26.092   2.680
 3189W        W75614  32.909  29.030   1.773
 3190W        W75615  42.919  24.275  14.028
 3191W        W75616  15.233  14.855  14.522
 3192W        W75617  22.107   0.459   2.628
 3193W        W75618  39.878  42.861   3.251
 3194W        W75619  19.147  11.077  12.212
 3195W        W75620  44.924  33.129   1.652
 3196W        W75621  37.418  15.080   2.886
 3197W        W75622  15.781  10.229   4.610
 3198W        W75623   4.652   7.448  14.412
 3199W        W75624   6.623  11.681  10.640
 3200W        W75625  26.626   3.082  13.791
 3201W        W75626  17.745  25.541   1.205
 3202W        W75627  28.774  30.368  13.354
 3203W        W75628   4.873  31.708  11.609
 3204W        W75629  41.406   9.313   1.922
 3205W        W75630  19.351  10.642   2.891
 3206W        W75631  38.938  25.510   3.046
 3207W        W75632  29.807  13.620   3.725
 3208W        W75633  16.629   3.107   3.641
 3209W        W75634   9.722  27.508  13.354
 3210W        W75635  20.062  26.975   0.422
 3211W        W75636  33.119  15.445  14.964
 3212W        W75637   2.849  19.356  11.965
 3213W        W75638  19.833  21.548  14.759
 3214W        W75639  40.497  29.692  12.581
 3215W        W75640  37.056  18.306  10.724
 3216W        W75641  24.611  38.807  11.329
 3217W        W75642  11.419   5.410  11.084
 3218W        W75643  35.859   4.472  13.090
 3219W        W75644  17.008  39.511   1.890
 3220W        W75645  10.403  37.204  12.428
 3221W        W75646   6.911  18.508  12.446
 3222W        W75647  37.870  21.293  12.544
 3223W        W75648  41.513  22.663   2.920
 3224W        W75649  31.421  16.803  14.459
 3225W        W75650  44.891   3.437  11.990
 3226W        W75651  32.400  30.967   3.872
 3227W        W75652   6.112  10.780  10.666
 3228W        W75653  23.689   1.134   1.057
 3229W        W75654  28.203  15.311  13.236
 3230W        W75655  23.659  34.933  14.799
 3231W        W75656   7.775  39.127   4.674
 3232W        W75657   9.235  33.630  14.418
 3233W        W75658   7.510  18.427  14.038
 3234W        W75659  30.410  25.095  11.777
 3235W        W75660  14.156   6.367   5.083
 3236W        W75661   3.376  39.949   2.725
 3237W        W75662  16.536  43.483   1.472
 3238W        W75663  37.851  44.533   0.914
 3239W        W75664   7.766   9.248  14.290
 3240W        W75665  37.251  17.697  12.198
 3241W        W75666  24.967   1.167  13.469
 3242W        W75667  20.044  34.916   3.855
 3243W        W75668  30.785   1.485   0.522
 3244W        W75669  37.621  20.169  12.053
 3245W        W75670  18.824   8.942  12.916
 3246W        W75671  24.622  20.479   0.954
 3247W        W75672  40.556  44.536  12.495
 3248W        W75673  25.237   6.646   2.237
 3249W        W75674  40.617   7.551   0.343
 3250W        W75675  32.611  30.076   3.851
 3251W        W75676  19.241  40.472  10.623
 3252W        W75677  38.748  38.688  11.123
 3253W        W75678  26.646  21.254   2.733
 3254W        W75679  12.291  36.532  14.481
 3255W        W75680  33.686  37.773   4.765
 3256W        W75681   9.346   9.445   9.642
 3257W        W75682  19.686   2.267   0.311
 3258W        W75683  11.715  38.491   1.341
 3259W        W75684  27.116  33.298  12.000
 3260W        W75685  36.027  29.591   4.271
 3261W        W75686   8.805  21.483   4.659
 3262W        W75687  18.677  15.996   4.287
 3263W        W75688  21.038  13.686   5.145
 3264W        W75689  43.899  10.542   2.618
 3265W        W75690   4.600  12.753   2.413
 3266W        W75691  18.765  34.065   3.713
 3267W        W75692  44.901  29.238  14.988
 3268W        W75693  31.951  37.470  13.048
 3269W        W75694  16.319   3.949   2.780
 3270W        W75695  39.148  10.683   0.377
 3271W        W75696  27.450  16.152  14.365
 3272W        W75697  14.151  17.690   0.524
 3273W        W75698  22.680  26.184  13.857
 3274W        W75699  28.309   0.186  12.436
 3275W        W75700  20.213  31.956  12.857
 3276W        W75701  38.506  14.638  12.516
 3277W        W75702  26.715  32.957   0.718
 3278W        W75703  44.256  24.174   4.084
 3279W        W75704  39.574  21.532  13.438
 3280W        W75705   8.755  34.649   3.184
 3281W        W75706  21.542  25.071   3.688
 3282W        W75707  27.713  39.438  14.580
 3283W        W75708  35.866  42.727  12.958
 3284W        W75709  39.590  12.323   0.551
 3285W        W75710  13.517  14.460   4.230
 3286W        W75711  31.068  25.024   1.880
 3287W        W75712  23.076   3.208  10.421
 3288W        W75713  29.532  41.436   0.853
 3289W        W75714  32.479  40.291   0.637
 3290W        W75715  19.991  19.114   1.262
 3291W        W75716  29.059  43.507  14.272
 3292W        W75717  15.671  14.090   4.592
 3293W        W75718  38.988  21.458  14.869
 3294W        W75719  32.437  20.265   0.480
 3295W        W75720  21.082   8.422   1.742
 3296W        W75721   9.918  39.987   4.072
 3297W        W75722  41.256   3.485  13.341
 3298W        W75723  19.777  22.274  14.471
 3299W        W75724   3.129  19.967  12.146
 3300W        W75725  21.951   8.330  12.095
 3301W        W75726  16.062  23.627   3.569
 3302W        W75727  27.136  43.945  11.383
 3303W        W75728  21.964  16.769  12.843
 3304W        W75729  19.940  25.614  11.948
 3305W        W75730  18.058   3.373  11.555
 3306W        W75731  18.735  37.068  12.001
 3307W        W75732   0.900  34.155   4.599
 3308W        W75733  35.881  10.795  14.918
 3309W        W75734  22.789  21.681  11.205
 3310W        W75735  14.617  26.625  14.355
 3311W        W75736  42.392  27.083  12.474
 3312W        W75737  35.344  13.152   2.291
 3313W        W75738  24.759  19.623  14.383
 3314W        W75739  38.218  29.125  14.708
 3315W        W75740  32.669  13.075  13.439
 3316W        W75741  20.050  43.476   4.254
 3317W        W75742  41.282  43.797  13.554
 3318W        W75743  33.890  22.257   4.815
 3319W        W75744  18.122  31.550   1.222
 3320W        W75745  39.430   7.845   3.609
 3321W        W75746  40.617  17.623  14.083
 3322W        W75747  12.594  33.086  11.234
 3323W        W75748   9.611   1.363  14.949
 3324W        W75749  33.509  22.080   0.899
 3325W        W75750  16.628  11.639  11.019
 3326W        W75751  42.971  29.092  11.253
 3327W        W75752  28.233  36.126  11.301
 3328W        W75753  29.249  33.074   5.343
 3329W        W75754  39.343  36.445   3.898
 3330W        W75755  10.455  16.556  11.627
 3331W        W75756  21.261  19.714  12.607
 3332W        W75757  39.716  27.223  11.119
 3333W        W75758  11.708  14.706   4.647
 3334W        W75759  30.857  30.067  14.919
 3335W        W75760  18.761  21.834  11.985
 3336W        W75761   5.322  43.512  12.131
 3337W        W75762   3.002   1.256   3.769
 3338W        W75763  33.868  20.898  12.115
 3339W        W75764  33.304  30.070  14.911
 3340W        W75765   2.306  34.337   1.505
 3341W        W75766  27.566  41.435  12.618
 3342W        W75767  18.977  42.786  12.070
 3343W        W75768   2.652  36.803   3.658
 3344W        W75769   1.503  15.738  13.474
 3345W        W75770  40.824  35.851   0.634
 3346W        W75771   6.841  14.211   5.009
 3347W        W75772  17.891  12.712  11.643
 3348W        W75773   1.475  12.213  11.994
 3349W        W75774  10.196  42.331   1.773
 3350W        W75775  18.737  27.104  12.467
 3351W        W75776  35.527  18.994  12.032
 3352W        W75777  36.932  16.188  11.903
 3353W        W75778   1.229  44.137  12.021
 3354W        W75779   0.956  25.592   4.618
 3355W        W75780  21.971  20.716   2.209
 3356W        W75781  29.604  12.613   0.943
 3357W        W75782  11.747  40.397   2.185
 3358W        W75783   9.892  38.452  13.370
 3359W        W75784  18.843  39.819   2.086
 3360W        W75785  15.807  21.233   3.835
 3361W        W75786  34.345   2.579   3.842
 3362W        W75787  40.935  16.216  11.130
 3363W        W75788  30.512  25.172   0.343
 3364W        W75789  25.442  31.237  12.527
 3365W        W75790   4.771  19.510   1.457
 3366W        W75791  16.268   4.168  12.518
 3367W        W75792  32.202  33.446   3.378
 3368W        W75793   4.297  15.506  11.862
 3369W        W75794  32.966  12.788   3.754
 3370W        W75795   1.471  43.719  13.269
 3371W        W75796   6.156  37.306  14.470
 3372W        W75797  40.873  39.553  14.067
 3373W        W75798  23.647  43.744  12.637
 3374W        W75799  36.304  38.355   3.396
 3375W        W75800  17.165   3.503   0.478
 3376W        W75801  41.031  39.830   0.910
 3377W        W75802   6.546  14.938   2.241
 3378W        W75803  16.962   9.757   3.574
 3379W        W75804   9.615  23.117   4.123
 3380W        W75805  29.984   9.773   3.137
 3381W        W75806  38.528   0.503   4.903
 3382W        W75807  31.040   3.391  14.588
 3383W        W75808   4.786  37.809   1.471
 3384W        W75809   1.809  26.884  13.654
 3385W        W75810  29.644  11.081   3.754
 3386W        W75811  31.165   3.957  12.185
 3387W        W75812  44.229  11.185  12.084
 3388W        W75813  33.571  34.498  10.396
 3389W        W75814  21.153   5.422   2.452
 3390W        W75815  16.749  16.789   0.054
 3391W        W75816  31.663  22.825  11.082
 3392W        W75817  14.478  33.864   0.992
 3393W        W75818  37.507  12.900  11.227
 3394W        W75819  31.040  41.556   1.777
 3395W        W75820   1.858  11.919  14.896
 3396W        W75821  25.799  30.194  10.694
 3397W        W75822  44.579  19.870   0.291
 3398W        W75823  18.514  29.989   9.606
 3399W        W75824   3.373  26.718   3.429
 3400W        W75825  11.751  41.676  14.463
 3401W        W75826  21.277  41.477  14.452
 3402W        W75827  22.429  42.732   1.988
 3403W        W75828  33.117   7.616  14.894
 3404W        W75829  24.141  40.661  10.385
 3405W        W75830  21.716   0.541   1.805
 3406W        W75831  13.663  23.260   3.327
 3407W        W75832  36.490  31.193  14.864
 3408W        W75833  23.577  21.696   2.381
 3409W        W75834  36.164  20.633  10.645
 3410W        W75835  31.460  15.649  14.409
 3411W        W75836  12.136   3.456  14.641
 3412W        W75837  31.658  44.794  13.292
 3413W        W75838  17.121  11.237  12.535
 3414W        W75839  27.763  14.170   9.944
 3415W        W75840  39.357  36.564  11.990
 3416W        W75841  39.601  26.489   3.567
 3417W        W75842  39.948  30.356   1.066
 3418W        W75843   7.842  37.467  14.840
 3419W        W75844  13.153   5.692  13.790
 3420W        W75845  41.075  44.450   2.384
 3421W        W75846   8.568  10.873  11.592
 3422W        W75847  27.968  27.640  13.585
 3423W        W75848   1.335  19.666   4.628
 3424W        W75849   6.156   7.321   4.681
 3425W        W75850  21.777   6.346  10.696
 3426W        W75851  40.755  11.037   4.575
 3427W        W75852   3.783   1.009  10.494
 3428W        W75853   2.700  40.475   0.430
 3429W        W75854  22.093   7.689   0.910
 3430W        W75855  41.817  19.218  14.009
 3431W        W75856  33.908  33.499   2.263
 3432W        W75857  34.874  25.570   4.248
 3433W        W75858   5.223  31.084  10.576
 3434W        W75859  31.870  10.902  12.895
 3435W        W75860  36.863  27.975  13.883
 3436W        W75861  13.264   1.097  10.843
 3437W        W75862  30.231  42.739   3.697
 3438W        W75863  24.122  43.151   2.656
 3439W        W75864  36.834  37.942  13.929
 3440W        W75865  31.137  37.062  12.975
 3441W        W75866  30.690  41.972   4.443
 3442W        W75867   7.338  28.432   1.798
 3443W        W75868   4.030  36.596  11.389
 3444W        W75869  20.529   2.272   2.620
 3445W        W75870  13.150  10.932  12.449
 3446W        W75871  42.605   3.950  11.584
 3447W        W75872  20.178  28.785  14.560
 3448W        W75873  15.852  19.148  13.295
 3449W        W75874  42.163  18.636   0.364
 3450W        W75875  44.419   9.801   1.073
 3451W        W75876  40.609   1.218   1.643
 3452W        W75877  30.502  34.250   3.433
 3453W        W75878  36.465  27.922  10.347
 3454W        W75879   1.716   7.776   2.366
 3455W        W75880   7.266  18.256   0.894
 3456W        W75881  14.769  34.388   4.414
 3457W        W75882   1.695  10.119   4.693
 3458W        W75883  24.950  20.417   1.438
 3459W        W75884  28.251   1.890   2.375
 3460W        W75885   2.707   8.704   3.640
 3461W        W75886  26.235  33.595   2.206
 3462W        W75887   6.688   2.327  12.039
 3463W        W75888   2.465  38.746  14.789
 3464W        W75889  24.888   3.414  11.743
 3465W        W75890  43.698  17.225  13.640
 3466W        W75891  25.282  29.573   3.386
 3467W        W75892  33.261  40.350   2.990
 3468W        W75893  32.948   4.255   0.723
 3469W        W75894  18.122  23.822  11.978
 3470W        W75895  28.403  16.795   3.918
 3471W        W75896  11.680   7.562   4.559
 3472W        W75897  31.645  39.251   0.768
 3473W        W75898   5.718  18.938   2.345
 3474W        W75899  12.939  25.138   3.382
 3475W        W75900   6.160  27.740   2.149
 3476W        W75901  44.228  15.931   4.544
 3477W        W75902   6.727   3.235  14.703
 3478W        W75903   3.228   2.927  14.995
 3479W        W75904  41.749  30.438   2.620
 3480W        W75905  19.101  26.826   1.358
 3481W        W75906  14.335  17.798  14.561
 3482W        W75907   4.427  17.202   3.794
 3483W        W75908   4.141  32.686   0.010
 3484W        W75909  26.188  18.156  14.908
 3485W        W75910  43.545  16.218  10.999
 3486W        W75911   4.724  22.970   4.090
 3487W        W75912  31.765  37.003  11.146
 3488W        W75913  19.687  19.051   0.816
 3489W        W75914  37.292  24.969  11.431
 3490W        W75915  41.817   8.108  10.646
 3491W        W75916  22.591  37.816   1.673
 3492W        W75917  22.619  13.110  11.102
 3493W        W75918  26.394  31.564  13.931
 3494W        W75919   2.359  33.845   1.687
 3495W        W75920  41.230  39.361   3.114
 3496W        W75921  42.785  38.531  10.806
 3497W        W75922  19.783  30.229  10.635
 3498W        W75923   5.630   6.540   2.866
 3499W        W75924  19.655  35.489  10.334
 3500W        W75925  32.515  13.804   1.964
 3501W        W75926  22.022  34.276   2.135
 3502W        W75927  19.291  31.594  10.187
 3503W        W75928  28.330   3.173  10.303
 3504W        W75929  34.587  24.581  14.742
 3505W        W75930  18.514  40.781  12.119
 3506W        W75931  43.799  18.798  14.308
 3507W        W75932  32.953   5.874  13.303
 3508W        W75933  19.105   3.360   0.315
 3509W        W75934  27.431  44.226  13.403
 3510W        W75935  21.339  38.127  12.053
 3511W        W75936  19.584   4.846   1.901
 3512W        W75937   6.898  31.687   0.256
 3513W        W75938  30.036   3.503  14.349
 3514W        W75939   2.397  43.092  12.543
 3515W        W75940  20.026   7.265   3.255
 3516W        W75941  32.875  34.122   4.611
 3517W        W75942  20.903  23.704  12.819
 3518W        W75943  26.133  19.298  12.210
 3519W        W75944  13.601  19.470  12.639
 3520W        W75945  20.051  24.618   0.476
 3521W        W75946  12.854  12.044  13.170
 3522W        W75947  32.591  26.703   3.683
 3523W        W75948   0.337  28.205   0.448
 3524W        W75949   4.856  15.758   1.476
 3525W        W75950   8.424   0.387   2.838
 3526W        W75951   2.782   7.735   4.611
 3527W        W75952  43.383  27.240   4.540
 3528W        W75953  40.682  33.612  13.764
 3529W        W75954  27.909   6.649   0.697
 3530W        W75955  44.448   4.274  13.737
 3531W        W75956  44.828  21.539  14.099
 3532W        W75957  19.687  42.707  11.581
 3533W        W75958  20.527  32.640   2.243
 3534W        W75959  30.930  30.577   0.844
 3535W        W75960  16.689  26.686   1.896
 3536W        W75961  40.298  44.007  13.796
 3537W        W75962  20.424  13.857   0.222
 3538W        W75963  41.991  22.938   4.943
 3539W        W75964  18.698  37.094   0.295
 3540W        W75965   1.793  39.769   1.547
 3541W        W75966   8.199  14.780   0.490
 3542W        W75967  20.493  10.803   3.309
 3543W        W75968  21.437  12.217  13.568
 3544W        W75969  44.061  20.566   2.268
 3545W        W75970  37.972  23.049  14.475
 3546W        W75971   8.273  33.405  12.226
 3547W        W75972  37.220  31.389   2.428
 3548W        W75973  14.275   0.902  10.797
 3549W        W75974   7.900  12.146   4.335
 3550W        W75975  12.195  44.833  10.646
 3551W        W75976  13.303   2.845   3.067
 3552W        W75977   4.495   4.786   3.452
 3553W        W75978   2.770  30.599   1.190
 3554W        W75979  20.482   9.138   3.199
 3555W        W75980  40.382  11.368   3.120
 3556W        W75981  19.248  37.668   2.489
 3557W        W75982  23.988  36.327  13.092
 3558W        W75983   2.979  10.806  13.144
 3559W        W75984  38.836  44.198   2.657
 3560W        W75985  14.067  21.680   3.214
 3561W        W75986   5.714   4.856  11.437
 3562W        W75987  37.047  17.830   2.615
 3563W        W75988   3.490   8.931  14.302
 3564W        W75989  28.547   3.190  11.558
 3565W        W75990   0.782  19.263  11.100
 3566W        W75991   5.336  36.114   4.287
 3567W        W75992  39.548   5.907  14.456
 3568W        W75993   4.906  22.264  14.985
 3569W        W75994   5.641  29.467  10.762
 3570W        W75995  18.531  16.204  10.379
 3571W        W75996  23.711  37.432  12.355
 3572W        W75997  18.174   8.044  12.992
 3573W        W75998  27.963   9.880  11.531
 3574W        W75999   6.841  25.798   2.648
 3575W        W76000  25.651  29.895  14.889
 3576W        W76001  29.121  38.039   2.087
 3577W        W76002  15.322   5.842  10.959
 3578W        W76003  21.587  19.159   2.932
 3579W        W76004  32.532  44.301  12.103
 3580W        W76005   6.835  12.684   0.450
 3581W        W76006  39.391  15.210   1.381
 3582W        W76007  22.242   9.970   5.049
 3583W        W76008  10.354  21.180  13.074
 3584W        W76009  26.713  22.826  14.540
 3585W        W76010  15.316  16.721  13.068
 3586W        W76011  37.439  22.224  13.785
 3587W        W76012  38.833  14.566   0.007
 3588W        W76013  43.927   3.683   3.213
 3589W        W76014   3.457  12.405   0.099
 3590W        W76015  15.809   5.323   0.330
 3591W        W76016  29.635   6.225  12.091
 3592W        W76017  38.909   0.817   4.225
 3593W        W76018  31.883   8.535  13.381
 3594W        W76019   2.195  18.514   4.619
 3595W        W76020  27.281  36.038   3.628
 3596W        W76021  27.878   4.864  11.270
 3597W        W76022  12.955   8.427   3.666
 3598W        W76023  29.584  30.492  14.452
 3599W        W76024   4.522  24.396  12.291
 3600W        W76025  31.600   0.909  11.261
 3601W        W76026   2.521  20.842   4.208
 3602W        W76027  34.694  34.653   1.267
 3603W        W76028  15.482  10.335   5.071
 3604W        W76029  36.060  23.599  12.108
 3605W        W76030  29.158  23.925   0.828
 3606W        W76031  11.134  29.683   0.800
 3607W        W76032  36.205  10.362  13.995
 3608W        W76033   6.555   1.986  12.987
 3609W        W76034  11.851  19.163  12.576
 3610W        W76035  34.890  25.108  14.012
 3611W        W76036  27.311  42.685   5.485
 3612W        W76037  19.711  44.857   0.283
 3613W        W76038  34.076  41.014  11.834
 3614W        W76039  19.001   1.238   2.289
 3615W        W76040  20.063   4.999   2.169
 3616W        W76041  12.897   6.674  13.950
 3617W        W76042  11.078  31.675   2.339
 3618W        W76043  42.561  33.865   2.625
 3619W        W76044  34.459  13.565  10.935
 3620W        W76045  34.129  20.142   2.602
 3621W        W76046  33.584   7.209   0.022
 3622W        W76047  22.627  26.957   2.191
 3623W        W76048  10.831   6.907  13.926
 3624W        W76049  15.977  40.247   3.675
 3625W        W76050  21.578  12.297   3.663
 3626W        W76051   6.324  39.174   1.721
 3627W        W76052  13.865  35.045  11.194
 3628W        W76053  42.346   9.402   1.259
 3629W        W76054  20.483   9.660   2.237
 3630W        W76055  41.011   8.762   4.159
 3631W        W76056  35.839  16.642   0.273
 3632W        W76057   8.834  44.376   4.716
 3633W        W76058  35.108   8.264  13.069
 3634W        W76059  15.401  13.770   0.990
 3635W        W76060  29.953  40.457   1.964
 3636W        W76061  18.823   9.274   2.419
 3637W        W76062  36.580   2.321  11.802
 3638W        W76063   2.212  32.356  12.939
 3639W        W76064  14.556  31.432  12.033
 3640W        W76065  44.458  32.874  12.912
 3641W        W76066  27.092   7.405  14.326
 3642W        W76067  44.522  42.302  14.315
 3643W        W76068   3.485  14.829   1.518
 3644W        W76069  44.099  42.064   1.619
 3645W        W76070  35.155  17.146  13.417
 3646W        W76071  26.379  32.492   2.394
 3647W        W76072  15.496  20.267   0.254
 3648W        W76073   1.839  27.500  11.445
 3649W        W76074   3.219   4.831  14.973
 3650W        W76075  22.907  44.212  14.343
 3651W        W76076  24.641  41.534  11.850
 3652W        W76077   6.440   2.965  14.385
 3653W        W76078  28.286  17.340  11.010
 3654W        W76079  11.879  10.334   1.436
 3655W        W76080   0.313  12.016   0.848
 3656W        W76081  19.713  21.276   2.330
 3657W        W76082  23.120  43.945   2.961
 3658W        W76083   2.543   2.154  12.122
 3659W        W76084  16.260   5.894   3.354
 3660W        W76085  39.456   8.901   3.663
 3661W        W76086  42.446   2.327  14.328
 3662W        W76087  30.135   8.125   2.336
 3663W        W76088  19.017   6.880   3.870
 3664W        W76089  14.785  16.898   2.933
 3665W        W76090   9.426  39.322   1.715
 3666W        W76091  44.111  39.443   1.684
 3667W        W76092  27.210  32.003  14.979
 3668W        W76093  30.694   5.985   3.653
 3669W        W76094  28.609  13.830   2.620
 3670W        W76095  27.188  44.351  11.702
 3671W        W76096  14.558  43.390   2.793
 3672W        W76097   1.442  17.135   0.258
 3673W        W76098   0.770   0.386   0.324
 3674W        W76099  16.757  28.491   0.631
 3675W        W76100  21.557  20.831  10.484
 3676W        W76101  38.821  24.906   5.028
 3677W        W76102   6.982   8.736  12.059
 3678W        W76103   1.870   8.429  14.514
 3679W        W76104   8.927  38.494   1.845
 3680W        W76105  40.437  38.038  12.148
 3681W        W76106   2.392  20.356   4.086
 3682W        W76107   3.842   1.189  11.099
 3683W        W76108  29.641  10.078  13.690
 3684W        W76109   2.711  23.149   1.195
 3685W        W76110  34.820  21.766   1.245
 3686W        W76111  39.290  40.423  14.002
 3687W        W76112  14.343   6.660  12.476
 3688W        W76113   6.674  34.846  12.441
 3689W        W76114   9.679   8.831   2.118
 3690W        W76115   2.527  20.481   2.785
 3691W        W76116  23.796  38.331   2.226
 3692W        W76117  32.847   1.970  13.483
 3693W        W76118  33.466  43.195  13.379
 3694W        W76119  25.716  22.693  10.372
 3695W        W76120  15.649  36.422   0.946
 3696W        W76121  32.183  17.324   2.425
 3697W        W76122  37.906  31.591  14.283
 3698W        W76123   1.873   5.977   1.790
 3699W        W76124  26.616  33.625  14.929
 3700W        W76125  19.549  27.995  13.451
 3701W        W76126  24.648  35.156  12.983
 3702W        W76127  32.584   3.242  12.943
 3703W        W76128   0.310   2.790   1.533
 3704W        W76129   4.518  12.796  11.352
 3705W        W76130  35.863  38.035  13.526
 3706W        W76131  23.489  15.686   4.744
 3707W        W76132  36.365  43.314  13.784
 3708W        W76133   7.772  38.152   5.556
 3709W        W76134  30.427  27.623   0.870
 3710W        W76135  35.764  41.687   1.796
 3711W        W76136  14.148   1.122  12.213
 3712W        W76137  22.726  38.757  14.725
 3713W        W76138  16.129  20.603  13.607
 3714W        W76139   4.827  37.932   2.988
 3715W        W76140   3.284  41.796  14.793
 3716W        W76141  12.846   8.290   1.912
 3717W        W76142  29.958   7.886  11.291
 3718W        W76143  40.422  38.567  10.364
 3719W        W76144  10.209  19.975  11.466
 3720W        W76145  34.627  37.583   3.750
 3721W        W76146  28.410  25.933  11.059
 3722W        W76147   3.604  20.194  12.523
 3723W        W76148  43.368  13.183  11.140
 3724W        W76149   6.716  38.361   1.791
 3725W        W76150   1.487  18.049   0.611
 3726W        W76151  31.949  24.608   5.055
 3727W        W76152  14.308  15.202   4.597
 3728W        W76153   5.393  26.515  14.555
 3729W        W76154  36.997  32.160  13.289
 3730W        W76155  25.110  14.128   4.618
 3731W        W76156  29.544   5.711   3.721
 3732W        W76157   6.954  12.131   4.388
 3733W        W76158   2.446  23.900   3.260
 3734W        W76159  15.657   4.999   0.971
 3735W        W76160   8.106  27.605   4.769
 3736W        W76161  16.019  18.777   2.313
 3737W        W76162  33.319  28.476  11.551
 3738W        W76163  11.765  17.127   3.132
 3739W        W76164  42.428  43.930   1.337
 3740W        W76165  37.039  35.852   1.979
 3741W        W76166   8.418  40.850  14.358
 3742W        W76167  38.801  24.205  13.364
 3743W        W76168  18.057  13.629  12.037
 3744W        W76169  33.945  10.623   0.461
 3745W        W76170  44.454  34.843  14.683
 3746W        W76171  17.053   4.246   3.348
 3747W        W76172  38.515   0.640   2.907
 3748W        W76173  17.691  16.673  13.180
 3749W        W76174   2.687  17.956  12.510
 3750W        W76175  10.395  39.066   3.655
 3751W        W76176   2.194  17.808  12.499
 3752W        W76177   8.495  33.371  14.891
 3753W        W76178  37.474  16.597  14.907
 3754W        W76179  32.294  29.392  14.352
 3755W        W76180  13.816  16.231   2.464
 3756W        W76181  32.033  39.350  14.389
 3757W        W76182  25.424   7.192   0.732
 3758W        W76183   6.173  14.900  12.863
 3759W        W76184   7.962  28.124   4.085
 3760W        W76185  16.361  26.470  10.878
 3761W        W76186   4.933  10.277  10.180
 3762W        W76187   1.153  18.286   3.213
 3763W        W76188  25.056  42.843  13.011
 3764W        W76189  20.160  36.486   3.677
 3765W        W76190  17.884  20.247  12.076
 3766W        W76191  15.195  41.971  13.992
 3767W        W76192  18.147  37.900  11.845
 3768W        W76193  31.654  19.128   9.773
 3769W        W76194  34.424  28.849  12.991
 3770W        W76195  14.737  39.334   2.339
 3771W        W76196  29.089  32.119  11.519
 3772W        W76197  19.440  17.810   2.910
 3773W        W76198  14.747  10.875  12.833
 3774W        W76199   0.798  28.133   1.238
 3775W        W76200  43.479  12.454  13.396
 3776W        W76201  29.405  38.961  11.990
 3777W        W76202  39.732   4.801  13.386
 3778W        W76203  43.653  31.804  13.387
 3779W        W76204  35.883  42.109  12.534
 3780W        W76205   5.166   8.758   1.359
 3781W        W76206  37.987   4.221  12.391
 3782W        W76207  32.903  36.369   1.715
 3783W        W76208   2.046  24.578  11.832
 3784W        W76209  38.433   4.373  11.151
 3785W        W76210   2.943  17.168   1.782
 3786W        W76211  22.282  20.001   0.240
 3787W        W76212  13.096   5.410  12.804
 3788W        W76213  14.423  14.108   3.279
 3789W        W76214  11.037  12.155  11.544
 3790W        W76215  40.901   4.270  11.965
 3791W        W76216  22.895   6.983  13.154
 3792W        W76217   6.307  26.518   0.025
 3793W        W76218  37.834   2.642   3.802
 3794W        W76219  22.023  27.602   2.355
 3795W        W76220   3.845  13.872  10.712
 3796W        W76221  27.480  37.613  10.708
 3797W        W76222  23.562  35.992   4.524
 3798W        W76223  12.199  31.809   4.074
 3799W        W76224   4.376  37.095  13.176
 3800W        W76225  28.398   5.352   4.478
 3801W        W76226  32.090  32.636   0.019
 3802W        W76227  38.156  43.887  11.605
 3803W        W76228  41.812   4.963  10.279
 3804W        W76229  33.858  35.004  14.691
 3805W        W76230  40.304  41.990  14.452
 3806W        W76231   1.663  38.847   0.311
 3807W        W76232  41.328  36.038  12.528
 3808W        W76233  41.356  17.084   5.047
 3809W        W76234  41.295  25.571  13.373
 3810W        W76235  24.237  26.245  14.423
 3811W        W76236  20.752  20.688  11.092
 3812W        W76237  40.006  32.148  11.183
 3813W        W76238  44.401   8.754  14.393
 3814W        W76239  11.601  27.371  14.430
 3815W        W76240   4.935   9.320  12.511
 3816W        W76241  23.208  26.077  12.914
 3817W        W76242  39.795   0.748   1.322
 3818W        W76243  19.114  12.437  14.052
 3819W        W76244  42.347   8.311   0.008
 3820W        W76245   9.812  34.455   2.274
 3821W        W76246   4.381  37.941  13.429
 3822W        W76247  17.777  34.999   1.395
 3823W        W76248   9.193   7.163  11.590
 3824W        W76249   9.353  11.950   2.959
 3825W        W76250  13.987  36.514  11.881
 3826W        W76251  32.199   7.073   0.010
 3827W        W76252  21.360  16.521   0.183
 3828W        W76253  33.181  18.274   3.216
 3829W        W76254  36.908  25.972  11.143
 3830W        W76255  33.240  40.810   2.754
 3831W        W76256  17.515   8.785  13.375
 3832W        W76257  11.621  35.064  11.516
 3833W        W76258  25.896   9.310  13.899
 3834W        W76259  16.720  16.055  14.343
 3835W        W76260  25.787  12.553   2.702
 3836W        W76261  15.593  24.454  13.356
 3837W        W76262   5.245  21.009   4.940
 3838W        W76263   4.309   8.445  11.715
 3839W        W76264   5.767   1.843  11.512
 3840W        W76265  22.246   6.168   4.511
 3841W        W76266  14.294   3.838  11.595
 3842W        W76267  39.617  25.976   4.295
 3843W        W76268  18.513   9.400  12.898
 3844W        W76269   5.822  39.448   3.418
 3845W        W76270  19.812  41.851   1.487
 3846W        W76271  15.723  26.125  14.734
 3847W        W76272  44.557  31.564  13.058
 3848W        W76273  18.549   8.939  13.355
 3849W        W76274  23.656   3.923   0.337
 3850W        W76275  19.053   6.712  13.180
 3851W        W76276  19.042  38.341   2.886
 3852W        W76277  20.501   6.355   3.760
 3853W        W76278  18.489  10.742   4.078
 3854W        W76279  26.779  27.970   1.483
 3855W        W76280  24.115  17.244   3.412
 3856W        W76281  23.395  27.675  10.478
 3857W        W76282  17.578  12.019  11.122
 3858W        W76283  42.633  20.962  11.913
 3859W        W76284  35.262  17.340   4.242
 3860W        W76285  37.479  35.308  11.593
 3861W        W76286  17.938  32.878  11.564
 3862W        W76287  16.762   1.707  14.469
 3863W        W76288  39.305  32.166   4.933
 3864W        W76289  12.793   3.187   3.139
 3865W        W76290  34.061  25.611  12.497
 3866W        W76291  27.425   1.080   0.389
 3867W        W76292  40.569   7.668  11.143
 3868W        W76293  38.293   1.186   1.950
 3869W        W76294  34.020   7.919   4.252
 3870W        W76295  44.035  28.240  14.540
 3871W        W76296   7.940  44.406   2.805
 3872W        W76297   2.246  28.466  10.553
 3873W        W76298  29.402  11.563   2.677
 3874W        W76299  44.369  39.856   1.258
 3875W        W76300  25.531   9.299   0.871
 3876W        W76301  23.427  43.460  11.487
 3877W        W76302  27.069  20.123  12.578
 3878W        W76303  43.511   9.728   3.123
 3879W        W76304  40.889  18.080   2.264
 3880W        W76305  26.119  22.040   0.939
 3881W        W76306  27.025  30.599   1.897
 3882W        W76307   3.747  33.476   0.766
 3883W        W76308  18.632  39.048  13.517
 3884W        W76309  41.362  38.107  11.601
 3885W        W76310  42.981  14.500  11.078
 3886W        W76311  15.771  14.447  10.322
 3887W        W76312  37.530   8.945   5.097
 3888W        W76313  42.449  31.551  10.693
 3889W        W76314  19.170  19.373   4.987
 3890W        W76315  37.011  37.678  12.955
 3891W        W76316   4.387   3.879   2.744
 3892W        W76317   4.621  15.562  14.605
 3893W        W76318  25.668  26.073  12.464
 3894W        W76319  40.981   5.211   4.546
 3895W        W76320  31.651  12.331   2.844
 3896W        W76321  36.871  30.429   0.209
 3897W        W76322  16.891  30.744   3.695
 3898W        W76323  21.576  20.303  10.620
 3899W        W76324  36.783  19.182   2.153
 3900W        W76325  25.719  43.761  13.546
 3901W        W76326  23.955  12.105  14.953
 3902W        W76327  18.605  12.683   4.563
 3903W        W76328  31.436  41.909   3.095
 3904W        W76329  10.810  18.310   4.768
 3905W        W76330   5.241   8.119  11.663
 3906W        W76331  31.623  32.668  14.686
 3907W        W76332   0.250  16.675  10.684
 3908W        W76333  30.560  37.617   3.785
 3909W        W76334   1.474  25.993  10.575
 3910W        W76335  16.066   2.311  10.063
 3911W        W76336  10.596  33.456   1.797
 3912W        W76337  24.013  24.663   2.351
 3913W        W76338   2.395   3.622   3.603
 3914W        W76339  12.755  31.231   0.766
 3915W        W76340  32.100  37.878   1.860
 3916W        W76341  43.216   3.727   4.370
 3917W        W76342  29.530  35.307  11.601
 3918W        W76343  26.229  17.230   2.808
 3919W        W76344  24.265   1.621  12.483
 3920W        W76345  33.859  28.190   4.908
 3921W        W76346  38.530   7.852  12.281
 3922W        W76347  11.233   0.011  12.511
 3923W        W76348   4.873   2.857   4.111
 3924W        W76349  41.986  33.694   0.281
 3925W        W76350  19.328  10.421  10.376
 3926W        W76351   9.078  43.913   4.652
 3927W        W76352   0.775  28.442   0.259
 3928W        W76353   6.375  21.080   4.534
 3929W        W76354  27.453   1.761  11.597
 3930W        W76355  30.256  40.127  13.556
 3931W        W76356  38.934  30.123   4.692
 3932W        W76357  28.014  42.088  11.676
 3933W        W76358  17.639  25.798  12.505
 3934W        W76359  20.606  28.202  11.885
 3935W        W76360  19.053  18.139  10.689
 3936W        W76361  28.843  14.496  12.947
 3937W        W76362   4.896  43.153   0.853
 3938W        W76363  17.236  35.456  13.834
 3939W        W76364  17.788   0.206   1.953
 3940W        W76365   9.481  21.483   0.812
 3941W        W76366  27.155   7.680   1.575
 3942W        W76367  11.141  21.820   0.241
 3943W        W76368   8.920  29.704  14.366
 3944W        W76369  19.696  23.127   4.569
 3945W        W76370  26.439  13.743  13.455
 3946W        W76371   0.341  31.396   0.955
 3947W        W76372  24.027   6.669   4.851
 3948W        W76373  28.486  29.218   1.763
 3949W        W76374  28.522  25.413   2.435
 3950W        W76375  39.559  40.153  11.958
 3951W        W76376  31.971   7.693   1.370
 3952W        W76377   9.390  33.500   4.751
 3953W        W76378  37.399  20.961  10.591
 3954W        W76379  21.797   7.890   3.379
 3955W        W76380  24.674  41.372   4.116
 3956W        W76381  44.883  37.858   0.786
 3957W        W76382  19.186  38.365   0.727
 3958W        W76383  16.385  39.401  10.833
 3959W        W76384  13.819   3.809  14.683
 3960W        W76385   2.036  39.891   4.072
 3961W        W76386  31.302  29.569  11.093
 3962W        W76387  17.307   8.675   4.679
 3963W        W76388   7.014  25.087   0.825
 3964W        W76389   6.230  13.188   1.845
 3965W        W76390  23.433  15.300   3.558
 3966W        W76391  30.928  22.560  11.452
 3967W        W76392  29.450  30.699  12.550
 3968W        W76393  27.708  11.688   3.736
 3969W        W76394  36.733  13.992   3.182
 3970W        W76395  40.081  12.784  12.816
 3971W        W76396  13.374  12.099   0.461
 3972W        W76397  40.591  23.520  10.460
 3973W        W76398  44.921  27.235   3.094
 3974W        W76399  21.397  12.847  12.537
 3975W        W76400   5.786  19.787   4.584
 3976W        W76401   9.569   8.480   3.844
 3977W        W76402   3.071  31.912   4.235
 3978W        W76403  43.750   4.249   4.687
 3979W        W76404  42.962  44.769   0.150
 3980W        W76405  19.829   0.812  11.692
 3981W        W76406   4.313   2.531   3.203
 3982W        W76407  41.526  21.185   4.207
 3983W        W76408  14.819  17.802   3.775
 3984W        W76409  36.655  26.457  11.246
 3985W        W76410  19.831  13.021   2.548
 3986W        W76411   9.408  10.435   0.276
 3987W        W76412  27.164  13.693  12.860
 3988W        W76413  40.824   6.667   4.914
 3989W        W76414  19.159  21.610   0.406
 3990W        W76415  10.220  13.822  11.138
 3991W        W76416  42.772  31.501   2.130
 3992W        W76417  12.364  26.055  13.965
 3993W        W76418  33.124  32.490  13.822
 3994W        W76419  11.367  13.213  13.135
 3995W        W76420  39.364   3.344   3.732
 3996W        W76421   6.304  24.625  14.694
 3997W        W76422  23.507  29.877   2.958
 3998W        W76423   2.552  16.638   0.393
 3999W        W76424  14.840  16.711   1.743
 4000W        W76425  21.035  21.778   4.091
 4001W        W76426  24.193  33.614   4.643
 4002W        W76427   7.323  25.110   3.229
 4003W        W76428  42.056   4.789  13.130
 4004W        W76429  30.950   5.228  13.557
 4005W        W76430   0.530  20.133   3.599
 4006W        W76431   1.920  28.359  12.051
 4007W        W76432  20.777  20.193  12.919
 4008W        W76433  42.551  43.033  13.273
 4009W        W76434   3.735  15.562   3.408
 4010W        W76435  21.270  39.853  14.980
 4011W        W76436  39.845  20.057  10.634
 4012W        W76437  17.260  33.866  10.332
 4013W        W76438  23.207   6.172   4.616
 4014W        W76439  10.901   1.843  11.210
 4015W        W76440  26.958  31.900  13.046
 4016W        W76441  37.276   6.484   2.912
 4017W        W76442  31.583  31.680   3.134
 4018W        W76443  35.242  33.503   1.873
 4019W        W76444   3.295  34.830  13.846
 4020W        W76445  39.597  27.379  14.003
 4021W        W76446  10.946  44.331   4.479
 4022W        W76447  39.792  15.186  12.506
 4023W        W76448   7.477   7.335  10.241
 4024W        W76449  40.200  34.306   2.317
 4025W        W76450   5.751   0.008  12.784
 4026W        W76451  14.210   9.215  14.855
 4027W        W76452   5.363  22.637  10.209
 4028W        W76453  29.116  10.778   2.554
 4029W        W76454  44.303  29.622   0.841
 4030W        W76455  43.787  32.562   4.476
 4031W        W76456  10.673  39.285   0.405
 4032W        W76457  43.721  23.096   3.671
 4033W        W76458  22.191   8.880   2.759
 4034W        W76459  19.462   2.394   1.867
 4035W        W76460   3.502  22.066   0.130
 4036W        W76461  31.700  26.092   4.364
 4037W        W76462   1.273  29.690   3.580
 4038W        W76463  26.715  11.806  14.944
 4039W        W76464  13.686   7.587  12.042
 4040W        W76465  15.756   7.306   2.198
 4041W        W76466  20.526  39.907  11.063
 4042W        W76467  43.592   0.303  13.982
 4043W        W76468  11.522  33.950   4.273
 4044W        W76469  21.162  33.894   1.695
 4045W        W76470   4.203  28.084  12.917
 4046W        W76471  37.031  23.144  12.926
 4047W        W76472  27.177   3.378  11.930
 4048W        W76473  18.204  30.495  14.338
 4049W        W76474  33.805  39.001  12.038
 4050W        W76475   8.569  20.062  13.508
 4051W        W76476   0.295   9.656  11.021
 4052W        W76477  19.418  18.689   1.891
 4053W        W76478  10.042  19.834  13.137
 4054W        W76479  13.575   5.644   4.240
 4055W        W76480  35.496   0.944  13.100
 4056W        W76481  39.902  39.531  13.158
 4057W        W76482  33.777  17.075   1.532
 4058W        W76483  31.349  35.049  12.974
 4059W        W76484  12.770  16.753  14.785
 4060W        W76485   6.348  16.070   1.867
 4061W        W76486  24.522  43.570  10.678
 4062W        W76487  33.866  35.935   1.313
 4063W        W76488  38.441  12.275   3.481
 4064W        W76489  29.666  14.198   0.496
 4065W        W76490  21.918   4.417   1.864
 4066W        W76491  27.149  20.617   2.339
 4067W        W76492   6.646  12.115  13.993
 4068W        W76493  22.122  42.850   3.375
 4069W        W76494   9.207  13.330   1.776
 4070W        W76495  24.510   3.828   1.414
 4071W        W76496  34.089  37.473   2.831
 4072W        W76497  40.005  16.319   2.783
 4073W        W76498  15.586   0.610   1.347
 4074W        W76499   7.196  35.627   0.234
 4075W        W76500  21.028   1.270  11.620
 4076W        W76501  38.983  36.534   2.331
 4077W        W76502  25.475   3.821   3.143
 4078W        W76503  34.859   2.227  12.588
 4079W        W76504  28.573   4.756   2.933
 4080W        W76505  25.701  29.854   2.213
 4081W        W76506  30.612  27.588  12.956
 4082W        W76507  24.498  19.773   5.000
 4083W        W76508  29.997  24.026  11.114
 4084W        W76509  25.568  44.224  14.824
 4085W        W76510  23.035  37.625   2.289
 4086W        W76511   5.902   3.522   1.822
 4087W        W76512  31.085  35.868   2.802
 4088W        W76513   5.756  33.017  11.517
 4089W        W76514  17.525   8.367   3.145
 4090W        W76515  29.053   5.186   2.686
 4091W        W76516  38.292  17.384  14.365
 4092W        W76517  32.431  22.994   2.930
 4093W        W76518  39.315  21.123  11.506
 4094W        W76519  40.796  14.295   2.959
 4095W        W76520  23.716  28.810   1.455
 4096W        W76521   8.170  14.115  13.404
 4097W        W76522  38.064   6.771   1.380
 4098W        W76523  37.273  35.652  12.970
 4099W        W76524  32.894  34.965   2.918
 4100W        W76525  19.139  19.927  11.227
 4101W        W76526  43.026  14.548   0.468
 4102W        W76527  10.218  27.904  14.306
 4103W        W76528  43.207  10.200  13.898
 4104W        W76529   7.756   8.296  10.982
 4105W        W76530  16.092  19.731   4.153
 4106W        W76531   5.256   9.723  12.989
 4107W        W76532   1.008  19.963   4.073
 4108W        W76533  44.994  13.258   4.880
 4109W        W76534   6.296  31.482   0.720
 4110W        W76535  17.664   4.274  12.606
 4111W        W76536  21.030  33.975   0.722
 4112W        W76537  33.342  19.125  14.839
 4113W        W76538   8.926  27.407   3.734
 4114W        W76539  29.931  14.071   1.806
 4115W        W76540   9.329   2.878   0.314
 4116W        W76541  25.234  37.247   2.384
 4117W        W76542  24.231  34.586  11.945
 4118W        W76543  42.232  32.697  11.951
 4119W        W76544   3.629  39.144   1.304
 4120W        W76545  23.631  24.894   4.699
 4121W        W76546  10.118  18.580   2.582
 4122W        W76547  35.033   9.410  13.617
 4123W        W76548  16.143  23.662   5.176
 4124W        W76549  18.163  36.450  11.301
 4125W        W76550  12.722  27.278   0.375
 4126W        W76551  25.260   2.186  14.277
 4127W        W76552  20.958  20.862   0.309
 4128W        W76553  22.566   7.831  13.382
 4129W        W76554  22.576  15.556   4.620
 4130W        W76555   3.199  28.092  12.627
 4131W        W76556  25.253  40.140   2.821
 4132W        W76557  43.901  24.311   1.881
 4133W        W76558  26.905   0.940   3.827
 4134W        W76559  44.383  16.703  13.598
 4135W        W76560   7.622  36.814   1.885
 4136W        W76561  16.598  33.151  11.072
 4137W        W76562  23.704  16.297  11.775
 4138W        W76563   0.004   8.029  12.040
 4139W        W76564  12.294  18.052  12.923
 4140W        W76565  18.701  15.051   4.843
 4141W        W76566   3.501  14.406   1.823
 4142W        W76567  16.170   4.605  13.481
 4143W        W76568  32.556  20.518  14.853
 4144W        W76569  18.979  28.444   1.362
 4145W        W76570  31.110  17.623  14.382
 4146W        W76571  35.158  34.715   3.677
 4147W        W76572   0.244  17.022   3.115
 4148W        W76573  29.706  28.400  12.396
 4149W        W76574  41.478   3.983   3.720
 4150W        W76575  35.626   0.346  10.394
 4151W        W76576  32.060  22.216   4.417
 4152W        W76577   0.806  15.704   0.429
 4153W        W76578   5.852  17.451   4.090
 4154W        W76579   5.922  29.473  12.950
 4155W        W76580  30.417   5.215  10.673
 4156W        W76581  40.908  35.086   2.444
 4157W        W76582  12.212  25.864   4.675
 4158W        W76583  15.915  19.111  12.781
 4159W        W76584  33.416   8.526  14.878
 4160W        W76585  41.861  28.131   3.552
 4161W        W76586   1.744  17.134  11.319
 4162W        W76587  38.637  38.007  10.758
 4163W        W76588   1.270  42.541  10.463
 4164W        W76589  36.538  35.878  10.009
 4165W        W76590   5.365  38.447  13.985
 4166W        W76591  19.057  15.767   0.366
 4167W        W76592  34.973  28.880   2.104
 4168W        W76593  23.395   4.879  13.821
 4169W        W76594  36.101   9.763  14.696
 4170W        W76595  19.197  31.795   4.279
 4171W        W76596  25.222   6.455  11.728
 4172W        W76597  12.586  20.543   0.876
 4173W        W76598  19.337  28.183  13.905
 4174W        W76599  29.457  12.605  14.434
 4175W        W76600  18.180   5.846   0.259
 4176W        W76601   7.437  11.909  14.283
 4177W        W76602  18.660  22.218  12.457
 4178W        W76603  39.315   7.760   4.089
 4179W        W76604   7.679  38.299  12.929
 4180W        W76605  26.913  24.196   3.648
 4181W        W76606  36.885   9.891   0.304
 4182W        W76607  16.994  39.020   5.258
 4183W        W76608   3.336  41.819   2.224
 4184W        W76609   7.495  39.668   0.396
 4185W        W76610   6.873  30.622   0.667
 4186W        W76611  27.010   1.297  11.917
 4187W        W76612  25.130  23.049   4.556
 4188W        W76613   1.695  16.703   1.441
 4189W        W76614   6.662  11.394  11.092
 4190W        W76615  38.270  23.009  10.579
 4191W        W76616  16.192  13.194   0.134
 4192W        W76617   6.181   3.533  10.779
 4193W        W76618  31.956  12.773   2.882
 4194W        W76619   7.323  19.744   0.237
 4195W        W76620  24.554  16.144  12.765
 4196W        W76621   6.043  40.064   4.683
 4197W        W76622  27.375  15.576   3.361
 4198W        W76623  16.837  10.790  13.376
 4199W        W76624  26.125  18.537   2.254
 4200W        W76625   3.927  34.419   9.994
 4201W        W76626   0.240  21.902  14.108
 4202W        W76627  36.172   3.487  12.085
 4203W        W76628  19.265  17.480   2.045
 4204W        W76629  36.163  34.563   1.916
 4205W        W76630  32.677   4.889   2.850
 4206W        W76631  20.652  39.463   3.990
 4207W        W76632  28.749  36.517   0.834
 4208W        W76633  28.431  19.300  12.462
 4209W        W76634  29.593   1.734   4.651
 4210W        W76635  25.408  43.923   1.769
 4211W        W76636  33.204  22.246   3.206
 4212W        W76637   2.884   0.992   2.314
 4213W        W76638  23.825  29.189  11.566
 4214W        W76639  40.740  35.980  12.635
 4215W        W76640  13.165  41.354   1.444
 4216W        W76641  13.341  32.425  11.998
 4217W        W76642  10.101  38.091   3.731
 4218W        W76643   9.131   8.112   3.208
 4219W        W76644  38.891  32.483   1.939
 4220W        W76645  12.883  24.104  10.155
 4221W        W76646  29.417   4.741   4.624
 4222W        W76647  21.293  20.227  12.875
 4223W        W76648  38.900  12.908  12.801
 4224W        W76649  19.586   2.462   3.697
 4225W        W76650  31.109  18.161  11.774
 4226W        W76651  15.098   4.041   2.309
 4227W        W76652  41.365  21.495  14.293
 4228W        W76653   6.195   9.945   0.085
 4229W        W76654  28.604  11.749  12.471
 4230W        W76655  13.254  38.987  12.838
 4231W        W76656  32.818  11.227   2.348
 4232W        W76657   6.916  33.642   2.876
 4233W        W76658  34.026  11.816  13.397
 4234W        W76659  40.538   1.488  12.278
 4235W        W76660  18.007  13.660   4.723
 4236W        W76661  11.949  37.844   4.546
 4237W        W76662  23.630  24.178   3.658
 4238W        W76663  14.367  44.823   2.193
 4239W        W76664  17.170   6.800   4.448
 4240W        W76665  33.108  20.555  10.566
 4241W        W76666  25.416   9.683  14.263
 4242W        W76667  15.242  24.097  12.073
 4243W        W76668  31.426  35.002   3.693
 4244W        W76669  13.602   6.852  12.628
 4245W        W76670  33.942  25.537   1.879
 4246W        W76671  22.222  21.809   4.716
 4247W        W76672  36.555  28.440   2.843
 4248W        W76673  38.981   7.864   3.293
 4249W        W76674  16.968  13.105   3.158
 4250W        W76675  40.245  31.936   5.006
 4251W        W76676  16.246   5.724  11.358
 4252W        W76677   6.766  35.081   0.735
 4253W        W76678   7.455  33.929  12.957
 4254W        W76679  13.765   2.392  10.634
 4255W        W76680  33.989  42.877   2.220
 4256W        W76681  34.763   5.718  12.027
 4257W        W76682  30.478  11.355  13.509
 4258W        W76683  35.141  25.468  14.651
 4259W        W76684  28.727  23.089  13.975
 4260W        W76685  10.761  26.269   0.673
 4261W        W76686  20.001  41.286  14.788
 4262W        W76687  18.309  13.173   4.705
 4263W        W76688   6.776  33.848   4.118
 4264W        W76689  34.062  32.070  12.148
 4265W        W76690  28.429  31.469   3.665
 4266W        W76691   0.824  32.208   2.386
 4267W        W76692  14.814   2.303  13.520
 4268W        W76693  40.451  10.371   0.344
 4269W        W76694  11.126   7.744   3.756
 4270W        W76695  42.432   7.233  13.584
 4271W        W76696  23.845  41.342   3.728
 4272W        W76697   1.844  29.723   4.698
 4273W        W76698  19.260  31.485  12.086
 4274W        W76699  15.394  22.554   2.216
 4275W        W76700  42.171   0.030   3.987
 4276W        W76701  37.018  36.216   0.494
 4277W        W76702   6.278  12.611  13.470
 4278W        W76703  13.495  32.143   3.740
 4279W        W76704  23.587  19.690   0.950
 4280W        W76705  28.918  19.129   1.515
 4281W        W76706  33.554  29.966  14.297
 4282W        W76707  11.602  19.961  14.481
 4283W        W76708   2.316   2.715  11.463
 4284W        W76709  17.261  32.593  13.006
 4285W        W76710  35.861  12.841  14.759
 4286W        W76711  13.831  11.838   2.861
 4287W        W76712  16.554  41.800   2.287
 4288W        W76713   6.183  13.232   3.900
 4289W        W76714   1.594  17.217   1.440
 4290W        W76715  33.882  12.714  13.287
 4291W        W76716  30.673  14.635   0.914
 4292W        W76717  10.775  22.720  12.320
 4293W        W76718  30.385  22.056   1.914
 4294W        W76719   7.300  44.897   4.089
 4295W        W76720  11.132  31.709  13.501
 4296W        W76721  32.140   4.143   4.576
 4297W        W76722  14.591  21.203   2.133
 4298W        W76723   1.279  41.484  12.075
 4299W        W76724  43.483   5.992  14.857
 4300W        W76725  39.229   3.895   1.867
 4301W        W76726   4.410  22.313  11.243
 4302W        W76727  19.398  41.508   2.650
 4303W        W76728  25.188  10.969  14.940
 4304W        W76729  16.572   7.377  14.865
 4305W        W76730  12.203  40.272   4.475
 4306W        W76731  31.433   2.485  12.585
 4307W        W76732  30.382  15.091  14.744
 4308W        W76733  23.910   2.324  12.479
 4309W        W76734  23.628  31.658   1.419
 4310W        W76735   6.811  36.816   1.470
 4311W        W76736  27.796   2.906  13.998
 4312W        W76737  10.589   5.738  10.732
 4313W        W76738  36.597  24.075  14.079
 4314W        W76739  15.823  29.476  13.412
 4315W        W76740  27.906  10.593  12.534
 4316W        W76741  40.380   9.839   4.560
 4317W        W76742  43.562  17.027  11.632
 4318W        W76743   7.451  40.334   4.318
 4319W        W76744  28.988  17.632  13.803
 4320W        W76745  10.166  17.954  11.729
 4321W        W76746   2.180  15.722  11.144
 4322W        W76747   4.086  12.584   3.395
 4323W        W76748  15.061  21.982  13.799
 4324W        W76749   9.229  37.277   1.640
 4325W        W76750   8.993   3.769   4.743
 4326W        W76751  14.070  34.060  11.643
 4327W        W76752   9.534  17.624  13.908
 4328W        W76753  33.371   7.218  11.492
 4329W        W76754  39.629  21.011   1.905
 4330W        W76755   9.791  24.580   2.364
 4331W        W76756  23.556  20.653   2.481
 4332W        W76757  30.440   8.901   5.262
 4333W        W76758  39.304  14.567   4.215
 4334W        W76759  37.572  19.255   4.627
 4335W        W76760   7.776  19.947   0.073
 4336W        W76761  13.203   7.344  13.986
 4337W        W76762  41.172  10.735  14.100
 4338W        W76763  40.165  23.168  12.922
 4339W        W76764  44.412  33.389  14.475
 4340W        W76765   9.189  24.064   0.037
 4341W        W76766  14.264  37.596   4.625
 4342W        W76767  27.365   7.860  14.307
 4343W        W76768  30.197  14.361   4.620
 4344W        W76769  43.002  28.500  13.136
 4345W        W76770  15.126  42.887   3.622
 4346W        W76771  18.845  10.852  11.118
 4347W        W76772  18.861  29.503   9.913
 4348W        W76773  38.795  24.704   4.546
 4349W        W76774  29.193  23.520   2.595
 4350W        W76775  32.968  14.782   0.557
 4351W        W76776  23.081  37.418   0.007
 4352W        W76777   0.936  20.219  14.657
 4353W        W76778  33.977   3.504   1.214
 4354W        W76779  13.682  33.107  13.005
 4355W        W76780  11.172  27.670  11.205
 4356W        W76781  38.987  33.439  11.849
 4357W        W76782  25.168  38.567  11.978
 4358W        W76783  40.082  39.525   3.759
 4359W        W76784  22.015  28.972   0.017
 4360W        W76785   6.634  27.646   0.950
 4361W        W76786  20.203  32.552  11.932
 4362W        W76787  22.881  38.885  13.465
 4363W        W76788  37.638  40.364   5.097
 4364W        W76789  43.558  10.756   2.974
 4365W        W76790  29.956   6.632  11.564
 4366W        W76791  13.781  29.509  11.247
 4367W        W76792  17.539  42.371  11.624
 4368W        W76793   6.825   5.839  13.918
 4369W        W76794  14.534  19.128  14.941
 4370W        W76795  30.537  19.718   2.307
 4371W        W76796  32.824  33.494   2.812
 4372W        W76797  17.854  29.979   1.914
 4373W        W76798  44.251  17.752   0.408
 4374W        W76799  11.419   5.371  13.438
 4375W        W76800   4.487  43.957  11.720
 4376W        W76801  35.025  31.858   4.598
 4377W        W76802   2.243   1.342  12.799
 4378W        W76803  30.365  24.316   1.417
 4379W        W76804  35.177  10.350  13.878
 4380W        W76805  12.411  20.708   0.402
 4381W        W76806  38.465  36.108   0.578
 4382W        W76807   7.655  11.144  11.123
 4383W        W76808  25.943   8.394  13.933
 4384W        W76809  38.863  42.998   0.802
 4385W        W76810   9.145  18.775   2.754
 4386W        W76811  14.583  34.060  11.625
 4387W        W76812  43.475  41.248   0.879
 4388W        W76813   8.964  15.721   4.469
 4389W        W76814  25.681  24.957  12.305
 4390W        W76815  44.789  16.311   0.286
 4391W        W76816  36.514  35.818   1.795
 4392W        W76817  19.714  11.652  12.941
 4393W        W76818  11.786  44.080  14.469
 4394W        W76819  25.247  27.929  14.784
 4395W        W76820  16.816   5.443   4.135
 4396W        W76821  19.806  23.722   4.121
 4397W        W76822  21.655  12.208   4.372
 4398W        W76823  26.450  25.458  11.179
 4399W        W76824  27.044  26.093  10.599
 4400W        W76825  35.014  31.854   3.655
 4401W        W76826   9.973  10.690  12.922
 4402W        W76827  11.735   9.363  12.276
 4403W        W76828  12.559  26.590  13.012
 4404W        W76829  15.296  16.744  12.099
 4405W        W76830  16.191   7.428   1.303
 4406W        W76831  13.118  31.618   0.764
 4407W        W76832  32.298  30.117  13.032
 4408W        W76833  13.719  26.590  11.978
 4409W        W76834  10.819  10.029  10.135
 4410W        W76835  31.915  17.133   3.267
 4411W        W76836   9.703  14.641   0.850
 4412W        W76837  26.171  31.994   2.260
 4413W        W76838  38.398  31.708   1.825
 4414W        W76839   4.305  30.531   3.257
 4415W        W76840  15.111   8.665  12.550
 4416W        W76841  21.533  44.303   2.845
 4417W        W76842  11.727  35.282   2.771
 4418W        W76843   4.407   7.239   1.412
 4419W        W76844  33.618  37.825   2.149
 4420W        W76845  28.044  38.456   3.714
 4421W        W76846   9.099  31.177   2.075
 4422W        W76847  43.831  25.538  12.562
 4423W        W76848  39.539  27.021  13.546
 4424W        W76849  12.400  23.345   1.670
 4425W        W76850  18.292  36.002  12.055
 4426W        W76851  13.866  14.076   4.559
 4427W        W76852   9.676  40.920   0.202
 4428W        W76853  42.690  29.622  12.101
 4429W        W76854  20.253  28.404   1.808
 4430W        W76855  30.347  26.101  14.975
 4431W        W76856  36.551   3.418   3.152
 4432W        W76857  33.295  34.590  13.999
 4433W        W76858  40.017  16.245  11.027
 4434W        W76859  43.434  11.078  11.621
 4435W        W76860   6.503   4.059   4.904
 4436W        W76861  29.219  39.572  13.142
 4437W        W76862   9.670   7.234   3.099
 4438W        W76863  15.544  33.454  12.636
 4439W        W76864  12.872  30.320  12.888
 4440W        W76865  24.922  14.544  10.690
 4441W        W76866  22.745  23.902   3.480
 4442W        W76867  32.545  19.335  12.975
 4443W        W76868  39.367   0.845   3.468
 4444W        W76869  39.880  40.406   4.435
 4445W        W76870  17.188  41.354  11.652
 4446W        W76871  10.213  40.082   3.643
 4447W        W76872  16.737  23.799   0.898
 4448W        W76873  26.947   3.341   4.640
 4449W        W76874   4.004  24.553  10.913
 4450W        W76875  28.126   5.304  11.076
 4451W        W76876  23.939  31.894  12.403
 4452W        W76877   5.013   2.185   1.469
 4453W        W76878  15.252  42.874  14.227
 4454W        W76879  21.803  40.458  12.401
 4455W        W76880  31.410  43.244   0.532
 4456W        W76881  10.849  32.940  13.045
 4457W        W76882  14.030  31.977   0.943
 4458W        W76883  43.297  27.604  13.799
 4459W        W76884  15.600  14.234   1.755
 4460W        W76885  26.935  20.651  14.485
 4461W        W76886  42.447  10.674   3.921
 4462W        W76887  10.835   1.308  11.974
 4463W        W76888   0.959  43.732  14.165
 4464W        W76889  36.130  40.667  10.823
 4465W        W76890  16.764  29.171   1.893
 4466W        W76891  17.913  21.219  13.636
 4467W        W76892  34.837   6.699   2.331
 4468W        W76893  42.041   2.777   0.643
 4469W        W76894  38.340  26.815   4.812
 4470W        W76895  15.051   5.514   3.363
 4471W        W76896  15.072   1.648  14.936
 4472W        W76897  15.057  23.140   3.877
 4473W        W76898  16.269   9.712  13.534
 4474W        W76899  21.146  15.065   0.233
 4475W        W76900  13.301  44.310  13.428
 4476W        W76901  18.248  18.713  13.860
 4477W        W76902  10.411  12.277  13.365
 4478W        W76903  15.186   2.623   3.295
 4479W        W76904  23.029  37.741   0.426
 4480W        W76905  16.740  16.193   4.860
 4481W        W76906  15.711  40.772   1.214
 4482W        W76907   4.471   8.152  13.940
 4483W        W76908  34.415  29.649  10.694
 4484W        W76909  10.935  16.902  12.576
 4485W        W76910   0.889  27.261  12.529
 4486W        W76911   5.266   6.828  11.655
 4487W        W76912  27.696  33.480   3.297
 4488W        W76913   9.979   8.737   9.820
 4489W        W76914  32.518  35.770  11.283
 4490W        W76915  11.861  25.542   0.405
 4491W        W76916  26.746  32.073   0.854
 4492W        W76917   1.531   9.843   0.349
 4493W        W76918  43.253  17.315   3.268
 4494W        W76919   3.680  28.439   3.382
 4495W        W76920  21.349  33.063  14.866
 4496W        W76921  26.387  35.979   4.765
 4497W        W76922  31.607   4.720   2.741
 4498W        W76923  13.131  29.049  13.268
 4499W        W76924  37.630  12.223  14.426
 4500W        W76925  11.804   6.411  13.171
 4501W        W76926   4.231  15.279  14.248
 4502W        W76927  13.136  10.762   2.181
 4503W        W76928   5.305  31.210   3.947
 4504W        W76929  37.078  24.591  10.572
 4505W        W76930   8.874  10.840   2.279
 4506W        W76931  15.405   8.391   0.989
 4507W        W76932  38.226  13.618  12.480
 4508W        W76933  30.708  37.424  14.492
 4509W        W76934   5.275  21.860   1.248
 4510W        W76935  11.149  16.656  11.955
 4511W        W76936  29.378   5.640   0.260
 4512W        W76937  18.282  18.114   0.693
 4513W        W76938  41.937  24.778   4.601
 4514W        W76939  40.925  15.975   4.113
 4515W        W76940   8.892  31.493  13.096
 4516W        W76941  43.999   3.648   0.865
 4517W        W76942   8.822  21.060  11.917
 4518W        W76943  33.909  17.521  10.695
 4519W        W76944  18.423  40.461  13.136
 4520W        W76945   6.621  38.593  13.898
 4521W        W76946  11.753  11.436   1.817
 4522W        W76947  23.516   5.321   4.888
 4523W        W76948  23.322  33.654  11.623
 4524W        W76949  36.958  33.090   2.376
 4525W        W76950  18.665   7.918   4.057
 4526W        W76951  40.924  28.708  12.614
 4527W        W76952  24.505  34.866  10.317
 4528W        W76953  40.327  36.350   4.640
 4529W        W76954  32.787   6.705   4.676
 4530W        W76955   8.793  40.994  13.477
 4531W        W76956  43.927  22.046   2.868
 4532W        W76957   3.820   3.871  12.939
 4533W        W76958  14.462  35.676   2.705
 4534W        W76959  22.738  23.154   4.977
 4535W        W76960   1.475  34.630   1.964
 4536W        W76961  36.149  25.220   1.196
 4537W        W76962   0.496  30.495  13.025
 4538W        W76963  32.381  20.101   4.630
 4539W        W76964   4.833  33.086  10.950
 4540W        W76965  40.035   7.411   2.250
 4541W        W76966  24.916  12.893   1.321
 4542W        W76967  37.610  18.942  13.783
 4543W        W76968  40.480  25.893   2.211
 4544W        W76969  18.560  10.737   1.244
 4545W        W76970  29.320  15.684  11.655
 4546W        W76971   1.858  33.886  13.346
 4547W        W76972  13.700   5.467   0.362
 4548W        W76973  23.277  17.882  12.465
 4549W        W76974  31.506   2.245  11.632
 4550W        W76975  19.810   6.983  14.315
 4551W        W76976  32.674   0.274  14.993
 4552W        W76977  39.965  20.718  14.442
 4553W        W76978   7.616   1.264   3.802
 4554W        W76979  22.851  12.240  12.444
 4555W        W76980   9.807  26.297  10.876
 4556W        W76981  16.318  18.354  10.545
 4557W        W76982   0.351  16.104  12.779
 4558W        W76983   3.932  38.316  10.360
 4559W        W76984  26.634  34.121   2.743
 4560W        W76985  22.733  32.930   0.937
 4561W        W76986  39.783  25.556  14.052
 4562W        W76987  15.361  38.586   2.235
 4563W        W76988   2.741  10.303  10.546
 4564W        W76989  15.871   3.393   1.708
 4565W        W76990   5.601  19.536   3.209
 4566W        W76991  40.085  21.680   1.359
 4567W        W76992  43.773  39.227   1.275
 4568W        W76993  13.934   7.362  13.472
 4569W        W76994  33.958  20.129   4.973
 4570W        W76995  31.963  25.990  11.196
 4571W        W76996   4.395  34.123   3.716
 4572W        W76997  19.616  19.037   0.272
 4573W        W76998  10.772  15.725   4.457
 4574W        W76999  13.340  43.454  13.661
 4575W        W77000   3.798  44.549   4.582
 4576W        W77001  12.833   7.620  12.936
 4577W        W77002  18.848   3.564   3.356
 4578W        W77003  43.463  23.922  11.205
 4579W        W77004  36.403  12.171   1.141
 4580W        W77005  15.085  14.296   1.821
 4581W        W77006  16.488   1.745  14.013
 4582W        W77007  39.267  41.872   1.231
 4583W        W77008  41.965  18.196  10.468
 4584W        W77009  14.897  12.617   4.590
 4585W        W77010  40.563  44.429   2.339
 4586W        W77011  44.328  32.798   2.688
 4587W        W77012  36.416  23.311  11.588
 4588W        W77013  13.361   3.495   1.374
 4589W        W77014   3.998  37.984  11.190
 4590W        W77015  44.856  33.713  14.404
 4591W        W77016  28.746   2.911   3.660
 4592W        W77017  17.298  19.952  14.781
 4593W        W77018  34.631   0.839  14.040
 4594W        W77019  34.406   5.144  12.549
 4595W        W77020  38.397  43.970   0.228
 4596W        W77021  23.745  24.536   0.238
 4597W        W77022  32.017  13.107   1.884
 4598W        W77023  19.743   8.465  14.264
 4599W        W77024  33.380  27.182   3.855
 4600W        W77025  43.461   5.007  13.626
 4601W        W77026  28.968  22.577   3.706
 4602W        W77027  27.179  31.492  12.249
 4603W        W77028  44.193  30.637  14.799
 4604W        W77029   8.962  23.686   1.774
 4605W        W77030  25.588   6.160   3.226
 4606W        W77031  38.934  35.681   3.063
 4607W        W77032  11.595  21.967   0.486
 4608W        W77033  21.702  24.669  14.801
 4609W        W77034  28.480  23.520  13.830
 4610W        W77035  35.803   5.375  14.639
 4611W        W77036  14.809  34.506   1.173
 4612W        W77037  35.344  16.681  12.491
 4613W        W77038  24.103   9.804  13.193
 4614W        W77039   1.595  39.519  13.749
 4615W        W77040  27.476  25.945   1.277
 4616W        W77041  37.276  44.368  12.725
 4617W        W77042   2.732   1.736   4.666
 4618W        W77043   7.340  16.582   4.732
 4619W        W77044  37.085  14.598   4.816
 4620W        W77045  38.788   4.346   4.688
 4621W        W77046   8.629  39.037  13.557
 4622W        W77047   5.129  10.685   1.268
 4623W        W77048  20.148  36.984  10.546
 4624W        W77049  42.296  17.695   3.354
 4625W        W77050  43.827  28.944   4.429
 4626W        W77051  24.626  12.675  13.808
 4627W        W77052  24.896  42.615   2.806
 4628W        W77053  26.660   8.058  11.611
 4629W        W77054  27.678   0.523  11.877
 4630W        W77055  38.358  36.117  12.543
 4631W        W77056   7.457  26.569  12.006
 4632W        W77057  32.368  30.052   1.562
 4633W        W77058  33.475  13.849  10.723
 4634W        W77059   5.200  14.126   3.695
 4635W        W77060  41.509  44.333   2.676
 4636W        W77061   6.091  34.081   0.770
 4637W        W77062  42.547  16.310   3.933
 4638W        W77063  17.233  37.755   3.181
 4639W        W77064   6.430  25.084   1.730
 4640W        W77065   6.427  23.735  10.761
 4641W        W77066  19.009  10.632  14.314
 4642W        W77067   5.860   8.598  13.871
 4643W        W77068  31.414   4.096  11.077
 4644W        W77069   7.273  43.917  10.662
 4645W        W77070   3.197   6.324   3.325
 4646W        W77071  42.951  43.074   1.884
 4647W        W77072  31.957   4.243  13.256
 4648W        W77073  18.752  18.766  11.198
 4649W        W77074  12.584   2.447  12.862
 4650W        W77075  42.301  39.905  14.486
 4651W        W77076  36.416  13.538   2.939
 4652W        W77077  41.151   5.731   4.372
 4653W        W77078  43.411  19.103   4.670
 4654W        W77079  40.758  20.280   0.609
 4655W        W77080  36.949  23.729  10.542
 4656W        W77081  33.288  19.284  11.578
 4657W        W77082  12.649   9.507  13.378
 4658W        W77083  41.820  37.366  13.249
 4659W        W77084  27.646  24.121   4.376
 4660W        W77085  25.278  11.351  12.254
 4661W        W77086  39.562   8.357  13.018
 4662W        W77087  27.488   7.776  10.743
 4663W        W77088   5.199  24.525  14.532
 4664W        W77089  37.549  38.323  10.701
 4665W        W77090  21.313  19.567   2.272
 4666W        W77091  18.412   2.808   2.278
 4667W        W77092   7.173  19.587   2.155
 4668W        W77093  39.812  26.114  10.583
 4669W        W77094  35.647  24.122   1.288
 4670W        W77095   7.927  43.425   2.331
 4671W        W77096  15.308  15.780  13.556
 4672W        W77097  38.908  17.916   1.695
 4673W        W77098   3.615   5.229  13.852
 4674W        W77099  16.872   4.814   1.115
 4675W        W77100  15.999  10.360  14.903
 4676W        W77101  19.030  11.559   0.797
 4677W        W77102   6.777  19.319   3.730
 4678W        W77103  12.335  10.637  10.761
 4679W        W77104   8.736  26.318   2.883
 4680W        W77105   2.043   4.975   4.578
 4681W        W77106  17.994  31.356   1.694
 4682W        W77107  31.044  37.482   3.917
 4683W        W77108  16.565  36.850   2.967
 4684W        W77109   7.403   1.412   4.308
 4685W        W77110  10.360  35.554  11.511
 4686W        W77111  43.552  34.865   2.404
 4687W        W77112  31.718  37.951  13.045
 4688W        W77113   5.324   1.708  14.843
 4689W        W77114  39.554  17.819   0.711
 4690W        W77115  35.842  32.931   3.736
 4691W        W77116  20.733   1.389   3.613
 4692W        W77117  29.700  30.502  11.117
 4693W        W77118  44.309   9.570  13.052
 4694W        W77119   8.112  22.953   1.442
 4695W        W77120  21.211  25.481  12.456
 4696W        W77121  16.708   2.065  11.201
 4697W        W77122   1.070  26.043  11.787
 4698W        W77123  10.767   6.564   5.884
 4699W        W77124   8.972  30.852  13.002
 4700W        W77125  31.390  30.141  12.963
 4701W        W77126  35.649  17.434  10.987
 4702W        W77127  23.952   1.739   3.407
 4703W        W77128   7.965   7.216   4.978
 4704W        W77129  31.436  35.150  10.644
 4705W        W77130  38.060  14.814   4.566
 4706W        W77131  10.155  32.856  12.119
 4707W        W77132  10.060  41.492  10.155
 4708W        W77133   3.901  28.027  10.914
 4709W        W77134  20.289  12.988  13.129
 4710W        W77135   0.292  10.639   1.257
 4711W        W77136  32.605   2.703   4.216
 4712W        W77137  42.090  33.060  11.595
 4713W        W77138  12.158  21.892   1.682
 4714W        W77139  39.553  12.812   1.395
 4715W        W77140  41.356  42.842  12.174
 4716W        W77141  36.637  31.723   0.648
 4717W        W77142  36.544  24.534  14.752
 4718W        W77143  22.232  25.910  13.077
 4719W        W77144  36.223  19.810   5.002
 4720W        W77145  43.587  36.847  12.709
 4721W        W77146  37.972  28.437  12.437
 4722W        W77147  42.555  15.778   2.557
 4723W        W77148  20.647  13.343  10.554
 4724W        W77149  16.303   0.970  14.420
 4725W        W77150  11.311  24.491  14.011
 4726W        W77151  18.674   0.965   5.274
 4727W        W77152   1.480  25.632   1.922
 4728W        W77153  43.379  20.583  14.444
 4729W        W77154  23.479  16.791   2.006
 4730W        W77155  17.593  39.228   4.625
 4731W        W77156  29.482  33.949  10.534
 4732W        W77157  40.368  26.178   5.072
 4733W        W77158   5.849   4.410   0.826
 4734W        W77159  28.069  37.149  11.595
 4735W        W77160   2.084   9.129   2.355
 4736W        W77161  43.280  28.400  13.567
 4737W        W77162   0.171  15.605  14.003
 4738W        W77163  10.401  42.638  12.756
 4739W        W77164  23.541  17.092   4.694
 4740W        W77165   1.671  36.746  12.908
 4741W        W77166  30.699  17.721   3.323
 4742W        W77167  34.345  21.072  11.634
 4743W        W77168  35.870  25.558   4.189
 4744W        W77169  42.305  22.695  12.564
 4745W        W77170  21.494  11.109   4.567
 4746W        W77171  15.140  25.100   3.613
 4747W        W77172  40.884  15.113   1.008
 4748W        W77173   1.417   1.788  10.618
 4749W        W77174   0.605  33.628   1.955
 4750W        W77175   7.907  34.596  10.693
 4751W        W77176  16.202  37.866  10.636
 4752W        W77177  39.100  38.651   1.472
 4753W        W77178  17.611  21.581   1.731
 4754W        W77179  33.647  28.465  13.507
 4755W        W77180  28.512  33.012  12.911
 4756W        W77181  35.950  37.969  14.028
 4757W        W77182   1.721  21.071   1.795
 4758W        W77183  31.903  29.009  14.998
 4759W        W77184  23.181   1.147  11.641
 4760W        W77185   3.397  42.750   3.687
 4761W        W77186  38.408   5.173   0.025
 4762W        W77187  43.934  39.447  13.026
 4763W        W77188  24.901   4.535  14.867
 4764W        W77189  37.785  40.348  13.332
 4765W        W77190  36.330  16.812  14.394
 4766W        W77191   8.970   1.949  12.105
 4767W        W77192   7.301  30.369   0.459
 4768W        W77193   9.826  37.585  14.876
 4769W        W77194   7.920  34.877   0.490
 4770W        W77195  39.322   2.440   3.217
 4771W        W77196  24.986   4.930   0.462
 4772W        W77197  15.171   6.449  12.125
 4773W        W77198   8.426  43.017  12.109
 4774W        W77199  16.283  39.862  12.952
 4775W        W77200  27.025  12.100   0.265
 4776W        W77201   3.340  37.490  12.516
 4777W        W77202  41.974  26.814  14.512
 4778W        W77203  35.591  37.969   0.844
 4779W        W77204   1.004   4.802   4.069
 4780W        W77205  39.172   1.362  14.834
 4781W        W77206   4.733   6.675  11.898
 4782W        W77207  11.104  23.659   3.851
 4783W        W77208  42.385  21.078   0.257
 4784W        W77209  32.566  34.374   3.335
 4785W        W77210  39.047   5.424  13.419
 4786W        W77211  31.992   5.214  10.699
 4787W        W77212  42.437  35.509   2.868
 4788W        W77213  30.238  14.763  11.178
 4789W        W77214  19.322  43.867   4.893
 4790W        W77215  44.005   9.341  10.576
 4791W        W77216   9.823  10.277  11.824
 4792W        W77217  32.215  32.764  14.040
 4793W        W77218  19.239  20.597   4.412
 4794W        W77219  40.967  33.606   1.202
 4795W        W77220  42.446  37.037   2.824
 4796W        W77221  34.291  31.483   2.356
 4797W        W77222  25.510  36.513  12.027
 4798W        W77223  27.894  20.828   2.756
 4799W        W77224  15.432   5.099   3.269
 4800W        W77225   9.939  40.126   1.302
 4801W        W77226  38.255  15.830  11.943
 4802W        W77227  12.172  24.219  12.159
 4803W        W77228  38.485  44.295   3.583
 4804W        W77229  36.488  15.782   2.318
 4805W        W77230  37.801  37.358  13.457
 4806W        W77231  21.545  35.868  10.276
 4807W        W77232   8.374   2.836  10.758
 4808W        W77233   6.436  18.495   0.863
 4809W        W77234   3.863  39.251   4.569
 4810W        W77235  17.135  20.985   0.161
 4811W        W77236   5.538  20.288   4.116
 4812W        W77237  33.434  28.707   0.461
 4813W        W77238  12.314  16.634  12.094
 4814W        W77239  36.461  16.330   2.256
 4815W        W77240  32.618  20.657   2.440
 4816W        W77241  25.731  29.900  12.871
 4817W        W77242  27.434  31.945  14.001
 4818W        W77243   5.909  29.630  11.175
 4819W        W77244  33.506   7.650  12.473
 4820W        W77245  33.173   8.797  11.123
 4821W        W77246   3.231  34.899   0.810
 4822W        W77247  27.928  27.646   0.635
 4823W        W77248  16.569  43.810  13.976
 4824W        W77249  19.766  20.146   0.916
 4825W        W77250  23.806  40.437   3.813
 4826W        W77251  36.816  31.839   2.813
 4827W        W77252   0.945  40.493  14.059
 4828W        W77253   5.604  42.324   0.734
 4829W        W77254  27.115  26.909   0.754
 4830W        W77255  21.537  32.061   4.820
 4831W        W77256  40.161  20.023   2.885
 4832W        W77257  39.613  32.099  13.476
 4833W        W77258  20.213  27.153   4.084
 4834W        W77259   1.519   3.488   0.184
 4835W        W77260   1.764   1.876   0.788
 4836W        W77261  14.719  21.229   1.608
 4837W        W77262  37.093  25.981   0.380
 4838W        W77263  41.060  19.290  14.372
 4839W        W77264  30.910   7.343   3.694
 4840W        W77265  39.872  24.430   2.187
 4841W        W77266  10.848  14.994  10.807
 4842W        W77267  44.093  10.900  13.320
 4843W        W77268   9.259   4.024  12.422
 4844W        W77269  38.032  42.504  12.550
 4845W        W77270  23.971  40.924  13.759
 4846W        W77271  16.288  11.705  11.383
 4847W        W77272  27.916  38.749   3.301
 4848W        W77273   9.972   0.836   4.404
 4849W        W77274   6.133  23.806  13.911
 4850W        W77275   6.201  10.373   1.387
 4851W        W77276  27.895  20.131   3.654
 4852W        W77277   6.027  39.669   3.850
 4853W        W77278  11.370   3.427   3.301
 4854W        W77279  16.107  33.098  13.356
 4855W        W77280   8.672  27.620  10.706
 4856W        W77281   7.431  41.992   2.704
 4857W        W77282  34.440  28.894   1.991
 4858W        W77283  18.979  21.970  11.051
 4859W        W77284  22.714  30.622   0.684
 4860W        W77285  33.277   7.994   2.651
 4861W        W77286   6.835  24.644   1.073
 4862W        W77287  24.959   4.207  11.843
 4863W        W77288  40.404  30.163  13.832
 4864W        W77289  27.024  16.698  13.769
 4865W        W77290  24.732   4.846  12.085
 4866W        W77291  30.455  15.220  12.827
 4867W        W77292  43.233   0.703  11.541
 4868W        W77293  38.037  31.245  14.966
 4869W        W77294  25.739  40.349   9.958
 4870W        W77295  15.631  10.994  11.848
 4871W        W77296  28.665  42.598   2.750
 4872W        W77297  30.108  43.514  10.510
 4873W        W77298  29.424  41.991   4.158
 4874W        W77299  13.571   6.924  10.704
 4875W        W77300  25.781  35.966   1.928
 4876W        W77301  17.955  23.678  10.992
 4877W        W77302  31.040  41.897   1.347
 4878W        W77303  30.415   0.121  14.183
 4879W        W77304   7.581  27.446  14.827
 4880W        W77305  24.290  33.925  14.450
 4881W        W77306  19.677  34.750   0.374
 4882W        W77307  21.704  35.045   1.851
 4883W        W77308  42.740  31.649   2.658
 4884W        W77309  16.361  25.497  14.464
 4885W        W77310  22.081  26.696   3.242
 4886W        W77311  22.177   8.359  12.541
 4887W        W77312  29.594  15.611  14.554
 4888W        W77313  22.289  26.194  14.345
 4889W        W77314  14.333  24.557   5.124
 4890W        W77315  28.563  17.157  13.245
 4891W        W77316  23.761  19.106   2.822
 4892W        W77317  16.476  44.176   3.050
 4893W        W77318  32.524  35.824   4.355
 4894W        W77319   6.770  26.715  14.287
 4895W        W77320  22.083  23.244   0.883
 4896W        W77321  37.976  10.345   0.448
 4897W        W77322  33.223  32.603   3.226
 4898W        W77323   8.174  40.468  11.560
 4899W        W77324   6.313  26.441  12.012
 4900W        W77325  36.488  36.466  12.071
 4901W        W77326   4.832   4.148  12.768
 4902W        W77327  15.201   8.288   3.571
 4903W        W77328  33.959  17.531   0.873
 4904W        W77329  36.746  25.939   3.134
 4905W        W77330  13.303  30.232  13.915
 4906W        W77331  13.360  29.648   1.751
 4907W        W77332  41.932  16.686  13.529
 4908W        W77333  25.240  28.409   4.560
 4909W        W77334   3.048  37.359  12.946
 4910W        W77335  10.661  43.407   0.028
 4911W        W77336  43.384  36.792   1.410
 4912W        W77337  37.458  26.508   3.246
 4913W        W77338  12.735  22.680   1.449
 4914W        W77339  32.365   2.876   0.919
 4915W        W77340  11.796  12.085  10.527
 4916W        W77341  44.381  11.087  12.927
 4917W        W77342  34.003  29.614  12.018
 4918W        W77343  19.236  14.043   3.706
 4919W        W77344  36.372   2.343   1.989
 4920W        W77345  18.823  23.013  13.919
 4921W        W77346   6.871  35.135   2.716
 4922W        W77347   8.670  37.282  11.484
 4923W        W77348  16.300   1.324  10.506
 4924W        W77349  34.332  20.629   1.405
 4925W        W77350  30.439   5.441  14.923
 4926W        W77351  12.852  22.725  12.590
 4927W        W77352   4.651  14.570   4.449
 4928W        W77353  36.990  15.509   2.274
 4929W        W77354  23.724   9.686  14.216
 4930W        W77355  23.207  22.654   2.262
 4931W        W77356  15.138  44.457   1.429
 4932W        W77357  18.656  10.903   4.565
 4933W        W77358  12.382  19.282  12.948
 4934W        W77359  10.348  19.543   5.220
 4935W        W77360   8.366  18.016  10.996
 4936W        W77361  32.352  42.895  14.171
 4937W        W77362   4.766  11.595   4.663
 4938W        W77363   7.808  40.820   3.593
 4939W        W77364  35.580   9.827   1.386
 4940W        W77365  44.241  35.166  14.288
 4941W        W77366   9.924  29.240   3.772
 4942W        W77367   8.488   9.130   1.770
 4943W        W77368  12.071  31.930   1.054
 4944W        W77369  13.045  29.857  11.123
 4945W        W77370  25.872  40.263  13.476
 4946W        W77371  17.671   0.390   0.913
 4947W        W77372  18.285  30.965   1.916
 4948W        W77373   2.700   2.863  11.120
 4949W        W77374   3.945   4.496   4.860
 4950W        W77375  43.705   2.793   4.750
 4951W        W77376  20.287  32.005  11.064
 4952W        W77377  13.765  12.456  12.777
 4953W        W77378  10.707  38.432   0.899
 4954W        W77379  36.356  10.210  12.055
 4955W        W77380  35.898  19.716  11.038
 4956W        W77381   5.312  21.128   0.666
 4957W        W77382  26.458   5.161  12.459
 4958W        W77383  38.381  23.568  10.585
 4959W        W77384   8.990   0.370  12.944
 4960W        W77385  44.887   3.139  13.029
 4961W        W77386  22.415  20.848  10.810
 4962W        W77387  42.490   1.974   1.525
 4963W        W77388   1.193  15.672  13.894
 4964W        W77389  37.969  35.379   4.398
 4965W        W77390  41.444   1.617  11.449
 4966W        W77391  15.601   1.457  13.323
 4967W        W77392  26.672   9.936  13.040
 4968W        W77393  13.783  25.290  10.821
 4969W        W77394  29.114  36.322  11.177
 4970W        W77395  16.661  25.660   2.569
 4971W        W77396  41.976  30.104   4.821
 4972W        W77397  21.558  36.064  12.381
 4973W        W77398  19.079  14.170  10.916
 4974W        W77399   0.298   4.246  11.998
 4975W        W77400  12.254  15.813  14.331
 4976W        W77401  15.831  34.473   9.759
 4977W        W77402   2.665  20.729   2.323
 4978W        W77403  39.122  29.904  13.319
 4979W        W77404   9.271  32.686  13.610
 4980W        W77405  16.377   1.472  12.886
 4981W        W77406  37.442  35.341   5.240
 4982W        W77407  19.635  26.683   1.339
 4983W        W77408  32.307  30.012  10.729
 4984W        W77409  10.867  22.273  14.859
 4985W        W77410  42.150   7.916  13.797
 4986W        W77411  38.542  17.161   4.755
 4987W        W77412  31.023  36.862   1.859
 4988W        W77413  27.406  21.247  12.616
 4989W        W77414  17.641  15.781  10.663
 4990W        W77415   7.206  28.110  10.725
 4991W        W77416   7.194  39.318   2.248
 4992W        W77417  18.554  31.580  12.623
 4993W        W77418  11.875  10.800  10.951
 4994W        W77419  30.512  24.940  10.768
 4995W        W77420  21.156  24.440   1.461
 4996W        W77421  32.746   0.311   1.951
 4997W        W77422  33.559  39.122  13.436
 4998W        W77423  33.854  14.820  13.232
 4999W        W77424   6.643  37.319  14.283
 5000W        W77425   8.233  30.985   0.467
 5001W        W77426  21.184  13.270  10.647
 5002W        W77427  32.599  41.344  14.440
 5003W        W77428  23.424  14.622  13.782
 5004W        W77429   9.390  23.973   2.876
 5005W        W77430  12.237   5.165  12.455
 5006W        W77431  21.215  17.100   4.238
 5007W        W77432  36.522  25.077  12.635
 5008W        W77433  32.452  44.430  12.618
 5009W        W77434  24.206   5.170   3.669
 5010W        W77435  43.430  32.844   4.766
 5011W        W77436  19.924   7.219   3.765
 5012W        W77437   8.639  44.921   2.803
 5013W        W77438   0.261  32.880   2.679
 5014W        W77439  34.433   3.460  12.153
 5015W        W77440  43.364  31.889  14.996
 5016W        W77441   2.270   5.337   2.267
 5017W        W77442  37.980  18.119   1.342
 5018W        W77443  22.843  29.706  12.944
 5019W        W77444  21.041  26.551   0.355
 5020W        W77445  37.941  31.866   2.747
 5021W        W77446  38.511   1.409   2.353
 5022W        W77447   4.635   2.403   2.310
 5023W        W77448  12.873  21.099   2.677
 5024W        W77449  16.204   7.657  13.512
 5025W        W77450  12.191  11.395  12.388
 5026W        W77451  24.531   5.266   2.197
 5027W        W77452  38.444  36.316   3.130
 5028W        W77453  18.545  38.295   2.763
 5029W        W77454   3.426   2.715  11.417
 5030W        W77455  43.504  23.695  11.682
 5031W        W77456  22.621  20.572   1.006
 5032W        W77457  18.178   5.483   3.207
 5033W        W77458  10.814   6.043   3.748
 5034W        W77459   8.331  40.492  14.986
 5035W        W77460  41.319   5.276   1.239
 5036W        W77461  32.893  24.631  10.706
 5037W        W77462  18.812  20.952   3.610
 5038W        W77463   6.627  28.663   2.241
 5039W        W77464  15.710  20.078  14.387
 5040W        W77465  35.685  18.246  12.904
 5041W        W77466  30.897  32.020   3.140
 5042W        W77467   6.469  31.647   1.185
 5043W        W77468  25.789  23.902   0.370
 5044W        W77469  30.969   6.368   0.403
 5045W        W77470  25.412   2.007  11.171
 5046W        W77471   9.740  16.667   4.346
 5047W        W77472   4.022  37.640   3.235
 5048W        W77473   5.450  12.758   0.222
 5049W        W77474  13.243  20.558   4.299
 5050W        W77475  21.751  37.926   0.510
 5051W        W77476  22.606   3.199   4.990
 5052W        W77477   3.058  18.179  10.671
 5053W        W77478  11.309  13.749   1.944
 5054W        W77479   9.896  31.328   4.564
 5055W        W77480  20.661  15.900  12.573
 5056W        W77481  19.548  14.457   3.719
 5057W        W77482  31.439  26.966  13.914
 5058W        W77483  37.880  30.021  11.579
 5059W        W77484   8.136  21.491   4.037
 5060W        W77485  21.977  39.524  11.909
 5061W        W77486  18.667  28.845   5.091
 5062W        W77487  37.963   5.143   3.595
 5063W        W77488  22.491  37.149   3.344
 5064W        W77489  33.440   9.982   4.264
 5065W        W77490  43.015  22.733  12.911
 5066W        W77491  17.298  19.058   1.201
 5067W        W77492  44.541  24.074  14.266
 5068W        W77493  23.205  24.567   1.464
 5069W        W77494  38.010  22.640   0.842
 5070W        W77495  25.253  27.052  11.098
 5071W        W77496  40.137  35.063   4.880
 5072W        W77497  41.110  39.222   2.644
 5073W        W77498  40.269  27.610   4.150
 5074W        W77499  22.078  21.737  13.885
 5075W        W77500  14.812   1.764   2.734
 5076W        W77501  17.958  23.583   3.601
 5077W        W77502  37.789  41.114  11.975
 5078W        W77503  37.001  18.029   0.335
 5079W        W77504  42.587  28.940  14.932
 5080W        W77505  11.848   9.046   4.132
 5081W        W77506  26.151  44.978  11.575
 5082W        W77507  25.549  33.129   2.731
 5083W        W77508  35.595  30.008  13.539
 5084W        W77509  35.580  27.424  12.534
 5085W        W77510  38.225   0.724   0.529
 5086W        W77511  23.692   1.372   3.714
 5087W        W77512  12.658  43.883   4.284
 5088W        W77513   2.485  34.983  10.781
 5089W        W77514  21.290  14.316   1.900
 5090W        W77515  32.893   9.775  11.643
 5091W        W77516   5.786  37.398  13.367
 5092W        W77517  18.142   2.953  12.518
 5093W        W77518  43.449  33.141   3.273
 5094W        W77519  18.327   4.732   3.611
 5095W        W77520  27.814  14.321  13.885
 5096W        W77521  37.594  41.436   1.761
 5097W        W77522  25.404  26.555  14.788
 5098W        W77523  41.068   5.837  14.424
 5099W        W77524  20.115   8.349  10.732
 5100W        W77525  30.125   2.061  13.919
 5101W        W77526   2.174  28.887   4.066
 5102W        W77527  18.563  43.398   3.263
 5103W        W77528  42.757  34.312   4.115
 5104W        W77529  14.518  28.391  11.602
 5105W        W77530  39.836  14.915  14.027
 5106W        W77531  10.895  13.696   1.155
 5107W        W77532   0.400  22.592  13.373
 5108W        W77533  33.530  14.055   2.720
 5109W        W77534  34.069  39.417  10.867
 5110W        W77535   0.112  17.690  14.541
 5111W        W77536  15.696  25.614  13.125
 5112W        W77537   6.146  27.163   4.109
 5113W        W77538  42.499  36.071   3.574
 5114W        W77539  39.793  21.178   4.562
 5115W        W77540  25.467  17.291  12.033
 5116W        W77541   8.985  41.055  14.441
 5117W        W77542  40.222   6.865  11.454
 5118W        W77543  27.450   6.842   1.771
 5119W        W77544  26.098  33.582  13.384
 5120W        W77545  39.041  25.897   2.727
 5121W        W77546  15.007  13.334   1.019
 5122W        W77547  14.096  31.068  14.788
 5123W        W77548  21.581   9.048  12.055
 5124W        W77549  38.456   4.980  14.022
 5125W        W77550   9.361   7.151  14.422
 5126W        W77551   0.556  20.516   3.179
 5127W        W77552  32.905  20.120   4.613
 5128W        W77553   8.310  12.211   1.455
 5129W        W77554  21.369  11.391  13.793
 5130W        W77555  19.684  43.685   2.231
 5131W        W77556  43.922   5.376  11.080
 5132W        W77557  29.214  31.540   1.262
 5133W        W77558  25.233  15.577  13.533
 5134W        W77559  31.044  43.218   3.982
 5135W        W77560  17.780  33.077   2.581
 5136W        W77561   7.875  16.751   2.641
 5137W        W77562   4.148  17.797  13.632
 5138W        W77563  43.060   8.711  12.657
 5139W        W77564   6.182  34.543  14.433
 5140W        W77565  28.225   2.610  14.769
 5141W        W77566  23.057  16.019   2.022
 5142W        W77567  19.569  43.907   1.220
 5143W        W77568  41.052   7.835  11.021
 5144W        W77569  23.711   6.467  12.057
 5145W        W77570  20.783   6.740  10.646
 5146W        W77571  35.920   1.953   2.135
 5147W        W77572  41.500  22.089  11.785
 5148W        W77573  28.440  44.384   4.148
 5149W        W77574  30.263  33.050  10.995
 5150W        W77575  30.453  17.111  13.005
 5151W        W77576  30.436  19.263  11.456
 5152W        W77577  22.301  32.835   0.091
 5153W        W77578   2.982  28.776  11.463
 5154W        W77579   0.204  14.110   0.699
 5155W        W77580   2.038   1.838   4.094
 5156W        W77581  27.237  17.631   4.402
 5157W        W77582  38.451   1.510  14.272
 5158W        W77583  18.682  16.040  12.000
 5159W        W77584   1.320   2.241   2.848
 5160W        W77585  40.737  33.470  11.521
 5161W        W77586  35.706  40.473  14.834
 5162W        W77587   6.656  42.332  10.950
 5163W        W77588  13.662  37.972  12.310
 5164W        W77589  44.389   9.339  12.588
 5165W        W77590  38.517  25.101   9.961
 5166W        W77591  43.801  34.626   0.722
 5167W        W77592  19.713  37.055  13.974
 5168W        W77593  44.320  23.257  11.162
 5169W        W77594  36.320  27.400   1.298
 5170W        W77595   2.358  32.085   3.155
 5171W        W77596   6.520  13.154  11.643
 5172W        W77597  41.348  14.063   3.416
 5173W        W77598  23.176   1.802  13.350
 5174W        W77599   0.967  13.656   4.245
 5175W        W77600   0.689  24.196   0.413
 5176W        W77601  33.194  36.525   1.314
 5177W        W77602   3.137   1.035  13.873
 5178W        W77603  26.194  17.991  11.007
 5179W        W77604  21.413  19.766   3.137
 5180W        W77605  44.208   2.453   1.286
 5181W        W77606  37.382  20.553  14.504
 5182W        W77607   8.200  36.455  14.253
 5183W        W77608  38.459  11.172  14.101
 5184W        W77609  17.053  14.035   9.952
 5185W        W77610   9.283  33.167  12.191
 5186W        W77611  30.482  22.736  13.433
 5187W        W77612  29.581  21.966   4.294
 5188W        W77613  43.731  18.249   5.004
 5189W        W77614  18.806  37.389   4.193
 5190W        W77615  16.149  44.094  13.929
 5191W        W77616  12.817  10.352  11.471
 5192W        W77617  10.115   5.400   4.217
 5193W        W77618  18.117  43.528   3.901
 5194W        W77619   1.726  25.503  14.657
 5195W        W77620  25.581  33.099  14.927
 5196W        W77621  10.273   3.488  12.809
 5197W        W77622  13.800  29.108  10.939
 5198W        W77623   4.301  41.616   0.647
 5199W        W77624  17.789  16.292  11.860
 5200W        W77625  25.199  21.211   3.812
 5201W        W77626  44.490  43.290  14.782
 5202W        W77627  30.078  17.999   5.456
 5203W        W77628  27.957  44.449   1.334
 5204W        W77629  29.744  33.614   3.102
 5205W        W77630  27.420  18.800  13.713
 5206W        W77631  31.648   6.705   2.124
 5207W        W77632   0.464  24.457  13.007
 5208W        W77633   4.528  40.528   4.494
 5209W        W77634  44.343  28.363   0.250
 5210W        W77635   2.377   0.832  12.591
 5211W        W77636   7.779  28.737   3.310
 5212W        W77637  21.543  36.631  14.146
 5213W        W77638   9.160  13.825  10.735
 5214W        W77639   1.715  13.089  13.376
 5215W        W77640   0.845   3.205  13.970
 5216W        W77641  25.473  42.512   1.398
 5217W        W77642  29.433  31.651   3.607
 5218W        W77643  13.143   6.666  12.435
 5219W        W77644  32.814  28.646   4.261
 5220W        W77645  38.981   2.020   0.546
 5221W        W77646   8.246  31.493   4.649
 5222W        W77647  27.190  41.913  11.690
 5223W        W77648  18.019  20.693  10.381
 5224W        W77649   1.373   9.909  11.889
 5225W        W77650  24.740   3.835  14.529
 5226W        W77651  30.135  37.489  12.050
 5227W        W77652  33.908   7.721  11.635
 5228W        W77653  24.908  16.919   0.316
 5229W        W77654   4.183  35.192   2.403
 5230W        W77655  26.916  18.128   1.287
 5231W        W77656   6.327  28.436   1.744
 5232W        W77657   2.935  27.698   0.976
 5233W        W77658   1.423   5.617  10.730
 5234W        W77659  10.114  29.184  12.870
 5235W        W77660  38.195   4.128   3.775
 5236W        W77661  41.806  25.502   1.800
 5237W        W77662  30.393   6.684   3.129
 5238W        W77663  26.153  35.050   4.247
 5239W        W77664  11.356  39.562  11.042
 5240W        W77665   8.862   9.543   0.879
 5241W        W77666   6.270  35.239  13.176
 5242W        W77667  39.910  35.745  13.318
 5243W        W77668  36.588  19.787  10.386
 5244W        W77669   8.950  18.138   3.020
 5245W        W77670  31.034  32.688  10.748
 5246W        W77671  30.355  40.165  11.157
 5247W        W77672  44.532  29.656  14.868
 5248W        W77673   3.806  20.476   4.195
 5249W        W77674   5.682  22.686  11.525
 5250W        W77675  16.751  34.396   2.526
 5251W        W77676  33.995  37.626  11.028
 5252W        W77677  20.111  25.492   4.746
 5253W        W77678  31.390   3.422   0.021
 5254W        W77679  30.946  41.817   0.395
 5255W        W77680  41.940   3.624   0.264
 5256W        W77681  42.941  29.872  13.270
 5257W        W77682  38.312  24.361   4.071
 5258W        W77683  34.912  19.462   1.497
 5259W        W77684  43.619  38.276   1.356
 5260W        W77685  28.787   1.832   2.412
 5261W        W77686  11.294  27.718  13.809
 5262W        W77687   9.434  31.058   4.500
 5263W        W77688  38.119  33.889   4.141
 5264W        W77689  29.509  16.500   0.375
 5265W        W77690  32.548   0.831  14.514
 5266W        W77691  20.585   1.855   3.299
 5267W        W77692   0.291  34.780   0.436
 5268W        W77693  29.041  30.527   5.431
 5269W        W77694  35.588  17.743   1.689
 5270W        W77695  19.966  38.947   1.965
 5271W        W77696  33.289  28.427   3.658
 5272W        W77697  41.581   8.629   2.641
 5273W        W77698  15.607  10.323  12.962
 5274W        W77699  27.069   7.775   3.590
 5275W        W77700   2.267  36.393  13.868
 5276W        W77701  39.862   5.681   4.850
 5277W        W77702  28.497  22.479  11.582
 5278W        W77703   8.770   9.834  12.617
 5279W        W77704  37.009  39.041   3.549
 5280W        W77705  11.075  13.251   1.853
 5281W        W77706  32.898  30.019  14.068
 5282W        W77707  21.027   9.763  13.047
 5283W        W77708  37.772  42.748   2.349
 5284W        W77709  11.198  39.409  14.801
 5285W        W77710  34.161  17.449   4.225
 5286W        W77711  23.719  11.594   4.164
 5287W        W77712   7.157  21.845   4.875
 5288W        W77713  17.907   1.537   0.289
 5289W        W77714  42.377  38.885   0.955
 5290W        W77715  43.268  30.934   2.472
 5291W        W77716  20.202  12.791   1.482
 5292W        W77717  38.990  22.661  11.105
 5293W        W77718  38.298  20.519   1.156
 5294W        W77719  23.872  15.622  10.546
 5295W        W77720  37.131  11.979  11.393
 5296W        W77721  40.355   7.200  13.335
 5297W        W77722  18.364   1.705  10.011
 5298W        W77723  25.763  22.554   1.309
 5299W        W77724  13.022  29.124   2.762
 5300W        W77725  37.104  11.263   4.293
 5301W        W77726  41.474  34.870  12.962
 5302W        W77727   0.502  29.928  14.924
 5303W        W77728  34.744  29.462   3.941
 5304W        W77729  11.758   5.931  14.992
 5305W        W77730  18.186  40.437  11.723
 5306W        W77731  13.827   5.132  13.383
 5307W        W77732   9.841  39.425   4.827
 5308W        W77733  35.496  26.183   4.644
 5309W        W77734  16.296   5.256   1.269
 5310W        W77735   3.752  35.048   0.787
 5311W        W77736  24.519  29.202  14.535
 5312W        W77737   2.864  16.138   3.693
 5313W        W77738  31.227  40.536   0.733
 5314W        W77739  25.060  16.784   4.210
 5315W        W77740  41.423  10.294   1.762
 5316W        W77741  32.880  11.261  13.895
 5317W        W77742  40.776   9.364  11.140
 5318W        W77743  17.154  19.090  11.642
 5319W        W77744  31.295  27.061   2.870
 5320W        W77745  12.817   2.688   2.937
 5321W        W77746  16.703  16.079  11.104
 5322W        W77747  35.004   8.217   1.736
 5323W        W77748  18.251  29.597   5.028
 5324W        W77749  26.163   8.230   4.712
 5325W        W77750  10.234  25.994  12.092
 5326W        W77751   5.933  30.060   2.224
 5327W        W77752  26.905  29.008  12.795
 5328W        W77753  33.975  28.629  13.146
 5329W        W77754  41.555  41.256  11.002
 5330W        W77755  16.623  28.909  14.364
 5331W        W77756  32.506  21.821  11.212
 5332W        W77757  20.079  43.600  13.418
 5333W        W77758  37.455  35.551   4.248
 5334W        W77759  39.802   8.701   2.397
 5335W        W77760  34.943  27.922  12.966
 5336W        W77761  22.621  32.077  13.597
 5337W        W77762  33.763  44.323  11.529
 5338W        W77763  10.577  33.598  14.018
 5339W        W77764  43.431  34.954   0.530
 5340W        W77765  42.274  17.233  10.648
 5341W        W77766  21.304  31.252   3.820
 5342W        W77767   1.631  22.420   3.717
 5343W        W77768  21.594  24.495   1.727
 5344W        W77769  32.371   5.991  10.616
 5345W        W77770  28.976   4.401  13.392
 5346W        W77771  20.750  38.501  14.036
 5347W        W77772  16.184  30.702   1.713
 5348W        W77773   3.822  26.444  12.094
 5349W        W77774  40.472  26.379   2.059
 5350W        W77775  30.890  32.842   1.298
 5351W        W77776  23.748  18.425   0.366
 5352W        W77777  14.997  31.065   4.859
 5353W        W77778  13.280  22.669   3.171
 5354W        W77779  30.687  14.126   4.569
 5355W        W77780  33.271  33.009   4.006
 5356W        W77781  32.977  16.271  11.984
 5357W        W77782   4.781   1.306   4.035
 5358W        W77783   7.146  14.350   2.827
 5359W        W77784   7.417  30.702   2.696
 5360W        W77785  29.007  36.079   0.104
 5361W        W77786   2.681  37.299  14.256
 5362W        W77787  20.862  28.385   0.059
 5363W        W77788   1.740  33.622   1.901
 5364W        W77789  25.761  27.942  14.755
 5365W        W77790  19.646   7.532  12.020
 5366W        W77791   5.033  37.381   1.337
 5367W        W77792  41.808  19.794  11.435
 5368W        W77793  37.610  22.328  10.991
 5369W        W77794  32.170  44.853  13.325
 5370W        W77795  44.776  20.609  11.583
 5371W        W77796   7.637  21.521   0.509
 5372W        W77797  22.144  16.776   0.846
 5373W        W77798  38.318  23.563   1.982
 5374W        W77799  42.310  21.522  11.780
 5375W        W77800  33.878  38.953  13.069
 5376W        W77801   5.927  32.207  13.420
 5377W        W77802   5.378  26.403  13.531
 5378W        W77803   3.924   7.245  14.745
 5379W        W77804   1.891  23.127  14.443
 5380W        W77805  10.347  28.917   3.744
 5381W        W77806  12.710  23.107  14.436
 5382W        W77807  26.348  40.127  13.414
 5383W        W77808  37.738  36.537   1.849
 5384W        W77809  16.743  26.654   4.557
 5385W        W77810   1.455  27.081   0.041
 5386W        W77811   3.299  38.934  10.726
 5387W        W77812   5.999  18.427  12.352
 5388W        W77813   1.904  37.082  14.893
 5389W        W77814  20.537  11.831   4.560
 5390W        W77815  42.200  19.301  11.914
 5391W        W77816  24.811  32.367  11.149
 5392W        W77817  10.855   4.213  13.845
 5393W        W77818   7.955  36.343   4.166
 5394W        W77819   7.399  25.184   2.089
 5395W        W77820  43.799  10.737   4.607
 5396W        W77821   3.939  16.539   0.462
 5397W        W77822  15.781   8.679   2.180
 5398W        W77823   3.309   6.728   4.140
 5399W        W77824  38.575   8.445  12.687
 5400W        W77825  30.753  11.263   3.145
 5401W        W77826  17.904  41.083  13.807
 5402W        W77827  38.780  23.587   0.869
 5403W        W77828  12.617  41.604  11.197
 5404W        W77829  23.558  44.976   4.319
 5405W        W77830  22.659  16.736  12.165
 5406W        W77831  10.213  24.139   1.734
 5407W        W77832   0.166   2.445  13.843
 5408W        W77833  44.852  17.584  14.988
 5409W        W77834  33.380  25.131  11.178
 5410W        W77835  16.491  28.089   1.923
 5411W        W77836   7.797  29.042  11.269
 5412W        W77837  22.192  14.501  14.380
 5413W        W77838   5.544  15.821  12.462
 5414W        W77839   7.383  19.755   4.888
 5415W        W77840  25.046  34.922   1.491
 5416W        W77841  13.327   5.259  11.852
 5417W        W77842  28.573  23.197  12.320
 5418W        W77843  20.213  24.694  12.475
 5419W        W77844  10.205  39.623   4.533
 5420W        W77845  13.853   7.134   0.832
 5421W        W77846  24.777   2.898  11.011
 5422W        W77847  16.401  11.550   4.639
 5423W        W77848  23.346  42.394   3.911
 5424W        W77849   6.642   0.750   2.604
 5425W        W77850  28.225  36.994  14.398
 5426W        W77851  11.373  28.439   1.123
 5427W        W77852  24.288  40.881   0.967
 5428W        W77853   8.710  40.968   2.775
 5429W        W77854  12.565  13.304   4.597
 5430W        W77855  15.223  37.897  13.238
 5431W        W77856  40.105   2.231  11.997
 5432W        W77857  22.798  16.241   2.631
 5433W        W77858   5.978  21.406  11.257
 5434W        W77859  35.609  14.749   4.919
 5435W        W77860  21.116  17.317  11.959
 5436W        W77861  19.266  30.998  14.823
 5437W        W77862  25.149  18.995   3.174
 5438W        W77863  18.449  17.611  13.510
 5439W        W77864   0.971   5.135  12.750
 5440W        W77865  44.290  13.254  14.742
 5441W        W77866  42.491  10.334   0.742
 5442W        W77867  16.851  27.077   2.203
 5443W        W77868  13.934  40.020  12.687
 5444W        W77869  41.899  35.069   1.249
 5445W        W77870   0.789  25.013   0.807
 5446W        W77871  16.871  38.787   4.308
 5447W        W77872  42.063  20.559  12.541
 5448W        W77873   9.904  41.806   2.721
 5449W        W77874   3.903  29.169  11.937
 5450W        W77875  15.319   4.191  10.719
 5451W        W77876   6.831  14.358  13.393
 5452W        W77877  38.913  30.932   2.391
 5453W        W77878  17.685  25.444  14.861
 5454W        W77879   2.225  29.728   3.173
 5455W        W77880  12.102  15.299   0.646
 5456W        W77881   9.070  40.871  12.039
 5457W        W77882  44.982  44.778   3.735
 5458W        W77883  36.149  30.685  11.103
 5459W        W77884  16.292  40.807   4.688
 5460W        W77885   4.812  24.948   0.347
 5461W        W77886  34.634  42.321   4.807
 5462W        W77887  26.435   6.965   1.795
 5463W        W77888  15.797  15.073  13.344
 5464W        W77889  18.645  42.424   0.758
 5465W        W77890   4.907  22.265  11.489
 5466W        W77891  11.376  29.182  11.008
 5467W        W77892  17.728  12.825   0.906
 5468W        W77893  25.019   9.692   9.866
 5469W        W77894  18.917  17.798   2.849
 5470W        W77895  44.798   5.932   1.501
 5471W        W77896  24.639  31.038   3.627
 5472W        W77897  36.097  20.679   0.952
 5473W        W77898   6.020  16.435  13.794
 5474W        W77899  14.203   5.596  12.628
 5475W        W77900   7.749  33.854   2.429
 5476W        W77901   7.999  27.095   1.456
 5477W        W77902  31.004   0.993   2.687
 5478W        W77903   2.006  30.012  11.468
 5479W        W77904  43.862  15.141  14.904
 5480W        W77905   4.222  19.179   2.227
 5481W        W77906  43.749  14.914  11.288
 5482W        W77907  16.166  41.193   3.909
 5483W        W77908  32.586  19.093  12.014
 5484W        W77909  15.317  19.373   1.897
 5485W        W77910   6.804  17.009   0.219
 5486W        W77911  32.127  17.614  14.350
 5487W        W77912  39.351  12.851  12.059
 5488W        W77913   5.237  34.657  14.388
 5489W        W77914   4.989  18.053   0.799
 5490W        W77915  16.663  22.722  12.091
 5491W        W77916  24.200  28.970   4.540
 5492W        W77917  26.696   5.293   1.796
 5493W        W77918   9.831  22.603  11.944
 5494W        W77919  18.290  20.502  13.404
 5495W        W77920  14.020  13.574  12.131
 5496W        W77921  43.927   3.652   2.634
 5497W        W77922  22.780  44.492   4.168
 5498W        W77923  27.484  21.158   3.161
 5499W        W77924  27.166  34.070   1.621
 5500W        W77925  35.943  20.302   2.316
 5501W        W77926  34.954  31.347   3.720
 5502W        W77927  21.505   1.910   1.380
 5503W        W77928   4.864  30.976  14.955
 5504W        W77929  41.642  14.981  13.779
 5505W        W77930  41.701  30.640   0.669
 5506W        W77931   4.764  23.824   3.100
 5507W        W77932  37.286   6.153  10.643
 5508W        W77933  15.871  37.580  13.503
 5509W        W77934   7.629  37.330   1.879
 5510W        W77935  37.126  44.066   4.903
 5511W        W77936  40.860  39.261  10.659
 5512W        W77937  20.568  36.310  13.959
 5513W        W77938   8.322  18.737  14.613
 5514W        W77939  39.151  33.914  11.660
 5515W        W77940   8.959  28.480  12.533
 5516W        W77941  32.975  28.908   0.396
 5517W        W77942  28.005   1.218   2.892
 5518W        W77943  14.565  16.803  12.675
 5519W        W77944  15.638   6.804   1.641
 5520W        W77945  24.025   4.190   3.763
 5521W        W77946  26.166  42.530   3.369
 5522W        W77947  20.264   5.390  14.869
 5523W        W77948  37.876  20.270   0.973
 5524W        W77949   0.715  37.055   9.854
 5525W        W77950  12.621   9.884   4.114
 5526W        W77951  13.158  18.219  11.652
 5527W        W77952  39.777  24.483   3.595
 5528W        W77953  10.257  31.094   4.843
 5529W        W77954  39.870  39.610  11.428
 5530W        W77955  25.526  24.908   2.254
 5531W        W77956  25.096  16.903  12.930
 5532W        W77957  44.876   5.971   0.518
 5533W        W77958   4.139  27.241   3.047
 5534W        W77959   4.616  18.519   5.231
 5535W        W77960  39.744  27.657   4.117
 5536W        W77961   3.891  25.550  13.098
 5537W        W77962  35.841  44.930   2.192
 5538W        W77963   2.174   5.540  13.714
 5539W        W77964   7.266  12.526   4.227
 5540W        W77965  25.624  31.874   3.410
 5541W        W77966  34.535  10.554   5.150
 5542W        W77967  31.528  27.432   1.289
 5543W        W77968  42.060  10.905  11.591
 5544W        W77969  44.785  18.687  12.470
 5545W        W77970  33.927   2.751   3.594
 5546W        W77971  43.040  33.106   4.558
 5547W        W77972  21.468  21.599   3.664
 5548W        W77973  28.585  43.528   0.492
 5549W        W77974  15.400   3.517  12.612
 5550W        W77975  27.542  35.377  10.699
 5551W        W77976  39.625   2.424   1.140
 5552W        W77977  12.762   8.123  12.908
 5553W        W77978   8.674   5.292  12.881
 5554W        W77979   5.952  18.098  10.500
 5555W        W77980  27.062   0.003   2.304
 5556W        W77981  13.279  24.681  13.825
 5557W        W77982  21.741  37.482  12.970
 5558W        W77983   0.953  29.642   0.686
 5559W        W77984  31.412  44.293   0.338
 5560W        W77985  22.451  24.645   1.900
 5561W        W77986  10.596   6.729  13.335
 5562W        W77987   1.197   3.803   2.296
 5563W        W77988   2.903  18.503  11.537
 5564W        W77989   8.334  12.437   3.588
 5565W        W77990  18.050   2.691  10.170
 5566W        W77991  14.888  36.393   2.551
 5567W        W77992  20.041  17.838   0.374
 5568W        W77993  38.345  30.381   0.000
 5569W        W77994  29.186  42.776   0.876
 5570W        W77995  41.843   8.010   3.066
 5571W        W77996  19.098  44.573  11.694
 5572W        W77997   6.130   5.978   3.328
 5573W        W77998  42.640  16.495  14.812
 5574W        W77999  31.054  22.703   0.426
 5575W        W78000  30.631   4.066  13.808
 5576W        W78001  13.135  41.881  13.102
 5577W        W78002  40.424  12.419  14.520
 5578W        W78003  16.104  31.155   0.788
 5579W        W78004   0.274  18.295   3.261
 5580W        W78005  20.665  14.893  11.007
 5581W        W78006  30.959   9.908   3.334
 5582W        W78007  20.857  11.290  10.454
 5583W        W78008  31.634  21.680  10.717
 5584W        W78009   2.068  13.367   1.954
 5585W        W78010  28.571  24.081  10.799
 5586W        W78011  29.564   4.643   1.672
 5587W        W78012  10.887  16.200   3.199
 5588W        W78013   8.144   7.368   0.415
 5589W        W78014  13.682  40.351  13.884
 5590W        W78015  12.123  44.770   3.763
 5591W        W78016   1.992  10.663   3.133
 5592W        W78017  19.230  37.372   1.885
 5593W        W78018  23.617  37.045  13.413
 5594W        W78019   0.908  22.614   0.171
 5595W        W78020  38.394  22.065  10.597
 5596W        W78021  36.423  29.966   1.432
 5597W        W78022  19.291   1.486   1.926
 5598W        W78023   7.777  28.698   1.919
 5599W        W78024  39.591  40.858   4.882
 5600W        W78025   9.695  36.737   5.529
 5601W        W78026  28.518  35.901   4.233
 5602W        W78027  16.111  16.232  11.180
 5603W        W78028  27.194  24.577  11.708
 5604W        W78029  21.490  10.778   1.683
 5605W        W78030  39.185   1.871  12.227
 5606W        W78031  19.548  19.415   1.180
 5607W        W78032   5.156  29.021  11.242
 5608W        W78033  22.707   2.199   1.695
 5609W        W78034  36.988  22.494   3.790
 5610W        W78035  41.883  34.788  12.084
 5611W        W78036  33.586  34.472  13.580
 5612W        W78037   0.084  25.786  13.993
 5613W        W78038  32.973  27.614  14.769
 5614W        W78039  19.072  40.491  14.940
 5615W        W78040  13.337  42.951   3.064
 5616W        W78041  31.501  18.034  12.090
 5617W        W78042  25.043  31.154   1.399
 5618W        W78043  27.921  19.717   3.323
 5619W        W78044  32.403  34.994   2.709
 5620W        W78045  34.559  20.551  14.851
 5621W        W78046  24.274  33.575  10.645
 5622W        W78047  25.497  15.603  13.080
 5623W        W78048  37.077   1.371  11.546
 5624W        W78049   9.113   8.086  10.772
 5625W        W78050   1.894  41.825   2.345
 5626W        W78051  23.869  22.747  10.621
 5627W        W78052   3.271   2.887  11.906
 5628W        W78053  44.768  44.380   4.241
 5629W        W78054  21.974  42.935  14.328
 5630W        W78055  16.549  13.807   1.086
 5631W        W78056  29.862  17.616   5.181
 5632W        W78057  40.503  34.071   4.848
 5633W        W78058  10.183   8.840   2.408
 5634W        W78059  35.627  28.614   4.615
 5635W        W78060  13.677  34.354   1.031
 5636W        W78061  22.880  37.037   4.481
 5637W        W78062  34.300  29.662   0.860
 5638W        W78063  33.075  37.487   0.265
 5639W        W78064   4.917   1.230   2.075
 5640W        W78065  37.368  29.874  13.798
 5641W        W78066  11.117  25.769   3.288
 5642W        W78067  36.825   1.458   2.253
 5643W        W78068  23.093  35.181   2.775
 5644W        W78069  19.001  20.494   2.263
 5645W        W78070  15.288  17.474   2.244
 5646W        W78071  22.278  19.560  10.444
 5647W        W78072  35.441   6.730   1.481
 5648W        W78073  23.649  20.679  12.825
 5649W        W78074  43.079  27.620  12.472
 5650W        W78075  21.670   7.848  11.098
 5651W        W78076   6.361   6.862  14.426
 5652W        W78077   3.812  11.976   2.284
 5653W        W78078  35.525  33.592  11.966
 5654W        W78079  34.634  30.951  11.582
 5655W        W78080  32.603   7.044   2.617
 5656W        W78081  30.847  43.440   1.395
 5657W        W78082  18.151  17.562  14.944
 5658W        W78083   1.171  25.119   4.699
 5659W        W78084  16.743  40.070   0.717
 5660W        W78085  18.489  19.667   2.350
 5661W        W78086  36.080  40.256  14.495
 5662W        W78087  30.156  32.120   4.147
 5663W        W78088   2.447  27.993   3.721
 5664W        W78089  17.169  35.384  11.855
 5665W        W78090  36.567  20.745   2.892
 5666W        W78091  30.840   2.558   1.101
 5667W        W78092  22.781  32.701  10.735
 5668W        W78093  30.660  20.762  13.964
 5669W        W78094  16.023   6.861  10.783
 5670W        W78095  28.693  23.676   2.874
 5671W        W78096   6.466  14.458   2.379
 5672W        W78097   7.099  31.049  12.969
 5673W        W78098  43.226  30.127   3.378
 5674W        W78099  41.355  21.567   1.525
 5675W        W78100  12.332  21.469  14.831
 5676W        W78101  20.502  40.831  11.162
 5677W        W78102  38.961  31.067  10.824
 5678W        W78103  10.269  12.094  12.006
 5679W        W78104   3.520  31.538   3.354
 5680W        W78105  32.913   3.762   0.967
 5681W        W78106  38.894  32.588  11.371
 5682W        W78107  36.917  32.389  12.821
 5683W        W78108  25.055   9.455   0.994
 5684W        W78109  16.556  16.564  11.105
 5685W        W78110  28.561   6.188  10.540
 5686W        W78111  31.918  33.371   2.632
 5687W        W78112  26.412   0.754   2.479
 5688W        W78113  24.724  44.369   1.373
 5689W        W78114  15.149  27.978   1.883
 5690W        W78115   3.444  27.636   1.134
 5691W        W78116  43.486  38.456  12.080
 5692W        W78117  15.284   5.093  12.025
 5693W        W78118  12.297  44.386   2.596
 5694W        W78119  41.982  32.030   1.715
 5695W        W78120  35.111  14.797   3.565
 5696W        W78121  24.439  29.903   4.308
 5697W        W78122  34.843  25.017  14.522
 5698W        W78123  11.181  30.961   2.758
 5699W        W78124   5.173   4.407   3.266
 5700W        W78125  23.450  39.492  11.111
 5701W        W78126  26.708   5.958  14.979
 5702W        W78127  43.478   1.474   4.389
 5703W        W78128   6.833  18.410   1.177
 5704W        W78129  22.063   2.303   4.902
 5705W        W78130  28.125  35.345  14.819
 5706W        W78131  26.379  11.682   4.651
 5707W        W78132   4.805   3.717   3.700
 5708W        W78133   1.925   6.720  14.454
 5709W        W78134  33.005  16.812   4.626
 5710W        W78135  12.728   0.433   2.272
 5711W        W78136  28.183   4.435   4.746
 5712W        W78137  20.246   6.320  12.458
 5713W        W78138  22.374  16.422  12.945
 5714W        W78139  38.310  30.754  12.492
 5715W        W78140  11.934  31.059  11.947
 5716W        W78141  26.126  40.495   2.242
 5717W        W78142   3.740  27.615   4.714
 5718W        W78143  34.011  25.933   4.474
 5719W        W78144  17.287  41.560  14.298
 5720W        W78145   9.769   3.159   0.325
 5721W        W78146  42.264   5.404   3.438
 5722W        W78147  35.294  34.632   2.306
 5723W        W78148   9.285  32.388   3.983
 5724W        W78149  19.100  31.896   0.883
 5725W        W78150   2.945  14.141  11.933
 5726W        W78151   4.484  26.565  13.056
 5727W        W78152   7.249   6.462   0.792
 5728W        W78153  36.059  43.528  10.617
 5729W        W78154  39.984  36.052   1.698
 5730W        W78155  21.125  15.051  10.737
 5731W        W78156  22.787  12.255   2.201
 5732W        W78157  16.357  39.339  11.601
 5733W        W78158  15.801  40.220  14.300
 5734W        W78159  19.576  39.429  13.391
 5735W        W78160  44.982  17.129  10.426
 5736W        W78161  22.289  26.129   1.904
 5737W        W78162   5.313  19.681   2.384
 5738W        W78163  29.533  44.333  14.086
 5739W        W78164  43.620  25.913  11.930
 5740W        W78165  16.122  11.084   4.764
 5741W        W78166  17.312  43.365   0.253
 5742W        W78167   3.865  25.710   1.654
 5743W        W78168  15.874  15.118  11.031
 5744W        W78169  19.044  17.970   3.718
 5745W        W78170  36.066  29.654  13.080
 5746W        W78171  24.587  17.280   3.615
 5747W        W78172  38.109  20.851  14.288
 5748W        W78173  32.024  20.261   0.983
 5749W        W78174  39.458  34.643  14.467
 5750W        W78175  41.494  43.535   5.146
 5751W        W78176  22.116  39.382  14.270
 5752W        W78177  25.312  13.291   0.705
 5753W        W78178   8.461   8.160   0.762
 5754W        W78179  43.255  25.599  13.401
 5755W        W78180   1.492   3.706  14.093
 5756W        W78181   5.704  41.505  10.525
 5757W        W78182   5.668  16.607  13.384
 5758W        W78183  35.009   3.996   1.281
 5759W        W78184  38.006  30.885   1.787
 5760W        W78185  17.815   0.971   2.714
 5761W        W78186  30.642  33.268   2.302
 5762W        W78187  22.323   6.659   4.559
 5763W        W78188   8.788  40.278  12.161
 5764W        W78189  16.844  35.136  13.517
 5765W        W78190  39.304  33.856  14.910
 5766W        W78191  27.677  40.239   3.230
 5767W        W78192  20.038  40.281  11.590
 5768W        W78193   5.841  10.766  12.914
 5769W        W78194  28.617   2.389  13.916
 5770W        W78195  22.119  27.199  14.258
 5771W        W78196  23.578  19.180  14.594
 5772W        W78197  11.357  21.504  14.914
 5773W        W78198  11.793   3.883   2.414
 5774W        W78199  28.126  44.447   3.742
 5775W        W78200  18.278  31.593   0.742
 5776W        W78201  18.475   2.861   4.830
 5777W        W78202  20.117  33.433  13.976
 5778W        W78203  25.038  24.483  14.770
 5779W        W78204  36.445  14.398  12.468
 5780W        W78205  37.999  23.925   2.822
 5781W        W78206  28.838  18.806   3.274
 5782W        W78207  40.976  13.732   4.591
 5783W        W78208  42.500   0.938   1.304
 5784W        W78209  44.306  25.722  12.591
 5785W        W78210   3.880  21.272   2.927
 5786W        W78211  38.001  43.224   2.183
 5787W        W78212  22.764  40.600  14.183
 5788W        W78213  11.975   6.213   2.690
 5789W        W78214  24.558   1.521   0.960
 5790W        W78215  38.353  16.757  14.390
 5791W        W78216  42.763  13.753  14.097
 5792W        W78217  42.796  22.602  12.449
 5793W        W78218  18.320   2.140  11.390
 5794W        W78219  23.475  10.043  12.796
 5795W        W78220  19.204  44.543  12.574
 5796W        W78221  29.289  41.309  13.315
 5797W        W78222  25.115  19.520   3.147
 5798W        W78223   8.861  13.118  12.294
 5799W        W78224  25.211  26.907  12.075
 5800W        W78225  24.307  21.428  13.075
 5801W        W78226  26.531  19.529   4.914
 5802W        W78227   1.765  30.793   4.691
 5803W        W78228   3.905  32.820   4.250
 5804W        W78229  23.176  17.973  14.515
 5805W        W78230  38.070  37.134  10.705
 5806W        W78231  13.732  41.940   4.710
 5807W        W78232  13.356  25.974  10.689
 5808W        W78233  41.555  15.371  12.925
 5809W        W78234  41.151  35.730  11.346
 5810W        W78235  24.411  43.539  14.288
 5811W        W78236  35.556  31.847   3.306
 5812W        W78237   2.020  21.896  13.962
 5813W        W78238  37.918  18.025  11.597
 5814W        W78239  28.430   9.761   2.810
 5815W        W78240  18.342  23.818  14.411
 5816W        W78241  38.319   0.755  12.670
 5817W        W78242  21.764  39.549  12.388
 5818W        W78243  31.444   4.403  12.381
 5819W        W78244  32.097  44.724  11.078
 5820W        W78245  25.995  33.531   3.613
 5821W        W78246  37.115  30.866   0.354
 5822W        W78247  20.781   4.522  11.933
 5823W        W78248  33.413  31.994   3.275
 5824W        W78249  44.497   7.229   0.905
 5825W        W78250  14.367  38.138  11.172
 5826W        W78251  38.945  36.307  14.440
 5827W        W78252  29.469  12.371   0.414
 5828W        W78253  44.358  31.885   0.359
 5829W        W78254  20.571  28.440  14.587
 5830W        W78255  11.413   2.214   2.727
 5831W        W78256   1.745   4.029   0.174
 5832W        W78257  38.709   2.802  11.380
 5833W        W78258  29.551  16.883  14.028
 5834W        W78259  25.734   1.177  11.570
 5835W        W78260  43.941  29.515   3.430
 5836W        W78261  12.672  35.568   0.908
 5837W        W78262   7.311  37.877  14.893
 5838W        W78263  32.395  13.489  14.943
 5839W        W78264   3.470  16.092  12.489
 5840W        W78265  22.258  36.738  11.087
 5841W        W78266  10.293  12.512  12.910
 5842W        W78267  15.981  28.854  11.482
 5843W        W78268  36.221  17.175  12.941
 5844W        W78269   7.429  22.031  10.460
 5845W        W78270  34.415  27.386   2.957
 5846W        W78271  29.480  26.620   5.060
 5847W        W78272  17.471   6.758  13.499
 5848W        W78273  18.357   7.753  11.157
 5849W        W78274  18.734   9.416  13.418
 5850W        W78275   8.368  43.745  12.480
 5851W        W78276  36.384   3.551  11.616
 5852W        W78277  30.840  20.962   0.790
 5853W        W78278  17.320  29.181   2.433
 5854W        W78279   9.697  17.765   1.441
 5855W        W78280  40.980  35.813  12.201
 5856W        W78281  11.310  28.928  10.572
 5857W        W78282   7.416  25.298   1.584
 5858W        W78283  15.255  28.083  13.324
 5859W        W78284   3.599  20.196   0.404
 5860W        W78285  26.882  40.087   2.842
 5861W        W78286  22.320  32.907  11.974
 5862W        W78287  32.035  35.120   3.259
 5863W        W78288  44.364  44.619  14.389
 5864W        W78289  33.066   2.390  12.149
 5865W        W78290  23.235   6.544  13.538
 5866W        W78291  35.639  30.742   1.233
 5867W        W78292  43.817   3.025   4.283
 5868W        W78293  15.706  30.512   0.071
 5869W        W78294  34.322  41.939  14.796
 5870W        W78295   3.805   1.265  13.994
 5871W        W78296  28.110  23.154   1.298
 5872W        W78297   9.579  13.746   0.761
 5873W        W78298   4.954  22.487  13.392
 5874W        W78299  41.292  33.090  12.104
 5875W        W78300   1.877   5.017  13.407
 5876W        W78301   9.557  15.180  13.054
 5877W        W78302  17.677  14.292  13.915
 5878W        W78303   0.852  25.765   3.666
 5879W        W78304  43.411  25.001   1.885
 5880W        W78305   8.122  35.355   0.306
 5881W        W78306   0.311  38.613  10.727
 5882W        W78307  28.875  25.694  10.838
 5883W        W78308  29.896   6.909   2.637
 5884W        W78309  23.171   8.783   9.679
 5885W        W78310  44.377  31.427   3.902
 5886W        W78311  15.768  36.565   4.649
 5887W        W78312   9.308  22.168   1.729
 5888W        W78313  11.688  14.609   3.329
 5889W        W78314   3.435   4.142  13.152
 5890W        W78315   7.850  33.357   3.780
 5891W        W78316   9.629  43.415   4.221
 5892W        W78317  15.212  27.571   2.810
 5893W        W78318  44.218   6.627   1.704
 5894W        W78319  28.582  22.569   1.731
 5895W        W78320  25.575  27.366  12.916
 5896W        W78321  11.017  35.559   3.731
 5897W        W78322  16.844  30.193  11.603
 5898W        W78323  19.978   7.707   0.936
 5899W        W78324  27.175  34.467   0.819
 5900W        W78325  16.486  18.121  14.012
 5901W        W78326   8.582  17.595   4.123
 5902W        W78327   7.881  12.232   2.804
 5903W        W78328  23.848  15.834   0.010
 5904W        W78329  13.140  35.098   1.600
 5905W        W78330  21.159   7.946  13.659
 5906W        W78331  39.092   4.770  10.624
 5907W        W78332  32.254  23.496   3.612
 5908W        W78333  14.755  37.619  13.407
 5909W        W78334  31.573   9.704   3.846
 5910W        W78335  44.280  32.405   4.078
 5911W        W78336  31.395  30.244  13.817
 5912W        W78337  42.016  26.006  14.873
 5913W        W78338  31.172  10.746   1.268
 5914W        W78339  33.583  34.905   0.126
 5915W        W78340  42.116  37.618   0.986
 5916W        W78341  25.792   5.616   2.711
 5917W        W78342  40.330  18.302   3.138
 5918W        W78343  33.160   8.907   2.169
 5919W        W78344  35.943   2.199   0.851
 5920W        W78345  20.315  14.524   1.752
 5921W        W78346  37.101  11.226  11.124
 5922W        W78347  27.634   9.939   2.134
 5923W        W78348   2.844  32.437   2.395
 5924W        W78349  39.741  36.446  10.725
 5925W        W78350  44.588   0.555  14.756
 5926W        W78351   1.581  17.290   4.264
 5927W        W78352   8.702   9.928  11.640
 5928W        W78353  38.404  42.891   4.550
 5929W        W78354  26.343  40.891  12.367
 5930W        W78355   3.358   4.003   3.614
 5931W        W78356  26.065  32.643  12.304
 5932W        W78357  24.176  39.012  11.161
 5933W        W78358  37.068  36.592  11.591
 5934W        W78359  16.597  14.643  12.112
 5935W        W78360  34.189  42.928   0.830
 5936W        W78361  33.463  17.162   1.928
 5937W        W78362  41.071   3.913   0.233
 5938W        W78363  40.412  20.113  13.382
 5939W        W78364   1.551  38.705   3.203
 5940W        W78365   1.923  10.727  10.831
 5941W        W78366   9.764   7.417   3.567
 5942W        W78367  17.219  44.722  11.038
 5943W        W78368   9.112   9.318   4.994
 5944W        W78369   9.831  20.818   2.229
 5945W        W78370   3.287  21.580   0.293
 5946W        W78371  16.371  13.645  14.913
 5947W        W78372  42.889   4.760  12.835
 5948W        W78373  25.488   2.914   1.722
 5949W        W78374  11.230  30.195   0.917
 5950W        W78375   7.754  17.411  12.430
 5951W        W78376  28.792  21.739   1.278
 5952W        W78377  34.585  35.513   2.752
 5953W        W78378   5.789   5.854   3.717
 5954W        W78379  26.464  44.270  14.865
 5955W        W78380  40.287  24.435   1.069
 5956W        W78381  31.574  37.542   4.060
 5957W        W78382  25.032   5.390  14.307
 5958W        W78383  22.740  10.964   2.295
 5959W        W78384  12.343  15.185   3.144
 5960W        W78385  13.099   7.129  12.648
 5961W        W78386  26.800   5.613  13.397
 5962W        W78387  23.672  44.699   2.897
 5963W        W78388  22.493   8.412  13.436
 5964W        W78389  44.902  16.151  12.495
 5965W        W78390  16.767  24.382   1.966
 5966W        W78391  42.755  24.242   4.227
 5967W        W78392   5.664  29.615  12.527
 5968W        W78393   5.461  29.613  13.862
 5969W        W78394  34.047   2.679  13.519
 5970W        W78395  16.972  36.060  10.315
 5971W        W78396  13.792  31.779  10.495
 5972W        W78397   5.656  11.562   0.514
 5973W        W78398  43.892  10.755  12.369
 5974W        W78399  30.128   8.393   0.235
 5975W        W78400  39.839  36.065   0.434
 5976W        W78401  12.021  38.191  12.874
 5977W        W78402   8.795  24.077  13.273
 5978W        W78403  17.970  14.266  14.845
 5979W        W78404  11.897  27.770  12.829
 5980W        W78405  31.208  21.661   1.755
 5981W        W78406  42.784  22.694   0.336
 5982W        W78407  35.005   2.514  14.887
 5983W        W78408  43.132   5.550  11.123
 5984W        W78409  19.877  17.587  11.615
 5985W        W78410  43.548   1.092   4.038
 5986W        W78411   8.775  25.844   3.801
 5987W        W78412   2.871  13.635  10.768
 5988W        W78413  39.296  11.971   2.840
 5989W        W78414  13.142   5.194   3.212
 5990W        W78415  10.687  11.188  14.233
 5991W        W78416  27.524  43.503   2.756
 5992W        W78417  36.472  36.577   1.547
 5993W        W78418  15.304   1.852   2.953
 5994W        W78419  32.061  25.557  13.932
 5995W        W78420  40.505  21.850   3.800
 5996W        W78421  10.483  35.514   4.649
 5997W        W78422  12.080  42.846  10.737
 5998W        W78423   6.690  23.752   0.525
 5999W        W78424   3.509  43.393   1.845
 6000W        W78425  37.293  38.558   3.299
 6001W        W78426  20.287   4.411  12.978
 6002W        W78427  18.082  29.053   3.625
 6003W        W78428   7.203  14.015   3.764
 6004W        W78429  29.788  27.899   3.561
 6005W        W78430  43.560  21.199  11.854
 6006W        W78431  20.850  32.214   2.193
 6007W        W78432   2.848  25.911  11.417
 6008W        W78433  29.983  24.653   1.286
 6009W        W78434  22.575  30.036  13.299
 6010W        W78435  15.731  14.598  14.498
 6011W        W78436  40.921  27.726  12.323
 6012W        W78437   7.965  10.781   2.620
 6013W        W78438  21.526   6.916   3.140
 6014W        W78439  32.046  31.556   1.857
 6015W        W78440  37.534   2.883  12.626
 6016W        W78441  40.537  32.157  12.457
 6017W        W78442   8.733  40.250   2.176
 6018W        W78443   9.482   5.334   2.679
 6019W        W78444  10.412  39.847   4.097
 6020W        W78445  41.473   5.288  13.330
 6021W        W78446  28.166  29.533  12.966
 6022W        W78447  12.924  18.333   0.397
 6023W        W78448  15.233  34.548   4.268
 6024W        W78449   3.180   3.661   2.230
 6025W        W78450  22.178   1.217   1.303
 6026W        W78451  13.764   6.437   1.303
 6027W        W78452  20.950  39.682   2.137
 6028W        W78453   5.970  30.674   0.521
 6029W        W78454  32.008  12.867  12.866
 6030W        W78455  39.546  25.120  14.545
 6031W        W78456  23.663  12.178  12.839
 6032W        W78457  24.145  20.546  11.958
 6033W        W78458  36.545   2.859   4.250
 6034W        W78459  22.550   8.463  10.184
 6035W        W78460  27.274  26.078   2.708
 6036W        W78461   3.707   3.178   1.453
 6037W        W78462  36.408  25.239   3.750
 6038W        W78463  42.884  25.633   2.766
 6039W        W78464  29.940  23.002   1.743
 6040W        W78465  36.627   8.088  14.404
 6041W        W78466  32.089   0.498   3.279
 6042W        W78467   3.109  38.347  12.361
 6043W        W78468  19.714   8.138   0.839
 6044W        W78469  13.213  26.210  14.505
 6045W        W78470  19.698  40.527   5.093
 6046W        W78471   4.250  36.847   1.371
 6047W        W78472   2.130   4.502  11.031
 6048W        W78473   8.926  33.578  12.930
 6049W        W78474  23.154   2.437  12.111
 6050W        W78475  33.313   0.540  13.504
 6051W        W78476   5.506  37.545  10.505
 6052W        W78477   3.757   9.244  12.973
 6053W        W78478  32.808  40.642  11.044
 6054W        W78479  40.079  28.955  11.552
 6055W        W78480  28.259  15.497  12.677
 6056W        W78481   3.287  30.952  10.536
 6057W        W78482  24.040  11.320   0.501
 6058W        W78483  28.370  44.015  13.781
 6059W        W78484  32.562   7.772  14.497
 6060W        W78485  16.495  42.216   3.033
 6061W        W78486  25.187  18.753   3.679
 6062W        W78487  26.748  13.236   1.314
 6063W        W78488  35.644  12.898   2.643
 6064W        W78489   2.869  20.291   3.837
 6065W        W78490  37.612  38.060  13.134
 6066W        W78491  24.982  22.726  11.920
 6067W        W78492  34.829  28.938  14.322
 6068W        W78493  31.666   1.893   1.826
 6069W        W78494  31.088   9.155  11.964
 6070W        W78495   3.794  18.311   1.312
 6071W        W78496  33.490  42.871   1.284
 6072W        W78497  24.250  27.406   4.442
 6073W        W78498  44.319   4.390   2.908
 6074W        W78499  44.036  32.374   3.582
 6075W        W78500   8.950  40.324   4.055
 6076W        W78501  39.294  20.728   2.214
 6077W        W78502   3.950  42.592  14.849
 6078W        W78503  41.755  42.544  10.441
 6079W        W78504  39.566  22.039  13.446
 6080W        W78505  41.946  10.250  14.360
 6081W        W78506   0.986   6.868  10.796
 6082W        W78507  44.445   9.775  14.556
 6083W        W78508  22.322  18.609   4.561
 6084W        W78509  14.774  11.744  14.463
 6085W        W78510  43.791   9.631   2.691
 6086W        W78511  32.638   4.257   4.493
 6087W        W78512  14.389  26.933  13.103
 6088W        W78513   9.215   7.909  13.875
 6089W        W78514  19.746  20.825  14.447
 6090W        W78515  24.457  29.947   4.830
 6091W        W78516  38.591  19.751   3.358
 6092W        W78517  22.993   4.603  11.487
 6093W        W78518  22.039  12.435  13.967
 6094W        W78519  25.274  15.645  11.675
 6095W        W78520   6.292  17.595  14.930
 6096W        W78521  36.881  12.700   4.261
 6097W        W78522  40.313  21.559   1.926
 6098W        W78523  24.960   1.424  13.962
 6099W        W78524  14.048   5.493  13.774
 6100W        W78525   7.136  41.249   2.289
 6101W        W78526  15.936   1.419   1.876
 6102W        W78527  42.834  29.397  13.563
 6103W        W78528   9.129   3.700  14.190
 6104W        W78529  22.808  42.314  14.501
 6105W        W78530  41.670  35.343  14.102
 6106W        W78531   1.785  12.715   2.420
 6107W        W78532   1.979  34.608   1.814
 6108W        W78533  43.118  10.102  14.917
 6109W        W78534  41.473   9.434   0.499
 6110W        W78535  14.848   8.543   1.795
 6111W        W78536  32.696   5.394   0.455
 6112W        W78537   0.455  15.641  10.218
 6113W        W78538  20.644  21.305   1.280
 6114W        W78539  33.079  41.342  14.674
 6115W        W78540  19.098  34.981  12.862
 6116W        W78541   9.841  28.123  11.128
 6117W        W78542  43.725   1.813   2.341
 6118W        W78543  10.003  17.014  13.425
 6119W        W78544  22.564   9.686  11.947
 6120W        W78545  33.617  36.905  11.540
 6121W        W78546   3.880  31.508  10.701
 6122W        W78547   9.210  11.340   0.869
 6123W        W78548   0.690   9.348  14.982
 6124W        W78549  41.441  30.340  14.378
 6125W        W78550  15.650  11.245  11.415
 6126W        W78551  21.431  34.049  11.110
 6127W        W78552   8.819  11.694   0.750
 6128W        W78553  16.055   1.248  14.834
 6129W        W78554  31.912   8.242  10.594
 6130W        W78555   7.793  44.645   4.067
 6131W        W78556  13.810   4.145   4.141
 6132W        W78557   2.698  37.779  14.068
 6133W        W78558  32.462  17.069  11.599
 6134W        W78559  12.214  15.751  10.583
 6135W        W78560  22.679  38.345   4.023
 6136W        W78561  26.137  20.617  11.159
 6137W        W78562  35.077  37.941   1.558
 6138W        W78563  37.624  31.007  11.369
 6139W        W78564  37.463  27.453   1.212
 6140W        W78565  36.838  44.919   0.294
 6141W        W78566  25.272  36.090   3.161
 6142W        W78567  44.864   4.021  11.436
 6143W        W78568   1.974  28.687  12.450
 6144W        W78569   3.851  11.087  12.012
 6145W        W78570   6.367  34.766  10.296
 6146W        W78571   2.440  43.799   1.282
 6147W        W78572  40.749  26.511  14.878
 6148W        W78573  21.697  11.880  11.218
 6149W        W78574  14.651  40.978   2.469
 6150W        W78575  27.120  18.553  12.779
 6151W        W78576   6.843  23.553   3.176
 6152W        W78577  41.993  10.396  11.606
 6153W        W78578   1.996   0.444  10.635
 6154W        W78579  14.140  22.049   5.058
 6155W        W78580  41.565  15.266  14.804
 6156W        W78581   4.942  43.930  14.496
 6157W        W78582   9.457   1.923   0.693
 6158W        W78583  43.105  37.298  12.483
 6159W        W78584  30.290  33.984  11.956
 6160W        W78585  24.119  15.748   3.786
 6161W        W78586  24.069  32.069  13.897
 6162W        W78587   2.494   8.151  13.899
 6163W        W78588  28.725  25.580  13.069
 6164W        W78589  29.206   5.865   2.033
 6165W        W78590   4.767  32.168  11.189
 6166W        W78591  37.792  30.153   2.704
 6167W        W78592  34.716  42.846   2.676
 6168W        W78593  33.571  31.476   3.340
 6169W        W78594  13.717  36.894   0.747
 6170W        W78595  12.132  13.270  10.480
 6171W        W78596  44.931   4.458   0.513
 6172W        W78597  34.150   5.841  14.005
 6173W        W78598  41.258  13.358  13.289
 6174W        W78599  12.797  34.026   0.931
 6175W        W78600  22.165   3.361  12.323
 6176W        W78601  32.865  31.720  11.040
 6177W        W78602  16.663   6.390  12.410
 6178W        W78603  28.902  33.458  12.939
 6179W        W78604  17.758  21.626  12.939
 6180W        W78605  37.934  12.834  13.859
 6181W        W78606  27.823  18.279   3.397
 6182W        W78607  33.652  40.876  12.947
 6183W        W78608  31.891  20.753  11.206
 6184W        W78609  20.583  10.074   0.275
 6185W        W78610  43.228  36.243   1.376
 6186W        W78611  37.785  21.222  13.342
 6187W        W78612  24.138  44.472  12.961
 6188W        W78613   6.382  17.121  13.477
 6189W        W78614   6.669  27.772  14.960
 6190W        W78615  30.400  16.655   2.622
 6191W        W78616  28.185  36.233  12.024
 6192W        W78617  34.551  43.226  12.028
 6193W        W78618  40.571  44.201  12.099
 6194W        W78619  21.094   5.001  12.801
 6195W        W78620   1.160   2.734   2.703
 6196W        W78621  21.898  29.588   2.959
 6197W        W78622  36.387  35.960  12.041
 6198W        W78623  37.960  26.503   4.631
 6199W        W78624   7.607  24.040   4.612
 6200W        W78625  17.608  11.739   3.358
 6201W        W78626  17.379   9.875  11.184
 6202W        W78627  41.971  25.803   0.367
 6203W        W78628  13.806  25.709  10.533
 6204W        W78629   1.868  37.522  13.588
 6205W        W78630  12.738  29.011   3.678
 6206W        W78631  23.072  23.000  12.697
 6207W        W78632  38.340  43.456  11.000
 6208W        W78633  19.581  40.766   0.554
 6209W        W78634  34.114  22.349  11.759
 6210W        W78635   2.808  29.931  12.384
 6211W        W78636  42.801   6.240  12.193
 6212W        W78637  23.028  28.978   3.165
 6213W        W78638  43.524  22.937  11.454
 6214W        W78639  25.501  25.738   2.843
 6215W        W78640  15.580  44.864  14.812
 6216W        W78641  11.686  18.368   1.311
 6217W        W78642  18.445  22.538  11.200
 6218W        W78643  28.595   9.373   3.139
 6219W        W78644  34.546  38.168  13.911
 6220W        W78645  20.269  30.506   9.873
 6221W        W78646  36.473  22.472   1.958
 6222W        W78647  35.409  11.560   0.326
 6223W        W78648  36.127  44.016  12.242
 6224W        W78649   1.778   4.666  10.671
 6225W        W78650  34.592  34.201  12.386
 6226W        W78651  30.961   0.442  13.300
 6227W        W78652  13.987   4.895   4.973
 6228W        W78653  43.335   7.051  14.791
 6229W        W78654  35.030   5.477  12.456
 6230W        W78655  34.823  17.441  11.664
 6231W        W78656  41.780   3.926   2.744
 6232W        W78657   8.170  38.456   4.161
 6233W        W78658  31.507  32.895  11.600
 6234W        W78659   6.705  18.657  12.938
 6235W        W78660   7.696  32.160  13.101
 6236W        W78661  25.137  12.774  13.877
 6237W        W78662  12.123  17.528   0.393
 6238W        W78663  25.705  19.283   3.694
 6239W        W78664  22.789  29.097  10.348
 6240W        W78665  19.731  32.357   2.626
 6241W        W78666  40.979  11.789  12.337
 6242W        W78667   4.671  39.984   9.881
 6243W        W78668  34.457  10.393   3.320
 6244W        W78669   4.708   0.167  11.571
 6245W        W78670  41.921  44.843   2.273
 6246W        W78671  37.459  28.941   2.755
 6247W        W78672  27.162   7.168   1.463
 6248W        W78673  24.617  30.925   0.891
 6249W        W78674   3.829  30.229   2.046
 6250W        W78675  40.729  35.546  14.078
 6251W        W78676  14.848  44.000  13.342
 6252W        W78677   3.818  19.712  11.637
 6253W        W78678  11.176  44.179   0.422
 6254W        W78679  26.977  32.497   0.680
 6255W        W78680  27.098  43.395  13.639
 6256W        W78681   5.940  25.083   2.383
 6257W        W78682   5.905   9.896  12.383
 6258W        W78683  27.320  23.854   3.691
 6259W        W78684  25.352  41.402  10.616
 6260W        W78685  26.716  12.784  13.008
 6261W        W78686  38.884  11.864  13.022
 6262W        W78687  20.612   1.056  14.296
 6263W        W78688  23.130  31.666   3.738
 6264W        W78689  17.388  14.204   2.451
 6265W        W78690  24.440   2.967   3.260
 6266W        W78691  19.068   3.851  13.003
 6267W        W78692  20.015  18.079  10.759
 6268W        W78693  19.005  44.030   2.686
 6269W        W78694  36.456  24.855   9.776
 6270W        W78695  10.420  28.472   3.443
 6271W        W78696  19.325  19.126   4.001
 6272W        W78697  16.988   7.819  12.408
 6273W        W78698  16.138  26.614   3.504
 6274W        W78699   0.303   0.192   1.195
 6275W        W78700   7.859  43.932   3.263
 6276W        W78701  19.657   8.980   4.082
 6277W        W78702  16.645  20.535   0.806
 6278W        W78703  37.986  10.412  12.539
 6279W        W78704  11.085  12.084   0.503
 6280W        W78705  29.898   9.089   4.287
 6281W        W78706  42.974  42.914   3.400
 6282W        W78707  26.025  40.527   4.483
 6283W        W78708  17.000  13.175  13.285
 6284W        W78709  16.340  20.196  13.354
 6285W        W78710   8.334  44.813   3.202
 6286W        W78711  24.035  32.663   2.535
 6287W        W78712  11.603  29.463  13.543
 6288W        W78713  30.999  14.620   2.307
 6289W        W78714  27.227  22.538   3.300
 6290W        W78715   4.653   5.535   0.856
 6291W        W78716   6.697  25.625   3.116
 6292W        W78717  11.349  43.413   1.878
 6293W        W78718   7.303  19.682  11.409
 6294W        W78719  40.429  23.925   2.546
 6295W        W78720   9.276  31.011   4.017
 6296W        W78721   6.043   2.298  11.408
 6297W        W78722  10.217  26.466   4.328
 6298W        W78723   9.138   7.950  14.732
 6299W        W78724  31.068  22.008   0.954
 6300W        W78725  16.047  32.935  14.326
 6301W        W78726  32.549  14.142  11.588
 6302W        W78727  11.364   6.743   4.168
 6303W        W78728  42.232  15.017   1.555
 6304W        W78729  34.316  29.343   1.775
 6305W        W78730   3.232  44.032   0.402
 6306W        W78731  10.283  24.462  14.057
 6307W        W78732   3.250  27.135  12.593
 6308W        W78733  16.785  11.293  13.250
 6309W        W78734  35.293  17.620  11.735
 6310W        W78735   5.714   4.097   3.771
 6311W        W78736  13.213   2.908   4.456
 6312W        W78737  18.669  32.921  12.995
 6313W        W78738  20.167   2.873  14.947
 6314W        W78739  32.126  13.921   2.278
 6315W        W78740   1.851  44.033   3.735
 6316W        W78741  38.788   4.897   0.292
 6317W        W78742   4.157   5.771  14.314
 6318W        W78743  23.687  10.362  11.874
 6319W        W78744  16.310  31.891   3.395
 6320W        W78745  37.920  19.102  11.559
 6321W        W78746   1.439  15.670  14.354
 6322W        W78747  38.581  11.362   3.286
 6323W        W78748  14.259  40.392   4.081
 6324W        W78749  30.064   7.452   1.706
 6325W        W78750   3.542   0.576   1.376
 6326W        W78751  39.295  22.105   1.004
 6327W        W78752   9.326  44.906   4.158
 6328W        W78753  24.206  17.483  12.062
 6329W        W78754   0.722  38.165  13.179
 6330W        W78755  28.865  38.079  13.812
 6331W        W78756  14.292  32.391   1.916
 6332W        W78757  31.320  40.323  11.099
 6333W        W78758  42.299  37.555  12.929
 6334W        W78759   0.422  28.324   3.310
 6335W        W78760  27.103  12.196   4.600
 6336W        W78761  31.617   1.240   3.325
 6337W        W78762   2.138   3.843   3.151
 6338W        W78763  43.919   4.966  13.852
 6339W        W78764  34.780  33.548   4.098
 6340W        W78765  23.800  43.841   3.329
 6341W        W78766   9.791  24.020  11.635
 6342W        W78767   4.645  29.443  14.365
 6343W        W78768  44.013   4.457  13.942
 6344W        W78769  16.575   7.402  14.002
 6345W        W78770  22.795  30.212  12.872
 6346W        W78771   4.353  28.667   3.458
 6347W        W78772  25.631  18.589   2.503
 6348W        W78773  28.638  33.650  11.140
 6349W        W78774  23.891   0.826   4.613
 6350W        W78775  11.243   5.801   9.618
 6351W        W78776  28.194  19.368  14.027
 6352W        W78777  37.051  29.358   4.214
 6353W        W78778  17.468  10.987  11.104
 6354W        W78779  24.775  23.104  14.796
 6355W        W78780  29.050   9.579  13.633
 6356W        W78781  15.191  29.042  13.539
 6357W        W78782  43.868   2.447  14.720
 6358W        W78783  18.580   5.801   4.273
 6359W        W78784  43.707   8.267   1.479
 6360W        W78785  31.939   8.767  10.640
 6361W        W78786  14.532  37.862  10.580
 6362W        W78787   7.382   1.508   0.280
 6363W        W78788   2.854  21.546   2.193
 6364W        W78789   2.443  39.742  14.805
 6365W        W78790  15.270  33.662  11.552
 6366W        W78791  20.648  33.538  14.129
 6367W        W78792  20.308   7.264  13.582
 6368W        W78793  18.377   9.768  13.631
 6369W        W78794  38.377   3.563  14.341
 6370W        W78795  27.034  28.605   0.816
 6371W        W78796  25.758   3.358   3.180
 6372W        W78797  35.674  18.786   1.849
 6373W        W78798  24.284  15.751   2.305
 6374W        W78799  24.698  33.869   0.870
 6375W        W78800  42.312  34.631  11.866
 6376W        W78801  17.218  19.240   0.715
 6377W        W78802  22.100  16.607  13.342
 6378W        W78803  17.328  15.609   3.578
 6379W        W78804  17.873  32.054   2.360
 6380W        W78805  11.125  34.319  14.270
 6381W        W78806  18.025  33.841   3.408
 6382W        W78807  22.195  10.821   1.000
 6383W        W78808  41.266  36.504   3.376
 6384W        W78809  28.460   4.433  13.388
 6385W        W78810  29.600   6.772  14.300
 6386W        W78811  35.299  13.317   0.552
 6387W        W78812  33.523  42.075   0.648
 6388W        W78813  17.782  21.362   3.149
 6389W        W78814   4.914   7.803   3.284
 6390W        W78815  12.047  30.531  14.423
 6391W        W78816   1.215  43.813  13.717
 6392W        W78817  28.473  36.829  11.580
 6393W        W78818  13.288  10.853   0.700
 6394W        W78819  33.207  32.014  14.898
 6395W        W78820   0.491  38.811  11.863
 6396W        W78821   9.774  39.502   1.053
 6397W        W78822   3.613  17.735   0.826
 6398W        W78823  28.283  34.350   3.197
 6399W        W78824  40.344  13.785  12.000
 6400W        W78825  21.490   6.355   2.259
 6401W        W78826  32.896  19.406   0.480
 6402W        W78827   0.290   5.361   4.565
 6403W        W78828  38.436   4.398  10.648
 6404W        W78829  39.040  44.092   4.632
 6405W        W78830  42.498  30.519   0.261
 6406W        W78831  21.020   2.837  14.796
 6407W        W78832  41.327   9.321   1.411
 6408W        W78833  15.610  12.385  13.912
 6409W        W78834  35.443  23.573   0.493
 6410W        W78835  40.567   6.489   1.342
 6411W        W78836  42.474  12.120  12.113
 6412W        W78837  25.942  21.450  13.330
 6413W        W78838  40.614  37.306   0.915
 6414W        W78839   2.865  42.855  14.240
 6415W        W78840  30.560  44.510  13.872
 6416W        W78841  38.502  18.804  14.832
 6417W        W78842  41.976   3.307   4.024
 6418W        W78843   5.662  35.923   0.700
 6419W        W78844  18.049  27.074  14.383
 6420W        W78845  40.448  14.460   2.615
 6421W        W78846  17.281   4.721   3.417
 6422W        W78847  31.806  12.871   0.328
 6423W        W78848   6.629  12.402   1.896
 6424W        W78849  44.495  24.744   2.545
 6425W        W78850   1.695  41.969   3.672
 6426W        W78851   5.704   7.223   4.435
 6427W        W78852   7.608  34.594   2.310
 6428W        W78853  38.482  28.679   4.930
 6429W        W78854  44.445  15.738   0.339
 6430W        W78855   5.543  22.023   3.339
 6431W        W78856  12.526  18.207   4.525
 6432W        W78857  39.776  43.507   0.841
 6433W        W78858  34.903  10.738  14.944
 6434W        W78859  37.532  23.817   3.388
 6435W        W78860  31.561   8.763  14.601
 6436W        W78861  32.811  40.517   1.230
 6437W        W78862  27.421  18.741  10.736
 6438W        W78863  13.790   4.199   0.944
 6439W        W78864  33.900   8.345  14.844
 6440W        W78865  21.131  27.904   1.571
 6441W        W78866  17.223  15.531   2.286
 6442W        W78867  29.383  30.544  10.689
 6443W        W78868  30.055  26.971   4.138
 6444W        W78869  38.772  21.497  12.960
 6445W        W78870  42.432  16.493   3.234
 6446W        W78871  36.168  18.200   3.432
 6447W        W78872  22.616  44.367   2.417
 6448W        W78873  40.594  16.200   3.764
 6449W        W78874  31.168  27.900  13.835
 6450W        W78875  24.415  40.226   1.844
 6451W        W78876   1.757  40.462   1.826
 6452W        W78877   5.270  44.667  14.930
 6453W        W78878  30.953  30.305  11.626
 6454W        W78879  43.435   8.413   3.879
 6455W        W78880  10.782   0.332   2.786
 6456W        W78881  33.282  35.777  14.911
 6457W        W78882   8.451  28.034  10.382
 6458W        W78883   2.810  18.487   3.079
 6459W        W78884  29.960  16.370   0.162
 6460W        W78885  11.614   3.231   2.866
 6461W        W78886  35.134  39.041  10.070
 6462W        W78887  21.012   0.949   3.676
 6463W        W78888  14.173  15.762  11.673
 6464W        W78889   1.992   5.412  14.786
 6465W        W78890   3.330  40.980  10.867
 6466W        W78891   2.345  42.150  12.424
 6467W        W78892  29.282  24.939  12.970
 6468W        W78893  18.763  27.254  14.829
 6469W        W78894  16.559  17.566  11.912
 6470W        W78895  30.971  13.703   4.823
 6471W        W78896   7.730  28.968  13.106
 6472W        W78897  13.162  11.653   0.306
 6473W        W78898   0.919  38.832  11.582
 6474W        W78899  28.110  37.908  10.907
 6475W        W78900  33.482  22.681  14.293
 6476W        W78901  36.626   8.736   3.732
 6477W        W78902   8.900  44.808  12.546
 6478W        W78903  37.440   1.653   1.806
 6479W        W78904  22.740  13.637  14.970
 6480W        W78905  24.470  12.305  12.406
 6481W        W78906  44.982  34.039  10.704
 6482W        W78907  22.578  24.156   0.889
 6483W        W78908  34.472  10.354  11.606
 6484W        W78909  36.842   6.354  12.993
 6485W        W78910   0.350  15.710   2.626
 6486W        W78911  20.910   7.141   0.785
 6487W        W78912   9.193  31.451  14.365
 6488W        W78913   1.214  32.198   4.802
 6489W        W78914   6.316  41.013   4.171
 6490W        W78915  40.648  12.073  11.998
 6491W        W78916  17.617   7.350  11.138
 6492W        W78917  37.019  20.200   1.229
 6493W        W78918  18.764  18.472  12.084
 6494W        W78919  24.143  25.491  10.379
 6495W        W78920  44.376  42.888  12.982
 6496W        W78921  35.626  35.485   4.655
 6497W        W78922  24.748  13.389   2.657
 6498W        W78923  24.271  29.465   2.316
 6499W        W78924  39.909  32.976  12.118
 6500W        W78925   9.050  39.992  13.099
 6501W        W78926  44.546   7.944   2.609
 6502W        W78927  43.448  36.632  14.558
 6503W        W78928   4.705   0.355  10.202
 6504W        W78929  37.792   3.680  14.708
 6505W        W78930  10.936   5.023   4.028
 6506W        W78931  31.618  32.642   2.254
 6507W        W78932  18.640  27.271  11.945
 6508W        W78933  21.837  28.142  13.870
 6509W        W78934   0.997  36.477   4.892
 6510W        W78935   6.877  34.529   4.646
 6511W        W78936  36.909  34.500   1.120
 6512W        W78937   9.882  42.277   4.424
 6513W        W78938  10.650  36.789   2.946
 6514W        W78939  33.223   4.925  10.610
 6515W        W78940  30.642   2.016  13.977
 6516W        W78941  18.342  31.594  14.864
 6517W        W78942  14.170   8.411  13.845
 6518W        W78943  17.739  36.104  10.639
 6519W        W78944  33.449  32.868   1.243
 6520W        W78945  40.953  44.220  13.582
 6521W        W78946  37.043  33.115  10.742
 6522W        W78947  19.408  39.955   3.400
 6523W        W78948   9.376  38.334  12.040
 6524W        W78949  17.101  12.610   3.192
 6525W        W78950   3.082  24.022  14.652
 6526W        W78951  13.208  15.291  14.637
 6527W        W78952   9.499   5.473   9.860
 6528W        W78953  30.985  36.484   0.238
 6529W        W78954  10.851   7.760   0.482
 6530W        W78955  10.655   3.876  11.083
 6531W        W78956  40.106  15.528   5.001
 6532W        W78957   8.381  38.069  12.032
 6533W        W78958  34.211   6.800  13.031
 6534W        W78959   9.853  34.910  12.124
 6535W        W78960  19.766  30.129   0.911
 6536W        W78961  29.085  10.620  11.714
 6537W        W78962  12.693   5.933  11.905
 6538W        W78963  43.711  25.107   0.312
 6539W        W78964  14.460  38.003  14.462
 6540W        W78965  21.853   2.643   0.826
 6541W        W78966  19.788  14.411   2.359
 6542W        W78967  10.738  29.889   0.255
 6543W        W78968  35.457   3.615   2.957
 6544W        W78969  20.186   8.372  13.986
 6545W        W78970  12.715   3.786  13.093
 6546W        W78971  19.013  14.457  13.719
 6547W        W78972  40.892  32.066   3.822
 6548W        W78973  11.582  40.139   3.201
 6549W        W78974  36.079  18.982  11.484
 6550W        W78975  33.024  15.289   0.417
 6551W        W78976  41.409  36.519  12.807
 6552W        W78977  44.793  13.113  14.946
 6553W        W78978  27.665  31.146   0.293
 6554W        W78979  35.338   7.294   4.752
 6555W        W78980  26.438  33.850  11.873
 6556W        W78981  24.331  14.115   5.117
 6557W        W78982  33.121  43.406   0.254
 6558W        W78983  30.675  21.169   4.084
 6559W        W78984  35.653  11.270   4.012
 6560W        W78985  31.741  12.293  14.399
 6561W        W78986  36.865  17.741  14.890
 6562W        W78987  10.717  24.017  13.307
 6563W        W78988  14.703   5.790   1.742
 6564W        W78989  10.702   8.985   1.876
 6565W        W78990  41.041  17.347  11.969
 6566W        W78991   7.914  28.630   4.169
 6567W        W78992  30.975  15.793  10.556
 6568W        W78993  42.527  26.654  11.944
 6569W        W78994   3.167  25.054   2.796
 6570W        W78995  44.946  39.105  11.112
 6571W        W78996  29.946  16.177   4.315
 6572W        W78997  27.435  40.488  11.134
 6573W        W78998  37.414  14.719   0.623
 6574W        W78999  13.788  40.878  11.508
 6575W        W79000   5.519  19.579  11.635
 6576W        W79001  33.090  23.556   4.056
 6577W        W79002  10.908   7.636  14.311
 6578W        W79003   5.543   4.024   0.991
 6579W        W79004  13.252   9.261  14.204
 6580W        W79005   7.171   4.423   4.486
 6581W        W79006  18.351  37.893  14.866
 6582W        W79007  40.862  34.074  13.624
 6583W        W79008  32.646   9.927  12.079
 6584W        W79009  44.793  28.635   4.140
 6585W        W79010  39.844  39.398   0.008
 6586W        W79011   5.218  37.910  13.920
 6587W        W79012  33.400   9.793   1.959
 6588W        W79013  25.066  17.276   3.862
 6589W        W79014  28.606  41.378   4.229
 6590W        W79015  24.121  32.623   0.619
 6591W        W79016  34.024  37.064   1.274
 6592W        W79017  32.163  13.700  11.973
 6593W        W79018   9.441  23.325   0.459
 6594W        W79019  35.103   7.753   0.345
 6595W        W79020  42.270  38.327  10.667
 6596W        W79021   7.136  33.593   3.338
 6597W        W79022  27.226  26.392   4.635
 6598W        W79023   9.806   3.632   4.566
 6599W        W79024   6.142  24.488   2.847
 6600W        W79025  19.760  29.191  14.304
 6601W        W79026   9.009   3.582  10.184
 6602W        W79027  27.961  19.549   4.216
 6603W        W79028   5.286  39.087  11.650
 6604W        W79029  23.537  35.347  12.460
 6605W        W79030   3.321  25.664   3.420
 6606W        W79031   6.678   9.735  11.136
 6607W        W79032  42.921   9.159   0.005
 6608W        W79033  41.971  38.482   1.585
 6609W        W79034  15.270   9.158   3.172
 6610W        W79035  31.856  10.237  13.532
 6611W        W79036  22.571  30.490  10.318
 6612W        W79037  34.427  31.147   2.791
 6613W        W79038   1.315   1.229   1.198
 6614W        W79039  44.988  16.017  14.870
 6615W        W79040  15.209   4.429  11.161
 6616W        W79041  44.050  39.851   3.731
 6617W        W79042   5.507  17.482  11.623
 6618W        W79043   1.988   3.773  11.980
 6619W        W79044  37.346  13.735   4.641
 6620W        W79045  14.054   6.291   4.548
 6621W        W79046   2.390  19.556  14.005
 6622W        W79047  35.049  26.249   2.781
 6623W        W79048  38.056  33.488  13.349
 6624W        W79049  22.669  35.786   2.248
 6625W        W79050  22.003   2.535   2.744
 6626W        W79051  32.020   2.934   4.162
 6627W        W79052  32.872  27.063   4.048
 6628W        W79053  22.110  31.027  11.407
 6629W        W79054  40.000   1.474  11.537
 6630W        W79055  17.616  35.487  14.486
 6631W        W79056  29.075  11.787  11.104
 6632W        W79057  25.265  18.574   4.198
 6633W        W79058  37.475  29.896  11.233
 6634W        W79059   0.864   4.223   2.229
 6635W        W79060  42.737  11.833   1.710
 6636W        W79061  10.412   2.404  11.126
 6637W        W79062  14.496  23.192  14.704
 6638W        W79063  25.565  18.126   1.679
 6639W        W79064   0.920  17.850  11.983
 6640W        W79065  38.279   6.140  14.643
 6641W        W79066  13.131  38.832   1.395
 6642W        W79067   7.985   4.791   4.895
 6643W        W79068   1.209  16.689   2.974
 6644W        W79069  43.057  42.169   0.789
 6645W        W79070  24.270   5.737   2.228
 6646W        W79071  29.564  11.166   0.431
 6647W        W79072  44.671  24.058   0.650
 6648W        W79073  35.800  32.438  13.799
 6649W        W79074  23.998   3.962  13.925
 6650W        W79075   3.754  43.515   3.596
 6651W        W79076  10.779  34.150   1.431
 6652W        W79077   3.804  42.450   4.529
 6653W        W79078  10.160  29.742  14.074
 6654W        W79079  14.364   7.142   0.820
 6655W        W79080  33.881  34.044  13.503
 6656W        W79081  27.013  35.671   2.143
 6657W        W79082  44.321  27.677   4.215
 6658W        W79083   1.043  33.549  11.734
 6659W        W79084  26.015  27.656  13.941
 6660W        W79085  28.179  19.836  11.963
 6661W        W79086  34.526  11.261  11.688
 6662W        W79087  33.356  38.966   3.457
 6663W        W79088   0.876   3.953   4.685
 6664W        W79089  26.356  18.417   1.807
 6665W        W79090  16.154   6.777   4.803
 6666W        W79091  18.021  20.172   0.382
 6667W        W79092  38.828   1.683   1.473
 6668W        W79093  33.187  18.123   3.764
 6669W        W79094  10.634   5.849   1.715
 6670W        W79095   1.864  27.196   0.821
 6671W        W79096  21.313  12.873   9.884
 6672W        W79097  37.895  16.135   4.539
 6673W        W79098  25.102  28.247  12.482
 6674W        W79099  40.243  26.518   4.558
 6675W        W79100   8.106  19.131  14.324
 6676W        W79101  18.181  14.031  12.990
 6677W        W79102  23.494  15.150  14.750
 6678W        W79103  18.782  42.942   3.151
 6679W        W79104  24.985  42.939   2.193
 6680W        W79105  39.812  35.172   4.465
 6681W        W79106  37.344  19.747   0.585
 6682W        W79107  24.930   9.405  14.074
 6683W        W79108  29.778  44.294  10.139
 6684W        W79109   1.496   6.754  11.608
 6685W        W79110  23.071   1.676  11.022
 6686W        W79111  29.735  31.486   4.006
 6687W        W79112   9.278  14.419  10.616
 6688W        W79113  33.801  35.242   1.336
 6689W        W79114   9.860   4.636   1.509
 6690W        W79115  35.231  28.214  12.499
 6691W        W79116  42.606  23.715   3.262
 6692W        W79117   2.061  39.363   4.511
 6693W        W79118  36.512  29.450  12.859
 6694W        W79119   3.261  33.552  12.132
 6695W        W79120  19.617  34.432   1.361
 6696W        W79121  15.909  33.880  11.183
 6697W        W79122  28.569  19.642   4.984
 6698W        W79123   7.638   5.463  14.830
 6699W        W79124  41.390  25.498  13.892
 6700W        W79125   4.938  38.510   4.301
 6701W        W79126  10.668  38.986   4.091
 6702W        W79127  31.856  36.578  13.113
 6703W        W79128   2.151  18.605   1.857
 6704W        W79129  40.592  30.915   3.674
 6705W        W79130  11.336  32.526   1.852
 6706W        W79131  32.616  33.600  13.257
 6707W        W79132  33.979  10.849   4.310
 6708W        W79133  32.989   8.439  10.800
 6709W        W79134  42.731  36.955   3.288
 6710W        W79135  12.831  13.638  10.915
 6711W        W79136  27.445  23.633   4.556
 6712W        W79137  29.507  19.716   1.861
 6713W        W79138  15.959  31.945   3.733
 6714W        W79139  25.206  30.607   3.746
 6715W        W79140  40.596  31.834   1.632
 6716W        W79141  12.578   3.177  12.135
 6717W        W79142  22.285  34.435  13.775
 6718W        W79143  20.630  16.858  14.923
 6719W        W79144  24.294  35.814   3.202
 6720W        W79145  30.919  21.031  14.950
 6721W        W79146  37.209  33.379   3.750
 6722W        W79147   2.484  24.657  12.065
 6723W        W79148  33.376   4.458  12.045
 6724W        W79149  36.150  27.156   3.728
 6725W        W79150   5.982  26.544  10.742
 6726W        W79151  44.991  14.901   4.154
 6727W        W79152  15.954  40.831   4.250
 6728W        W79153  23.066  34.112   2.797
 6729W        W79154  13.371  31.373  12.049
 6730W        W79155  32.206  11.281   3.244
 6731W        W79156  11.022  34.564  11.079
 6732W        W79157  33.999   9.798  10.965
 6733W        W79158  43.220  11.372  11.218
 6734W        W79159   1.468  36.035  11.217
 6735W        W79160  15.818  36.085  12.070
 6736W        W79161  19.006  18.905  13.359
 6737W        W79162  18.861  32.674  11.176
 6738W        W79163   1.055  17.958  13.305
 6739W        W79164  25.747  41.208   2.320
 6740W        W79165   0.330  18.366   1.358
 6741W        W79166  18.080  16.694   2.860
 6742W        W79167  28.436   1.448  13.388
 6743W        W79168   6.929   2.833  13.485
 6744W        W79169   3.273  19.491  12.248
 6745W        W79170  40.926   2.445  11.508
 6746W        W79171   4.731  30.937   3.255
 6747W        W79172  28.839  20.241   0.671
 6748W        W79173  33.083  29.855  11.685
 6749W        W79174  19.587   7.955  13.352
 6750W        W79175  42.398   1.919   2.531
 6751W        W79176  16.089  30.841  13.576
 6752W        W79177  42.244  34.476   2.384
 6753W        W79178   7.893  35.847  13.788
 6754W        W79179  42.584  14.875  11.130
 6755W        W79180  12.828  32.830  12.551
 6756W        W79181  36.592  14.710  10.407
 6757W        W79182   8.221   4.900  14.605
 6758W        W79183  26.076  18.326   4.624
 6759W        W79184  27.594   5.557  14.101
 6760W        W79185  30.762  37.159   0.913
 6761W        W79186  38.461  14.176  12.952
 6762W        W79187   0.728   7.834   1.003
 6763W        W79188  23.311  30.437   2.869
 6764W        W79189  10.611  19.199  13.506
 6765W        W79190  10.720  10.610   2.851
 6766W        W79191  20.504  25.525   0.475
 6767W        W79192  39.807  37.940  13.453
 6768W        W79193  19.315  38.099  14.805
 6769W        W79194  18.157  41.080   0.206
 6770W        W79195  20.233  25.247   3.663
 6771W        W79196  42.991  34.019   0.919
 6772W        W79197  12.609  32.613   3.259
 6773W        W79198  34.368  21.621   4.633
 6774W        W79199  40.812  30.519  13.490
 6775W        W79200  13.117  29.596  14.418
 6776W        W79201  28.960  17.595  10.309
 6777W        W79202  39.648  11.200  14.413
 6778W        W79203  42.225  41.022  13.879
 6779W        W79204  13.722   0.179   3.778
 6780W        W79205  31.054  28.398   3.296
 6781W        W79206  31.371  39.304  12.000
 6782W        W79207  25.374  19.579  11.518
 6783W        W79208  42.534  10.790  12.312
 6784W        W79209   2.809   4.023   2.157
 6785W        W79210  29.191  21.568  14.433
 6786W        W79211  32.970  16.783   3.806
 6787W        W79212  20.899  28.543   4.046
 6788W        W79213  18.309  18.142   2.667
 6789W        W79214  21.814  33.534   3.779
 6790W        W79215  28.183  31.660  13.850
 6791W        W79216   9.299  21.092  14.738
 6792W        W79217  25.751  13.221   1.510
 6793W        W79218  18.398  20.198   3.321
 6794W        W79219  37.331  22.792   0.449
 6795W        W79220  36.954   8.208  13.530
 6796W        W79221  30.561  24.213   4.544
 6797W        W79222  25.048  15.868  13.095
 6798W        W79223   9.655  40.330  14.483
 6799W        W79224  37.928   9.963  10.211
 6800W        W79225  27.169  14.219   3.735
 6801W        W79226   3.819  14.142   0.125
 6802W        W79227  39.256   0.184   0.563
 6803W        W79228  41.427  26.662   3.146
 6804W        W79229  10.863  13.543  10.337
 6805W        W79230   7.227  16.858   3.156
 6806W        W79231  36.011  13.858  14.397
 6807W        W79232  26.524  35.131   2.972
 6808W        W79233  26.622  33.960  12.791
 6809W        W79234  29.778  14.144   3.758
 6810W        W79235   2.331  34.566   4.214
 6811W        W79236  32.183  27.093  11.620
 6812W        W79237  12.183  33.453  14.873
 6813W        W79238   0.852  31.184  11.592
 6814W        W79239   3.406  30.675   0.771
 6815W        W79240  22.306  33.489   4.674
 6816W        W79241  28.932  18.245   2.641
 6817W        W79242  11.821  17.628  11.521
 6818W        W79243  17.633  32.147  14.900
 6819W        W79244  20.240  15.290   1.354
 6820W        W79245  31.053  42.317   2.372
 6821W        W79246  20.556  16.141   0.382
 6822W        W79247  22.424  43.359  14.766
 6823W        W79248   6.735   3.024  12.449
 6824W        W79249   9.928  26.707   1.385
 6825W        W79250  14.343  12.876   2.716
 6826W        W79251  18.172  34.066  14.041
 6827W        W79252  22.081  41.903  13.517
 6828W        W79253   4.707   6.894   4.707
 6829W        W79254  26.142  30.309   3.777
 6830W        W79255  38.911   3.296   3.496
 6831W        W79256  19.233   5.705  12.926
 6832W        W79257  44.849  35.425  13.106
 6833W        W79258  17.214  12.116   0.660
 6834W        W79259  16.599  10.802  10.598
 6835W        W79260  30.837  38.542  14.292
 6836W        W79261  10.710   8.481   0.041
 6837W        W79262   1.778  12.320  14.471
 6838W        W79263  28.493  21.815  10.660
 6839W        W79264  14.494  41.463  12.829
 6840W        W79265  19.531  38.093   4.296
 6841W        W79266  30.399  22.299   2.821
 6842W        W79267  16.795  44.295   4.054
 6843W        W79268   4.895  38.050   2.483
 6844W        W79269  12.378   3.453   4.035
 6845W        W79270  19.727  15.730  13.960
 6846W        W79271  33.177  20.686  14.273
 6847W        W79272  31.226  14.267   3.628
 6848W        W79273  44.270   8.904   2.869
 6849W        W79274  16.771  18.881   4.064
 6850W        W79275  42.414  44.657   0.276
 6851W        W79276  15.781  31.209  12.820
 6852W        W79277   5.915  16.086  11.529
 6853W        W79278  19.260  32.109   2.749
 6854W        W79279  33.289  25.009   2.758
 6855W        W79280  17.665  26.664  12.975
 6856W        W79281  41.205  38.508  11.319
 6857W        W79282  27.685  10.160  10.223
 6858W        W79283  13.708  22.181   5.310
 6859W        W79284   8.826   2.437   4.395
 6860W        W79285  42.455  22.350  11.968
 6861W        W79286  32.351  43.161   2.259
 6862W        W79287  15.057  34.684   1.617
 6863W        W79288  10.191  29.513   1.836
 6864W        W79289  30.600   1.508   1.055
 6865W        W79290  42.250  42.296   3.281
 6866W        W79291  15.324  17.177  11.840
 6867W        W79292   7.864  26.140   0.649
 6868W        W79293   8.442  30.656  12.955
 6869W        W79294  10.641  37.952  14.955
 6870W        W79295  10.422   9.076  11.477
 6871W        W79296  12.585   4.731  10.702
 6872W        W79297  37.700  22.146  14.242
 6873W        W79298  25.902  44.485  13.421
 6874W        W79299  11.139   3.071  10.812
 6875W        W79300  21.017  23.043  11.701
 6876W        W79301  39.233  37.360  12.430
 6877W        W79302  43.816  11.001   0.726
 6878W        W79303  35.644  24.701  11.909
 6879W        W79304  24.718  31.630   1.375
 6880W        W79305   5.131  30.889   0.392
 6881W        W79306  18.247  39.251  13.772
 6882W        W79307   6.708  18.191  11.662
 6883W        W79308  27.519  26.465   5.068
 6884W        W79309  19.557  15.976  10.551
 6885W        W79310  28.742   3.469   2.403
 6886W        W79311  40.636  11.769  13.967
 6887W        W79312   2.486  29.544  14.464
 6888W        W79313   7.469  19.260  12.922
 6889W        W79314  12.370  27.457  12.064
 6890W        W79315  31.119  34.643   4.768
 6891W        W79316   0.796   8.586   4.143
 6892W        W79317   4.762  23.693  14.954
 6893W        W79318   2.504  20.058  13.944
 6894W        W79319  14.793  21.406   9.841
 6895W        W79320  36.819  40.083   4.587
 6896W        W79321   7.441  24.471   3.259
 6897W        W79322   0.453  32.460   0.028
 6898W        W79323  26.449  31.147   3.420
 6899W        W79324   4.841  41.498  14.909
 6900W        W79325   4.281  10.783   4.617
 6901W        W79326  18.261  35.827   1.904
 6902W        W79327  44.429  25.977   3.698
 6903W        W79328  37.763   0.427   2.297
 6904W        W79329  13.780  34.340  14.842
 6905W        W79330   0.498  13.121   3.266
 6906W        W79331  42.665  43.781   2.261
 6907W        W79332  22.391   6.311  13.441
 6908W        W79333  36.579  40.513   4.396
 6909W        W79334   4.277   1.905  12.500
 6910W        W79335  42.577  44.309   4.950
 6911W        W79336  28.775  15.215  14.100
 6912W        W79337   6.279  35.820  11.602
 6913W        W79338  14.246   8.387  11.568
 6914W        W79339  22.490  11.807   4.906
 6915W        W79340  13.152  19.246   0.277
 6916W        W79341  12.618  12.689  11.380
 6917W        W79342  30.140  20.107  14.282
 6918W        W79343  19.229  24.581   3.243
 6919W        W79344   8.837  31.471   3.852
 6920W        W79345  14.607  24.861  10.369
 6921W        W79346  32.474  39.164   1.288
 6922W        W79347   7.916   6.136   3.221
 6923W        W79348  21.757  15.338  14.558
 6924W        W79349  31.532  10.297   3.135
 6925W        W79350  40.277  11.231   0.463
 6926W        W79351  24.163  19.264   4.393
 6927W        W79352  44.757  38.320   0.225
 6928W        W79353   1.365  21.309   0.771
 6929W        W79354  35.910  44.254  14.588
 6930W        W79355  11.814   7.860   1.356
 6931W        W79356  36.955  41.251   4.303
 6932W        W79357   1.353  27.046  12.557
 6933W        W79358  34.005  21.675  12.405
 6934W        W79359   9.629  30.651   1.377
 6935W        W79360  36.499   1.761  14.319
 6936W        W79361   3.324  30.717  11.313
 6937W        W79362  29.478   2.445   1.916
 6938W        W79363   2.367  41.793   4.479
 6939W        W79364  34.414  31.168   1.893
 6940W        W79365  13.132  32.077  14.497
 6941W        W79366  34.655  37.791  11.960
 6942W        W79367  42.346  11.911   0.817
 6943W        W79368   7.993  43.860  12.021
 6944W        W79369  24.178   4.310   2.799
 6945W        W79370  23.192   2.403   0.121
 6946W        W79371   5.237  44.877   1.261
 6947W        W79372   9.814  25.855   4.994
 6948W        W79373  24.096  40.507  10.890
 6949W        W79374  32.813  14.964  11.898
 6950W        W79375   7.599  12.326   2.314
 6951W        W79376  11.373   0.660  13.053
 6952W        W79377   8.914  16.053   0.062
 6953W        W79378  31.905  36.090  13.625
 6954W        W79379  26.228  29.197  13.304
 6955W        W79380  40.101  26.006   0.344
 6956W        W79381  23.289  44.997  14.339
 6957W        W79382  44.843  35.039   0.501
 6958W        W79383  27.479  33.356  14.770
 6959W        W79384   3.338  23.571   3.407
 6960W        W79385  24.600  37.438  10.114
 6961W        W79386  13.842  13.138  14.763
 6962W        W79387  40.401  40.845  13.462
 6963W        W79388  17.016  40.080  10.811
 6964W        W79389  20.556  25.173  12.860
 6965W        W79390   1.199  17.557  10.774
 6966W        W79391  40.146  14.722  10.509
 6967W        W79392  33.124   9.822   0.268
 6968W        W79393  21.797  37.353  12.489
 6969W        W79394  17.280   5.753  14.677
 6970W        W79395   2.058  20.709   3.294
 6971W        W79396  34.995   4.455   1.573
 6972W        W79397  38.316  17.581  13.021
 6973W        W79398  40.226  17.976  11.280
 6974W        W79399  24.677   6.955   1.969
 6975W        W79400  24.222   6.240   4.072
 6976W        W79401  18.234   8.103  11.537
 6977W        W79402   0.369  19.704   4.737
 6978W        W79403  10.995  25.027  12.947
 6979W        W79404  42.814  42.730   4.290
 6980W        W79405  35.965   2.341   3.300
 6981W        W79406   8.640  14.203   1.978
 6982W        W79407  15.968  37.576  14.960
 6983W        W79408   3.258   5.289   0.247
 6984W        W79409  34.054  11.152  14.937
 6985W        W79410   3.971  11.805   0.701
 6986W        W79411  41.249  23.600  12.585
 6987W        W79412  36.375  28.000   0.439
 6988W        W79413   8.881   9.462  11.719
 6989W        W79414  41.622  39.134   3.724
 6990W        W79415  34.475   7.259  14.376
 6991W        W79416   9.381  17.549   0.871
 6992W        W79417   3.475  33.055   3.750
 6993W        W79418  12.094   2.959  14.816
 6994W        W79419  40.364   6.461  11.189
 6995W        W79420  20.007  25.714   3.340
 6996W        W79421  23.904  38.877  10.359
 6997W        W79422  26.517  35.523  11.421
 6998W        W79423   6.581  15.687   1.241
 6999W        W79424  30.991   7.114   1.102
 7000W        W79425  29.410  27.660   1.008
 7001W        W79426  28.946  18.231   0.283
 7002W        W79427  37.604  30.790   0.400
 7003W        W79428  24.251  35.950  11.164
 7004W        W79429  31.531  39.376   1.273
 7005W        W79430  39.371   2.809  14.819
 7006W        W79431   2.992  33.393  11.721
 7007W        W79432  21.237  27.548  12.094
 7008W        W79433  22.713  21.087   3.895
 7009W        W79434  43.377   4.619   4.734
 7010W        W79435  12.717  22.729   0.931
 7011W        W79436  44.643   6.996   2.607
 7012W        W79437   5.160  33.754   1.283
 7013W        W79438  13.284   2.230  11.440
 7014W        W79439   4.296   1.950  13.486
 7015W        W79440  30.478  20.134  12.601
 7016W        W79441  27.990  35.036  13.331
 7017W        W79442  13.232  20.315  13.795
 7018W        W79443   3.299   0.295  11.906
 7019W        W79444  11.112   6.781  11.461
 7020W        W79445  18.291  40.380   0.369
 7021W        W79446  39.756  10.587  13.039
 7022W        W79447  43.325  22.100  14.910
 7023W        W79448  14.712  11.927  10.739
 7024W        W79449   3.304   2.299  12.955
 7025W        W79450  17.743  32.538  11.903
 7026W        W79451  30.886  38.291   2.333
 7027W        W79452   3.640  29.755   2.146
 7028W        W79453  16.839  23.494   4.941
 7029W        W79454  37.490  10.433   0.810
 7030W        W79455  43.821  27.639   3.847
 7031W        W79456  14.985  16.084  14.697
 7032W        W79457   5.456  30.826  14.517
 7033W        W79458  14.567  18.732   2.244
 7034W        W79459  32.226  26.048  10.132
 7035W        W79460  22.279  31.553  14.736
 7036W        W79461  28.145   2.494  12.621
 7037W        W79462  29.741  44.438   0.905
 7038W        W79463  25.508  18.317  11.522
 7039W        W79464  44.847  23.788   3.755
 7040W        W79465   1.501  33.097  10.917
 7041W        W79466  23.448  20.633   1.341
 7042W        W79467   7.810  25.566  14.489
 7043W        W79468  38.414   3.893   3.104
 7044W        W79469  36.637  10.771   0.351
 7045W        W79470  42.413  44.775   2.396
 7046W        W79471  19.283  14.050  11.371
 7047W        W79472  37.810  36.302  12.521
 7048W        W79473  43.229  15.667  11.270
 7049W        W79474  10.104  40.986  14.934
 7050W        W79475   4.305  15.010   2.170
 7051W        W79476  37.850   9.969  12.329
 7052W        W79477  40.504  13.396   2.220
 7053W        W79478  16.854  18.347  14.820
 7054W        W79479  19.547  44.737   1.722
 7055W        W79480   9.220  40.616  14.573
 7056W        W79481   3.204   5.334   0.768
 7057W        W79482  11.972  15.599  12.406
 7058W        W79483   8.688  22.815  14.136
 7059W        W79484  17.097  16.308   0.933
 7060W        W79485  19.758  16.234   0.808
 7061W        W79486  31.648  27.713  14.315
 7062W        W79487  23.519  32.621  12.516
 7063W        W79488  22.603  14.219   5.253
 7064W        W79489   3.307  26.984  10.702
 7065W        W79490  39.738  44.756   2.747
 7066W        W79491  40.274  31.686   4.491
 7067W        W79492  12.165  12.602   2.058
 7068W        W79493  16.736  38.375  13.782
 7069W        W79494  26.919  13.764   3.675
 7070W        W79495  33.397  14.810  10.933
 7071W        W79496  34.853  17.990   1.346
 7072W        W79497  10.836  20.606   3.337
 7073W        W79498  27.304   8.536   1.986
 7074W        W79499  24.495  38.907   4.222
 7075W        W79500   3.267  23.476   4.434
 7076W        W79501  25.374  36.434   2.773
 7077W        W79502   4.328  27.538  13.008
 7078W        W79503  21.392  31.359  14.489
 7079W        W79504   1.509  35.067  13.599
 7080W        W79505  29.580  22.226  10.382
 7081W        W79506  15.272  23.793  11.130
 7082W        W79507  38.516   8.725  10.333
 7083W        W79508  32.152  42.391   1.930
 7084W        W79509  42.935  36.910  11.496
 7085W        W79510  34.488   3.728  11.012
 7086W        W79511  18.065   3.943   3.300
 7087W        W79512  14.232  12.554  12.968
 7088W        W79513  14.007   7.326   3.788
 7089W        W79514  17.135  37.345   1.432
 7090W        W79515  43.965  29.875  12.317
 7091W        W79516   5.466  23.477   1.794
 7092W        W79517  44.538  35.934   3.855
 7093W        W79518  32.096   5.634  13.413
 7094W        W79519  43.149  39.432  13.462
 7095W        W79520  31.886  18.138  12.876
 7096W        W79521   4.390   0.245   4.188
 7097W        W79522  39.458  36.530   4.379
 7098W        W79523  29.644   5.581   1.797
 7099W        W79524   5.332   5.314   3.239
 7100W        W79525  20.688  30.188  13.064
 7101W        W79526  12.880  23.785  13.974
 7102W        W79527  27.937  14.676   4.097
 7103W        W79528  17.865  16.620  14.127
 7104W        W79529  19.783  25.537   3.767
 7105W        W79530  14.231  29.111  10.087
 7106W        W79531  43.603  11.768   2.064
 7107W        W79532   3.841   9.784   1.393
 7108W        W79533  17.151  13.742   2.469
 7109W        W79534   8.903  11.885   3.214
 7110W        W79535  21.479  42.438  11.097
 7111W        W79536  41.390   5.421  14.400
 7112W        W79537  23.796  36.028   4.048
 7113W        W79538  41.443  25.056   5.101
 7114W        W79539  26.707  22.033   0.952
 7115W        W79540  10.422  15.657   2.644
 7116W        W79541  38.265  21.549   0.292
 7117W        W79542  29.649  22.537   0.865
 7118W        W79543  25.178  41.028   3.106
 7119W        W79544  14.385  36.522   1.807
 7120W        W79545  15.549  38.583   4.586
 7121W        W79546  26.107  27.571  14.984
 7122W        W79547   1.971  10.599  11.719
 7123W        W79548   5.310  40.362   3.711
 7124W        W79549  22.602   3.337  12.033
 7125W        W79550  34.503  21.103   4.534
 7126W        W79551  34.912  35.666  11.095
 7127W        W79552  17.317  32.055   4.194
 7128W        W79553   5.963  41.249  13.182
 7129W        W79554  10.055  38.483   2.909
 7130W        W79555  10.556  13.147   4.347
 7131W        W79556  12.895  14.146  11.584
 7132W        W79557  42.759  17.356  13.821
 7133W        W79558  21.711  33.592  12.041
 7134W        W79559  22.480  36.098   3.646
 7135W        W79560   5.759  44.756   2.341
 7136W        W79561  26.931  23.102  13.631
 7137W        W79562   9.345  12.176  11.008
 7138W        W79563  27.427  20.199  13.921
 7139W        W79564  18.023   1.191  11.726
 7140W        W79565  40.614  35.005   4.683
 7141W        W79566  11.148  15.262  12.070
 7142W        W79567   4.849  20.964   3.611
 7143W        W79568   3.388   7.313   1.866
 7144W        W79569  39.347  24.796   4.971
 7145W        W79570  16.279  22.032  13.378
 7146W        W79571  10.477  27.552   1.205
 7147W        W79572  27.497  24.679   0.278
 7148W        W79573  29.474  16.840  12.110
 7149W        W79574  44.490   3.414   1.255
 7150W        W79575  33.832  31.113  13.855
 7151W        W79576  17.971   6.224  10.273
 7152W        W79577   9.558   3.858   0.832
 7153W        W79578   7.408   8.308  12.032
 7154W        W79579  17.212  27.899  11.886
 7155W        W79580  16.048  17.302   3.228
 7156W        W79581  12.333  20.868   1.740
 7157W        W79582  10.424  42.906  12.306
 7158W        W79583  37.696  17.991  14.128
 7159W        W79584  21.222  18.244   2.064
 7160W        W79585  24.359  40.245  12.512
 7161W        W79586  14.889  11.367   4.182
 7162W        W79587  23.721   5.116  10.143
 7163W        W79588   7.919  23.047   3.641
 7164W        W79589   5.009   1.753   1.185
 7165W        W79590  15.854   3.168  10.013
 7166W        W79591  33.189  36.044   0.774
 7167W        W79592  41.780  29.089   2.350
 7168W        W79593   4.595   1.889   5.121
 7169W        W79594  38.982  12.969   4.513
 7170W        W79595  36.318  32.026   5.106
 7171W        W79596  38.446  33.833  11.247
 7172W        W79597   0.662  28.059   3.814
 7173W        W79598  32.528   6.605  11.711
 7174W        W79599  28.855  10.664  12.166
 7175W        W79600  16.162  37.295  14.351
 7176W        W79601   5.743   6.340   0.319
 7177W        W79602  15.234  32.811  12.368
 7178W        W79603  15.003  25.137  12.504
 7179W        W79604   7.929  24.543  11.237
 7180W        W79605  26.721  14.353  10.312
 7181W        W79606  22.503   6.278   2.427
 7182W        W79607  34.962  42.739   4.981
 7183W        W79608  37.536  28.338   4.580
 7184W        W79609  38.347  38.898   4.677
 7185W        W79610  34.577  36.757   3.271
 7186W        W79611   9.644   5.456   5.015
 7187W        W79612  20.272  42.607   1.716
 7188W        W79613   8.257  13.552   3.204
 7189W        W79614   9.174  34.618  14.411
 7190W        W79615  29.326  31.569   2.730
 7191W        W79616  28.418  27.631  10.599
 7192W        W79617  30.562  15.261   0.207
 7193W        W79618  33.711  15.379   4.806
 7194W        W79619  42.834  41.882   3.363
 7195W        W79620  20.884  29.344  13.551
 7196W        W79621  21.053   7.482   3.686
 7197W        W79622   8.720  34.196   4.137
 7198W        W79623  14.463  21.032  13.173
 7199W        W79624  36.871  18.200   2.930
 7200W        W79625  31.364   5.858  14.713
 7201W        W79626  38.446  42.278   0.907
 7202W        W79627  35.379   6.646  14.978
 7203W        W79628  22.190  38.547  10.561
 7204W        W79629  26.664  40.471  12.403
 7205W        W79630   6.208  32.243  13.842
 7206W        W79631  28.922  15.648   1.403
 7207W        W79632   0.349  11.077   4.931
 7208W        W79633  18.045  20.723  10.962
 7209W        W79634   7.663  26.604  13.300
 7210W        W79635  13.678  43.784   4.202
 7211W        W79636  18.005  23.148   1.755
 7212W        W79637  32.051  34.064  12.600
 7213W        W79638   4.403  33.627   2.286
 7214W        W79639  21.998  31.472  10.783
 7215W        W79640  16.020   7.157  12.901
 7216W        W79641  40.540  40.660  14.884
 7217W        W79642   5.317  22.562   2.791
 7218W        W79643  13.684   7.182  14.035
 7219W        W79644  18.867  10.719   2.747
 7220W        W79645  30.619  13.108   1.886
 7221W        W79646  38.585  34.225   0.085
 7222W        W79647  40.290   5.385   2.881
 7223W        W79648  11.735  28.413   2.626
 7224W        W79649  31.519  36.094   2.196
 7225W        W79650  12.207  27.764   2.434
 7226W        W79651  38.848   2.666   3.265
 7227W        W79652  44.208   7.359  10.492
 7228W        W79653  40.750  22.957  11.590
 7229W        W79654  38.402  30.430  13.491
 7230W        W79655  43.270  16.793   1.925
 7231W        W79656  27.970   9.837  13.244
 7232W        W79657  10.375  18.266   0.721
 7233W        W79658  42.800  43.848   0.344
 7234W        W79659  43.276  26.798  12.446
 7235W        W79660  17.274  12.422   4.625
 7236W        W79661  18.078  10.806  10.636
 7237W        W79662  28.859  16.684   0.993
 7238W        W79663  18.361  23.236   2.202
 7239W        W79664  42.241  34.075   4.610
 7240W        W79665  37.481   6.035   0.085
 7241W        W79666  23.201  33.169   3.639
 7242W        W79667   6.755   8.834   2.758
 7243W        W79668   7.229  17.381   3.155
 7244W        W79669  14.330  12.852   1.749
 7245W        W79670  14.752  31.427   4.068
 7246W        W79671   1.224  43.936  14.940
 7247W        W79672  23.481  34.866   2.677
 7248W        W79673  32.878  21.387  10.528
 7249W        W79674  29.621   0.495   4.802
 7250W        W79675  39.659   1.979  11.993
 7251W        W79676  25.896  40.055   0.300
 7252W        W79677   0.444  37.835  10.558
 7253W        W79678   1.924  10.439  12.849
 7254W        W79679  37.832   3.347  11.342
 7255W        W79680  25.528   4.655   3.146
 7256W        W79681  42.739  18.050  11.133
 7257W        W79682   7.282  25.631   0.186
 7258W        W79683  44.648  13.760   3.693
 7259W        W79684  20.704  23.529   3.252
 7260W        W79685  19.030  14.896  13.475
 7261W        W79686   3.519  17.567  12.135
 7262W        W79687  28.592  15.164  12.461
 7263W        W79688  40.978  16.862   1.320
 7264W        W79689   1.902  40.713   1.357
 7265W        W79690   6.689  28.122  13.872
 7266W        W79691   2.834  32.030  11.176
 7267W        W79692   2.295  10.684   0.877
 7268W        W79693  39.462   8.942  10.465
 7269W        W79694  12.732  27.386   4.185
 7270W        W79695  41.428   4.688   2.205
 7271W        W79696  38.805  26.693   1.145
 7272W        W79697  11.844  31.885  13.838
 7273W        W79698  37.406  35.370  14.954
 7274W        W79699  10.691  10.178   0.825
 7275W        W79700  22.796  10.593  13.103
 7276W        W79701  10.201   9.319  14.686
 7277W        W79702  43.039  13.175   2.885
 7278W        W79703  28.388  42.201   0.733
 7279W        W79704   0.975  42.974   2.814
 7280W        W79705  16.659  30.459   0.935
 7281W        W79706  44.531   1.405  11.660
 7282W        W79707  28.933   2.823  13.085
 7283W        W79708  11.722  34.149  13.995
 7284W        W79709  27.952  38.250  11.904
 7285W        W79710  36.478  41.449   5.279
 7286W        W79711   7.689  43.268   3.695
 7287W        W79712  30.452  22.809   2.794
 7288W        W79713  19.668  24.609  13.146
 7289W        W79714  34.972  25.672  12.685
 7290W        W79715  13.105  34.109  11.684
 7291W        W79716   6.733  37.579  11.862
 7292W        W79717  10.593   7.756  12.647
 7293W        W79718   1.268   3.528  14.518
 7294W        W79719  25.872  10.662   4.076
 7295W        W79720  13.308  42.550   1.807
 7296W        W79721   9.149  15.820   1.393
 7297W        W79722   2.219  28.409   4.860
 7298W        W79723  30.704  16.910   3.759
 7299W        W79724  32.946  36.399  13.890
 7300W        W79725  27.456  17.672  11.911
 7301W        W79726  42.312   3.268  14.800
 7302W        W79727  29.016  15.425  12.587
 7303W        W79728  33.348  44.439   1.061
 7304W        W79729  24.013   8.519   9.703
 7305W        W79730  32.796  41.800   1.941
 7306W        W79731  26.117   8.407   4.233
 7307W        W79732   4.269  30.786   2.626
 7308W        W79733  43.849  19.633   4.767
 7309W        W79734  13.633  43.433  10.924
 7310W        W79735  28.046  44.827  14.962
 7311W        W79736   7.153  41.761   4.603
 7312W        W79737  44.821   5.836  11.854
 7313W        W79738  28.586   2.638  14.372
 7314W        W79739   8.861  27.133  13.278
 7315W        W79740  36.872  18.477  13.514
 7316W        W79741  18.750  33.463  14.322
 7317W        W79742  31.667  33.993   1.991
 7318W        W79743   4.687  38.909   4.077
 7319W        W79744   6.509  29.293   0.923
 7320W        W79745  30.610   3.267  11.634
 7321W        W79746  39.089  16.092   0.790
 7322W        W79747   1.008  39.837  11.634
 7323W        W79748   0.831  29.453   3.660
 7324W        W79749  33.360  13.245  13.859
 7325W        W79750  40.790   1.466   2.443
 7326W        W79751   7.743   0.533   3.334
 7327W        W79752  13.214   0.653   3.502
 7328W        W79753  28.416  13.849  10.391
 7329W        W79754  39.840  39.773   1.844
 7330W        W79755   2.220   9.103  14.888
 7331W        W79756  21.557  40.841   4.605
 7332W        W79757  12.688  32.609   2.357
 7333W        W79758  25.274   2.438   2.782
 7334W        W79759  17.721  21.855   1.182
 7335W        W79760   1.373  41.127  14.484
 7336W        W79761  18.749  35.296   2.333
 7337W        W79762  38.297  23.133   9.697
 7338W        W79763   1.038  13.263  12.842
 7339W        W79764   7.292   8.247  10.579
 7340W        W79765  28.601  39.347   2.727
 7341W        W79766  16.891   0.421   1.408
 7342W        W79767  19.229  38.508  11.535
 7343W        W79768  23.671  23.113  12.001
 7344W        W79769  16.995   8.410  11.952
 7345W        W79770  25.618   3.430   1.777
 7346W        W79771  22.689  38.156   3.121
 7347W        W79772  35.183  38.527  13.498
 7348W        W79773  10.186  15.795   3.608
 7349W        W79774   3.853  20.694   3.725
 7350W        W79775  28.093  44.432  11.747
 7351W        W79776  39.836   2.902  13.570
 7352W        W79777  14.616  26.710   2.259
 7353W        W79778   8.418   0.005   0.945
 7354W        W79779  41.361  16.301   3.794
 7355W        W79780   9.123  41.369   0.822
 7356W        W79781  32.191   8.839   2.363
 7357W        W79782  33.881  41.006   1.836
 7358W        W79783   7.347  31.550  13.621
 7359W        W79784  11.866  44.377  13.365
 7360W        W79785  34.624  25.620   2.850
 7361W        W79786  13.558  12.735  13.494
 7362W        W79787  29.927   7.302  14.029
 7363W        W79788  17.648  28.186  12.067
 7364W        W79789  17.815  18.240   2.536
 7365W        W79790  28.575  30.655   9.892
 7366W        W79791  18.373  14.557  11.888
 7367W        W79792  33.401  13.697   1.340
 7368W        W79793  42.772  36.006   0.577
 7369W        W79794   9.136  38.046   2.057
 7370W        W79795   5.181  38.614  14.435
 7371W        W79796  38.331  39.805   4.810
 7372W        W79797  34.896   0.268  12.896
 7373W        W79798  42.867  15.067   3.610
 7374W        W79799  12.833  10.154   4.513
 7375W        W79800   2.827   0.879   4.380
 7376W        W79801   6.622  17.909  14.720
 7377W        W79802  37.422  13.296  13.482
 7378W        W79803   5.702  19.054   1.207
 7379W        W79804  42.725  12.718  13.182
 7380W        W79805  18.781  42.999  12.510
 7381W        W79806  29.314  29.049  13.537
 7382W        W79807   6.987  42.071   3.300
 7383W        W79808  10.099   1.816   1.136
 7384W        W79809  35.616  19.989   1.468
 7385W        W79810  25.994  35.946   0.923
 7386W        W79811  29.878  35.885   1.168
 7387W        W79812  25.449  33.867   4.009
 7388W        W79813  41.682  29.078  14.639
 7389W        W79814   1.920  14.444   1.408
 7390W        W79815  21.664  44.005   4.229
 7391W        W79816  21.793  28.742   0.416
 7392W        W79817  14.672  37.080   2.679
 7393W        W79818  34.813   0.031   4.135
 7394W        W79819   0.277   2.593   2.842
 7395W        W79820   1.535  19.433   5.035
 7396W        W79821  11.843   9.572  10.563
 7397W        W79822   9.252  10.277   9.929
 7398W        W79823  30.656  42.299   3.723
 7399W        W79824  41.960  30.521   3.629
 7400W        W79825  14.624  33.468   4.649
 7401W        W79826  38.562  35.168   4.161
 7402W        W79827  11.124  12.275   4.858
 7403W        W79828  19.300  12.545  11.091
 7404W        W79829  19.202  15.569  10.388
 7405W        W79830  19.194  43.004  14.314
 7406W        W79831   4.201   3.803   1.324
 7407W        W79832  15.200   5.556   4.572
 7408W        W79833  44.734  25.523   1.234
 7409W        W79834   9.428  10.637  12.804
 7410W        W79835  12.752   4.199   0.509
 7411W        W79836   2.027  44.895   1.868
 7412W        W79837   9.724   9.503  14.824
 7413W        W79838  31.978   9.706   2.610
 7414W        W79839  29.423  36.741  11.486
 7415W        W79840  28.287  40.237   0.053
 7416W        W79841  39.545   2.338   2.739
 7417W        W79842  39.449   4.851   1.301
 7418W        W79843   5.865  27.090  10.810
 7419W        W79844  25.044   1.534   0.764
 7420W        W79845  43.313   0.916  12.857
 7421W        W79846  16.310   6.400   1.214
 7422W        W79847  21.719  36.449   4.835
 7423W        W79848  35.395  34.013  13.285
 7424W        W79849  38.705  40.737   4.497
 7425W        W79850  33.580  18.312   4.998
 7426W        W79851  25.267  21.109  13.348
 7427W        W79852  14.439  20.060   3.588
 7428W        W79853  29.793  32.155  13.997
 7429W        W79854   4.467  11.353  13.593
 7430W        W79855  13.101  17.278  12.006
 7431W        W79856  38.975  30.108   1.244
 7432W        W79857  10.294   1.350  13.389
 7433W        W79858   1.903  25.579   1.627
 7434W        W79859   9.377  34.914   1.865
 7435W        W79860   8.826  21.732   2.120
 7436W        W79861  43.868  31.422  12.044
 7437W        W79862   0.777  36.130  12.140
 7438W        W79863  13.181  43.582   1.733
 7439W        W79864   0.217  17.675   4.110
 7440W        W79865  23.559  37.981  10.748
 7441W        W79866   7.072  21.367   2.235
 7442W        W79867  16.830  42.010   0.963
 7443W        W79868  10.705  24.130  12.802
 7444W        W79869  23.197  40.381   4.870
 7445W        W79870   0.039   7.970   2.811
 7446W        W79871  44.914  34.257  11.715
 7447W        W79872  26.683  43.553   2.692
 7448W        W79873  15.261  40.506   1.304
 7449W        W79874  31.776  15.690   9.797
 7450W        W79875   8.779  34.468  11.537
 7451W        W79876  35.002  15.526  13.901
 7452W        W79877  11.760  26.576   4.642
 7453W        W79878   0.498  44.541  13.943
 7454W        W79879  37.790  14.804  13.901
 7455W        W79880  34.968   1.403   1.374
 7456W        W79881  18.152   5.989   3.140
 7457W        W79882  18.266  43.760   0.869
 7458W        W79883  18.585  34.188   4.236
 7459W        W79884  11.274  30.895  11.580
 7460W        W79885  35.369  37.274  13.580
 7461W        W79886  30.686  43.825  13.568
 7462W        W79887  22.620  30.203   4.632
 7463W        W79888   4.884   5.016   1.461
 7464W        W79889   5.834  26.261   1.317
 7465W        W79890  21.288  10.796   1.213
 7466W        W79891  27.622  33.205  12.113
 7467W        W79892  39.074   0.011   4.645
 7468W        W79893  33.131  38.748  11.490
 7469W        W79894   7.734  15.920   4.873
 7470W        W79895  23.669  31.849  13.000
 7471W        W79896  37.936  14.036   0.238
 7472W        W79897  11.738   3.513  11.177
 7473W        W79898  38.886  33.573   0.343
 7474W        W79899   1.042  13.045  11.708
 7475W        W79900  41.238  13.145   3.885
 7476W        W79901  23.444  11.699  12.032
 7477W        W79902   8.515   6.157  10.193
 7478W        W79903   8.326  35.540   0.760
 7479W        W79904  31.849   9.178  12.594
 7480W        W79905   7.206  19.571  10.917
 7481W        W79906  16.347   1.943   4.170
 7482W        W79907  37.376  19.113   3.760
 7483W        W79908   1.241  32.594  11.692
 7484W        W79909   8.464  19.248  11.319
 7485W        W79910  44.493  19.176  11.729
 7486W        W79911  18.339  43.070  11.067
 7487W        W79912  33.674  13.845  12.964
 7488W        W79913  37.242  27.997   4.932
 7489W        W79914  15.800  31.592   2.890
 7490W        W79915  29.264  14.700   1.722
 7491W        W79916  28.474   3.960   1.049
 7492W        W79917  37.848  40.350  12.815
 7493W        W79918   2.507  35.883   3.902
 7494W        W79919  38.362   7.644  14.312
 7495W        W79920  24.039  21.226   3.239
 7496W        W79921  27.108  22.306   4.578
 7497W        W79922  35.451   0.579   3.268
 7498W        W79923  18.054  33.405  10.684
 7499W        W79924  30.075  19.115  14.078
 7500W        W79925  27.663  42.511  11.946
 7501W        W79926  14.582  40.786  12.071
 7502W        W79927  32.345  14.269   0.804
 7503W        W79928   9.913  23.910   5.110
 7504W        W79929   8.147   9.837   0.219
 7505W        W79930  16.570  18.743   3.605
 7506W        W79931  32.621  13.831   0.907
 7507W        W79932   8.461  19.678   3.385
 7508W        W79933  36.070  32.454  10.681
 7509W        W79934  32.828  37.031   0.278
 7510W        W79935  23.286  29.952   1.210
 7511W        W79936   7.270  14.920   0.940
 7512W        W79937   8.055  38.419  13.851
 7513W        W79938  12.761  14.695  10.415
 7514W        W79939  13.756   5.363  12.481
 7515W        W79940  17.579  20.478  13.997
 7516W        W79941  24.271   8.776  11.539
 7517W        W79942  35.667  36.996  10.697
 7518W        W79943  11.617  32.149   0.905
 7519W        W79944  13.261  12.490  13.817
 7520W        W79945  43.382  24.983  12.014
 7521W        W79946  35.855  34.636  13.957
 7522W        W79947  39.480  34.624   0.864
 7523W        W79948  37.380  25.590   2.521
 7524W        W79949  42.955   4.118  13.501
 7525W        W79950   7.755  24.955   1.370
 7526W        W79951   5.148  34.921  11.561
 7527W        W79952   9.653  34.777   0.957
 7528W        W79953   8.390  19.675   2.871
 7529W        W79954   5.922  40.000  14.760
 7530W        W79955  11.679  41.360   4.236
 7531W        W79956   4.888   6.831  10.851
 7532W        W79957  23.232  22.134   2.257
 7533W        W79958  18.363  41.577  11.100
 7534W        W79959   7.165   6.252   2.734
 7535W        W79960   9.998  36.670  12.919
 7536W        W79961   5.273   9.399  12.098
 7537W        W79962  40.808  20.641   3.408
 7538W        W79963   0.472   1.279  12.544
 7539W        W79964  30.681   1.458  13.484
 7540W        W79965  33.508   8.805   1.251
 7541W        W79966  29.450  15.257   2.863
 7542W        W79967   7.472  30.945  14.385
 7543W        W79968  31.864  28.891   1.825
 7544W        W79969   3.662  29.397  11.065
 7545W        W79970  14.724  12.207   3.968
 7546W        W79971  34.414  24.454  12.904
 7547W        W79972  40.570  21.759   2.927
 7548W        W79973   7.113   1.962  13.849
 7549W        W79974   1.262   3.782  13.646
 7550W        W79975  13.198  36.056  10.659
 7551W        W79976  43.469  43.368   1.682
 7552W        W79977  27.952   8.116  10.161
 7553W        W79978  44.809  41.811  11.386
 7554W        W79979   5.752  44.100  12.626
 7555W        W79980   1.252  20.175   4.495
 7556W        W79981   2.399   8.241   2.663
 7557W        W79982  19.216  40.508  12.876
 7558W        W79983  18.037  21.020   2.836
 7559W        W79984   0.454  25.092   2.261
 7560W        W79985  39.571   5.301  13.379
 7561W        W79986  43.890  31.870  10.546
 7562W        W79987  16.295  23.964   4.325
 7563W        W79988  33.519  29.777  12.203
 7564W        W79989  15.294  18.600   1.719
 7565W        W79990   6.628  29.001  12.434
 7566W        W79991  34.477  22.771  12.989
 7567W        W79992   0.029  17.602   1.749
 7568W        W79993   7.690   1.406   4.731
 7569W        W79994  36.227  23.795  13.842
 7570W        W79995  10.403   7.818  11.297
 7571W        W79996   9.356  32.462   1.849
 7572W        W79997  24.646  14.509  11.123
 7573W        W79998  36.217  16.256   4.224
 7574W        W79999   2.941  16.376  14.332
 7575W        W80000  44.783  33.478   4.388
 7576W        W80001   6.793  17.657   0.642
 7577W        W80002   6.251   9.699   1.850
 7578W        W80003  18.170  41.691   1.583
 7579W        W80004  15.548  27.937  10.964
 7580W        W80005  13.113   8.796  12.568
 7581W        W80006  27.858   0.915  10.645
 7582W        W80007   5.291  16.831   0.296
 7583W        W80008  27.959  10.692  13.930
 7584W        W80009  26.928  23.065   2.741
 7585W        W80010  40.892  31.916   2.384
 7586W        W80011  33.432  21.785   3.159
 7587W        W80012  13.273  32.536  14.714
 7588W        W80013  12.596  39.961  13.015
 7589W        W80014  40.126   8.583  11.982
 7590W        W80015  34.657  24.646  14.220
 7591W        W80016  20.438  35.810   1.425
 7592W        W80017  14.621   4.398  11.202
 7593W        W80018  38.986   8.255   0.348
 7594W        W80019  40.590  28.191   3.406
 7595W        W80020  17.569  23.149  12.096
 7596W        W80021  35.570   7.634  12.573
 7597W        W80022  15.699   7.226   1.314
 7598W        W80023  31.071  29.878  13.973
 7599W        W80024  21.614  24.545   3.691
 7600W        W80025  15.887  16.042   0.829
 7601W        W80026  28.466  27.545   3.144
 7602W        W80027  33.076  13.348  14.291
 7603W        W80028   1.762   5.858   0.045
 7604W        W80029   4.301  38.729  11.484
 7605W        W80030  15.633  12.708   2.292
 7606W        W80031  24.952  22.649   2.730
 7607W        W80032  23.703  37.274   1.895
 7608W        W80033   9.674   3.900  14.103
 7609W        W80034  34.624  20.697   0.993
 7610W        W80035  21.995   3.699  11.952
 7611W        W80036  25.079  21.389   1.421
 7612W        W80037  29.650  38.900   4.637
 7613W        W80038  32.363  26.183   1.844
 7614W        W80039  41.213  41.682   2.707
 7615W        W80040   6.449  14.203   4.081
 7616W        W80041   7.408   4.880   3.586
 7617W        W80042  23.148  43.334   3.664
 7618W        W80043  20.085  30.417   0.623
 7619W        W80044  30.324  16.130   1.804
 7620W        W80045  28.890  35.177  12.945
 7621W        W80046   7.877  37.004  12.055
 7622W        W80047   1.501  33.919   3.236
 7623W        W80048  12.054  20.829  10.525
 7624W        W80049  26.699   5.876   9.925
 7625W        W80050  40.128   8.853   0.300
 7626W        W80051  33.204  16.358  13.413
 7627W        W80052  19.547   3.219   4.248
 7628W        W80053   2.016   7.163  14.734
 7629W        W80054  22.540  28.447  14.527
 7630W        W80055  24.974  25.019  13.583
 7631W        W80056  41.092  35.619  12.685
 7632W        W80057  42.767  24.495   0.839
 7633W        W80058   7.033  31.554  14.030
 7634W        W80059  10.256  39.319   4.106
 7635W        W80060   7.636  26.130   3.291
 7636W        W80061  12.886   9.414  10.825
 7637W        W80062  34.986  14.228   5.064
 7638W        W80063  39.367  29.409  13.495
 7639W        W80064  34.595  20.606   1.901
 7640W        W80065  13.273   9.713   0.502
 7641W        W80066  19.729  15.747   4.991
 7642W        W80067   8.786  42.570  12.999
 7643W        W80068   5.118   3.507  13.421
 7644W        W80069   3.003  26.454   3.175
 7645W        W80070  25.943   5.758  12.444
 7646W        W80071  41.552  35.893  12.970
 7647W        W80072  37.952   1.488   4.746
 7648W        W80073   7.468   2.767  14.347
 7649W        W80074  34.676  29.750   1.706
 7650W        W80075  20.074  13.412   2.806
 7651W        W80076  42.353  32.083  13.023
 7652W        W80077  33.298  18.770   3.185
 7653W        W80078   3.475  36.084   4.194
 7654W        W80079  22.402   1.969   4.186
 7655W        W80080  19.028  35.949  13.831
 7656W        W80081  20.567  30.570   4.124
 7657W        W80082  40.421  24.108  11.624
 7658W        W80083   1.521  30.879  11.139
 7659W        W80084  39.420  33.452  13.735
 7660W        W80085  12.102  34.782   4.206
 7661W        W80086  44.534   7.375  13.994
 7662W        W80087  10.664  12.243   4.324
 7663W        W80088  27.637  14.045  11.281
 7664W        W80089  43.840   6.916  11.933
 7665W        W80090  20.051  41.596   4.184
 7666W        W80091  37.156  13.256  11.117
 7667W        W80092  36.285  30.081  11.653
 7668W        W80093  16.215   7.276   3.114
 7669W        W80094  14.132  36.320   4.245
 7670W        W80095  21.621  26.168   4.273
 7671W        W80096  16.797  44.536  12.166
 7672W        W80097  40.757   6.382  14.393
 7673W        W80098   3.330  14.538   5.052
 7674W        W80099  10.518  24.212   3.774
 7675W        W80100   2.026  29.172  10.731
 7676W        W80101  41.867  20.222   3.394
 7677W        W80102  31.172  20.346  11.893
 7678W        W80103  41.077  44.738  13.398
 7679W        W80104  13.082  25.466  12.812
 7680W        W80105   9.325   0.834  11.417
 7681W        W80106   6.167  14.534  10.575
 7682W        W80107  27.718  27.088  10.582
 7683W        W80108  11.979  42.524  12.096
 7684W        W80109   3.589   0.249  13.527
 7685W        W80110  16.140  21.503   0.949
 7686W        W80111  36.584  24.058   9.994
 7687W        W80112  15.260  31.383  13.331
 7688W        W80113  37.060  26.585  13.952
 7689W        W80114  27.076  19.675   2.313
 7690W        W80115  34.421  14.422  12.105
 7691W        W80116   5.511  33.049   3.847
 7692W        W80117   1.476   6.924   4.119
 7693W        W80118  17.119  22.749  13.772
 7694W        W80119   8.831  34.790  10.185
 7695W        W80120  25.021  15.282   2.621
 7696W        W80121  31.906  29.962   2.924
 7697W        W80122  41.575  36.973  12.980
 7698W        W80123  12.289  13.057  12.948
 7699W        W80124   6.063   0.357  14.700
 7700W        W80125  42.729  15.517   3.387
 7701W        W80126  20.918  31.401  13.286
 7702W        W80127  43.030   0.728  11.051
 7703W        W80128   2.164  13.554  12.121
 7704W        W80129  33.343  44.937   1.224
 7705W        W80130  43.312  40.483   0.295
 7706W        W80131  29.163  11.324   3.631
 7707W        W80132  29.526   7.725   4.961
 7708W        W80133  33.455  37.831  14.100
 7709W        W80134  24.304  30.643   3.747
 7710W        W80135  41.738  20.028   1.443
 7711W        W80136  22.451  27.006   3.929
 7712W        W80137  33.228  27.111  13.839
 7713W        W80138  24.566   9.911  12.980
 7714W        W80139  27.034   2.492  12.431
 7715W        W80140  32.468  18.994   4.243
 7716W        W80141  27.543   1.252  12.502
 7717W        W80142   5.640   2.315   0.433
 7718W        W80143  20.198  14.271   1.265
 7719W        W80144  29.873  17.400   3.338
 7720W        W80145  14.445   2.333   1.297
 7721W        W80146  41.453  28.230   3.877
 7722W        W80147   9.800  26.507  12.376
 7723W        W80148  25.496   2.897  13.118
 7724W        W80149  29.424   7.964   1.224
 7725W        W80150   0.719   9.866   4.602
 7726W        W80151  20.673   2.466  13.399
 7727W        W80152  22.448   7.338  10.215
 7728W        W80153  15.391   9.150  13.148
 7729W        W80154  15.090  31.991   1.592
 7730W        W80155   4.327  37.231  11.567
 7731W        W80156  36.229  38.735   5.038
 7732W        W80157  20.808  22.670  10.991
 7733W        W80158  20.308  38.925   0.964
 7734W        W80159  13.063  30.609  10.775
 7735W        W80160  24.048  12.435  14.337
 7736W        W80161  18.385   2.092  14.291
 7737W        W80162  41.445  30.357   0.278
 7738W        W80163  22.024  32.457  14.817
 7739W        W80164  16.150   5.575  10.884
 7740W        W80165  40.812  17.275  12.932
 7741W        W80166  13.836  40.173   4.296
 7742W        W80167  39.022  12.556  10.953
 7743W        W80168  10.361  41.857   2.201
 7744W        W80169  31.553  19.311   4.239
 7745W        W80170  39.088   3.135  11.551
 7746W        W80171  17.650   2.446  14.806
 7747W        W80172  15.021  16.275  11.056
 7748W        W80173  31.478  40.668   1.467
 7749W        W80174  29.414  29.793  12.074
 7750W        W80175  31.570  13.205  11.751
 7751W        W80176  13.606  21.158  13.478
 7752W        W80177   9.222  40.813   0.548
 7753W        W80178  34.369  29.157  13.436
 7754W        W80179  24.070   9.606   4.631
 7755W        W80180  12.064   9.932   1.148
 7756W        W80181  40.900  22.059  11.642
 7757W        W80182   9.497  38.933   2.407
 7758W        W80183   8.859   5.900  11.549
 7759W        W80184  27.691  34.856   5.419
 7760W        W80185   1.262  26.481  11.041
 7761W        W80186  22.319  22.161  11.835
 7762W        W80187   7.231  37.359   0.786
 7763W        W80188   9.454  10.395   4.818
 7764W        W80189  10.365  16.676   2.484
 7765W        W80190  42.921  40.090  10.781
 7766W        W80191   2.188  44.229  11.948
 7767W        W80192  44.824   5.553   1.845
 7768W        W80193  28.986  14.345   2.733
 7769W        W80194  34.083  20.018  13.827
 7770W        W80195  34.154  13.212   2.785
 7771W        W80196  13.988   0.677  12.443
 7772W        W80197  37.548   7.768   1.613
 7773W        W80198  37.115  26.196   4.031
 7774W        W80199  27.548  16.653   4.191
 7775W        W80200   1.206  20.304  14.217
 7776W        W80201   5.256  43.854  12.662
 7777W        W80202  25.455   5.938  12.452
 7778W        W80203   7.302   8.129   2.172
 7779W        W80204  31.692  11.301  14.372
 7780W        W80205  32.482   7.632  11.880
 7781W        W80206  24.971  23.512   3.318
 7782W        W80207  24.508  23.240   2.238
 7783W        W80208  41.984  10.117   0.713
 7784W        W80209  27.830  22.630  10.739
 7785W        W80210  21.369  31.912   3.348
 7786W        W80211  19.664   4.218   4.535
 7787W        W80212   9.916  37.627   1.281
 7788W        W80213   6.837   3.018   3.798
 7789W        W80214  12.802   5.665  13.122
 7790W        W80215   2.015   4.437   1.434
 7791W        W80216  32.961  32.111  10.238
 7792W        W80217  44.317   8.531   3.238
 7793W        W80218   7.129  10.751  12.436
 7794W        W80219  16.585  22.570   4.123
 7795W        W80220  27.633   2.308   1.303
 7796W        W80221   4.401  26.642   3.686
 7797W        W80222  27.967  32.359  13.445
 7798W        W80223  40.302  39.395  12.841
 7799W        W80224  34.576  32.374  13.387
 7800W        W80225   9.713   5.649  13.310
 7801W        W80226  30.521  16.161  11.280
 7802W        W80227  15.706   1.994  11.024
 7803W        W80228  26.302   6.638  12.464
 7804W        W80229  11.961  32.196  12.369
 7805W        W80230  11.524   9.378  11.786
 7806W        W80231   7.203   2.803  13.032
 7807W        W80232  43.987  25.750   2.989
 7808W        W80233  16.124  19.804  11.591
 7809W        W80234   1.803  44.442  10.630
 7810W        W80235   5.624  12.561  12.034
 7811W        W80236  26.689  22.003   0.065
 7812W        W80237  11.794  42.054  12.122
 7813W        W80238  25.594  40.991   2.767
 7814W        W80239  41.579   1.440  10.985
 7815W        W80240  38.616   0.554  13.041
 7816W        W80241  23.234  36.013  14.465
 7817W        W80242   4.413  22.167   2.924
 7818W        W80243   5.701   9.899  12.856
 7819W        W80244   4.896  24.124   2.220
 7820W        W80245  15.767  41.811  12.783
 7821W        W80246  43.176   3.325  14.214
 7822W        W80247  30.006   2.875   1.277
 7823W        W80248  21.023  26.113   4.939
 7824W        W80249   6.472   7.924  13.402
 7825W        W80250  36.910  40.272  13.488
 7826W        W80251  42.528  42.957  12.311
 7827W        W80252  25.459  20.693  13.554
 7828W        W80253  37.953  25.130   1.008
 7829W        W80254  40.448   6.467  12.978
 7830W        W80255  27.340  33.906   9.736
 7831W        W80256  35.296  38.369   2.718
 7832W        W80257  17.243  21.174  12.155
 7833W        W80258   2.997  10.793   3.184
 7834W        W80259  33.913  28.617   0.319
 7835W        W80260  33.593  30.055   2.411
 7836W        W80261   6.706   3.698   4.345
 7837W        W80262  16.750   2.372   3.305
 7838W        W80263   5.886  33.673  10.890
 7839W        W80264  36.009  20.552  12.266
 7840W        W80265  38.555   6.769   2.431
 7841W        W80266  19.099   3.249  13.843
 7842W        W80267  18.805  40.359   0.857
 7843W        W80268  10.797  44.929  10.552
 7844W        W80269  34.647   8.666  12.513
 7845W        W80270  24.767  13.860   1.318
 7846W        W80271  22.479  17.129   2.885
 7847W        W80272  30.622  18.109  12.166
 7848W        W80273  14.655  43.243   4.625
 7849W        W80274   5.841  17.632  12.337
 7850W        W80275  27.683  17.333  12.262
 7851W        W80276  12.514  12.988   2.103
 7852W        W80277  38.909  43.874   3.185
 7853W        W80278  39.876   8.877   3.313
 7854W        W80279  33.591  24.940  10.758
 7855W        W80280  40.271   3.931   2.933
 7856W        W80281  44.751   1.994  14.931
 7857W        W80282  24.406   3.377   4.127
 7858W        W80283   7.703  43.244  13.420
 7859W        W80284   0.528  32.073  14.285
 7860W        W80285   8.269  35.507  10.234
 7861W        W80286  44.862  22.694  12.174
 7862W        W80287  15.142  21.080   4.297
 7863W        W80288  40.612  44.907  12.866
 7864W        W80289  32.444  10.886  13.914
 7865W        W80290  30.339  33.420  14.292
 7866W        W80291  23.660  39.922  11.277
 7867W        W80292  37.667   6.433   4.202
 7868W        W80293  36.396   6.358   1.725
 7869W        W80294  16.096   7.371  10.741
 7870W        W80295   0.983  39.963   1.729
 7871W        W80296   2.425  25.911   3.800
 7872W        W80297   2.936  13.012  12.933
 7873W        W80298  15.593  19.809   1.980
 7874W        W80299  11.941  34.056   1.059
 7875W        W80300  36.173   7.201   0.945
 7876W        W80301  11.813  32.293  13.543
 7877W        W80302  43.761  36.009   0.903
 7878W        W80303  37.122  43.343   2.164
 7879W        W80304   2.880  44.510  12.536
 7880W        W80305  27.236  36.728   0.270
 7881W        W80306  10.834  24.141   0.416
 7882W        W80307  39.341  44.414   1.736
 7883W        W80308  44.252  21.361   0.430
 7884W        W80309  40.996  42.233   2.284
 7885W        W80310   9.848  44.922  12.512
 7886W        W80311  16.325   1.116  13.781
 7887W        W80312  23.673  19.341  10.726
 7888W        W80313  18.908  10.122  14.531
 7889W        W80314  33.405   3.263  13.490
 7890W        W80315   0.188  43.048   1.196
 7891W        W80316  37.434  24.521   1.536
 7892W        W80317  16.168  44.880  10.709
 7893W        W80318   7.958  17.702   1.922
 7894W        W80319  41.044   8.357  11.120
 7895W        W80320  35.551   0.247   1.844
 7896W        W80321  19.501  30.946  14.358
 7897W        W80322  42.878  25.971  12.461
 7898W        W80323  12.932  28.153   1.773
 7899W        W80324  17.231  14.531  13.761
 7900W        W80325  37.308  22.103   3.591
 7901W        W80326   4.884  12.864  12.321
 7902W        W80327  26.398   5.433  13.753
 7903W        W80328   2.947  40.846   4.168
 7904W        W80329  14.008  17.062   2.242
 7905W        W80330  26.695  22.055   4.815
 7906W        W80331  21.288  26.090   0.300
 7907W        W80332   9.102  43.618   0.423
 7908W        W80333  18.479  29.151  14.837
 7909W        W80334   5.426  16.607  11.404
 7910W        W80335   1.223   0.544  10.999
 7911W        W80336  26.685  14.181   2.737
 7912W        W80337  19.999  41.344  13.374
 7913W        W80338  39.052  20.285  10.529
 7914W        W80339  19.671  14.996  12.391
 7915W        W80340  12.819  40.855   3.193
 7916W        W80341  10.571  14.773   2.142
 7917W        W80342  42.389   6.320   4.323
 7918W        W80343  41.394  42.605   2.900
 7919W        W80344  31.916  38.926   2.777
 7920W        W80345  20.045  37.524   3.828
 7921W        W80346  11.200  21.495   1.704
 7922W        W80347  34.481   8.314  11.345
 7923W        W80348  20.526  14.775  14.228
 7924W        W80349  22.526  26.009   1.235
 7925W        W80350  42.926  39.245  14.024
 7926W        W80351  33.714  35.018  10.293
 7927W        W80352  27.737  16.717  10.986
 7928W        W80353   8.772  12.143  14.991
 7929W        W80354   5.427  42.175   2.272
 7930W        W80355  31.318  25.125   2.870
 7931W        W80356  10.281   0.929  14.697
 7932W        W80357  41.547  26.927  11.382
 7933W        W80358  34.510  11.568  14.815
 7934W        W80359  22.844  41.254   2.809
 7935W        W80360  37.500  28.665  10.607
 7936W        W80361  21.973  37.011   2.288
 7937W        W80362  34.844  15.542   4.158
 7938W        W80363  21.869  39.934   5.119
 7939W        W80364  17.245  29.168   4.299
 7940W        W80365  34.123  26.392   4.761
 7941W        W80366  22.117  29.670   3.415
 7942W        W80367   6.303  38.720  10.982
 7943W        W80368   5.151  12.665  11.899
 7944W        W80369   5.459   9.808   2.382
 7945W        W80370   0.740  43.390   1.410
 7946W        W80371  22.033  12.167  14.826
 7947W        W80372   1.419  24.267  11.849
 7948W        W80373   3.906   5.628   4.118
 7949W        W80374  25.815   1.898   0.946
 7950W        W80375   7.463  10.739   4.222
 7951W        W80376  22.915  44.816  12.970
 7952W        W80377  28.963  23.482   4.669
 7953W        W80378  13.306  15.238   3.114
 7954W        W80379   5.914  16.835   0.002
 7955W        W80380   4.403  39.858   2.893
 7956W        W80381  12.825  37.431   4.984
 7957W        W80382   8.128  42.976  13.383
 7958W        W80383  21.543  41.510  13.395
 7959W        W80384   5.742  28.229  14.785
 7960W        W80385   4.504  36.078   0.907
 7961W        W80386  43.786   0.090  12.516
 7962W        W80387  39.255  19.895  14.368
 7963W        W80388   4.228   7.894  12.871
 7964W        W80389  42.734   0.264  11.241
 7965W        W80390  25.378  16.237  14.289
 7966W        W80391  41.038   8.298  12.018
 7967W        W80392   3.818  43.093  14.846
 7968W        W80393  43.578   8.711   1.698
 7969W        W80394   2.362  27.694  13.464
 7970W        W80395  15.356  31.640   0.283
 7971W        W80396  29.148  12.728  11.228
 7972W        W80397  14.176  38.383   4.115
 7973W        W80398   5.855  23.024  12.076
 7974W        W80399   6.336  28.184   4.567
 7975W        W80400  34.391  30.689   3.616
 7976W        W80401  18.249  16.322  14.283
 7977W        W80402  19.864  31.637  12.028
 7978W        W80403  16.519   0.242   4.190
 7979W        W80404  30.893  25.208   3.701
 7980W        W80405  28.608  29.124  12.596
 7981W        W80406   3.401  11.670   4.489
 7982W        W80407  39.996   8.348   0.293
 7983W        W80408  17.188  29.339  12.918
 7984W        W80409  24.134   0.078   2.423
 7985W        W80410  11.227  19.179  11.103
 7986W        W80411  40.332  33.557  10.188
 7987W        W80412   5.811  25.115   2.891
 7988W        W80413  24.495  23.257  12.930
 7989W        W80414  24.172  34.896   0.462
 7990W        W80415  31.392  17.754  10.245
 7991W        W80416  13.644  11.094  12.399
 7992W        W80417  14.504  28.211  14.598
 7993W        W80418   1.466  39.943  10.720
 7994W        W80419  13.520  22.076  14.017
 7995W        W80420  13.072  13.853   2.232
 7996W        W80421  33.690  43.854   0.833
 7997W        W80422  30.972  12.853   0.836
 7998W        W80423   6.365  36.935   4.977
 7999W        W80424  33.218  13.822   3.613
 8000W        W80425  22.494  25.666   1.738
 8001W        W80426  18.129   4.234  12.864
 8002W        W80427  21.037  26.128   4.419
 8003W        W80428  16.627  37.013   0.452
 8004W        W80429  15.649  20.006   3.028
 8005W        W80430  34.370  18.150   0.414
 8006W        W80431  36.555  32.920   2.079
 8007W        W80432  15.695  43.636  10.571
 8008W        W80433  13.391  26.101  11.983
 8009W        W80434  25.776  11.265  11.053
 8010W        W80435   2.398  12.212  14.075
 8011W        W80436  16.232   0.252   4.627
 8012W        W80437   3.758  29.397  12.394
 8013W        W80438  29.950   7.308   3.383
 8014W        W80439  15.982  27.522   1.307
 8015W        W80440  43.289  10.425   1.730
 8016W        W80441  34.507   3.741  10.500
 8017W        W80442   4.929  13.805  13.336
 8018W        W80443  34.343  29.453   0.355
 8019W        W80444  15.259   8.575   0.545
 8020W        W80445   5.289   4.413   0.731
 8021W        W80446  37.386  40.970   1.630
 8022W        W80447  10.401  31.930   2.687
 8023W        W80448  39.674  40.033   1.390
 8024W        W80449  29.626  39.545  14.997
 8025W        W80450  11.730  15.865  11.998
 8026W        W80451  34.880  20.219   3.655
 8027W        W80452  16.094  32.338   2.309
 8028W        W80453  41.409  20.464   3.640
 8029W        W80454  41.892  24.627   3.752
 8030W        W80455  29.132  17.084  11.155
 8031W        W80456  34.074  14.791   2.738
 8032W        W80457  26.582  24.906  10.339
 8033W        W80458  32.631   2.199  13.967
 8034W        W80459   7.437  43.767   1.004
 8035W        W80460  12.953  12.278  11.595
 8036W        W80461  14.352  26.193  14.439
 8037W        W80462  29.208  40.538  14.293
 8038W        W80463   4.958  37.919  10.662
 8039W        W80464  15.256  10.086   2.892
 8040W        W80465  17.320  17.642   3.551
 8041W        W80466   1.699  43.590   0.340
 8042W        W80467  44.973  21.051   2.473
 8043W        W80468  33.110  29.078  10.712
 8044W        W80469  41.851  28.512   4.613
 8045W        W80470   5.252  13.106   2.780
 8046W        W80471   6.826  27.950  12.954
 8047W        W80472  12.160  23.850   0.279
 8048W        W80473  37.293  41.289  11.965
 8049W        W80474   0.352  12.931  11.896
 8050W        W80475  20.751   3.838  14.956
 8051W        W80476  26.653  41.310  14.453
 8052W        W80477  39.278  17.754   1.338
 8053W        W80478   0.799  14.704   2.789
 8054W        W80479   5.177  36.068  13.171
 8055W        W80480  28.585  39.052   2.270
 8056W        W80481  33.457  34.906   1.166
 8057W        W80482   1.924  30.978  12.274
 8058W        W80483  44.358   2.176  12.019
 8059W        W80484   2.401  31.930   2.659
 8060W        W80485  32.447   7.770  12.392
 8061W        W80486  23.094  20.334   4.121
 8062W        W80487  37.799  38.959   2.618
 8063W        W80488  25.851  19.696  12.063
 8064W        W80489   0.389  42.914  10.606
 8065W        W80490  18.797  37.711   1.448
 8066W        W80491  17.253  42.650   4.684
 8067W        W80492  18.505  14.574  14.487
 8068W        W80493  34.520  27.881   3.135
 8069W        W80494  27.400  31.516  10.955
 8070W        W80495  30.261  30.437   4.281
 8071W        W80496   4.957  21.465   1.173
 8072W        W80497  11.094  41.889  12.965
 8073W        W80498  13.685  22.098  14.915
 8074W        W80499  19.786  20.748   1.252
 8075W        W80500   9.702  36.267   4.485
 8076W        W80501  26.392  33.244  11.141
 8077W        W80502  40.857  23.482  11.582
 8078W        W80503  24.666  15.760  14.393
 8079W        W80504  23.588   9.214  14.506
 8080W        W80505   0.472  36.003   2.841
 8081W        W80506  17.666  44.483   3.746
 8082W        W80507  15.085  19.051  12.398
 8083W        W80508   7.398  31.497   1.320
 8084W        W80509  44.235  28.363   4.988
 8085W        W80510   6.796  21.796  13.011
 8086W        W80511   2.662  24.566   4.343
 8087W        W80512   9.866  33.997  12.026
 8088W        W80513  41.328  14.251  12.730
 8089W        W80514  13.187  32.052   1.931
 8090W        W80515  38.366  31.488  10.834
 8091W        W80516  39.799   7.030  11.731
 8092W        W80517  14.117  27.583   0.013
 8093W        W80518  40.892  26.656  13.314
 8094W        W80519   1.052  20.251   2.729
 8095W        W80520   8.109  32.709  13.651
 8096W        W80521  20.146   1.263   1.290
 8097W        W80522  41.048   4.615  10.178
 8098W        W80523  40.597  11.301  12.485
 8099W        W80524  15.576  30.214  11.620
 8100W        W80525  43.703  39.829   4.577
 8101W        W80526  21.970  28.453   0.801
 8102W        W80527  10.837  11.623   0.597
 8103W        W80528  19.523  44.883   3.625
 8104W        W80529  41.400  18.128   2.431
 8105W        W80530   5.409  42.940   1.903
 8106W        W80531  33.722  34.000  10.234
 8107W        W80532  34.657  22.846  11.649
 8108W        W80533  34.682   1.467   1.823
 8109W        W80534  21.721   1.681   3.670
 8110W        W80535  43.939  23.805  11.445
 8111W        W80536   2.261  29.213   3.213
 8112W        W80537   7.926  39.678   0.082
 8113W        W80538  44.956  42.656  11.643
 8114W        W80539   2.198  30.347   2.819
 8115W        W80540   4.817  38.875  11.578
 8116W        W80541  11.345  11.848  13.089
 8117W        W80542   2.414  16.671  13.113
 8118W        W80543  34.716  13.331  14.330
 8119W        W80544  27.272  26.208   0.420
 8120W        W80545  37.963  11.454   1.435
 8121W        W80546  31.606  31.971   2.691
 8122W        W80547   6.819  29.614   0.672
 8123W        W80548   1.017  31.407  14.864
 8124W        W80549  36.677  14.759  14.878
 8125W        W80550  24.478  22.660  14.976
 8126W        W80551  25.964  13.567   3.304
 8127W        W80552  39.439  14.222   2.707
 8128W        W80553  30.057   6.436   2.830
 8129W        W80554  24.262  25.134  12.980
 8130W        W80555  43.391  38.040  13.563
 8131W        W80556  42.821  23.487  14.893
 8132W        W80557  13.226  17.718  11.548
 8133W        W80558  24.778  25.046  13.077
 8134W        W80559  19.838   1.422   0.905
 8135W        W80560   2.280  16.663  13.613
 8136W        W80561   4.656  15.663   0.127
 8137W        W80562  19.258  30.861   0.865
 8138W        W80563  42.795  44.595   4.550
 8139W        W80564   2.356  13.977  12.366
 8140W        W80565  24.789   8.645   2.160
 8141W        W80566  13.918   2.369   1.304
 8142W        W80567  17.127  15.853   4.967
 8143W        W80568  39.305  24.732   3.627
 8144W        W80569  29.582  36.620  14.465
 8145W        W80570  37.030  21.249  12.904
 8146W        W80571  36.153  14.819   1.669
 8147W        W80572  16.706   3.428   1.153
 8148W        W80573  10.935  32.218  13.510
 8149W        W80574   7.340  30.962  11.094
 8150W        W80575   9.955   0.222  12.990
 8151W        W80576  31.424  34.863  14.860
 8152W        W80577   1.488   1.453  13.417
 8153W        W80578  40.024  36.900   0.310
 8154W        W80579  19.269  13.197   3.207
 8155W        W80580  26.246  16.213  13.948
 8156W        W80581  30.905   1.794  12.617
 8157W        W80582  42.053  15.594   0.040
 8158W        W80583  25.693  35.033   2.173
 8159W        W80584  33.683  25.015  11.975
 8160W        W80585  35.967  32.938  11.506
 8161W        W80586  27.391  20.771   2.809
 8162W        W80587   4.775   7.813   4.811
 8163W        W80588  20.500  16.243   2.133
 8164W        W80589  35.998  19.301  14.615
 8165W        W80590   4.907  36.822  14.308
 8166W        W80591  28.003  38.256  10.512
 8167W        W80592   5.030  32.397   1.411
 8168W        W80593   1.020  21.057  14.783
 8169W        W80594  12.454  35.814  12.031
 8170W        W80595  30.017  35.882   4.852
 8171W        W80596  16.065  42.167   1.454
 8172W        W80597  10.054  16.104   0.190
 8173W        W80598  35.830   7.986   2.368
 8174W        W80599  39.560  39.120  11.161
 8175W        W80600  33.108  24.467  14.978
 8176W        W80601  37.361   6.203   0.545
 8177W        W80602  13.087   8.291   4.828
 8178W        W80603   9.232  39.767   1.878
 8179W        W80604  42.915   5.722   2.821
 8180W        W80605  26.487  34.877   1.195
 8181W        W80606  42.248  31.045   4.242
 8182W        W80607  13.682  28.651  11.177
 8183W        W80608  41.230  22.345   1.726
 8184W        W80609  35.468  16.803   1.922
 8185W        W80610  26.134   3.248   1.094
 8186W        W80611  39.052  21.622  12.533
 8187W        W80612  16.260  33.428   2.942
 8188W        W80613  37.856  33.576  11.837
 8189W        W80614   2.630  36.397   0.334
 8190W        W80615  40.260   4.364  11.230
 8191W        W80616  15.735  20.263   4.612
 8192W        W80617   5.495  34.628   1.470
 8193W        W80618  32.486   8.655  14.546
 8194W        W80619  33.618  18.304  10.242
 8195W        W80620  38.616  39.339  11.966
 8196W        W80621  22.534   5.144  14.479
 8197W        W80622   9.738  41.027  13.443
 8198W        W80623   6.365  42.437   4.351
 8199W        W80624  36.469  21.174   3.888
 8200W        W80625  14.505   1.231   3.417
 8201W        W80626  25.790  40.005   0.919
 8202W        W80627  18.645  20.049  14.671
 8203W        W80628  20.125  35.600   4.597
 8204W        W80629  18.619  35.646   4.134
 8205W        W80630  24.705  22.456   3.117
 8206W        W80631   6.309   0.403  14.247
 8207W        W80632   3.170  13.880  14.013
 8208W        W80633   8.314  25.703   4.027
 8209W        W80634  12.328  39.277   0.355
 8210W        W80635  44.348   0.859   2.479
 8211W        W80636  19.568  35.100   0.757
 8212W        W80637   0.098  19.780  11.062
 8213W        W80638   3.609  13.366  14.463
 8214W        W80639  11.234   2.703  12.989
 8215W        W80640   7.034  12.967  10.990
 8216W        W80641  33.980  38.179  12.439
 8217W        W80642  32.148  31.128   2.696
 8218W        W80643  22.219   1.847  11.493
 8219W        W80644  41.704  37.700   2.698
 8220W        W80645   4.392   6.712   4.231
 8221W        W80646  28.035  18.654   2.519
 8222W        W80647  29.826   1.316  13.666
 8223W        W80648   3.496  36.432   1.805
 8224W        W80649  24.270  27.701  11.552
 8225W        W80650  33.752  15.812   1.268
 8226W        W80651   1.826  14.649   2.744
 8227W        W80652  37.805  15.692   3.101
 8228W        W80653   5.363  38.102   1.828
 8229W        W80654  24.099  41.777  13.125
 8230W        W80655  38.479  26.992   2.370
 8231W        W80656  22.994  44.723   3.609
 8232W        W80657  44.529   9.247   2.326
 8233W        W80658  33.152  12.545   3.311
 8234W        W80659   8.755  37.998  14.144
 8235W        W80660  12.177   3.385  11.866
 8236W        W80661  15.330  43.977   1.752
 8237W        W80662  27.211   6.693  13.865
 8238W        W80663   8.132   2.351  12.050
 8239W        W80664  33.866  11.342  10.651
 8240W        W80665  28.179  34.532  12.579
 8241W        W80666  30.188  20.180   4.067
 8242W        W80667  37.752  18.292   9.904
 8243W        W80668  25.336   6.443   1.222
 8244W        W80669  37.090   1.778   4.329
 8245W        W80670  21.757  19.617   0.023
 8246W        W80671  36.926  32.944  14.785
 8247W        W80672  30.390  14.340  12.081
 8248W        W80673  39.007   9.637   4.191
 8249W        W80674  34.082  19.642   4.680
 8250W        W80675  36.827  12.818   0.988
 8251W        W80676  24.683  37.027  14.341
 8252W        W80677  12.746  40.787  12.501
 8253W        W80678  16.266  36.562   2.164
 8254W        W80679  41.740  32.379  11.970
 8255W        W80680  20.586  11.371   2.788
 8256W        W80681  26.372  34.660  13.525
 8257W        W80682  22.457  34.137  13.066
 8258W        W80683   1.674  18.417   1.781
 8259W        W80684  10.252  13.062  14.387
 8260W        W80685  36.745   2.371  13.631
 8261W        W80686   0.883  26.531  13.290
 8262W        W80687  17.344  14.974  13.984
 8263W        W80688   5.777  13.824  12.365
 8264W        W80689   8.168  39.286   3.223
 8265W        W80690  28.528  23.028   3.106
 8266W        W80691  19.649  29.168   4.852
 8267W        W80692  38.870  40.586   0.864
 8268W        W80693   6.937  43.780   2.381
 8269W        W80694   9.667  15.749   1.292
 8270W        W80695   8.738   0.366  10.655
 8271W        W80696   0.824  38.453   0.993
 8272W        W80697  28.075  28.133   3.087
 8273W        W80698  40.409  38.756   3.047
 8274W        W80699  33.008  37.505   4.611
 8275W        W80700  30.866  35.946  10.783
 8276W        W80701  20.523  24.669  12.895
 8277W        W80702  27.897  37.660   4.236
 8278W        W80703   4.496  23.560  11.439
 8279W        W80704  23.155  23.443   1.817
 8280W        W80705  17.153   8.280   4.396
 8281W        W80706   2.963  44.266  14.754
 8282W        W80707  39.569  34.251  14.775
 8283W        W80708  23.589  11.868   3.221
 8284W        W80709  36.847   6.234  11.262
 8285W        W80710  21.659  38.068  14.098
 8286W        W80711  12.865  33.339  12.574
 8287W        W80712  43.887  15.579   4.369
 8288W        W80713   9.064  17.788   4.130
 8289W        W80714  16.306   2.697  12.658
 8290W        W80715  30.581  40.875   1.523
 8291W        W80716  19.991  38.992  14.089
 8292W        W80717  11.618  27.462  11.004
 8293W        W80718  17.376  27.079   4.553
 8294W        W80719   4.944  38.584   2.345
 8295W        W80720  30.506  29.358  11.805
 8296W        W80721  27.763  31.058   1.208
 8297W        W80722  42.431  20.726  11.075
 8298W        W80723  17.313   5.935  12.838
 8299W        W80724  32.685  20.492  11.606
 8300W        W80725  34.078   3.265  12.987
 8301W        W80726   8.408  23.710   1.017
 8302W        W80727  27.054  16.255   2.342
 8303W        W80728   7.647  41.260  13.788
 8304W        W80729  10.160  13.934  14.745
 8305W        W80730  24.913  43.016  12.046
 8306W        W80731  39.257  36.461  13.728
 8307W        W80732  17.748  42.447  12.594
 8308W        W80733  14.993   2.338  13.003
 8309W        W80734  24.337  21.169  10.045
 8310W        W80735  22.547  31.013   2.374
 8311W        W80736   5.774  44.234   3.290
 8312W        W80737  15.313  42.909   3.121
 8313W        W80738  27.648  30.117  10.485
 8314W        W80739  38.548   2.475  13.049
 8315W        W80740  39.437   4.294  11.300
 8316W        W80741  13.140  41.123  12.596
 8317W        W80742  31.176   2.811   1.722
 8318W        W80743  33.116  24.906  12.028
 8319W        W80744  41.024   2.807  12.568
 8320W        W80745   3.802  19.147   3.120
 8321W        W80746  31.614  29.981  12.515
 8322W        W80747  33.419  33.884   0.325
 8323W        W80748   7.727   1.704   4.074
 8324W        W80749  11.679  40.036  13.443
 8325W        W80750  29.432  11.747   1.168
 8326W        W80751   8.757  43.536  14.886
 8327W        W80752  23.645  37.393  14.973
 8328W        W80753  39.902  22.765   4.159
 8329W        W80754  34.868   6.238  13.487
 8330W        W80755  38.920  21.970   2.204
 8331W        W80756  32.527  27.398   0.340
 8332W        W80757  15.782  34.818   0.412
 8333W        W80758  16.619  37.124   3.403
 8334W        W80759  13.749  43.061  13.878
 8335W        W80760  36.587  17.921   3.283
 8336W        W80761  21.988  29.037   1.384
 8337W        W80762   7.332   9.754   3.608
 8338W        W80763  10.948  30.672   3.774
 8339W        W80764  29.375   0.317  12.329
 8340W        W80765  31.215  15.665  14.916
 8341W        W80766  15.445   0.302  11.185
 8342W        W80767  38.500  18.333  13.988
 8343W        W80768   4.732  10.849  12.898
 8344W        W80769  41.988   4.718   4.198
 8345W        W80770   2.261  22.048   0.930
 8346W        W80771  24.014   5.279   2.229
 8347W        W80772  19.304  38.619  14.828
 8348W        W80773  38.885  25.516  13.017
 8349W        W80774   7.372   4.231   2.737
 8350W        W80775   0.807  27.129   2.320
 8351W        W80776  40.546  24.553  14.627
 8352W        W80777  35.601   5.294   0.107
 8353W        W80778  43.562  41.506  11.212
 8354W        W80779  10.678  27.154   3.894
 8355W        W80780  12.674   5.677  14.017
 8356W        W80781   1.404  27.620  13.236
 8357W        W80782  13.635  24.674   4.097
 8358W        W80783  19.639  11.121  13.052
 8359W        W80784  12.018  34.460  11.141
 8360W        W80785  42.132  43.285  12.454
 8361W        W80786   9.127  20.711   2.820
 8362W        W80787  42.449  23.547   0.297
 8363W        W80788  19.196   5.047   2.180
 8364W        W80789  32.497  27.964   2.757
 8365W        W80790   4.948  25.468  13.023
 8366W        W80791   1.191   1.029  13.380
 8367W        W80792  30.871  20.219   0.319
 8368W        W80793  32.580  22.531  13.111
 8369W        W80794  11.411  17.345   4.983
 8370W        W80795   3.512   2.711   1.319
 8371W        W80796  12.156  38.325   0.308
 8372W        W80797  28.558  23.417   1.352
 8373W        W80798  12.808   5.858  10.886
 8374W        W80799  34.450  14.037  14.705
 8375W        W80800   0.033  21.750  12.554
 8376W        W80801  30.358   9.219   0.673
 8377W        W80802  36.380   9.266   3.028
 8378W        W80803  23.122  37.237   0.508
 8379W        W80804  27.752  30.473   3.672
 8380W        W80805   0.349  41.709   3.940
 8381W        W80806  22.500  28.754  14.935
 8382W        W80807   1.745  17.172   2.352
 8383W        W80808  10.588  12.876  11.138
 8384W        W80809  25.583  16.301   2.309
 8385W        W80810  43.919   4.376  11.903
 8386W        W80811  34.939  39.793   2.960
 8387W        W80812  38.758  32.924  12.816
 8388W        W80813  11.081  30.156  10.908
 8389W        W80814  38.378  10.222  14.741
 8390W        W80815   3.347  40.371  10.596
 8391W        W80816  14.130  35.961  13.589
 8392W        W80817  17.719  37.899   1.172
 8393W        W80818  30.621  16.174   2.675
 8394W        W80819  40.462  14.452   1.253
 8395W        W80820   1.425  33.068  13.393
 8396W        W80821  29.276  29.303  11.565
 8397W        W80822   4.997  25.213   0.798
 8398W        W80823  31.674   2.074   2.717
 8399W        W80824  17.246  39.470  14.154
 8400W        W80825   8.396   7.201   1.871
 8401W        W80826  40.866  29.187   4.174
 8402W        W80827  14.167  31.780  11.985
 8403W        W80828  42.002   2.699  10.676
 8404W        W80829  34.885   3.901   3.186
 8405W        W80830   9.286  36.297  12.524
 8406W        W80831  12.668  13.295  12.628
 8407W        W80832   5.237   1.013  13.770
 8408W        W80833  11.583  29.501   0.976
 8409W        W80834  28.515  10.618   0.802
 8410W        W80835  44.376  42.795   0.799
 8411W        W80836  14.543  38.985  13.531
 8412W        W80837  31.059   1.256   2.235
 8413W        W80838  10.670  10.185  12.900
 8414W        W80839  32.571  25.669  14.786
 8415W        W80840  22.964  16.203   4.392
 8416W        W80841  23.169  31.821  12.909
 8417W        W80842   4.918  23.271  14.132
 8418W        W80843  13.337   2.727  11.571
 8419W        W80844  36.964  34.414  11.229
 8420W        W80845  41.581  16.651  12.801
 8421W        W80846  15.169  40.612   4.178
 8422W        W80847  10.672  25.418  14.059
 8423W        W80848  17.654  26.481  11.123
 8424W        W80849  17.989  25.662   3.317
 8425W        W80850  43.298  11.667  10.690
 8426W        W80851  21.626  11.399  11.936
 8427W        W80852  31.026  39.201   0.025
 8428W        W80853  28.242  25.422   4.105
 8429W        W80854  20.582  35.581   3.718
 8430W        W80855  17.590  32.564   4.400
 8431W        W80856  15.823  34.011  14.951
 8432W        W80857  36.184  11.653  11.096
 8433W        W80858  38.936  25.930  10.225
 8434W        W80859  12.752  39.304   3.779
 8435W        W80860  25.249  39.266   3.647
 8436W        W80861   9.917  12.664  14.363
 8437W        W80862  37.324  20.762   0.527
 8438W        W80863  41.939   3.985  13.595
 8439W        W80864  31.117   0.478   1.724
 8440W        W80865  13.976  18.745   1.740
 8441W        W80866   0.375  17.128  12.068
 8442W        W80867   3.184  12.870  11.207
 8443W        W80868  32.039  15.768   5.271
 8444W        W80869   2.256   4.168  13.632
 8445W        W80870  35.362   0.798  11.136
 8446W        W80871  41.571  36.050   4.925
 8447W        W80872  38.751  14.084   2.166
 8448W        W80873   0.734  10.231  13.904
 8449W        W80874  37.604   3.313   2.886
 8450W        W80875  40.975   5.776   3.356
 8451W        W80876  43.637  40.179   3.721
 8452W        W80877  13.089  29.444   0.665
 8453W        W80878  34.188  39.986   0.259
 8454W        W80879  29.936  21.105  13.495
 8455W        W80880  30.174  16.234  14.394
 8456W        W80881  15.857   4.787   3.456
 8457W        W80882  21.226  18.288   3.564
 8458W        W80883  31.871  16.575  14.375
 8459W        W80884   5.979  37.045   1.226
 8460W        W80885  41.295  44.032  10.643
 8461W        W80886   5.520  25.263   0.839
 8462W        W80887  37.121  19.141   3.239
 8463W        W80888  18.018  21.683  11.191
 8464W        W80889  26.060   6.405   3.325
 8465W        W80890  34.794  22.779   1.423
 8466W        W80891  16.540   9.755   0.926
 8467W        W80892   7.095   2.556   3.290
 8468W        W80893  26.994  11.644   2.713
 8469W        W80894  42.570  37.935   2.248
 8470W        W80895   9.453  18.951   1.881
 8471W        W80896   4.236  18.552  11.923
 8472W        W80897  38.506  16.185  12.870
 8473W        W80898  39.130   6.609   2.746
 8474W        W80899  44.385   5.117   5.035
 8475W        W80900  11.696  12.924   0.363
 8476W        W80901   4.214   7.761   2.769
 8477W        W80902   6.829  25.952  11.639
 8478W        W80903  32.629  23.315  11.862
 8479W        W80904  29.928  40.866   0.767
 8480W        W80905  11.429  12.046  11.225
 8481W        W80906  44.915  36.521  14.624
 8482W        W80907  29.116  25.906  14.039
 8483W        W80908  13.885  11.576  10.341
 8484W        W80909  22.638  43.313   2.368
 8485W        W80910  12.213   4.863  12.971
 8486W        W80911  27.419  26.526   0.905
 8487W        W80912  10.194  34.628  14.378
 8488W        W80913  31.192  39.409   4.680
 8489W        W80914  16.202  29.933   2.156
 8490W        W80915  17.965  39.061   2.378
 8491W        W80916  40.382  27.650  11.610
 8492W        W80917  32.510  39.343  12.949
 8493W        W80918  21.961  13.200   4.985
 8494W        W80919  41.739  34.105   3.851
 8495W        W80920  22.449  11.291  13.429
 8496W        W80921   0.469   7.874   1.471
 8497W        W80922   9.308  32.144  12.852
 8498W        W80923  37.318  18.023  14.904
 8499W        W80924  29.493  31.619   0.825
 8500W        W80925  30.381   4.616   3.708
 8501W        W80926  13.139  21.614   2.811
 8502W        W80927  22.693  11.384   5.096
 8503W        W80928   9.811   1.535   0.798
 8504W        W80929  33.184   0.354   0.005
 8505W        W80930   7.369  35.409  13.789
 8506W        W80931  34.162   6.822  14.484
 8507W        W80932   2.230   6.899  12.548
 8508W        W80933  16.545  44.817  14.284
 8509W        W80934   3.490   0.773   0.238
 8510W        W80935  16.573  22.764   0.923
 8511W        W80936  20.632  34.631  13.326
 8512W        W80937  38.812  14.534   4.967
 8513W        W80938   3.217  18.267   4.518
 8514W        W80939  25.114   3.424   0.882
 8515W        W80940  20.172  19.806  11.190
 8516W        W80941  27.694  16.320  12.167
 8517W        W80942  19.742  43.292   0.251
 8518W        W80943  42.498  14.368  11.272
 8519W        W80944  25.843  38.996  10.210
 8520W        W80945  40.630   3.637  13.961
 8521W        W80946  14.101  14.715  10.624
 8522W        W80947   7.686  25.443   4.151
 8523W        W80948  44.742  14.534   0.000
 8524W        W80949  18.238   9.925   2.289
 8525W        W80950  42.303   7.910  10.664
 8526W        W80951   6.234  28.026  14.819
 8527W        W80952  42.218  21.200  11.030
 8528W        W80953  42.354   0.314   3.241
 8529W        W80954  17.271  17.086   1.326
 8530W        W80955  15.801  17.116   2.795
 8531W        W80956  29.028  42.851   0.397
 8532W        W80957  18.066   6.044  12.572
 8533W        W80958   4.210  39.118   2.326
 8534W        W80959  26.488   1.730   4.468
 8535W        W80960   2.204  40.400   0.357
 8536W        W80961  17.150  43.430  10.712
 8537W        W80962  16.575   2.335  10.075
 8538W        W80963  34.231  19.135  14.865
 8539W        W80964  14.195  28.549   0.082
 8540W        W80965  39.546  34.901   4.104
 8541W        W80966  13.044  10.229   2.058
 8542W        W80967  10.900   1.940   0.013
 8543W        W80968  11.305  20.508  14.787
 8544W        W80969  19.295  16.590  14.036
 8545W        W80970  17.713  16.812   1.419
 8546W        W80971  13.140  17.852  12.028
 8547W        W80972  25.541  38.899   1.836
 8548W        W80973  15.095  38.591   4.340
 8549W        W80974  43.010  18.565  11.075
 8550W        W80975   6.265   2.957   2.759
 8551W        W80976  31.027  16.207  13.063
 8552W        W80977  11.308  32.428   1.288
 8553W        W80978  23.088  26.601  13.595
 8554W        W80979   3.258  20.847   3.296
 8555W        W80980  26.884  30.379   0.428
 8556W        W80981  36.118  17.561   1.751
 8557W        W80982  21.810  43.172  12.182
 8558W        W80983   7.317  24.971  11.563
 8559W        W80984  10.194  30.242  11.387
 8560W        W80985  21.083  13.514  13.360
 8561W        W80986  42.990  43.007  12.076
 8562W        W80987  31.129  14.112   2.301
 8563W        W80988   6.308  14.125  12.563
 8564W        W80989   8.887  27.935   4.776
 8565W        W80990   6.923  35.508  14.767
 8566W        W80991   8.546  29.477   0.742
 8567W        W80992   2.861  30.622   3.838
 8568W        W80993   8.807  27.485  11.705
 8569W        W80994   7.686  18.259   3.200
 8570W        W80995  27.608   8.475   4.481
 8571W        W80996  40.061  43.819  11.447
 8572W        W80997  17.105  39.942   0.315
 8573W        W80998  28.624  43.755   4.162
 8574W        W80999   5.423  38.414   4.203
 8575W        W81000   5.627  40.279  13.972
 8576W        W81001  44.446  42.916   1.684
 8577W        W81002  10.761  17.526  13.926
 8578W        W81003  13.207  24.496   3.874
 8579W        W81004   1.162   3.516  10.308
 8580W        W81005   9.638   7.529  10.748
 8581W        W81006  28.469   8.684  13.088
 8582W        W81007  26.988  32.943   9.796
 8583W        W81008  27.701  21.646  11.130
 8584W        W81009  23.622   3.994   2.194
 8585W        W81010   1.329   3.292  11.915
 8586W        W81011  15.763  38.227   2.329
 8587W        W81012  41.595  11.737  11.653
 8588W        W81013  27.934  35.606   2.212
 8589W        W81014  16.778   7.703  12.857
 8590W        W81015  43.223  35.349  11.062
 8591W        W81016   7.938  40.433  13.363
 8592W        W81017   6.456  31.258   1.541
 8593W        W81018  40.373  17.000  12.873
 8594W        W81019   7.882   2.383   2.833
 8595W        W81020  20.283  22.035  13.798
 8596W        W81021   3.863  32.171   1.778
 8597W        W81022  17.044  26.290   1.830
 8598W        W81023  31.418   6.939  13.440
 8599W        W81024  34.958  23.636  10.760
 8600W        W81025  10.306  38.335   2.490
 8601W        W81026  41.612  29.472   0.396
 8602W        W81027  17.903  32.734   5.365
 8603W        W81028  34.385   9.948  12.525
 8604W        W81029  17.771  36.987   1.874
 8605W        W81030  35.271  13.470   3.605
 8606W        W81031  33.945  28.581  14.818
 8607W        W81032  34.445  12.653  14.884
 8608W        W81033  27.059  44.726   0.973
 8609W        W81034   2.836  33.469  14.443
 8610W        W81035  41.731   4.147  12.588
 8611W        W81036  23.422  18.175  12.044
 8612W        W81037  31.151  14.114  12.060
 8613W        W81038  25.747   3.708   0.151
 8614W        W81039  36.061  12.296   1.841
 8615W        W81040  27.239  34.542  14.444
 8616W        W81041  19.743   6.286   0.498
 8617W        W81042  29.682  23.671  12.382
 8618W        W81043   5.589   9.927  13.376
 8619W        W81044  20.573   7.898   4.312
 8620W        W81045  32.940  17.939  11.532
 8621W        W81046  18.195  26.468  11.234
 8622W        W81047  35.970  32.548   1.953
 8623W        W81048  33.615  13.784  14.514
 8624W        W81049  11.356  43.350  13.203
 8625W        W81050   2.985  33.984   3.303
 8626W        W81051   9.773   0.867  14.525
 8627W        W81052   6.031  40.546  12.576
 8628W        W81053  29.571  21.698   1.786
 8629W        W81054  12.202  35.374   1.749
 8630W        W81055  28.867  28.715  11.074
 8631W        W81056  18.568  31.660   0.319
 8632W        W81057  42.662  13.258   4.256
 8633W        W81058  40.428  31.884  13.404
 8634W        W81059  31.026   9.132  11.452
 8635W        W81060   4.728   4.311  14.960
 8636W        W81061  10.319   5.784  14.947
 8637W        W81062  29.050  18.835  14.465
 8638W        W81063   5.489  43.554  13.004
 8639W        W81064  32.622  23.041  14.007
 8640W        W81065  25.315  38.114   0.859
 8641W        W81066  17.251   4.739  14.733
 8642W        W81067  15.063  43.886   0.293
 8643W        W81068  35.983  32.141   3.342
 8644W        W81069  43.885  33.086   1.749
 8645W        W81070  36.403  12.255   4.651
 8646W        W81071  34.408  36.910  11.036
 8647W        W81072  36.646  13.702   4.424
 8648W        W81073  13.843  19.226   2.413
 8649W        W81074  15.012  17.276   3.255
 8650W        W81075  11.332  26.684   4.902
 8651W        W81076  14.828  19.477   0.260
 8652W        W81077  30.348  25.913   1.381
 8653W        W81078  20.009   6.514   2.236
 8654W        W81079  27.933   2.412   4.579
 8655W        W81080   6.777   2.044  11.617
 8656W        W81081  32.515  18.609  14.785
 8657W        W81082  21.136  27.938  11.163
 8658W        W81083  19.699  43.684   1.665
 8659W        W81084  23.311  15.576   1.374
 8660W        W81085  27.499   3.383  12.354
 8661W        W81086  14.378  38.516  12.505
 8662W        W81087  16.581   4.803  11.082
 8663W        W81088  33.803   1.761  12.481
 8664W        W81089  17.678  20.573  14.526
 8665W        W81090  27.717  12.607  12.829
 8666W        W81091  24.776   7.752  13.973
 8667W        W81092  34.972  23.997  13.379
 8668W        W81093  26.679   0.430   1.687
 8669W        W81094   5.595  17.317  11.114
 8670W        W81095  26.717  23.159   4.522
 8671W        W81096  31.132   2.696  14.890
 8672W        W81097  23.492  29.913   1.975
 8673W        W81098   3.011  14.207   2.586
 8674W        W81099  26.482   6.332  14.656
 8675W        W81100   3.081   0.456   4.533
 8676W        W81101  16.917   6.899  12.430
 8677W        W81102  22.977  29.198  12.945
 8678W        W81103  28.360  35.398   4.160
 8679W        W81104  32.620  29.165   4.078
 8680W        W81105  24.676   8.470  10.554
 8681W        W81106  11.659  31.025   4.191
 8682W        W81107  39.510  43.964   2.414
 8683W        W81108  22.490  30.476  14.303
 8684W        W81109  19.704   5.484  13.570
 8685W        W81110  26.543  43.643   1.750
 8686W        W81111  38.340  13.778   0.528
 8687W        W81112  35.057  15.113   1.265
 8688W        W81113  16.697  33.547   0.790
 8689W        W81114  27.477  44.815  12.466
 8690W        W81115  44.793  24.094   4.160
 8691W        W81116  32.643   8.724  11.175
 8692W        W81117   3.348  11.564  12.804
 8693W        W81118  39.050   2.932   0.214
 8694W        W81119  10.371  24.319   0.473
 8695W        W81120  17.501   0.562  11.118
 8696W        W81121   7.246  21.829   2.422
 8697W        W81122  28.090  24.429  13.501
 8698W        W81123   3.372  32.064   2.675
 8699W        W81124  39.387   8.136   3.112
 8700W        W81125  11.301   3.045   2.474
 8701W        W81126  42.696  28.241   2.779
 8702W        W81127  18.636  29.974  12.545
 8703W        W81128   5.717  29.522   0.451
 8704W        W81129   9.292   8.970   2.904
 8705W        W81130  39.296  29.710   2.995
 8706W        W81131  26.147  41.783   3.631
 8707W        W81132  23.943  22.222   3.348
 8708W        W81133  15.778  41.959   1.844
 8709W        W81134  36.054  11.907   3.681
 8710W        W81135   3.072  24.565  11.463
 8711W        W81136   0.416  10.468   2.582
 8712W        W81137  20.340  23.206   2.317
 8713W        W81138  17.811   3.841  14.418
 8714W        W81139   7.562   1.187  14.882
 8715W        W81140  40.272   7.923   0.395
 8716W        W81141  25.927  17.045  11.098
 8717W        W81142  19.563   2.497  11.187
 8718W        W81143  42.232  24.951  14.313
 8719W        W81144  43.544   7.693  12.947
 8720W        W81145   0.801  39.723   3.286
 8721W        W81146   2.248  41.414  12.045
 8722W        W81147  21.533  34.664  14.116
 8723W        W81148  31.023   4.432  10.995
 8724W        W81149  43.436   2.873  14.324
 8725W        W81150   3.941  15.131  13.811
 8726W        W81151  16.264  43.812   2.732
 8727W        W81152  13.362  20.642  12.433
 8728W        W81153  31.229  28.905  13.730
 8729W        W81154  26.026  25.234   1.852
 8730W        W81155   1.963   8.855   4.101
 8731W        W81156  37.025  29.610  12.023
 8732W        W81157  34.455  10.670   4.155
 8733W        W81158  23.612  22.675  11.629
 8734W        W81159  24.262  41.749   2.823
 8735W        W81160  35.392  37.067  14.882
 8736W        W81161  44.344  12.134  13.973
 8737W        W81162   5.843  42.647   1.963
 8738W        W81163   5.744   7.172   1.409
 8739W        W81164  36.289  11.417   3.778
 8740W        W81165  17.525  30.734   0.071
 8741W        W81166  11.123  14.776   4.176
 8742W        W81167  10.789  38.687  12.745
 8743W        W81168  23.308  41.396  14.365
 8744W        W81169   7.232  14.035  12.507
 8745W        W81170  37.230   4.885   4.010
 8746W        W81171  15.952  33.100   4.469
 8747W        W81172   0.304  42.763  13.828
 8748W        W81173  31.002   3.510   4.955
 8749W        W81174  17.608  18.568  14.359
 8750W        W81175  39.480   2.801   4.595
 8751W        W81176  32.196  30.242   3.259
 8752W        W81177  15.033  26.941  14.361
 8753W        W81178   1.024   3.610  12.377
 8754W        W81179  25.650  39.303   4.856
 8755W        W81180  30.438  36.627  11.243
 8756W        W81181   0.984  12.410  14.732
 8757W        W81182  19.421  41.620   0.893
 8758W        W81183  28.576  17.181  14.277
 8759W        W81184   6.268  37.967  10.512
 8760W        W81185  38.399  32.964   4.628
 8761W        W81186  14.587  21.491   3.260
 8762W        W81187  18.137  14.432   0.687
 8763W        W81188  20.692  28.365   4.871
 8764W        W81189  37.912  37.063   1.886
 8765W        W81190  28.514   9.404  13.991
 8766W        W81191   2.725  37.325  13.370
 8767W        W81192  21.673  43.303   2.833
 8768W        W81193  33.984   9.421  13.378
 8769W        W81194  30.872   0.246   1.274
 8770W        W81195  13.765  29.347  14.011
 8771W        W81196  31.042  38.779   2.369
 8772W        W81197  22.771   2.283   4.011
 8773W        W81198  24.727   0.018  12.618
 8774W        W81199  21.052  33.051   1.912
 8775W        W81200  11.291  34.170  11.962
 8776W        W81201  15.362  13.602  14.771
 8777W        W81202  17.330   3.110   2.751
 8778W        W81203  30.023  14.791  14.401
 8779W        W81204  41.237  42.808   4.023
 8780W        W81205  22.020  35.834  12.473
 8781W        W81206  22.767   3.905  11.437
 8782W        W81207  37.431  11.278   3.307
 8783W        W81208  25.596  41.526   3.657
 8784W        W81209  21.078  41.489   4.566
 8785W        W81210  38.457  20.782   2.562
 8786W        W81211  21.791  32.990  11.942
 8787W        W81212  35.467  19.182   3.165
 8788W        W81213  27.092   8.924   0.244
 8789W        W81214  20.189  14.114  12.410
 8790W        W81215  15.714  13.212  14.877
 8791W        W81216  20.644  31.918   0.008
 8792W        W81217  10.225   3.567  11.909
 8793W        W81218  12.079   6.441   1.728
 8794W        W81219   0.280   7.346  10.703
 8795W        W81220  35.644   7.897   1.413
 8796W        W81221  39.640  34.965  11.623
 8797W        W81222  44.747  32.682   0.319
 8798W        W81223  17.038  43.547   1.524
 8799W        W81224  36.527  25.429  11.728
 8800W        W81225   6.312  17.254   4.622
 8801W        W81226  28.687  32.512  12.985
 8802W        W81227  25.377  28.480  11.185
 8803W        W81228  35.470  21.203   4.399
 8804W        W81229  31.264   2.299   4.195
 8805W        W81230  42.889  38.712   0.945
 8806W        W81231  29.482  20.609  14.772
 8807W        W81232  37.552  37.888   4.375
 8808W        W81233   6.509  39.449  14.035
 8809W        W81234   7.009  15.201   0.607
 8810W        W81235  38.613  22.000  12.411
 8811W        W81236   5.768  24.611   4.666
 8812W        W81237   0.291   8.704   2.427
 8813W        W81238  37.534   5.000  14.945
 8814W        W81239  18.656  12.624   0.525
 8815W        W81240   6.138  22.463   0.420
 8816W        W81241  31.983   0.908  10.908
 8817W        W81242  17.040  20.490  13.936
 8818W        W81243  11.246  35.718  12.924
 8819W        W81244  40.451  37.792   3.700
 8820W        W81245  25.049  25.103  10.936
 8821W        W81246   6.676  11.113   0.806
 8822W        W81247   3.278  34.676   2.266
 8823W        W81248   3.365  38.912   3.378
 8824W        W81249  33.869   0.890  14.972
 8825W        W81250  42.896   2.070   2.688
 8826W        W81251   6.279   6.807  11.992
 8827W        W81252  40.348   2.698   0.312
 8828W        W81253  27.683   8.753   2.866
 8829W        W81254  30.201   0.599  11.006
 8830W        W81255   4.434  42.228  12.497
 8831W        W81256  12.292  17.117   3.199
 8832W        W81257  27.282  31.129  14.429
 8833W        W81258  26.208  25.765   1.853
 8834W        W81259  14.206   6.915  12.898
 8835W        W81260  33.534  24.512   2.722
 8836W        W81261   4.209  29.309  14.634
 8837W        W81262  25.768  26.820   2.721
 8838W        W81263  42.646  30.852  11.251
 8839W        W81264   1.445  41.009   1.257
 8840W        W81265  42.379   9.233   3.830
 8841W        W81266  32.611  42.382   3.736
 8842W        W81267  21.302  41.360  12.932
 8843W        W81268  23.502  33.643  13.432
 8844W        W81269  24.547  25.193  14.866
 8845W        W81270  43.292  17.986   1.374
 8846W        W81271  34.565   9.770   3.920
 8847W        W81272  18.974  33.840  13.036
 8848W        W81273  19.830  32.308   3.982
 8849W        W81274  22.624  24.874  11.530
 8850W        W81275  19.678  19.711  12.363
 8851W        W81276  33.567   2.515   3.318
 8852W        W81277  43.408  16.081   0.387
 8853W        W81278  18.174   9.897   1.407
 8854W        W81279  43.737  34.393  14.100
 8855W        W81280  30.062   1.706  14.804
 8856W        W81281  23.447   7.324   0.050
 8857W        W81282  28.659   8.431   3.234
 8858W        W81283  36.305  39.444  12.407
 8859W        W81284  11.282  13.779  10.549
 8860W        W81285  38.850  17.610   1.036
 8861W        W81286  14.283  16.133  12.348
 8862W        W81287  37.962   0.401  14.340
 8863W        W81288   8.836  22.497   0.548
 8864W        W81289  40.862  29.910  13.816
 8865W        W81290  13.622  30.194   3.753
 8866W        W81291  41.146  36.368  11.364
 8867W        W81292  40.561  22.573   9.764
 8868W        W81293  17.640   9.826  14.494
 8869W        W81294  29.250   6.214   4.892
 8870W        W81295   0.864  22.235  10.639
 8871W        W81296  23.690  16.172  13.064
 8872W        W81297  44.705  16.732   0.572
 8873W        W81298  29.578  31.071  10.594
 8874W        W81299  40.704  24.290   4.656
 8875W        W81300   5.886  43.430   1.525
 8876W        W81301  39.301  29.589  11.172
 8877W        W81302  36.472  12.628  10.264
 8878W        W81303  23.502   8.081   2.236
 8879W        W81304   0.737   8.869  10.735
 8880W        W81305   8.931  24.136  14.293
 8881W        W81306  41.055  19.238   4.313
 8882W        W81307  11.644   1.481  12.233
 8883W        W81308  38.490  10.735   2.096
 8884W        W81309  25.798   7.692  12.560
 8885W        W81310  39.846   4.231  10.979
 8886W        W81311  38.308  10.781  13.372
 8887W        W81312  31.830  14.609  12.204
 8888W        W81313  16.224  25.010   4.614
 8889W        W81314  42.288  39.992   3.531
 8890W        W81315  22.993   9.483   5.117
 8891W        W81316  17.336  42.333  13.463
 8892W        W81317  30.900  24.805  11.650
 8893W        W81318  17.485  26.565   3.260
 8894W        W81319   8.283   9.956  10.741
 8895W        W81320   4.212  41.122   0.688
 8896W        W81321   8.100  36.095   0.715
 8897W        W81322  13.743  30.928   4.176
 8898W        W81323   4.877  34.449  10.581
 8899W        W81324   1.774  16.996  14.486
 8900W        W81325  39.360   7.090  14.965
 8901W        W81326  43.509   4.736  10.666
 8902W        W81327  36.406  32.356   1.272
 8903W        W81328  18.208  33.433  10.174
 8904W        W81329  36.384  42.474  12.872
 8905W        W81330   6.155   0.489   0.874
 8906W        W81331  36.632  13.116   3.156
 8907W        W81332  42.394  15.807   4.264
 8908W        W81333  12.432  11.730   0.850
 8909W        W81334   1.825   3.758  12.994
 8910W        W81335  20.033  26.739  13.112
 8911W        W81336  32.171  41.245   3.180
 8912W        W81337  33.276  39.066  11.879
 8913W        W81338  23.890  32.163   1.972
 8914W        W81339   9.253  41.355  12.073
 8915W        W81340  17.496  40.000  11.440
 8916W        W81341   0.100  30.435   4.176
 8917W        W81342  24.707  26.028  14.342
 8918W        W81343  39.398   1.788   4.496
 8919W        W81344  35.159  27.187   4.556
 8920W        W81345   1.347  12.726  12.036
 8921W        W81346   2.865  41.126   3.761
 8922W        W81347   0.049  28.746   5.082
 8923W        W81348  19.268   7.950   4.596
 8924W        W81349  28.163  15.548   0.504
 8925W        W81350  14.605  20.722   4.388
 8926W        W81351  38.585  18.761   1.407
 8927W        W81352  16.255  36.536   2.699
 8928W        W81353  34.419  24.010   3.698
 8929W        W81354  15.225  25.526  13.468
 8930W        W81355  30.720  38.901  13.417
 8931W        W81356  40.825  28.075   2.737
 8932W        W81357  18.556  43.266   4.075
 8933W        W81358   9.989  29.579  12.083
 8934W        W81359  36.616  24.583  10.777
 8935W        W81360  16.203  44.728  13.095
 8936W        W81361  25.766  44.750   3.337
 8937W        W81362  34.568  12.179  12.202
 8938W        W81363   4.345  38.591   0.924
 8939W        W81364  42.980   5.235   0.669
 8940W        W81365  25.712   7.399  11.588
 8941W        W81366   9.775  19.794   0.447
 8942W        W81367  18.041   5.707   1.259
 8943W        W81368  43.410  18.656   5.007
 8944W        W81369  25.575  43.922   2.702
 8945W        W81370  25.852  41.381  12.194
 8946W        W81371   0.883  20.681  10.775
 8947W        W81372  19.019   9.586  14.276
 8948W        W81373   9.774   1.801  10.770
 8949W        W81374  21.704  11.731   1.784
 8950W        W81375  32.728   3.248  13.842
 8951W        W81376  32.063  29.901  13.485
 8952W        W81377  34.478  37.620  14.093
 8953W        W81378  24.558   0.061  14.989
 8954W        W81379  20.495  10.581   4.171
 8955W        W81380  30.228  33.876   0.779
 8956W        W81381  33.552  36.390  11.618
 8957W        W81382   9.487   0.889  10.432
 8958W        W81383   3.405  12.085  13.394
 8959W        W81384  20.856  44.509  14.426
 8960W        W81385   0.342  37.300   1.256
 8961W        W81386  27.433   4.324  12.501
 8962W        W81387   0.733  44.921  14.356
 8963W        W81388   9.604  24.512   3.221
 8964W        W81389  18.664  33.102   1.418
 8965W        W81390  14.299  15.607  12.152
 8966W        W81391  11.580  20.967   0.339
 8967W        W81392  11.412  35.869   1.066
 8968W        W81393   3.179   8.318  12.379
 8969W        W81394   9.711   8.859   0.497
 8970W        W81395  22.231  11.288   1.239
 8971W        W81396   0.358  42.434  11.412
 8972W        W81397   0.244   3.926   1.311
 8973W        W81398   5.600  19.542   1.321
 8974W        W81399  27.013  13.536  12.398
 8975W        W81400   9.149  43.866   1.876
 8976W        W81401  26.451  18.593  10.614
 8977W        W81402   5.268  16.729   3.588
 8978W        W81403  24.268   5.066  13.508
 8979W        W81404  17.710   5.739   0.019
 8980W        W81405  20.481  41.594   2.485
 8981W        W81406   1.375   8.464   2.844
 8982W        W81407  33.377   2.266   0.160
 8983W        W81408  36.121  25.926  12.563
 8984W        W81409  30.984   7.211  10.673
 8985W        W81410  35.065  32.074   0.316
 8986W        W81411   8.603  29.043   1.699
 8987W        W81412  15.359   5.385  11.208
 8988W        W81413  22.376  19.790   5.037
 8989W        W81414  36.424  34.171   4.557
 8990W        W81415  27.560   7.498  11.171
 8991W        W81416   1.502   7.163   2.268
 8992W        W81417  26.207  24.065  13.368
 8993W        W81418  31.002   3.204   4.493
 8994W        W81419   0.766  32.148   0.882
 8995W        W81420   1.453  37.431  14.283
 8996W        W81421  37.391  24.126  11.597
 8997W        W81422  17.654  19.780  12.104
 8998W        W81423  31.519  18.604   3.494
 8999W        W81424  41.798  10.325   5.088
 9000W        W81425  37.589  27.954  11.941
 9001W        W81426  11.154  40.148  13.527
 9002W        W81427  12.176   2.230   1.165
 9003W        W81428   4.392   2.789   2.715
 9004W        W81429  31.016  31.724  14.353
 9005W        W81430  18.422  25.637   2.495
 9006W        W81431  11.845  16.739  12.844
 9007W        W81432  35.964  41.634   4.276
 9008W        W81433  13.198  28.981   3.254
 9009W        W81434  31.041  10.360   2.943
 9010W        W81435   5.134  26.043  14.378
 9011W        W81436   9.370  23.590   0.929
 9012W        W81437  14.258  16.692   0.260
 9013W        W81438  15.809   9.210   2.253
 9014W        W81439  22.296  22.945   2.325
 9015W        W81440  25.645  16.295  13.858
 9016W        W81441   1.443  21.621   4.197
 9017W        W81442  39.692  42.777   4.148
 9018W        W81443  42.991  39.032   2.943
 9019W        W81444   1.896   3.796   2.638
 9020W        W81445  20.090  11.259   2.605
 9021W        W81446   7.152   6.236   0.322
 9022W        W81447  14.677   8.686   5.055
 9023W        W81448   2.865   5.396  13.377
 9024W        W81449  38.043  12.746   4.148
 9025W        W81450  20.271  21.034  10.641
 9026W        W81451  42.548  35.824   1.439
 9027W        W81452  11.803   3.896   0.971
 9028W        W81453  16.140   9.841  11.060
 9029W        W81454  34.070   0.165   0.720
 9030W        W81455  40.096  27.453  12.454
 9031W        W81456  32.632  22.771   0.762
 9032W        W81457  30.051  37.954   4.533
 9033W        W81458  36.851   0.910   1.672
 9034W        W81459  21.252  38.045   4.098
 9035W        W81460   2.421  25.191   3.177
 9036W        W81461  21.259  12.257   3.181
 9037W        W81462   7.366  27.391  11.268
 9038W        W81463  25.484  44.772  11.560
 9039W        W81464  35.600   0.980   1.447
 9040W        W81465  27.539  22.727   0.220
 9041W        W81466  28.014  43.305  14.736
 9042W        W81467   6.044  32.678  13.616
 9043W        W81468  32.411  12.127  12.511
 9044W        W81469  17.223   2.987   0.425
 9045W        W81470   1.550  15.277  13.928
 9046W        W81471   9.259  20.504  13.832
 9047W        W81472  24.063  22.386  10.981
 9048W        W81473   3.494  21.850   3.104
 9049W        W81474  37.171   7.700   0.032
 9050W        W81475  19.571   0.420   4.188
 9051W        W81476  11.106  22.277  10.553
 9052W        W81477  26.506   6.678   3.096
 9053W        W81478  21.528   6.745  12.495
 9054W        W81479  31.558  21.794   2.094
 9055W        W81480  14.328  36.798   4.203
 9056W        W81481  32.377  32.285  14.202
 9057W        W81482  41.980  33.349  14.887
 9058W        W81483  23.795  35.625   3.666
 9059W        W81484  33.596  30.573   4.706
 9060W        W81485  35.087   8.261  13.584
 9061W        W81486  16.309  17.874   2.416
 9062W        W81487  17.939  36.158   4.137
 9063W        W81488  25.948   6.408   4.201
 9064W        W81489  21.384  41.583   2.171
 9065W        W81490  26.717  24.185  11.110
 9066W        W81491  12.330  23.531   2.753
 9067W        W81492  42.795  12.406   0.410
 9068W        W81493  21.222  35.594   0.356
 9069W        W81494   4.950  25.218   3.087
 9070W        W81495  23.152  44.262   3.877
 9071W        W81496  39.282  30.533  11.129
 9072W        W81497  23.993   5.888  11.625
 9073W        W81498  18.181  27.927  14.429
 9074W        W81499  37.884  42.900   4.654
 9075W        W81500  23.386   9.862  11.032
 9076W        W81501  34.868  13.126   5.204
 9077W        W81502  34.211  24.481  13.926
 9078W        W81503  43.031   4.744   0.438
 9079W        W81504   5.180   9.661  11.092
 9080W        W81505  42.463  37.325   4.154
 9081W        W81506   9.626  16.507   1.829
 9082W        W81507  27.943  10.772  11.639
 9083W        W81508   0.491  43.289  13.885
 9084W        W81509   8.275  15.121  14.823
 9085W        W81510  18.837  24.776  11.029
 9086W        W81511  29.899  18.618   5.011
 9087W        W81512  21.045  35.015  10.641
 9088W        W81513  21.133  17.178  13.083
 9089W        W81514   7.837  15.832   1.797
 9090W        W81515  29.057  43.331   4.304
 9091W        W81516  20.607  24.152   4.188
 9092W        W81517  36.326  39.055   0.905
 9093W        W81518  13.051  26.248  12.319
 9094W        W81519  35.909  10.134   4.171
 9095W        W81520  17.986  37.450  10.948
 9096W        W81521  15.632  19.491  13.004
 9097W        W81522  24.040  32.872   3.087
 9098W        W81523  12.059  33.134   3.423
 9099W        W81524  26.515  42.521  13.382
 9100W        W81525  41.752   7.998  12.388
 9101W        W81526  14.627  22.036  11.559
 9102W        W81527  19.511  15.607   1.609
 9103W        W81528   2.133  24.262   3.441
 9104W        W81529   2.477  39.246  14.842
 9105W        W81530  32.790  29.521  11.423
 9106W        W81531   1.766   7.771   4.829
 9107W        W81532  24.968  27.181   2.270
 9108W        W81533  44.091  29.273  12.875
 9109W        W81534  35.545  42.711   0.209
 9110W        W81535   7.683  34.031   2.895
 9111W        W81536  22.562  33.717  11.869
 9112W        W81537  24.107  14.594  12.611
 9113W        W81538   7.854   0.672  11.552
 9114W        W81539   5.159  19.813  11.975
 9115W        W81540  19.752  17.791  12.980
 9116W        W81541  25.668  36.803   1.660
 9117W        W81542   0.147  30.276  14.727
 9118W        W81543   8.389  36.374  11.549
 9119W        W81544  31.128   2.829  13.494
 9120W        W81545  15.394   4.704  10.681
 9121W        W81546  31.170   5.726   2.219
 9122W        W81547  21.579   3.402   4.721
 9123W        W81548  44.291   4.397   2.371
 9124W        W81549  32.496   4.887   2.353
 9125W        W81550   4.523   2.335  12.645
 9126W        W81551  33.120  10.337   0.329
 9127W        W81552   1.952  40.539  14.935
 9128W        W81553  27.465   8.405  12.576
 9129W        W81554  42.897  17.958  14.971
 9130W        W81555  17.996  43.306   0.881
 9131W        W81556   7.353  34.998   3.478
 9132W        W81557  13.382  11.616  13.997
 9133W        W81558  26.601  39.378   0.502
 9134W        W81559  16.735  16.297   3.423
 9135W        W81560  43.289   7.723  12.471
 9136W        W81561   2.221  10.659  11.269
 9137W        W81562  11.671  22.754   5.132
 9138W        W81563  22.808   0.406  14.919
 9139W        W81564  36.409  37.057   1.692
 9140W        W81565  11.544  13.229   4.613
 9141W        W81566  30.035  26.155  12.477
 9142W        W81567  13.844  44.066   1.395
 9143W        W81568   5.889  32.849   4.156
 9144W        W81569   0.294   6.412   3.719
 9145W        W81570   4.230  35.785   0.122
 9146W        W81571  26.127  14.334   4.179
 9147W        W81572   4.469   8.144   2.084
 9148W        W81573   5.939  22.372   3.339
 9149W        W81574  16.089   4.500   0.274
 9150W        W81575  23.133  43.208  13.630
 9151W        W81576  30.992  40.548  12.041
 9152W        W81577  14.249   4.834   0.661
 9153W        W81578   5.516  29.247   4.554
 9154W        W81579  16.864  15.442   1.337
 9155W        W81580   1.880  33.116   1.915
 9156W        W81581  25.453   4.471  13.396
 9157W        W81582  18.030   1.782   3.215
 9158W        W81583  38.856  42.425  11.041
 9159W        W81584  43.433  32.653   2.358
 9160W        W81585  41.995   0.385  11.632
 9161W        W81586  12.247  35.006  12.138
 9162W        W81587   0.141  43.911   1.187
 9163W        W81588  17.608  31.276   4.808
 9164W        W81589  44.693  10.467  10.310
 9165W        W81590  25.100  25.488   4.042
 9166W        W81591  22.834   2.860  12.011
 9167W        W81592   1.875  39.118  14.907
 9168W        W81593  29.522  42.699   3.247
 9169W        W81594  37.454  31.343  10.654
 9170W        W81595  24.598  10.121   4.130
 9171W        W81596   9.401  21.874  13.462
 9172W        W81597   2.436   8.851   1.351
 9173W        W81598  38.573  20.550   0.724
 9174W        W81599  27.045  28.390   1.714
 9175W        W81600   1.992  17.201   2.842
 9176W        W81601  32.460   6.972   4.406
 9177W        W81602  26.161   2.903   2.877
 9178W        W81603  13.854   2.304   0.341
 9179W        W81604  27.980  13.107  10.604
 9180W        W81605  29.642  39.887   0.802
 9181W        W81606  14.089  21.122   2.330
 9182W        W81607  20.108  13.150  10.542
 9183W        W81608  15.371  31.169  10.867
 9184W        W81609  36.559  26.940   1.396
 9185W        W81610  14.304  32.262  12.087
 9186W        W81611  27.918  24.093  12.182
 9187W        W81612   5.279  41.995   2.836
 9188W        W81613  31.398   9.926  10.408
 9189W        W81614  31.351  41.368  13.886
 9190W        W81615  43.208  14.627   3.586
 9191W        W81616  19.355  38.953   4.668
 9192W        W81617  14.689  38.071   3.713
 9193W        W81618  37.967  12.764  12.591
 9194W        W81619  21.053   8.600  14.379
 9195W        W81620  18.330  27.456  14.626
 9196W        W81621  15.620  37.124  13.453
 9197W        W81622  18.232  17.165  10.806
 9198W        W81623   8.974  22.796  12.036
 9199W        W81624   3.749  18.603   0.303
 9200W        W81625  23.257  32.830  12.056
 9201W        W81626  30.068  28.039  12.313
 9202W        W81627  27.106  39.356  11.567
 9203W        W81628  32.165  26.015   0.429
 9204W        W81629  43.728  30.983  13.946
 9205W        W81630  11.185  16.862   3.308
 9206W        W81631  13.274   0.298  11.497
 9207W        W81632  28.992  25.514  12.162
 9208W        W81633   3.055  22.635  14.379
 9209W        W81634   4.801  37.132   0.107
 9210W        W81635   9.908  15.498  14.385
 9211W        W81636  38.159   9.283   2.351
 9212W        W81637   0.852  10.567  12.492
 9213W        W81638  27.734  26.273   2.837
 9214W        W81639  24.532   5.520   1.742
 9215W        W81640  43.370  19.618   2.387
 9216W        W81641  22.155  25.588   1.259
 9217W        W81642   7.390   0.304  14.389
 9218W        W81643  15.806  31.396   4.909
 9219W        W81644  37.440   5.169   3.624
 9220W        W81645  39.110  25.836  10.709
 9221W        W81646  18.663  11.248  14.091
 9222W        W81647  14.684  14.588  12.917
 9223W        W81648  38.833  22.256   3.234
 9224W        W81649  37.923  41.255   3.204
 9225W        W81650  40.768   4.760  12.145
 9226W        W81651  15.211  28.876  12.879
 9227W        W81652  20.031  14.625  14.343
 9228W        W81653   7.637  10.765   1.389
 9229W        W81654  21.508   2.346   1.707
 9230W        W81655  35.426  21.849   2.609
 9231W        W81656  22.009  10.501   2.273
 9232W        W81657  35.391  39.953  12.140
 9233W        W81658   1.497  15.720   0.258
 9234W        W81659   1.304  27.402  14.231
 9235W        W81660  32.089  14.786  13.550
 9236W        W81661  19.237  14.860  13.982
 9237W        W81662  22.590  37.478   0.474
 9238W        W81663   4.873  33.049  14.243
 9239W        W81664  12.896  23.561   1.348
 9240W        W81665   6.647  16.371   3.622
 9241W        W81666  23.212   0.809  12.019
 9242W        W81667   6.244  44.750  13.995
 9243W        W81668   6.799  23.310  12.311
 9244W        W81669  19.559  27.926  14.336
 9245W        W81670  24.996  36.070  10.745
 9246W        W81671  24.422  42.087   4.122
 9247W        W81672  35.323  25.047   9.713
 9248W        W81673  14.788   2.049  11.137
 9249W        W81674  38.501  14.878  13.354
 9250W        W81675  34.803   5.411   4.113
 9251W        W81676   0.801   0.659   2.229
 9252W        W81677  42.538  35.694  13.026
 9253W        W81678   9.348   6.241   3.285
 9254W        W81679   8.477  29.319  11.078
 9255W        W81680  23.124  21.350  14.582
 9256W        W81681  24.946   2.970   3.442
 9257W        W81682   5.722  25.346  11.645
 9258W        W81683  10.315  40.751   2.223
 9259W        W81684  41.686   2.205   4.140
 9260W        W81685  39.377  34.117   3.683
 9261W        W81686   4.268  29.155  13.612
 9262W        W81687   7.877  38.960  11.151
 9263W        W81688   1.317   4.165   3.634
 9264W        W81689  34.541  16.491  13.041
 9265W        W81690  27.125  25.046  11.478
 9266W        W81691  29.951  13.427  14.187
 9267W        W81692  28.667   6.704  14.446
 9268W        W81693  33.088   1.472  13.599
 9269W        W81694  40.512   4.166  11.618
 9270W        W81695  38.061  24.386   2.583
 9271W        W81696  39.408   0.247   1.648
 9272W        W81697   8.718   6.635  10.254
 9273W        W81698   0.473   9.944   1.952
 9274W        W81699   4.848   6.238   0.321
 9275W        W81700  17.968  31.518  11.473
 9276W        W81701  42.484  15.451   1.665
 9277W        W81702  41.092  28.817  11.654
 9278W        W81703  11.126  32.176   4.614
 9279W        W81704  26.203   2.920   4.931
 9280W        W81705  19.283  39.464  11.496
 9281W        W81706  20.681   9.791  14.302
 9282W        W81707   4.497  43.530  12.970
 9283W        W81708  32.000  25.386   1.726
 9284W        W81709  32.613  33.098  14.090
 9285W        W81710  28.311  30.139   2.633
 9286W        W81711  22.287  20.957  13.410
 9287W        W81712  15.068  15.391  11.207
 9288W        W81713   4.546  28.642  11.528
 9289W        W81714  16.809   8.202  11.481
 9290W        W81715  40.807   2.392   4.107
 9291W        W81716  15.013  16.053  12.764
 9292W        W81717  20.285  29.423  10.710
 9293W        W81718   6.416  27.315   2.314
 9294W        W81719   5.399  21.600  13.396
 9295W        W81720  17.712  27.683  12.808
 9296W        W81721  14.333  10.729  12.512
 9297W        W81722  21.396  43.614   1.146
 9298W        W81723  39.478  22.659  12.830
 9299W        W81724  20.928  10.665  12.077
 9300W        W81725   0.415   2.260   3.213
 9301W        W81726  32.644  44.947   4.530
 9302W        W81727  13.507  33.371  11.149
 9303W        W81728  36.067  13.710  12.080
 9304W        W81729  41.033  38.964  11.106
 9305W        W81730  11.223  25.948  12.800
 9306W        W81731  38.977  27.133  10.687
 9307W        W81732  34.923  15.682  11.168
 9308W        W81733  26.876  35.834  14.471
 9309W        W81734  13.227  35.493   2.862
 9310W        W81735   0.167  14.136   4.515
 9311W        W81736  15.355  18.442  13.169
 9312W        W81737  23.196   4.197  10.597
 9313W        W81738   1.374  34.900  14.102
 9314W        W81739  25.192  44.619   4.904
 9315W        W81740  40.903  13.439   1.220
 9316W        W81741   2.199  22.799  13.905
 9317W        W81742   6.833  13.141  12.083
 9318W        W81743  25.882  37.096   4.977
 9319W        W81744  44.924  38.398   1.844
 9320W        W81745  26.187  19.008   3.715
 9321W        W81746  44.105  33.562   1.776
 9322W        W81747  17.521  28.074   3.121
 9323W        W81748  27.231  26.424  13.911
 9324W        W81749  35.769  37.497   3.057
 9325W        W81750  34.561  43.748  13.807
 9326W        W81751  33.138   2.307  10.725
 9327W        W81752   4.407  37.977   3.290
 9328W        W81753   1.837   1.969  12.587
 9329W        W81754   6.995  19.997  10.677
 9330W        W81755  20.889  19.302  11.032
 9331W        W81756   8.948  18.620   4.864
 9332W        W81757   7.315  41.021   3.700
 9333W        W81758  36.840  21.226  11.716
 9334W        W81759   0.363  14.116   1.206
 9335W        W81760   1.225  16.152   0.479
 9336W        W81761  21.273  43.092  13.260
 9337W        W81762  15.410  32.475   3.777
 9338W        W81763  12.640  27.698   3.190
 9339W        W81764  29.267   9.392   2.544
 9340W        W81765  41.634  37.441   0.858
 9341W        W81766  44.891  28.071   4.838
 9342W        W81767  38.357  25.203   3.699
 9343W        W81768  35.387  35.928  14.992
 9344W        W81769  44.080  17.179   3.706
 9345W        W81770  11.182   8.310  14.390
 9346W        W81771  28.141  17.461  14.009
 9347W        W81772  27.430  33.983   4.204
 9348W        W81773   1.532  41.912   1.462
 9349W        W81774  39.423  15.664   4.578
 9350W        W81775  11.882  16.774   2.752
 9351W        W81776  39.009  17.039  14.800
 9352W        W81777  24.508   8.672   9.722
 9353W        W81778   2.831   3.918   3.553
 9354W        W81779  20.651  34.464   1.226
 9355W        W81780  31.400  25.206   3.830
 9356W        W81781  18.556  22.749   1.181
 9357W        W81782  10.389  12.296   2.992
 9358W        W81783   3.996  41.351   1.956
 9359W        W81784  27.853   5.347  13.484
 9360W        W81785  39.001  23.613   4.105
 9361W        W81786  39.313  40.858  10.612
 9362W        W81787   6.163   4.379   0.367
 9363W        W81788  24.230  23.200   4.847
 9364W        W81789  16.214   9.394  11.301
 9365W        W81790   8.157   0.309   1.923
 9366W        W81791  13.760  34.878   0.814
 9367W        W81792  42.607  37.989  12.950
 9368W        W81793  43.797  34.514   1.254
 9369W        W81794  11.184  27.227   2.187
 9370W        W81795  11.472  13.913  11.380
 9371W        W81796  36.855  17.921   1.085
 9372W        W81797  28.083  11.379  14.587
 9373W        W81798  30.002  44.374  12.110
 9374W        W81799  14.801  26.207  12.415
 9375W        W81800  19.251  20.215   0.857
 9376W        W81801   7.273  11.389   4.942
 9377W        W81802   7.769  37.456   0.788
 9378W        W81803  13.890   8.467  13.406
 9379W        W81804  19.475  12.833  13.713
 9380W        W81805  12.252  35.210   2.404
 9381W        W81806  21.107  31.656  14.106
 9382W        W81807  31.977  15.577   0.741
 9383W        W81808   7.107  25.971   1.220
 9384W        W81809  27.364  33.076   5.010
 9385W        W81810  17.647  29.096   3.330
 9386W        W81811  42.556   3.359   1.755
 9387W        W81812  15.712  38.557  10.659
 9388W        W81813  11.640  13.025  10.484
 9389W        W81814   2.705   7.448   1.032
 9390W        W81815   0.390  29.007  11.645
 9391W        W81816  33.254   0.498   4.695
 9392W        W81817   5.024  34.815   1.404
 9393W        W81818  10.385  14.939   1.229
 9394W        W81819  38.549  25.167   4.573
 9395W        W81820  41.331  44.421  10.957
 9396W        W81821  32.940  27.460   3.729
 9397W        W81822   7.537  25.688  13.720
 9398W        W81823  10.001  12.085  12.934
 9399W        W81824  14.101   1.110  11.648
 9400W        W81825  41.703  33.349   4.974
 9401W        W81826  31.593  35.984  14.863
 9402W        W81827  19.647  35.513   4.409
 9403W        W81828   5.265  41.509   3.973
 9404W        W81829   9.376  32.070   4.716
 9405W        W81830  25.572   3.299  10.661
 9406W        W81831  30.472  44.324  10.968
 9407W        W81832  39.336  33.822  11.184
 9408W        W81833  25.115  39.464   1.684
 9409W        W81834  26.204  12.841  13.062
 9410W        W81835  41.923  25.300   0.445
 9411W        W81836  36.833   2.356   2.989
 9412W        W81837   3.007  28.539  13.350
 9413W        W81838  23.267  44.209  12.009
 9414W        W81839  15.899   6.749   1.185
 9415W        W81840  43.297   2.545  13.934
 9416W        W81841  20.642  25.894   2.811
 9417W        W81842  18.509  24.281   4.053
 9418W        W81843   4.724  34.909  11.879
 9419W        W81844  29.282  30.108   1.738
 9420W        W81845   7.388   5.348  11.111
 9421W        W81846  37.466  24.710   2.009
 9422W        W81847  29.156   4.745  11.544
 9423W        W81848  19.045  33.805   2.386
 9424W        W81849  38.605  24.447   4.968
 9425W        W81850  31.898   0.758   2.199
 9426W        W81851  22.022   8.913   1.872
 9427W        W81852  33.360  41.795   2.775
 9428W        W81853   5.811  42.454   0.242
 9429W        W81854  11.357  17.843  11.702
 9430W        W81855   4.786  44.292   2.373
 9431W        W81856  13.722  15.391   2.792
 9432W        W81857  38.384  42.192  13.739
 9433W        W81858  17.610   6.910   3.049
 9434W        W81859  16.036   7.384   2.642
 9435W        W81860  33.945  28.029   4.376
 9436W        W81861  20.778  16.592   1.233
 9437W        W81862  32.862  31.524  14.843
 9438W        W81863  18.651  38.971  12.546
 9439W        W81864  41.900  39.300   4.547
 9440W        W81865  28.469  28.671   2.654
 9441W        W81866   4.837  33.950   4.920
 9442W        W81867  16.552  44.348   1.481
 9443W        W81868  36.020  13.788  10.918
 9444W        W81869  42.591  32.547  14.775
 9445W        W81870  44.700   7.864  13.802
 9446W        W81871  36.915  23.657  11.051
 9447W        W81872  19.292  40.510   0.870
 9448W        W81873  35.918  24.483  13.596
 9449W        W81874  24.700   0.307   3.665
 9450W        W81875  27.110  31.824  11.850
 9451W        W81876   9.602   9.780   3.488
 9452W        W81877  36.536  14.007   1.747
 9453W        W81878  27.547   2.229  13.271
 9454W        W81879  11.710  11.709  10.867
 9455W        W81880  40.506   3.914   4.742
 9456W        W81881  42.266   0.427  14.385
 9457W        W81882  29.537   1.748   3.670
 9458W        W81883  12.784  18.839   0.375
 9459W        W81884  23.604  33.956  14.802
 9460W        W81885  30.027   3.313  11.859
 9461W        W81886  35.574  18.586   0.321
 9462W        W81887  42.950   5.273   1.901
 9463W        W81888   2.454   6.380   3.740
 9464W        W81889   4.698  39.908   1.142
 9465W        W81890  10.607  12.652  10.684
 9466W        W81891   3.745  37.589  13.479
 9467W        W81892   9.611   8.360   1.256
 9468W        W81893   1.806  24.054  11.118
 9469W        W81894  18.130   1.949   1.432
 9470W        W81895  36.170  44.351  13.151
 9471W        W81896   2.939  43.187  13.854
 9472W        W81897  38.048  31.163   1.360
 9473W        W81898  18.360  34.807   3.191
 9474W        W81899  32.104  19.764  12.364
 9475W        W81900  20.988  36.172   2.737
 9476W        W81901   4.073  22.615  14.382
 9477W        W81902  12.229  21.412   4.342
 9478W        W81903   9.949   4.898   4.187
 9479W        W81904  43.887  33.871  14.877
 9480W        W81905  28.431  40.375   2.735
 9481W        W81906   2.501  18.992  12.115
 9482W        W81907  36.486  17.031  12.511
 9483W        W81908  11.411  34.943   0.066
 9484W        W81909  10.286  18.379  13.907
 9485W        W81910  31.088  21.588  12.326
 9486W        W81911  42.121  38.906   1.920
 9487W        W81912   6.863  35.010   2.183
 9488W        W81913   3.540  24.558  12.547
 9489W        W81914   9.294  39.277   0.255
 9490W        W81915  12.075  10.163  12.909
 9491W        W81916   4.147  17.060   1.310
 9492W        W81917  14.349  16.538  13.130
 9493W        W81918  38.437  13.869   4.673
 9494W        W81919  16.820  38.496  13.280
 9495W        W81920  26.588  25.400  14.814
 9496W        W81921  13.888  40.446   3.267
 9497W        W81922  18.211  17.757  10.800
 9498W        W81923   8.383  11.380  11.549
 9499W        W81924  21.143  43.784  12.933
 9500W        W81925  22.525  13.224   1.246
 9501W        W81926  23.151   4.244   4.534
 9502W        W81927  42.964  43.195   4.931
 9503W        W81928   3.682   3.325   2.368
 9504W        W81929  23.514  14.659   1.288
 9505W        W81930  10.208   6.232  11.474
 9506W        W81931  22.398  27.812  10.724
 9507W        W81932  10.916  23.299   3.539
 9508W        W81933  17.263  43.792   2.037
 9509W        W81934   3.982  37.295   4.513
 9510W        W81935  31.528  43.908   2.406
 9511W        W81936   7.272  35.518   1.198
 9512W        W81937  26.840  29.133   1.398
 9513W        W81938  44.892  21.680  13.460
 9514W        W81939  11.679  38.095   3.243
 9515W        W81940  11.497  22.713   2.609
 9516W        W81941   3.866  27.630   0.816
 9517W        W81942  26.473  42.313   2.342
 9518W        W81943   1.985  16.327   1.160
 9519W        W81944  44.249  21.085   5.004
 9520W        W81945  20.702   2.176  10.753
 9521W        W81946  20.619  27.492   0.995
 9522W        W81947  34.313  36.306   4.866
 9523W        W81948  24.572  18.400  10.492
 9524W        W81949  16.811  22.097   4.166
 9525W        W81950  14.787  12.437  12.043
 9526W        W81951  38.084  40.091   0.377
 9527W        W81952  14.123  38.129  10.367
 9528W        W81953  32.204  37.643  13.483
 9529W        W81954  25.004   8.265   3.370
 9530W        W81955  28.700  28.474   1.332
 9531W        W81956  36.529  16.391  12.155
 9532W        W81957  20.705  32.801  10.910
 9533W        W81958  35.542   6.663  11.418
 9534W        W81959  33.931  42.472   3.198
 9535W        W81960  11.354  18.668  13.426
 9536W        W81961   4.884  12.092  10.966
 9537W        W81962  40.026  14.878  13.524
 9538W        W81963  35.623  13.928  11.248
 9539W        W81964  33.381  19.028   4.476
 9540W        W81965  32.379  40.764   1.462
 9541W        W81966  21.026  43.984   1.334
 9542W        W81967   8.712  34.736   0.888
 9543W        W81968  25.074   2.565   1.095
 9544W        W81969  11.741  26.548  10.883
 9545W        W81970  29.463  32.104   2.769
 9546W        W81971  30.202  22.520  11.987
 9547W        W81972  36.779  34.427  14.043
 9548W        W81973  32.987  17.991   5.563
 9549W        W81974  31.036  36.370   2.700
 9550W        W81975  29.539  28.102   3.153
 9551W        W81976  13.715   5.212  11.141
 9552W        W81977  40.622  21.155   3.216
 9553W        W81978  13.554  38.951  10.750
 9554W        W81979  22.626  37.295  12.660
 9555W        W81980  20.349   5.515   1.899
 9556W        W81981  20.714  23.267   3.747
 9557W        W81982  33.133  30.855   2.442
 9558W        W81983  23.488  34.385  12.482
 9559W        W81984  36.844  14.686   4.365
 9560W        W81985  40.660  40.542   0.441
 9561W        W81986  36.830   0.474   3.303
 9562W        W81987  42.707  32.552  10.813
 9563W        W81988   2.247  17.270   2.391
 9564W        W81989  24.038   7.893  11.027
 9565W        W81990  27.895  37.071   2.788
 9566W        W81991  34.027  35.613  12.127
 9567W        W81992   9.819  33.074   2.467
 9568W        W81993  29.610   1.296   4.346
 9569W        W81994   1.936  22.666  13.478
 9570W        W81995   2.015  14.836   2.220
 9571W        W81996  33.986   4.298  13.035
 9572W        W81997   2.070  39.248  11.078
 9573W        W81998   1.989  39.955   2.778
 9574W        W81999  13.127  23.992  11.937
 9575W        W82000  24.089   8.481   1.404
 9576W        W82001  39.851  34.750  14.136
 9577W        W82002  30.177  21.072   4.144
 9578W        W82003   6.219  35.077  12.152
 9579W        W82004  42.019  19.938  13.379
 9580W        W82005  30.923  29.846   3.198
 9581W        W82006  14.288  23.904  11.724
 9582W        W82007  22.571   7.477   4.665
 9583W        W82008   9.861  39.069  13.035
 9584W        W82009  38.520  39.014   3.197
 9585W        W82010  13.052  31.606  13.353
 9586W        W82011  24.529  24.139   3.754
 9587W        W82012   2.419  35.532   2.018
 9588W        W82013  41.131  11.338  12.547
 9589W        W82014   9.851  31.441   3.177
 9590W        W82015  30.136  32.850  13.455
 9591W        W82016  29.292  27.833   3.705
 9592W        W82017  31.945  43.333  14.614
 9593W        W82018  12.868  13.633   3.682
 9594W        W82019  43.579  12.086   4.134
 9595W        W82020  34.064  32.677   1.802
 9596W        W82021  38.484  12.073  11.561
 9597W        W82022   5.214  12.317   2.276
 9598W        W82023   2.800  26.941  11.192
 9599W        W82024   6.791  25.054  11.716
 9600W        W82025  36.322  44.906   0.292
 9601W        W82026   7.948   8.770  11.701
 9602W        W82027  36.860   4.824  11.074
 9603W        W82028  37.577  18.005  13.625
 9604W        W82029  27.724  23.452  13.845
 9605W        W82030   1.976  41.250  12.688
 9606W        W82031   2.264   1.402  13.851
 9607W        W82032  33.892  30.875   1.123
 9608W        W82033   4.410  23.611  10.735
 9609W        W82034   2.975  35.917   4.157
 9610W        W82035   3.794  19.698  14.803
 9611W        W82036   5.482   3.701  12.069
 9612W        W82037  34.116  36.016  14.456
 9613W        W82038  29.475  42.485   4.320
 9614W        W82039  25.218  11.760  12.600
 9615W        W82040  31.182  34.603  12.718
 9616W        W82041  31.090  44.795   0.788
 9617W        W82042   6.127  22.446  13.614
 9618W        W82043  10.716  27.224   4.936
 9619W        W82044  36.377  17.368  10.129
 9620W        W82045  15.893  26.758  11.578
 9621W        W82046   8.667  34.168   1.622
 9622W        W82047  29.940  29.166  12.609
 9623W        W82048   3.478  25.181  13.763
 9624W        W82049  42.441  36.778  11.984
 9625W        W82050  44.126  10.253  13.881
 9626W        W82051  14.817   5.366  11.200
 9627W        W82052  28.294  11.847  14.706
 9628W        W82053  21.539  36.542   1.723
 9629W        W82054  41.050  36.884   4.606
 9630W        W82055  26.132  43.445   0.021
 9631W        W82056  32.605  16.256  14.780
 9632W        W82057   8.125   8.363   1.416
 9633W        W82058   7.110  35.497   4.662
 9634W        W82059  11.182   1.251  10.702
 9635W        W82060  39.431  16.620   0.021
 9636W        W82061   8.845  28.961  12.307
 9637W        W82062  33.115  43.971  12.485
 9638W        W82063  30.476   3.968   4.178
 9639W        W82064  25.456  41.397   0.948
 9640W        W82065   4.730   7.163  11.656
 9641W        W82066  32.638  21.705   0.388
 9642W        W82067  44.353  10.838   0.944
 9643W        W82068  20.758  43.206   3.626
 9644W        W82069   4.779  42.968  10.047
 9645W        W82070  31.636   6.633  13.016
 9646W        W82071  41.319  34.934   1.903
 9647W        W82072  40.399   9.797  14.331
 9648W        W82073  17.605  27.989  10.646
 9649W        W82074  35.691  41.460   4.680
 9650W        W82075  36.917  29.050  13.767
 9651W        W82076  22.215   4.208   3.500
 9652W        W82077   5.243  26.729   2.425
 9653W        W82078   4.742  37.581  12.376
 9654W        W82079  20.049  22.099   4.196
 9655W        W82080  22.540   1.911   2.311
 9656W        W82081  37.589   6.395  13.337
 9657W        W82082  10.302  33.342   2.318
 9658W        W82083  10.192  15.882  11.091
 9659W        W82084   4.201  41.457   2.424
 9660W        W82085  24.118  32.600   3.938
 9661W        W82086   4.949  30.783   1.968
 9662W        W82087  25.889   6.474   0.253
 9663W        W82088   0.826  42.246   3.383
 9664W        W82089   4.238   5.013   0.132
 9665W        W82090  38.986  26.580  12.788
 9666W        W82091  38.322  40.912   4.180
 9667W        W82092  40.557  34.443  13.498
 9668W        W82093  19.848  42.412   0.513
 9669W        W82094  32.293  15.432  12.948
 9670W        W82095   7.437   3.778  12.927
 9671W        W82096  11.793  41.522  12.470
 9672W        W82097  42.710   1.369  13.845
 9673W        W82098  44.188   9.852  12.478
 9674W        W82099  15.454  15.000   1.403
 9675W        W82100  22.624   9.716  12.820
 9676W        W82101  30.171  40.369  14.472
 9677W        W82102  31.188  20.124  10.393
 9678W        W82103  42.022  17.713  10.684
 9679W        W82104  33.997  29.696  13.011
 9680W        W82105   0.812  24.746  10.708
 9681W        W82106  20.750  37.979   0.246
 9682W        W82107   5.718  19.052  14.749
 9683W        W82108  26.508  28.687   2.843
 9684W        W82109  17.820  30.354   2.769
 9685W        W82110  39.452  12.443  14.631
 9686W        W82111  31.168  24.112   1.881
 9687W        W82112  44.328  11.795  10.631
 9688W        W82113  20.756  44.195   3.894
 9689W        W82114  19.262  34.236  13.254
 9690W        W82115  38.874  11.789   5.219
 9691W        W82116  34.365   2.854  10.677
 9692W        W82117  37.069  11.113  12.898
 9693W        W82118  41.577  40.069  12.927
 9694W        W82119  32.449  33.849  11.763
 9695W        W82120  38.281  31.951   1.035
 9696W        W82121  30.832  23.510   0.873
 9697W        W82122  37.037  42.505   3.781
 9698W        W82123  18.270  37.552  10.541
 9699W        W82124  25.913   4.335   3.293
 9700W        W82125  33.992   8.247   1.731
 9701W        W82126  30.042  16.858  11.632
 9702W        W82127  16.664  17.634  13.921
 9703W        W82128  40.454   1.957   0.958
 9704W        W82129  41.303  16.750   0.488
 9705W        W82130  32.940   6.498   3.324
 9706W        W82131  42.970  14.628  12.016
 9707W        W82132  22.196  40.058   3.339
 9708W        W82133  31.070  23.337  14.255
 9709W        W82134   4.488  19.170   2.668
 9710W        W82135   8.719  15.029  11.460
 9711W        W82136   4.500  37.428   0.879
 9712W        W82137  19.511  32.823   5.046
 9713W        W82138   3.379   7.612   2.303
 9714W        W82139  20.254   5.222   2.801
 9715W        W82140   8.782   6.239  13.354
 9716W        W82141  40.807  24.610   4.205
 9717W        W82142  12.402  35.766  13.172
 9718W        W82143  34.958  23.291  13.805
 9719W        W82144  28.914   0.850  11.522
 9720W        W82145  17.593  44.105  10.548
 9721W        W82146  12.557  24.336  13.840
 9722W        W82147   5.364   3.014   4.957
 9723W        W82148   4.559  26.263   0.756
 9724W        W82149  23.679  34.347   3.878
 9725W        W82150  10.244  11.211  12.069
 9726W        W82151  31.916  36.611  13.612
 9727W        W82152   1.019  41.008  14.862
 9728W        W82153  23.626  11.085  10.682
 9729W        W82154   9.267  11.490  14.327
 9730W        W82155   8.764  31.554   3.343
 9731W        W82156   9.827  28.640   4.889
 9732W        W82157  19.134  11.429  11.857
 9733W        W82158   9.191  38.230  10.051
 9734W        W82159  32.697  36.977   0.957
 9735W        W82160   6.488  23.066   3.681
 9736W        W82161  10.159   2.764   2.949
 9737W        W82162  13.139  13.839  14.838
 9738W        W82163   6.731  13.853  13.440
 9739W        W82164  11.141   1.601   0.900
 9740W        W82165   3.911  41.303  11.567
 9741W        W82166  42.324  31.242   0.516
 9742W        W82167  42.753   9.124   4.589
 9743W        W82168   2.395  32.109  13.470
 9744W        W82169  33.638  12.514  12.272
 9745W        W82170  33.939  12.826  13.783
 9746W        W82171  36.371  37.051  13.285
 9747W        W82172   5.657  26.912  12.509
 9748W        W82173  37.391  19.985   2.330
 9749W        W82174  10.144  44.282   3.274
 9750W        W82175  36.094  23.019   0.896
 9751W        W82176  20.905  11.873  14.639
 9752W        W82177   2.732  19.182  13.882
 9753W        W82178  12.679  22.921   4.064
 9754W        W82179   9.307  40.420  12.949
 9755W        W82180  12.362  25.085  10.902
 9756W        W82181  42.022  22.779   3.623
 9757W        W82182  12.117  41.265   1.659
 9758W        W82183  20.065  31.668   3.333
 9759W        W82184  16.916  29.762   5.122
 9760W        W82185  12.881  20.784  12.415
 9761W        W82186  37.441  32.416  10.758
 9762W        W82187  12.578  43.863  12.808
 9763W        W82188  33.561  10.950  13.253
 9764W        W82189  11.187  24.986  12.436
 9765W        W82190  44.457  42.040  11.076
 9766W        W82191  35.275  29.462   0.952
 9767W        W82192  32.970  36.843  11.228
 9768W        W82193  30.519   2.362  12.107
 9769W        W82194  31.061  28.423   0.914
 9770W        W82195  10.331  16.295   4.175
 9771W        W82196  14.114  35.698  12.126
 9772W        W82197  10.663  34.385   1.871
 9773W        W82198   1.333   5.012   1.487
 9774W        W82199  12.760   0.231   4.600
 9775W        W82200  12.450  33.167   0.844
 9776W        W82201  34.445  19.119  11.046
 9777W        W82202  39.904   1.801   4.320
 9778W        W82203  29.569  30.720   1.245
 9779W        W82204  41.540  43.950  11.160
 9780W        W82205  35.492   2.489   0.877
 9781W        W82206  24.483  29.566   3.911
 9782W        W82207  24.406  30.525  12.012
 9783W        W82208  43.869  13.944  11.225
 9784W        W82209   2.927  22.887  12.032
 9785W        W82210  14.645  33.905   0.349
 9786W        W82211  37.067  44.801  14.834
 9787W        W82212  26.547  42.811   2.197
 9788W        W82213  36.378   1.154  12.470
 9789W        W82214  30.668  24.046   2.751
 9790W        W82215  35.988   5.460  14.153
 9791W        W82216  40.742  40.111   4.206
 9792W        W82217  44.183  22.753   4.136
 9793W        W82218  31.891  28.092   0.897
 9794W        W82219  38.813  12.261   4.266
 9795W        W82220  24.266  20.151   0.384
 9796W        W82221   0.988   5.343  10.625
 9797W        W82222  18.240  18.078  14.916
 9798W        W82223  18.868  22.858  12.072
 9799W        W82224  25.475   5.191   0.589
 9800W        W82225  33.050  20.813   4.200
 9801W        W82226  43.544  26.892   3.649
 9802W        W82227  26.749   0.326  10.267
 9803W        W82228   6.256   5.306   2.289
 9804W        W82229  19.899   3.899   0.232
 9805W        W82230  44.700  30.613   3.901
 9806W        W82231  19.003  44.692   5.100
 9807W        W82232  23.474  11.695  12.986
 9808W        W82233  22.362  26.607  12.015
 9809W        W82234  27.406  12.449  14.716
 9810W        W82235  12.713  25.116  14.491
 9811W        W82236  27.835  15.671  13.488
 9812W        W82237  22.960  10.493   2.124
 9813W        W82238  12.362  21.102   2.675
 9814W        W82239   2.396   9.223   2.791
 9815W        W82240  44.417  23.583   0.509
 9816W        W82241  21.773   4.049  10.613
 9817W        W82242  12.660  20.616  14.832
 9818W        W82243  11.373  17.164   4.114
 9819W        W82244  42.085  14.631  11.134
 9820W        W82245   3.830  24.403   0.151
 9821W        W82246  12.146  22.800   3.985
 9822W        W82247  27.944  27.411   1.554
 9823W        W82248   2.306  19.633   2.769
 9824W        W82249  38.116   1.196  11.519
 9825W        W82250  15.718  43.127  10.659
 9826W        W82251  13.417  38.449  11.484
 9827W        W82252  10.846  22.713  10.896
 9828W        W82253  43.263  35.011   1.990
 9829W        W82254  35.094  16.281   1.306
 9830W        W82255  27.219  35.846  11.595
 9831W        W82256  22.589   2.243  10.696
 9832W        W82257  39.430   9.473   1.762
 9833W        W82258  34.990  25.396  11.754
 9834W        W82259   7.591  39.603  10.634
 9835W        W82260  12.058  25.020  11.321
 9836W        W82261   5.311  43.977   3.246
 9837W        W82262   3.170  13.725  11.168
 9838W        W82263  32.930  13.570  14.937
 9839W        W82264   1.523  25.435  13.024
 9840W        W82265   3.340  29.648  10.294
 9841W        W82266  13.383  33.864   2.254
 9842W        W82267  29.735  29.701   1.204
 9843W        W82268  43.575  18.159   2.352
 9844W        W82269   0.782   6.461  10.471
 9845W        W82270  42.722   5.710  12.892
 9846W        W82271  14.071  29.791   2.218
 9847W        W82272  41.547   2.561   2.891
 9848W        W82273  19.742   7.221   2.239
 9849W        W82274  27.389  36.504   1.744
 9850W        W82275  31.199  22.984  12.978
 9851W        W82276  21.081  18.705   1.875
 9852W        W82277  17.466   0.274  14.577
 9853W        W82278  16.207  20.831  11.398
 9854W        W82279  23.155  14.418   0.005
 9855W        W82280   5.875   2.210  10.573
 9856W        W82281   2.208  28.785  11.983
 9857W        W82282  38.401  23.233   2.399
 9858W        W82283  34.479  26.472  11.546
 9859W        W82284   8.887   7.687   3.402
 9860W        W82285  19.961  13.833  10.593
 9861W        W82286  24.554  33.386   3.824
 9862W        W82287  26.175  36.348   2.327
 9863W        W82288  35.095  44.215   2.844
 9864W        W82289   5.732  24.658   3.138
 9865W        W82290  22.015  28.576  10.575
 9866W        W82291  25.787  32.853   0.326
 9867W        W82292  22.198  17.639   0.367
 9868W        W82293  31.442  44.813  10.691
 9869W        W82294  31.501  35.628   0.300
 9870W        W82295  31.117  24.841  10.024
 9871W        W82296  43.885  39.893  13.894
 9872W        W82297  34.556  19.176  12.037
 9873W        W82298  28.998  42.445  10.674
 9874W        W82299  41.132   7.708   3.602
 9875W        W82300  41.428  21.661  11.043
 9876W        W82301  43.477   3.867  10.795
 9877W        W82302  29.100  22.222  10.620
 9878W        W82303  30.623   5.536  11.055
 9879W        W82304  11.651  29.672  12.642
 9880W        W82305  11.025  41.255  11.192
 9881W        W82306   0.699  44.876  11.221
 9882W        W82307  42.432  17.022  14.318
 9883W        W82308  40.086   0.777   0.869
 9884W        W82309  27.621  21.887  14.791
 9885W        W82310  34.554  13.897   1.223
 9886W        W82311  20.120  38.308   4.324
 9887W        W82312  20.699  39.474  11.587
 9888W        W82313  27.695  38.980   4.722
 9889W        W82314   4.703  35.614  11.129
 9890W        W82315  36.120  11.114   1.236
 9891W        W82316  21.049  11.544   3.706
 9892W        W82317   8.162  24.668   4.548
 9893W        W82318  39.470  32.593  13.407
 9894W        W82319   8.349  34.354  14.360
 9895W        W82320  43.368  13.431  12.443
 9896W        W82321   5.685  18.183  12.950
 9897W        W82322  33.096   6.651  12.894
 9898W        W82323  11.152  21.986   2.401
 9899W        W82324  25.760  29.395   3.503
 9900W        W82325  10.807  29.242  14.580
 9901W        W82326  20.876  38.954  10.925
 9902W        W82327  18.023  19.444   2.401
 9903W        W82328  21.195  18.669   2.379
 9904W        W82329  16.602  42.749   2.303
 9905W        W82330  44.054  34.499  13.165
 9906W        W82331   8.423  36.929   2.448
 9907W        W82332  30.747   8.856   2.509
 9908W        W82333  27.654  16.293   2.195
 9909W        W82334  21.734  29.217  12.063
 9910W        W82335   3.798  21.150  14.550
 9911W        W82336  43.912   3.866  12.127
 9912W        W82337  44.630  27.275   4.069
 9913W        W82338   6.360  39.265  11.113
 9914W        W82339  44.985  34.978   2.358
 9915W        W82340   8.652  42.126  10.662
 9916W        W82341  37.839   9.285   1.151
 9917W        W82342  43.898  44.341   4.636
 9918W        W82343  42.313  37.241  13.380
 9919W        W82344  17.200  33.497   0.985
 9920W        W82345  23.565   0.351  12.534
 9921W        W82346   7.690  16.079   0.626
 9922W        W82347  27.006  37.616   4.795
 9923W        W82348  16.814  38.016   3.386
 9924W        W82349  35.508  15.822   0.836
 9925W        W82350  41.239  35.598  14.272
 9926W        W82351  29.999   3.132   2.509
 9927W        W82352  33.631  24.602  11.156
 9928W        W82353  16.210   3.762   1.298
 9929W        W82354  44.572   0.518  11.519
 9930W        W82355  31.237  11.456  14.765
 9931W        W82356   5.928  11.285   4.678
 9932W        W82357  28.683  36.163  12.921
 9933W        W82358  38.362  12.179  13.657
 9934W        W82359  19.810  24.261   1.420
 9935W        W82360  27.899  15.631  10.506
 9936W        W82361  11.707  44.163   4.249
 9937W        W82362  23.186  11.244   2.358
 9938W        W82363  25.741  27.491   4.561
 9939W        W82364  19.593  29.828   5.149
 9940W        W82365  23.948  40.014   0.444
 9941W        W82366  42.932  14.648   1.850
 9942W        W82367  35.506   8.575  12.835
 9943W        W82368  29.311  31.227   0.517
 9944W        W82369  34.071  28.946   3.756
 9945W        W82370  34.051  25.461  11.203
 9946W        W82371  15.742  17.035  12.161
 9947W        W82372  10.108  13.785   3.227
 9948W        W82373  21.306  20.048   3.612
 9949W        W82374   1.678  24.521  13.282
 9950W        W82375  44.134  43.824   9.964
 9951W        W82376  20.749   0.756  13.862
 9952W        W82377   3.571  38.642   2.474
 9953W        W82378  18.075  43.485   3.379
 9954W        W82379  33.990  10.270  14.780
 9955W        W82380  30.420   4.404  14.990
 9956W        W82381  44.943  33.918   4.212
 9957W        W82382  14.332  16.624   1.463
 9958W        W82383  30.949  18.926  14.109
 9959W        W82384  18.561  38.072   0.524
 9960W        W82385  37.334  26.174  14.928
 9961W        W82386  29.146   6.376   3.304
 9962W        W82387  39.966  21.639   4.922
 9963W        W82388  18.349   8.845   4.850
 9964W        W82389   8.628  32.234  11.150
 9965W        W82390  34.019  21.542   0.254
 9966W        W82391  23.464  14.815   0.196
 9967W        W82392  31.786  27.624   0.268
 9968W        W82393  31.093  30.546  11.150
 9969W        W82394  15.664   8.227   1.975
 9970W        W82395  26.164  42.527   4.378
 9971W        W82396  15.770  25.236   2.467
 9972W        W82397  41.932  35.094  12.908
 9973W        W82398   4.853  24.021   1.231
 9974W        W82399  42.283   5.031   3.812
 9975W        W82400  39.806  13.825   2.718
 9976W        W82401  21.761  36.109   3.173
 9977W        W82402  34.301  32.161   2.896
 9978W        W82403  15.249  15.648  12.543
 9979W        W82404  41.506  31.481   3.763
 9980W        W82405   7.587  42.346   3.885
 9981W        W82406   1.820   0.900   3.947
 9982W        W82407  40.084  13.086   0.108
 9983W        W82408  14.815  25.472  13.799
 9984W        W82409  20.278  23.168  12.138
 9985W        W82410  41.714  27.724   2.158
 9986W        W82411   9.035  35.098  13.807
 9987W        W82412   4.466  17.062  14.739
 9988W        W82413  41.810  11.653   4.658
 9989W        W82414  29.036  26.948   4.159
 9990W        W82415  22.591  41.104  10.727
 9991W        W82416  33.571   9.737   2.952
 9992W        W82417   9.768  32.139   1.962
 9993W        W82418  29.015  42.253  11.159
 9994W        W82419  25.086  37.812   0.479
 9995W        W82420   5.333  30.721  12.883
 9996W        W82421  20.230   1.897  11.573
 9997W        W82422  33.595  31.787  10.738
 9998W        W82423   4.720  15.052   4.274
 9999W        W82424  22.976  15.574   2.293
10000W        W82425  35.285  19.813  13.024
10001W        W82426  32.164  20.024   2.304
10002W        W82427  32.983  21.557   1.925
10003W        W82428  12.516  26.594   3.635
10004W        W82429  41.533  39.831  10.479
10005W        W82430  25.168  44.888   1.319
10006W        W82431   0.988  29.509   9.913
10007W        W82432  16.768  19.897  13.274
10008W        W82433   5.658   5.700  13.149
10009W        W82434   6.236  33.899  11.485
10010W        W82435   4.739  37.237   4.717
10011W        W82436  13.835  37.390   2.585
10012W        W82437   8.125  39.953   1.059
10013W        W82438  26.570   5.502   4.450
10014W        W82439  36.727  16.319  13.049
10015W        W82440  28.085  20.066  13.359
10016W        W82441  14.819  27.898   3.013
10017W        W82442   6.284   2.951   1.088
10018W        W82443  28.770   8.401  12.650
10019W        W82444  34.411  35.249   0.699
10020W        W82445  18.802   0.939  11.556
10021W        W82446  24.178   9.762   5.112
10022W        W82447   9.672  21.602  13.109
10023W        W82448  16.043  22.190  10.851
10024W        W82449  22.203   1.727   0.377
10025W        W82450  11.049   6.253   2.897
10026W        W82451  35.052  35.843  13.523
10027W        W82452  38.480  18.261   1.646
10028W        W82453  38.587  29.216   2.220
10029W        W82454  21.624  37.324   2.826
10030W        W82455  43.484  23.223   3.040
10031W        W82456  30.822   3.014   0.795
10032W        W82457  43.480  11.663  12.105
10033W        W82458   3.346  23.040  13.333
10034W        W82459  14.646   9.338  12.979
10035W        W82460  33.025  25.015   0.864
10036W        W82461  32.418  37.354   0.181
10037W        W82462  16.647  11.059   2.215
10038W        W82463  42.420  19.525   2.411
10039W        W82464  10.647  42.476  11.531
10040W        W82465   5.162   0.186   0.822
10041W        W82466  36.469  25.163   2.843
10042W        W82467   6.409  39.625  12.999
10043W        W82468  44.164  42.332  11.776
10044W        W82469  44.240  37.851   1.574
10045W        W82470   0.661  11.817   4.591
10046W        W82471  31.173  39.036   1.943
10047W        W82472  40.904  10.306  14.120
10048W        W82473  35.822  11.058  12.996
10049W        W82474  28.116  26.575   2.100
10050W        W82475  26.724  15.209   4.658
10051W        W82476  40.133  13.720  13.071
10052W        W82477  29.892  41.542   4.626
10053W        W82478   9.828  32.029   0.919
10054W        W82479   6.303  19.153   4.245
10055W        W82480  20.630  15.165  13.834
10056W        W82481   6.111  27.671  11.451
10057W        W82482   9.325  28.247   2.891
10058W        W82483  16.795   1.462  10.614
10059W        W82484  10.410  44.395  10.369
10060W        W82485   6.774  14.777   2.713
10061W        W82486  41.595  22.173   3.071
10062W        W82487  40.961  16.024   0.778
10063W        W82488  12.050  24.399   4.150
10064W        W82489   7.915  15.561  11.572
10065W        W82490  10.606   6.442  13.927
10066W        W82491  31.056   9.867  12.503
10067W        W82492   0.883  24.186  12.925
10068W        W82493  28.966   4.103   3.193
10069W        W82494  19.549  32.814  14.410
10070W        W82495  10.098  30.719   0.095
10071W        W82496  36.314   5.515  10.400
10072W        W82497  44.440  21.367   4.608
10073W        W82498   6.155   9.854   1.073
10074W        W82499  28.023  18.391  11.531
10075W        W82500  23.677  36.603   0.268
10076W        W82501  21.196  40.490  13.295
10077W        W82502  33.166   5.876  11.165
10078W        W82503  12.270  23.620  13.458
10079W        W82504  33.662  19.284  14.411
10080W        W82505  33.081  38.301  13.493
10081W        W82506  22.689  27.897   2.343
10082W        W82507   4.881  19.934   2.268
10083W        W82508  22.777  32.589  14.384
10084W        W82509   9.051  23.987   0.888
10085W        W82510  39.050  34.167  13.927
10086W        W82511   4.393  12.428  11.676
10087W        W82512  25.104  37.730  12.987
10088W        W82513  36.417  36.300   2.361
10089W        W82514  19.796  29.010   0.500
10090W        W82515  44.769  32.446   4.457
10091W        W82516  13.453   3.613  12.520
10092W        W82517   0.439  15.397   4.145
10093W        W82518  38.300  32.438   0.671
10094W        W82519  33.525  22.161  14.435
10095W        W82520  29.626  39.417   1.566
10096W        W82521  36.109   7.345   1.983
10097W        W82522   7.814  37.133  14.264
10098W        W82523  16.741  18.129   0.865
10099W        W82524  38.224  25.411  13.350
10100W        W82525  33.131  20.578   3.703
10101W        W82526  34.448  14.371  11.234
10102W        W82527  16.304  22.600  10.658
10103W        W82528   1.939  29.955  12.074
10104W        W82529  24.655  21.048   2.664
10105W        W82530  20.781  17.659  11.099
10106W        W82531  11.801  24.033   4.412
10107W        W82532  10.263   6.853  12.948
10108W        W82533   2.310  22.729   1.646
10109W        W82534  10.553  30.829   4.107
10110W        W82535   4.756  29.791   1.909
10111W        W82536  23.762  29.908  12.968
10112W        W82537  29.914  43.294  14.516
10113W        W82538  15.578  22.521  10.317
10114W        W82539  18.663  13.165   0.282
10115W        W82540  13.751  35.953  14.425
10116W        W82541  24.491  31.237  14.696
10117W        W82542  31.019  16.576  11.875
10118W        W82543  13.765  35.639  12.907
10119W        W82544  36.395  27.055   4.166
10120W        W82545   8.640  34.222  12.596
10121W        W82546  18.583   6.910  10.651
10122W        W82547  34.973   9.492  14.123
10123W        W82548  18.662   8.698   2.766
10124W        W82549  20.994  22.062  12.863
10125W        W82550  10.964  25.510   1.744
10126W        W82551  13.318  27.626  12.408
10127W        W82552  15.212   6.099   1.791
10128W        W82553  41.768  42.789   4.082
10129W        W82554  34.058  31.575  10.831
10130W        W82555   6.897   4.302   0.786
10131W        W82556  39.563  41.966  10.601
10132W        W82557   4.430   5.285   4.645
10133W        W82558  40.537   7.217  14.477
10134W        W82559   6.025  21.451   1.177
10135W        W82560  38.155  10.836   0.358
10136W        W82561  39.552   6.645   0.082
10137W        W82562  21.492  22.085  13.029
10138W        W82563   7.682   7.083   3.280
10139W        W82564  25.291  21.481   4.242
10140W        W82565  36.535  18.159  11.891
10141W        W82566  43.757   3.693  12.581
10142W        W82567  32.695  22.227   3.265
10143W        W82568  18.031  16.140   0.107
10144W        W82569   7.957  14.278  14.269
10145W        W82570  34.615   4.178  12.282
10146W        W82571  40.549  18.364  14.918
10147W        W82572  16.089  32.579  12.738
10148W        W82573  36.801  12.581   3.376
10149W        W82574  17.216  21.767  14.058
10150W        W82575  33.880  42.881  11.058
10151W        W82576  28.671  19.136  13.955
10152W        W82577  32.268  18.340   3.538
10153W        W82578  26.046  43.863  10.455
10154W        W82579  32.984  43.000  14.938
10155W        W82580   9.936   5.460   2.929
10156W        W82581  39.066  31.920   3.963
10157W        W82582  38.060   4.728  12.170
10158W        W82583  34.611  20.594   2.775
10159W        W82584  20.003   5.860   0.660
10160W        W82585  36.169   8.386   4.312
10161W        W82586  29.210   5.936  12.078
10162W        W82587  28.453  25.781  10.558
10163W        W82588   6.167  32.616   4.595
10164W        W82589  36.797  25.654  10.771
10165W        W82590  17.838  14.939  13.840
10166W        W82591  16.303  18.762  12.818
10167W        W82592  12.352  37.836  11.969
10168W        W82593   7.477  43.532   4.101
10169W        W82594  10.352  43.789  14.845
10170W        W82595   7.471   4.699   1.775
10171W        W82596  24.124  11.138   0.030
10172W        W82597   9.247  15.509   0.999
10173W        W82598  42.437  25.221   1.274
10174W        W82599  20.344  15.065   3.218
10175W        W82600  40.086  31.920  14.948
10176W        W82601  38.038   2.185  14.785
10177W        W82602  44.871  38.011  14.799
10178W        W82603  30.187  19.509  11.986
10179W        W82604  39.504  25.483   4.159
10180W        W82605  33.410  22.586   3.721
10181W        W82606  31.661  12.517  13.694
10182W        W82607  23.961  43.921   4.506
10183W        W82608  10.283  23.171  13.522
10184W        W82609  17.041  12.373  12.929
10185W        W82610  12.812  41.000   4.511
10186W        W82611  19.927  16.697  12.852
10187W        W82612   4.416   9.999  10.512
10188W        W82613  26.894  26.407   1.732
10189W        W82614   4.881  15.753  13.765
10190W        W82615  28.960  29.557   1.732
10191W        W82616  43.948   3.260  14.822
10192W        W82617  28.962   7.336   0.106
10193W        W82618   7.746   6.178  10.851
10194W        W82619  20.807  24.299  13.531
10195W        W82620  32.227  35.041   0.351
10196W        W82621  26.390  32.402   3.782
10197W        W82622  32.685  36.380  14.711
10198W        W82623   9.213  31.624  13.486
10199W        W82624  20.005   6.375   3.674
10200W        W82625   7.356  13.714   3.344
10201W        W82626   1.228  40.554   2.817
10202W        W82627  10.630  26.550  14.688
10203W        W82628   0.374   9.317  11.394
10204W        W82629  27.047  35.532   0.737
10205W        W82630  32.032  31.447   0.321
10206W        W82631  11.627  15.325  11.168
10207W        W82632   7.924   9.223   3.272
10208W        W82633   3.830  17.519   0.407
10209W        W82634   4.192   4.397  10.985
10210W        W82635   1.507  19.601  13.633
10211W        W82636  28.678  27.563  12.010
10212W        W82637   8.368  39.692  11.088
10213W        W82638   1.457   4.836  11.612
10214W        W82639  33.654  14.727  14.430
10215W        W82640   0.865  44.011  11.177
10216W        W82641  15.792  32.161  12.932
10217W        W82642   8.317  22.488   0.287
10218W        W82643  18.860  19.874   0.125
10219W        W82644  14.421  17.371   2.241
10220W        W82645   7.408  15.093   2.226
10221W        W82646  11.931  30.138  13.964
10222W        W82647  27.410   6.051  11.158
10223W        W82648  42.522  34.798   4.145
10224W        W82649  20.018  22.414  10.412
10225W        W82650  40.325  21.757  12.982
10226W        W82651  41.852  14.030   5.020
10227W        W82652   7.879   3.000   4.533
10228W        W82653   1.314  34.650  11.437
10229W        W82654  41.354  28.111   0.419
10230W        W82655  10.719  11.216   2.176
10231W        W82656   6.771  43.415  12.565
10232W        W82657  32.073  39.051   0.972
10233W        W82658   6.962  27.796  11.150
10234W        W82659  18.041  27.708   4.046
10235W        W82660  23.575   6.770  11.608
10236W        W82661  23.100  30.030  13.790
10237W        W82662  15.063  11.869  11.107
10238W        W82663  42.777   1.723  12.023
10239W        W82664  10.118  44.916   4.536
10240W        W82665  21.230   2.888  10.465
10241W        W82666  34.448  36.428  11.206
10242W        W82667   8.371  40.488   0.505
10243W        W82668  35.833  20.607   1.420
10244W        W82669  16.191  41.267   3.384
10245W        W82670   4.742   0.494   0.704
10246W        W82671  33.080  25.947   3.689
10247W        W82672  10.573  22.213   3.235
10248W        W82673  12.554   9.061  11.007
10249W        W82674   8.287  13.276  14.712
10250W        W82675  12.389  24.256   2.249
10251W        W82676  21.256  23.713   1.714
10252W        W82677   2.251  38.962   2.759
10253W        W82678  15.536   0.496   3.739
10254W        W82679  42.419  15.893   4.787
10255W        W82680  24.979  15.526  12.103
10256W        W82681   8.847  32.595   4.242
10257W        W82682  16.522  37.968   1.539
10258W        W82683  41.750  19.465   4.998
10259W        W82684  21.472  26.640   0.994
10260W        W82685   5.615  38.884   1.166
10261W        W82686  23.573  26.601  13.306
10262W        W82687  32.160  16.439   2.831
10263W        W82688   0.542  25.516  13.018
10264W        W82689  39.529  38.842   2.327
10265W        W82690   6.334   1.941  10.653
10266W        W82691  30.828  19.876   2.951
10267W        W82692  11.117   4.753  10.505
10268W        W82693  35.585  38.350  12.927
10269W        W82694   0.239  10.891  14.340
10270W        W82695  34.014   8.904   1.469
10271W        W82696  42.558  14.663  13.899
10272W        W82697   2.869  44.833  11.577
10273W        W82698  25.117  40.212  14.790
10274W        W82699  18.534   3.973  12.001
10275W        W82700  15.868  25.059  14.883
10276W        W82701  31.089  35.455   2.173
10277W        W82702  33.168  38.085   2.350
10278W        W82703  34.551  31.581   0.885
10279W        W82704  33.667   8.839   2.330
10280W        W82705  29.591  10.675  14.829
10281W        W82706   5.786   3.850  10.673
10282W        W82707  21.095  23.338  14.032
10283W        W82708  13.589  32.617  11.539
10284W        W82709  14.307  23.442   1.748
10285W        W82710   9.795  43.513  12.137
10286W        W82711  13.160  22.516  13.371
10287W        W82712   6.339  16.720   4.671
10288W        W82713  31.598  38.913  14.446
10289W        W82714  34.668  27.179   1.241
10290W        W82715   3.522   7.853  10.517
10291W        W82716  26.435  43.036  13.339
10292W        W82717  17.364  41.612   3.581
10293W        W82718  41.361  36.480   1.205
10294W        W82719   2.307  28.761   1.640
10295W        W82720  24.968  29.881   0.892
10296W        W82721   3.443   9.278   2.730
10297W        W82722  12.208  27.204  12.496
10298W        W82723   3.641  36.889   0.761
10299W        W82724  42.314   2.795   2.491
10300W        W82725  22.326  36.994   1.872
10301W        W82726  31.497  31.644  13.989
10302W        W82727  19.997  41.079  12.934
10303W        W82728  11.093  20.264  13.920
10304W        W82729  25.153  15.992  12.118
10305W        W82730  36.094  37.313  12.884
10306W        W82731   7.779   9.670  11.585
10307W        W82732   1.909  41.335   4.705
10308W        W82733   6.683  34.746   5.059
10309W        W82734  17.078  33.149  11.935
10310W        W82735  41.316   2.556   4.148
10311W        W82736  34.448  20.256   4.060
10312W        W82737   9.725  29.720   1.951
10313W        W82738  27.115  39.432   0.798
10314W        W82739   9.144   1.883   1.246
10315W        W82740   6.180  12.363   5.059
10316W        W82741  33.874  10.265  10.767
10317W        W82742  19.745  24.755   3.290
10318W        W82743  41.577  28.617   4.196
10319W        W82744  12.296  18.969  12.397
10320W        W82745  43.228  34.278   4.971
10321W        W82746   2.432   2.488   3.623
10322W        W82747  33.165  30.645  11.918
10323W        W82748  41.496  20.088  14.221
10324W        W82749  21.968  38.139   4.691
10325W        W82750   6.844  25.994  12.632
10326W        W82751  39.519  19.716   4.708
10327W        W82752  32.837   3.205  11.885
10328W        W82753  11.903  28.365   4.767
10329W        W82754  36.358  31.934   0.280
10330W        W82755  36.664  36.828   4.632
10331W        W82756  16.171  33.504   3.923
10332W        W82757  20.759   0.486   3.595
10333W        W82758   5.922   3.613   3.763
10334W        W82759   8.228  22.688   4.638
10335W        W82760  39.392  28.844   3.961
10336W        W82761   8.813  30.514  13.741
10337W        W82762  36.176  23.399   4.606
10338W        W82763  33.605  28.387   1.005
10339W        W82764  19.668   6.381   4.068
10340W        W82765  23.105  37.031   0.982
10341W        W82766   7.137   3.302  12.147
10342W        W82767  17.658  41.554  11.707
10343W        W82768   9.383   0.221  11.064
10344W        W82769  14.556  31.615   3.635
10345W        W82770  36.867  19.145  11.214
10346W        W82771  31.067  40.969   4.924
10347W        W82772  39.490  16.683  11.697
10348W        W82773  34.037   4.489  12.487
10349W        W82774   7.299  32.378  12.476
10350W        W82775  11.860  26.109  14.289
10351W        W82776  34.996  39.881   1.430
10352W        W82777   7.333  22.951  11.266
10353W        W82778   3.904  16.496   1.754
10354W        W82779   4.894  16.433   0.866
10355W        W82780  13.193  42.644  13.290
10356W        W82781  29.082  41.306  14.923
10357W        W82782  37.449  14.384   0.244
10358W        W82783  17.714  20.980  14.135
10359W        W82784  17.190   8.156   2.786
10360W        W82785  20.483  20.988   4.213
10361W        W82786  43.565  37.523   0.828
10362W        W82787  13.613  36.967  14.247
10363W        W82788  44.270  27.375   0.472
10364W        W82789  37.326  42.438  12.141
10365W        W82790  14.243  33.353  10.450
10366W        W82791  13.438  16.779   2.751
10367W        W82792  41.529  27.518  14.848
10368W        W82793  18.556  14.904   2.428
10369W        W82794  23.089   4.470   2.814
10370W        W82795  41.625  13.632   2.278
10371W        W82796  22.864  42.697   9.963
10372W        W82797  26.200  28.860  12.417
10373W        W82798  42.437  44.842   4.989
10374W        W82799  20.982  15.202  11.955
10375W        W82800  21.468  27.837   1.190
10376W        W82801   5.668  26.435   4.266
10377W        W82802  13.113  22.070   1.758
10378W        W82803  16.376  34.004  13.323
10379W        W82804  29.077  34.115   2.699
10380W        W82805  34.374  23.088   1.416
10381W        W82806  25.933  27.074  11.589
10382W        W82807  18.784   9.751  11.865
10383W        W82808  12.121  27.957  14.067
10384W        W82809  27.592   6.127  13.055
10385W        W82810  16.595  43.765   0.263
10386W        W82811  36.608  24.969   4.230
10387W        W82812   4.945   4.594   3.713
10388W        W82813  33.604  20.591   0.896
10389W        W82814  41.002  42.776   4.652
10390W        W82815  35.422   9.205   0.228
10391W        W82816  16.171   0.744   3.703
10392W        W82817  29.261  30.553   4.250
10393W        W82818   2.382  13.052   4.207
10394W        W82819   1.834  15.291  13.445
10395W        W82820   0.920  18.614  14.489
10396W        W82821  24.585   0.205   0.501
10397W        W82822   1.259  39.530  13.349
10398W        W82823  24.194  31.631   0.493
10399W        W82824  10.570  39.168   1.371
10400W        W82825  16.826  18.553   3.191
10401W        W82826   2.948  38.358  10.603
10402W        W82827  17.741  14.338  13.053
10403W        W82828  10.192   9.151  13.895
10404W        W82829  42.391  21.724   4.309
10405W        W82830  10.264   6.959   2.904
10406W        W82831  11.729  12.088  13.876
10407W        W82832  21.083  36.058   1.382
10408W        W82833  24.418  21.154  14.443
10409W        W82834  16.265  22.891  13.906
10410W        W82835   1.507  36.799  12.375
10411W        W82836   0.238  19.181   4.667
10412W        W82837   3.806  19.637   4.794
10413W        W82838  38.366  34.509   4.621
10414W        W82839  39.349  43.584   3.117
10415W        W82840  13.599  32.486   3.364
10416W        W82841   5.974  34.982   2.638
10417W        W82842  20.074  42.983  11.444
10418W        W82843  33.469   1.235  11.258
10419W        W82844  29.951  32.763   4.634
10420W        W82845  11.923   5.015   3.155
10421W        W82846  36.681   0.518   4.111
10422W        W82847  18.346  21.798  13.430
10423W        W82848   0.049  22.375  14.110
10424W        W82849  44.996  41.384  14.582
10425W        W82850  23.970  10.102   4.785
10426W        W82851  11.873  20.774  11.024
10427W        W82852  34.992   1.017   0.297
10428W        W82853  33.442  28.031  13.709
10429W        W82854  15.668  21.135  10.138
10430W        W82855  39.079  36.088   5.088
10431W        W82856  25.943  19.555   0.134
10432W        W82857  34.772  25.348   0.666
10433W        W82858  23.112   9.102   0.270
10434W        W82859  12.068  32.217   3.703
10435W        W82860  18.307  24.051   0.312
10436W        W82861  22.300   8.834  11.520
10437W        W82862  21.592  23.508   4.516
10438W        W82863  39.080  40.872   1.253
10439W        W82864  40.622   4.171   0.296
10440W        W82865  13.396  11.911  14.939
10441W        W82866  35.240  29.592   3.926
10442W        W82867   0.289  41.826  14.491
10443W        W82868  22.972   8.458  12.100
10444W        W82869  25.952  33.046   0.788
10445W        W82870  38.396  37.591   5.077
10446W        W82871  31.377  14.108   0.689
10447W        W82872  42.287   4.116  11.171
10448W        W82873  30.592  32.120   1.647
10449W        W82874   2.768  25.883  14.316
10450W        W82875  17.374  29.114   0.777
10451W        W82876   1.153  30.498  14.878
10452W        W82877  15.158  13.291  13.482
10453W        W82878   3.475   5.438   1.236
10454W        W82879  23.410  24.053  13.851
10455W        W82880  23.976  30.545  10.655
10456W        W82881  44.412   5.498  14.869
10457W        W82882   9.908  23.220  11.118
10458W        W82883  17.545  22.623  11.011
10459W        W82884  42.350  38.864  12.419
10460W        W82885  22.067   4.439  11.432
10461W        W82886   2.750  28.987   3.251
10462W        W82887  40.079   5.237  13.394
10463W        W82888  17.546  43.078  10.611
10464W        W82889   5.838   6.726   0.635
10465W        W82890  25.423  24.698   2.794
10466W        W82891  43.558  35.839   1.360
10467W        W82892  18.041  34.882   1.822
10468W        W82893   7.358   7.177   2.864
10469W        W82894  44.796  14.579   2.825
10470W        W82895  42.704  44.418  11.135
10471W        W82896   7.801  15.077  13.335
10472W        W82897   1.937  44.859  13.959
10473W        W82898   2.064   8.068   0.934
10474W        W82899  22.563   9.385   3.621
10475W        W82900  12.684  44.960   3.673
10476W        W82901  31.078   0.884  11.126
10477W        W82902  26.264  37.862   0.330
10478W        W82903  17.789  43.940   0.766
10479W        W82904  28.625   0.750   1.383
10480W        W82905  25.375  10.164  13.422
10481W        W82906   4.207  39.877  13.406
10482W        W82907  38.921  26.889   2.620
10483W        W82908   8.183  42.889  11.663
10484W        W82909  17.046  14.256  11.490
10485W        W82910   6.822  24.246   1.837
10486W        W82911  39.319  28.567  12.279
10487W        W82912  20.663  17.586  13.385
10488W        W82913  32.536  42.424  12.337
10489W        W82914  18.761  30.963   0.731
10490W        W82915  18.926  41.460   0.777
10491W        W82916   9.108  19.532  11.177
10492W        W82917  42.461  39.532   1.351
10493W        W82918  12.064  40.535   4.043
10494W        W82919  28.646   8.188  13.145
10495W        W82920  38.250   3.068  11.419
10496W        W82921  17.753  29.197   1.630
10497W        W82922   7.694  27.847  12.953
10498W        W82923  22.034  18.705  11.185
10499W        W82924  30.028  12.895   0.774
10500W        W82925  38.288   6.370  10.642
10501W        W82926   1.729  27.751  12.668
10502W        W82927  19.838  35.434   2.920
10503W        W82928  19.613   4.875   1.375
10504W        W82929  23.299  12.563  13.028
10505W        W82930   5.316   5.970   0.444
10506W        W82931   3.774   6.212  12.401
10507W        W82932   7.946  44.021   2.371
10508W        W82933  25.611  15.554   3.017
10509W        W82934   0.960  23.898  12.509
10510W        W82935  27.648  39.436   1.923
10511W        W82936  18.352  31.697  10.574
10512W        W82937  35.875  30.051  14.006
10513W        W82938  37.291  36.394  14.051
10514W        W82939  28.735  37.520   4.985
10515W        W82940  23.953  29.585   1.859
10516W        W82941  33.332   3.380  12.055
10517W        W82942   1.570  28.216  11.566
10518W        W82943  10.700   8.470   1.928
10519W        W82944  35.509  30.140   4.892
10520W        W82945  14.722  16.030   0.890
10521W        W82946  29.160   2.194  14.795
10522W        W82947  35.665  19.576   4.377
10523W        W82948  13.738  15.407   0.353
10524W        W82949   6.815  35.946   0.488
10525W        W82950   3.740  16.728   4.353
10526W        W82951  35.711  29.161  10.432
10527W        W82952  26.072  17.528  11.176
10528W        W82953   3.792  36.808   2.870
10529W        W82954  23.434   1.720   3.374
10530W        W82955  41.539  12.202   2.908
10531W        W82956  11.440  19.563  13.381
10532W        W82957  24.430  14.236   1.512
10533W        W82958  33.113  16.282   4.674
10534W        W82959   5.300  23.762  12.335
10535W        W82960  18.416  11.173  12.769
10536W        W82961  11.233  27.698   2.392
10537W        W82962  18.037  36.981   1.318
10538W        W82963  33.325  16.833  14.440
10539W        W82964  41.924  37.160   2.615
10540W        W82965  12.635   9.934   2.352
10541W        W82966  27.336  19.793  11.657
10542W        W82967  40.971   4.539   2.031
10543W        W82968   0.502  41.239   0.888
10544W        W82969  42.684  10.596   2.969
10545W        W82970   0.301  40.558  11.478
10546W        W82971  21.166   8.828   1.400
10547W        W82972  22.773  19.740  10.350
10548W        W82973  30.925  20.217   4.727
10549W        W82974  37.571  43.699  13.856
10550W        W82975  28.997  25.090   3.771
10551W        W82976  37.875  34.194  13.336
10552W        W82977  27.338   4.746   0.378
10553W        W82978  30.883  14.580   3.356
10554W        W82979  26.223  17.044  12.444
10555W        W82980  21.609  14.648  12.162
10556W        W82981  11.285  18.016  11.213
10557W        W82982   7.884  41.404  14.733
10558W        W82983   0.375  13.691   2.138
10559W        W82984   4.480   6.974   0.385
10560W        W82985   9.599  11.324  10.750
10561W        W82986  16.398  43.899  13.496
10562W        W82987  16.335  32.676  13.180
10563W        W82988  10.296  21.657   3.722
10564W        W82989  14.563  22.270  13.894
10565W        W82990  22.562  34.117   3.175
10566W        W82991  23.666  22.291  13.219
10567W        W82992   6.854  27.150  10.623
10568W        W82993  37.400  34.459   1.298
10569W        W82994  43.577  13.308   1.801
10570W        W82995  22.538  28.115   1.182
10571W        W82996  18.305   2.150  10.878
10572W        W82997  37.276  44.023  13.562
10573W        W82998   7.228  40.432  13.336
10574W        W82999  40.590   5.206  13.421
10575W        W83000  18.998  29.965   5.736
10576W        W83001  38.617  20.234   1.893
10577W        W83002  30.991  14.292  12.569
10578W        W83003  33.047  25.466  14.704
10579W        W83004  24.148  22.929   3.849
10580W        W83005  39.703  37.391   2.847
10581W        W83006   9.293  40.381  12.016
10582W        W83007  19.769   3.888  14.303
10583W        W83008  24.086  25.608   2.460
10584W        W83009  37.643  40.820   0.664
10585W        W83010  31.075  13.066  12.988
10586W        W83011  20.157  14.346  11.945
10587W        W83012  30.220  25.433  11.426
10588W        W83013  37.529  40.789  14.874
10589W        W83014  30.766  16.586  13.559
10590W        W83015   9.843  38.485   1.966
10591W        W83016  32.645  11.896   0.815
10592W        W83017  16.709  11.874   4.374
10593W        W83018  22.660   0.819  14.688
10594W        W83019   8.795  24.210   4.040
10595W        W83020  19.525  12.111   2.284
10596W        W83021  37.494  25.460  11.562
10597W        W83022  44.487  34.126  10.876
10598W        W83023  19.781  42.991  12.755
10599W        W83024  38.084   3.779  12.691
10600W        W83025  13.216   7.807  11.994
10601W        W83026   7.958  39.256  12.848
10602W        W83027  42.909  11.022  14.038
10603W        W83028  22.112   8.251   4.734
10604W        W83029  18.077  27.102   0.303
10605W        W83030  12.817   2.432  11.522
10606W        W83031  12.843   7.157  13.135
10607W        W83032  22.768  40.477   3.890
10608W        W83033   8.628   5.873  14.497
10609W        W83034  31.549  10.360  10.669
10610W        W83035  31.836   3.973   4.194
10611W        W83036  13.234  10.801   1.228
10612W        W83037  21.542  44.411  11.628
10613W        W83038   6.944   9.312  12.458
10614W        W83039  43.799  38.561  14.503
10615W        W83040  22.571   0.368  10.106
10616W        W83041  21.273   6.664   1.556
10617W        W83042  27.812  40.888  14.397
10618W        W83043   2.493   6.860  13.394
10619W        W83044  15.622  15.336  13.795
10620W        W83045  28.888  17.534   0.828
10621W        W83046   9.800  32.856   0.413
10622W        W83047  26.641  43.646   3.598
10623W        W83048  30.189  42.823   1.062
10624W        W83049  19.197   0.793  14.430
10625W        W83050   9.841   9.335  14.290
10626W        W83051  34.504  22.969   3.814
10627W        W83052  24.512  33.068   2.882
10628W        W83053  27.657  30.642  12.456
10629W        W83054  12.851  18.785  14.489
10630W        W83055  35.060   1.745  13.760
10631W        W83056   0.661   0.575  13.595
10632W        W83057   9.160  14.777  11.468
10633W        W83058  33.278  23.668   4.529
10634W        W83059  28.125   0.854   0.246
10635W        W83060  11.542  12.820  12.235
10636W        W83061  14.815  33.446  14.369
10637W        W83062  25.184  40.217   4.649
10638W        W83063   6.451  21.757   1.874
10639W        W83064  32.531  12.652  11.610
10640W        W83065  31.435   5.954   4.642
10641W        W83066  16.361   0.450   1.780
10642W        W83067  12.162  29.447  12.555
10643W        W83068  12.590  22.047  10.581
10644W        W83069  27.879  23.163   1.805
10645W        W83070  17.401   4.232   0.368
10646W        W83071  42.038  29.042   0.487
10647W        W83072  16.964  44.510   4.474
10648W        W83073  11.076  22.164   3.277
10649W        W83074  34.428   6.973  14.908
10650W        W83075  22.611  32.631   2.854
10651W        W83076  22.533  17.521   1.964
10652W        W83077  32.209  43.944  10.750
10653W        W83078  17.024  27.670   1.201
10654W        W83079  18.652  35.869  10.254
10655W        W83080   7.087   2.464   2.433
10656W        W83081  16.061   3.991   0.254
10657W        W83082   8.842  33.645  11.068
10658W        W83083  32.166   0.275  14.975
10659W        W83084  22.098  25.955  14.783
10660W        W83085  30.068  13.176   3.598
10661W        W83086   1.873  15.177  12.521
10662W        W83087  31.343  12.640   0.086
10663W        W83088   4.035   1.716  13.887
10664W        W83089  34.680   2.342  10.662
10665W        W83090  25.259   5.564   1.193
10666W        W83091  21.528  41.388   4.318
10667W        W83092  19.010  18.605   0.780
10668W        W83093  25.542  24.795   3.726
10669W        W83094  36.592  28.606   3.718
10670W        W83095   3.329  18.258  14.672
10671W        W83096  38.591  30.057   0.876
10672W        W83097   8.896   6.822   0.302
10673W        W83098  10.829   9.022   4.148
10674W        W83099  21.568  27.949   2.877
10675W        W83100   1.904  31.512  11.035
10676W        W83101  38.055  41.575  13.912
10677W        W83102  18.307  34.674  12.234
10678W        W83103  17.564  10.741  10.634
10679W        W83104  16.848   3.227   4.104
10680W        W83105  17.465  38.840   2.360
10681W        W83106   0.988  25.924  14.444
10682W        W83107  17.102  42.871   0.252
10683W        W83108  35.078  44.819   0.878
10684W        W83109  34.204   8.386   4.163
10685W        W83110   6.661  40.769   1.053
10686W        W83111   0.471  24.956  13.888
10687W        W83112  17.997  32.242  14.499
10688W        W83113  28.110   5.456  10.600
10689W        W83114  10.161   8.652  13.783
10690W        W83115  20.286   7.352  11.050
10691W        W83116   4.213  23.755   2.889
10692W        W83117  22.069   5.890  13.377
10693W        W83118  24.637  25.393  12.681
10694W        W83119  41.309  42.346  14.519
10695W        W83120  26.494  44.756   4.339
10696W        W83121  12.624  15.534   1.681
10697W        W83122  10.803  10.694   0.461
10698W        W83123   5.155  29.417  14.496
10699W        W83124  12.379  26.933  12.020
10700W        W83125  42.849  33.390   1.349
10701W        W83126  41.496  43.794  14.482
10702W        W83127  39.492  35.146  14.623
10703W        W83128  20.260  33.868  12.857
10704W        W83129  12.444  31.119  13.985
10705W        W83130  24.105   2.717  14.722
10706W        W83131   0.782  37.995  11.919
10707W        W83132   9.977  42.909   0.713
10708W        W83133  42.273  33.537  11.572
10709W        W83134  27.533  20.321  12.417
10710W        W83135  41.761  28.105  12.528
10711W        W83136  13.601  33.815  10.928
10712W        W83137  36.030   1.358  10.652
10713W        W83138  25.668  31.852   2.343
10714W        W83139   1.005  43.297   4.560
10715W        W83140  43.524   0.319  10.776
10716W        W83141  22.102  38.446   2.383
10717W        W83142  43.356  13.633   4.619
10718W        W83143   4.396  22.669   2.675
10719W        W83144  38.310  22.576   4.898
10720W        W83145   6.737   5.922  10.944
10721W        W83146  26.409  34.304  12.096
10722W        W83147  15.669  16.706  11.199
10723W        W83148   6.498  25.645  12.436
10724W        W83149  40.329   1.324  14.123
10725W        W83150   2.131  35.074   0.276
10726W        W83151  28.919  22.571  12.919
10727W        W83152  19.701   1.280  11.870
10728W        W83153  42.618  11.799  14.072
10729W        W83154  27.149  13.575   1.951
10730W        W83155   9.647  19.321  12.473
10731W        W83156  20.092  43.945  13.860
10732W        W83157  38.150  14.662   2.551
10733W        W83158  44.960  23.176   1.406
10734W        W83159  40.360  41.529   4.567
10735W        W83160  41.917  15.673  14.543
10736W        W83161  25.147  11.153   5.470
10737W        W83162  35.864  44.900   1.299
10738W        W83163  32.152  36.049  13.173
10739W        W83164  14.376   8.757  10.805
10740W        W83165  23.410  38.958  10.464
10741W        W83166   4.314  25.517   2.229
10742W        W83167  40.357  17.521  12.730
10743W        W83168  29.052  16.239   2.244
10744W        W83169  28.150  22.517   4.249
10745W        W83170  17.806  26.238  13.280
10746W        W83171  40.109  31.524  13.008
10747W        W83172  39.785  19.239  12.642
10748W        W83173  22.072  11.406  13.808
10749W        W83174  44.688  25.833   4.899
10750W        W83175  22.716   4.455   4.804
10751W        W83176  40.551  36.153  10.748
10752W        W83177  34.030  15.098   1.434
10753W        W83178  26.768  13.885  14.761
10754W        W83179   3.765  15.909   3.798
10755W        W83180  43.111  16.998  10.920
10756W        W83181  29.220  19.583  11.166
10757W        W83182  17.872   7.370  10.700
10758W        W83183  26.136   3.892   0.930
10759W        W83184  13.366  41.893  12.209
10760W        W83185  43.469  44.091   1.163
10761W        W83186   9.170  28.111  13.384
10762W        W83187   6.459  34.102  12.799
10763W        W83188  10.086  29.708   2.345
10764W        W83189  10.712   6.958  11.178
10765W        W83190  36.108  38.731  11.569
10766W        W83191  18.226  21.509   4.393
10767W        W83192  27.497  31.707   3.247
10768W        W83193  11.124  16.086  11.249
10769W        W83194  25.192  27.897   0.290
10770W        W83195  35.098  20.481   4.590
10771W        W83196  24.198  33.907  13.411
10772W        W83197   5.223  28.877  12.636
10773W        W83198  26.115  20.656  12.312
10774W        W83199   4.664  42.920  14.567
10775W        W83200   4.833  11.322   2.461
10776W        W83201  21.443  29.554   4.665
10777W        W83202  21.442  39.651   2.271
10778W        W83203  27.466   6.870   3.322
10779W        W83204   3.167  42.503  14.481
10780W        W83205  16.772   2.887   3.183
10781W        W83206  20.720  13.852  14.399
10782W        W83207  12.407  20.306  12.828
10783W        W83208   1.965  40.700  13.176
10784W        W83209   3.040   1.384  13.392
10785W        W83210  40.959   1.971  12.844
10786W        W83211  35.753  13.904  13.913
10787W        W83212   3.387  41.275   3.722
10788W        W83213  44.427  15.425   2.706
10789W        W83214  24.203  31.266   0.129
10790W        W83215  11.373  17.713  12.230
10791W        W83216  11.630  34.460   0.967
10792W        W83217  37.412  32.471   0.308
10793W        W83218  20.388  44.870  13.096
10794W        W83219  36.376  22.314  11.874
10795W        W83220  29.599  25.650  14.928
10796W        W83221   2.813  41.798  14.506
10797W        W83222  31.008  18.233   4.600
10798W        W83223  25.168  17.688  11.434
10799W        W83224  40.512  43.020  14.266
10800W        W83225  42.218  14.887   0.650
10801W        W83226  24.150  28.876  14.340
10802W        W83227  15.765  19.456   2.783
10803W        W83228   8.866   0.903   0.006
10804W        W83229   7.222  42.974   1.725
10805W        W83230  32.103  14.234   3.147
10806W        W83231   4.744  35.524   4.713
10807W        W83232  12.457  27.957   1.879
10808W        W83233  39.692   9.972   2.641
10809W        W83234  36.635  17.233  14.360
10810W        W83235   0.862  22.904   4.745
10811W        W83236  42.498  22.740   4.602
10812W        W83237   4.734  37.110  11.115
10813W        W83238   8.593  39.173  12.622
10814W        W83239  21.043  27.266  11.685
10815W        W83240  18.052  12.026   0.179
10816W        W83241  15.834  23.763  11.106
10817W        W83242  10.226  10.471   3.023
10818W        W83243   9.700   0.480   1.608
10819W        W83244   2.673  21.833  11.988
10820W        W83245  18.744  42.655  11.094
10821W        W83246   4.917  25.742  14.018
10822W        W83247  37.524  39.467  14.411
10823W        W83248  13.117   3.129  11.076
10824W        W83249  18.535   7.788  12.498
10825W        W83250  20.503   6.143   0.684
10826W        W83251  33.350  27.961  11.546
10827W        W83252  14.059  39.906   1.869
10828W        W83253   7.317  17.545   4.566
10829W        W83254  16.262  12.108   1.789
10830W        W83255  18.666  24.272  10.824
10831W        W83256   8.512  25.389   3.099
10832W        W83257  44.836  42.827  13.344
10833W        W83258  43.321   7.934   3.162
10834W        W83259  36.981  38.365  12.305
10835W        W83260  14.405  40.407  10.622
10836W        W83261  17.279   7.476   3.108
10837W        W83262  39.412  27.042   2.692
10838W        W83263  22.787   5.344  13.473
10839W        W83264  11.821  37.334  10.982
10840W        W83265  10.077  36.221  10.204
10841W        W83266  34.893  32.845   1.283
10842W        W83267  23.255  11.517  13.449
10843W        W83268  32.039  17.787   0.679
10844W        W83269  13.686  16.017  14.388
10845W        W83270  37.458  39.532   2.436
10846W        W83271  44.281   2.374   1.817
10847W        W83272   7.156  38.272  11.436
10848W        W83273   7.120  19.716   1.272
10849W        W83274  39.591   5.173   0.835
10850W        W83275  17.782  12.173   1.471
10851W        W83276  14.312  13.217   2.313
10852W        W83277  28.116  18.839   4.587
10853W        W83278  11.325  37.284   0.698
10854W        W83279   8.224  16.309  12.945
10855W        W83280   6.272  41.084   1.264
10856W        W83281  13.193  25.203  12.387
10857W        W83282  44.924  10.434   2.767
10858W        W83283  21.274  43.126   1.309
10859W        W83284  32.981  29.434   4.952
10860W        W83285   4.950  17.095   3.829
10861W        W83286   0.244  42.460   1.722
10862W        W83287  39.140  30.120  14.778
10863W        W83288  19.029  13.953  13.800
10864W        W83289  44.663  13.807  14.212
10865W        W83290  31.556   6.945   0.725
10866W        W83291  41.755  30.184  12.040
10867W        W83292  44.451   2.303  13.292
10868W        W83293  37.856   5.214  10.731
10869W        W83294  19.727  29.749   3.765
10870W        W83295  14.254  43.233   3.201
10871W        W83296   8.193  20.242   4.791
10872W        W83297   5.843   4.195  14.897
10873W        W83298  27.380  24.982   4.924
10874W        W83299  33.446  36.108  13.035
10875W        W83300   7.401  32.027   1.963
10876W        W83301   8.817  26.076   0.711
10877W        W83302   8.311  23.705   4.570
10878W        W83303  21.740   1.439  10.811
10879W        W83304  21.363   5.357   3.659
10880W        W83305  35.685  13.736  11.732
10881W        W83306  44.895  33.698   2.200
10882W        W83307  13.551  43.858   2.362
10883W        W83308  25.172   9.242   4.851
10884W        W83309  17.974  17.832  13.454
10885W        W83310  43.644  15.348  12.961
10886W        W83311  37.334  23.661  11.839
10887W        W83312  28.532   4.812   4.748
10888W        W83313   2.799  32.912  11.663
10889W        W83314  29.995  39.331  12.054
10890W        W83315   0.176  40.810   0.793
10891W        W83316  33.965   0.767   0.816
10892W        W83317  24.077   3.171   0.195
10893W        W83318  17.709   1.511  11.963
10894W        W83319  24.640  33.936  14.889
10895W        W83320  19.748  18.720   3.325
10896W        W83321   6.760  42.711  12.009
10897W        W83322  38.920  35.817  14.293
10898W        W83323   6.846  16.116   0.993
10899W        W83324  28.145   8.149  13.292
10900W        W83325   6.958  29.113   1.625
10901W        W83326  43.952   1.009  11.214
10902W        W83327   7.176  19.723   3.380
10903W        W83328  24.958  13.328   4.207
10904W        W83329   1.301  41.058  13.501
10905W        W83330   7.311  40.726   2.305
10906W        W83331  26.938  36.131  11.948
10907W        W83332  18.797   6.848  11.130
10908W        W83333  26.725  23.022   1.432
10909W        W83334   0.005  42.214  11.117
10910W        W83335  24.265  22.243  13.021
10911W        W83336  13.924  21.469   1.357
10912W        W83337  38.102  35.074  14.969
10913W        W83338  33.480  31.568  13.020
10914W        W83339  37.592  17.052  14.251
10915W        W83340  30.742   5.444  13.037
10916W        W83341   9.163  30.975  14.550
10917W        W83342  17.172  14.018  13.805
10918W        W83343  21.680  18.543  14.032
10919W        W83344   8.280  38.116  13.430
10920W        W83345  20.872   1.868   3.755
10921W        W83346  14.797   9.042  12.391
10922W        W83347  41.808  31.731   2.673
10923W        W83348  18.114   7.275  11.199
10924W        W83349  32.440  36.353   4.228
10925W        W83350  11.610  14.097   5.167
10926W        W83351   0.764  34.568   3.556
10927W        W83352  42.564   8.349   0.493
10928W        W83353  41.031  12.368   2.742
10929W        W83354  43.302  16.592  11.668
10930W        W83355  17.279   4.090   4.193
10931W        W83356  12.811  39.613  11.927
10932W        W83357  32.044  14.643   1.733
10933W        W83358  16.158  34.922  14.603
10934W        W83359   2.549  34.071  11.276
10935W        W83360  29.931  14.839   3.391
10936W        W83361  25.551  11.632  13.624
10937W        W83362  27.905  40.048   1.843
10938W        W83363  39.581  42.785   0.294
10939W        W83364  24.726  22.343   4.311
10940W        W83365  42.886   9.988   2.714
10941W        W83366  15.324  36.903  13.086
10942W        W83367  43.222  18.653   1.887
10943W        W83368  16.061  16.633   1.485
10944W        W83369  30.099   1.373   4.516
10945W        W83370  33.651  22.981  10.655
10946W        W83371   6.138   0.706  12.839
10947W        W83372  23.263  33.349  12.039
10948W        W83373  16.684  44.377   0.973
10949W        W83374   3.492  24.403   1.913
10950W        W83375  14.847  20.056  14.897
10951W        W83376  14.223   2.755   1.097
10952W        W83377  19.039  24.499  12.094
10953W        W83378  34.439  18.804  13.414
10954W        W83379  15.942   3.053  13.460
10955W        W83380   3.410  42.911  13.005
10956W        W83381  29.382  42.069  13.884
10957W        W83382  25.951  26.733  10.779
10958W        W83383  28.604  26.442   1.856
10959W        W83384  40.817  11.301   1.565
10960W        W83385  11.838  37.604   3.310
10961W        W83386  24.020   7.894   2.759
10962W        W83387  32.080   3.974   1.858
10963W        W83388  14.830  11.595   0.889
10964W        W83389   4.696  12.299   2.166
10965W        W83390   6.474  37.614  13.061
10966W        W83391  40.880  16.577  14.864
10967W        W83392  22.050  30.527   4.119
10968W        W83393   7.917  14.118   3.897
10969W        W83394  29.639  18.626  10.664
10970W        W83395  28.674  33.580   1.683
10971W        W83396   6.961   1.952   1.869
10972W        W83397   9.452   3.295   2.360
10973W        W83398  22.810  33.468   4.508
10974W        W83399  28.939  28.106  12.161
10975W        W83400  26.439  37.068   4.213
10976W        W83401  43.392  21.281  12.949
10977W        W83402  33.483  35.406   0.953
10978W        W83403  17.551  44.749  14.472
10979W        W83404   7.083  42.481  10.709
10980W        W83405  22.796  10.114  14.448
10981W        W83406  35.979   1.431  12.108
10982W        W83407  41.449  24.562  13.717
10983W        W83408  32.618  43.454   3.672
10984W        W83409  14.594  29.484   0.969
10985W        W83410  33.294   4.398  10.137
10986W        W83411  32.752  22.642   1.775
10987W        W83412  25.495  41.014  13.876
10988W        W83413   5.072  25.419   4.713
10989W        W83414  38.792  39.567  12.461
10990W        W83415  33.769  16.304  13.439
10991W        W83416  36.169   8.889   0.269
10992W        W83417  22.802  39.382  13.335
10993W        W83418  17.537  21.325  13.280
10994W        W83419  33.133  43.304  13.947
10995W        W83420  44.294   2.429  14.408
10996W        W83421  18.539  14.946  12.778
10997W        W83422  21.033   9.866  13.887
10998W        W83423  19.274  15.467   3.760
10999W        W83424  20.139  39.760  14.059
11000W        W83425  25.504  22.878  11.181
11001W        W83426   2.334   5.767  10.387
11002W        W83427  20.596  19.339   3.217
11003W        W83428   1.658  15.073   3.582
11004W        W83429  24.308  13.685   2.778
11005W        W83430  25.758  40.773  13.498
11006W        W83431  37.849  32.439   1.847
11007W        W83432  19.498  37.978   0.882
11008W        W83433  20.442  23.022  10.717
11009W        W83434  18.999  25.547  11.568
11010W        W83435  15.336   5.661   2.601
11011W        W83436  12.282   6.170   2.281
11012W        W83437  11.341  32.217   5.159
11013W        W83438  36.606  17.962  12.737
11014W        W83439  15.099  31.166   4.361
11015W        W83440  37.809  26.486  10.382
11016W        W83441  21.105  40.531   4.688
11017W        W83442  12.280   5.665  14.774
11018W        W83443  36.176   9.717   3.269
11019W        W83444  26.671   7.735  11.037
11020W        W83445  21.440   5.203   4.155
11021W        W83446   4.339  39.899  11.077
11022W        W83447   1.854  30.819  11.729
11023W        W83448   7.357   3.133   1.904
11024W        W83449  20.711   1.465   2.083
11025W        W83450   3.714  21.109   0.984
11026W        W83451   2.984   5.749   2.337
11027W        W83452  30.211   8.888  12.117
11028W        W83453   8.269  35.605   4.269
11029W        W83454  17.748   0.583  14.266
11030W        W83455  43.736  19.741  10.780
11031W        W83456  21.368  33.819   1.220
11032W        W83457  18.620  29.502  11.369
11033W        W83458  16.245  36.406   0.661
11034W        W83459  15.309  24.496   0.837
11035W        W83460  28.000  25.163   3.643
11036W        W83461  33.918  28.464  10.821
11037W        W83462   7.140  17.892   3.123
11038W        W83463  22.032  43.502  14.256
11039W        W83464  23.701   3.424   3.982
11040W        W83465  21.288  14.507  13.124
11041W        W83466  29.156  24.966   4.395
11042W        W83467  41.229  28.869  14.790
11043W        W83468  34.066  21.566   3.116
11044W        W83469  41.979  21.067  10.597
11045W        W83470  41.223  24.589  10.707
11046W        W83471  30.386  44.016  13.982
11047W        W83472  14.659  22.292  10.176
11048W        W83473   4.450  36.621   1.929
11049W        W83474  11.248  37.461   2.654
11050W        W83475  40.700  13.035   3.652
11051W        W83476  10.725  17.536   3.773
11052W        W83477  22.257   1.249  11.558
11053W        W83478  15.929  12.152   3.821
11054W        W83479  19.790  12.071  14.990
11055W        W83480  11.400  33.602   3.406
11056W        W83481  34.130  22.841  10.536
11057W        W83482  19.652  33.351   5.049
11058W        W83483  39.870  23.643  13.836
11059W        W83484  11.641  15.801   3.104
11060W        W83485   8.642  30.366   0.013
11061W        W83486  41.780   8.531  12.408
11062W        W83487  25.601  27.004  13.897
11063W        W83488  11.809   8.141  10.954
11064W        W83489  41.922  43.939   0.156
11065W        W83490  38.052  35.088   3.152
11066W        W83491  37.533  37.352  10.741
11067W        W83492  41.038  29.328  11.512
11068W        W83493  10.838  21.263  14.867
11069W        W83494  34.369   2.317   4.295
11070W        W83495   6.371  14.745  13.339
11071W        W83496   0.006   3.714  13.818
11072W        W83497  24.625  15.292  10.680
11073W        W83498  23.614   9.862  13.350
11074W        W83499   1.273  15.516  14.814
11075W        W83500  37.935  14.858  11.133
11076W        W83501  16.559  34.196   4.207
11077W        W83502  44.834   7.885  13.292
11078W        W83503  35.141   4.825   0.914
11079W        W83504   2.848  43.240   4.191
11080W        W83505  33.318  31.506   4.276
11081W        W83506  25.006  44.527  10.059
11082W        W83507  34.608  39.681   1.736
11083W        W83508   0.210  42.412   2.635
11084W        W83509   6.754  39.250   4.828
11085W        W83510  41.272  37.500  11.998
11086W        W83511   0.976  40.407  13.036
11087W        W83512  41.005   5.322   1.642
11088W        W83513   2.118  33.040   3.361
11089W        W83514  34.438  29.619  11.207
11090W        W83515   3.519   8.414   1.712
11091W        W83516  37.396  18.842   4.202
11092W        W83517   3.924  12.367  11.856
11093W        W83518  43.013  12.754   1.240
11094W        W83519  40.358  18.953  11.231
11095W        W83520  17.676  24.245   0.782
11096W        W83521  39.307  34.339  11.203
11097W        W83522  43.322  27.422   1.309
11098W        W83523  15.318  33.460   2.912
11099W        W83524  17.638  24.959  14.658
11100W        W83525  43.916  13.314   0.418
11101W        W83526  26.130   7.879   1.339
11102W        W83527   0.220   5.489  11.688
11103W        W83528   2.942   5.275   4.697
11104W        W83529  44.806  34.062   2.918
11105W        W83530  15.053  44.000   2.202
11106W        W83531  19.100  42.579   1.437
11107W        W83532  41.734  28.554  11.047
11108W        W83533   5.152  19.659  14.111
11109W        W83534  27.240  25.774   2.272
11110W        W83535  24.075  21.211  14.836
11111W        W83536  43.292  31.982   3.855
11112W        W83537  17.767  11.291  13.348
11113W        W83538  44.944   6.472   4.225
11114W        W83539  22.138   1.231  12.567
11115W        W83540  10.854  13.672  10.831
11116W        W83541  16.303  37.512   1.687
11117W        W83542  25.049  18.344  12.448
11118W        W83543  15.181  31.061  14.260
11119W        W83544  34.283  44.373   4.044
11120W        W83545  20.266  20.543  14.814
11121W        W83546  10.381  17.297   4.260
11122W        W83547  12.194  43.457  12.074
11123W        W83548  35.557  32.581  14.293
11124W        W83549  26.640  21.186   1.820
11125W        W83550  13.543  32.851   2.669
11126W        W83551  16.260   0.453  11.510
11127W        W83552   8.648  20.949   1.413
11128W        W83553  28.143   8.370   2.264
11129W        W83554   1.476  25.987  13.846
11130W        W83555  43.812  36.504  10.507
11131W        W83556   3.832  15.273   3.890
11132W        W83557  12.691  43.767   0.845
11133W        W83558  28.953  26.202   2.213
11134W        W83559  19.186  33.505   0.473
11135W        W83560  42.936  17.307   2.314
11136W        W83561  33.583   5.876  10.858
11137W        W83562  12.385  38.445  11.560
11138W        W83563   7.396  10.304  12.368
11139W        W83564  39.119  42.641   4.549
11140W        W83565  27.951  20.044  12.417
11141W        W83566  33.375   6.183   0.068
11142W        W83567  10.643   4.563   2.748
11143W        W83568  33.021  43.103   1.311
11144W        W83569   4.820   7.014   4.212
11145W        W83570  26.159  20.934   1.880
11146W        W83571  24.809  37.175  11.103
11147W        W83572   0.382  12.235   2.315
11148W        W83573   6.608  24.106  11.572
11149W        W83574   0.063  44.182   2.019
11150W        W83575  18.742  33.771   0.714
11151W        W83576  41.824  43.939   5.108
11152W        W83577  14.326   8.888  12.927
11153W        W83578  10.002  14.737   4.091
11154W        W83579  21.795  32.849  14.194
11155W        W83580  21.607   6.460  13.813
11156W        W83581  36.413  35.093  11.077
11157W        W83582  18.489  36.343   0.726
11158W        W83583   0.785   8.183   1.774
11159W        W83584  16.639  44.943   3.779
11160W        W83585  35.605  41.544   2.262
11161W        W83586  20.280   9.722  14.959
11162W        W83587  44.974  32.371  13.388
11163W        W83588  20.777  30.431   9.913
11164W        W83589  17.257  43.085   2.659
11165W        W83590  41.813   9.364   1.218
11166W        W83591  31.439  26.928  12.952
11167W        W83592  27.407  32.974  11.159
11168W        W83593  24.040  25.211   4.648
11169W        W83594  25.942   3.259  13.318
11170W        W83595  26.715  34.388   4.541
11171W        W83596  40.406   9.174   2.876
11172W        W83597  14.327  32.686   5.164
11173W        W83598  34.911  36.486  11.444
11174W        W83599   4.667  41.025   3.655
11175W        W83600  10.231  23.525   0.967
11176W        W83601  15.359  12.776   1.856
11177W        W83602  32.818  34.035  14.461
11178W        W83603  30.085  31.687  11.689
11179W        W83604  17.130  40.522   2.667
11180W        W83605   5.670   7.585  14.026
11181W        W83606   8.375  22.608   2.382
11182W        W83607   5.015  15.345  12.010
11183W        W83608  41.932   5.384   3.856
11184W        W83609  36.993  30.357  13.914
11185W        W83610  35.512  15.318   1.051
11186W        W83611  19.309   3.269   4.711
11187W        W83612  23.921  43.950  10.341
11188W        W83613  13.304  23.616  12.805
11189W        W83614  32.105   8.793  11.141
11190W        W83615   7.626  28.845  13.902
11191W        W83616  21.554   2.687   2.450
11192W        W83617  13.504  23.805  10.692
11193W        W83618   8.957  44.504   2.834
11194W        W83619   6.766  14.103  10.878
11195W        W83620  40.948  33.123   1.402
11196W        W83621  38.981  28.666   2.238
11197W        W83622  26.330  31.865  12.488
11198W        W83623  30.104  11.745   3.820
11199W        W83624  28.863   9.834   0.488
11200W        W83625  33.169   4.194  13.209
11201W        W83626  21.591   9.401  11.141
11202W        W83627  31.178  23.510  13.755
11203W        W83628  14.818  13.822   0.295
11204W        W83629  19.395  28.106   1.487
11205W        W83630  15.263  30.993   3.355
11206W        W83631  15.710  25.040  11.947
11207W        W83632   6.314   9.289   4.627
11208W        W83633   4.389  11.869  10.939
11209W        W83634  16.103  31.470  14.269
11210W        W83635  40.831  38.557  12.070
11211W        W83636  17.610   2.301  14.253
11212W        W83637   7.950  21.692   1.821
11213W        W83638   5.356  11.332   2.617
11214W        W83639   9.571  39.923  10.707
11215W        W83640  16.080   0.663   1.179
11216W        W83641  32.580  11.977   2.709
11217W        W83642  22.986  32.245  10.602
11218W        W83643  42.261   4.399   1.721
11219W        W83644  16.820  44.189   0.053
11220W        W83645  22.744   6.206   3.785
11221W        W83646  38.616   9.008   2.861
11222W        W83647  13.816  19.495  13.528
11223W        W83648  22.558  18.175  11.566
11224W        W83649  28.484   0.529   4.330
11225W        W83650  15.476  12.076   1.330
11226W        W83651  29.119   3.362   2.749
11227W        W83652   4.012  43.134  10.204
11228W        W83653   0.755   6.642   1.850
11229W        W83654  44.995  42.286   3.302
11230W        W83655  30.487  30.296   1.491
11231W        W83656  21.022  10.181  10.037
11232W        W83657  30.095   5.343   4.167
11233W        W83658  25.289  14.307   3.129
11234W        W83659  17.608  32.443  11.409
11235W        W83660   4.017  11.600  13.459
11236W        W83661  29.959  38.829  11.191
11237W        W83662  41.332  38.117  13.605
11238W        W83663  24.428  14.025  11.262
11239W        W83664  10.221  23.003  12.016
11240W        W83665  31.183   1.778  12.171
11241W        W83666   5.202  14.228  13.469
11242W        W83667   9.865   8.500   0.818
11243W        W83668  19.376  40.330   0.366
11244W        W83669  17.596  11.761   4.383
11245W        W83670  37.660  33.439  14.454
11246W        W83671  30.279  27.957   3.431
11247W        W83672  31.479  24.000   3.383
11248W        W83673  12.894   3.577  14.861
11249W        W83674   6.357  27.010  10.617
11250W        W83675  16.765   3.276   0.250
11251W        W83676  19.231  32.284  12.992
11252W        W83677  19.978  22.029   1.224
11253W        W83678  31.913  40.854   1.660
11254W        W83679  25.458  12.860  11.648
11255W        W83680  38.281  28.851   1.826
11256W        W83681  19.103  12.301   1.242
11257W        W83682   4.741  23.335  13.048
11258W        W83683  38.285   1.726  13.222
11259W        W83684  30.545   5.716   1.681
11260W        W83685  34.343  19.248  10.566
11261W        W83686  19.073  12.544  13.547
11262W        W83687  41.402  19.756   4.637
11263W        W83688   7.474  29.420  11.146
11264W        W83689   7.249  28.156   3.603
11265W        W83690  29.465   8.626   0.038
11266W        W83691   3.262  31.178   3.081
11267W        W83692  34.016   6.035  14.464
11268W        W83693   0.384   1.719  12.298
11269W        W83694  13.569  41.314   2.696
11270W        W83695  42.452   2.448   1.805
11271W        W83696  40.055  15.922  10.098
11272W        W83697  34.888   2.589   2.471
11273W        W83698  21.062  33.065   0.301
11274W        W83699  23.168  18.751  13.938
11275W        W83700  24.676   2.696   2.890
11276W        W83701  37.060   4.166   1.290
11277W        W83702  27.523  37.240   3.492
11278W        W83703  32.303  16.679   5.069
11279W        W83704  17.781  33.569   1.774
11280W        W83705   6.088  40.013   2.431
11281W        W83706   4.083  20.128  11.464
11282W        W83707  11.533  30.337  10.740
11283W        W83708  41.413  24.214  14.671
11284W        W83709  11.493   0.950   1.849
11285W        W83710  22.932  22.172  14.205
11286W        W83711   6.447   6.590  10.730
11287W        W83712  32.971  24.955   4.260
11288W        W83713  36.374  17.847  10.680
11289W        W83714  14.880  33.632   3.134
11290W        W83715  21.286  11.013  12.014
11291W        W83716  13.318   9.303   2.367
11292W        W83717   5.139  41.324   4.931
11293W        W83718  36.810   7.179   3.692
11294W        W83719  37.116  44.534   0.520
11295W        W83720  13.349  36.634   4.622
11296W        W83721  35.484  19.126   4.170
11297W        W83722  33.091  31.025   4.276
11298W        W83723  40.016  39.104  11.430
11299W        W83724   4.256  25.605  12.280
11300W        W83725  38.754   6.316   0.246
11301W        W83726  40.192  27.644   3.187
11302W        W83727   1.494   6.580   3.734
11303W        W83728  21.288  34.520  11.511
11304W        W83729  35.978  40.463  14.026
11305W        W83730  11.397  41.568  13.467
11306W        W83731  23.855   8.359   5.060
11307W        W83732  14.782  29.158   2.211
11308W        W83733  30.897  35.327  14.709
11309W        W83734  18.802  16.878  13.875
11310W        W83735  40.031  34.390  13.462
11311W        W83736  13.701  18.633  11.488
11312W        W83737   6.209   0.337   1.801
11313W        W83738  19.515  22.608   4.694
11314W        W83739  36.381   9.320   1.526
11315W        W83740  42.056  15.945   2.706
11316W        W83741  17.627  27.187  13.414
11317W        W83742  37.309  32.338  14.008
11318W        W83743   0.859   1.802   2.238
11319W        W83744  21.714  25.243   1.936
11320W        W83745  28.625  26.697   1.376
11321W        W83746   9.736  41.261  10.628
11322W        W83747   4.816   6.762  12.408
11323W        W83748   9.460  22.750  12.319
11324W        W83749  20.767  28.974  11.510
11325W        W83750  37.905   0.184  11.464
11326W        W83751  12.276  10.780   4.310
11327W        W83752   0.901  23.534   3.222
11328W        W83753  36.135  17.116   4.670
11329W        W83754  39.375  12.578  11.601
11330W        W83755   5.467  44.475  12.399
11331W        W83756  24.979  44.367   3.883
11332W        W83757  25.263  15.618   1.275
11333W        W83758  39.336  21.798   3.590
11334W        W83759  40.721  19.340   0.252
11335W        W83760   2.442  17.115  10.760
11336W        W83761  30.490  14.118  12.552
11337W        W83762  20.293   5.422  13.840
11338W        W83763  29.485  39.481  14.519
11339W        W83764  28.605  10.239  10.174
11340W        W83765  23.668  18.076   3.826
11341W        W83766  40.839   7.160   3.121
11342W        W83767  17.902  31.954  13.116
11343W        W83768  16.367  31.696  13.871
11344W        W83769  14.392   0.741   3.247
11345W        W83770  11.431  10.305   2.878
11346W        W83771  29.897  34.563   4.093
11347W        W83772   2.199   5.826  14.523
11348W        W83773   6.743  32.594   2.879
11349W        W83774  29.520   0.837   0.415
11350W        W83775  10.707   5.768  12.606
11351W        W83776   9.195  10.127   1.690
11352W        W83777  17.772  37.884   3.517
11353W        W83778   3.379  22.510   0.484
11354W        W83779  33.456  16.065  13.798
11355W        W83780  29.081  25.746  12.605
11356W        W83781  23.081  19.827   0.733
11357W        W83782  24.410   1.522   3.351
11358W        W83783   9.227  12.864  11.932
11359W        W83784  37.253  11.206   3.797
11360W        W83785   8.590   7.941   4.198
11361W        W83786  35.327   0.013   4.076
11362W        W83787  11.035   6.691  14.362
11363W        W83788  39.313   0.198  11.535
11364W        W83789  13.119   5.671   3.420
11365W        W83790   9.638  14.095   3.209
11366W        W83791  18.357  41.064   3.588
11367W        W83792  26.066   0.408  10.607
11368W        W83793  15.181  20.210  12.920
11369W        W83794  32.633  26.476  12.334
11370W        W83795  34.841  10.255  11.967
11371W        W83796  21.852  31.018   4.127
11372W        W83797   3.320   7.769  13.075
11373W        W83798  35.434  29.523  14.477
11374W        W83799  37.821  14.314   1.768
11375W        W83800  30.519  34.370  14.088
11376W        W83801  32.121  23.261  11.720
11377W        W83802  18.807  32.382   0.951
11378W        W83803  44.807   2.987  10.648
11379W        W83804  37.475   1.298   3.628
11380W        W83805  30.381  38.471   2.291
11381W        W83806  18.394  39.441  12.727
11382W        W83807  40.505  19.953  11.155
11383W        W83808   6.573   1.763  13.898
11384W        W83809  16.952  15.348   3.307
11385W        W83810  37.425  32.611   2.645
11386W        W83811  40.969  26.065   4.745
11387W        W83812   0.609  16.525  12.968
11388W        W83813  31.408  11.247  11.654
11389W        W83814  36.973  39.514   3.189
11390W        W83815   8.855  35.667   1.784
11391W        W83816   9.746  35.061   1.390
11392W        W83817  16.053  34.337  12.658
11393W        W83818   2.658  15.906  11.598
11394W        W83819  18.455  23.547   3.861
11395W        W83820   8.751   2.780   5.320
11396W        W83821   5.464  37.155   3.309
11397W        W83822  26.989  22.551  12.372
11398W        W83823  17.312  26.634   9.651
11399W        W83824  41.393  34.912   3.366
11400W        W83825  19.567   7.783  11.572
11401W        W83826  32.523  22.485   2.231
11402W        W83827   8.715  21.706  10.710
11403W        W83828  38.888   3.794   0.022
11404W        W83829   3.367  31.700   2.259
11405W        W83830  44.479  27.009   3.652
11406W        W83831  36.968  28.057   1.861
11407W        W83832  29.079  30.082   4.170
11408W        W83833  23.229   4.768   4.642
11409W        W83834  23.384   8.443   1.881
11410W        W83835  29.133  26.254  12.664
11411W        W83836  40.250  43.346  14.662
11412W        W83837  17.034  25.612   2.961
11413W        W83838  40.002  15.678   4.456
11414W        W83839  15.740  21.079   2.956
11415W        W83840  36.949  33.441  11.648
11416W        W83841  29.428   2.455  13.556
11417W        W83842  24.983  36.196   0.210
11418W        W83843   3.735  16.069  11.779
11419W        W83844   0.013  42.520   0.852
11420W        W83845  26.513  19.696   2.385
11421W        W83846  14.657  28.625   4.732
11422W        W83847  27.314   1.921  14.969
11423W        W83848  36.413   1.714  10.549
11424W        W83849  38.412  18.389  13.492
11425W        W83850  12.285   5.894   2.990
11426W        W83851  42.172  35.514  12.679
11427W        W83852   8.797  20.935   2.432
11428W        W83853  26.952  41.384   0.722
11429W        W83854  27.834  17.027   3.230
11430W        W83855   0.913  36.547  14.333
11431W        W83856  35.084   8.223   2.818
11432W        W83857  18.220  11.373  13.783
11433W        W83858  43.713  17.508   3.675
11434W        W83859  19.477  16.498   1.736
11435W        W83860  16.563  18.825  10.679
11436W        W83861  20.839  35.058  14.840
11437W        W83862  39.874  31.598  10.436
11438W        W83863  26.521  30.645   3.578
11439W        W83864  35.600  34.930   3.930
11440W        W83865  11.760  13.275   3.198
11441W        W83866  17.223  41.135   3.707
11442W        W83867  19.569  18.250  12.813
11443W        W83868  13.717  18.644   0.736
11444W        W83869  18.408  41.747   2.841
11445W        W83870  20.981  26.714   0.843
11446W        W83871  17.632   4.289   3.309
11447W        W83872  18.016  18.869  14.346
11448W        W83873  16.060  44.967   4.244
11449W        W83874  43.929  10.796  13.803
11450W        W83875  44.850  33.782  11.543
11451W        W83876  21.597   1.941  13.578
11452W        W83877  24.035  41.623   0.897
11453W        W83878  37.650   1.910  10.300
11454W        W83879  13.832  15.728  14.819
11455W        W83880  25.404   4.449  14.790
11456W        W83881  12.051  18.445   4.582
11457W        W83882  31.908   5.396   1.810
11458W        W83883   5.235  26.833   4.736
11459W        W83884  19.469  40.628  11.875
11460W        W83885  42.280  43.454   0.871
11461W        W83886  44.707   6.478  10.703
11462W        W83887  24.750   9.655  14.837
11463W        W83888  15.523  31.959   4.577
11464W        W83889  38.163  11.639   3.142
11465W        W83890  28.694  19.678  12.845
11466W        W83891  34.366  31.050  13.013
11467W        W83892  38.526  30.579  12.058
11468W        W83893  29.400  36.040   1.430
11469W        W83894   1.845  40.125   3.666
11470W        W83895  13.640  17.798  11.883
11471W        W83896  44.339  37.478  10.352
11472W        W83897  19.948  12.767   1.037
11473W        W83898  15.728  22.294   1.353
11474W        W83899  10.506  34.737   5.095
11475W        W83900  38.579  34.627   4.140
11476W        W83901  32.692  20.766  14.416
11477W        W83902  10.574  34.099  13.767
11478W        W83903  38.517  10.860   3.092
11479W        W83904  42.411  21.091  12.389
11480W        W83905  11.743  32.028   0.261
11481W        W83906  19.792  27.796  12.083
11482W        W83907  21.036   7.117  13.909
11483W        W83908  20.105  22.150   3.682
11484W        W83909  25.701  15.834  14.425
11485W        W83910  43.330  33.105  13.935
11486W        W83911  10.215  19.100   0.523
11487W        W83912  19.691   4.345   0.013
11488W        W83913   6.662  19.118  14.504
11489W        W83914  25.484  37.035  12.432
11490W        W83915  30.620  44.828   2.221
11491W        W83916  44.027  30.944   2.672
11492W        W83917  17.228  38.400  10.635
11493W        W83918  26.264  34.964   3.749
11494W        W83919  24.025   3.895   3.343
11495W        W83920  37.118   7.187  13.458
11496W        W83921  44.304  41.982   2.399
11497W        W83922  25.683   3.233   3.678
11498W        W83923  33.735  42.978  10.543
11499W        W83924  32.168  19.039   9.826
11500W        W83925  25.141  13.003   1.785
11501W        W83926  35.977  26.664  14.851
11502W        W83927   6.457  20.302   1.826
11503W        W83928  30.007   1.859   1.748
11504W        W83929  37.956  24.419   3.673
11505W        W83930  18.525  12.987  13.449
11506W        W83931  25.594  15.855   0.321
11507W        W83932  26.955  17.206   3.574
11508W        W83933  34.806  24.896  11.636
11509W        W83934   4.104   8.679   1.039
11510W        W83935   0.032  17.251   4.326
11511W        W83936  13.574   2.445   3.572
11512W        W83937  24.193  36.435  12.418
11513W        W83938  41.309   1.707   0.438
11514W        W83939  42.504   4.441  11.526
11515W        W83940  25.658  27.721   0.205
11516W        W83941   9.259  27.256   0.869
11517W        W83942  38.806  43.508  10.065
11518W        W83943  41.237   3.849  11.966
11519W        W83944  39.685  40.846   4.200
11520W        W83945   1.152  43.637   3.267
11521W        W83946   9.649  15.174  10.952
11522W        W83947  43.805  39.907   2.333
11523W        W83948  29.196   3.855  13.460
11524W        W83949   5.729  43.529   4.621
11525W        W83950  40.959  44.839  10.932
11526W        W83951   3.858  31.770   4.174
11527W        W83952  33.063  33.923  13.029
11528W        W83953  13.173  35.163   2.097
11529W        W83954  37.916  29.952   0.199
11530W        W83955  33.304  32.228   0.969
11531W        W83956  24.747   6.443   2.186
11532W        W83957   2.808  37.042  12.095
11533W        W83958  39.422  10.948   0.737
11534W        W83959  30.714  27.637   4.106
11535W        W83960  11.865  28.337   3.120
11536W        W83961  15.695  44.878  13.833
11537W        W83962  43.943  35.470   3.244
11538W        W83963   7.786   6.706  13.898
11539W        W83964  43.187   2.480  11.980
11540W        W83965  21.961  12.125   0.709
11541W        W83966  38.768  12.850   1.898
11542W        W83967  36.728  24.304   2.781
11543W        W83968  25.926  24.752  11.333
11544W        W83969  28.646  15.232   1.250
11545W        W83970  10.110  29.016  11.854
11546W        W83971   8.334  41.786  10.950
11547W        W83972   9.303  25.908   1.352
11548W        W83973  44.466  34.835  10.269
11549W        W83974   4.250  11.390   1.975
11550W        W83975  33.942  25.738  13.421
11551W        W83976   4.884   0.800   2.348
11552W        W83977  16.471   9.785   1.811
11553W        W83978   7.276  37.982   1.934
11554W        W83979  29.151   5.493  11.159
11555W        W83980  22.212  17.341  11.421
11556W        W83981  10.084   0.495  11.636
11557W        W83982  35.364  37.080  12.019
11558W        W83983  42.504  38.990   4.640
11559W        W83984  17.308  32.504  10.995
11560W        W83985  43.270  15.998   2.207
11561W        W83986  16.701  25.274   2.234
11562W        W83987  20.200   1.222   4.394
11563W        W83988  44.220  13.672  14.432
11564W        W83989  38.586   1.995  12.895
11565W        W83990  34.096  20.633  11.719
11566W        W83991  20.988  33.393   1.522
11567W        W83992   7.798  21.332   2.851
11568W        W83993  15.779  40.357  10.735
11569W        W83994  34.347  36.466   4.372
11570W        W83995  24.598  10.420   4.620
11571W        W83996   2.630  20.842  11.348
11572W        W83997  14.649   1.368  12.367
11573W        W83998  37.702  34.512  14.948
11574W        W83999  27.004  14.982   1.926
11575W        W84000  34.065  23.340  14.693
11576W        W84001  41.709  24.887   4.158
11577W        W84002  44.904  44.954  10.735
11578W        W84003  15.168  22.629  13.463
11579W        W84004   1.953  36.122  11.607
11580W        W84005  19.572  33.621   2.349
11581W        W84006  22.156  43.103  11.258
11582W        W84007  31.523   1.348   2.451
11583W        W84008  40.872  43.834   3.219
11584W        W84009  27.474   3.409   4.939
11585W        W84010  36.228  32.523   4.911
11586W        W84011   8.698   8.468   5.448
11587W        W84012   7.967  39.331  10.392
11588W        W84013  14.710  33.925  14.500
11589W        W84014  42.766   4.901   3.723
11590W        W84015  17.284  41.849   4.720
11591W        W84016  23.955  37.800   2.208
11592W        W84017   9.711  35.791   0.001
11593W        W84018  17.315  12.098  11.564
11594W        W84019  18.551  34.018   1.631
11595W        W84020  19.454  12.699   3.240
11596W        W84021  23.707  41.800   0.316
11597W        W84022  34.027  37.587  10.479
11598W        W84023  36.608   0.078   4.381
11599W        W84024  28.756   6.904   4.061
11600W        W84025  30.006   3.807   3.629
11601W        W84026  43.266  24.680   2.254
11602W        W84027  35.081   1.275   3.796
11603W        W84028  43.768  24.324   3.298
11604W        W84029  38.005   8.949   5.409
11605W        W84030  32.475  21.526   4.258
11606W        W84031  12.794  16.797   1.401
11607W        W84032   2.957  43.912   3.223
11608W        W84033  21.089  41.414  13.971
11609W        W84034   3.698  16.682   2.795
11610W        W84035  12.041  42.740   5.006
11611W        W84036  15.704  15.809   3.356
11612W        W84037  11.189  18.435  12.970
11613W        W84038   7.476  13.733   1.896
11614W        W84039   9.773  36.341   4.004
11615W        W84040   3.761  33.927   2.437
11616W        W84041  15.073  11.657   0.436
11617W        W84042  39.400  33.455  11.531
11618W        W84043  12.249   1.193  11.106
11619W        W84044  34.723  28.078  12.513
11620W        W84045  40.553   9.239  11.571
11621W        W84046  11.781  24.957   4.962
11622W        W84047  16.844  32.165  11.180
11623W        W84048  44.623  23.568  13.162
11624W        W84049  20.558  43.241  14.875
11625W        W84050  35.078   3.294   3.168
11626W        W84051  39.090   9.116  13.510
11627W        W84052  13.555  41.949  13.901
11628W        W84053  37.313  28.719   1.805
11629W        W84054  18.718  21.907   0.468
11630W        W84055   5.216   8.418   2.866
11631W        W84056  31.644  17.303   2.314
11632W        W84057  41.934  27.411   2.740
11633W        W84058  33.588  36.376   1.012
11634W        W84059  41.789  26.695   1.404
11635W        W84060  15.394  24.923   1.685
11636W        W84061   3.330  33.019   1.530
11637W        W84062  27.641  23.206  14.314
11638W        W84063  34.795  22.604   4.892
11639W        W84064  14.597   7.727  11.952
11640W        W84065  37.049  16.091  12.446
11641W        W84066  24.258   2.903  13.447
11642W        W84067  29.429  21.255   3.669
11643W        W84068  14.286  40.804  12.594
11644W        W84069  15.555   1.840   0.734
11645W        W84070   9.165  13.112  10.645
11646W        W84071  10.925  37.974  14.511
11647W        W84072   4.340  28.813  14.584
11648W        W84073   3.971  44.417  11.581
11649W        W84074  37.512  32.579   4.403
11650W        W84075  33.700  34.498  10.895
11651W        W84076  38.013   2.934  13.576
11652W        W84077  37.457  11.303  11.962
11653W        W84078  25.996  20.495  14.430
11654W        W84079  16.618   6.797  13.334
11655W        W84080  20.592  41.285  10.958
11656W        W84081   7.413  43.796   0.486
11657W        W84082  10.357  36.673   1.629
11658W        W84083  38.372  16.905   2.752
11659W        W84084  27.032  30.455  11.635
11660W        W84085  32.461   2.942   1.961
11661W        W84086  27.096  13.850   0.984
11662W        W84087   5.942  40.933  14.472
11663W        W84088  38.298  12.795  10.739
11664W        W84089  16.749  20.207  11.071
11665W        W84090  12.832  24.816   3.761
11666W        W84091   6.245  32.369  11.495
11667W        W84092  17.264   2.747  14.096
11668W        W84093   6.966  19.291  13.029
11669W        W84094  40.540  30.382  10.628
11670W        W84095  18.691  36.355   1.413
11671W        W84096  39.982  38.528   4.148
11672W        W84097  18.384  33.149  13.394
11673W        W84098   4.051  32.468   1.233
11674W        W84099  21.065   2.189  13.613
11675W        W84100  43.672  38.388   2.240
11676W        W84101  25.619  18.134  13.354
11677W        W84102  22.142  31.966  12.039
11678W        W84103  20.659   1.456  13.337
11679W        W84104  38.862   8.656  14.084
11680W        W84105  10.265  32.051   1.206
11681W        W84106  16.188  31.469   3.793
11682W        W84107  30.848   0.892  12.847
11683W        W84108  43.793  39.071   4.142
11684W        W84109   5.367  16.687   0.809
11685W        W84110  23.624  32.283   0.178
11686W        W84111  22.176  10.163   3.163
11687W        W84112  43.808   2.785   1.435
11688W        W84113  18.756  30.899   4.396
11689W        W84114   0.347  26.010   3.740
11690W        W84115  31.190  12.702   3.307
11691W        W84116  19.021   1.898  13.057
11692W        W84117  32.472  26.757  11.273
11693W        W84118  16.321  33.003  12.402
11694W        W84119  34.802  16.225  11.892
11695W        W84120  26.579  16.395   3.332
11696W        W84121  14.792  42.925   3.231
11697W        W84122  32.813   1.571   3.627
11698W        W84123  31.578  10.966  10.470
11699W        W84124  42.779   5.968   3.732
11700W        W84125  10.634  18.247  12.461
11701W        W84126  24.716   2.264  12.927
11702W        W84127  33.525  16.857  10.535
11703W        W84128  12.337   3.172   2.218
11704W        W84129  11.245  22.559   3.018
11705W        W84130  41.769  37.489  10.673
11706W        W84131   3.026   6.726   0.433
11707W        W84132   3.812  26.939   0.220
11708W        W84133  29.600   6.213  11.551
11709W        W84134   0.146  28.508  11.650
11710W        W84135   3.951  43.966  12.277
11711W        W84136  16.630  32.489   5.717
11712W        W84137  11.832  36.868  13.493
11713W        W84138  10.960  10.208  14.458
11714W        W84139  44.922  40.865   1.355
11715W        W84140  42.419  23.758  10.498
11716W        W84141  11.639  24.513  10.398
11717W        W84142  12.176  30.509   4.711
11718W        W84143   9.986  37.846  10.763
11719W        W84144  22.919  31.491   0.921
11720W        W84145  27.194  19.200  10.550
11721W        W84146   1.706  35.671  11.549
11722W        W84147  18.200  31.081  11.388
11723W        W84148  32.681  25.045   5.284
11724W        W84149   8.149  31.392  12.149
11725W        W84150   0.757   3.722   4.239
11726W        W84151  39.173  37.333   2.755
11727W        W84152  39.079  12.352   0.714
11728W        W84153  21.184  21.734  13.403
11729W        W84154   8.158   7.988   3.657
11730W        W84155  35.338  11.193  10.433
11731W        W84156   0.323  25.030   0.281
11732W        W84157  26.487  43.816   3.109
11733W        W84158  27.043  18.147   0.315
11734W        W84159  39.269  21.720  13.026
11735W        W84160  14.562  30.090  12.480
11736W        W84161   0.276  16.800  11.670
11737W        W84162  36.953  12.821  10.357
11738W        W84163  42.669  43.928  12.000
11739W        W84164   3.117  40.976  12.468
11740W        W84165  18.631  19.260  11.028
11741W        W84166  23.528  27.635   3.388
11742W        W84167  38.748  23.456  12.836
11743W        W84168   2.947  28.252   3.728
11744W        W84169  21.230   2.805   1.631
11745W        W84170  44.532  43.393   2.900
11746W        W84171  42.941  44.186  14.519
11747W        W84172  10.049   6.390  14.319
11748W        W84173   8.311   1.527   2.873
11749W        W84174  44.459  32.561  11.594
11750W        W84175  18.875  10.669   0.838
11751W        W84176  44.930  41.341  13.561
11752W        W84177  38.886  37.583  14.558
11753W        W84178  30.201  11.619  14.934
11754W        W84179  30.582  43.522  13.972
11755W        W84180  20.583  27.622  12.943
11756W        W84181  23.653  33.385   3.833
11757W        W84182  40.731  15.970  12.904
11758W        W84183  17.338  30.469   3.666
11759W        W84184  20.324  27.487  13.468
11760W        W84185   6.867  26.865   3.689
11761W        W84186  13.830   8.573   4.203
11762W        W84187  41.934  26.110   4.705
11763W        W84188  44.244  22.638   3.307
11764W        W84189  39.374  24.637  13.856
11765W        W84190  29.193  43.758  13.488
11766W        W84191   3.249  43.282  10.604
11767W        W84192  35.648  31.136  13.390
11768W        W84193  37.797  20.590  11.823
11769W        W84194  21.801  42.814   4.610
11770W        W84195  20.743  11.218   1.359
11771W        W84196  18.450  34.488  11.160
11772W        W84197  34.664   6.234  12.065
11773W        W84198  29.053  16.664   4.700
11774W        W84199  27.751  18.537  11.111
11775W        W84200  32.034  36.394   2.730
11776W        W84201  35.921  22.150  13.786
11777W        W84202   6.398  23.359   0.389
11778W        W84203  12.258  11.602   3.652
11779W        W84204  33.511  20.962  12.464
11780W        W84205  28.337  11.284  13.594
11781W        W84206  23.171  41.549  11.134
11782W        W84207  24.381  39.368   2.337
11783W        W84208  31.091   4.964   1.741
11784W        W84209  44.644   4.427  11.220
11785W        W84210  38.749  14.621  12.975
11786W        W84211  16.758  40.677  12.573
11787W        W84212  44.495  41.619   1.744
11788W        W84213  19.152   7.923   0.009
11789W        W84214  19.294  30.146  11.552
11790W        W84215  27.909  10.342   2.327
11791W        W84216  44.992  25.493   3.131
11792W        W84217  12.919  11.193   1.948
11793W        W84218   9.254  23.712  14.383
11794W        W84219  37.399  19.773  12.518
11795W        W84220   8.910  39.365  14.877
11796W        W84221   5.477  43.672   0.286
11797W        W84222  36.814   8.192   3.231
11798W        W84223  39.834  39.821   0.943
11799W        W84224   1.353  26.520  14.315
11800W        W84225  20.162  36.574   1.390
11801W        W84226  40.873   3.313   1.379
11802W        W84227  28.985  44.124  14.864
11803W        W84228   2.785   5.437   0.419
11804W        W84229   6.757   7.987   2.343
11805W        W84230  44.554  42.337   0.989
11806W        W84231   3.910  39.358  14.068
11807W        W84232  27.053  14.144  12.116
11808W        W84233  37.426   7.441   2.876
11809W        W84234  38.146  28.665   3.831
11810W        W84235   7.337  34.736  14.872
11811W        W84236  42.339  40.015  12.577
11812W        W84237   1.793  19.167  13.590
11813W        W84238   5.194  13.601  14.481
11814W        W84239   7.820  44.677  10.960
11815W        W84240  22.024  20.098   4.777
11816W        W84241  41.276  37.517  14.859
11817W        W84242  23.104  18.310   0.892
11818W        W84243  10.426   7.697   2.300
11819W        W84244  21.201  20.453  13.881
11820W        W84245   1.708  15.817  13.930
11821W        W84246  12.173  23.526   3.691
11822W        W84247  13.790  23.948   4.181
11823W        W84248  15.043  16.810   1.246
11824W        W84249   4.998  36.734   5.075
11825W        W84250  40.236  41.241   3.311
11826W        W84251  11.234  37.948  13.301
11827W        W84252  15.235  43.360   3.408
11828W        W84253  33.454   3.845   1.708
11829W        W84254  30.135  34.859  14.291
11830W        W84255  32.827   6.226  12.920
11831W        W84256  44.656  15.612   1.948
11832W        W84257  33.505  20.101  11.996
11833W        W84258  40.511  14.784   0.837
11834W        W84259  41.613  34.885   4.481
11835W        W84260  26.060  26.241   0.075
11836W        W84261  23.263  12.905   0.736
11837W        W84262   7.383  15.255  11.142
11838W        W84263  40.508  17.443  10.087
11839W        W84264  19.703  41.656  14.565
11840W        W84265  13.750  31.364  12.792
11841W        W84266   8.771  36.025  12.713
11842W        W84267  33.633  23.056  14.838
11843W        W84268  22.562   0.952  12.419
11844W        W84269  43.458  44.553   0.253
11845W        W84270   9.351  20.012  11.072
11846W        W84271  17.598   8.047   3.589
11847W        W84272   0.998  41.521  14.980
11848W        W84273  42.046  42.993   3.700
11849W        W84274   8.330  24.083   1.375
11850W        W84275  29.852  23.489   1.871
11851W        W84276   1.515  26.647   1.824
11852W        W84277   7.878   9.197  10.937
11853W        W84278  31.802  33.152  11.922
11854W        W84279  34.969  24.962   1.911
11855W        W84280  39.343  40.412  13.054
11856W        W84281  28.646  22.284  12.039
11857W        W84282  40.029  18.632  11.973
11858W        W84283   1.225  41.465   1.324
11859W        W84284  29.992  18.286  12.846
11860W        W84285  36.444  22.505   1.356
11861W        W84286  38.373  19.801  10.740
11862W        W84287  14.247  40.259   3.591
11863W        W84288  33.931  43.437   4.146
11864W        W84289  33.878  34.709   1.379
11865W        W84290  44.087  14.075  13.389
11866W        W84291  20.288  19.784  14.331
11867W        W84292   4.421  21.659   2.239
11868W        W84293  21.288  22.088   3.652
11869W        W84294  29.023  44.429  12.185
11870W        W84295  42.482  32.858   2.821
11871W        W84296  14.260  13.225  10.676
11872W        W84297  15.291  42.325   2.252
11873W        W84298  36.879  42.515  11.098
11874W        W84299  29.541   8.834   3.364
11875W        W84300   3.433  18.225   0.723
11876W        W84301   8.248  26.530  10.666
11877W        W84302  27.187  17.679   1.432
11878W        W84303  37.171  43.772  11.519
11879W        W84304  40.423  19.340   2.366
11880W        W84305  24.799  37.513   0.160
11881W        W84306   5.978  19.254   0.769
11882W        W84307  18.586  20.459  12.950
11883W        W84308  22.458   2.419  14.864
11884W        W84309  17.242  34.039  11.423
11885W        W84310  23.666  41.797   1.271
11886W        W84311  27.646  16.535   3.191
11887W        W84312  26.212  28.558  14.516
11888W        W84313  27.043  30.195   2.409
11889W        W84314  21.926  44.441  12.461
11890W        W84315  28.632  25.928  13.840
11891W        W84316  26.624   3.737  12.444
11892W        W84317   9.189   6.870   1.237
11893W        W84318  23.151   9.658   3.737
11894W        W84319  37.130  38.342  10.379
11895W        W84320   3.349  44.798   2.700
11896W        W84321  32.582  17.154  10.316
11897W        W84322   4.499  11.108  10.182
11898W        W84323  24.617  12.085  13.649
11899W        W84324  28.180  37.906   1.466
11900W        W84325  11.353   3.915  11.653
11901W        W84326  32.491  36.947  10.677
11902W        W84327  17.831  39.312   1.835
11903W        W84328  30.478   5.909   4.258
11904W        W84329  20.523  32.872   4.285
11905W        W84330  40.005   8.894  10.649
11906W        W84331  16.630  41.995  12.602
11907W        W84332   6.811  33.972  12.405
11908W        W84333   4.814  10.430   2.251
11909W        W84334  13.263  41.629  12.672
11910W        W84335  40.496  20.753  12.438
11911W        W84336  35.943   0.959  11.883
11912W        W84337  14.116  26.874   2.281
11913W        W84338  44.862  42.586  14.053
11914W        W84339   9.318  29.559   4.155
11915W        W84340   8.326   4.916  10.561
11916W        W84341  23.151  39.335  10.708
11917W        W84342  38.048  19.051   3.323
11918W        W84343  32.435  20.721   3.466
11919W        W84344  39.236   0.367  10.182
11920W        W84345  41.686  12.755  11.204
11921W        W84346   4.418  15.128   0.849
11922W        W84347  18.702  33.939  12.183
11923W        W84348  35.860  20.612   4.181
11924W        W84349  15.289  41.957  12.606
11925W        W84350  19.496  32.047   9.931
11926W        W84351  14.118  43.729  14.323
11927W        W84352  24.701  31.497  12.092
11928W        W84353  21.872  23.188   1.369
11929W        W84354  10.903  36.161  12.855
11930W        W84355  21.910   4.893  12.477
11931W        W84356  14.795   6.477  14.973
11932W        W84357  39.820  10.248   3.409
11933W        W84358  42.331  27.743   4.147
11934W        W84359  11.874  30.591  13.150
11935W        W84360  25.230  34.842   3.186
11936W        W84361  20.226  43.874  11.386
11937W        W84362  34.197  44.210   1.297
11938W        W84363   5.671   7.875  14.863
11939W        W84364  34.974  39.386   1.241
11940W        W84365  14.512  36.254  11.171
11941W        W84366  18.988   0.759   3.692
11942W        W84367  41.348   1.318  13.837
11943W        W84368  39.059  10.827  14.086
11944W        W84369  19.233  14.965   4.986
11945W        W84370  13.824   2.817   0.251
11946W        W84371  34.871   3.970   1.798
11947W        W84372  25.288  32.635   2.717
11948W        W84373  27.444  37.542  12.100
11949W        W84374   7.110  22.831   2.652
11950W        W84375  35.323  24.992  14.791
11951W        W84376  40.500  38.456  12.437
11952W        W84377   4.942  29.967   1.434
11953W        W84378  33.469   3.961   3.022
11954W        W84379   9.624  12.919   0.436
11955W        W84380  21.090  14.530   4.642
11956W        W84381  26.508   9.293  12.462
11957W        W84382  25.935  38.772  13.486
11958W        W84383  19.545   4.865  11.629
11959W        W84384  16.596  12.106  13.901
11960W        W84385  17.070  23.120   0.070
11961W        W84386   0.158  26.276  13.913
11962W        W84387   4.830  12.835   2.876
11963W        W84388  34.828  12.232   2.177
11964W        W84389  38.524  20.127  13.958
11965W        W84390  16.987   0.185  11.032
11966W        W84391  20.286   6.775  13.381
11967W        W84392  43.293  26.609  14.674
11968W        W84393  28.465  23.640  14.380
11969W        W84394   0.023  19.029  13.954
11970W        W84395  28.051  17.742   0.326
11971W        W84396  22.969  13.107   2.180
11972W        W84397  21.813  36.245   0.333
11973W        W84398   2.942   8.005   0.422
11974W        W84399   6.352  22.209  14.864
11975W        W84400   8.946   3.492  13.746
11976W        W84401   4.102   6.201   4.902
11977W        W84402  19.746  31.220   1.779
11978W        W84403   0.057  41.044   2.756
11979W        W84404   9.319  38.361  10.567
11980W        W84405  24.645   9.168   0.830
11981W        W84406  21.268   8.673  11.531
11982W        W84407  22.222  22.196  10.567
11983W        W84408  20.140   4.943  12.102
11984W        W84409  31.409   4.358  10.627
11985W        W84410  40.400  24.940   0.978
11986W        W84411  28.663  38.596  12.477
11987W        W84412  39.400  18.505   0.259
11988W        W84413   6.920   7.395  14.868
11989W        W84414  31.608  34.545   1.235
11990W        W84415  32.107   3.963   1.304
11991W        W84416  34.377  10.257  12.932
11992W        W84417   7.182  21.261   1.733
11993W        W84418   1.883  38.801  13.962
11994W        W84419  42.628  42.383  13.985
11995W        W84420  30.548  14.452   4.184
11996W        W84421  31.580  34.358  11.125
11997W        W84422  32.455  19.596   0.711
11998W        W84423  44.613  11.586   3.869
11999W        W84424  18.913  10.617  11.571
12000W        W84425  43.514  28.576  13.138
12001W        W84426  27.703   8.237   4.031
12002W        W84427  28.064  24.972   1.360
12003W        W84428  39.012  29.928  12.509
12004W        W84429   6.972   3.907   1.711
12005W        W84430  35.909  23.999   0.800
12006W        W84431  43.367   5.719  12.079
12007W        W84432  24.053  35.890   1.409
12008W        W84433  33.882   7.347   1.607
12009W        W84434   7.113  39.817  10.656
12010W        W84435  25.811  25.684  14.409
12011W        W84436  19.072  41.944  12.400
12012W        W84437  36.469   4.217  12.627
12013W        W84438  29.294  28.952  11.965
12014W        W84439   0.446  38.478   1.888
12015W        W84440  22.037  20.205  11.570
12016W        W84441  40.404  12.408   2.133
12017W        W84442  24.288  35.562  14.768
12018W        W84443  17.326  35.488   0.868
12019W        W84444  20.144   3.802   1.739
12020W        W84445  30.562  43.281  13.490
12021W        W84446  18.640  36.286  11.541
12022W        W84447   5.990  36.082  13.698
12023W        W84448  33.191   5.650   0.236
12024W        W84449   2.306  36.813  12.061
12025W        W84450   1.029   1.959  14.299
12026W        W84451   7.636  17.237   4.839
12027W        W84452  10.621  38.893  11.928
12028W        W84453   2.435  28.075  14.848
12029W        W84454  29.494  25.807  13.495
12030W        W84455  40.984   8.494  14.295
12031W        W84456  22.250   4.997   1.714
12032W        W84457   7.184  21.116   4.145
12033W        W84458   8.783  19.559  11.623
12034W        W84459  34.057  44.797   2.893
12035W        W84460  44.416  39.631  14.859
12036W        W84461   6.842  36.143   3.853
12037W        W84462  43.045  14.018   0.517
12038W        W84463  34.660   3.910  13.568
12039W        W84464  20.761  19.762   1.371
12040W        W84465   3.489  10.763  10.701
12041W        W84466  24.632   3.806   3.935
12042W        W84467  17.263  39.474   3.328
12043W        W84468  17.161  18.500   0.229
12044W        W84469  36.630  44.180   4.941
12045W        W84470   0.437   0.859  12.808
12046W        W84471  31.097  10.594   2.245
12047W        W84472   2.246   6.296   0.231
12048W        W84473  29.585  25.598   3.879
12049W        W84474  24.740  41.052  13.318
12050W        W84475  23.010   6.885  10.401
12051W        W84476  33.584  32.530   4.880
12052W        W84477  21.097  22.257  13.331
12053W        W84478  21.569  25.158   2.829
12054W        W84479   9.388  42.448   1.208
12055W        W84480  20.542  27.711   4.219
12056W        W84481  35.080  33.365   1.234
12057W        W84482  12.232  10.657   1.668
12058W        W84483  11.567   7.088   2.721
12059W        W84484  23.563   6.853  12.615
12060W        W84485  16.051   1.924   9.723
12061W        W84486  17.583   0.217   0.431
12062W        W84487  36.314  21.599  12.891
12063W        W84488   2.182  33.396  12.984
12064W        W84489   3.208  27.233  11.136
12065W        W84490  38.501  24.453  10.265
12066W        W84491  41.282   2.832   4.592
12067W        W84492   5.546   5.981  12.483
12068W        W84493   4.719   6.036   0.769
12069W        W84494  10.163  43.930   2.346
12070W        W84495   3.708  20.555  13.805
12071W        W84496   0.908  23.955  11.138
12072W        W84497  26.976  16.760  10.569
12073W        W84498   6.992   1.501  14.073
12074W        W84499  29.155   2.866   1.881
12075W        W84500  26.227  39.329  11.447
12076W        W84501  23.263  25.263  12.414
12077W        W84502  26.253  37.559  10.982
12078W        W84503  34.975  20.337   2.382
12079W        W84504  21.063  32.669   2.245
12080W        W84505  39.816  31.370   4.569
12081W        W84506  29.953   5.855  13.006
12082W        W84507  22.782  22.168   0.788
12083W        W84508  30.561  11.254  10.466
12084W        W84509  23.254   7.103   3.837
12085W        W84510   7.644  40.092  14.406
12086W        W84511   4.291  26.596   1.294
12087W        W84512  19.350  10.652  13.278
12088W        W84513   3.332  28.778  10.536
12089W        W84514  11.063  38.358   2.768
12090W        W84515  14.166  28.389  11.095
12091W        W84516  27.825   4.666   0.443
12092W        W84517  31.639  14.514  11.469
12093W        W84518  25.005  26.656  14.485
12094W        W84519  32.657  26.624   1.799
12095W        W84520  25.083  11.182   4.648
12096W        W84521  22.321  31.890  13.168
12097W        W84522  43.516  18.255   3.723
12098W        W84523  42.330  12.749  13.532
12099W        W84524  26.214  20.145  13.151
12100W        W84525  10.620  11.061   0.128
12101W        W84526   8.199  17.993   4.130
12102W        W84527  38.930  19.583   2.409
12103W        W84528  17.307   8.611  14.324
12104W        W84529  13.105   9.439   0.073
12105W        W84530  32.528  35.240  11.138
12106W        W84531  16.170  22.499  12.660
12107W        W84532   3.926  39.450  12.375
12108W        W84533  23.820  32.437  10.778
12109W        W84534  31.383  32.544   1.799
12110W        W84535   8.784  36.905   5.147
12111W        W84536  26.396  12.357   2.866
12112W        W84537  19.113  36.882   1.855
12113W        W84538  17.126  32.907   0.979
12114W        W84539   8.461  12.814  13.010
12115W        W84540   6.733  28.202  11.397
12116W        W84541  31.523  21.428  12.025
12117W        W84542  44.777  27.472   0.405
12118W        W84543  21.820  30.514  10.735
12119W        W84544  40.452  43.371  11.403
12120W        W84545   2.162  37.414   4.150
12121W        W84546  14.239  11.103   1.248
12122W        W84547  35.669   5.683   0.781
12123W        W84548  39.444  26.616  14.463
12124W        W84549  20.649   0.449   2.622
12125W        W84550  12.294  32.466   1.692
12126W        W84551  16.474  25.273   4.244
12127W        W84552   5.807  12.415  13.425
12128W        W84553  15.014  36.808  11.942
12129W        W84554   1.549   3.985  14.550
12130W        W84555   6.975  41.986  14.296
12131W        W84556  29.167  15.531  11.182
12132W        W84557  12.094   6.326   3.186
12133W        W84558  32.593  19.321   3.097
12134W        W84559   1.001  24.374   4.938
12135W        W84560  26.774   6.270   1.787
12136W        W84561  27.963  31.465   3.884
12137W        W84562   2.401   0.552   0.905
12138W        W84563   1.702   2.971   4.819
12139W        W84564  37.946  44.764  13.267
12140W        W84565   5.773  41.079   0.545
12141W        W84566   9.655  20.507   4.540
12142W        W84567  18.210  11.318  14.317
12143W        W84568  33.582  26.516  11.634
12144W        W84569  37.408  31.905  10.884
12145W        W84570  39.493  27.659  11.378
12146W        W84571  42.068   2.296   2.394
12147W        W84572  14.804  37.320   3.284
12148W        W84573  15.488   8.968  11.034
12149W        W84574  23.769  35.879   3.208
12150W        W84575  18.447   1.010  11.962
12151W        W84576  34.854  27.354   0.726
12152W        W84577   1.709  41.630  11.199
12153W        W84578   4.162  36.959   2.267
12154W        W84579  10.597   5.397   2.978
12155W        W84580   4.372  36.353   3.369
12156W        W84581   1.019  10.671  13.946
12157W        W84582  14.210  10.359   4.631
12158W        W84583  29.118   4.392   1.505
12159W        W84584  32.082  26.439  14.467
12160W        W84585  42.388  10.217   1.831
12161W        W84586  24.138  43.990  14.354
12162W        W84587   8.364  44.508   0.700
12163W        W84588  28.739  40.794  14.324
12164W        W84589   9.260   9.390   1.200
12165W        W84590  37.553  25.293  13.523
12166W        W84591  13.290  42.088   4.899
12167W        W84592   6.253   6.147   3.792
12168W        W84593  30.207  38.394   4.272
12169W        W84594  28.040  20.346  12.914
12170W        W84595   0.830   5.436  13.380
12171W        W84596   3.480  40.391   0.073
12172W        W84597  39.529  29.196  12.451
12173W        W84598  30.382   1.888   0.780
12174W        W84599   8.953   2.872  14.469
12175W        W84600   0.598  23.277   2.527
12176W        W84601  29.587  16.177  10.790
12177W        W84602  28.698  18.107  12.084
12178W        W84603  41.368   4.980  11.459
12179W        W84604  27.941  17.744  12.138
12180W        W84605  26.920   4.871  14.079
12181W        W84606  32.544  26.542  14.240
12182W        W84607   7.239   2.624   0.716
12183W        W84608  44.643  28.403  11.600
12184W        W84609   2.001  38.069  12.390
12185W        W84610  28.431  44.345   3.294
12186W        W84611  21.802  27.112   3.138
12187W        W84612  42.548  27.377  14.784
12188W        W84613   5.364   2.876   2.818
12189W        W84614   7.257  44.765   3.190
12190W        W84615  36.310   3.561   1.797
12191W        W84616  40.727  30.163   4.050
12192W        W84617  22.743   4.484  13.509
12193W        W84618   9.363  13.418   3.591
12194W        W84619   0.922   0.984  10.202
12195W        W84620  27.505  39.508  10.674
12196W        W84621   7.813  11.366   4.826
12197W        W84622   8.132  42.376  14.997
12198W        W84623   0.749  19.301   4.608
12199W        W84624  20.201  11.625  11.587
12200W        W84625  20.333  26.079   1.360
12201W        W84626  31.556  17.290  14.414
12202W        W84627  43.014  18.180   3.687
12203W        W84628  22.527  10.620  10.233
12204W        W84629  37.561  29.973  12.350
12205W        W84630  22.076  40.378  11.894
12206W        W84631   9.840   1.734   4.943
12207W        W84632   9.197  26.962  11.780
12208W        W84633  23.712  33.112  12.036
12209W        W84634  36.532  35.438   2.615
12210W        W84635  31.908  11.618   0.495
12211W        W84636   6.844  24.004  10.552
12212W        W84637   5.466  10.149   1.991
12213W        W84638   9.322  33.513   3.266
12214W        W84639  17.624  34.502  11.522
12215W        W84640  15.691  34.582  11.344
12216W        W84641  17.821  26.120   4.708
12217W        W84642  18.305  23.910   4.453
12218W        W84643  22.067  22.592  14.752
12219W        W84644  35.952  41.291   1.160
12220W        W84645   5.452   0.857   3.745
12221W        W84646  43.362  12.781  14.699
12222W        W84647  28.082  35.994  14.351
12223W        W84648  32.518  18.147  12.531
12224W        W84649  26.021   6.525  12.016
12225W        W84650  33.906  20.639  12.591
12226W        W84651  41.432   4.282  11.792
12227W        W84652  23.465  11.848  11.070
12228W        W84653  18.723   4.332   0.392
12229W        W84654  41.288  30.431   0.902
12230W        W84655  15.540  39.758  13.423
12231W        W84656  10.869  19.947   4.130
12232W        W84657   4.234  35.649  12.902
12233W        W84658   5.160   3.340   3.713
12234W        W84659  18.695   8.024  12.926
12235W        W84660  26.946  31.190   0.775
12236W        W84661  35.880   6.675   0.854
12237W        W84662  18.639   4.008  11.161
12238W        W84663  19.774  20.116   2.448
12239W        W84664   5.849   1.834   3.819
12240W        W84665  23.005  30.068   0.759
12241W        W84666  13.560  36.990   3.886
12242W        W84667   9.124  30.628   1.258
12243W        W84668  29.103   9.379   0.653
12244W        W84669  43.927  13.676  13.046
12245W        W84670  24.520  16.263  14.319
12246W        W84671  44.965  23.478   3.358
12247W        W84672  37.743  29.085   3.196
12248W        W84673   2.305  37.383  12.875
12249W        W84674  15.298  23.774   3.284
12250W        W84675   8.080  38.380  10.176
12251W        W84676  25.882  38.338  13.777
12252W        W84677   4.664  18.327   0.372
12253W        W84678  38.111   3.028   2.841
12254W        W84679  27.948   1.267  14.938
12255W        W84680  33.451  32.375   1.432
12256W        W84681  27.558   9.765   3.855
12257W        W84682  33.355  35.066   4.813
12258W        W84683  18.559  21.121   4.448
12259W        W84684  11.900  11.136   0.882
12260W        W84685  39.283  23.125  10.667
12261W        W84686   5.171  40.874   3.726
12262W        W84687  18.817   9.010  10.676
12263W        W84688  25.645  40.703   2.312
12264W        W84689   7.206  39.407  12.566
12265W        W84690   9.831  19.629  11.426
12266W        W84691   3.345  32.173   1.671
12267W        W84692  32.043  23.250  13.961
12268W        W84693   2.993   3.364   4.316
12269W        W84694   7.460  15.317  14.324
12270W        W84695  39.081  26.616  14.852
12271W        W84696  28.646  30.799   2.390
12272W        W84697  24.042  38.847  12.490
12273W        W84698  24.900  29.043   1.120
12274W        W84699  44.496   3.415  12.595
12275W        W84700  13.330  40.561   3.731
12276W        W84701  38.055   6.597  12.581
12277W        W84702  18.237  38.512  13.693
12278W        W84703  19.174  22.074   0.201
12279W        W84704  18.752  18.558   3.355
12280W        W84705   3.215  31.343   4.904
12281W        W84706  16.695  21.089   0.392
12282W        W84707  25.095   2.141   4.083
12283W        W84708  24.513  16.074   2.693
12284W        W84709  37.512  41.269  11.072
12285W        W84710  10.314  14.086   2.830
12286W        W84711   2.400  35.552  14.545
12287W        W84712  40.891  36.440  13.868
12288W        W84713   4.553   1.829  13.046
12289W        W84714   3.943  40.435  11.244
12290W        W84715   3.485  24.741   0.325
12291W        W84716  44.405  39.734  11.454
12292W        W84717   1.421  43.798   2.865
12293W        W84718  32.528   0.271   4.109
12294W        W84719  27.608  39.485   2.434
12295W        W84720  28.563  29.153  11.131
12296W        W84721  16.111  19.303  11.570
12297W        W84722  25.972   9.089  14.813
12298W        W84723   1.803  15.218   1.646
12299W        W84724  20.719   5.385   1.506
12300W        W84725   5.135  42.430   0.958
12301W        W84726  29.982   6.213   1.344
12302W        W84727  23.076   9.735  12.074
12303W        W84728  22.096  10.877  11.605
12304W        W84729  21.062  38.452   4.728
12305W        W84730  21.790   0.232  12.024
12306W        W84731  30.925  36.028   3.300
12307W        W84732  41.384  23.646   0.483
12308W        W84733  22.281   4.818  14.826
12309W        W84734   9.206  14.253  14.926
12310W        W84735  13.294  41.132  10.766
12311W        W84736  33.553  35.357  14.866
12312W        W84737  26.571  17.884   3.239
12313W        W84738   4.714   6.981   2.877
12314W        W84739  30.646  21.756  13.431
12315W        W84740  28.271   2.850  12.287
12316W        W84741  26.637  36.721  14.375
12317W        W84742  11.385  39.486  10.533
12318W        W84743  25.500   1.648   2.663
12319W        W84744  36.809  36.618   2.303
12320W        W84745  24.470  27.697  12.007
12321W        W84746  12.127  27.259   2.412
12322W        W84747  20.688  20.748  14.064
12323W        W84748  23.991  14.707  13.561
12324W        W84749   7.719  18.708  11.561
12325W        W84750  24.930   5.660   4.720
12326W        W84751  37.796  23.945   3.827
12327W        W84752  27.967   5.107   4.109
12328W        W84753  14.903  10.906  13.455
12329W        W84754  36.115  30.205  14.455
12330W        W84755   9.203  12.599   1.405
12331W        W84756  22.230  41.592  12.899
12332W        W84757   2.101  11.278  13.400
12333W        W84758   5.092  28.763   2.771
12334W        W84759   5.496  22.569   4.152
12335W        W84760   0.930  41.002   4.127
12336W        W84761  43.401   8.907   0.421
12337W        W84762  22.028  13.328  10.969
12338W        W84763  22.318   5.261   3.878
12339W        W84764  43.920   1.014   3.361
12340W        W84765  38.838   8.685   4.267
12341W        W84766   8.348  13.019   0.950
12342W        W84767  23.794   7.683   3.355
12343W        W84768  18.614  28.708  14.049
12344W        W84769  30.541   4.540  11.188
12345W        W84770  31.354   9.261  14.544
12346W        W84771  33.147  12.226  11.079
12347W        W84772   7.628  22.047   4.704
12348W        W84773  19.338   8.788  12.923
12349W        W84774  19.027  22.986   4.126
12350W        W84775  23.134  16.770  12.008
12351W        W84776  27.637  40.484  13.628
12352W        W84777  42.082  44.482   0.656
12353W        W84778  12.839  12.092  12.089
12354W        W84779  14.364   9.711  11.259
12355W        W84780   4.327  29.390   0.933
12356W        W84781  16.044  22.993  13.414
12357W        W84782  10.152  33.018  11.107
12358W        W84783  44.021   4.376  14.551
12359W        W84784  26.004  35.870   2.390
12360W        W84785  21.993   0.285  10.733
12361W        W84786  13.435  28.612  10.700
12362W        W84787  35.799  33.896  12.979
12363W        W84788   0.383  24.636   4.384
12364W        W84789  40.018  21.666   3.867
12365W        W84790  26.561  38.865   4.702
12366W        W84791  13.593  38.173  13.815
12367W        W84792   0.207   3.804  11.747
12368W        W84793   6.811  27.305  11.121
12369W        W84794  27.867  17.081  10.138
12370W        W84795  44.714  12.231  12.323
12371W        W84796  38.858  17.757  12.211
12372W        W84797  32.488  35.312   4.389
12373W        W84798  18.458  42.256   4.184
12374W        W84799  27.638   2.489   2.458
12375W        W84800  12.322  22.848  10.463
12376W        W84801  10.070   7.850  12.613
12377W        W84802  27.116  24.692   1.498
12378W        W84803  13.268  40.617  12.589
12379W        W84804  38.148  32.221  14.982
12380W        W84805  35.400  19.127   2.669
12381W        W84806  35.869  39.359   1.182
12382W        W84807  17.725   6.508  12.474
12383W        W84808  38.916  13.363  11.417
12384W        W84809  18.675  30.523   4.750
12385W        W84810  34.833  10.233  14.297
12386W        W84811  13.940  32.618  12.884
12387W        W84812  18.779   1.939   9.796
12388W        W84813  25.147  34.056   3.611
12389W        W84814  32.379  31.271  14.740
12390W        W84815  40.115  34.938  11.794
12391W        W84816  44.738  15.931   9.981
12392W        W84817  41.531  22.107   3.695
12393W        W84818  11.192  37.943   2.465
12394W        W84819  36.830   8.170  12.575
12395W        W84820  19.437  20.996   4.142
12396W        W84821   8.344  39.950  11.532
12397W        W84822  18.011  11.696  11.159
12398W        W84823  31.907  28.957   2.782
12399W        W84824   6.708  36.387   0.260
12400W        W84825  39.364  42.372   0.533
12401W        W84826  18.716   8.044   1.210
12402W        W84827  43.443  23.408  11.264
12403W        W84828  15.230   6.380  14.686
12404W        W84829   7.642   0.212  11.614
12405W        W84830  13.164  16.764   1.849
12406W        W84831  41.658  27.203  10.391
12407W        W84832  39.078   7.320  13.326
12408W        W84833  21.514  31.912   0.777
12409W        W84834  13.047  39.054  11.531
12410W        W84835  22.951  44.351  11.632
12411W        W84836  34.041  27.346  10.663
12412W        W84837  22.937  28.180   2.720
12413W        W84838   7.115  41.214  13.864
12414W        W84839  10.763  43.969  13.244
12415W        W84840  16.733  19.375  13.313
12416W        W84841  40.491  42.852   3.786
12417W        W84842  27.304  13.190  12.108
12418W        W84843  14.526  24.461   5.586
12419W        W84844  13.689  37.630  13.122
12420W        W84845  20.394  30.511  13.329
12421W        W84846  38.296   7.443   3.733
12422W        W84847   7.226   9.026  10.982
12423W        W84848  37.645   3.704  12.983
12424W        W84849  32.184  30.571   1.550
12425W        W84850  42.041  44.780  13.037
12426W        W84851  11.148  28.894   4.151
12427W        W84852  22.640  20.598   4.087
12428W        W84853  25.355  10.282  10.657
12429W        W84854  13.738  23.925   1.254
12430W        W84855  24.492   3.346  14.409
12431W        W84856   8.504   7.717   0.515
12432W        W84857  31.202  23.584   5.133
12433W        W84858  15.201  14.546   3.141
12434W        W84859   7.205   4.509  14.961
12435W        W84860  29.914  17.860   9.775
12436W        W84861  11.098  30.265  13.778
12437W        W84862   9.360   7.825   0.193
12438W        W84863  22.488  25.159   1.262
12439W        W84864  23.943  41.073  12.030
12440W        W84865  22.130  39.165  12.265
12441W        W84866  18.219  43.508   1.316
12442W        W84867   4.263  27.565   4.739
12443W        W84868  35.143  15.313  11.444
12444W        W84869  20.112  21.252   0.251
12445W        W84870   2.301   8.123   4.174
12446W        W84871  26.534   9.743   3.394
12447W        W84872  28.444   2.282   1.774
12448W        W84873  10.241  36.964   4.058
12449W        W84874   9.908  26.504  11.847
12450W        W84875  35.560  43.943  14.832
12451W        W84876  42.281   8.750   0.292
12452W        W84877  12.570   9.111   0.828
12453W        W84878  11.103  10.779  12.020
12454W        W84879  33.978  42.608   2.692
12455W        W84880   7.934   6.413   4.497
12456W        W84881  16.173  24.172  13.852
12457W        W84882   6.202  35.418   1.172
12458W        W84883  31.141  24.034   0.102
12459W        W84884  20.143  12.475  13.252
12460W        W84885  40.046  10.272  14.487
12461W        W84886  23.837  29.950   1.147
12462W        W84887  33.662  30.968   3.214
12463W        W84888  17.547  20.866   4.615
12464W        W84889  30.402  43.532  12.408
12465W        W84890  32.217  42.531   2.835
12466W        W84891  31.530  37.391   1.406
12467W        W84892  40.504  35.368  13.273
12468W        W84893  17.736  33.031   2.057
12469W        W84894  36.640  11.389   2.959
12470W        W84895  12.212   3.015   4.260
12471W        W84896  41.833   3.412   4.999
12472W        W84897  31.878  28.719  12.022
12473W        W84898  44.063   1.865   4.613
12474W        W84899  21.245   9.867  10.636
12475W        W84900   1.299  38.892  10.120
12476W        W84901  35.106   1.829  14.271
12477W        W84902  36.895  22.760   1.986
12478W        W84903  16.136  27.639   0.813
12479W        W84904   8.593   7.879  12.487
12480W        W84905  27.528  26.983  12.626
12481W        W84906  42.081  11.598   4.202
12482W        W84907  42.713  40.484   4.196
12483W        W84908  14.937  35.627   5.190
12484W        W84909   1.635   7.391  12.096
12485W        W84910  11.387   4.727   0.368
12486W        W84911   4.903  35.994  11.567
12487W        W84912  28.595  36.436  10.682
12488W        W84913  33.475  24.047   3.656
12489W        W84914  28.079  11.420   1.933
12490W        W84915   3.780  33.346   2.759
12491W        W84916  35.825  24.500   0.518
12492W        W84917   1.434  41.851   3.252
12493W        W84918  28.704  34.436  10.702
12494W        W84919  39.452  27.894  13.910
12495W        W84920  22.245   2.302   2.378
12496W        W84921   2.311   9.669  13.400
12497W        W84922  42.297   3.876  13.255
12498W        W84923   4.470  11.889  11.464
12499W        W84924  12.691  39.437   2.241
12500W        W84925  25.511  40.679   4.548
12501W        W84926  24.911   7.775   3.718
12502W        W84927  22.184  11.673  14.907
12503W        W84928   7.259  42.808   3.262
12504W        W84929  28.047  25.250  11.702
12505W        W84930  41.012  28.828   0.723
12506W        W84931  20.225  44.465   3.795
12507W        W84932  44.993  39.347  10.664
12508W        W84933   9.203  23.033   2.280
12509W        W84934   9.104  32.764   3.675
12510W        W84935   2.940  38.257   3.295
12511W        W84936   5.665  15.972  10.006
12512W        W84937  42.039  44.504  12.150
12513W        W84938   0.591   1.915   4.031
12514W        W84939   9.280  21.820   3.782
12515W        W84940  24.063  19.122  10.439
12516W        W84941  40.256   0.959  10.980
12517W        W84942  26.939  29.101  10.567
12518W        W84943  30.591   4.291  14.260
12519W        W84944   3.202   0.494  12.895
12520W        W84945  29.676  36.357  14.024
12521W        W84946  29.036  42.085  12.984
12522W        W84947  16.564  40.368  11.928
12523W        W84948   1.023  13.292  10.682
12524W        W84949   8.209  29.341   1.897
12525W        W84950   7.689   4.357   0.102
12526W        W84951  40.802  41.607  12.515
12527W        W84952  20.383  31.496   0.173
12528W        W84953  20.959   2.443   0.840
12529W        W84954  35.961  22.008  11.910
12530W        W84955  40.814  42.525  14.460
12531W        W84956  44.714   1.303  13.875
12532W        W84957  38.365  44.715   1.857
12533W        W84958  17.333  37.386   2.326
12534W        W84959  42.100  42.380  13.970
12535W        W84960  11.356  33.971   0.396
12536W        W84961  15.998  43.832  12.849
12537W        W84962  44.364   5.434  11.307
12538W        W84963  44.355   7.641  14.435
12539W        W84964   3.528  29.249  10.591
12540W        W84965   9.800  13.257   0.918
12541W        W84966   6.816   7.991   4.548
12542W        W84967   2.798  30.597  11.151
12543W        W84968  25.990  44.442   0.058
12544W        W84969  25.869  32.210   9.756
12545W        W84970  14.525  43.939  13.908
12546W        W84971  20.900  42.360   4.201
12547W        W84972  23.657   0.485  10.964
12548W        W84973  27.664  41.299   1.423
12549W        W84974  24.455  22.058   1.532
12550W        W84975  14.104   0.499   2.521
12551W        W84976   0.092  18.186  11.710
12552W        W84977  26.984  27.561   0.178
12553W        W84978  19.145  42.491   0.913
12554W        W84979   6.201  43.993  13.398
12555W        W84980   1.509  18.948  11.362
12556W        W84981  34.971   7.706   2.639
12557W        W84982  37.436  27.921   2.106
12558W        W84983  25.607  15.280  11.460
12559W        W84984   7.820  41.926   3.526
12560W        W84985  35.622   7.731   4.655
12561W        W84986  41.848  24.693  14.023
12562W        W84987  37.276   4.847  13.560
12563W        W84988  11.673  23.321  14.851
12564W        W84989  38.133  23.126   1.703
12565W        W84990   0.211   4.915  13.755
12566W        W84991  21.697  16.269   2.673
12567W        W84992  28.798  27.919  11.397
12568W        W84993  34.936  21.835  12.024
12569W        W84994  10.555  14.641  14.835
12570W        W84995  22.970  35.553  14.378
12571W        W84996  23.552  17.578   0.932
12572W        W84997   8.332  32.798   4.244
12573W        W84998  36.414  28.948  13.642
12574W        W84999  35.967   8.344  11.575
12575W        W85000  44.865  19.725  14.403
12576W        W85001  40.405   1.515   3.348
12577W        W85002  35.660  26.678   2.888
12578W        W85003  12.655  34.411   1.306
12579W        W85004   1.783   6.633  11.196
12580W        W85005  41.303  29.047   3.269
12581W        W85006  27.549   6.409  12.599
12582W        W85007  37.362  38.513  12.639
12583W        W85008   1.806  16.846  12.602
12584W        W85009   7.865   4.163   2.529
12585W        W85010  10.589  29.993  13.960
12586W        W85011  14.686  18.504  13.806
12587W        W85012  28.125  10.692   4.061
12588W        W85013  16.791  21.060  10.699
12589W        W85014  43.125  10.125   4.846
12590W        W85015  16.591   5.744   1.671
12591W        W85016   5.040  12.893  11.391
12592W        W85017  36.470  29.829  14.501
12593W        W85018   4.422  31.825  14.522
12594W        W85019  35.425   1.280   0.351
12595W        W85020  34.259  17.047   2.872
12596W        W85021  42.715  25.470   2.295
12597W        W85022  33.103   2.750   2.962
12598W        W85023  33.653  44.699   4.500
12599W        W85024  14.562  41.244   0.698
12600W        W85025  15.966  14.641  13.151
12601W        W85026  21.163  20.136  11.896
12602W        W85027  14.631   8.148   0.613
12603W        W85028  26.885  10.236  13.592
12604W        W85029  22.742  22.159  10.930
12605W        W85030  20.450  44.837  13.616
12606W        W85031  39.804  29.216  11.172
12607W        W85032  21.715  10.194   4.294
12608W        W85033  26.210  34.061  12.509
12609W        W85034   9.416  18.669  12.514
12610W        W85035   9.372   9.369  11.509
12611W        W85036  41.495  24.461   2.917
12612W        W85037  12.848  10.322  14.502
12613W        W85038   9.315  18.829  10.678
12614W        W85039  22.506  24.424   0.433
12615W        W85040   4.953  37.311   0.581
12616W        W85041  10.783  44.693  14.066
12617W        W85042   8.077  41.258   3.770
12618W        W85043  28.976  42.844  13.606
12619W        W85044   8.356   9.126  11.135
12620W        W85045  42.482  26.697   2.002
12621W        W85046  28.054  27.048  13.825
12622W        W85047  28.390  36.459   1.763
12623W        W85048   2.383  21.721  14.739
12624W        W85049  44.869  19.617  11.513
12625W        W85050  20.453   4.423   2.921
12626W        W85051  11.778  33.099   3.845
12627W        W85052  19.955  36.601   0.700
12628W        W85053  41.569  36.400  13.270
12629W        W85054  12.122   8.396   2.857
12630W        W85055  25.938  32.469  12.881
12631W        W85056   6.421  24.575   1.902
12632W        W85057  17.215  35.978   2.365
12633W        W85058   2.485  39.419   1.355
12634W        W85059   3.829  27.457   0.321
12635W        W85060  10.662  34.464   0.448
12636W        W85061  33.108  32.383   1.873
12637W        W85062  25.724  40.169   2.296
12638W        W85063  19.545  26.440  10.267
12639W        W85064  30.316  24.505   2.807
12640W        W85065  42.012  29.397  10.603
12641W        W85066  34.605   9.584  13.413
12642W        W85067   0.412  44.463  13.009
12643W        W85068  32.426  38.865   0.295
12644W        W85069  20.225   8.570  12.581
12645W        W85070  13.854  37.046   1.839
12646W        W85071  20.068  26.728  11.438
12647W        W85072  25.710  17.200   1.878
12648W        W85073  42.975   4.969   1.490
12649W        W85074  31.981  15.165   1.791
12650W        W85075   1.028  26.946  11.098
12651W        W85076   0.894   5.623   3.470
12652W        W85077  37.844  27.560   2.726
12653W        W85078  19.132  35.376  11.557
12654W        W85079   5.129  29.543   2.255
12655W        W85080  26.194  35.609   1.773
12656W        W85081  14.428  44.278  13.462
12657W        W85082  16.582  27.591  13.123
12658W        W85083  12.626  11.817  13.546
12659W        W85084   4.246   0.045   2.272
12660W        W85085  32.786   9.524   4.237
12661W        W85086  25.725  13.600  11.969
12662W        W85087  32.553   3.744  13.812
12663W        W85088  10.229  39.435  14.788
12664W        W85089   8.751   4.238   4.368
12665W        W85090  10.697  27.263  11.979
12666W        W85091  38.843  30.912   0.843
12667W        W85092   3.619  42.719   3.206
12668W        W85093  18.582  20.188  11.440
12669W        W85094   9.361  35.818   2.776
12670W        W85095  17.570  35.923   0.450
12671W        W85096  32.725   2.193   1.831
12672W        W85097  29.214  22.755  11.144
12673W        W85098  10.103   0.003   3.777
12674W        W85099  43.053   7.621   1.790
12675W        W85100   7.834  18.062   1.325
12676W        W85101  18.544  30.056  13.041
12677W        W85102  37.542  15.637   3.769
12678W        W85103  18.560  44.342   1.390
12679W        W85104   7.395  31.919  11.768
12680W        W85105  30.884   0.726   2.204
12681W        W85106  32.445  28.282  12.632
12682W        W85107  36.906   9.729   4.571
12683W        W85108   3.905  25.075   0.439
12684W        W85109  17.673  38.891   0.439
12685W        W85110  23.694  40.937   4.075
12686W        W85111  31.992  29.517   2.399
12687W        W85112  43.210  28.975   4.754
12688W        W85113  44.707  12.716  11.603
12689W        W85114   9.434  17.200  11.882
12690W        W85115  36.347  16.011  13.496
12691W        W85116   7.190  43.448   0.175
12692W        W85117  32.426  12.505   2.884
12693W        W85118   5.667  40.440   3.325
12694W        W85119  44.034  27.261   1.897
12695W        W85120   6.250  26.311   3.268
12696W        W85121  14.174  27.652   1.999
12697W        W85122  40.279   2.333  12.467
12698W        W85123  33.742  38.161   1.739
12699W        W85124  27.693   1.685   2.195
12700W        W85125   5.831  38.790   4.230
12701W        W85126  24.339  29.648  12.848
12702W        W85127  25.121  42.998  14.623
12703W        W85128  25.081  43.286   0.511
12704W        W85129   5.765   9.376  14.366
12705W        W85130  33.633  28.206   0.512
12706W        W85131  36.888  42.874   2.241
12707W        W85132  14.627  11.116   0.892
12708W        W85133   3.861   9.689  11.098
12709W        W85134   1.430  18.242   2.779
12710W        W85135  30.026  44.030   0.241
12711W        W85136   5.187  21.580  11.558
12712W        W85137  40.270   5.935  13.945
12713W        W85138  10.314  31.152   0.744
12714W        W85139  17.131   0.907   3.669
12715W        W85140   2.887  18.674   4.568
12716W        W85141  13.986   2.903   4.344
12717W        W85142   5.953  14.813  12.363
12718W        W85143  27.489  35.409   0.996
12719W        W85144  10.635  41.351   3.479
12720W        W85145  31.711  11.699   5.022
12721W        W85146  39.869   0.813   5.534
12722W        W85147  16.541  10.770   0.521
12723W        W85148  18.609  25.064  12.030
12724W        W85149  16.206  20.774  10.583
12725W        W85150  14.096  15.685  14.336
12726W        W85151  29.098  25.950  13.100
12727W        W85152  30.406  30.675   1.854
12728W        W85153  39.000  20.606   1.732
12729W        W85154  21.241  15.827   4.198
12730W        W85155  14.622  34.449   0.320
12731W        W85156  30.681  26.517  11.651
12732W        W85157  36.545  43.362   2.875
12733W        W85158  10.296  18.794   4.565
12734W        W85159  36.073   6.480   0.399
12735W        W85160  25.196  35.408   1.686
12736W        W85161  12.400  36.112   3.617
12737W        W85162  11.054  37.346   3.686
12738W        W85163  31.156   0.444   2.562
12739W        W85164  44.522  43.111   0.431
12740W        W85165   0.513  41.428  14.798
12741W        W85166  40.143   5.755   3.612
12742W        W85167  24.867  35.971  14.233
12743W        W85168  23.193  28.052   3.350
12744W        W85169  34.375  16.679  14.129
12745W        W85170  25.001  34.044   4.245
12746W        W85171   7.371  40.047   1.858
12747W        W85172  26.094  14.081  13.257
12748W        W85173  25.235   1.150  11.661
12749W        W85174   6.659  23.171  13.686
12750W        W85175  25.423  15.083  13.087
12751W        W85176  21.759  40.376  12.971
12752W        W85177  16.152  44.418   3.382
12753W        W85178   2.323  42.889  11.888
12754W        W85179  43.806   5.967  12.120
12755W        W85180  10.362   8.349  13.374
12756W        W85181  15.255  36.610   2.970
12757W        W85182  24.473  16.376  12.301
12758W        W85183   8.230  41.955   2.235
12759W        W85184  42.980   0.573  14.466
12760W        W85185  28.162  44.702   1.740
12761W        W85186  42.242  16.797  14.983
12762W        W85187   5.419  31.292   2.608
12763W        W85188  34.218   2.066  11.187
12764W        W85189  12.306  11.226   4.055
12765W        W85190  24.951   8.418  13.616
12766W        W85191  15.083   3.821   0.688
12767W        W85192  27.164  40.575  12.413
12768W        W85193  34.990  19.622   0.504
12769W        W85194  43.011  11.843  11.386
12770W        W85195  33.175  28.469  13.827
12771W        W85196  21.474  16.753  14.679
12772W        W85197  11.868   4.618   0.168
12773W        W85198  44.434  42.907   2.679
12774W        W85199  37.750  38.821   4.633
12775W        W85200  40.542  33.587   1.537
12776W        W85201  10.436   9.998  13.561
12777W        W85202  37.649   9.796   0.003
12778W        W85203  25.267   1.975   2.993
12779W        W85204  21.479  35.830   3.800
12780W        W85205  20.149  20.992   0.692
12781W        W85206   8.869  15.757  13.063
12782W        W85207  38.982   0.231  12.325
12783W        W85208  15.198  14.235   0.917
12784W        W85209   2.958  23.959   3.265
12785W        W85210  13.193  34.789   0.288
12786W        W85211  43.941  41.660  12.363
12787W        W85212  25.748  40.462   3.681
12788W        W85213   3.717   1.800  11.678
12789W        W85214  27.068   1.247  13.811
12790W        W85215  18.746  17.602  12.217
12791W        W85216  26.421  17.151  13.279
12792W        W85217  12.561  26.446  14.280
12793W        W85218   3.400  34.025  11.560
12794W        W85219   7.221  32.651   1.338
12795W        W85220  43.797  35.182   2.807
12796W        W85221   5.332  43.914  11.749
12797W        W85222  42.295   0.491   2.759
12798W        W85223  29.635  44.682  11.106
12799W        W85224  19.533  38.388  12.473
12800W        W85225  29.605   3.206  10.677
12801W        W85226  24.016  22.594   1.739
12802W        W85227   3.011   8.680   3.206
12803W        W85228  20.808   8.442   1.275
12804W        W85229   3.736  29.944   3.648
12805W        W85230  44.783  16.114   1.205
12806W        W85231  39.013  44.793  11.982
12807W        W85232   6.188  19.053  13.388
12808W        W85233  14.689  14.755   0.393
12809W        W85234  22.540  34.571  12.133
12810W        W85235  23.666  41.468   1.648
12811W        W85236  13.738  10.588  12.137
12812W        W85237  32.581  13.325   4.052
12813W        W85238  41.943   9.293   0.313
12814W        W85239  11.891   4.243  14.803
12815W        W85240  14.673  32.438   4.243
12816W        W85241  41.011  18.084  14.997
12817W        W85242  25.688  14.630   4.123
12818W        W85243   7.260   4.274   0.419
12819W        W85244  37.165  39.613   1.212
12820W        W85245  29.841  25.449  13.675
12821W        W85246  17.198  39.729   2.331
12822W        W85247   8.178  15.060  12.626
12823W        W85248   5.804  13.782   3.781
12824W        W85249  26.576  26.696   0.730
12825W        W85250   0.330  37.849  14.584
12826W        W85251  13.344  25.461  10.604
12827W        W85252  43.871   8.889  10.340
12828W        W85253  22.074  28.534   1.287
12829W        W85254  22.701  29.201  13.445
12830W        W85255  35.562  32.895   3.276
12831W        W85256  32.819  10.767   4.601
12832W        W85257   4.125   9.688   0.889
12833W        W85258  38.835  29.001   1.806
12834W        W85259   2.917  35.427  13.477
12835W        W85260  36.571  11.254  12.929
12836W        W85261  38.552  41.089  13.369
12837W        W85262  16.870  31.987   2.259
12838W        W85263  34.676  18.850  13.858
12839W        W85264  28.379  13.621   2.208
12840W        W85265  20.710  38.913   2.282
12841W        W85266   3.344   8.596   2.184
12842W        W85267  41.014   9.851  11.988
12843W        W85268   3.291   9.997   1.287
12844W        W85269  43.309   0.445  12.053
12845W        W85270  15.330  43.734   4.537
12846W        W85271   5.487   0.949  10.274
12847W        W85272  13.542  32.115   1.113
12848W        W85273  28.158  19.625   0.815
12849W        W85274  14.139  35.533   2.319
12850W        W85275  33.540   9.264   3.176
12851W        W85276  31.944  29.947  11.135
12852W        W85277   4.547  14.092  11.176
12853W        W85278  39.517   7.459  13.108
12854W        W85279  25.664   8.021   4.778
12855W        W85280  10.852  23.908   2.442
12856W        W85281  21.299  21.224   0.171
12857W        W85282   7.892  16.542  11.694
12858W        W85283  43.605  34.809  12.292
12859W        W85284  32.205  19.115   2.338
12860W        W85285   1.071  36.467   3.209
12861W        W85286  25.756  43.314   3.116
12862W        W85287  27.439  21.515  11.556
12863W        W85288  20.156  15.937  13.308
12864W        W85289  31.878  19.948  13.990
12865W        W85290  25.784  11.386   0.721
12866W        W85291  21.622  20.267   0.433
12867W        W85292  21.724  40.600  13.449
12868W        W85293  31.397  37.511  14.796
12869W        W85294  12.847  17.485  11.263
12870W        W85295  41.798   1.823   0.296
12871W        W85296   5.702   1.219   1.113
12872W        W85297   5.705   5.963  11.950
12873W        W85298  31.078  25.222  11.445
12874W        W85299   8.358  44.230  11.943
12875W        W85300  27.621  20.126  10.375
12876W        W85301  24.813  18.123  14.892
12877W        W85302  18.666  12.595   1.081
12878W        W85303  32.596  39.645  11.142
12879W        W85304  21.522  21.941   2.750
12880W        W85305  25.588  36.197   2.360
12881W        W85306  41.857  33.170   0.361
12882W        W85307  15.060  12.580   4.098
12883W        W85308   2.516  14.839  13.823
12884W        W85309  29.053  13.613   3.206
12885W        W85310  23.744   3.484   2.175
12886W        W85311  44.531  40.330   2.182
12887W        W85312  43.484  39.928   0.170
12888W        W85313  28.133  19.853  13.837
12889W        W85314   7.307  29.941  11.927
12890W        W85315   8.857  24.462   3.588
12891W        W85316  40.381  10.398   5.073
12892W        W85317  27.909  27.370  14.184
12893W        W85318  38.179  27.055  11.026
12894W        W85319  12.392  26.291  10.722
12895W        W85320  31.472  33.508  13.713
12896W        W85321  33.366  25.398   0.858
12897W        W85322  20.589   6.743  11.611
12898W        W85323  25.001  31.855  12.362
12899W        W85324   6.648   9.854  13.471
12900W        W85325  17.701  40.236   1.779
12901W        W85326  11.653  41.402  14.008
12902W        W85327  29.508   9.676  11.580
12903W        W85328   0.248  21.047   2.031
12904W        W85329  25.085  16.520   1.266
12905W        W85330  17.727  16.785   0.033
12906W        W85331  16.275  44.355  12.143
12907W        W85332   4.409  24.039  11.561
12908W        W85333   2.340  33.419  14.608
12909W        W85334  27.331  29.191   1.304
12910W        W85335  44.341  27.221  11.937
12911W        W85336  34.066  30.771   1.873
12912W        W85337  35.641  28.233  10.775
12913W        W85338  12.769   1.269   3.152
12914W        W85339  14.059  12.734   0.474
12915W        W85340  19.264   3.915  14.423
12916W        W85341  34.675  38.510  13.515
12917W        W85342  18.379  38.892  10.619
12918W        W85343  25.997  43.121  10.150
12919W        W85344  19.861  21.768  13.626
12920W        W85345  17.114  26.138  14.974
12921W        W85346  18.749  13.286   3.159
12922W        W85347  24.160  28.020   1.668
12923W        W85348   6.642   9.805   0.334
12924W        W85349  19.314  36.430   4.054
12925W        W85350  36.824   0.937  14.386
12926W        W85351   2.207  17.987   4.672
12927W        W85352   0.539  19.018  12.924
12928W        W85353  38.436   8.478   1.607
12929W        W85354  25.225  15.359   3.633
12930W        W85355  17.321  27.249  12.985
12931W        W85356   5.049   8.728  12.946
12932W        W85357   9.593  36.660   2.149
12933W        W85358  23.940  24.146  14.373
12934W        W85359  15.652  27.753   1.694
12935W        W85360  31.666  29.044   3.859
12936W        W85361  13.700  33.402   1.328
12937W        W85362  39.741  26.927   2.245
12938W        W85363   1.244  13.411  11.976
12939W        W85364  18.051  19.536  13.593
12940W        W85365  35.564  13.681   0.296
12941W        W85366  38.359   2.977  14.927
12942W        W85367   6.424  39.106   3.195
12943W        W85368   8.593  27.963   2.395
12944W        W85369  41.287  14.665  13.992
12945W        W85370   2.031  32.006  12.585
12946W        W85371  11.183  13.296  12.670
12947W        W85372  33.203  25.874  12.033
12948W        W85373   7.861  19.239   2.808
12949W        W85374  24.540  42.940   3.178
12950W        W85375  39.773   0.067   5.092
12951W        W85376  29.549   1.426  12.532
12952W        W85377   7.641  44.851   4.684
12953W        W85378  41.281  42.399  11.858
12954W        W85379  21.730  43.802   2.387
12955W        W85380  11.170  33.147  14.989
12956W        W85381  20.771   5.275   2.792
12957W        W85382   1.727  29.158  13.500
12958W        W85383  27.451  22.422   2.181
12959W        W85384  10.338  20.156  11.933
12960W        W85385  25.436  34.106  12.058
12961W        W85386  19.296  44.428   3.446
12962W        W85387  37.356  10.394   4.119
12963W        W85388  33.074  12.075  14.149
12964W        W85389  22.208  14.984  11.560
12965W        W85390   5.507   0.334  11.985
12966W        W85391  39.868  29.690  12.901
12967W        W85392  41.007  25.146   1.927
12968W        W85393  39.247  42.645   1.950
12969W        W85394  26.692  16.254  12.878
12970W        W85395  32.032  38.289   3.159
12971W        W85396  26.126  28.736   2.490
12972W        W85397  12.152  15.251   1.169
12973W        W85398  26.572   1.350   1.023
12974W        W85399   4.237  29.541   4.821
12975W        W85400  24.459  24.674  12.812
12976W        W85401  20.938  32.730  11.936
12977W        W85402  19.686  38.532   5.105
12978W        W85403  25.740   4.413  11.297
12979W        W85404   6.458  25.911  11.284
12980W        W85405  29.417   4.294  11.541
12981W        W85406   9.188  10.053  10.391
12982W        W85407  43.964  31.881  13.808
12983W        W85408  44.424  22.781  10.257
12984W        W85409  12.733  22.615   4.729
12985W        W85410  39.749   2.296  12.391
12986W        W85411  38.346  27.110  12.379
12987W        W85412   3.499  27.202   3.742
12988W        W85413  44.464  32.224   1.356
12989W        W85414  10.077  12.895  11.084
12990W        W85415  35.097  33.380  14.377
12991W        W85416  42.132   8.932   1.147
12992W        W85417   2.975  39.046   0.674
12993W        W85418   3.917  44.892  10.895
12994W        W85419  40.956  43.631  12.629
12995W        W85420   0.858  27.148   2.878
12996W        W85421  40.950  11.340  13.897
12997W        W85422   9.384  41.883   4.593
12998W        W85423  13.759   5.896   3.819
12999W        W85424  35.127   5.475   3.278
13000W        W85425  24.272  25.925   3.221
13001W        W85426   1.730  38.405   4.633
13002W        W85427  43.820  40.530  12.537
13003W        W85428   8.089   1.374  10.583
13004W        W85429  16.556   6.195  13.418
13005W        W85430  10.634  20.065  14.437
13006W        W85431  15.978   1.567   4.162
13007W        W85432   3.167  29.234   2.354
13008W        W85433  16.668  17.280  13.164
13009W        W85434  23.712   6.774  13.495
13010W        W85435  41.966   8.170  13.350
13011W        W85436  31.315  38.059   1.430
13012W        W85437   5.637  36.808   0.865
13013W        W85438   8.965  20.487  12.530
13014W        W85439  31.415  29.116   2.848
13015W        W85440  29.494  38.047  13.780
13016W        W85441  40.846   2.244  13.803
13017W        W85442  15.303   1.877   1.193
13018W        W85443  11.807   7.700  11.228
13019W        W85444  20.653  31.520   1.653
13020W        W85445  13.638   5.669   0.849
13021W        W85446  20.536  21.731   0.381
13022W        W85447   9.833   9.548  10.720
13023W        W85448  10.344  11.574   1.644
13024W        W85449  17.750   1.795   4.067
13025W        W85450  43.870  24.710   0.007
13026W        W85451  19.989  40.546   0.291
13027W        W85452   6.782  25.333  14.013
13028W        W85453  17.106  21.139   2.420
13029W        W85454  36.267  41.277  10.580
13030W        W85455  37.526  35.946   3.894
13031W        W85456   1.334  25.489  12.555
13032W        W85457  20.696   3.957   2.802
13033W        W85458  34.014  32.997   2.796
13034W        W85459  23.859   8.222  13.104
13035W        W85460  22.406  40.605  14.569
13036W        W85461   0.635  13.209   4.202
13037W        W85462  35.074  29.900  14.399
13038W        W85463  31.475  35.807  11.480
13039W        W85464   3.910  34.869  13.130
13040W        W85465   8.816  27.106  14.399
13041W        W85466  15.661  18.985   2.624
13042W        W85467  14.169  34.161   0.336
13043W        W85468  30.461  32.449   2.613
13044W        W85469   6.199  20.389  13.793
13045W        W85470  23.584  21.894   1.890
13046W        W85471  44.380  40.901   3.044
13047W        W85472  43.029  19.159  11.607
13048W        W85473  14.607  40.867   1.436
13049W        W85474   1.485  26.034  14.432
13050W        W85475  38.790  23.763  12.437
13051W        W85476   2.031  14.569   4.994
13052W        W85477  32.132  38.555   3.591
13053W        W85478  17.320  12.556  14.007
13054W        W85479  40.572  24.980   3.348
13055W        W85480   3.862  23.717   4.620
13056W        W85481   3.734  43.559  12.529
13057W        W85482  22.635  39.439   0.258
13058W        W85483   9.814  38.139   4.665
13059W        W85484  39.571  30.840   0.326
13060W        W85485   3.274  23.532   1.797
13061W        W85486  38.442  35.636   4.368
13062W        W85487  44.788  22.700  11.635
13063W        W85488  24.732  14.589  12.040
13064W        W85489  11.733  11.515   0.106
13065W        W85490  32.700  17.023   4.174
13066W        W85491  10.623   1.560  10.613
13067W        W85492  32.476  23.554  13.968
13068W        W85493  13.816  26.164  14.378
13069W        W85494  30.477   6.715  12.419
13070W        W85495  15.519  33.200  12.179
13071W        W85496   5.812  30.735   4.923
13072W        W85497  21.852  39.870  10.774
13073W        W85498   7.086   0.161  13.906
13074W        W85499  42.223  35.443   1.349
13075W        W85500  27.174  31.578  10.469
13076W        W85501  30.644  26.726   2.292
13077W        W85502   6.399  32.932   3.946
13078W        W85503  31.697  32.148   5.054
13079W        W85504   9.637  27.387  10.628
13080W        W85505   7.869  33.864   3.670
13081W        W85506  15.795  24.526   1.914
13082W        W85507   5.827  26.073   4.636
13083W        W85508   9.870  31.150  11.204
13084W        W85509  21.417   2.018  14.970
13085W        W85510  40.318  33.744  11.693
13086W        W85511  35.022   6.963  12.265
13087W        W85512  32.959  44.124   1.182
13088W        W85513  26.005   3.451  10.954
13089W        W85514  25.633  10.740  10.980
13090W        W85515  24.138   7.458  13.362
13091W        W85516   8.598   6.328  10.675
13092W        W85517  22.220   0.225   3.670
13093W        W85518   1.508  39.422  14.252
13094W        W85519  19.352  15.092   1.341
13095W        W85520   2.206  32.873  12.950
13096W        W85521  27.086  43.262   2.803
13097W        W85522  39.426  26.907   1.783
13098W        W85523  35.715   8.923   0.538
13099W        W85524  21.030  20.805   3.158
13100W        W85525  16.819  43.885   4.396
13101W        W85526  20.282  13.239  11.387
13102W        W85527   6.004   4.023   1.849
13103W        W85528  44.272  30.674  12.535
13104W        W85529  40.007  35.982  10.737
13105W        W85530  29.094  19.202   2.993
13106W        W85531  42.013   0.066  13.499
13107W        W85532  40.610  22.097   3.335
13108W        W85533  21.924  12.626   0.906
13109W        W85534  30.208  23.020   0.397
13110W        W85535  19.306   1.959   2.659
13111W        W85536  39.437   8.149   1.316
13112W        W85537  31.569  33.762   0.541
13113W        W85538  42.505  19.088   2.176
13114W        W85539   0.392  21.087   4.493
13115W        W85540  11.634  42.247   2.924
13116W        W85541  12.279   3.680   2.238
13117W        W85542   8.846   7.064  14.420
13118W        W85543  37.850   4.720   3.201
13119W        W85544   9.719  11.312   4.390
13120W        W85545   3.377  44.838   4.654
13121W        W85546  39.321   9.762  14.308
13122W        W85547  44.252  10.928   4.435
13123W        W85548  31.127  10.080   4.380
13124W        W85549  34.047   2.657  11.928
13125W        W85550  25.268  39.369  11.719
13126W        W85551  35.692  42.801   0.718
13127W        W85552   5.301   8.813  14.733
13128W        W85553  32.975  37.388  11.132
13129W        W85554   1.327   4.159   4.526
13130W        W85555   3.827  12.303  14.734
13131W        W85556  19.708  13.900  11.079
13132W        W85557  29.080  30.273   9.877
13133W        W85558  34.065  17.158  12.373
13134W        W85559   3.932  26.980   1.819
13135W        W85560  17.858   5.797   4.722
13136W        W85561  12.594  19.542   2.610
13137W        W85562   9.156  37.591   3.870
13138W        W85563   0.785  23.945   2.927
13139W        W85564  14.465  37.448  10.254
13140W        W85565   9.652  17.268  13.143
13141W        W85566  26.656  43.187  11.882
13142W        W85567  29.219   2.944   4.496
13143W        W85568  42.368  37.778  10.782
13144W        W85569  44.200  36.121  14.478
13145W        W85570   4.351   9.089   4.585
13146W        W85571   0.233   4.752  12.857
13147W        W85572  29.468  39.153  11.112
13148W        W85573  17.197  44.737  10.128
13149W        W85574  23.615   0.044  11.303
13150W        W85575  30.469  10.826   4.259
13151W        W85576  17.236  40.385  11.223
13152W        W85577  34.177  35.530   1.137
13153W        W85578  33.567  22.744   2.408
13154W        W85579   4.163   9.456  11.423
13155W        W85580  30.343  18.309   1.225
13156W        W85581  23.251  43.573  14.843
13157W        W85582  25.424  28.684  13.420
13158W        W85583   8.715  22.188   1.844
13159W        W85584  11.290  17.369   3.134
13160W        W85585  34.042  34.991   0.965
13161W        W85586  10.681   3.647  11.595
13162W        W85587   8.872  15.995  11.568
13163W        W85588   9.515  13.915  12.304
13164W        W85589  16.070  37.310  12.420
13165W        W85590  31.403   4.493   0.871
13166W        W85591  26.093  44.320  12.927
13167W        W85592  27.095  32.503  12.435
13168W        W85593  38.570   2.821   0.376
13169W        W85594  27.319   6.893  12.604
13170W        W85595   8.415  22.656   3.276
13171W        W85596   9.324  13.289   0.728
13172W        W85597   2.252  24.585  10.567
13173W        W85598  36.313   3.787  12.872
13174W        W85599  13.553   5.389  13.913
13175W        W85600  31.457  30.995   4.924
13176W        W85601   1.271   7.166  14.298
13177W        W85602  16.249  16.024   4.821
13178W        W85603  18.840  37.945  12.175
13179W        W85604  18.646  13.166  14.754
13180W        W85605  24.777   1.773   4.682
13181W        W85606  30.140  23.746   2.229
13182W        W85607  20.717   2.476   4.607
13183W        W85608  39.351   3.060  14.374
13184W        W85609  20.053  10.390   2.106
13185W        W85610  37.810  35.906   2.585
13186W        W85611  35.815  21.740   2.270
13187W        W85612  36.519  43.376  11.318
13188W        W85613  25.465  34.040   1.348
13189W        W85614  16.460  19.303   4.180
13190W        W85615  21.200  18.620  10.653
13191W        W85616  41.994  36.006   4.607
13192W        W85617  35.477   7.658   3.812
13193W        W85618  31.479  33.571   1.408
13194W        W85619   5.263  31.637  10.560
13195W        W85620  18.133  33.587  13.325
13196W        W85621  44.685  33.436   4.904
13197W        W85622  15.213  31.778  12.468
13198W        W85623  16.362  19.190  12.056
13199W        W85624  39.924  42.356   0.945
13200W        W85625  22.881  30.381  14.607
13201W        W85626  14.072  42.917  12.829
13202W        W85627  11.758  33.595  14.004
13203W        W85628  32.508   6.735   3.551
13204W        W85629   3.686  33.557  10.680
13205W        W85630  38.866  25.500   3.564
13206W        W85631   1.927  40.301   3.200
13207W        W85632  10.835  13.257   0.853
13208W        W85633  10.191  42.541  10.510
13209W        W85634  35.519  11.873   4.801
13210W        W85635  22.064  18.254  11.458
13211W        W85636  19.179  17.602   3.361
13212W        W85637  14.823   6.866   3.713
13213W        W85638  30.064  18.210  14.875
13214W        W85639   5.042  43.494   1.752
13215W        W85640  22.150  33.704   0.805
13216W        W85641  43.399  32.924   3.745
13217W        W85642  10.081  13.655   0.734
13218W        W85643  16.310  34.201   2.383
13219W        W85644  28.478  15.760   4.181
13220W        W85645  34.932  38.869  13.210
13221W        W85646   7.179   7.157   4.609
13222W        W85647  38.962   6.517  11.628
13223W        W85648  38.804   0.250  11.541
13224W        W85649  23.144  39.030  14.831
13225W        W85650  34.974  26.607  14.575
13226W        W85651   1.879  19.714  11.451
13227W        W85652   1.181  42.758   3.685
13228W        W85653  28.108  43.013   3.304
13229W        W85654   5.600  26.495  12.872
13230W        W85655   0.593  15.176   0.210
13231W        W85656  16.576  23.996  14.779
13232W        W85657   9.106  12.823  14.225
13233W        W85658  10.014  10.763  12.006
13234W        W85659  31.644  15.482  13.942
13235W        W85660  27.906  29.556  13.431
13236W        W85661  28.161  37.668  11.683
13237W        W85662  11.322   0.973   4.331
13238W        W85663  32.956  24.212   1.359
13239W        W85664   4.972   4.919  10.750
13240W        W85665   8.911  12.162   2.698
13241W        W85666  31.692  14.351   4.671
13242W        W85667   8.455  27.765   2.887
13243W        W85668  14.576  13.661   2.243
13244W        W85669  36.258  32.679  13.862
13245W        W85670  29.460  41.080   2.423
13246W        W85671  16.880  16.745   3.173
13247W        W85672  13.347  21.147   3.595
13248W        W85673   8.640  42.288   0.875
13249W        W85674  11.660  19.567   4.087
13250W        W85675   9.679  24.961  11.637
13251W        W85676  26.696  23.951   2.989
13252W        W85677  44.484   4.629  14.576
13253W        W85678  42.553  39.369   0.840
13254W        W85679  27.438  44.509  14.361
13255W        W85680  26.745  13.116  12.509
13256W        W85681   6.829  10.203   2.116
13257W        W85682   8.598  19.049  11.758
13258W        W85683  44.695   8.916  14.806
13259W        W85684   6.428  37.778  11.074
13260W        W85685  17.779  31.146   0.319
13261W        W85686   8.320   2.728   2.438
13262W        W85687  39.151  17.309   0.740
13263W        W85688  40.611  13.709  12.852
13264W        W85689   2.236  34.726  14.885
13265W        W85690  34.380  12.608  13.916
13266W        W85691  17.403  36.984  11.498
13267W        W85692  42.848  35.190   2.815
13268W        W85693   7.146   9.906  11.051
13269W        W85694  34.712  33.453   1.906
13270W        W85695  23.753  12.883  11.570
13271W        W85696  17.909  37.314  14.471
13272W        W85697   9.156  15.727  11.038
13273W        W85698  36.182  35.834  14.542
13274W        W85699  28.926  32.605  12.539
13275W        W85700   3.100  23.557  14.374
13276W        W85701   7.190   7.729   3.763
13277W        W85702   4.929  20.211   1.824
13278W        W85703  26.930   3.322  10.788
13279W        W85704  30.123  20.478   3.652
13280W        W85705  43.487  19.695  12.923
13281W        W85706  23.775  19.831   1.448
13282W        W85707  26.206  23.678   2.810
13283W        W85708  32.160  26.689   0.886
13284W        W85709  35.301   4.294  10.508
13285W        W85710  17.749  25.196   4.769
13286W        W85711  12.653   1.007  12.549
13287W        W85712   7.340  18.144   3.561
13288W        W85713  32.212  34.907  13.144
13289W        W85714   3.412   2.887   3.671
13290W        W85715  21.218   1.469   0.950
13291W        W85716  29.130  35.630   3.640
13292W        W85717   6.861  10.349   0.288
13293W        W85718  12.616   0.511  10.890
13294W        W85719   5.252  13.634   2.777
13295W        W85720  27.563  27.256   2.985
13296W        W85721  42.426  16.296   0.263
13297W        W85722   5.766  10.920  13.434
13298W        W85723   4.874  17.694  12.989
13299W        W85724  22.238   7.142   3.712
13300W        W85725   4.204   5.434   1.734
13301W        W85726   6.909  26.694  10.371
13302W        W85727   4.784  38.874   4.627
13303W        W85728  44.209  11.208  11.162
13304W        W85729  32.444  28.471   1.056
13305W        W85730  27.722  30.344   0.735
13306W        W85731  16.004  16.793  14.307
13307W        W85732  12.011  31.411  11.420
13308W        W85733  44.250  14.754   2.326
13309W        W85734  29.644  10.597   2.909
13310W        W85735  26.967  42.882  13.566
13311W        W85736   7.252   7.409  12.883
13312W        W85737  32.125  34.317   3.628
13313W        W85738   9.232  44.788  12.127
13314W        W85739  29.991  33.848  11.525
13315W        W85740  37.240  22.351   4.615
13316W        W85741  29.058  32.352  10.295
13317W        W85742  26.410  32.316  13.005
13318W        W85743  14.699  39.444   9.848
13319W        W85744  37.092   0.238   4.178
13320W        W85745  19.035  30.996  11.953
13321W        W85746  36.630  25.513  11.227
13322W        W85747  35.408  23.779   0.963
13323W        W85748  28.031   1.744   0.453
13324W        W85749  32.113  21.629  10.914
13325W        W85750  40.029  35.279  13.432
13326W        W85751  44.303  35.433  11.830
13327W        W85752  43.228  37.726   1.823
13328W        W85753  11.796  11.122  13.098
13329W        W85754   4.909  15.514   4.167
13330W        W85755  28.555  39.553   4.125
13331W        W85756  34.420   6.861   1.430
13332W        W85757  32.412   3.005  14.400
13333W        W85758  40.221  28.161  12.030
13334W        W85759  44.768  19.731  10.660
13335W        W85760  14.721   4.793  14.415
13336W        W85761   5.884  32.640  11.197
13337W        W85762  14.374   8.659  13.392
13338W        W85763  19.659   5.035  11.139
13339W        W85764   9.665   5.969   9.835
13340W        W85765  13.190  19.072  12.550
13341W        W85766   5.248  13.875   0.199
13342W        W85767  26.190  34.864   2.191
13343W        W85768  29.621  31.756   3.119
13344W        W85769   3.005   6.655   2.276
13345W        W85770  30.391   8.270  14.796
13346W        W85771  38.403   7.084   0.024
13347W        W85772  27.200  36.434  14.827
13348W        W85773  16.704  25.222  12.844
13349W        W85774  14.217  25.683   1.313
13350W        W85775  24.738   2.844  13.556
13351W        W85776  35.684  40.586  11.465
13352W        W85777  10.765  16.181  13.359
13353W        W85778  16.246   9.225   3.287
13354W        W85779  39.073  31.496   0.782
13355W        W85780  30.923  30.851   3.183
13356W        W85781  26.909  37.834  12.502
13357W        W85782  41.027  28.744   1.857
13358W        W85783  37.282  17.722   0.770
13359W        W85784  26.450  23.257   1.849
13360W        W85785  43.732  18.253  12.008
13361W        W85786   3.219   4.492   3.644
13362W        W85787  27.202  10.828   1.312
13363W        W85788  14.287   3.507  11.195
13364W        W85789  18.636  20.012  13.207
13365W        W85790  35.447  30.429   0.831
13366W        W85791  36.509  24.208  12.101
13367W        W85792  30.149   8.771   1.192
13368W        W85793  27.068  35.462   4.652
13369W        W85794  12.367   2.913   0.369
13370W        W85795  29.183   0.448   3.736
13371W        W85796  17.249  31.899  11.034
13372W        W85797  36.139  24.685  12.148
13373W        W85798  29.698   6.129  14.839
13374W        W85799  34.316  37.389   4.139
13375W        W85800  24.430  13.641  14.380
13376W        W85801  23.292  42.110   0.867
13377W        W85802  15.657  12.520  12.115
13378W        W85803   2.369   5.287   0.140
13379W        W85804  41.761  22.824   4.119
13380W        W85805  31.210  11.163  13.070
13381W        W85806  42.603  44.428   0.695
13382W        W85807  37.889  41.816   1.281
13383W        W85808  34.069  42.733   3.628
13384W        W85809   0.738  16.182  13.874
13385W        W85810  13.429   7.658   4.204
13386W        W85811  11.368  30.411  12.438
13387W        W85812  12.702  11.546  13.069
13388W        W85813  15.006   7.787  14.807
13389W        W85814   9.840  29.656  11.101
13390W        W85815  26.229  27.602  14.472
13391W        W85816  42.472   9.353  12.400
13392W        W85817   7.758  39.881  12.999
13393W        W85818  27.498   0.233   2.129
13394W        W85819  10.772  38.530  12.256
13395W        W85820   7.402  12.576   1.233
13396W        W85821  40.238  32.590  12.905
13397W        W85822  44.412  29.388   0.371
13398W        W85823  11.930  22.541   1.508
13399W        W85824  19.070  20.297  14.872
13400W        W85825   7.833  40.344   2.703
13401W        W85826  33.961  33.416  11.201
13402W        W85827  28.196  34.883   4.188
13403W        W85828  29.896  17.678  12.254
13404W        W85829  41.560   4.462  13.479
13405W        W85830  27.261  19.256   2.751
13406W        W85831  28.213  44.244   0.804
13407W        W85832  41.476  41.330  14.494
13408W        W85833  19.813  33.366   3.248
13409W        W85834  33.081   4.882  10.103
13410W        W85835  39.842  25.666  12.158
13411W        W85836  27.426   9.901   4.371
13412W        W85837  34.593  32.068   4.362
13413W        W85838  31.204  31.698  10.568
13414W        W85839  35.138  33.620  11.608
13415W        W85840   0.876  22.382   4.644
13416W        W85841  37.414   6.920  11.309
13417W        W85842  32.217  40.920  12.652
13418W        W85843  28.777  36.504  13.802
13419W        W85844   4.458  11.702   3.694
13420W        W85845  24.693  36.921  12.038
13421W        W85846  38.060   6.414   3.601
13422W        W85847  19.006  30.037  13.284
13423W        W85848  15.769  14.716  13.733
13424W        W85849  25.376  34.611   3.630
13425W        W85850  21.195  30.285  14.389
13426W        W85851  12.107  21.041   2.186
13427W        W85852  14.775  35.366  14.023
13428W        W85853  24.226  34.364  11.492
13429W        W85854  12.082  26.409  13.038
13430W        W85855  35.820  36.854   1.359
13431W        W85856  34.629  13.905   3.109
13432W        W85857  37.380   3.262   3.897
13433W        W85858   2.274   4.479  14.430
13434W        W85859  32.761  44.433  14.887
13435W        W85860  21.537   4.451  12.438
13436W        W85861   6.466  35.496   0.705
13437W        W85862  24.054  27.991  12.099
13438W        W85863  43.475  30.464   0.428
13439W        W85864  38.991   4.399   4.223
13440W        W85865  24.122  23.234  10.566
13441W        W85866  22.938   9.602  14.512
13442W        W85867  39.326  39.083   1.268
13443W        W85868  43.499  36.486  12.035
13444W        W85869  27.481   9.510   2.367
13445W        W85870  16.276  43.130  13.554
13446W        W85871   7.100  17.768  14.807
13447W        W85872  25.095  35.421  12.486
13448W        W85873  36.774  38.575   3.390
13449W        W85874   0.305  40.961  12.818
13450W        W85875   9.238  35.390   4.595
13451W        W85876   2.565  30.557   1.754
13452W        W85877  11.176  24.519  12.123
13453W        W85878  16.191   7.124  13.387
13454W        W85879  12.312   5.685   3.702
13455W        W85880  20.054   2.667  11.159
13456W        W85881  31.208  41.506   4.152
13457W        W85882   5.084  17.353   0.160
13458W        W85883  36.455   2.411   1.299
13459W        W85884  26.078   3.932  10.720
13460W        W85885   3.090  13.868   1.204
13461W        W85886  12.363  34.593   3.344
13462W        W85887   9.032  17.534  10.722
13463W        W85888   1.848  10.168   3.157
13464W        W85889  25.561  30.003  11.107
13465W        W85890  36.309  42.964  13.108
13466W        W85891  19.730   3.698   4.151
13467W        W85892  44.969  38.675  11.996
13468W        W85893  27.086  27.922   3.318
13469W        W85894  23.403   0.752   4.774
13470W        W85895  38.100  26.169  11.983
13471W        W85896  19.652  40.320   3.700
13472W        W85897  31.181  21.807  14.371
13473W        W85898  37.155  36.822   3.150
13474W        W85899  30.710  35.819   4.191
13475W        W85900  34.660   7.377   0.875
13476W        W85901   3.999  35.886  14.006
13477W        W85902  17.482  16.050   2.273
13478W        W85903  34.272  16.326  11.122
13479W        W85904  24.894  35.102  14.295
13480W        W85905   0.327   3.191   0.567
13481W        W85906  30.806  28.477   1.750
13482W        W85907   9.024  38.058   2.928
13483W        W85908  22.429  10.378   1.191
13484W        W85909  28.854  28.194  12.647
13485W        W85910   0.065  44.780  13.800
13486W        W85911  42.231  32.674  10.667
13487W        W85912  35.604  25.299  10.118
13488W        W85913   5.415  18.042  14.932
13489W        W85914  17.224  16.684   2.260
13490W        W85915  42.389  39.004   1.471
13491W        W85916  29.358  18.822   3.269
13492W        W85917  37.793   6.404   0.333
13493W        W85918  13.282  24.181  12.442
13494W        W85919  11.718  31.840   3.561
13495W        W85920  25.602   3.755   3.642
13496W        W85921  42.448  39.144  14.190
13497W        W85922  35.030   6.570  11.922
13498W        W85923  28.623  31.019  11.103
13499W        W85924   3.655  24.462  14.656
13500W        W85925  30.385  29.407  13.447
13501W        W85926  21.337  37.930   3.610
13502W        W85927  30.374  38.677   0.904
13503W        W85928  10.786  19.808   2.717
13504W        W85929   5.169   2.277   3.685
13505W        W85930  30.006  18.549   2.747
13506W        W85931  32.771  18.650  10.558
13507W        W85932  40.275  12.858   1.895
13508W        W85933   4.760  27.648  13.266
13509W        W85934  15.845  29.933   0.762
13510W        W85935  13.913  38.540  13.951
13511W        W85936   9.421  10.535  11.295
13512W        W85937  20.769   0.140  12.849
13513W        W85938  44.951  17.534   2.654
13514W        W85939   3.196  35.064   0.270
13515W        W85940  32.620  44.673  11.173
13516W        W85941  39.493  42.531   2.397
13517W        W85942  35.974  40.291  13.526
13518W        W85943  20.302  33.854   4.555
13519W        W85944  16.514  27.405   3.201
13520W        W85945  38.681  39.364  13.774
13521W        W85946  18.190  33.982  12.982
13522W        W85947  42.355  20.567  12.094
13523W        W85948  22.697   8.857   2.899
13524W        W85949   4.459   0.563   3.234
13525W        W85950  23.077  23.919   1.226
13526W        W85951  18.848   8.403  11.220
13527W        W85952  28.452  20.135   4.812
13528W        W85953  13.898   4.290   1.844
13529W        W85954   1.006  12.601   4.178
13530W        W85955  41.474   9.750  14.386
13531W        W85956  16.560  11.691   0.294
13532W        W85957  37.786  22.138   3.805
13533W        W85958  27.990  42.033   3.097
13534W        W85959  31.812  15.962  12.811
13535W        W85960  38.731   6.458   3.023
13536W        W85961  21.667  18.502   3.303
13537W        W85962  28.205  21.115  12.242
13538W        W85963  16.047   3.666   2.431
13539W        W85964  10.150   1.486  13.908
13540W        W85965   5.251  23.211  13.007
13541W        W85966  20.700  20.094   4.356
13542W        W85967  25.288  38.382  12.445
13543W        W85968  32.290  14.219  12.858
13544W        W85969   3.695  40.871  14.410
13545W        W85970  30.297   0.646  11.514
13546W        W85971   8.488  36.975   2.960
13547W        W85972  20.184  15.571   3.153
13548W        W85973  37.027  14.766   1.942
13549W        W85974  27.648  43.232   3.187
13550W        W85975  17.064   1.978   0.554
13551W        W85976  24.945  35.507   1.246
13552W        W85977   9.126  33.875  14.880
13553W        W85978  32.858  28.231   0.853
13554W        W85979  13.648  35.819  14.930
13555W        W85980  30.445   6.913   0.873
13556W        W85981  37.173  35.052   0.375
13557W        W85982   5.534   7.787  12.652
13558W        W85983  22.636  33.130   4.874
13559W        W85984  29.665  38.789   2.856
13560W        W85985  26.714  13.779   3.086
13561W        W85986   5.733   5.652   3.221
13562W        W85987  17.578  30.722   1.427
13563W        W85988  31.032   8.675  11.748
13564W        W85989   7.170  25.765   5.045
13565W        W85990  18.259  21.216  11.187
13566W        W85991  38.351  29.575   0.888
13567W        W85992  36.680   1.042  13.442
13568W        W85993  42.843  38.632   3.269
13569W        W85994   3.757   1.391  13.106
13570W        W85995   0.248  35.871   3.921
13571W        W85996  15.161   9.388  12.671
13572W        W85997   3.886  29.821   0.178
13573W        W85998  32.475  25.172   4.249
13574W        W85999  37.336  18.773  10.769
13575W        W86000  24.228  31.881   2.246
13576W        W86001   7.385  11.869  11.185
13577W        W86002  19.759  40.651   1.090
13578W        W86003  41.337  34.079   4.873
13579W        W86004  34.115  26.535  13.968
13580W        W86005  44.904  14.639  13.235
13581W        W86006  18.249  42.490  14.999
13582W        W86007  15.149   6.221  14.183
13583W        W86008  13.920  44.222   4.081
13584W        W86009   8.444  12.047  14.315
13585W        W86010  37.654   2.302   2.697
13586W        W86011  22.757  30.868  12.807
13587W        W86012  27.594   0.338   3.804
13588W        W86013  21.762  11.318   4.162
13589W        W86014   8.147  23.589  12.840
13590W        W86015  43.782   2.544  11.282
13591W        W86016  38.620  13.327  12.651
13592W        W86017  24.245  34.641   0.925
13593W        W86018  27.246  14.144  13.081
13594W        W86019  25.218  29.676  12.510
13595W        W86020  13.774  16.557  11.495
13596W        W86021  33.862  27.416   0.925
13597W        W86022  22.683   3.877  14.895
13598W        W86023   8.220  20.650   1.385
13599W        W86024  35.022  10.883  11.110
13600W        W86025   3.207   7.667   4.299
13601W        W86026   8.254  34.547  11.504
13602W        W86027  43.711  17.990  12.918
13603W        W86028  21.721  32.167   3.665
13604W        W86029  43.632  37.329  12.546
13605W        W86030  13.938  22.191   0.838
13606W        W86031   7.717  22.275   0.918
13607W        W86032   4.682  43.238  11.404
13608W        W86033  32.888   1.200  14.617
13609W        W86034  16.853   7.642   3.444
13610W        W86035  41.317  18.317  12.377
13611W        W86036  37.630  23.997  13.972
13612W        W86037  20.444  11.787   2.323
13613W        W86038  31.596  19.343  10.232
13614W        W86039   4.688  34.974   3.265
13615W        W86040  13.187   3.270   0.729
13616W        W86041  32.154  19.463   1.513
13617W        W86042  39.572   7.378   0.382
13618W        W86043  30.103  36.564   0.930
13619W        W86044  36.973  29.899  11.598
13620W        W86045   1.298  35.408  12.456
13621W        W86046  36.039  19.119  12.920
13622W        W86047   5.900  43.232   3.271
13623W        W86048  23.435   7.879   3.665
13624W        W86049  15.391  41.874  12.065
13625W        W86050  33.448   4.429  14.444
13626W        W86051  39.430  37.482  10.701
13627W        W86052  22.258  18.051   1.319
13628W        W86053  34.885  33.350  13.907
13629W        W86054  41.937  10.380  10.685
13630W        W86055   0.003  24.972   3.195
13631W        W86056  15.750  32.858  10.302
13632W        W86057  36.104   3.412  11.210
13633W        W86058  44.961  22.651  13.660
13634W        W86059  34.221   7.986   3.772
13635W        W86060  18.160   9.829  14.531
13636W        W86061   5.248  32.460   0.522
13637W        W86062   4.826   1.529   4.781
13638W        W86063  34.659  39.747   4.258
13639W        W86064  42.555   0.525   2.013
13640W        W86065   3.238  17.164  13.556
13641W        W86066  30.202  28.480   2.918
13642W        W86067  36.157   5.751   4.145
13643W        W86068  11.067  21.485  11.538
13644W        W86069  36.013  19.641  13.006
13645W        W86070  37.361  15.883   3.287
13646W        W86071  34.996  17.040  14.310
13647W        W86072  24.936   9.880  14.285
13648W        W86073   0.917  44.787  11.697
13649W        W86074  40.261  39.115  14.861
13650W        W86075  25.996  27.669  12.203
13651W        W86076  26.052  24.648   3.710
13652W        W86077  40.291  20.706   3.312
13653W        W86078  20.135  32.979  13.010
13654W        W86079  13.201   4.293   2.294
13655W        W86080  29.955  40.957  10.973
13656W        W86081   9.667  34.240  11.372
13657W        W86082  41.688  40.265   4.203
13658W        W86083  29.948  19.212  12.634
13659W        W86084  34.173  24.495   2.063
13660W        W86085  19.726  42.054   0.971
13661W        W86086  16.002  38.577   2.683
13662W        W86087  43.998   0.415  14.284
13663W        W86088   2.160  42.981  11.409
13664W        W86089  10.251  14.869   1.728
13665W        W86090  21.808  13.270  11.458
13666W        W86091   1.282   8.469  11.308
13667W        W86092  13.543  19.380   4.943
13668W        W86093   8.486   5.862  13.102
13669W        W86094  26.853  14.496   4.982
13670W        W86095   5.767   5.006  14.895
13671W        W86096  33.475  13.162   3.984
13672W        W86097   3.762  18.345   3.092
13673W        W86098  20.590  43.586  11.712
13674W        W86099   2.792  30.391   5.070
13675W        W86100  24.887  27.653   2.913
13676W        W86101  17.096  15.613  14.735
13677W        W86102  20.399   1.211   4.884
13678W        W86103  28.014  34.224   1.772
13679W        W86104   8.232   4.463   3.704
13680W        W86105  19.649   9.933  13.426
13681W        W86106  25.264  30.247   1.704
13682W        W86107   8.413   8.889   2.374
13683W        W86108  42.802  19.602  13.081
13684W        W86109  37.271   6.217   4.468
13685W        W86110  16.546  39.626   3.988
13686W        W86111  23.129  10.972  10.698
13687W        W86112  33.402  18.797  10.631
13688W        W86113  31.059  29.304  14.031
13689W        W86114  44.037   7.846  14.813
13690W        W86115  13.219  20.664   1.410
13691W        W86116  40.095  30.097  11.271
13692W        W86117   3.399   0.569  11.486
13693W        W86118  23.281   1.222   0.732
13694W        W86119  43.841  39.106   0.328
13695W        W86120  30.287  12.173   4.516
13696W        W86121  11.785  43.152  11.260
13697W        W86122   3.196  22.071   1.630
13698W        W86123  16.002  18.565   2.798
13699W        W86124  25.556  34.350  11.619
13700W        W86125  34.801  23.026   0.664
13701W        W86126  26.506  14.300  14.921
13702W        W86127  37.918  23.396   1.310
13703W        W86128  37.803  31.550  12.439
13704W        W86129  12.856  29.431  13.024
13705W        W86130   1.492  42.825   2.750
13706W        W86131  28.502  10.248  10.701
13707W        W86132  43.548  17.214  13.103
13708W        W86133   2.009  17.519  12.087
13709W        W86134   2.348   3.718  12.330
13710W        W86135  22.628   1.218   4.658
13711W        W86136  27.669  28.444   2.369
13712W        W86137  23.764   4.771  11.015
13713W        W86138   8.700  34.993  10.654
13714W        W86139  27.472  19.994  14.458
13715W        W86140  38.011  26.198   1.360
13716W        W86141  32.117   2.272  13.902
13717W        W86142  34.901  22.275   3.559
13718W        W86143  26.697  40.825   2.282
13719W        W86144  27.225   7.611  13.861
13720W        W86145  11.321  22.779  11.620
13721W        W86146  26.621  39.948   1.191
13722W        W86147  15.177   1.101   4.940
13723W        W86148  19.236  19.225   1.810
13724W        W86149   2.291  38.903   1.341
13725W        W86150  39.499  23.748   0.365
13726W        W86151   6.553  11.592   2.803
13727W        W86152  16.056  16.095  12.120
13728W        W86153   9.106  37.471   9.689
13729W        W86154   2.068  21.779   0.554
13730W        W86155   5.514  10.315   0.824
13731W        W86156  15.398  20.740   1.815
13732W        W86157  22.758   4.853   2.678
13733W        W86158  25.539   7.685  13.357
13734W        W86159  41.517   5.216  11.884
13735W        W86160   5.760  33.863  14.493
13736W        W86161  43.374   4.274   4.318
13737W        W86162  42.361  18.533  13.172
13738W        W86163  25.525  30.882  11.388
13739W        W86164   5.818  11.204  12.488
13740W        W86165  38.922  11.539   1.328
13741W        W86166  25.080   4.912  14.550
13742W        W86167  31.145  34.164  11.372
13743W        W86168  12.677  33.587   0.665
13744W        W86169  18.024  21.328   2.006
13745W        W86170   5.830   1.866   4.355
13746W        W86171  11.707  40.324  13.889
13747W        W86172  44.956  10.278  13.444
13748W        W86173   4.713   0.561   4.495
13749W        W86174  15.723   7.069  14.007
13750W        W86175  27.655  38.022  12.259
13751W        W86176  24.713  36.340  12.493
13752W        W86177   4.939   7.956   4.334
13753W        W86178  44.293  42.716   5.053
13754W        W86179   3.270   3.915  12.694
13755W        W86180  16.599  29.289  13.998
13756W        W86181   2.478  17.651   3.378
13757W        W86182  24.576  24.733  12.140
13758W        W86183  24.529  40.498  14.358
13759W        W86184  26.910  33.160  11.103
13760W        W86185  44.746  32.662   3.981
13761W        W86186   3.201  34.103   3.783
13762W        W86187  22.478  34.671  13.126
13763W        W86188  39.214  44.380  14.480
13764W        W86189   1.974  30.466   3.340
13765W        W86190   1.310  16.144  13.226
13766W        W86191   9.198  14.622   1.037
13767W        W86192  38.155   1.676  12.393
13768W        W86193  39.311  13.548   0.399
13769W        W86194  42.975  37.222   2.917
13770W        W86195  26.147  17.782   4.542
13771W        W86196  27.485  31.951  10.632
13772W        W86197  26.541  20.100  10.584
13773W        W86198   8.400  33.104   2.469
13774W        W86199  11.648  22.298   0.031
13775W        W86200  40.275   3.103  14.465
13776W        W86201  34.499  14.692  12.550
13777W        W86202   8.191   8.122   1.887
13778W        W86203  18.769   5.496  12.902
13779W        W86204  16.541  42.062   0.038
13780W        W86205  33.628  13.233   1.350
13781W        W86206  37.039   7.314  11.286
13782W        W86207  32.031  26.252   1.344
13783W        W86208  21.623  13.243   3.584
13784W        W86209   3.670  19.199  14.917
13785W        W86210   7.504  44.766  14.367
13786W        W86211   7.963  18.660   4.652
13787W        W86212   7.029   6.243  13.623
13788W        W86213  42.338  39.565  12.851
13789W        W86214  13.282  32.575  13.237
13790W        W86215  20.335  12.767  12.303
13791W        W86216  19.470  19.736   0.770
13792W        W86217   8.695  27.039  11.921
13793W        W86218  13.590  21.764   3.053
13794W        W86219   2.333  28.659   2.136
13795W        W86220  27.205  39.200   2.661
13796W        W86221  38.130  37.976  13.055
13797W        W86222  40.839  24.612   2.698
13798W        W86223  42.546  21.157  13.357
13799W        W86224  35.988  28.033   3.417
13800W        W86225  14.225  22.785  13.801
13801W        W86226   1.937  29.022  14.844
13802W        W86227  40.041  33.338   0.008
13803W        W86228   3.263  10.542   4.464
13804W        W86229  15.038  29.149  12.464
13805W        W86230  36.306   8.415   2.345
13806W        W86231  12.649  23.812   3.742
13807W        W86232  37.068  37.431  11.868
13808W        W86233  18.107  34.580   1.360
13809W        W86234  21.789  19.148  11.627
13810W        W86235   7.676   5.618  13.488
13811W        W86236  11.358   9.638   0.308
13812W        W86237  27.905  15.756   1.393
13813W        W86238  28.569   7.007  14.875
13814W        W86239  35.724  31.954  12.136
13815W        W86240  43.409  15.546   4.562
13816W        W86241  21.979  14.933   4.870
13817W        W86242  36.011  18.340  14.996
13818W        W86243   0.200  43.910   0.671
13819W        W86244  32.490   1.985   3.788
13820W        W86245  39.962  25.380  13.100
13821W        W86246  17.197  19.036  13.802
13822W        W86247  35.503  32.390   4.176
13823W        W86248  43.908   1.830  13.945
13824W        W86249  42.409  10.187   3.798
13825W        W86250  31.667  15.088  10.664
13826W        W86251  27.072  31.205  11.262
13827W        W86252   5.643   6.522   1.986
13828W        W86253  43.320   4.839   3.775
13829W        W86254  27.463   9.472   4.724
13830W        W86255  26.600  31.637   1.546
13831W        W86256  33.922  42.717   0.245
13832W        W86257  23.976  19.585   2.741
13833W        W86258  32.408  19.477   1.971
13834W        W86259  17.683  25.928  10.400
13835W        W86260   6.168  19.668  10.685
13836W        W86261  20.345  22.474   0.820
13837W        W86262  35.820  19.745   1.043
13838W        W86263  17.605  22.759   0.883
13839W        W86264   9.778  23.712   0.649
13840W        W86265   9.838  41.399   4.487
13841W        W86266  22.587  30.101   3.122
13842W        W86267  12.260   7.891  10.939
13843W        W86268  14.226  13.307  12.530
13844W        W86269  28.408  30.434  10.500
13845W        W86270  21.703  31.737  11.125
13846W        W86271   7.328   1.832  14.300
13847W        W86272  29.889  40.961   1.272
13848W        W86273  24.528  19.905  11.623
13849W        W86274  25.728  27.879   2.390
13850W        W86275  11.190  26.370  10.627
13851W        W86276  24.369  41.424   3.694
13852W        W86277  18.663   1.695  10.745
13853W        W86278  20.509  14.016   1.567
13854W        W86279  24.599   2.776  13.058
13855W        W86280  14.607   0.342   1.005
13856W        W86281  23.152  26.830   2.585
13857W        W86282  38.364  31.014   2.601
13858W        W86283  21.162  21.076  12.381
13859W        W86284  39.269   4.715   0.350
13860W        W86285  13.102   0.864  10.176
13861W        W86286  26.048   9.055  12.319
13862W        W86287  29.891  41.740   4.142
13863W        W86288  19.258  18.601   3.188
13864W        W86289   7.153  20.785   1.017
13865W        W86290   3.424  18.349  12.843
13866W        W86291  44.415  31.202   2.447
13867W        W86292  26.986   2.919   3.465
13868W        W86293  39.127  40.569  11.010
13869W        W86294  41.589  44.993  13.178
13870W        W86295  43.740  36.369   1.440
13871W        W86296  42.296   3.382  12.402
13872W        W86297  29.869  21.838  14.882
13873W        W86298   5.629  21.570  12.938
13874W        W86299  27.047  17.971  10.975
13875W        W86300  23.298  18.749  11.195
13876W        W86301  28.926  22.051   3.789
13877W        W86302  15.748  28.971   3.441
13878W        W86303  24.701  23.437  14.316
13879W        W86304  12.119  18.058   1.288
13880W        W86305  23.727  13.413   3.770
13881W        W86306  15.778  36.530   3.819
13882W        W86307  18.259  33.668  14.343
13883W        W86308   5.022   2.622   0.032
13884W        W86309  40.045  12.674   4.735
13885W        W86310   7.832  41.651  13.512
13886W        W86311  18.602  32.680   3.382
13887W        W86312   9.701  29.986  13.957
13888W        W86313  29.227   7.962   0.259
13889W        W86314  14.815  42.799  11.753
13890W        W86315   2.898  40.004   0.284
13891W        W86316  30.215  21.612   0.234
13892W        W86317  14.522   0.326   2.267
13893W        W86318  22.196  31.613  11.251
13894W        W86319  44.667   3.309   5.108
13895W        W86320  19.246  30.959  11.465
13896W        W86321  21.693  14.736   1.318
13897W        W86322  29.930  35.393   5.066
13898W        W86323  11.705   5.269  13.864
13899W        W86324  38.075  44.362   1.343
13900W        W86325  29.650  20.536   4.851
13901W        W86326   2.394  32.077   1.365
13902W        W86327   1.663  27.617   2.475
13903W        W86328  29.515  43.961  10.448
13904W        W86329   6.305  12.083  11.168
13905W        W86330  40.917   6.599  14.890
13906W        W86331  40.711  14.771   4.649
13907W        W86332  43.099  28.190   0.971
13908W        W86333  22.803  29.619  13.893
13909W        W86334  23.466  40.860  13.040
13910W        W86335   4.405   2.016  14.988
13911W        W86336   8.240  40.550  13.976
13912W        W86337  11.300   2.535   2.321
13913W        W86338  18.740  19.110   1.635
13914W        W86339   3.750   9.695   2.699
13915W        W86340  12.885  39.329   1.299
13916W        W86341  14.270  24.879   3.758
13917W        W86342  19.748  13.540  12.511
13918W        W86343   2.386  21.365  11.533
13919W        W86344   4.447   0.015  13.318
13920W        W86345  30.118  25.117   4.905
13921W        W86346  11.550  21.289   3.062
13922W        W86347  31.540   4.942   4.082
13923W        W86348   2.461  29.712  11.313
13924W        W86349  31.363  29.239   4.230
13925W        W86350   6.907  15.628   0.854
13926W        W86351  38.069  42.834  13.407
13927W        W86352  13.826  14.812   1.894
13928W        W86353  13.595  25.490  12.552
13929W        W86354  36.995  16.061   0.718
13930W        W86355  29.976  16.548   5.389
13931W        W86356  24.247  37.993   2.587
13932W        W86357  10.500   8.934  11.968
13933W        W86358  42.844  18.189  13.237
13934W        W86359  27.248  16.200  11.638
13935W        W86360  34.435   7.508  14.861
13936W        W86361  42.232   7.902   0.765
13937W        W86362   7.885  42.173   2.550
13938W        W86363  12.828   0.763   4.782
13939W        W86364  22.029   9.696  11.098
13940W        W86365  17.830  40.361  10.569
13941W        W86366  19.481  19.471  11.005
13942W        W86367  38.850  31.966   1.897
13943W        W86368  34.162  35.879   3.664
13944W        W86369  41.026  42.925   9.806
13945W        W86370   5.425  20.044  14.997
13946W        W86371  17.379   5.254  14.862
13947W        W86372  26.414   9.321  11.219
13948W        W86373  27.122  29.927   0.373
13949W        W86374  44.440   9.620   1.996
13950W        W86375  37.348  42.392   4.243
13951W        W86376  13.527  18.724   4.160
13952W        W86377  23.905  17.643   3.667
13953W        W86378   3.338  43.267   3.728
13954W        W86379  12.815   4.109   3.294
13955W        W86380  23.943  36.777  11.455
13956W        W86381   3.722  26.911  12.492
13957W        W86382   3.832  30.562  13.504
13958W        W86383   6.775  36.764   4.650
13959W        W86384  44.971  17.149   0.285
13960W        W86385  20.746  44.992   4.887
13961W        W86386  33.811  41.988  14.764
13962W        W86387  12.845  39.918   2.383
13963W        W86388  15.332   3.518   4.911
13964W        W86389  26.275  11.511  14.868
13965W        W86390  36.888  43.756  13.322
13966W        W86391  31.037   8.730  14.483
13967W        W86392  23.897  17.496   4.681
13968W        W86393  32.523  24.173  12.143
13969W        W86394   3.910  23.428   0.522
13970W        W86395  24.426  29.992   1.044
13971W        W86396  23.074  37.203   4.932
13972W        W86397  19.230  27.388  14.951
13973W        W86398  22.925   1.792   4.149
13974W        W86399  19.368  29.917   4.255
13975W        W86400  40.456  18.315   0.833
13976W        W86401  22.735  27.112   2.714
13977W        W86402   9.859  44.397   4.600
13978W        W86403  38.957  34.959  10.617
13979W        W86404   6.609  36.316   1.343
13980W        W86405  11.725  13.081  11.435
13981W        W86406  20.969  18.738  14.992
13982W        W86407  44.880  39.419   0.700
13983W        W86408  24.864  38.178   1.891
13984W        W86409  20.932  14.684   1.009
13985W        W86410  18.227  26.197   4.336
13986W        W86411  31.609  26.522  10.579
13987W        W86412  38.854  34.336   4.497
13988W        W86413   4.688   1.302  11.252
13989W        W86414  13.757   8.975  13.321
13990W        W86415  29.246  14.303   3.680
13991W        W86416  43.321  33.678   2.343
13992W        W86417  30.892  19.263   1.194
13993W        W86418   4.766  21.967  11.108
13994W        W86419  30.854   6.395  11.082
13995W        W86420  34.856   4.522  11.977
13996W        W86421  14.548  29.292  11.889
13997W        W86422  38.978  24.993  12.995
13998W        W86423  36.110  28.434   3.775
13999W        W86424  23.958  28.032  13.469
14000W        W86425  38.559  28.941  12.864
14001W        W86426  40.697  35.675   3.322
14002W        W86427  17.125  39.967  14.365
14003W        W86428  31.465  16.120   2.281
14004W        W86429   8.092  30.998   3.648
14005W        W86430   0.435  36.248   2.364
14006W        W86431  25.438   2.982   0.816
14007W        W86432  13.225  30.965   4.038
14008W        W86433  43.400  10.483  14.694
14009W        W86434  41.782  34.809  14.227
14010W        W86435  39.329  11.279   1.123
14011W        W86436  34.153  30.142   0.814
14012W        W86437  26.300  43.412  14.072
14013W        W86438   1.495   6.499  12.980
14014W        W86439  31.216   8.117  13.764
14015W        W86440   0.352   1.421   0.929
14016W        W86441  31.635   6.346   3.319
14017W        W86442  18.305  44.373  12.308
14018W        W86443  39.886   4.753   1.566
14019W        W86444   6.954   4.697   0.382
14020W        W86445  11.208  31.824   0.770
14021W        W86446  41.279  32.892   2.389
14022W        W86447  25.509  31.922  12.186
14023W        W86448  27.993  13.365   2.955
14024W        W86449  25.063  23.221   0.608
14025W        W86450  38.441  11.219   1.382
14026W        W86451   5.761  33.893  11.740
14027W        W86452  30.318  37.014  12.021
14028W        W86453  41.494  38.846   1.509
14029W        W86454  35.532  23.009   5.098
14030W        W86455  11.728   6.755   1.963
14031W        W86456  38.563   2.329  13.960
14032W        W86457  21.514  40.120   2.551
14033W        W86458  19.686  33.288   0.274
14034W        W86459  15.455   9.792   4.454
14035W        W86460  15.831  42.021   0.793
14036W        W86461  37.383  19.587   1.980
14037W        W86462  41.069  13.144  11.582
14038W        W86463  14.740  34.347  12.037
14039W        W86464   7.878  23.409  13.706
14040W        W86465  22.095  22.705   3.856
14041W        W86466  22.514  40.537   5.113
14042W        W86467  29.921  27.566   0.765
14043W        W86468  12.902  14.129  12.894
14044W        W86469  19.109  18.975   2.240
14045W        W86470  34.070  27.773   2.848
14046W        W86471  11.594   9.136   3.684
14047W        W86472  26.107  14.177   4.695
14048W        W86473  35.066  12.129  14.290
14049W        W86474  36.834  24.666  13.398
14050W        W86475  31.964   2.003   3.133
14051W        W86476  43.782  15.658   1.831
14052W        W86477  26.682  10.926   3.996
14053W        W86478  40.445   8.882   1.745
14054W        W86479  41.964  24.478   2.704
14055W        W86480  35.476  14.282  13.658
14056W        W86481  26.269  29.442  14.184
14057W        W86482  24.248  24.429  14.008
14058W        W86483  15.753  24.506  11.599
14059W        W86484  24.091   6.501   0.525
14060W        W86485   1.866  10.215   2.230
14061W        W86486  19.703  26.013  11.110
14062W        W86487  44.312   8.754   2.302
14063W        W86488  44.828  28.280   0.856
14064W        W86489   9.612  39.815  14.355
14065W        W86490  31.984  35.847  12.175
14066W        W86491  21.196  36.903   3.475
14067W        W86492  28.676  42.092   2.636
14068W        W86493   9.754  21.131  13.349
14069W        W86494  39.338   0.002   2.963
14070W        W86495   4.193  36.568   0.426
14071W        W86496  16.637  19.738   0.177
14072W        W86497   1.946  35.844  12.944
14073W        W86498  34.016  36.455  14.195
14074W        W86499  21.085  31.202  12.483
14075W        W86500  40.597   4.827  13.053
14076W        W86501  12.533  19.715  14.461
14077W        W86502   8.390  35.432   1.269
14078W        W86503  13.889  24.598  14.848
14079W        W86504  13.363  42.244  11.822
14080W        W86505  29.574  18.019   3.269
14081W        W86506  31.635  20.016   2.341
14082W        W86507  40.415  41.291  12.221
14083W        W86508  35.088  41.045  14.736
14084W        W86509   9.731   2.960   2.074
14085W        W86510   1.265  19.110  13.644
14086W        W86511  23.070   0.279  11.671
14087W        W86512  44.515  36.198   3.360
14088W        W86513  38.372  23.493  10.062
14089W        W86514   0.087   3.207  13.894
14090W        W86515  36.814  10.860  13.310
14091W        W86516  23.035  23.170   3.139
14092W        W86517  14.204  31.537   2.906
14093W        W86518  21.036  27.484   1.840
14094W        W86519  30.056  15.361   0.417
14095W        W86520  37.854  13.741   0.720
14096W        W86521  33.228  41.250  13.707
14097W        W86522  10.652  25.301   0.441
14098W        W86523  13.780  11.817   4.709
14099W        W86524   1.225  11.128  14.162
14100W        W86525  28.474   2.447   4.552
14101W        W86526   3.394  31.178   1.288
14102W        W86527  40.922  16.596  10.742
14103W        W86528  27.455   7.690  12.972
14104W        W86529   9.792  42.039   3.222
14105W        W86530  36.457  24.176  11.048
14106W        W86531   8.650   6.192   0.903
14107W        W86532  27.529  37.457  14.899
14108W        W86533  40.499  37.332   4.473
14109W        W86534   5.700  44.632   1.268
14110W        W86535  30.413  32.510  12.497
14111W        W86536   3.929   6.812   3.401
14112W        W86537  15.597   3.045  14.764
14113W        W86538  16.725   6.503  10.424
14114W        W86539   7.832  18.687  10.015
14115W        W86540  38.218   1.917   4.556
14116W        W86541  10.624   6.197   3.220
14117W        W86542   1.344  27.536   4.192
14118W        W86543  38.295  38.932   2.714
14119W        W86544  16.632   4.835  13.574
14120W        W86545  34.876  31.805  12.354
14121W        W86546   0.744  13.870   0.880
14122W        W86547  39.040  33.088   1.638
14123W        W86548   5.866  18.997   4.033
14124W        W86549  15.057  24.881   9.624
14125W        W86550   4.744  26.705  11.191
14126W        W86551  14.927   6.028   3.352
14127W        W86552  38.617   6.760  10.751
14128W        W86553   0.213  26.962  14.937
14129W        W86554  37.869  15.085   2.638
14130W        W86555  40.379  39.755   1.919
14131W        W86556  23.920  24.960   3.691
14132W        W86557  41.401  38.272  14.122
14133W        W86558  26.502   3.681  14.984
14134W        W86559  41.619  33.849  12.956
14135W        W86560  14.148  35.863  14.082
14136W        W86561  21.238  13.241   0.701
14137W        W86562   8.655   3.443   4.491
14138W        W86563  33.613  20.685   3.858
14139W        W86564  11.772   8.884  12.504
14140W        W86565  39.729  26.447   4.483
14141W        W86566  23.184  39.749   1.948
14142W        W86567  11.309  18.342   1.680
14143W        W86568  19.674  43.279  14.711
14144W        W86569  40.029  41.857  12.091
14145W        W86570  13.631   5.206  14.902
14146W        W86571  43.517  41.437  13.192
14147W        W86572   8.888  42.214   3.394
14148W        W86573  32.723  33.082  14.593
14149W        W86574  19.517   6.668   4.715
14150W        W86575  12.425  14.648  13.596
14151W        W86576  22.923   8.598  14.516
14152W        W86577   1.777  40.156  13.301
14153W        W86578  11.234   9.306  14.035
14154W        W86579  34.907  31.903  13.701
14155W        W86580  23.661  42.472   2.250
14156W        W86581   2.033  26.536   4.574
14157W        W86582   5.989  43.896   3.816
14158W        W86583  37.412   2.416   0.012
14159W        W86584  36.537   0.292   1.692
14160W        W86585  12.867  31.563   1.220
14161W        W86586  43.184  35.057  12.508
14162W        W86587   2.686  14.958   5.035
14163W        W86588  40.062   1.809  13.927
14164W        W86589  44.457   0.928  11.206
14165W        W86590   5.785  19.987  14.625
14166W        W86591  40.528  25.363  12.401
14167W        W86592   5.712   0.565   1.703
14168W        W86593  23.562  26.244   3.737
14169W        W86594   4.297   2.263  13.080
14170W        W86595  43.280   4.801  14.963
14171W        W86596  34.849   7.156   2.652
14172W        W86597  21.624  32.078  12.107
14173W        W86598  21.986  31.193   0.813
14174W        W86599  12.336  30.083  10.618
14175W        W86600  23.821  40.992   3.196
14176W        W86601   0.715  26.973  12.901
14177W        W86602  34.673  29.916   4.598
14178W        W86603  18.267   9.248  12.465
14179W        W86604  23.697   5.697   2.235
14180W        W86605  36.612  41.778   0.927
14181W        W86606  30.125  32.289   3.650
14182W        W86607  41.739  13.010   1.640
14183W        W86608  20.066  32.509   3.186
14184W        W86609  18.465  20.660  10.659
14185W        W86610   3.787  42.998   4.491
14186W        W86611  42.277   6.920  14.923
14187W        W86612  39.384  40.449   1.268
14188W        W86613  17.059  40.259  14.802
14189W        W86614  34.001  24.092  14.268
14190W        W86615  19.031   2.422   2.732
14191W        W86616  19.492  26.903  14.190
14192W        W86617  11.381   0.016   4.166
14193W        W86618   1.433  41.825   0.642
14194W        W86619  22.826   9.301  13.059
14195W        W86620   0.868  22.408   0.639
14196W        W86621  29.628  35.110  14.310
14197W        W86622  19.483  43.400   4.752
14198W        W86623   4.238   6.684   4.709
14199W        W86624  34.208  23.335  10.332
14200W        W86625  35.480  43.555  13.393
14201W        W86626  17.757  29.962  11.690
14202W        W86627  15.684   6.328  14.410
14203W        W86628  16.215   4.466   3.647
14204W        W86629  25.501  29.658   3.878
14205W        W86630  42.286  25.932   4.354
14206W        W86631  21.490  10.579   5.048
14207W        W86632  31.160  36.470   2.196
14208W        W86633  42.973  14.117  14.464
14209W        W86634  35.153  26.757   2.833
14210W        W86635  21.619  10.882  14.329
14211W        W86636  34.066  12.843  12.348
14212W        W86637  29.127  18.992  12.207
14213W        W86638   2.892  18.325   1.282
14214W        W86639  20.624   0.394   4.481
14215W        W86640  36.953  38.105   0.776
14216W        W86641  41.287  19.797  11.647
14217W        W86642  11.568  28.892   2.810
14218W        W86643  24.324  40.078   3.384
14219W        W86644   1.433  21.362  11.549
14220W        W86645  25.652  19.532  13.507
14221W        W86646  25.086  38.877   0.431
14222W        W86647  33.126  25.219   0.404
14223W        W86648  32.750  16.240   0.651
14224W        W86649  27.164  41.691  14.351
14225W        W86650  13.783  19.812  11.697
14226W        W86651  38.293  22.254   3.720
14227W        W86652   2.572   7.247   2.901
14228W        W86653   6.274  41.090   2.773
14229W        W86654  17.285  33.021   4.353
14230W        W86655  26.252  15.753   1.161
14231W        W86656  12.715   9.237  14.141
14232W        W86657  42.775   7.828   0.690
14233W        W86658  37.294  16.862  13.846
14234W        W86659   2.839  39.952   1.846
14235W        W86660  24.504  20.748  10.685
14236W        W86661  15.017  25.783   4.663
14237W        W86662  18.030  31.995   0.964
14238W        W86663   8.393  37.076   0.459
14239W        W86664  34.593  14.172   3.553
14240W        W86665  23.034  20.016  10.760
14241W        W86666  24.293  27.004  12.495
14242W        W86667  19.030  21.770  11.553
14243W        W86668   1.403  44.137  11.277
14244W        W86669   4.881  38.790   1.851
14245W        W86670  14.884  25.055   1.521
14246W        W86671   2.248   1.836  13.513
14247W        W86672   9.842  26.285  14.620
14248W        W86673  41.132  23.249   4.604
14249W        W86674  15.451  35.170  13.503
14250W        W86675  42.908  26.522   2.255
14251W        W86676  19.392   1.733  14.652
14252W        W86677  15.697  29.074   2.311
14253W        W86678  19.264  37.088  12.091
14254W        W86679  35.049  19.186  11.558
14255W        W86680   3.705  34.789  12.352
14256W        W86681  23.957  19.746   5.114
14257W        W86682  24.722  15.535   3.549
14258W        W86683  38.553  24.698  12.946
14259W        W86684  38.977  24.040  11.597
14260W        W86685  17.234  35.950   1.838
14261W        W86686  19.128  31.008   3.603
14262W        W86687   3.323  31.841  11.206
14263W        W86688   3.279  19.720   4.192
14264W        W86689  16.285  25.331   3.747
14265W        W86690  40.330  28.105   5.295
14266W        W86691   8.084  13.330  14.244
14267W        W86692   9.377  14.637   4.617
14268W        W86693  23.859  38.919  13.366
14269W        W86694  24.815  44.345  12.340
14270W        W86695   5.381  11.551  14.312
14271W        W86696  18.605  13.956   5.008
14272W        W86697  16.801   5.432   0.359
14273W        W86698   8.766   7.275  10.693
14274W        W86699  18.695  14.210   1.291
14275W        W86700  44.193  28.446   3.816
14276W        W86701  36.090  32.660   3.349
14277W        W86702  20.004   6.842  14.775
14278W        W86703  39.675  25.761  12.875
14279W        W86704  21.674  10.184  10.740
14280W        W86705   2.653  37.854   2.211
14281W        W86706  35.622  30.841   0.170
14282W        W86707  43.529  38.503   4.598
14283W        W86708   8.338   7.556   2.774
14284W        W86709  30.587  40.041   3.470
14285W        W86710  21.798  34.921   2.967
14286W        W86711   5.680   6.512  14.769
14287W        W86712  24.141  36.800   0.195
14288W        W86713  20.527  37.772  11.066
14289W        W86714  30.728  39.379  14.107
14290W        W86715  13.235  22.793   0.809
14291W        W86716  39.029  15.304   4.512
14292W        W86717  11.830  13.640  14.371
14293W        W86718  43.897   9.906  13.432
14294W        W86719  23.781   4.931   4.640
14295W        W86720  42.895  34.092  13.317
14296W        W86721  24.772  18.691   3.361
14297W        W86722  23.645  18.165  14.454
14298W        W86723  28.685   6.816   0.365
14299W        W86724  39.371  28.279   0.248
14300W        W86725  22.766   4.257  13.042
14301W        W86726  28.637  25.257   0.813
14302W        W86727  43.894  43.964   2.871
14303W        W86728  37.900  11.777   2.717
14304W        W86729  23.731   1.380  11.564
14305W        W86730  10.287  18.105   2.646
14306W        W86731  24.880   6.366   1.703
14307W        W86732   8.002   4.712  10.957
14308W        W86733  33.439   0.386  14.341
14309W        W86734  36.210  29.840  12.115
14310W        W86735  35.147  15.837   5.180
14311W        W86736  19.641  20.792   4.652
14312W        W86737  20.769  40.189   2.820
14313W        W86738  39.434  23.643  12.919
14314W        W86739   8.992  19.524   4.352
14315W        W86740  21.724  12.762  14.926
14316W        W86741  21.799  41.472  14.514
14317W        W86742  14.870   6.688  13.741
14318W        W86743  18.605  24.738  14.584
14319W        W86744  22.149  26.706   2.171
14320W        W86745   5.395  14.520  14.928
14321W        W86746  20.215  28.078  12.806
14322W        W86747   4.638  39.320  14.410
14323W        W86748  18.634   2.461  11.113
14324W        W86749  44.284  26.056   5.197
14325W        W86750  14.663  34.628  13.350
14326W        W86751  41.799  15.260  14.218
14327W        W86752   0.079   2.642  12.998
14328W        W86753  30.104  32.535   3.175
14329W        W86754  11.360  36.546  11.158
14330W        W86755  44.081   2.425   0.751
14331W        W86756  16.063  41.971  13.675
14332W        W86757  17.210  34.377  13.133
14333W        W86758  16.860   5.780  14.330
14334W        W86759  43.930  16.663  11.430
14335W        W86760   8.803   0.868   2.449
14336W        W86761  14.623  42.041   3.763
14337W        W86762   6.705  22.137  12.094
14338W        W86763  19.538  13.708   4.430
14339W        W86764  29.586  16.553  10.445
14340W        W86765   7.465  44.336  14.674
14341W        W86766   6.255  38.989  13.899
14342W        W86767  38.084  18.082  13.787
14343W        W86768   3.767  13.569  12.441
14344W        W86769  37.469  21.974  14.697
14345W        W86770   7.326   6.260  11.142
14346W        W86771  16.815  29.544  12.615
14347W        W86772  22.797  10.220   1.595
14348W        W86773  38.784  12.902  14.232
14349W        W86774  11.749  33.897  13.001
14350W        W86775  43.876  26.921   2.268
14351W        W86776  42.783  14.558   3.314
14352W        W86777   6.720  22.470   2.211
14353W        W86778  16.241   8.575  12.936
14354W        W86779   5.360  10.191  12.479
14355W        W86780  30.365   1.845  14.374
14356W        W86781   5.475  40.006   3.112
14357W        W86782  19.477  36.961  13.520
14358W        W86783  43.905   2.311   4.797
14359W        W86784  32.480  27.567   1.390
14360W        W86785  24.404  42.184   1.749
14361W        W86786   3.694  38.081  11.606
14362W        W86787  31.625  28.992  13.392
14363W        W86788  30.694  39.892   1.225
14364W        W86789  41.353  23.636   2.857
14365W        W86790  32.670  12.642   4.763
14366W        W86791  40.554  28.639   1.595
14367W        W86792   4.719  21.296   3.231
14368W        W86793  16.001  26.950   2.355
14369W        W86794   4.427  16.028  14.805
14370W        W86795   4.277  39.544   4.478
14371W        W86796  32.563  14.103   0.350
14372W        W86797  40.371  36.222   1.986
14373W        W86798  33.688  18.942   1.263
14374W        W86799  29.686   5.470  11.166
14375W        W86800  14.649   6.756   1.668
14376W        W86801  33.622  32.669  13.322
14377W        W86802  16.162  33.397   3.428
14378W        W86803  12.568  44.497   3.863
14379W        W86804   7.699  38.386   3.952
14380W        W86805  12.857  41.955   0.265
14381W        W86806   8.495  26.382   1.543
14382W        W86807  14.175  28.116   1.798
14383W        W86808  39.460  27.068   4.433
14384W        W86809   3.325  31.314  11.330
14385W        W86810  41.832  33.032  14.463
14386W        W86811   3.673  35.202   3.213
14387W        W86812  20.480  26.995  11.895
14388W        W86813   8.230  28.863  14.188
14389W        W86814   3.844  21.053  11.545
14390W        W86815  31.408  11.627   2.178
14391W        W86816  36.077  14.227  11.934
14392W        W86817  13.976  25.892  12.445
14393W        W86818  19.161  12.494  12.746
14394W        W86819  32.833  12.174   4.583
14395W        W86820  37.647  10.734   0.389
14396W        W86821   1.161  32.951   3.179
14397W        W86822  15.889  10.697  11.483
14398W        W86823  28.524  39.033   4.110
14399W        W86824  38.081  28.722  12.857
14400W        W86825  16.864  29.041  12.540
14401W        W86826  33.903  42.561  13.872
14402W        W86827  39.000   6.325  12.940
14403W        W86828  37.360  37.426   5.122
14404W        W86829  24.981  38.623   2.791
14405W        W86830  15.321  19.836   3.689
14406W        W86831  38.867   2.679   2.211
14407W        W86832  12.311  27.486   4.471
14408W        W86833   6.000  21.932  12.846
14409W        W86834  12.827  19.078  14.913
14410W        W86835  44.423  13.785  10.704
14411W        W86836  16.740  43.000   1.337
14412W        W86837   9.342   1.306   3.385
14413W        W86838   2.220  10.636   1.851
14414W        W86839  21.318  12.645  13.331
14415W        W86840   1.948   7.375   2.086
14416W        W86841  30.054  28.502  11.385
14417W        W86842  43.493   1.216  12.462
14418W        W86843  44.405  19.546  12.492
14419W        W86844  20.141   9.779   4.333
14420W        W86845  39.204   6.165  10.752
14421W        W86846  25.590  21.238   1.798
14422W        W86847   4.412   6.242   1.131
14423W        W86848  30.940  27.559  10.616
14424W        W86849  35.974  38.022  10.736
14425W        W86850  41.516   3.202  11.165
14426W        W86851  44.907  42.368  13.597
14427W        W86852  41.291   2.048   3.832
14428W        W86853  26.267  23.709   3.760
14429W        W86854  20.102  24.908   1.834
14430W        W86855  33.636  20.666  13.367
14431W        W86856  39.329  27.483  13.599
14432W        W86857  14.242   9.194   2.453
14433W        W86858   5.372  35.821   2.486
14434W        W86859  42.769  40.323   1.928
14435W        W86860  10.292  14.570  14.312
14436W        W86861  11.429  34.765   4.106
14437W        W86862  38.870  44.324   0.932
14438W        W86863  44.056  25.086  11.008
14439W        W86864  32.223   3.861  13.448
14440W        W86865  22.283  40.985   3.347
14441W        W86866  43.488  31.537  12.932
14442W        W86867  28.589   9.856  11.485
14443W        W86868  43.481  22.231   3.586
14444W        W86869  18.256   2.156  11.905
14445W        W86870  43.313  21.033   1.551
14446W        W86871  19.692  14.921  11.871
14447W        W86872  25.794  27.346   2.688
14448W        W86873  13.837   3.284   1.459
14449W        W86874  11.440  15.497   2.742
14450W        W86875   8.819  20.824  13.894
14451W        W86876   3.842  37.599   4.944
14452W        W86877  10.608   2.159  14.321
14453W        W86878  21.918   5.419   1.833
14454W        W86879  23.546  44.867  13.789
14455W        W86880   9.832  12.182  14.189
14456W        W86881  17.204  36.024  13.590
14457W        W86882   8.371  40.261   4.778
14458W        W86883   3.987  23.138  14.612
14459W        W86884  39.490  11.474   2.686
14460W        W86885   4.842  15.024   1.831
14461W        W86886  19.716   7.365   4.241
14462W        W86887  20.129  12.212   2.756
14463W        W86888  41.014  23.453  12.093
14464W        W86889  28.495  22.181   0.426
14465W        W86890  33.324  10.778   1.734
14466W        W86891  26.726   2.797  13.380
14467W        W86892  28.999  26.192  13.572
14468W        W86893  29.099  16.660  13.852
14469W        W86894  38.734  34.869   2.647
14470W        W86895  31.341   2.647  13.061
14471W        W86896   7.188  25.539   2.939
14472W        W86897  19.860  17.627  14.562
14473W        W86898  31.603  30.515   4.660
14474W        W86899   9.366  26.150   4.891
14475W        W86900  37.442  26.301   4.465
14476W        W86901   7.704  29.436   3.943
14477W        W86902  24.951  33.988   1.335
14478W        W86903   4.684   2.003   4.599
14479W        W86904   2.275   3.868   0.937
14480W        W86905  20.651  32.668   3.830
14481W        W86906  32.436  22.218  14.462
14482W        W86907  26.016  21.282  11.601
14483W        W86908  25.768   2.268   4.554
14484W        W86909  37.215  42.077  11.045
14485W        W86910  20.764   4.742   0.683
14486W        W86911  17.460  18.575  12.515
14487W        W86912   9.157   3.759  12.868
14488W        W86913  38.151  28.635   0.321
14489W        W86914  43.040  12.104   3.291
14490W        W86915  17.118  25.128   0.923
14491W        W86916  27.572  14.370   0.242
14492W        W86917  28.617  12.752   0.834
14493W        W86918  14.370  11.661  13.985
14494W        W86919  44.364  39.620  10.056
14495W        W86920  11.079   8.195  10.549
14496W        W86921  25.704  39.320   4.359
14497W        W86922  40.018  44.466   3.390
14498W        W86923  10.704  13.040   0.357
14499W        W86924  27.538  30.403  11.467
14500W        W86925   8.049   8.830  14.455
14501W        W86926  44.931  14.094   0.218
14502W        W86927   8.670  43.585  12.901
14503W        W86928   8.012   5.744   3.581
14504W        W86929  15.073  38.309  12.969
14505W        W86930  29.370  15.260  14.882
14506W        W86931  44.159  17.608  14.901
14507W        W86932   8.855  11.593   3.645
14508W        W86933  16.424  39.629   0.723
14509W        W86934  29.744  39.517  13.145
14510W        W86935  25.506   0.155   4.317
14511W        W86936  29.924  25.241   2.588
14512W        W86937  15.347  40.294  10.453
14513W        W86938   4.849   5.050  13.037
14514W        W86939  42.074  12.194  14.844
14515W        W86940  18.689  44.899   2.274
14516W        W86941   0.405   1.682   1.371
14517W        W86942   1.379   1.386  14.883
14518W        W86943   4.679  28.179  14.634
14519W        W86944  18.943  34.567  11.958
14520W        W86945  41.292  31.694  11.908
14521W        W86946  29.102  24.009   2.928
14522W        W86947  26.988   5.924  12.504
14523W        W86948   3.359  38.433  14.501
14524W        W86949  12.173  18.352   3.675
14525W        W86950  44.531  33.119  13.401
14526W        W86951  18.598  16.287  10.915
14527W        W86952  39.811  44.487  10.221
14528W        W86953   8.573   5.095   4.171
14529W        W86954  11.586  13.827  13.916
14530W        W86955  28.057  18.056  13.379
14531W        W86956  30.189  44.720  13.497
14532W        W86957   5.807   8.737  14.991
14533W        W86958  11.070  30.813   0.130
14534W        W86959  14.039  43.580   0.245
14535W        W86960  37.957  29.444  14.390
14536W        W86961   0.351  42.704   2.182
14537W        W86962  42.893  20.437  11.037
14538W        W86963  17.340   4.597   4.282
14539W        W86964  18.304  18.942  11.307
14540W        W86965  39.615  44.679  14.855
14541W        W86966  25.510  20.911   2.204
14542W        W86967  32.169   0.238   3.730
14543W        W86968   0.332  36.373  10.793
14544W        W86969  31.975  37.269  12.573
14545W        W86970  26.035  43.961  14.807
14546W        W86971  23.652   5.005   3.769
14547W        W86972  22.116   3.201  13.343
14548W        W86973  23.189  44.389  13.029
14549W        W86974  24.680  39.786   1.668
14550W        W86975  38.535  31.003   1.264
14551W        W86976   6.286  27.004  14.866
14552W        W86977   4.114  30.958   0.384
14553W        W86978  20.247   5.857   2.839
14554W        W86979  35.877   5.982   4.558
14555W        W86980   0.223  12.864   4.440
14556W        W86981   4.696  36.760  13.393
14557W        W86982  29.529  28.068   1.312
14558W        W86983   5.336  28.173   1.278
14559W        W86984   1.522  25.789   4.000
14560W        W86985   1.214   0.958   2.260
14561W        W86986   0.102  39.966  14.322
14562W        W86987  43.989  34.848  14.888
14563W        W86988  16.266  41.668   1.334
14564W        W86989  44.957   3.914   0.356
14565W        W86990  25.368  24.177  10.649
14566W        W86991  33.081  22.746   2.185
14567W        W86992  43.178  41.440   0.228
14568W        W86993  10.637  20.936  12.716
14569W        W86994  16.522   4.230   0.361
14570W        W86995   6.311  16.508   1.290
14571W        W86996   1.692  27.598  10.954
14572W        W86997  14.340  32.479  10.770
14573W        W86998  39.325   8.975  10.955
14574W        W86999   3.488  11.770  11.403
14575W        W87000  29.396  37.059   0.691
14576W        W87001  22.182  21.662  12.992
14577W        W87002   4.363  38.429  13.567
14578W        W87003  29.859  30.122  10.719
14579W        W87004   8.146  10.271  11.136
14580W        W87005   6.478  42.474  12.893
14581W        W87006  44.097  21.567   3.814
14582W        W87007   2.235  18.684   4.128
14583W        W87008  33.132  35.169   2.240
14584W        W87009  43.760  33.295  14.785
14585W        W87010  33.794  28.516   3.621
14586W        W87011  15.294  27.933   0.331
14587W        W87012  38.050  24.677   5.090
14588W        W87013  11.727  40.574  14.398
14589W        W87014  18.221  36.313   3.205
14590W        W87015  10.335  41.046   3.810
14591W        W87016  25.717  25.904  11.140
14592W        W87017  23.650   1.020   2.307
14593W        W87018  24.875  34.644   4.041
14594W        W87019  15.595  33.490   4.713
14595W        W87020  23.489   9.306   2.495
14596W        W87021  42.665  43.356   0.539
14597W        W87022  35.183  18.281   2.223
14598W        W87023  34.962  29.138  11.172
14599W        W87024   9.813   4.015  11.216
14600W        W87025  43.628  20.393   3.366
14601W        W87026   9.295  10.453  13.913
14602W        W87027   9.439  41.333   1.351
14603W        W87028  29.669  16.719   1.674
14604W        W87029  30.557  43.005  13.955
14605W        W87030  20.988  21.687  14.357
14606W        W87031  12.952  21.700  13.414
14607W        W87032  37.089  12.210  12.101
14608W        W87033  35.054  29.543   1.417
14609W        W87034   8.852  16.067   1.725
14610W        W87035  14.995  42.401   3.809
14611W        W87036  27.950   3.736   2.730
14612W        W87037   7.549  20.495  10.694
14613W        W87038  40.474  36.819  12.045
14614W        W87039  19.572  30.043  11.109
14615W        W87040   4.524  43.474   1.735
14616W        W87041  37.844  13.681  12.839
14617W        W87042   3.247  23.086  12.388
14618W        W87043  32.628  32.611  14.858
14619W        W87044  38.965  11.767   0.858
14620W        W87045  29.261  19.661   3.213
14621W        W87046  30.636  28.075  13.147
14622W        W87047   5.383  38.296  11.214
14623W        W87048   7.631  36.115   0.910
14624W        W87049  15.086  24.119  13.861
14625W        W87050   0.952  29.187   0.960
14626W        W87051   8.649  23.033   2.293
14627W        W87052   8.163  22.664   1.904
14628W        W87053  21.018  14.634   0.512
14629W        W87054  21.135   9.145  11.109
14630W        W87055  11.576  13.278   1.879
14631W        W87056  17.141   8.683  10.385
14632W        W87057  22.336  33.064   3.882
14633W        W87058  19.627  33.487  10.629
14634W        W87059  30.727   4.264   3.821
14635W        W87060  25.637  28.492   3.785
14636W        W87061  19.104  16.508   3.697
14637W        W87062  22.944  13.572  11.622
14638W        W87063  30.655  35.310  12.227
14639W        W87064  32.010  13.141  10.961
14640W        W87065  34.603   6.228  11.159
14641W        W87066  12.251   2.498   4.368
14642W        W87067  30.133  43.549   2.702
14643W        W87068   2.820  35.524   0.331
14644W        W87069  44.861  15.138   1.949
14645W        W87070  36.423  39.228   4.189
14646W        W87071  16.275   1.489  14.425
14647W        W87072  26.242  31.490  10.633
14648W        W87073  12.263  34.147  12.409
14649W        W87074  38.576  43.331   1.586
14650W        W87075  27.745  22.116  14.345
14651W        W87076  35.957   8.359  13.078
14652W        W87077  13.720  25.402   0.201
14653W        W87078  11.837  11.699   0.957
14654W        W87079   4.270   3.808  13.492
14655W        W87080  23.121  28.774   0.366
14656W        W87081  23.963  40.058   1.020
14657W        W87082  26.443   9.734  14.426
14658W        W87083  39.395  22.912   4.449
14659W        W87084  10.899  23.212   1.752
14660W        W87085   1.266   6.156   2.300
14661W        W87086  15.188   9.987  12.783
14662W        W87087   8.425  22.264  13.462
14663W        W87088  19.078  23.546   3.280
14664W        W87089  24.286  10.656  11.135
14665W        W87090  24.744  36.070  11.186
14666W        W87091  41.791   0.272  10.771
14667W        W87092  43.849  15.380  13.818
14668W        W87093  25.108  24.865   1.527
14669W        W87094  24.493  38.464  11.681
14670W        W87095   4.007   5.923   1.797
14671W        W87096  33.052  31.407   0.888
14672W        W87097  17.103  31.847   1.836
14673W        W87098  27.512   0.680   2.381
14674W        W87099  40.452  18.959  12.072
14675W        W87100  40.917  38.295  10.723
14676W        W87101  33.897  12.820   4.116
14677W        W87102  42.558  26.790   2.571
14678W        W87103  17.074  37.828  12.631
14679W        W87104   1.279  25.381  11.162
14680W        W87105  39.532  39.936  10.539
14681W        W87106  15.158  25.347   1.217
14682W        W87107  30.643   8.927  13.823
14683W        W87108  28.918  15.767  10.766
14684W        W87109  15.078  21.260   3.347
14685W        W87110  42.568   0.007   1.948
14686W        W87111  27.439  12.860   3.505
14687W        W87112  35.151  16.580  11.637
14688W        W87113  44.783  41.209   0.546
14689W        W87114   7.379  40.551  14.425
14690W        W87115  40.385  42.726  10.678
14691W        W87116   8.825  26.474  14.243
14692W        W87117  43.511  17.249  11.166
14693W        W87118  34.524  38.778   2.259
14694W        W87119  32.930  32.547   4.099
14695W        W87120  23.623   0.818  14.763
14696W        W87121   3.695  32.519   2.121
14697W        W87122  37.995  22.550   3.053
14698W        W87123   2.446  17.806   4.240
14699W        W87124   8.707  24.965   3.390
14700W        W87125  12.095  32.841   0.225
14701W        W87126  43.458   5.268   4.057
14702W        W87127  35.580  42.457  14.764
14703W        W87128  32.383  40.172  12.708
14704W        W87129   7.776  16.279  13.694
14705W        W87130  44.419  18.166  14.237
14706W        W87131  19.723  31.984   1.315
14707W        W87132   3.887  39.956  11.394
14708W        W87133  24.256  30.261  10.280
14709W        W87134   6.189   8.452   1.373
14710W        W87135  12.287  39.227   4.517
14711W        W87136  39.212  40.812   4.409
14712W        W87137  33.675   4.127   4.292
14713W        W87138   3.742  28.946   0.259
14714W        W87139  22.469  20.791   1.439
14715W        W87140  40.437  16.252   4.979
14716W        W87141   7.613  33.059   4.719
14717W        W87142  40.765   2.873   4.394
14718W        W87143  34.938  17.462   1.901
14719W        W87144  14.582  13.365   0.724
14720W        W87145  43.963  38.309  11.933
14721W        W87146   7.757   3.869   3.365
14722W        W87147  19.298  34.448  10.676
14723W        W87148  30.165  14.849   2.913
14724W        W87149   0.799  14.539  12.511
14725W        W87150  22.282   4.354  14.282
14726W        W87151  40.558  42.921  11.146
14727W        W87152  16.998  10.828  11.188
14728W        W87153   1.894  22.502   1.180
14729W        W87154  29.194  43.691   0.730
14730W        W87155  17.088  29.964  10.484
14731W        W87156  43.454   5.085  14.138
14732W        W87157   2.448  13.497   3.244
14733W        W87158  16.849  24.268  11.058
14734W        W87159  30.580  23.674  11.244
14735W        W87160   7.923  43.411   3.246
14736W        W87161  34.610  32.166   0.021
14737W        W87162  23.931  39.392   3.268
14738W        W87163  29.563  10.383  13.279
14739W        W87164  35.030  31.325  10.967
14740W        W87165   6.220  18.215  14.550
14741W        W87166   4.204  43.723   2.779
14742W        W87167  13.427  35.028  14.861
14743W        W87168  41.327  27.059   1.446
14744W        W87169  21.807  33.378  11.590
14745W        W87170   2.524   0.314   1.362
14746W        W87171  25.940  34.351  14.812
14747W        W87172  18.481   1.538   1.371
14748W        W87173  29.232   4.157  12.975
14749W        W87174  44.501  36.990   3.765
14750W        W87175  34.631  25.955  11.333
14751W        W87176   8.862  11.297   4.176
14752W        W87177  32.342  20.792   1.655
14753W        W87178  15.040   1.937   3.928
14754W        W87179  22.290  25.990  10.764
14755W        W87180  18.829  42.297  11.948
14756W        W87181  32.328  30.398  14.550
14757W        W87182  41.382  15.088  11.603
14758W        W87183  34.778   4.676   4.519
14759W        W87184  34.801  11.606   2.738
14760W        W87185  44.728  30.854  14.078
14761W        W87186  38.839  29.446  13.403
14762W        W87187   1.938  34.866  12.128
14763W        W87188  25.192  37.764   2.309
14764W        W87189  39.448  19.352   4.342
14765W        W87190   3.875  38.691   3.373
14766W        W87191   5.780  12.858   1.579
14767W        W87192  43.522  17.030   2.882
14768W        W87193  15.133  43.536   1.958
14769W        W87194  10.781  34.162  14.907
14770W        W87195  26.081   3.924  13.789
14771W        W87196   5.467  44.968   1.952
14772W        W87197  28.636   2.275   1.281
14773W        W87198  41.073  10.209  14.615
14774W        W87199  11.152  25.497   4.166
14775W        W87200  10.649  23.512  13.381
14776W        W87201  26.447  33.138  14.884
14777W        W87202  13.241  15.418  11.001
14778W        W87203  33.715  25.106   2.493
14779W        W87204  34.161  10.726   2.160
14780W        W87205   4.798  12.813   3.772
14781W        W87206  30.101   7.244   1.194
14782W        W87207  43.859   0.246   1.383
14783W        W87208  37.393   3.296  11.670
14784W        W87209   8.315  30.332   1.705
14785W        W87210  42.153  41.242  13.329
14786W        W87211  38.013   8.361   2.682
14787W        W87212  11.916   9.786  12.546
14788W        W87213  22.896  21.036  14.192
14789W        W87214   2.275   3.887   2.283
14790W        W87215  40.966  36.933  10.560
14791W        W87216  25.593  40.217   1.427
14792W        W87217  28.721  44.759  11.245
14793W        W87218  12.027  29.480   0.644
14794W        W87219  13.864  28.967   0.837
14795W        W87220   2.534  31.530   3.627
14796W        W87221  21.668  42.949   0.488
14797W        W87222   0.170  28.105  13.378
14798W        W87223   3.286   4.529  11.951
14799W        W87224  11.705  38.815  12.449
14800W        W87225   3.788  29.373  10.161
14801W        W87226   1.939  41.200   1.187
14802W        W87227   7.224  17.740   0.306
14803W        W87228  13.251  19.409  14.751
14804W        W87229  14.842  41.435   3.157
14805W        W87230  26.728  24.294  13.862
14806W        W87231   1.392  32.480  14.983
14807W        W87232  37.958  36.104   5.177
14808W        W87233  35.381  31.019   3.728
14809W        W87234   9.722   6.705  11.174
14810W        W87235  27.092  43.302   3.665
14811W        W87236  20.769  42.689  12.683
14812W        W87237  16.915  37.086  11.686
14813W        W87238  24.254   4.740   4.505
14814W        W87239  37.362  20.248   1.868
14815W        W87240  38.631  16.768   1.431
14816W        W87241  39.757  33.951  13.496
14817W        W87242  29.323   1.013   2.836
14818W        W87243  39.522  31.002  10.993
14819W        W87244   1.219  22.906  12.510
14820W        W87245   5.968  44.191  13.899
14821W        W87246  30.929  18.656  14.804
14822W        W87247   1.632  15.325   1.140
14823W        W87248  16.849  26.065  13.410
14824W        W87249  24.240  21.248   1.156
14825W        W87250  20.747  20.497   0.004
14826W        W87251   8.381  11.760  12.116
14827W        W87252  32.494  17.235  14.442
14828W        W87253   2.778  12.262  14.475
14829W        W87254  31.175  12.539  12.891
14830W        W87255  41.758  20.786  11.576
14831W        W87256  22.229  34.625   1.762
14832W        W87257  37.285  36.068  11.845
14833W        W87258   0.310  24.974  10.755
14834W        W87259   4.203  44.358  12.020
14835W        W87260  24.601  36.876  10.738
14836W        W87261  31.684  38.329  13.451
14837W        W87262   8.721  32.052   4.301
14838W        W87263  21.258  41.580  11.985
14839W        W87264  17.701  29.706   1.471
14840W        W87265  24.623  15.209   4.346
14841W        W87266  28.636  37.711  12.993
14842W        W87267  36.124  20.759   1.915
14843W        W87268   2.211  39.904  12.094
14844W        W87269  16.081  38.454  11.958
14845W        W87270  44.455   2.360   4.169
14846W        W87271   7.840   1.811  14.408
14847W        W87272  23.940  26.665  12.652
14848W        W87273  36.256  41.394   0.329
14849W        W87274  13.225  21.137   4.623
14850W        W87275  32.584  16.641  10.181
14851W        W87276  31.878  12.807   1.463
14852W        W87277  36.460  31.616   4.850
14853W        W87278  34.003  19.274   4.274
14854W        W87279  35.390  26.910   3.317
14855W        W87280  23.693   8.941   2.814
14856W        W87281  16.478   0.147   0.320
14857W        W87282  12.897  40.112  11.902
14858W        W87283  22.727   2.711  12.939
14859W        W87284  26.562  34.187  13.704
14860W        W87285  21.119  34.014   4.824
14861W        W87286  36.283  15.530   1.032
14862W        W87287  36.538  22.254   3.719
14863W        W87288   5.183  37.573   4.099
14864W        W87289  20.120  10.448  11.032
14865W        W87290  20.816   7.198  10.393
14866W        W87291   8.862  27.982   3.711
14867W        W87292   2.346  18.979  12.994
14868W        W87293   4.970  17.191   2.438
14869W        W87294  32.090  20.091  10.577
14870W        W87295  11.671   2.474  11.937
14871W        W87296  11.853  17.620  14.516
14872W        W87297  39.976  20.523   4.585
14873W        W87298  34.959  17.509   4.627
14874W        W87299  44.870  23.134  11.925
14875W        W87300  27.878  38.377  14.500
14876W        W87301  35.325  12.817  14.801
14877W        W87302  42.525  27.914  10.404
14878W        W87303  29.435  15.335   4.403
14879W        W87304  27.519  26.218  10.847
14880W        W87305  36.352  17.167  10.622
14881W        W87306  10.663  20.999  13.524
14882W        W87307  18.808  21.238  14.731
14883W        W87308  36.571  22.614  14.709
14884W        W87309  44.423  43.355  13.911
14885W        W87310  22.393  35.795   4.959
14886W        W87311  10.907  29.424  12.979
14887W        W87312  14.592   7.876  10.628
14888W        W87313  39.335  35.626   0.761
14889W        W87314  40.143  10.356   4.178
14890W        W87315  26.040   5.992  11.867
14891W        W87316  33.051  21.659  11.419
14892W        W87317   4.484  30.109  10.470
14893W        W87318   4.418  27.879   1.836
14894W        W87319  32.465   5.260   3.814
14895W        W87320  31.321   8.611   0.493
14896W        W87321  11.569  23.284  10.206
14897W        W87322  33.037  22.083  13.620
14898W        W87323  14.682  29.216  11.200
14899W        W87324  19.136  36.524  10.961
14900W        W87325  19.232  26.118  11.367
14901W        W87326  15.084   9.803   4.838
14902W        W87327  32.319  38.116   2.311
14903W        W87328  44.881   1.209  11.179
14904W        W87329  29.005   6.857  11.671
14905W        W87330   1.789  39.101   3.713
14906W        W87331  12.703  29.017   1.419
14907W        W87332  40.813  18.477  12.409
14908W        W87333   3.384  25.186   4.173
14909W        W87334  34.459  36.297   1.950
14910W        W87335   4.705  25.032   4.625
14911W        W87336  10.394  13.223  14.924
14912W        W87337  24.152   3.830  11.422
14913W        W87338  10.470  23.892   4.399
14914W        W87339  39.941  12.078  12.600
14915W        W87340  40.496  13.716  11.500
14916W        W87341  20.078  40.036   3.999
14917W        W87342  14.710   4.690   0.865
14918W        W87343  41.852   6.104  13.002
14919W        W87344  27.668  37.472  11.627
14920W        W87345  18.482   1.214  12.440
14921W        W87346  20.098  29.433  13.974
14922W        W87347   2.848  41.568   1.495
14923W        W87348  10.473  43.360  10.151
14924W        W87349  16.482  37.160   3.893
14925W        W87350  32.342  28.568   4.434
14926W        W87351   8.291  18.317   1.363
14927W        W87352  16.543  28.610   1.083
14928W        W87353  34.550  40.021  13.807
14929W        W87354  14.140   1.901   3.925
14930W        W87355   5.751  39.916   2.048
14931W        W87356  32.068  22.094  11.224
14932W        W87357  37.655   7.233   3.271
14933W        W87358  20.898   0.927   2.032
14934W        W87359  42.240  38.874  10.628
14935W        W87360  27.683  41.973  13.596
14936W        W87361  14.142  19.546  10.834
14937W        W87362  27.454  20.999   5.054
14938W        W87363  44.936  30.187   3.744
14939W        W87364  39.784  26.425   0.348
14940W        W87365  11.383  20.662  13.772
14941W        W87366   4.487  31.377  13.210
14942W        W87367  37.523  18.341   3.299
14943W        W87368  32.944   2.795   2.442
14944W        W87369   9.416  34.248   1.286
14945W        W87370  32.590  41.560   3.111
14946W        W87371  17.383  44.306   0.833
14947W        W87372  22.925  25.425  13.426
14948W        W87373  20.681  33.469  12.638
14949W        W87374  15.769  42.613  12.430
14950W        W87375  29.611  44.750   3.256
14951W        W87376  16.658  40.987  11.334
14952W        W87377  13.378  43.825   1.315
14953W        W87378  33.632  28.612  14.025
14954W        W87379  12.071  23.947  12.922
14955W        W87380  22.290  34.621   0.877
14956W        W87381   5.878  20.299   2.814
14957W        W87382  40.042  11.427  11.872
14958W        W87383  23.111  12.690  12.104
14959W        W87384  36.309   8.377   3.287
14960W        W87385   9.373   7.405  13.088
14961W        W87386   3.288  30.053  11.084
14962W        W87387  34.500  17.215   1.994
14963W        W87388  19.257  16.149  11.354
14964W        W87389   0.764  13.664   4.712
14965W        W87390  29.931  42.388  13.074
14966W        W87391   6.706  16.136  11.966
14967W        W87392  38.686  33.566   4.889
14968W        W87393  27.577   2.897   0.429
14969W        W87394  35.291  19.366  13.352
14970W        W87395  32.648  38.546  12.515
14971W        W87396  44.639   1.968  14.442
14972W        W87397  29.015  21.638  12.567
14973W        W87398  24.218  11.319   3.476
14974W        W87399   2.026  14.083   2.757
14975W        W87400  28.715  19.608  11.121
14976W        W87401  19.410  42.888   1.782
14977W        W87402  34.577   9.174  13.732
14978W        W87403  17.258   6.837   4.939
14979W        W87404  16.713  34.467  10.532
14980W        W87405  22.642  43.549   1.893
14981W        W87406  22.477  19.749   3.794
14982W        W87407  22.617  20.904   4.913
14983W        W87408  21.567  31.607   1.484
14984W        W87409  37.153  22.720  13.750
14985W        W87410  42.165  28.536   0.775
14986W        W87411  41.791   6.268   0.374
14987W        W87412  19.655  16.521  14.477
14988W        W87413  10.240  22.990  13.046
14989W        W87414  15.774  28.275   2.877
14990W        W87415  32.924  30.139   4.273
14991W        W87416  23.139  25.600  11.623
14992W        W87417  12.741  18.820  12.612
14993W        W87418   7.801  31.071   1.990
14994W        W87419  31.858  16.358  10.213
14995W        W87420  44.445  41.646  13.975
14996W        W87421   1.017  23.582   2.666
14997W        W87422   7.596   1.870  10.053
14998W        W87423  35.186   9.461   4.222
14999W        W87424  37.007  36.379  13.162
15000W        W87425   7.705  11.592  10.910
15001W        W87426  28.407  41.827   3.441
15002W        W87427  36.106   9.622  10.472
15003W        W87428  41.940  28.364  13.397
15004W        W87429  35.653  26.629  11.061
15005W        W87430  11.393  27.457   3.912
15006W        W87431  40.066   9.786   1.353
15007W        W87432  35.438  10.135  12.945
15008W        W87433  20.580  19.077   3.667
15009W        W87434  13.154   6.368   2.488
15010W        W87435  27.561  27.092   1.715
15011W        W87436  41.516   0.329   4.918
15012W        W87437  40.533  34.973  12.105
15013W        W87438  11.689  30.876   1.651
15014W        W87439  25.672  44.960   3.830
15015W        W87440  25.390  33.137  12.052
15016W        W87441  21.865  39.105   3.338
15017W        W87442  16.183  37.343  10.592
15018W        W87443  11.344  34.120  11.114
15019W        W87444  21.297   0.691  14.928
15020W        W87445   2.539  18.192  10.609
15021W        W87446  34.818   6.451   4.100
15022W        W87447  41.811  23.574   2.560
15023W        W87448  22.220  35.465  10.680
15024W        W87449  21.953  42.423   0.802
15025W        W87450   8.140  33.532   2.273
15026W        W87451   4.785  36.395   1.544
15027W        W87452  14.254  23.796  14.937
15028W        W87453  43.550  28.915   0.823
15029W        W87454  29.087  37.804  12.536
15030W        W87455  16.064  10.632  14.470
15031W        W87456  20.418  10.200   4.521
15032W        W87457   4.196  36.025   2.656
15033W        W87458  13.890  28.539   2.789
15034W        W87459  39.461  37.337  12.918
15035W        W87460  20.534   8.399   4.188
15036W        W87461  27.725  13.416  11.916
15037W        W87462  22.524   3.199  12.971
15038W        W87463  25.668  14.647   3.180
15039W        W87464  14.059  34.673  13.037
15040W        W87465   5.787  32.071   2.927
15041W        W87466  26.463  44.400  14.365
15042W        W87467   2.068  36.353  12.897
15043W        W87468  24.957  36.709   0.468
15044W        W87469  21.997  11.904  13.936
15045W        W87470   6.688   1.622   4.026
15046W        W87471  43.227  36.788  12.352
15047W        W87472  11.398  43.144   0.199
15048W        W87473   4.223  15.345   1.289
15049W        W87474  18.561  29.253   3.203
15050W        W87475   3.802  17.001   3.186
15051W        W87476   3.088  43.088   2.075
15052W        W87477  34.449  42.811   0.385
15053W        W87478  17.109  27.655   1.950
15054W        W87479  15.390  15.269  11.593
15055W        W87480   2.181  10.339  10.568
15056W        W87481  39.480  41.261   0.870
15057W        W87482   5.232   3.240  10.362
15058W        W87483   6.670  37.866   1.211
15059W        W87484  40.297  21.252  12.399
15060W        W87485  23.716  43.305  11.930
15061W        W87486   1.576   7.593   3.665
15062W        W87487  31.703  13.769   2.671
15063W        W87488  44.448   1.567   1.212
15064W        W87489  28.578   4.037  11.073
15065W        W87490  42.377  34.644  12.917
15066W        W87491  26.772  12.636   4.092
15067W        W87492  18.627  16.786   1.624
15068W        W87493  16.230  23.244   3.266
15069W        W87494  13.187  30.349   4.633
15070W        W87495  43.820  44.835  13.327
15071W        W87496   7.430   3.011   3.269
15072W        W87497  24.492   8.617  13.495
15073W        W87498   9.134  37.083  13.041
15074W        W87499  13.106   8.394  12.090
15075W        W87500   6.585  24.002   3.233
15076W        W87501  30.990  24.837  12.928
15077W        W87502  25.544  21.017  10.875
15078W        W87503  29.494  10.877   4.198
15079W        W87504  40.200  23.156  11.579
15080W        W87505  13.724  25.690  14.774
15081W        W87506  41.152  39.228   1.762
15082W        W87507   7.554  11.253  13.865
15083W        W87508  21.534  19.392   0.416
15084W        W87509  37.292   2.822   3.605
15085W        W87510  16.579  42.721  12.910
15086W        W87511  34.658  18.121  13.013
15087W        W87512  22.839  39.817   2.932
15088W        W87513  35.305  31.884   5.045
15089W        W87514   9.313  20.631  14.359
15090W        W87515   8.148  18.735   0.100
15091W        W87516  31.424  10.167  12.105
15092W        W87517   1.440  37.945   2.545
15093W        W87518  39.817  25.052  12.746
15094W        W87519  21.679  21.076   9.984
15095W        W87520  19.765  43.256   1.949
15096W        W87521  12.870  11.322   1.448
15097W        W87522  33.952   5.281   1.735
15098W        W87523  15.925  34.568   3.243
15099W        W87524   9.898   1.580  11.219
15100W        W87525  23.258   1.710  14.213
15101W        W87526  16.050  22.077   4.626
15102W        W87527  27.604   9.141  12.763
15103W        W87528   0.172  18.391  14.891
15104W        W87529   0.867  12.067   2.438
15105W        W87530  43.435  25.487  12.928
15106W        W87531  31.105  18.520  13.818
15107W        W87532  37.048  38.792   2.027
15108W        W87533  24.586  12.032   3.175
15109W        W87534  43.030  38.322  13.825
15110W        W87535  32.167  14.183  12.179
15111W        W87536  12.820  34.772  10.850
15112W        W87537  23.421  18.982  13.276
15113W        W87538  40.285   8.213  12.301
15114W        W87539  41.413  21.623   0.995
15115W        W87540  41.894  40.398   0.947
15116W        W87541  37.923  23.984  14.404
15117W        W87542  30.403   2.456  14.081
15118W        W87543   2.188  28.131   4.141
15119W        W87544  42.719  42.388  10.727
15120W        W87545  43.961  36.144   4.515
15121W        W87546  16.298  28.955  12.753
15122W        W87547  11.241  35.825   1.854
15123W        W87548  35.228  21.437  11.160
15124W        W87549   5.276  37.754   2.248
15125W        W87550  31.004  20.321  14.306
15126W        W87551  41.428  39.830  10.991
15127W        W87552   0.980  34.644   4.438
15128W        W87553  11.243  43.359  14.240
15129W        W87554  29.716   3.336   4.094
15130W        W87555   8.750   6.206   4.729
15131W        W87556   6.647  38.280  10.698
15132W        W87557  28.381  29.574   3.559
15133W        W87558  25.122  44.413   2.317
15134W        W87559   3.391  25.568  10.608
15135W        W87560  12.916   8.815  13.916
15136W        W87561  37.516  22.618  14.116
15137W        W87562   9.055  21.649   4.233
15138W        W87563  10.694   5.749   1.230
15139W        W87564  40.860  39.759  11.467
15140W        W87565  21.165  28.074   2.585
15141W        W87566  12.047   2.360  12.861
15142W        W87567  34.439   2.590   4.856
15143W        W87568  22.069  29.602   4.639
15144W        W87569  14.740  15.594   3.258
15145W        W87570   2.234  37.601   2.365
15146W        W87571   4.905  28.232   0.104
15147W        W87572   9.380   6.288   2.784
15148W        W87573  19.165  29.424   1.016
15149W        W87574   1.795  10.187  13.826
15150W        W87575  14.571  29.037   2.645
15151W        W87576  10.713  44.837   2.892
15152W        W87577  36.850  43.382   1.287
15153W        W87578  29.206   8.333  10.535
15154W        W87579  12.329  41.330  13.252
15155W        W87580  24.171  11.274  14.539
15156W        W87581  16.936  13.741   4.797
15157W        W87582  19.587  17.061  12.654
15158W        W87583  40.819  26.047  12.121
15159W        W87584  15.792   5.263  12.107
15160W        W87585  42.533  39.583  11.660
15161W        W87586  38.978  27.957  14.414
15162W        W87587   7.416  34.478   2.770
15163W        W87588  22.634  17.791  10.621
15164W        W87589  33.024  42.510   2.303
15165W        W87590  27.581  23.115   4.657
15166W        W87591   8.359   8.288  13.374
15167W        W87592  34.561  11.461   1.731
15168W        W87593   7.263  29.265   3.755
15169W        W87594  41.543   1.266   0.493
15170W        W87595  22.763  36.541   4.563
15171W        W87596  35.892  22.157   0.204
15172W        W87597  25.070  20.567   3.366
15173W        W87598  27.131   4.377  10.790
15174W        W87599  31.421   0.233  14.444
15175W        W87600  38.421  43.051  11.934
15176W        W87601  36.917  34.017  13.112
15177W        W87602  43.407   2.412   4.908
15178W        W87603  18.236  22.193   3.618
15179W        W87604  28.714   2.442  14.827
15180W        W87605  15.410  20.240   2.237
15181W        W87606  17.551  38.470   2.773
15182W        W87607  32.626  12.350   2.357
15183W        W87608  31.499  22.638  14.283
15184W        W87609  13.646  10.869  14.363
15185W        W87610  42.938  32.081  10.820
15186W        W87611  14.391  16.943   1.895
15187W        W87612  25.548  24.985  10.110
15188W        W87613  38.930   0.704   3.723
15189W        W87614  27.324  24.544   2.539
15190W        W87615   1.542  34.470   3.843
15191W        W87616  32.903  26.475   0.426
15192W        W87617  36.297   4.715   0.298
15193W        W87618  12.790  17.586   2.876
15194W        W87619   1.868  25.585   3.661
15195W        W87620  10.238  28.091   1.278
15196W        W87621   1.361  38.701   4.065
15197W        W87622   2.310  40.769   4.216
15198W        W87623  34.542   4.226   2.899
15199W        W87624  27.371  39.013   0.944
15200W        W87625  23.478  34.634   1.359
15201W        W87626  28.075  21.022   4.383
15202W        W87627  35.819  39.820  14.260
15203W        W87628  34.946  16.822  12.994
15204W        W87629  40.625  27.088  12.855
15205W        W87630  39.464  17.201   2.702
15206W        W87631  33.825  29.480   1.924
15207W        W87632  21.287  32.109  13.949
15208W        W87633  11.678  17.656   3.997
15209W        W87634  38.352  35.221   0.861
15210W        W87635  16.665   4.171   3.711
15211W        W87636  12.216   6.187   3.690
15212W        W87637  35.346  12.214   2.361
15213W        W87638   7.225  13.050   0.316
15214W        W87639  41.998  33.141   3.020
15215W        W87640  28.644   5.242  12.865
15216W        W87641  28.940   0.881  10.703
15217W        W87642  33.470  20.470  12.341
15218W        W87643  37.514   0.416  10.682
15219W        W87644  16.295   9.297  12.600
15220W        W87645  23.995  30.613  13.038
15221W        W87646  20.384   1.382   0.829
15222W        W87647  39.383  15.167  14.912
15223W        W87648   6.513  38.368   1.336
15224W        W87649  32.791  26.109   2.430
15225W        W87650   2.962  34.530   2.791
15226W        W87651  14.966  24.525  12.102
15227W        W87652   2.814  25.404  12.142
15228W        W87653   9.182  33.968   4.212
15229W        W87654  21.657   7.945  13.848
15230W        W87655   4.055  33.543  11.064
15231W        W87656   2.736  43.308  10.572
15232W        W87657  28.665  19.231   2.678
15233W        W87658   2.959  21.810  12.425
15234W        W87659  39.299   3.940   3.303
15235W        W87660  17.213  14.926  13.445
15236W        W87661  40.612   9.548   4.199
15237W        W87662  38.457  34.324  11.073
15238W        W87663  24.701  40.270   0.387
15239W        W87664   9.109   1.289  11.522
15240W        W87665  15.804   0.998  12.090
15241W        W87666  11.746   1.764  11.208
15242W        W87667   6.339  25.415  11.140
15243W        W87668  37.287  35.404   1.908
15244W        W87669  20.697  31.323   2.122
15245W        W87670  14.366  28.090  13.419
15246W        W87671  25.615  21.925  12.985
15247W        W87672  19.672  25.801   2.441
15248W        W87673  41.340  15.960  13.967
15249W        W87674  11.642   8.019   4.823
15250W        W87675  37.222  16.216  14.694
15251W        W87676  18.513  21.450   9.868
15252W        W87677  10.699  44.964   1.075
15253W        W87678  41.575  35.568   3.588
15254W        W87679  29.185   3.716   2.256
15255W        W87680  39.756  11.193  11.411
15256W        W87681  32.981   3.664   1.853
15257W        W87682  30.909  15.683   4.545
15258W        W87683  10.752  26.617   9.991
15259W        W87684  39.913  28.783  13.926
15260W        W87685  14.276  40.251   2.178
15261W        W87686   3.887  38.135   3.306
15262W        W87687   1.607  11.379   0.368
15263W        W87688  10.624  25.562  12.971
15264W        W87689  36.075  39.343  13.274
15265W        W87690  20.141  34.826  10.740
15266W        W87691  36.312  23.533   2.165
15267W        W87692  32.443   0.425   0.442
15268W        W87693  29.891  36.974   0.646
15269W        W87694  42.833  38.097   3.189
15270W        W87695  29.069  32.939   1.024
15271W        W87696  15.326  11.573  13.021
15272W        W87697  29.689   4.361   4.893
15273W        W87698  21.929  15.312   3.978
15274W        W87699  26.051  20.721  12.851
15275W        W87700  21.583   5.005   0.903
15276W        W87701  36.473  40.941   1.741
15277W        W87702  38.826  36.555  14.889
15278W        W87703  37.380  34.171   2.875
15279W        W87704  34.109  40.592   4.453
15280W        W87705  24.693  18.829   0.386
15281W        W87706  37.846  26.993  13.899
15282W        W87707  27.764  29.575  14.291
15283W        W87708  26.374  44.485   2.725
15284W        W87709  16.372  44.392  10.663
15285W        W87710   6.206   7.308   3.100
15286W        W87711  43.004  32.629   4.369
15287W        W87712  19.126  15.751  12.117
15288W        W87713   1.983  35.632   0.327
15289W        W87714  29.880  33.691   0.435
15290W        W87715  11.839  16.394  11.974
15291W        W87716   0.194  44.526  10.726
15292W        W87717   1.040  19.196  12.808
15293W        W87718  26.677  10.785   1.674
15294W        W87719  27.028   3.064  13.071
15295W        W87720  13.730  31.955  10.981
15296W        W87721  42.796  21.725  13.912
15297W        W87722  13.343  41.490  11.490
15298W        W87723  42.975   0.480  12.537
15299W        W87724  24.205  18.652   0.260
15300W        W87725  12.847  14.342   2.496
15301W        W87726  18.157  22.816   2.439
15302W        W87727  32.918  33.187   2.307
15303W        W87728  21.499  17.712   2.446
15304W        W87729  15.268  37.157   4.177
15305W        W87730  44.325  21.097  10.500
15306W        W87731  44.171  24.076  12.422
15307W        W87732  39.324  36.585   1.827
15308W        W87733  19.199  22.996   4.603
15309W        W87734  19.008  21.227   1.524
15310W        W87735  27.178  17.053  13.410
15311W        W87736  19.299  10.935  11.708
15312W        W87737  12.306   7.153  14.886
15313W        W87738  31.366   5.631  13.877
15314W        W87739  19.607   0.552   2.795
15315W        W87740  10.071  41.277   3.428
15316W        W87741   0.199  24.671   3.618
15317W        W87742  13.890  41.900   0.261
15318W        W87743  28.436  42.935   9.830
15319W        W87744  23.079  42.716  13.880
15320W        W87745   0.565  26.035   2.198
15321W        W87746  11.886  23.904   1.011
15322W        W87747  16.661   0.580  11.084
15323W        W87748   3.001  37.193  14.664
15324W        W87749  27.064  28.739  14.884
15325W        W87750  16.525  22.031  14.929
15326W        W87751  34.192  15.231  13.087
15327W        W87752  32.130  36.459   0.434
15328W        W87753  27.614  12.221   3.786
15329W        W87754   9.551  44.973  10.578
15330W        W87755   2.501  42.704  11.107
15331W        W87756  25.942   6.681   3.753
15332W        W87757   3.345  25.543   2.886
15333W        W87758   8.250  19.638  14.293
15334W        W87759  28.811  41.447  12.499
15335W        W87760  21.617   8.221  12.463
15336W        W87761  18.017   6.811   0.872
15337W        W87762   5.706   6.681  13.230
15338W        W87763  27.400  40.811   2.707
15339W        W87764  27.559  22.132  10.862
15340W        W87765   7.899  23.093   4.515
15341W        W87766   2.649   5.932  11.989
15342W        W87767  11.178  24.310   3.199
15343W        W87768   9.978  24.014  12.105
15344W        W87769  42.663  40.508  13.605
15345W        W87770   7.304  23.142  10.793
15346W        W87771  24.202  19.661   1.232
15347W        W87772  18.193  30.143  10.411
15348W        W87773  15.901  12.812  13.947
15349W        W87774  43.288  40.051  12.686
15350W        W87775  14.437  13.547  12.921
15351W        W87776  29.435   7.653  14.825
15352W        W87777  39.850  14.797   1.885
15353W        W87778  28.125  33.897  14.233
15354W        W87779  29.572  21.261   1.476
15355W        W87780  42.929  33.033  13.380
15356W        W87781  10.799   1.836  12.185
15357W        W87782  21.733  14.066   1.795
15358W        W87783  28.091  15.202   3.364
15359W        W87784  29.532  19.106  13.349
15360W        W87785  32.004  15.767  13.236
15361W        W87786  34.539  15.917  10.866
15362W        W87787  37.467  44.917   4.305
15363W        W87788  15.585  32.039   2.709
15364W        W87789  31.947   5.297  12.473
15365W        W87790  33.514  34.137  12.204
15366W        W87791  32.141   8.396  11.593
15367W        W87792  21.782  16.551   1.641
15368W        W87793  14.433  30.982  10.352
15369W        W87794  43.536   6.408  13.963
15370W        W87795  17.714  43.241   4.070
15371W        W87796   2.940   7.777  13.503
15372W        W87797  30.672   7.297   0.213
15373W        W87798  37.514  37.416  10.117
15374W        W87799  16.274  16.345  14.405
15375W        W87800   8.521  35.073  13.952
15376W        W87801  27.577  19.985  13.419
15377W        W87802  36.086  12.228   2.851
15378W        W87803  24.483  28.057  11.227
15379W        W87804   7.504   8.031   5.091
15380W        W87805  37.500  36.580   0.419
15381W        W87806  38.468   6.506  11.865
15382W        W87807  25.476  28.071  14.318
15383W        W87808   9.068   5.404  14.868
15384W        W87809  35.977  24.750   1.461
15385W        W87810  37.844  12.709   2.395
15386W        W87811  21.136  12.045   3.646
15387W        W87812  13.685  22.767  10.419
15388W        W87813  39.343   8.485  10.680
15389W        W87814   8.876   6.980   4.102
15390W        W87815  35.872  11.606   2.724
15391W        W87816  20.537  35.806  13.845
15392W        W87817  42.067  37.831   2.331
15393W        W87818  25.621  44.674   1.443
15394W        W87819   7.239  28.129  11.509
15395W        W87820  41.360   0.751   2.390
15396W        W87821  10.356  19.030   1.530
15397W        W87822  33.466  18.613   5.404
15398W        W87823   9.566  14.116  10.920
15399W        W87824  23.189  21.992  11.185
15400W        W87825   8.423  28.604  12.476
15401W        W87826   4.784   2.506   1.801
15402W        W87827  13.059  30.586  11.605
15403W        W87828  42.071   0.470  13.872
15404W        W87829  31.207   3.599   3.595
15405W        W87830   6.816  13.112   4.514
15406W        W87831  43.112  24.791  11.121
15407W        W87832  43.328  28.901   1.340
15408W        W87833  44.917  16.602   1.733
15409W        W87834   8.719  30.651   1.768
15410W        W87835  41.089  44.678  14.506
15411W        W87836  43.783  34.490  10.578
15412W        W87837  17.239  38.741  11.634
15413W        W87838   0.951  12.614   3.314
15414W        W87839  17.715  19.800   1.282
15415W        W87840  10.960   1.305   4.154
15416W        W87841  15.020   9.028   2.692
15417W        W87842  25.407  32.165   1.869
15418W        W87843  26.712   7.645   4.568
15419W        W87844  40.390  19.187  14.380
15420W        W87845  33.876  31.998  11.125
15421W        W87846  22.951  10.442   1.161
15422W        W87847   4.631  17.706  12.387
15423W        W87848   9.375  21.368  13.625
15424W        W87849  43.408  25.237  12.474
15425W        W87850  37.365  15.126  13.945
15426W        W87851  16.124  16.228  13.087
15427W        W87852  41.304  19.963   0.016
15428W        W87853  41.106  13.973   5.049
15429W        W87854  14.346  38.800  13.967
15430W        W87855  37.507  36.052   0.341
15431W        W87856  41.553  21.707  13.443
15432W        W87857   9.866  27.147  14.550
15433W        W87858   6.294  41.709  14.745
15434W        W87859  17.579  32.012  12.685
15435W        W87860  31.555   5.241   2.805
15436W        W87861   7.744   9.144  14.790
15437W        W87862  15.831   1.790  14.442
15438W        W87863   8.465  14.176   1.205
15439W        W87864  13.134  10.647   4.089
15440W        W87865  27.903  24.221  12.674
15441W        W87866   4.051   3.819   3.187
15442W        W87867  26.540   2.940  14.265
15443W        W87868   0.964  22.219   1.417
15444W        W87869  25.982   0.211   0.797
15445W        W87870  41.250  19.046  13.965
15446W        W87871  26.686  35.725   4.407
15447W        W87872  37.978  40.252   1.222
15448W        W87873  39.549  10.941  14.888
15449W        W87874   2.512   1.847   0.322
15450W        W87875  42.908  22.191   0.246
15451W        W87876  18.567   5.964  14.524
15452W        W87877  10.180   8.899  14.353
15453W        W87878  30.588  20.243  13.999
15454W        W87879  27.992   0.373  14.974
15455W        W87880  28.019  13.594  12.297
15456W        W87881  38.429  30.339   4.765
15457W        W87882   4.943  41.790  12.347
15458W        W87883  14.362  39.056   0.875
15459W        W87884  36.267  28.846   3.260
15460W        W87885  20.418  28.733   0.012
15461W        W87886  14.191  41.034  11.235
15462W        W87887   1.950  25.488   0.640
15463W        W87888  18.341  36.919  14.945
15464W        W87889  21.170  33.041   3.757
15465W        W87890  21.500  22.592  14.231
15466W        W87891  31.404  30.054   1.367
15467W        W87892  21.612  17.872  12.995
15468W        W87893  10.631  28.908   3.275
15469W        W87894  12.025  30.677   1.295
15470W        W87895  35.706   4.883  14.800
15471W        W87896  29.130   0.234   1.907
15472W        W87897  16.177  35.864  14.939
15473W        W87898  29.133  43.600   2.853
15474W        W87899   0.175  44.806  11.188
15475W        W87900   1.570  42.615  14.288
15476W        W87901  33.073   7.706   4.032
15477W        W87902  31.689  10.323   0.274
15478W        W87903   2.956  24.023  12.792
15479W        W87904   8.215  11.163   0.538
15480W        W87905  41.834  38.107  13.815
15481W        W87906   6.956  15.257   2.364
15482W        W87907  17.623  30.763  12.035
15483W        W87908  42.254  16.739   0.488
15484W        W87909  25.189  12.820   0.869
15485W        W87910  13.277  10.399  14.791
15486W        W87911  39.348  25.452  14.943
15487W        W87912  15.098  39.487  13.382
15488W        W87913  10.814  17.303   0.026
15489W        W87914  25.561  39.430  13.825
15490W        W87915  43.149   8.703  14.996
15491W        W87916   5.804   5.390   1.954
15492W        W87917  27.585  43.391  13.805
15493W        W87918   1.300  22.493  12.839
15494W        W87919  21.211   2.696   4.948
15495W        W87920  25.065  36.002   2.691
15496W        W87921  25.800  34.532   2.353
15497W        W87922  14.396  26.583   1.344
15498W        W87923   9.730   7.777  14.006
15499W        W87924  34.778  38.511   0.838
15500W        W87925  41.470  19.292   1.959
15501W        W87926   1.826  15.775   2.862
15502W        W87927  32.055  22.005  14.188
15503W        W87928   8.240  20.438   1.875
15504W        W87929  17.077  17.547   0.411
15505W        W87930  19.502   4.012  12.085
15506W        W87931  17.754   7.440  12.458
15507W        W87932  41.057   9.260   4.265
15508W        W87933  17.066  43.947  13.072
15509W        W87934  24.288  24.185  12.857
15510W        W87935  23.164  33.534   0.031
15511W        W87936  36.492  33.295  11.931
15512W        W87937  13.298  31.786  10.278
15513W        W87938   4.028  10.296   0.761
15514W        W87939  21.128  28.185   4.613
15515W        W87940  12.689   0.929  14.032
15516W        W87941  32.912   3.339  13.351
15517W        W87942  12.330  37.836   0.267
15518W        W87943   5.903  11.449   3.321
15519W        W87944  39.933  43.812   4.609
15520W        W87945  23.006  13.662   3.395
15521W        W87946  17.900  15.748  10.203
15522W        W87947  38.465  29.578  14.583
15523W        W87948   1.299  16.368   1.300
15524W        W87949  31.533  27.130   0.603
15525W        W87950  30.050   0.974  13.287
15526W        W87951  27.124  27.901   1.861
15527W        W87952   9.173  31.230   0.828
15528W        W87953  37.433  21.888  12.032
15529W        W87954  39.257  36.940   2.232
15530W        W87955  17.733   0.288   3.381
15531W        W87956  15.702  23.826   4.964
15532W        W87957  28.264   0.881   3.478
15533W        W87958   5.204  41.262   2.441
15534W        W87959  11.297   0.046  11.136
15535W        W87960  25.499  12.664   3.136
15536W        W87961  31.529  23.547  12.683
15537W        W87962  26.242  37.572   1.311
15538W        W87963  31.561   7.337  11.885
15539W        W87964  23.575  16.145   0.300
15540W        W87965  16.233   0.998   5.040
15541W        W87966  21.840   7.753  14.827
15542W        W87967  22.441  39.937   1.433
15543W        W87968  29.512  43.767   3.225
15544W        W87969   2.715   0.468  13.670
15545W        W87970   6.315   6.322   0.893
15546W        W87971   7.404  17.351   4.085
15547W        W87972  30.939  41.479   4.589
15548W        W87973   7.806   5.401  12.594
15549W        W87974  13.676   1.732   4.164
15550W        W87975  10.325  14.974   4.600
15551W        W87976  18.552  44.908   0.304
15552W        W87977   1.400   9.316  11.186
15553W        W87978  10.217  32.504   0.388
15554W        W87979  42.940  23.723   0.357
15555W        W87980  17.299   0.983  11.454
15556W        W87981  13.804  37.166   1.321
15557W        W87982  31.923   0.418   4.970
15558W        W87983  43.164  43.459   0.369
15559W        W87984  30.464   3.450  12.624
15560W        W87985  36.834  33.028   3.669
15561W        W87986  13.681  16.204  13.299
15562W        W87987  10.085  15.724   4.982
15563W        W87988   2.801  15.392  10.555
15564W        W87989  16.866  24.614  12.327
15565W        W87990  13.126  14.977  14.064
15566W        W87991  39.114  27.527  11.725
15567W        W87992   3.696  26.157   1.852
15568W        W87993  41.415  39.831  12.440
15569W        W87994  41.575   4.481   3.918
15570W        W87995   2.956  13.688  12.937
15571W        W87996  41.836   4.805   4.707
15572W        W87997  11.833  37.942   0.147
15573W        W87998  10.475  27.662   4.325
15574W        W87999   7.812  19.584   1.878
15575W        W88000  14.060   8.778   1.117
15576W        W88001   7.299  23.339  11.605
15577W        W88002  33.005  28.699   3.288
15578W        W88003  37.283  39.274  10.655
15579W        W88004  31.054  13.426   1.931
15580W        W88005  28.679  31.581  12.833
15581W        W88006  44.030  21.107  11.322
15582W        W88007  28.987  17.515  14.949
15583W        W88008  32.454  40.966  10.691
15584W        W88009   0.533  44.405  11.081
15585W        W88010  37.576   1.375   2.693
15586W        W88011  38.930  42.266   3.273
15587W        W88012  10.653  44.074   0.797
15588W        W88013  22.732  44.556  12.145
15589W        W88014  44.661  15.241   3.234
15590W        W88015  30.428   2.905  14.311
15591W        W88016  11.153  11.203   3.947
15592W        W88017   7.673  19.644  10.720
15593W        W88018  17.232  14.366  14.231
15594W        W88019  42.978  36.805  14.730
15595W        W88020  39.992  28.315   0.932
15596W        W88021   4.123  39.006  13.026
15597W        W88022  39.889  15.143   0.020
15598W        W88023  43.406  29.968   4.945
15599W        W88024  27.831  13.144   2.212
15600W        W88025   1.152  23.611   1.995
15601W        W88026  25.145  15.030  10.755
15602W        W88027  33.880  13.858   4.217
15603W        W88028  33.046  25.238  13.324
15604W        W88029  20.036  38.094   0.998
15605W        W88030   6.937   9.024   0.363
15606W        W88031  17.419  12.214   3.240
15607W        W88032  43.041  17.727   4.073
15608W        W88033   1.894  26.479  13.962
15609W        W88034  24.259   7.411   0.271
15610W        W88035  14.855  32.585  10.911
15611W        W88036  26.763  31.652   4.104
15612W        W88037   4.391  20.880   1.786
15613W        W88038  25.713  42.708  14.804
15614W        W88039  22.905  43.275  14.611
15615W        W88040  37.425  23.331   3.352
15616W        W88041  19.179  15.023  11.694
15617W        W88042   6.245  22.787  14.989
15618W        W88043  25.154  38.588   4.143
15619W        W88044  25.310  34.893   4.073
15620W        W88045  29.216  35.404  14.433
15621W        W88046  39.318  32.997   4.376
15622W        W88047  25.269  30.105  10.685
15623W        W88048  28.577  22.714  12.518
15624W        W88049  36.786   4.720   2.132
15625W        W88050  12.458  21.302  11.624
15626W        W88051  41.089  34.116   2.703
15627W        W88052  33.917  36.295  10.580
15628W        W88053  42.997  30.485  11.231
15629W        W88054  38.972  16.785   0.257
15630W        W88055  37.229  11.059  11.588
15631W        W88056  36.053  33.631   2.385
15632W        W88057  20.525  22.966   0.874
15633W        W88058  42.510   0.540  11.647
15634W        W88059  23.770  27.484   1.195
15635W        W88060   1.154  44.691   0.847
15636W        W88061  41.733  23.336  12.638
15637W        W88062   7.104  44.374  11.584
15638W        W88063  39.411  40.403   4.678
15639W        W88064  28.156  21.270   1.884
15640W        W88065  13.109  16.393  10.669
15641W        W88066   7.860  37.629   9.771
15642W        W88067   4.783   9.641   1.727
15643W        W88068   7.731   8.673  13.465
15644W        W88069  34.510  12.631  12.521
15645W        W88070   2.432  13.596  14.591
15646W        W88071   1.227  24.734  13.452
15647W        W88072  41.427  43.846   5.564
15648W        W88073  26.328   7.446   1.768
15649W        W88074  33.463   2.270   3.774
15650W        W88075  12.910  19.333   3.330
15651W        W88076  19.164   9.943  10.499
15652W        W88077  10.360  12.318   3.523
15653W        W88078  34.723   1.246  14.924
15654W        W88079  41.713  43.992  12.197
15655W        W88080  39.913  22.291  13.767
15656W        W88081  24.753  15.318   4.868
15657W        W88082  13.926  24.107   0.802
15658W        W88083  16.104  41.674   3.712
15659W        W88084   5.864   7.500   0.496
15660W        W88085   8.004  38.481   4.945
15661W        W88086  41.556   8.329  13.659
15662W        W88087  25.958  14.667  10.780
15663W        W88088  41.732  21.012  11.089
15664W        W88089  14.031  35.438   1.820
15665W        W88090   4.216  16.559  10.210
15666W        W88091  43.768   1.451  12.094
15667W        W88092   9.732  36.648   1.285
15668W        W88093  21.882  26.402  11.965
15669W        W88094  43.278  27.371  14.260
15670W        W88095  42.747  18.055  11.894
15671W        W88096  25.093  32.128   1.267
15672W        W88097  10.766   9.825  10.605
15673W        W88098  10.205  39.103   0.239
15674W        W88099  35.021  40.802  13.557
15675W        W88100  22.216  11.007   9.786
15676W        W88101  41.800  42.387   1.877
15677W        W88102  43.567   0.331  11.619
15678W        W88103   5.296   6.836  11.142
15679W        W88104  35.935  19.267  11.884
15680W        W88105   6.736  23.499  11.831
15681W        W88106  43.269  44.704   0.821
15682W        W88107  26.919   0.353  14.956
15683W        W88108  25.510   8.860   0.554
15684W        W88109  20.743  27.076  14.675
15685W        W88110  20.144  29.880  10.510
15686W        W88111  12.134  38.507  12.438
15687W        W88112  30.868  15.775  13.303
15688W        W88113   7.265  24.707  14.354
15689W        W88114   3.474  30.521  14.401
15690W        W88115  15.767  10.920   3.219
15691W        W88116  41.628   8.895   1.324
15692W        W88117  18.048  44.501   1.374
15693W        W88118  23.596  24.708  14.778
15694W        W88119  33.981  35.011   3.341
15695W        W88120  26.161   7.687  14.947
15696W        W88121  42.035  17.075   4.531
15697W        W88122  43.770  38.699  13.139
15698W        W88123  32.570  13.403  12.116
15699W        W88124  22.033  39.333   4.213
15700W        W88125  20.248  38.532  14.826
15701W        W88126  30.376  32.894  14.874
15702W        W88127   4.190  25.562  11.414
15703W        W88128  38.522  21.305   2.520
15704W        W88129  43.000  32.515   1.125
15705W        W88130   0.980  35.267   4.259
15706W        W88131  30.668  34.811  12.115
15707W        W88132   6.361   8.148  12.900
15708W        W88133  11.797  28.109  10.519
15709W        W88134  40.996  13.962   3.773
15710W        W88135  41.826   1.418   4.392
15711W        W88136  29.099  31.160  11.173
15712W        W88137  43.738  18.761   1.868
15713W        W88138  14.255  44.853  14.919
15714W        W88139   8.740  16.224   4.080
15715W        W88140  24.232  41.127   0.006
15716W        W88141   2.815  33.185  11.201
15717W        W88142   1.108   3.954  11.419
15718W        W88143   2.122  20.114  13.499
15719W        W88144   9.447  15.508   1.698
15720W        W88145  29.168  44.353   1.700
15721W        W88146  27.319  14.726  13.945
15722W        W88147  10.120  41.520  13.973
15723W        W88148   8.804   5.623   1.333
15724W        W88149  21.711  24.168  14.952
15725W        W88150  20.537  16.770   3.687
15726W        W88151  42.167   9.194  13.400
15727W        W88152  10.935   7.697   2.352
15728W        W88153  25.944  15.336  12.960
15729W        W88154  10.822  40.581   2.238
15730W        W88155  23.129   0.342   4.361
15731W        W88156  44.911   2.407  10.652
15732W        W88157  22.968  24.151   0.505
15733W        W88158  37.827  15.360  12.399
15734W        W88159  28.727   9.834   4.993
15735W        W88160  40.939  40.407   4.616
15736W        W88161   1.487  31.653   4.805
15737W        W88162  18.177   2.555   1.885
15738W        W88163   7.706  34.673   3.144
15739W        W88164   3.838  39.808   0.779
15740W        W88165  10.099  26.124   3.718
15741W        W88166  31.164  15.051   5.330
15742W        W88167  43.504  38.618  15.000
15743W        W88168  20.480   5.882   1.551
15744W        W88169  41.006  15.802   4.633
15745W        W88170  37.962  36.949   2.757
15746W        W88171  18.592  15.808  10.696
15747W        W88172  24.009  34.021  10.605
15748W        W88173  10.321  13.953   1.136
15749W        W88174  34.844   0.218   2.741
15750W        W88175  29.860  35.820  11.297
15751W        W88176  41.922  17.227   0.038
15752W        W88177  37.951  42.872   1.323
15753W        W88178  10.054  32.246   2.965
15754W        W88179  18.058  12.222  14.435
15755W        W88180   6.316  13.568   0.935
15756W        W88181   0.581   0.525  11.536
15757W        W88182  26.338  23.152   2.759
15758W        W88183  10.162  38.813   4.208
15759W        W88184  38.585  38.588   1.545
15760W        W88185  33.556   2.448  14.454
15761W        W88186  35.311  21.272  14.474
15762W        W88187  40.804   2.921  12.092
15763W        W88188  31.947   1.710   1.200
15764W        W88189  33.172  42.943   2.637
15765W        W88190  39.910   3.211   4.882
15766W        W88191  40.910  27.524  12.801
15767W        W88192   8.637  40.932  14.821
15768W        W88193  17.085   3.457   2.396
15769W        W88194  42.812  42.580   1.893
15770W        W88195  28.474   4.255   2.182
15771W        W88196  22.932  13.914  14.140
15772W        W88197  35.041  41.306  13.493
15773W        W88198   9.659  14.016  14.878
15774W        W88199  44.719  33.495  14.894
15775W        W88200  34.485  26.518   3.479
15776W        W88201   1.025  35.691  12.101
15777W        W88202  43.109   2.503   2.174
15778W        W88203   7.384  23.144  13.586
15779W        W88204  35.383   3.456   3.753
15780W        W88205  28.583  25.868  12.290
15781W        W88206   7.145  42.603  14.979
15782W        W88207  24.563  38.342  10.611
15783W        W88208  22.758  29.616   2.499
15784W        W88209  24.136  13.345   3.224
15785W        W88210  44.234   3.956  13.414
15786W        W88211  15.786  16.533  13.523
15787W        W88212  18.213  43.001   1.233
15788W        W88213  16.161  42.609   0.054
15789W        W88214  15.771   4.825   2.461
15790W        W88215  17.607  31.414  14.378
15791W        W88216  32.613  24.731  12.049
15792W        W88217   5.232  34.481   3.365
15793W        W88218  10.627  44.471  12.151
15794W        W88219   3.385  20.058  14.926
15795W        W88220  18.037  35.843   2.758
15796W        W88221  43.251   9.297   3.364
15797W        W88222  31.414  26.943   4.653
15798W        W88223  20.651  11.686  12.264
15799W        W88224  14.363  17.873   2.357
15800W        W88225  24.742   8.646   0.013
15801W        W88226  28.159   0.802  12.021
15802W        W88227  23.427  24.000  12.537
15803W        W88228  17.290   9.229  14.528
15804W        W88229   2.183   8.116  14.813
15805W        W88230  33.796  22.265   2.469
15806W        W88231  37.935  22.128  13.031
15807W        W88232   2.417  27.996   4.598
15808W        W88233   6.646   0.594   1.615
15809W        W88234  43.472  33.879   1.145
15810W        W88235  15.029  40.368   4.785
15811W        W88236  15.284  28.038   4.262
15812W        W88237  35.402  28.918   3.328
15813W        W88238  39.798  20.119   0.992
15814W        W88239  21.054  20.097   5.069
15815W        W88240   1.831  20.524  12.386
15816W        W88241  41.004  40.112   1.360
15817W        W88242  32.173  24.160  11.762
15818W        W88243   4.266  20.517   2.732
15819W        W88244  15.578  34.129  12.161
15820W        W88245   7.036  14.529  10.767
15821W        W88246  41.287  34.462   4.411
15822W        W88247  26.072  38.429   4.141
15823W        W88248  20.679  21.323  10.438
15824W        W88249  22.132   5.460   0.216
15825W        W88250  15.108  36.793   3.837
15826W        W88251  14.038  40.553   5.056
15827W        W88252  18.123  33.377   1.108
15828W        W88253  29.986  39.345  14.603
15829W        W88254  13.554   5.704  14.385
15830W        W88255  15.860  19.417  10.288
15831W        W88256  20.224  14.123   0.732
15832W        W88257   3.737  14.367   4.775
15833W        W88258   4.419  11.671   5.049
15834W        W88259  20.002  17.189  12.351
15835W        W88260  25.725  37.647   0.499
15836W        W88261   9.153  44.398   3.294
15837W        W88262  43.300  20.782   3.328
15838W        W88263  11.583  40.829   2.736
15839W        W88264  18.828  31.941   4.643
15840W        W88265  15.762  22.683  13.913
15841W        W88266   8.891  39.646   0.350
15842W        W88267  18.614  17.818   2.366
15843W        W88268   4.469  10.496   0.949
15844W        W88269  43.401  18.517   0.297
15845W        W88270  44.965  15.329  12.946
15846W        W88271  35.912   3.700   0.906
15847W        W88272  35.346  39.497   2.223
15848W        W88273  29.178  12.338   0.875
15849W        W88274  31.066  36.559   1.164
15850W        W88275  34.528  41.501  14.606
15851W        W88276  43.929  32.881  12.023
15852W        W88277  43.906  11.217  12.586
15853W        W88278  17.098  41.081   0.308
15854W        W88279  21.618  42.383   2.421
15855W        W88280  30.211  35.332   3.046
15856W        W88281  27.534  32.772  12.396
15857W        W88282  13.235  28.384   4.806
15858W        W88283   2.253  22.121  14.401
15859W        W88284  14.840   1.852  13.257
15860W        W88285  24.162   4.734  14.435
15861W        W88286  29.098  40.266  13.878
15862W        W88287  33.109  37.786  13.559
15863W        W88288  16.752  33.545   2.765
15864W        W88289  22.138  36.514   2.423
15865W        W88290  34.399  33.635  14.885
15866W        W88291  30.189  37.899  12.449
15867W        W88292  15.186   9.312   4.547
15868W        W88293  34.838  22.776  12.136
15869W        W88294   9.417   3.016  14.701
15870W        W88295  12.249   5.131  10.734
15871W        W88296  12.547  16.535  10.927
15872W        W88297   2.001  13.190   2.515
15873W        W88298  24.673  43.049   2.666
15874W        W88299  35.870  41.483  11.505
15875W        W88300  11.277   7.124   1.919
15876W        W88301   6.695  27.134  12.355
15877W        W88302  37.530  21.129  12.906
15878W        W88303  28.061  13.877   0.953
15879W        W88304   9.586   1.311  10.831
15880W        W88305  38.854  16.506   4.546
15881W        W88306  40.984  36.106   0.200
15882W        W88307  12.806  38.859  11.940
15883W        W88308  16.643   9.636  11.161
15884W        W88309   9.606  11.718  14.004
15885W        W88310  19.298  16.692   0.411
15886W        W88311  22.031  22.546  14.201
15887W        W88312  22.796  38.586  13.981
15888W        W88313  34.616  10.840   3.148
15889W        W88314  16.237  35.437   3.754
15890W        W88315  10.198  39.565  14.280
15891W        W88316  24.732  20.025  11.167
15892W        W88317   0.825   7.360  10.688
15893W        W88318  40.919   6.191  13.078
15894W        W88319  37.581  24.702  12.944
15895W        W88320  42.975  37.614   2.427
15896W        W88321  32.020  31.613   2.862
15897W        W88322  35.156  22.288   2.670
15898W        W88323  42.860  19.765   4.811
15899W        W88324  30.972  33.142   4.658
15900W        W88325   6.772  30.296  12.225
15901W        W88326  42.610  21.692  12.596
15902W        W88327  16.197   5.663   0.450
15903W        W88328  23.949  18.824   0.674
15904W        W88329  12.030  38.978  11.520
15905W        W88330  24.051  44.386   3.234
15906W        W88331   5.272  42.487  13.447
15907W        W88332   4.239  43.030  12.511
15908W        W88333  28.252  25.765   2.733
15909W        W88334  11.203   7.422  12.881
15910W        W88335  16.513  44.395   1.997
15911W        W88336  10.825  40.868   0.998
15912W        W88337  15.891  26.054   4.258
15913W        W88338  10.779  32.521   1.873
15914W        W88339  27.600  40.729   4.845
15915W        W88340  32.927  17.303   4.543
15916W        W88341  33.970   3.491   0.379
15917W        W88342  43.319  15.850   1.716
15918W        W88343  44.346  27.873   0.413
15919W        W88344  38.150  11.096  11.202
15920W        W88345  15.594   2.473   4.953
15921W        W88346  32.442  28.571  13.110
15922W        W88347   6.443  37.915   4.968
15923W        W88348  12.092  22.020  10.473
15924W        W88349  37.433   4.229   4.325
15925W        W88350   9.377  10.074   4.356
15926W        W88351  27.379   3.672  14.473
15927W        W88352  30.654  43.835  10.562
15928W        W88353  13.777  10.669  12.635
15929W        W88354  12.150  19.062  13.349
15930W        W88355  13.083  27.118  10.623
15931W        W88356  44.592  23.458   2.305
15932W        W88357  11.363  27.894  10.751
15933W        W88358  34.100  23.081  12.426
15934W        W88359  25.187  15.775  14.462
15935W        W88360  18.048  30.050   2.394
15936W        W88361  40.929  17.670  13.625
15937W        W88362  16.403  24.359   0.230
15938W        W88363  14.389  12.887   0.873
15939W        W88364  26.495  30.773   3.055
15940W        W88365  44.954  23.276  14.424
15941W        W88366   1.813  26.420  13.436
15942W        W88367  14.441   4.373   1.753
15943W        W88368  13.557   9.489  11.567
15944W        W88369  19.153  40.612   1.799
15945W        W88370  41.264  40.523  13.520
15946W        W88371  25.685  25.192  11.491
15947W        W88372  14.273  42.589   1.698
15948W        W88373  32.496  17.801   3.588
15949W        W88374  12.707  18.032   2.576
15950W        W88375  30.579  11.201   0.558
15951W        W88376  20.104   9.942  10.996
15952W        W88377  40.701  28.865   1.139
15953W        W88378  12.000  31.152   0.371
15954W        W88379  16.662  27.968  14.566
15955W        W88380   6.684  28.757  11.978
15956W        W88381   0.897  15.536  12.797
15957W        W88382  30.676  19.659  12.059
15958W        W88383   8.760  32.222  14.357
15959W        W88384  43.363   7.687  10.925
15960W        W88385   5.647   9.518   4.119
15961W        W88386  20.710  44.196   0.934
15962W        W88387   4.875  26.487  14.398
15963W        W88388  10.112   7.575  10.578
15964W        W88389  44.687  29.973   3.358
15965W        W88390  39.598  16.530   3.224
15966W        W88391  11.863   5.691  11.081
15967W        W88392   3.430  39.311   1.782
15968W        W88393   2.038   4.643  12.108
15969W        W88394  31.520  32.915   3.740
15970W        W88395  27.473  25.027   3.816
15971W        W88396  20.594  28.523  10.586
15972W        W88397  12.603  43.065   2.474
15973W        W88398  43.648  10.232   4.691
15974W        W88399  12.085  40.013   4.902
15975W        W88400  33.049  34.848   3.426
15976W        W88401   4.798  11.060  12.437
15977W        W88402   3.340  44.464  11.440
15978W        W88403  10.192  19.539   3.798
15979W        W88404  40.412  19.590   2.915
15980W        W88405  20.691  16.141  13.990
15981W        W88406  35.347   8.649  13.327
15982W        W88407  24.589  29.984   0.542
15983W        W88408  10.093  44.068  10.642
15984W        W88409  40.438   3.972  12.124
15985W        W88410  30.179   7.200   4.402
15986W        W88411  42.221  29.942   0.980
15987W        W88412  14.742  42.539  14.745
15988W        W88413   2.276  24.753   3.430
15989W        W88414  43.844  44.314   1.463
15990W        W88415   7.760   1.670  14.897
15991W        W88416  12.855  12.794   0.782
15992W        W88417  41.667   8.090   5.067
15993W        W88418  24.916  12.739  10.686
15994W        W88419  21.688  36.305   2.654
15995W        W88420  17.309   7.695  12.825
15996W        W88421  28.530  14.136   4.183
15997W        W88422  44.385  23.302  12.044
15998W        W88423   1.738   4.514   4.534
15999W        W88424  12.819  16.370  13.699
16000W        W88425  29.171  29.677   0.422
16001W        W88426  43.312  40.032  11.680
16002W        W88427  28.161  11.235  10.605
16003W        W88428  30.375  21.863  14.796
16004W        W88429  42.825   2.307  12.870
16005W        W88430  38.594  27.224   2.829
16006W        W88431  13.157  39.074  14.898
16007W        W88432   2.879  19.886  11.099
16008W        W88433  25.828  36.471   4.071
16009W        W88434   4.425  23.042   4.522
16010W        W88435   8.621  38.290  10.179
16011W        W88436  21.211  38.922   0.407
16012W        W88437  33.182  15.164  12.850
16013W        W88438   2.488  33.646  12.614
16014W        W88439  28.008  25.239   1.823
16015W        W88440   2.905  10.212  11.872
16016W        W88441  41.033  30.578   2.023
16017W        W88442  19.176   3.585   2.944
16018W        W88443  26.741   6.150   2.327
16019W        W88444   1.819  40.865   2.175
16020W        W88445   0.844   9.567   4.147
16021W        W88446  38.785  12.063   1.259
16022W        W88447  19.539  33.215   2.016
16023W        W88448  14.555  32.807   0.256
16024W        W88449   2.878  19.408  13.450
16025W        W88450  28.198  38.565  11.556
16026W        W88451   7.932  11.772   0.347
16027W        W88452  23.099  35.104  12.425
16028W        W88453  38.923  10.558   4.160
16029W        W88454  23.672  19.672  13.847
16030W        W88455  22.973  23.486  12.996
16031W        W88456   5.455  23.470   2.540
16032W        W88457  43.013   0.195  14.832
16033W        W88458  22.164  26.596   3.746
16034W        W88459  43.380   9.201   0.882
16035W        W88460  17.044  31.890  10.216
16036W        W88461  41.294  33.975  13.353
16037W        W88462  16.050  18.340   5.152
16038W        W88463  33.925  35.364   3.774
16039W        W88464  42.192  28.900  10.770
16040W        W88465  41.544  32.236   4.279
16041W        W88466  32.873  26.884  12.077
16042W        W88467  34.897  33.908   2.796
16043W        W88468  23.771  44.866  10.312
16044W        W88469  44.521  18.716  12.015
16045W        W88470  28.554  36.020   4.750
16046W        W88471  14.989  33.619   0.632
16047W        W88472  44.446   0.067   4.634
16048W        W88473  10.635  24.339  12.308
16049W        W88474  31.457  36.655  13.855
16050W        W88475   0.602   3.405   3.782
16051W        W88476  29.869   3.862   0.419
16052W        W88477  40.859  25.068   2.937
16053W        W88478  36.532  32.926  14.441
16054W        W88479  37.994   5.644   2.157
16055W        W88480  21.029  29.176   1.285
16056W        W88481  34.325  21.036   2.745
16057W        W88482  12.062   7.879   2.819
16058W        W88483  23.497  30.944   2.254
16059W        W88484  26.952  42.032   2.266
16060W        W88485  41.361  35.825   2.498
16061W        W88486  40.724  19.809   3.319
16062W        W88487  37.879  34.488   0.431
16063W        W88488  27.983  29.495  14.864
16064W        W88489  26.548  19.299  13.389
16065W        W88490  25.174  13.088   2.791
16066W        W88491   0.052   6.556  11.088
16067W        W88492  20.635   7.343  12.030
16068W        W88493  12.108  38.825   0.467
16069W        W88494  30.387  41.155  13.653
16070W        W88495  33.616  36.921   4.863
16071W        W88496  36.076   9.262  14.887
16072W        W88497   0.505  25.671   2.970
16073W        W88498  38.805   2.314   4.117
16074W        W88499   1.525  24.594   0.583
16075W        W88500  40.054  13.263  14.446
16076W        W88501  17.142  29.975   2.620
16077W        W88502  18.697  19.105   1.113
16078W        W88503  11.796   8.826   1.368
16079W        W88504  17.253  32.866   1.842
16080W        W88505  36.966   3.837  11.107
16081W        W88506  20.735  36.104  14.475
16082W        W88507  22.101  21.260  11.559
16083W        W88508   9.695  33.616   4.155
16084W        W88509  23.522  29.112   3.557
16085W        W88510  19.674   7.250  14.742
16086W        W88511   2.914  42.944   4.602
16087W        W88512  38.862  42.727   1.247
16088W        W88513   8.048  18.388  13.887
16089W        W88514  24.052  22.432   3.800
16090W        W88515   0.923  26.745  12.430
16091W        W88516  10.114  39.821   0.792
16092W        W88517   4.763   5.383   1.856
16093W        W88518  41.848  39.342  14.487
16094W        W88519  13.690  36.947   2.330
16095W        W88520  37.394  36.081   9.845
16096W        W88521  36.644  34.266  14.902
16097W        W88522  17.227  19.996   4.505
16098W        W88523  10.797  15.574   1.811
16099W        W88524  17.269  38.614   1.909
16100W        W88525   8.176  12.844  14.439
16101W        W88526  27.079  22.090  12.668
16102W        W88527  40.406   0.484   4.390
16103W        W88528  40.480   6.279   0.876
16104W        W88529   2.933  41.397  14.851
16105W        W88530   7.371   2.213   1.491
16106W        W88531   6.659  19.294   4.646
16107W        W88532  14.412  10.199   1.472
16108W        W88533  18.252   7.240   1.914
16109W        W88534  33.558   2.414  11.914
16110W        W88535  43.000  23.006   4.411
16111W        W88536  24.194   0.369   4.748
16112W        W88537  33.764  38.235   0.984
16113W        W88538  17.076  29.170  13.402
16114W        W88539  28.230  33.207   0.858
16115W        W88540  26.970  30.144   4.464
16116W        W88541  15.346  23.584   1.912
16117W        W88542   9.795  44.713   0.773
16118W        W88543   8.439  18.292  10.567
16119W        W88544   8.282  38.572  11.973
16120W        W88545  41.150   5.118   2.136
16121W        W88546  43.250  28.055   1.890
16122W        W88547  25.531  39.883  13.554
16123W        W88548   8.240  28.791  11.078
16124W        W88549  34.667   1.857  12.246
16125W        W88550  19.013  43.001   3.619
16126W        W88551  42.105  28.945  12.657
16127W        W88552  41.531   3.346  13.758
16128W        W88553  32.082  15.795   1.223
16129W        W88554  30.880  13.722  10.739
16130W        W88555   0.887  42.541   0.867
16131W        W88556   9.329  25.229  11.938
16132W        W88557   0.865   6.483   3.076
16133W        W88558  26.568  42.737  12.900
16134W        W88559   8.691  32.442  11.613
16135W        W88560  22.100  39.950   0.006
16136W        W88561  18.655  32.189   3.257
16137W        W88562   0.806   2.310  11.938
16138W        W88563  22.420   8.331   1.493
16139W        W88564  29.877  32.788  14.774
16140W        W88565  24.978  17.450   0.290
16141W        W88566  44.892  16.798   4.547
16142W        W88567  11.475   1.444   4.037
16143W        W88568  37.462  12.907  12.541
16144W        W88569  30.866  15.291  14.782
16145W        W88570  30.707  30.077   2.170
16146W        W88571  11.645   7.584   2.781
16147W        W88572   9.879  40.566   4.594
16148W        W88573  42.315  28.033   1.607
16149W        W88574   2.359  39.016   3.699
16150W        W88575  42.024  28.627   2.141
16151W        W88576  14.148  37.304   0.065
16152W        W88577  20.785   5.121  10.637
16153W        W88578  22.066  42.192  13.978
16154W        W88579  38.628  27.170  11.925
16155W        W88580   3.966   0.787   3.240
16156W        W88581  39.776  38.401   3.132
16157W        W88582  21.721   4.514  10.883
16158W        W88583  41.957  19.659   1.154
16159W        W88584   4.309   2.269  13.977
16160W        W88585   0.474  26.448   2.481
16161W        W88586  40.542  39.013  13.119
16162W        W88587  21.236  26.905   2.232
16163W        W88588  38.228   9.295   4.589
16164W        W88589  41.900  15.053   3.748
16165W        W88590  37.895  40.438  11.010
16166W        W88591  22.625  38.860   3.919
16167W        W88592  16.632  15.552  14.340
16168W        W88593   1.891  23.513  11.099
16169W        W88594  19.329   5.193  13.858
16170W        W88595   9.783   2.514  11.230
16171W        W88596  31.493  42.777   2.297
16172W        W88597   8.296  33.712  13.520
16173W        W88598  32.371  26.826  12.026
16174W        W88599   7.312  21.206   0.227
16175W        W88600  26.675   4.272   4.527
16176W        W88601  26.129  34.894  11.070
16177W        W88602  32.422  19.790  12.786
16178W        W88603  26.687  36.487  13.270
16179W        W88604  40.097   5.272   1.721
16180W        W88605  42.833  19.156  13.794
16181W        W88606  22.989  33.887  13.902
16182W        W88607   3.373   4.475   4.143
16183W        W88608  24.838  17.135  14.381
16184W        W88609  43.545   9.570  14.462
16185W        W88610   5.803   5.856  13.621
16186W        W88611  36.917  19.692   4.105
16187W        W88612  23.923  36.062   5.006
16188W        W88613  20.253   4.553   3.636
16189W        W88614  22.197  24.718   1.459
16190W        W88615  37.443  36.937   3.908
16191W        W88616  37.423   9.235  11.159
16192W        W88617   1.818  25.612   1.118
16193W        W88618  27.151  37.145  13.569
16194W        W88619   6.905  20.987   3.560
16195W        W88620  23.047  30.829  14.371
16196W        W88621   1.904  18.301  13.350
16197W        W88622  11.133  29.041  14.942
16198W        W88623  13.308  26.578  10.619
16199W        W88624  10.185  13.561  14.374
16200W        W88625  11.662   2.830   1.662
16201W        W88626  31.094  13.009   9.988
16202W        W88627  39.900  42.294   4.169
16203W        W88628  32.233  12.169   2.087
16204W        W88629   0.129  30.859  12.102
16205W        W88630  27.900  10.155  14.837
16206W        W88631  16.598  14.191  10.723
16207W        W88632  40.867  11.464  14.949
16208W        W88633  18.149  44.960  13.556
16209W        W88634   1.404  39.852  12.055
16210W        W88635  24.919  29.793  13.839
16211W        W88636  33.647  33.047  12.950
16212W        W88637  21.274   7.717  10.819
16213W        W88638  39.223  16.121   0.049
16214W        W88639  36.862  41.770   2.168
16215W        W88640  40.267  12.105   1.272
16216W        W88641  29.195  22.678   4.168
16217W        W88642  27.564  14.187   3.067
16218W        W88643  11.125  27.082   4.161
16219W        W88644  22.186   0.993   2.605
16220W        W88645  21.834  22.193   0.049
16221W        W88646   2.475   0.548   4.233
16222W        W88647  14.244  10.917   3.778
16223W        W88648  37.332  32.366   2.156
16224W        W88649  28.547  22.605   4.789
16225W        W88650  15.589   9.676   3.644
16226W        W88651  19.140   4.577  11.612
16227W        W88652  37.163  35.090   4.247
16228W        W88653  16.371   2.462   1.809
16229W        W88654  43.456   5.181  10.944
16230W        W88655   3.358  13.748  10.676
16231W        W88656  25.915  19.820  10.746
16232W        W88657  31.956  34.135   4.406
16233W        W88658  14.928  33.425   2.125
16234W        W88659  25.940  17.225   0.063
16235W        W88660  43.393  36.997  14.967
16236W        W88661  43.914  36.569  12.375
16237W        W88662   7.690  11.480   2.480
16238W        W88663   2.330  38.896  12.199
16239W        W88664   0.320  29.381   2.394
16240W        W88665  28.709  28.274   4.170
16241W        W88666  30.007  38.385   3.775
16242W        W88667  24.276   5.420  10.869
16243W        W88668   0.970  10.687  10.475
16244W        W88669  25.909   6.003   5.099
16245W        W88670  16.737  38.569  10.601
16246W        W88671  15.466   7.265   1.785
16247W        W88672  18.798  43.581  11.838
16248W        W88673  42.932   7.756   1.215
16249W        W88674  26.581  34.721   4.147
16250W        W88675  40.874   1.899  10.637
16251W        W88676  18.581  38.427  10.766
16252W        W88677   5.440  33.426  13.922
16253W        W88678  10.715  28.934   2.745
16254W        W88679  41.442  32.018   2.405
16255W        W88680  15.539  39.869   0.821
16256W        W88681  42.744   8.377   2.809
16257W        W88682  22.725   2.805   0.777
16258W        W88683   2.746  27.649  14.823
16259W        W88684  42.202  12.783   1.728
16260W        W88685  32.276  44.370   4.510
16261W        W88686  11.737  20.227  14.921
16262W        W88687  41.506   3.463   3.786
16263W        W88688  41.508  19.264  13.586
16264W        W88689  10.725  11.752  14.293
16265W        W88690  27.766  36.866   4.225
16266W        W88691  38.981   2.523  10.146
16267W        W88692   2.992   0.567  14.094
16268W        W88693  20.233  31.194  10.393
16269W        W88694  26.165  10.977   1.371
16270W        W88695  10.246  26.438   1.788
16271W        W88696  21.507  23.271   3.303
16272W        W88697  12.448   5.676  11.544
16273W        W88698  40.478   5.190  11.667
16274W        W88699   7.002  43.144   2.934
16275W        W88700  11.161  30.151   3.960
16276W        W88701   1.719  23.071  11.601
16277W        W88702  28.400  33.409  10.256
16278W        W88703  18.868   5.393   2.707
16279W        W88704  36.233  37.319   2.158
16280W        W88705  31.620  12.288  13.190
16281W        W88706  39.312  33.027   0.009
16282W        W88707  14.300  11.873   4.665
16283W        W88708  18.254  18.774   0.423
16284W        W88709  23.190   8.117   0.349
16285W        W88710   1.981  12.224  12.104
16286W        W88711  31.533  27.505  12.855
16287W        W88712  34.449   5.322   2.508
16288W        W88713   6.916  18.102  12.104
16289W        W88714  40.379   9.651   0.715
16290W        W88715  41.956  34.474   2.796
16291W        W88716  11.842  39.043  14.400
16292W        W88717  27.344   2.948  14.964
16293W        W88718  40.698  44.030   5.049
16294W        W88719  19.025  13.721  13.013
16295W        W88720  38.343  39.425  11.511
16296W        W88721  12.790  39.769  12.430
16297W        W88722  23.197   2.887   1.014
16298W        W88723  13.126  18.576  10.823
16299W        W88724  28.129  27.636  13.084
16300W        W88725  20.517  35.107   3.945
16301W        W88726  44.355  39.775  12.358
16302W        W88727  35.893  19.772   0.540
16303W        W88728  20.466  10.299   3.718
16304W        W88729  10.543   8.359  10.620
16305W        W88730  24.426  19.478  11.890
16306W        W88731  13.098  29.623  10.665
16307W        W88732  43.106  30.914   2.962
16308W        W88733  42.216  39.340  13.301
16309W        W88734   6.153  17.813   3.888
16310W        W88735  18.773  36.158   4.710
16311W        W88736  37.488   4.784   0.824
16312W        W88737   7.195   0.202  10.744
16313W        W88738  14.790  34.626   3.959
16314W        W88739  40.103  23.533  11.921
16315W        W88740  38.913   3.869   4.205
16316W        W88741   3.001  20.942  14.921
16317W        W88742   5.349  14.454  12.054
16318W        W88743  35.947  19.552   3.121
16319W        W88744   5.030  25.270   1.610
16320W        W88745  15.623  37.930   1.352
16321W        W88746  14.270   5.747  10.774
16322W        W88747  40.367  34.814  10.759
16323W        W88748   3.231  13.260   1.219
16324W        W88749  38.371  17.891   2.869
16325W        W88750  10.863  42.827  12.540
16326W        W88751  16.477  20.296  12.392
16327W        W88752   6.022  14.699  13.731
16328W        W88753   1.742  40.033  13.783
16329W        W88754  36.394   3.157   3.712
16330W        W88755  42.877  21.571  11.092
16331W        W88756  24.239  29.932   3.635
16332W        W88757  15.882  14.635   1.973
16333W        W88758  26.169  17.521   3.591
16334W        W88759  12.081  43.427   4.601
16335W        W88760  11.883  18.619  13.303
16336W        W88761  20.447   2.032  14.910
16337W        W88762  31.421  15.278   4.944
16338W        W88763  30.213  32.649   5.059
16339W        W88764  18.716  13.350   2.297
16340W        W88765  11.913   0.467  11.547
16341W        W88766  39.977  27.211   1.859
16342W        W88767  28.726  18.766  11.579
16343W        W88768   8.693  18.172   4.791
16344W        W88769  10.345   1.955   3.601
16345W        W88770  20.746  23.210   4.639
16346W        W88771  32.840  26.896  14.484
16347W        W88772  38.148  23.982  13.900
16348W        W88773  18.732  27.211  13.435
16349W        W88774  38.320  39.954   0.807
16350W        W88775  29.048  27.021   0.030
16351W        W88776  10.242  25.615   0.358
16352W        W88777  41.984  16.809  10.656
16353W        W88778  30.153   9.436  12.198
16354W        W88779  40.837  38.477  14.057
16355W        W88780  17.126  27.505   4.375
16356W        W88781  28.520  32.640  11.163
16357W        W88782  41.339  30.662  14.778
16358W        W88783  29.875  30.627  10.598
16359W        W88784  41.603   7.268  10.641
16360W        W88785   1.030  26.603  11.488
16361W        W88786  33.170   2.248   3.122
16362W        W88787   9.584  19.117  14.830
16363W        W88788  19.131  12.820  10.697
16364W        W88789  21.211  23.525  11.493
16365W        W88790   2.743   2.427  14.328
16366W        W88791  38.334  31.011   4.498
16367W        W88792  38.353  29.169   5.050
16368W        W88793   1.986  41.912   1.815
16369W        W88794  22.195  27.945  14.726
16370W        W88795   4.901  27.015   1.920
16371W        W88796  39.976  16.269  10.499
16372W        W88797  12.709   6.332  10.996
16373W        W88798   1.437  41.431  14.064
16374W        W88799  36.638  39.317  14.373
16375W        W88800  37.868   5.891  14.797
16376W        W88801  23.186  40.602  13.900
16377W        W88802  26.640  32.496   5.070
16378W        W88803  43.456  27.287  12.371
16379W        W88804  15.725  41.326   3.141
16380W        W88805   1.170  26.663  12.874
16381W        W88806  34.654  17.005   2.490
16382W        W88807  16.311  18.681  11.944
16383W        W88808  44.244  28.187   0.827
16384W        W88809   7.173   9.620   2.710
16385W        W88810  43.976  29.158   2.825
16386W        W88811  32.023  35.078   4.383
16387W        W88812  24.639  35.318   4.736
16388W        W88813  33.473  21.771   2.257
16389W        W88814  10.623  15.268  12.103
16390W        W88815   2.367   2.533  12.961
16391W        W88816   1.389  35.535   4.111
16392W        W88817  26.909  36.452  11.546
16393W        W88818  38.521  13.131   1.208
16394W        W88819  31.469   1.638   1.421
16395W        W88820  36.154  39.624   2.725
16396W        W88821  18.811  13.217   4.033
16397W        W88822  17.679  25.430   1.698
16398W        W88823  42.887   3.839   3.690
16399W        W88824   4.671  18.194   4.842
16400W        W88825  35.642  28.757  10.753
16401W        W88826  12.190  35.402  11.803
16402W        W88827  22.435   9.376   1.416
16403W        W88828  11.173  19.378  10.629
16404W        W88829  22.209   4.492   0.254
16405W        W88830  32.883  19.535  10.572
16406W        W88831  17.647  16.303   3.753
16407W        W88832  20.742  31.364  11.092
16408W        W88833  19.205  17.472   3.880
16409W        W88834  33.685  20.153  13.539
16410W        W88835  40.206  14.152   0.359
16411W        W88836  13.763  34.276   3.364
16412W        W88837  15.014  12.784  12.470
16413W        W88838   0.156  19.598  11.943
16414W        W88839  24.985   2.123   3.516
16415W        W88840  33.093  17.727  13.705
16416W        W88841  19.110  38.045   3.355
16417W        W88842  26.823  25.155  13.598
16418W        W88843  43.459  34.915  13.643
16419W        W88844  13.602  23.690   2.552
16420W        W88845  42.558  34.988   4.629
16421W        W88846   7.648  20.744   4.283
16422W        W88847  25.168  41.812   0.219
16423W        W88848  43.153   3.994   1.462
16424W        W88849  35.386   4.420  11.919
16425W        W88850  10.129  43.071  10.446
16426W        W88851   9.129  44.871  13.012
16427W        W88852  31.863  10.070  11.043
16428W        W88853  20.799  39.874   3.262
16429W        W88854  12.138  32.517  10.684
16430W        W88855  16.057  30.064  13.045
16431W        W88856  31.759  34.472  14.844
16432W        W88857  22.089  23.526   3.260
16433W        W88858  41.435  25.229   0.700
16434W        W88859  44.766  16.941  13.817
16435W        W88860  20.582   0.515  11.619
16436W        W88861  29.730  42.280   1.831
16437W        W88862  21.512  25.720   3.291
16438W        W88863  18.104  16.721   1.827
16439W        W88864  38.551   4.177  14.881
16440W        W88865  39.327  11.293   1.651
16441W        W88866  14.775  13.346  10.711
16442W        W88867  21.191  19.647  11.233
16443W        W88868  11.685  31.961  11.104
16444W        W88869  32.431  42.625   4.181
16445W        W88870   2.291  31.313  11.981
16446W        W88871  35.338  21.683   4.650
16447W        W88872  40.458  34.417  14.361
16448W        W88873  18.939  21.140   4.095
16449W        W88874  22.735  31.324  14.770
16450W        W88875  36.304   2.431   4.778
16451W        W88876   2.857  35.431   2.267
16452W        W88877  25.721  44.149   1.377
16453W        W88878  19.249   1.322  14.399
16454W        W88879  24.924  20.789  13.569
16455W        W88880   4.216  10.833  12.907
16456W        W88881   1.319  11.673   1.742
16457W        W88882  32.093  12.106   2.707
16458W        W88883  26.511  37.484   1.851
16459W        W88884  40.212   1.197  10.519
16460W        W88885  24.595  13.732   3.337
16461W        W88886  22.216  42.428  12.496
16462W        W88887   6.205  40.272   0.087
16463W        W88888   4.406   7.718   4.310
16464W        W88889  25.981  19.777   2.638
16465W        W88890  43.374  27.963   1.351
16466W        W88891  15.538   7.209  12.023
16467W        W88892  44.371  14.719  13.456
16468W        W88893  20.265  44.932   4.096
16469W        W88894  11.824  26.629  14.968
16470W        W88895  44.232  22.993   3.685
16471W        W88896  41.280  20.175  13.767
16472W        W88897   6.143  26.167  11.610
16473W        W88898  10.335  33.163  14.217
16474W        W88899  15.095  31.455  11.166
16475W        W88900  16.651   1.846   3.327
16476W        W88901  16.536  19.994   1.509
16477W        W88902  23.161  23.572   4.638
16478W        W88903  24.760  33.742   1.808
16479W        W88904   3.255  19.966   3.724
16480W        W88905   9.893   3.419  14.048
16481W        W88906   7.636  15.974   2.254
16482W        W88907  13.637  18.106  11.469
16483W        W88908  26.108  25.735   4.546
16484W        W88909  31.648  18.143   3.296
16485W        W88910  44.856  22.699   0.407
16486W        W88911  33.497  39.053  10.230
16487W        W88912  11.616  12.104   0.585
16488W        W88913  15.655  21.665  12.833
16489W        W88914   3.954   0.898   4.131
16490W        W88915   0.316  40.429  14.918
16491W        W88916  10.323  32.074   0.691
16492W        W88917  27.500  12.043  11.615
16493W        W88918  39.443  42.566   3.301
16494W        W88919  39.045   1.259  13.431
16495W        W88920  29.022  31.429   4.583
16496W        W88921  44.499  24.875  10.210
16497W        W88922  41.649  14.356  11.100
16498W        W88923  38.076  17.242  10.986
16499W        W88924  33.864  43.127  11.532
16500W        W88925  37.061   3.061  14.586
16501W        W88926   3.058  44.670  13.062
16502W        W88927  44.854   1.865   3.283
16503W        W88928  11.322  23.155  10.653
16504W        W88929  34.491  34.953   2.088
16505W        W88930  16.843  27.919  11.505
16506W        W88931  20.258  14.247   2.187
16507W        W88932  13.006   7.142   3.592
16508W        W88933  11.360  22.458  14.221
16509W        W88934  17.143  31.523   2.948
16510W        W88935  31.209   1.376  13.370
16511W        W88936   9.541  33.901  13.883
16512W        W88937  14.063  37.013  13.359
16513W        W88938  44.278  22.533  14.418
16514W        W88939   4.289   1.441  11.895
16515W        W88940  11.595   4.816  10.738
16516W        W88941  35.384  31.039   4.603
16517W        W88942  34.810  44.845   0.427
16518W        W88943  22.316  18.558   1.399
16519W        W88944  37.588  21.252   0.955
16520W        W88945   0.927  13.382   3.803
16521W        W88946  37.510   1.517  14.474
16522W        W88947  33.659  20.985   1.813
16523W        W88948  23.335  13.603   2.987
16524W        W88949  44.264  22.257   4.226
16525W        W88950  10.671  30.207   1.821
16526W        W88951  36.137  35.820   3.941
16527W        W88952  42.932  17.174   1.796
16528W        W88953  21.550  31.217   2.632
16529W        W88954  32.917  24.038  12.918
16530W        W88955  34.361   7.321  10.519
16531W        W88956   4.064  41.408  11.072
16532W        W88957   5.779  21.039   1.395
16533W        W88958   3.190  44.362  11.951
16534W        W88959  38.856  26.029   3.686
16535W        W88960  22.062  35.594  12.913
16536W        W88961  11.361  22.409   2.213
16537W        W88962   8.688  18.065  14.015
16538W        W88963  31.929   6.457   4.217
16539W        W88964   3.215  10.487   1.416
16540W        W88965  37.700  24.192   5.047
16541W        W88966  28.615  14.414   4.625
16542W        W88967  12.673  31.584  13.937
16543W        W88968  42.403  20.154  12.439
16544W        W88969  42.117  11.739  14.014
16545W        W88970   3.335  13.366  13.989
16546W        W88971  40.251   3.080   2.425
16547W        W88972  10.630  13.685   3.592
16548W        W88973  36.999  32.525   3.616
16549W        W88974  25.353  25.880   0.395
16550W        W88975  22.463   0.125   0.169
16551W        W88976   0.767  32.666  11.958
16552W        W88977  14.760  18.258  10.513
16553W        W88978  12.762   3.762  10.781
16554W        W88979  14.853   3.885   3.366
16555W        W88980  36.000  42.966  13.969
16556W        W88981  35.371   6.637   0.962
16557W        W88982  33.109  12.229   4.158
16558W        W88983  39.276  23.642   2.377
16559W        W88984  29.881   7.257   2.199
16560W        W88985  22.189   6.498  14.382
16561W        W88986  19.774   2.736   2.138
16562W        W88987   9.724   6.740   1.703
16563W        W88988  11.836  29.073   1.471
16564W        W88989  25.426  34.601   2.001
16565W        W88990  40.970  30.085   0.280
16566W        W88991  41.058  28.702   4.247
16567W        W88992  20.473  36.036   2.779
16568W        W88993  41.617   7.909  14.853
16569W        W88994  36.433  39.906   2.273
16570W        W88995  34.197   3.130  13.908
16571W        W88996  24.741  10.689  14.860
16572W        W88997   8.362   4.180  13.859
16573W        W88998  14.176  33.991   3.194
16574W        W88999  42.022   3.398  12.862
16575W        W89000  18.624   0.006  13.895
16576W        W89001  37.320   9.815  12.139
16577W        W89002  10.730  22.235   1.819
16578W        W89003  43.338  24.472   3.917
16579W        W89004  27.570   2.219   3.437
16580W        W89005   4.702  44.338  11.993
16581W        W89006  34.085  34.574  13.466
16582W        W89007  43.887  38.287  14.911
16583W        W89008  35.272  28.689   3.789
16584W        W89009  13.852  11.278  11.443
16585W        W89010  11.821  43.666  11.135
16586W        W89011  39.097  39.571  11.000
16587W        W89012  28.140  23.293  14.163
16588W        W89013  32.187  24.105   0.929
16589W        W89014   1.996  42.375  13.530
16590W        W89015  25.726  11.815   0.408
16591W        W89016  12.218   3.477  11.381
16592W        W89017  35.604  12.103   1.921
16593W        W89018  26.633   4.520   4.063
16594W        W89019  20.580  12.303  14.518
16595W        W89020  42.377   8.637   3.765
16596W        W89021  18.644  14.283  10.615
16597W        W89022  15.293   5.727  14.058
16598W        W89023  35.604  28.840   4.161
16599W        W89024  41.322   4.284   1.164
16600W        W89025  35.126  12.802  10.764
16601W        W89026  34.728   1.469   0.916
16602W        W89027  23.821  15.871  10.997
16603W        W89028  33.562  17.292  12.472
16604W        W89029  35.466   7.558  11.194
16605W        W89030  18.167  24.819  12.095
16606W        W89031  22.223  10.738   1.518
16607W        W89032  28.052  36.618  13.320
16608W        W89033  25.432  15.817  13.963
16609W        W89034   7.864  27.912  14.809
16610W        W89035  24.576  24.643   3.791
16611W        W89036  23.306  23.087  11.634
16612W        W89037  24.420   6.844  12.974
16613W        W89038  44.704   6.966  11.075
16614W        W89039  29.212  41.855  12.074
16615W        W89040  19.532  22.162  12.373
16616W        W89041   5.666  35.097  12.018
16617W        W89042  37.347  30.129   1.921
16618W        W89043  20.503  43.853   1.270
16619W        W89044  26.934   6.249   0.335
16620W        W89045  29.561  28.099   4.514
16621W        W89046  29.041  38.786   3.532
16622W        W89047  26.318  23.015   3.290
16623W        W89048  28.192  22.557  11.124
16624W        W89049   3.728  35.453   4.225
16625W        W89050   1.678  24.842   4.034
16626W        W89051  27.282  12.616   3.961
16627W        W89052  38.560  22.965  12.773
16628W        W89053   1.864  26.171   0.732
16629W        W89054  44.467  24.319  12.068
16630W        W89055  14.302  28.167  12.030
16631W        W89056  22.625   0.236  12.969
16632W        W89057  17.868  11.917  12.025
16633W        W89058  19.846  40.921  13.698
16634W        W89059   5.131  12.198   4.132
16635W        W89060  34.123   0.719   3.658
16636W        W89061  29.102  22.738  12.462
16637W        W89062  40.310  24.039  13.541
16638W        W89063  40.242  10.998   3.562
16639W        W89064  11.646  14.191   4.662
16640W        W89065   2.446  18.583   2.707
16641W        W89066  25.475   8.300   1.226
16642W        W89067   8.254   4.485   1.360
16643W        W89068  42.511  20.249  14.928
16644W        W89069  14.095  33.390   4.791
16645W        W89070  35.281  42.410   1.606
16646W        W89071  31.705  16.584  14.867
16647W        W89072  41.994   3.902   2.272
16648W        W89073   6.796  19.747  13.990
16649W        W89074   1.035  32.082   1.904
16650W        W89075  35.849  32.974  14.775
16651W        W89076  26.552  30.941   2.565
16652W        W89077  40.449  30.716   4.128
16653W        W89078  26.033  13.643  14.034
16654W        W89079   6.511  40.368   2.371
16655W        W89080   2.372  13.000   3.305
16656W        W89081  34.980   8.430   3.739
16657W        W89082  44.927  29.560  11.297
16658W        W89083  24.683  37.016   3.669
16659W        W89084  20.833  19.192  11.568
16660W        W89085  43.661  41.023  12.946
16661W        W89086  33.182  37.551  10.697
16662W        W89087  10.740  30.150  14.783
16663W        W89088  36.562  31.704  13.922
16664W        W89089   1.575  36.316  12.620
16665W        W89090  36.924  26.126  10.623
16666W        W89091  32.445   4.923   1.398
16667W        W89092  10.658  37.513   4.480
16668W        W89093   0.465  21.165  11.501
16669W        W89094  18.534  44.331  14.510
16670W        W89095   6.196  21.200   2.210
16671W        W89096   0.197  28.982   1.434
16672W        W89097   4.242   1.718  14.596
16673W        W89098  36.404  16.514  13.400
16674W        W89099  44.779  43.214   4.623
16675W        W89100  32.945   5.820   0.664
16676W        W89101  34.485  18.870   1.313
16677W        W89102  34.659  29.849   0.489
16678W        W89103  40.744  33.897  14.436
16679W        W89104  12.635  23.265   3.141
16680W        W89105  13.265  23.231  14.662
16681W        W89106   7.837  41.292   1.705
16682W        W89107  43.118   7.275   4.462
16683W        W89108  38.049  29.493   1.859
16684W        W89109   2.763  27.972   3.309
16685W        W89110  42.509   3.872  10.743
16686W        W89111  20.193  22.623   3.437
16687W        W89112  26.592  15.369  13.813
16688W        W89113  40.395  29.618   0.686
16689W        W89114  22.237   8.811   1.413
16690W        W89115  34.726  24.439   1.905
16691W        W89116   5.859  22.220  12.438
16692W        W89117  20.076  10.228  10.075
16693W        W89118  41.125   4.424  14.410
16694W        W89119  35.929  16.354  13.492
16695W        W89120   1.707   6.024   3.545
16696W        W89121   3.306  34.936  11.936
16697W        W89122  24.923   5.802  10.243
16698W        W89123  19.566  16.555  11.203
16699W        W89124  29.185   1.416   4.701
16700W        W89125  24.798   5.780  13.154
16701W        W89126  28.138  31.884   2.274
16702W        W89127  38.344  24.099   0.355
16703W        W89128  30.392  29.136   4.062
16704W        W89129  19.571   0.509   2.288
16705W        W89130  14.304  31.844  13.784
16706W        W89131  32.925  44.435  12.431
16707W        W89132   5.286  30.120  12.001
16708W        W89133  20.343  38.029   0.563
16709W        W89134  38.392  21.457   3.389
16710W        W89135  19.275  28.991  14.353
16711W        W89136  37.931  39.092  14.561
16712W        W89137  15.141  39.143  14.819
16713W        W89138  43.400  28.109  10.870
16714W        W89139  26.959  28.144  14.296
16715W        W89140  34.276  32.536   4.117
16716W        W89141  42.838   8.407  13.075
16717W        W89142  25.607  22.762  13.461
16718W        W89143  15.277  20.845  10.345
16719W        W89144  19.075  38.835  13.300
16720W        W89145   5.812  27.726  14.928
16721W        W89146   4.903  37.791   3.475
16722W        W89147  18.821  19.942   0.968
16723W        W89148  26.931  24.668   2.869
16724W        W89149  12.369  19.098   4.085
16725W        W89150  33.650  42.476  14.860
16726W        W89151   7.172  28.958  11.933
16727W        W89152  43.747  13.924  14.033
16728W        W89153  31.380   1.966   3.766
16729W        W89154  37.194  31.304  13.045
16730W        W89155  13.736  26.962   1.907
16731W        W89156  17.207   1.118   3.138
16732W        W89157   3.491  32.979  13.976
16733W        W89158   7.522  11.209   1.128
16734W        W89159  28.595  27.725  12.852
16735W        W89160  36.807  33.809   4.595
16736W        W89161   7.374   9.625  11.930
16737W        W89162  31.967   1.499   1.685
16738W        W89163  18.044  26.563   0.514
16739W        W89164  28.103   3.739   0.237
16740W        W89165   8.851  15.205   4.501
16741W        W89166  21.812  35.006  11.006
16742W        W89167  28.206  44.293  12.759
16743W        W89168  33.049  22.598  12.917
16744W        W89169  23.997  13.805   2.288
16745W        W89170  38.572  39.374   2.815
16746W        W89171  22.542  26.059   3.774
16747W        W89172  26.004   5.617   4.590
16748W        W89173  19.709   8.245   4.625
16749W        W89174  23.995  30.908  11.017
16750W        W89175  27.099   8.722   3.674
16751W        W89176  34.621  10.100  13.350
16752W        W89177  37.104  37.908   2.260
16753W        W89178   3.512  17.181   2.760
16754W        W89179  16.107   1.693   2.284
16755W        W89180  33.631  26.204  13.065
16756W        W89181   9.122  25.097  11.071
16757W        W89182  30.287  38.874   0.419
16758W        W89183  11.747  20.477  14.477
16759W        W89184   8.437  15.180   3.539
16760W        W89185  25.697  44.183  12.580
16761W        W89186  23.516  44.898  14.860
16762W        W89187  37.970   7.555  10.354
16763W        W89188   1.079  30.504   0.793
16764W        W89189  29.164  44.890  12.007
16765W        W89190  24.122  35.128   0.004
16766W        W89191  44.282   6.909   0.035
16767W        W89192   6.910  28.504   4.099
16768W        W89193  14.283  31.576  10.981
16769W        W89194  28.734  20.313   2.014
16770W        W89195  12.069   6.474  11.502
16771W        W89196  21.227   6.981   0.395
16772W        W89197  24.156  41.220   2.867
16773W        W89198   7.859  10.843   0.922
16774W        W89199  44.246   7.777  11.548
16775W        W89200  24.129   2.720   3.654
16776W        W89201  14.834  44.123   1.721
16777W        W89202  33.577  14.852  12.457
16778W        W89203  25.760  31.639   2.844
16779W        W89204  33.385  14.274   0.767
16780W        W89205   3.874  14.008   1.370
16781W        W89206  27.558  43.604  14.328
16782W        W89207   5.264  10.289   2.458
16783W        W89208   8.696   7.766   1.028
16784W        W89209  22.550  22.588  10.707
16785W        W89210  26.263   5.962  12.798
16786W        W89211  22.480  11.626  11.721
16787W        W89212   2.705   7.941   1.760
16788W        W89213  26.589  23.234  13.169
16789W        W89214  13.115  10.547   1.657
16790W        W89215  38.627  33.969   1.441
16791W        W89216   6.037   1.730   0.350
16792W        W89217  23.995  23.482  12.377
16793W        W89218  14.604   1.136  13.017
16794W        W89219  19.029  23.433   4.373
16795W        W89220  11.149  10.858  14.010
16796W        W89221  42.988  35.055   0.830
16797W        W89222   4.337  20.362   3.235
16798W        W89223  20.226  13.311   4.883
16799W        W89224  24.687  16.023  11.017
16800W        W89225  21.223  40.775  10.644
16801W        W89226  21.269   9.807   3.623
16802W        W89227  41.914  22.935  13.427
16803W        W89228  29.599  28.960   4.674
16804W        W89229  32.965  43.618   1.276
16805W        W89230  18.790  28.492   2.749
16806W        W89231  24.080  21.546  13.520
16807W        W89232  17.105  33.026  13.783
16808W        W89233  11.186  34.299   1.737
16809W        W89234  25.603  19.133  11.580
16810W        W89235   4.141   8.639   4.792
16811W        W89236  16.939   5.384   1.851
16812W        W89237   0.460  29.665   2.837
16813W        W89238  20.645   3.371  11.100
16814W        W89239  20.630  24.628   4.766
16815W        W89240  18.103  36.849  13.545
16816W        W89241  38.843  18.912  10.552
16817W        W89242  38.225  14.647  12.965
16818W        W89243  38.265  44.372  11.033
16819W        W89244  24.590  21.256  10.541
16820W        W89245  24.024  32.483   3.461
16821W        W89246   2.350  19.507   3.700
16822W        W89247  17.291  40.594   0.357
16823W        W89248  26.465  43.543   1.232
16824W        W89249  16.881  33.129  14.235
16825W        W89250   0.973  38.792   4.878
16826W        W89251  10.772  39.194  12.826
16827W        W89252   6.414  32.995   0.730
16828W        W89253  31.386  12.648   0.597
16829W        W89254  35.315  26.225   1.483
16830W        W89255  29.222  44.838  12.524
16831W        W89256  34.857  32.334  11.094
16832W        W89257  15.787  32.731   2.336
16833W        W89258   8.775  33.857  13.498
16834W        W89259  32.152   3.739   5.105
16835W        W89260  26.597  20.766  12.519
16836W        W89261  16.028  14.333   0.382
16837W        W89262  40.526  34.477  11.147
16838W        W89263  31.069  44.997  11.948
16839W        W89264  32.673  26.833   3.159
16840W        W89265  14.218  32.139  11.594
16841W        W89266  15.260  34.928  12.446
16842W        W89267  10.699  35.800  14.904
16843W        W89268   5.703  35.101   0.923
16844W        W89269   2.388  34.635   0.412
16845W        W89270   1.206  43.759   0.432
16846W        W89271  14.799  32.934  13.070
16847W        W89272  43.786  13.190  12.609
16848W        W89273  42.902  24.728   0.393
16849W        W89274  25.985   8.893   1.957
16850W        W89275  11.827   1.392  13.760
16851W        W89276   5.127  18.055   4.621
16852W        W89277   5.919  43.146   1.967
16853W        W89278   0.869   0.749  13.095
16854W        W89279   8.055  34.413   5.647
16855W        W89280  20.047  24.037   2.273
16856W        W89281   3.320  16.223  12.022
16857W        W89282  30.308  42.283  13.977
16858W        W89283  16.910  40.049   2.640
16859W        W89284  17.148   0.160   2.379
16860W        W89285  10.391  40.342  12.080
16861W        W89286  35.857   8.223   1.056
16862W        W89287   7.389  23.203  13.055
16863W        W89288   0.742  44.465  12.096
16864W        W89289  27.462  36.879  12.415
16865W        W89290  40.467   2.229  10.707
16866W        W89291  41.453  36.774   2.983
16867W        W89292  38.449  34.720  10.656
16868W        W89293  26.060   9.184   3.917
16869W        W89294  24.268  35.000   1.667
16870W        W89295  43.425  21.188   0.690
16871W        W89296  44.552  18.026   3.807
16872W        W89297  37.398   0.431   0.848
16873W        W89298  17.522   7.116   2.159
16874W        W89299   2.056  34.555  12.925
16875W        W89300  20.284  10.828  14.882
16876W        W89301  20.562  42.263   4.606
16877W        W89302  34.157  17.487   5.126
16878W        W89303  43.468   8.280   4.738
16879W        W89304  24.410  17.670   4.670
16880W        W89305  33.938  20.380  12.140
16881W        W89306  40.881  19.769  12.049
16882W        W89307  29.549  18.440   2.956
16883W        W89308   1.227   5.213   2.426
16884W        W89309  18.813  11.860  14.801
16885W        W89310   8.786  34.372   3.627
16886W        W89311  42.664  44.536   2.780
16887W        W89312  32.161  30.026   2.459
16888W        W89313  13.256  21.220  14.052
16889W        W89314   7.681  11.658   4.393
16890W        W89315  39.817   4.921  14.280
16891W        W89316  16.863  31.165  13.879
16892W        W89317  16.113  35.058   3.391
16893W        W89318  39.989   9.433  11.964
16894W        W89319  25.682  21.463  12.755
16895W        W89320  41.943  22.366   3.892
16896W        W89321  22.710   5.934   4.665
16897W        W89322   5.780  30.028   4.234
16898W        W89323  19.874  29.874   4.278
16899W        W89324   6.625  14.769   3.769
16900W        W89325  10.661  12.697  13.219
16901W        W89326  37.601  36.828  11.511
16902W        W89327  41.615  34.009   2.870
16903W        W89328  34.398  29.652  13.317
16904W        W89329  12.899  35.035  11.283
16905W        W89330   0.048   0.943  12.482
16906W        W89331  26.598  21.709   1.741
16907W        W89332  16.733  32.669   1.757
16908W        W89333  20.135   9.026  14.850
16909W        W89334  17.974  34.239   3.728
16910W        W89335  36.653   2.216  10.587
16911W        W89336  24.411   2.896   0.954
16912W        W89337   8.395  18.007  14.754
16913W        W89338  37.297  29.904   1.457
16914W        W89339   4.683  42.573   3.752
16915W        W89340  25.633  22.976   4.585
16916W        W89341   9.238   8.910   2.378
16917W        W89342  29.363  41.847  11.117
16918W        W89343  41.964  30.443  14.348
16919W        W89344  33.050   7.148   4.634
16920W        W89345  32.457  30.825   0.903
16921W        W89346  15.547  23.516   3.665
16922W        W89347  28.416  21.728   4.366
16923W        W89348  41.768  21.060   2.906
16924W        W89349   8.196   1.544  12.326
16925W        W89350  12.893  14.343  13.987
16926W        W89351   7.654  12.239   3.307
16927W        W89352   3.323  26.789   0.375
16928W        W89353  40.452  11.838   2.246
16929W        W89354  37.554   9.254  13.367
16930W        W89355   7.579  16.249  14.274
16931W        W89356  41.130   5.550  11.874
16932W        W89357  42.875   0.306  13.024
16933W        W89358  21.062   7.732   2.657
16934W        W89359  38.958  39.290   0.864
16935W        W89360  39.898   9.192  14.959
16936W        W89361  33.984  26.101  12.606
16937W        W89362  18.045  10.229  14.827
16938W        W89363   2.701  39.074  14.304
16939W        W89364   0.277   7.129   3.272
16940W        W89365  22.386  39.798  11.059
16941W        W89366   4.428  15.313   1.755
16942W        W89367  37.359   1.645  12.129
16943W        W89368  21.686  16.794   2.671
16944W        W89369  38.118   9.146   4.104
16945W        W89370  37.915  14.499   3.478
16946W        W89371  21.738  27.053   2.162
16947W        W89372  35.101  22.721  12.974
16948W        W89373   6.643  36.805   0.579
16949W        W89374   8.556  28.137   3.260
16950W        W89375  33.119  37.809  12.787
16951W        W89376  37.292  42.465  13.082
16952W        W89377   4.645  16.655  13.464
16953W        W89378  31.699   6.432   0.809
16954W        W89379   6.278  42.973  11.950
16955W        W89380  42.923  16.694   3.994
16956W        W89381  24.274  42.063   0.252
16957W        W89382   2.312  44.866   3.735
16958W        W89383  44.420  19.820   2.621
16959W        W89384  21.676  43.022   4.163
16960W        W89385  37.819  13.915   4.711
16961W        W89386  40.863  26.305  11.080
16962W        W89387  42.101  27.556   1.066
16963W        W89388  31.391  25.751   0.324
16964W        W89389  11.690  36.070   3.324
16965W        W89390  25.017  43.098   3.080
16966W        W89391   2.874  38.488   2.604
16967W        W89392  33.942   5.704   3.762
16968W        W89393  20.777  27.178   2.174
16969W        W89394  15.725   1.882   2.641
16970W        W89395  43.772  26.473  14.538
16971W        W89396  13.835  43.446  13.451
16972W        W89397  34.442   2.507  11.079
16973W        W89398  22.669   6.491  12.244
16974W        W89399  35.799  43.988  10.694
16975W        W89400   8.258  18.296   0.406
16976W        W89401  11.255   6.889   1.395
16977W        W89402   9.634  39.825  13.454
16978W        W89403  36.544  39.336   2.932
16979W        W89404  31.421   8.732  10.564
16980W        W89405  22.168  19.871   1.106
16981W        W89406  14.596   8.598  12.590
16982W        W89407  23.674  44.263  14.314
16983W        W89408  38.593  33.948   0.515
16984W        W89409   5.304  42.256  13.969
16985W        W89410  36.752  19.591   2.782
16986W        W89411  34.188  39.831   4.034
16987W        W89412  42.979   7.933  11.198
16988W        W89413   1.416  21.574  11.083
16989W        W89414  42.247  30.010   2.441
16990W        W89415  33.646  41.852  12.204
16991W        W89416  28.815  20.691  13.381
16992W        W89417  31.365  30.002   2.960
16993W        W89418  27.833  20.512   0.964
16994W        W89419  17.055  39.219   2.347
16995W        W89420   8.262   7.490  14.814
16996W        W89421  19.668  32.585  13.979
16997W        W89422   1.734  34.918  13.133
16998W        W89423   3.750  41.617  10.700
16999W        W89424  37.401  29.930   2.960
17000W        W89425  35.984   3.870   0.423
17001W        W89426  33.016  18.080   2.331
17002W        W89427  37.943  33.105  11.129
17003W        W89428  16.724  31.426   5.116
17004W        W89429  44.314  44.359  11.091
17005W        W89430  15.818  32.911   1.842
17006W        W89431  32.906   8.740   1.201
17007W        W89432   2.508  16.329  14.950
17008W        W89433  15.201  16.522   3.659
17009W        W89434  12.603  24.596   5.499
17010W        W89435   1.926  24.656   3.064
17011W        W89436  11.217   2.600  12.115
17012W        W89437  40.821  41.186   3.962
17013W        W89438  26.995   0.743  14.204
17014W        W89439   4.697  14.167   3.788
17015W        W89440  30.403  27.399   1.334
17016W        W89441  41.323  38.673   2.830
17017W        W89442  29.014  17.045  13.471
17018W        W89443  11.690  24.598  13.475
17019W        W89444  18.683  43.765   1.178
17020W        W89445   9.008   6.633   3.128
17021W        W89446  43.313  40.988  14.402
17022W        W89447  27.212   1.859   1.994
17023W        W89448  33.383  18.298  14.302
17024W        W89449  30.533  13.613   1.835
17025W        W89450   3.522  22.986  10.407
17026W        W89451  11.939  39.973  10.113
17027W        W89452  22.186  10.389   4.228
17028W        W89453  43.354  14.643  11.397
17029W        W89454   3.408  22.725  11.221
17030W        W89455  38.873  34.394   2.841
17031W        W89456  31.552   9.231   4.576
17032W        W89457  31.036  12.056  12.000
17033W        W89458  32.088  20.043   4.109
17034W        W89459  13.239  15.219  10.506
17035W        W89460  43.088  25.707  11.210
17036W        W89461   1.247  12.305  12.893
17037W        W89462  44.732  30.868   3.302
17038W        W89463  35.376  27.014  13.955
17039W        W89464  17.041   7.747  11.550
17040W        W89465   2.670  36.485  10.895
17041W        W89466  12.242  17.282   0.882
17042W        W89467  15.556  30.372   0.546
17043W        W89468  34.646  39.227  14.831
17044W        W89469   3.504  22.744   3.251
17045W        W89470  21.602   2.928   4.413
17046W        W89471  35.218  41.724   3.117
17047W        W89472  43.327  21.260   4.245
17048W        W89473  24.047  18.107   1.756
17049W        W89474  42.818  16.089  12.479
17050W        W89475   3.718  43.119  11.655
17051W        W89476  31.978  13.419  11.450
17052W        W89477  23.090  44.272   2.198
17053W        W89478  33.428   4.238  11.572
17054W        W89479  14.784   6.548   3.311
17055W        W89480  25.075   3.784  11.455
17056W        W89481  11.626  18.601  10.639
17057W        W89482  18.722  32.196  11.844
17058W        W89483  33.132  11.716   4.860
17059W        W89484  22.035  14.842   2.989
17060W        W89485  15.626  34.215   3.498
17061W        W89486  29.347  23.567   2.039
17062W        W89487  10.435  12.772   0.714
17063W        W89488  17.028  27.921  14.966
17064W        W89489  37.370  19.659  14.103
17065W        W89490  32.223  20.268  12.493
17066W        W89491  10.148  33.852   4.234
17067W        W89492  21.947  27.089   4.538
17068W        W89493   0.639  43.435  13.381
17069W        W89494  41.047  27.938   1.329
17070W        W89495  24.857   0.485  13.956
17071W        W89496  38.780  22.718   1.280
17072W        W89497   7.922  40.576   4.061
17073W        W89498   1.758   5.869   4.594
17074W        W89499   0.522  20.756   9.969
17075W        W89500  24.443  22.982  14.412
17076W        W89501  33.577  40.948   3.247
17077W        W89502  30.977  15.051   0.969
17078W        W89503  38.642  34.200   0.987
17079W        W89504  21.940   3.264   1.028
17080W        W89505   4.017   8.903   3.328
17081W        W89506  16.240   1.332  11.935
17082W        W89507  30.138  31.365  13.636
17083W        W89508  21.635  26.392   0.586
17084W        W89509  26.574   4.008   4.081
17085W        W89510  31.093  31.589   2.882
17086W        W89511  29.962  13.182   0.344
17087W        W89512  19.317  18.606  13.079
17088W        W89513  25.612  23.946  11.043
17089W        W89514  42.924  43.742  13.591
17090W        W89515   4.167   9.790  14.960
17091W        W89516   2.794  41.913  12.526
17092W        W89517  21.724   4.395   0.451
17093W        W89518  44.775  41.852  12.881
17094W        W89519  19.546  27.464   3.289
17095W        W89520  23.569  27.493   3.927
17096W        W89521  15.138  10.796  14.340
17097W        W89522  39.032  15.710   4.204
17098W        W89523   5.922  41.085  11.073
17099W        W89524  11.863  16.736  13.369
17100W        W89525   4.390  19.765  13.077
17101W        W89526  31.589   4.283  14.430
17102W        W89527  21.627   0.268  14.810
17103W        W89528  37.065  41.528   0.826
17104W        W89529  43.094   3.665  11.098
17105W        W89530  26.540  17.845   4.133
17106W        W89531  23.963  11.192  11.472
17107W        W89532  28.437  13.034  13.888
17108W        W89533  31.804   0.138   0.352
17109W        W89534   1.268  21.611  13.017
17110W        W89535  35.347  29.495  11.244
17111W        W89536  34.893  22.170   4.058
17112W        W89537  14.433  41.866  11.035
17113W        W89538  19.742   0.799   0.155
17114W        W89539  29.612  39.971  13.326
17115W        W89540  36.475   2.791  13.081
17116W        W89541   9.406  35.875   4.643
17117W        W89542  26.309  13.370  11.981
17118W        W89543  30.123  42.711  11.409
17119W        W89544   3.261  39.046   2.389
17120W        W89545  29.134   1.410   3.667
17121W        W89546  10.505  42.285  13.750
17122W        W89547   1.069  32.983   4.162
17123W        W89548  28.631  26.517  13.804
17124W        W89549  25.036  18.232  10.668
17125W        W89550   5.544  37.916   4.150
17126W        W89551  40.826  25.261   0.948
17127W        W89552  15.560  19.636  10.706
17128W        W89553  16.077   1.453   2.742
17129W        W89554   7.948   0.010  14.470
17130W        W89555  35.971  32.146   0.013
17131W        W89556   0.800  24.730   2.216
17132W        W89557  10.457  19.497   0.769
17133W        W89558  20.482   4.274   2.433
17134W        W89559   9.373  14.347  12.075
17135W        W89560  31.342   6.379   1.839
17136W        W89561  40.453  36.390   3.245
17137W        W89562  34.385  23.248   4.223
17138W        W89563   6.281  28.117  11.628
17139W        W89564  12.839  25.660   0.069
17140W        W89565  29.017   0.491   4.645
17141W        W89566   8.181   6.739  11.092
17142W        W89567   0.090  42.993  14.823
17143W        W89568  14.577  34.821  11.967
17144W        W89569  15.285  40.616  12.646
17145W        W89570  24.908  19.809   1.704
17146W        W89571  19.582  42.205  14.585
17147W        W89572  19.468  15.255   0.810
17148W        W89573  31.366   0.842  14.931
17149W        W89574   4.308  16.114  11.066
17150W        W89575  20.370  44.333  14.335
17151W        W89576   5.221  39.597  11.589
17152W        W89577  35.463  36.282   4.138
17153W        W89578   2.175  11.567  14.689
17154W        W89579  12.947   4.358   4.541
17155W        W89580   4.403   3.360   2.041
17156W        W89581   5.629  10.759   1.214
17157W        W89582  44.949  34.659   3.756
17158W        W89583  11.010  43.234  12.801
17159W        W89584  40.286  18.529   0.360
17160W        W89585  39.942  39.313   0.931
17161W        W89586  24.710   0.532   3.178
17162W        W89587  11.239  40.027   0.235
17163W        W89588   5.026   0.926   0.481
17164W        W89589   9.653  44.806  13.016
17165W        W89590  38.391  21.525  13.794
17166W        W89591  19.262   0.016   0.490
17167W        W89592  42.142  42.852   5.024
17168W        W89593  11.230  29.096   2.183
17169W        W89594  21.669  40.155  14.785
17170W        W89595  27.924  39.261   3.312
17171W        W89596  36.441  22.797  13.368
17172W        W89597  22.267   6.113  11.038
17173W        W89598  20.092   8.709  11.529
17174W        W89599  25.055  22.155   1.934
17175W        W89600  14.736  35.587   1.458
17176W        W89601  10.749  26.080  12.945
17177W        W89602  42.457  40.062   5.002
17178W        W89603  19.616  10.769   0.263
17179W        W89604   6.717  41.095   2.015
17180W        W89605   3.729  22.144   2.408
17181W        W89606  20.241  44.256  11.006
17182W        W89607  39.890   4.180  12.220
17183W        W89608  26.087  39.296  14.922
17184W        W89609  22.676  10.155  10.371
17185W        W89610  31.926  23.597   0.828
17186W        W89611  18.249  43.002   3.157
17187W        W89612  24.860  15.877  14.920
17188W        W89613  14.930  43.580  11.534
17189W        W89614  26.548  30.006   3.928
17190W        W89615   6.215  16.212   4.731
17191W        W89616  44.293  17.257   3.239
17192W        W89617  31.911  24.283  13.008
17193W        W89618  42.280  42.794   4.253
17194W        W89619  19.778  39.668   3.121
17195W        W89620  44.353  23.535  11.588
17196W        W89621  21.801  10.652   5.455
17197W        W89622   5.144  13.228   1.354
17198W        W89623  38.380  38.294  11.130
17199W        W89624  30.616  25.915   3.770
17200W        W89625  31.524  15.918   1.441
17201W        W89626   5.514  40.007  12.054
17202W        W89627  12.579  22.675  11.982
17203W        W89628  13.046  12.844  12.675
17204W        W89629  13.234  17.284  10.385
17205W        W89630  13.823  41.574  14.853
17206W        W89631  19.900  13.897   2.722
17207W        W89632  14.254  17.127  10.698
17208W        W89633  18.534  19.769  13.685
17209W        W89634   5.855  11.653  12.770
17210W        W89635  44.025  24.724   0.641
17211W        W89636  42.962  21.412  13.538
17212W        W89637  30.176  23.212   2.172
17213W        W89638  29.039   9.799   3.330
17214W        W89639  37.910  13.667  14.205
17215W        W89640  24.535   5.327  13.024
17216W        W89641  21.131  16.090   0.401
17217W        W89642   8.347  12.679  13.513
17218W        W89643   9.141   5.841   9.746
17219W        W89644  31.242   4.757  10.323
17220W        W89645  20.127  19.082  10.760
17221W        W89646  40.590  25.080   0.479
17222W        W89647   7.815   4.757   1.375
17223W        W89648   7.170  26.029  14.865
17224W        W89649  37.515  42.739   0.997
17225W        W89650  22.044  28.280  11.077
17226W        W89651  41.854   1.304  13.004
17227W        W89652  42.838  16.770  12.574
17228W        W89653  14.245  10.704  11.434
17229W        W89654  38.099   0.584  13.111
17230W        W89655   8.839  43.977   3.320
17231W        W89656  26.720  44.138   1.786
17232W        W89657  15.800  31.873   0.464
17233W        W89658   1.504  40.936  11.080
17234W        W89659  25.204  25.462  10.584
17235W        W89660   2.785  22.178  14.361
17236W        W89661  14.562  20.844   2.523
17237W        W89662  24.478  26.038   1.953
17238W        W89663  13.547  17.763   0.431
17239W        W89664  22.117   8.863   3.637
17240W        W89665  11.616  17.170  12.403
17241W        W89666  29.319  15.053  12.431
17242W        W89667  37.923  16.290   1.558
17243W        W89668  35.413  24.186  12.136
17244W        W89669  22.620  22.360   3.248
17245W        W89670  28.331  18.811   3.374
17246W        W89671  27.977   3.015  11.332
17247W        W89672   4.354  26.451  12.200
17248W        W89673  20.823  40.056  13.261
17249W        W89674  30.648  10.807  10.807
17250W        W89675  41.727   4.203   0.834
17251W        W89676  34.944   1.480   2.271
17252W        W89677   4.240  27.202  12.465
17253W        W89678  27.888   5.126  12.566
17254W        W89679  24.526  10.829   0.326
17255W        W89680  27.868  41.879   4.101
17256W        W89681  43.785  32.864   1.285
17257W        W89682   3.370  21.380   3.254
17258W        W89683  23.993  31.196  14.557
17259W        W89684  34.666  44.285  12.941
17260W        W89685   4.212  25.867   2.593
17261W        W89686  21.836   7.377   4.174
17262W        W89687  30.391  33.549  13.032
17263W        W89688  33.917  33.590   2.764
17264W        W89689   7.876  24.677   0.737
17265W        W89690  37.564  43.245   1.880
17266W        W89691  22.457  19.114  12.680
17267W        W89692  28.436  12.090   1.395
17268W        W89693  37.057  41.960  13.417
17269W        W89694  14.410   4.391   4.587
17270W        W89695   1.678  26.001   3.427
17271W        W89696   7.229  20.087  13.382
17272W        W89697  44.032  22.589  10.745
17273W        W89698  43.027  34.117  11.533
17274W        W89699  13.835  34.623   1.495
17275W        W89700  42.998   2.465   4.572
17276W        W89701  44.140   9.052  11.873
17277W        W89702  38.433  36.578   4.097
17278W        W89703  44.390   5.794   0.306
17279W        W89704  36.412  20.518  11.102
17280W        W89705  37.063   9.705   2.566
17281W        W89706   8.173  26.441  13.089
17282W        W89707   3.389   6.286   4.375
17283W        W89708  24.063  41.699  14.907
17284W        W89709  42.354  33.530   4.596
17285W        W89710  33.534  12.959   1.771
17286W        W89711  16.842  43.977   2.752
17287W        W89712   3.455  31.767  14.340
17288W        W89713  28.337   8.261   1.773
17289W        W89714  44.524  28.129   4.065
17290W        W89715   9.614   8.048  10.678
17291W        W89716   4.683  33.419  10.346
17292W        W89717  22.279  25.606   3.734
17293W        W89718  23.952  28.178   4.399
17294W        W89719  29.121  15.143   0.340
17295W        W89720   7.734  11.112  12.058
17296W        W89721   2.190  16.235  13.326
17297W        W89722   9.861  10.597  11.004
17298W        W89723  23.855  42.186  14.967
17299W        W89724  38.298  35.868   1.408
17300W        W89725  18.387  37.336   2.690
17301W        W89726  16.195  38.453   1.741
17302W        W89727   4.145  33.156   2.247
17303W        W89728   1.840  26.122  14.844
17304W        W89729  14.869  34.546  13.854
17305W        W89730  41.028   1.251   0.344
17306W        W89731  33.460  37.975   4.332
17307W        W89732  17.883  22.114   0.178
17308W        W89733   9.886   5.464   3.742
17309W        W89734   5.268  44.156   2.235
17310W        W89735  33.531  11.370  13.563
17311W        W89736  17.225  24.775   4.052
17312W        W89737  23.161  15.152  11.156
17313W        W89738  32.043   5.860   2.066
17314W        W89739  36.435   6.697   2.382
17315W        W89740  12.391  42.413   4.098
17316W        W89741  33.037  28.401   0.336
17317W        W89742  29.163  37.891   0.169
17318W        W89743   5.188  43.467  14.336
17319W        W89744  24.232  37.358   2.158
17320W        W89745   2.771  43.094   0.518
17321W        W89746   1.302  13.403  13.278
17322W        W89747  37.683  42.358   1.990
17323W        W89748   6.624  10.813   0.314
17324W        W89749  11.835  35.975   2.491
17325W        W89750  42.800  33.566  10.731
17326W        W89751  21.736  39.180   4.697
17327W        W89752  35.039  25.053   4.183
17328W        W89753   1.673  34.304  11.493
17329W        W89754  41.046  38.023   3.156
17330W        W89755  34.618  19.463  14.684
17331W        W89756  37.671   0.961   3.231
17332W        W89757  16.304  15.759  11.215
17333W        W89758  39.011  34.365  14.399
17334W        W89759  13.601   0.017  12.995
17335W        W89760  25.629  17.714   2.431
17336W        W89761   1.821  42.083  14.927
17337W        W89762  24.431  32.587  11.467
17338W        W89763  35.709   1.702   0.386
17339W        W89764  23.368   3.790   4.146
17340W        W89765  22.745  28.452   0.541
17341W        W89766   5.763  19.684  12.946
17342W        W89767  12.778  36.770  11.419
17343W        W89768  37.183  17.775  10.897
17344W        W89769  26.659   8.335  13.487
17345W        W89770   9.410  10.850   2.397
17346W        W89771   7.487  32.874  11.415
17347W        W89772  40.892   3.436   0.360
17348W        W89773  38.766  19.997  14.387
17349W        W89774  29.026  24.961   1.742
17350W        W89775   3.270   4.197  14.166
17351W        W89776   8.842  14.191   5.135
17352W        W89777  17.126  27.241   3.294
17353W        W89778   7.664  38.080  11.544
17354W        W89779  25.517   8.975   3.861
17355W        W89780  28.068  17.284   2.314
17356W        W89781  31.326  16.435  11.062
17357W        W89782  16.515   6.514  13.841
17358W        W89783  27.665  14.715  13.553
17359W        W89784  42.854  32.190   4.124
17360W        W89785   9.997  38.964   2.468
17361W        W89786  28.423  28.465  11.024
17362W        W89787   7.314   2.943   2.386
17363W        W89788  35.700   6.622   1.937
17364W        W89789  12.333  17.449  13.132
17365W        W89790  23.103  29.533   2.918
17366W        W89791  17.148  37.943  13.567
17367W        W89792  10.779  19.558  10.342
17368W        W89793  12.846  33.438   3.566
17369W        W89794  41.536  24.646  14.919
17370W        W89795  38.596  10.560   1.202
17371W        W89796  23.258   2.497   4.067
17372W        W89797   5.293  41.025   4.226
17373W        W89798  26.429  20.242   2.402
17374W        W89799  25.783  11.746   1.618
17375W        W89800  38.903   4.830  11.559
17376W        W89801  10.260  27.029  10.634
17377W        W89802  38.574   3.728   3.560
17378W        W89803  43.372  32.429  12.483
17379W        W89804  26.026  29.983   3.176
17380W        W89805  34.891  33.948   1.882
17381W        W89806   2.931  39.508   1.605
17382W        W89807  13.795  44.791   1.891
17383W        W89808  21.231   3.162   3.148
17384W        W89809  32.632  35.841   0.902
17385W        W89810  12.340  30.872   4.390
17386W        W89811  19.116  35.828   3.804
17387W        W89812  21.290   0.051  12.040
17388W        W89813  24.511  26.240   0.882
17389W        W89814  37.628  40.395   4.573
17390W        W89815  15.457  34.125   2.132
17391W        W89816  36.468  40.576   1.354
17392W        W89817  27.233   3.322   2.609
17393W        W89818  14.843  37.404   1.184
17394W        W89819  17.736  25.658  12.020
17395W        W89820  11.474   9.394   2.346
17396W        W89821   5.341  33.353   2.888
17397W        W89822  30.494   9.889   4.206
17398W        W89823  29.082  30.956  10.707
17399W        W89824  11.795  12.647  13.967
17400W        W89825  42.878  31.137   4.702
17401W        W89826  34.285  11.718  11.547
17402W        W89827   4.816  18.757   0.007
17403W        W89828   3.566  29.340  13.832
17404W        W89829  20.041  37.569  12.067
17405W        W89830  22.721  30.986   3.378
17406W        W89831  18.488  34.325   2.321
17407W        W89832   9.133  15.315   4.074
17408W        W89833   2.183  12.619  13.805
17409W        W89834  42.196  41.112   0.454
17410W        W89835  20.385  35.059  13.458
17411W        W89836   4.261  19.983   2.888
17412W        W89837  19.130   6.810  10.703
17413W        W89838  12.289  41.530  10.573
17414W        W89839   6.190  31.969   3.250
17415W        W89840   2.753  37.963   0.460
17416W        W89841  32.119  11.712  12.582
17417W        W89842  43.579  23.594   2.280
17418W        W89843  21.977  38.834   2.841
17419W        W89844   0.348  19.156   2.433
17420W        W89845  11.777   0.478  14.245
17421W        W89846   8.932   1.566   4.233
17422W        W89847   9.197   2.301  11.619
17423W        W89848  26.921   5.451  14.971
17424W        W89849  21.611  15.528   2.433
17425W        W89850  14.097  15.000   2.762
17426W        W89851  16.738  13.784  13.993
17427W        W89852   2.394  25.963  10.471
17428W        W89853   5.328  12.856  10.929
17429W        W89854  20.177   4.157  12.522
17430W        W89855  41.537  18.668  12.073
17431W        W89856   8.198   4.322   0.869
17432W        W89857   8.332  36.778   1.919
17433W        W89858  35.144   2.422  13.031
17434W        W89859   9.053  22.993  10.817
17435W        W89860  40.088   0.257   0.885
17436W        W89861  33.458   3.647  12.487
17437W        W89862  25.997  15.063   3.282
17438W        W89863  11.951  41.871  10.796
17439W        W89864  21.161  40.943   4.285
17440W        W89865  41.055  38.543   1.367
17441W        W89866  19.209  11.035   0.698
17442W        W89867  14.581   3.149   0.866
17443W        W89868  19.325  18.275   2.741
17444W        W89869  44.934  10.089   1.296
17445W        W89870  15.605  10.349  13.795
17446W        W89871  32.326  38.402  14.507
17447W        W89872   4.224  17.363  10.663
17448W        W89873   5.198  18.325  14.186
17449W        W89874   6.688  27.734  14.434
17450W        W89875  25.271   1.003   0.676
17451W        W89876  29.384   4.216   1.933
17452W        W89877  40.330  11.207   1.422
17453W        W89878  24.203  31.097  13.033
17454W        W89879  18.317  28.942   0.897
17455W        W89880  44.931  15.987   1.702
17456W        W89881   6.940  32.299  14.394
17457W        W89882  18.697  21.759   3.110
17458W        W89883   1.921  12.212  10.771
17459W        W89884  37.875  37.052  14.074
17460W        W89885  27.673  19.719   4.993
17461W        W89886  28.614  18.921   1.875
17462W        W89887  29.082  29.419  12.000
17463W        W89888  28.409   6.641   3.757
17464W        W89889   6.179  14.091   1.670
17465W        W89890  36.988  43.259  11.528
17466W        W89891  18.666  14.811  10.551
17467W        W89892   6.968  40.373   2.587
17468W        W89893  27.536   9.506  13.128
17469W        W89894  30.205  19.841  11.130
17470W        W89895  13.064  11.708  10.910
17471W        W89896  30.613  43.377   3.532
17472W        W89897  33.615  43.441  13.839
17473W        W89898  19.007  25.368   0.128
17474W        W89899  30.663  25.978   1.855
17475W        W89900  22.961  11.295  12.577
17476W        W89901  31.802  17.654  11.961
17477W        W89902  23.702  15.208  11.096
17478W        W89903  30.169  19.526   3.427
17479W        W89904   0.300   6.832   4.190
17480W        W89905  23.079  27.909   4.724
17481W        W89906  39.028  37.012  14.718
17482W        W89907  29.618  35.033  13.365
17483W        W89908   7.681  29.216  13.552
17484W        W89909  10.718   5.007  12.865
17485W        W89910   4.890   9.244  13.397
17486W        W89911  31.643  23.043   3.332
17487W        W89912   3.835   7.906   0.483
17488W        W89913  37.250   4.942  14.353
17489W        W89914  36.090   6.421   3.632
17490W        W89915   6.745   2.260  10.732
17491W        W89916  33.635  22.884  13.794
17492W        W89917  38.881  19.833  10.699
17493W        W89918  11.137  35.143  12.882
17494W        W89919  39.456   4.859   1.820
17495W        W89920  28.629  20.453  14.792
17496W        W89921  39.929   6.166   4.651
17497W        W89922   3.668  33.027  13.441
17498W        W89923  34.857  12.155   0.303
17499W        W89924  19.242   3.386  10.977
17500W        W89925  17.803  26.561  11.616
17501W        W89926  31.001  29.437   4.561
17502W        W89927  27.667  41.461   0.397
17503W        W89928  14.084  24.097  12.677
17504W        W89929  11.762   4.877   1.191
17505W        W89930   6.793  22.230   4.911
17506W        W89931  23.504  25.530   3.124
17507W        W89932   1.247  43.815  10.897
17508W        W89933   6.293  35.130  12.666
17509W        W89934  43.666  14.254   2.539
17510W        W89935  13.591  22.990  11.269
17511W        W89936  42.551  37.088  14.690
17512W        W89937  23.969  20.200  11.612
17513W        W89938   6.647   2.994  11.060
17514W        W89939  10.387  38.549  13.488
17515W        W89940  35.946  25.276  10.503
17516W        W89941  14.437  39.790  13.960
17517W        W89942  34.434   8.761  14.069
17518W        W89943  44.706  39.551  11.061
17519W        W89944  29.475  38.437   3.677
17520W        W89945   0.103   1.286   1.778
17521W        W89946  43.436  28.855   3.757
17522W        W89947  34.967  43.832  13.017
17523W        W89948  17.733   1.253   1.830
17524W        W89949  39.108   1.170   2.306
17525W        W89950  21.106   1.843  10.687
17526W        W89951  24.211  16.200  10.932
17527W        W89952   8.921  44.923  11.225
17528W        W89953   4.075  36.894   4.178
17529W        W89954   5.339  18.940   3.631
17530W        W89955  13.887  11.937   0.891
17531W        W89956  22.729  14.735  11.911
17532W        W89957   8.909   0.823  12.279
17533W        W89958  12.270  10.902  12.630
17534W        W89959   0.001  31.009   2.861
17535W        W89960  10.047  23.503  12.066
17536W        W89961  31.436  28.418   1.276
17537W        W89962  40.460   3.296  11.163
17538W        W89963  35.267  33.846  12.815
17539W        W89964   1.459  23.808   2.806
17540W        W89965  30.408  24.531  13.027
17541W        W89966  28.571   8.916   3.406
17542W        W89967  19.363  22.104   2.548
17543W        W89968   5.250  14.078  11.713
17544W        W89969  34.838  24.468  10.387
17545W        W89970  13.578   8.190  12.039
17546W        W89971   1.871  14.332   2.325
17547W        W89972  43.828  43.953  12.548
17548W        W89973  19.513  42.924   4.033
17549W        W89974  25.974  34.245   1.432
17550W        W89975  42.471  22.963   3.752
17551W        W89976  25.235  14.153  10.886
17552W        W89977   0.937  44.430   1.431
17553W        W89978   5.518  19.347   2.715
17554W        W89979  39.326  38.793  12.576
17555W        W89980  27.916  38.868  14.082
17556W        W89981  29.968  15.091  12.968
17557W        W89982  26.027  32.195   4.916
17558W        W89983   8.112  30.862  12.038
17559W        W89984  23.479  42.869   3.177
17560W        W89985  21.644  41.555  10.755
17561W        W89986  33.256  31.046   0.206
17562W        W89987  22.165  30.072   4.410
17563W        W89988  37.326   2.362   3.095
17564W        W89989  44.968   7.987   1.237
17565W        W89990  14.320  32.902   0.918
17566W        W89991   6.740  40.936   0.568
17567W        W89992  20.928  19.747   3.318
17568W        W89993  23.389  18.354  14.874
17569W        W89994  20.331   3.309   1.696
17570W        W89995  18.714   4.823  11.638
17571W        W89996  30.898  20.091   1.288
17572W        W89997  37.017   5.525   0.781
17573W        W89998  34.073  37.769   1.824
17574W        W89999   6.802  10.338  10.994
17575W        W90000  37.049  41.051  11.071
17576W        W90001  21.571  30.965  12.383
17577W        W90002  21.347  23.129   1.466
17578W        W90003  28.148  33.026  13.792
17579W        W90004   0.497  44.548  11.566
17580W        W90005  44.668  23.110  12.429
17581W        W90006  19.708  42.102  13.118
17582W        W90007  17.332   1.296  13.964
17583W        W90008  41.826  35.846   1.774
17584W        W90009  19.622  42.783  14.499
17585W        W90010   4.697  41.644   4.980
17586W        W90011  18.967  37.378  12.967
17587W        W90012   8.007  34.786   4.107
17588W        W90013  36.452  11.264   0.373
17589W        W90014  11.697  42.574  14.401
17590W        W90015   5.934  23.077  11.323
17591W        W90016  14.688  39.797  11.243
17592W        W90017   1.249  31.296   2.482
17593W        W90018  34.381  28.257   4.168
17594W        W90019  16.155  14.397  12.095
17595W        W90020  19.793  30.542  14.587
17596W        W90021  34.513  44.596   3.656
17597W        W90022  25.368   9.789   0.740
17598W        W90023  24.189  10.751   2.754
17599W        W90024   3.789  38.819   4.280
17600W        W90025   6.139  25.140  14.544
17601W        W90026  23.531   4.846  10.564
17602W        W90027  29.587  18.359   1.844
17603W        W90028  20.602   6.906  11.105
17604W        W90029  40.056  16.165   4.623
17605W        W90030  34.554  43.467  14.233
17606W        W90031  38.962  21.117   1.290
17607W        W90032  29.611  18.112  10.561
17608W        W90033  20.711  15.596   3.420
17609W        W90034  28.412  22.012  11.394
17610W        W90035  41.702   7.059   0.890
17611W        W90036  11.551  21.185   1.284
17612W        W90037   9.913   5.919   3.518
17613W        W90038   6.860   6.143   4.381
17614W        W90039  15.216  17.155  13.324
17615W        W90040  23.546  28.577   0.976
17616W        W90041   6.224  39.240   0.004
17617W        W90042  32.831  22.026   2.254
17618W        W90043   0.765   0.801  11.168
17619W        W90044  11.336  21.139   2.599
17620W        W90045  34.615  18.648   2.777
17621W        W90046  16.897  24.107  14.342
17622W        W90047   2.363   1.395  10.580
17623W        W90048  29.222  13.182  14.736
17624W        W90049  34.049  32.443  10.923
17625W        W90050   0.669  43.790   3.229
17626W        W90051  42.221  41.640   0.502
17627W        W90052   4.319  14.348   0.211
17628W        W90053  33.770   1.924  10.287
17629W        W90054  25.045   4.769  12.606
17630W        W90055   1.947  25.108  11.875
17631W        W90056  22.649  42.847  14.401
17632W        W90057  36.000  15.848  10.695
17633W        W90058  10.460  44.291  14.001
17634W        W90059  28.452  33.889  11.602
17635W        W90060  12.337  11.237   0.251
17636W        W90061  19.318  21.731  10.700
17637W        W90062  26.193  42.811   2.918
17638W        W90063  38.514   1.499  12.049
17639W        W90064  34.541  39.377  13.074
17640W        W90065  32.222  25.479  10.699
17641W        W90066  26.582  37.622  14.757
17642W        W90067  37.626  37.003   4.971
17643W        W90068  25.702   0.908   4.170
17644W        W90069   0.848  31.694  11.592
17645W        W90070   3.477   5.869   4.113
17646W        W90071  12.165  21.288  13.570
17647W        W90072  18.277   8.324   0.492
17648W        W90073  10.267   8.280  11.034
17649W        W90074  35.531  30.557  12.365
17650W        W90075  21.764  12.707  13.604
17651W        W90076  24.705  34.388   0.925
17652W        W90077  19.728  15.053   2.186
17653W        W90078   6.332  40.743   3.735
17654W        W90079  13.746  38.517  13.442
17655W        W90080  24.640  35.398   0.772
17656W        W90081   7.319   9.030  13.298
17657W        W90082  16.325  38.634  13.988
17658W        W90083  11.102   2.909  12.524
17659W        W90084   3.716  26.770  11.635
17660W        W90085   3.254  19.324   1.913
17661W        W90086  13.077   4.994  11.475
17662W        W90087  13.693   0.544   0.685
17663W        W90088   1.818  12.675  12.264
17664W        W90089  13.122  27.249  13.276
17665W        W90090  37.455  42.539   3.316
17666W        W90091   7.671   4.342   4.308
17667W        W90092   6.072  12.908  11.556
17668W        W90093  31.618  42.237  12.743
17669W        W90094  13.374   1.707  14.411
17670W        W90095   6.922  37.965  13.254
17671W        W90096   7.592   6.114  10.371
17672W        W90097   8.463  33.399  12.722
17673W        W90098  10.297   7.829  13.077
17674W        W90099  13.055  38.023   2.836
17675W        W90100  12.658  39.891   0.757
17676W        W90101  25.792  18.294  11.959
17677W        W90102  43.221  25.504  11.933
17678W        W90103  23.930  29.424   3.679
17679W        W90104  10.421  36.981   0.231
17680W        W90105  12.835  33.129  11.704
17681W        W90106  14.839  25.520  14.978
17682W        W90107   3.438   4.301   4.728
17683W        W90108  32.912  36.980  11.711
17684W        W90109  12.846   1.644   2.738
17685W        W90110  22.224  25.415  14.811
17686W        W90111  18.646  12.381  14.426
17687W        W90112  35.423   0.859  12.612
17688W        W90113  20.215  19.166   0.803
17689W        W90114  12.278  26.571   4.576
17690W        W90115  24.582  23.274   4.039
17691W        W90116   4.146  25.308  13.499
17692W        W90117  22.370  29.200  14.718
17693W        W90118  33.743  18.090   3.644
17694W        W90119   3.694   1.226   1.448
17695W        W90120   3.291  34.164   2.352
17696W        W90121  37.387  37.079   0.355
17697W        W90122   6.640   3.244  11.994
17698W        W90123  34.803  25.282   3.794
17699W        W90124   6.240   8.487  11.620
17700W        W90125   5.844  11.255  10.781
17701W        W90126  34.175  31.992   4.058
17702W        W90127  21.607   6.834  10.707
17703W        W90128  28.220  44.633  11.302
17704W        W90129   3.678  36.532   0.393
17705W        W90130  14.174  20.017   2.723
17706W        W90131  34.134  18.056  13.790
17707W        W90132   7.632  23.518   1.481
17708W        W90133  20.503  11.819  14.309
17709W        W90134  33.423  10.871  13.730
17710W        W90135  13.318  25.012   3.791
17711W        W90136  35.574  13.292  12.085
17712W        W90137   8.233  21.737   1.285
17713W        W90138   2.630  19.887  11.962
17714W        W90139  43.966   8.859  11.425
17715W        W90140   3.613  20.683  14.810
17716W        W90141  17.056  30.667  14.285
17717W        W90142  30.656  23.194   3.087
17718W        W90143   7.699  29.697  12.115
17719W        W90144  44.666  26.241   2.367
17720W        W90145  11.357   4.006   3.251
17721W        W90146  33.594  19.155   1.727
17722W        W90147   9.559  19.098   2.379
17723W        W90148  24.183   7.242  14.339
17724W        W90149  15.640  36.579  11.595
17725W        W90150  12.321   4.276   3.240
17726W        W90151  19.580   4.880  14.334
17727W        W90152  17.589  12.648  13.473
17728W        W90153   4.290  27.800  11.151
17729W        W90154  42.188  17.329  11.575
17730W        W90155  13.877  23.718  14.088
17731W        W90156   6.896  26.499   3.307
17732W        W90157  15.593  44.327   5.212
17733W        W90158  41.370  29.793   1.611
17734W        W90159   7.265  34.976  11.982
17735W        W90160   4.551  29.506   3.141
17736W        W90161  38.837  22.367  10.701
17737W        W90162   4.356  37.411   0.003
17738W        W90163  17.636  29.893  13.515
17739W        W90164  26.252   8.385   0.387
17740W        W90165  24.064   0.400   3.269
17741W        W90166  32.480  30.712   0.395
17742W        W90167  34.953  21.502  12.594
17743W        W90168   9.599  14.816  10.590
17744W        W90169  29.578  18.942   2.796
17745W        W90170  42.872   2.790  13.795
17746W        W90171  35.106  20.944   1.020
17747W        W90172   9.661   9.239  13.805
17748W        W90173  26.411  30.987  13.095
17749W        W90174  38.615  25.555   2.130
17750W        W90175  34.502  10.460   1.819
17751W        W90176  21.661   9.703   5.451
17752W        W90177  13.202  39.889  13.374
17753W        W90178   3.210  21.623   4.521
17754W        W90179  36.872   2.010  12.111
17755W        W90180  30.183  40.438  12.971
17756W        W90181   3.474  30.491   4.856
17757W        W90182  28.055  22.197  14.881
17758W        W90183   2.705  12.462   3.684
17759W        W90184  18.219   9.355  13.336
17760W        W90185  40.264  36.473   2.763
17761W        W90186  18.305   7.887  12.029
17762W        W90187  39.067  37.448   9.997
17763W        W90188   4.326  21.620  11.849
17764W        W90189   8.629   3.063   2.726
17765W        W90190  22.504   3.757  13.928
17766W        W90191  43.826   0.833   2.867
17767W        W90192  35.356  37.356  12.451
17768W        W90193   0.439   0.561   0.710
17769W        W90194  30.205  31.133  12.337
17770W        W90195  21.727   6.799  14.365
17771W        W90196   0.688  23.760   1.734
17772W        W90197  28.614  34.502  12.947
17773W        W90198  34.878  20.443   3.193
17774W        W90199  29.535  30.992   4.074
17775W        W90200  10.930  10.887   1.845
17776W        W90201  15.804  30.461   4.274
17777W        W90202   3.749  35.682   0.202
17778W        W90203  14.554  37.487  12.500
17779W        W90204  38.040  18.925  12.682
17780W        W90205  44.250  29.200  13.363
17781W        W90206  19.186  10.188  13.504
17782W        W90207  11.933   3.693  12.631
17783W        W90208  41.431  18.303  14.430
17784W        W90209  41.985  38.637   0.703
17785W        W90210  13.836  32.011   3.338
17786W        W90211  22.131  37.151  12.816
17787W        W90212  17.372   3.790  12.985
17788W        W90213  22.629  24.701   0.919
17789W        W90214  18.257  30.753  12.534
17790W        W90215   0.880  22.087  11.424
17791W        W90216  34.432  37.118  13.260
17792W        W90217  22.729  21.272  13.428
17793W        W90218  32.433   9.186  10.968
17794W        W90219  18.073  40.659  11.274
17795W        W90220  33.590  14.576   2.699
17796W        W90221   9.911  38.016   2.621
17797W        W90222   0.759  22.839   2.252
17798W        W90223  15.372  26.954   0.170
17799W        W90224   3.268  27.619  12.399
17800W        W90225   8.235  25.103   1.482
17801W        W90226  11.483  36.323  13.965
17802W        W90227  42.266  21.829  12.185
17803W        W90228   2.776  13.405   0.719
17804W        W90229   0.927  10.230   1.188
17805W        W90230   3.858   1.435   0.986
17806W        W90231  38.482  36.056   1.862
17807W        W90232  27.270  22.203   2.613
17808W        W90233  27.957  41.527   3.196
17809W        W90234  23.706  33.474   2.880
17810W        W90235  26.566   3.721  10.726
17811W        W90236  29.174  20.397  10.677
17812W        W90237   9.884  31.910   0.429
17813W        W90238  22.729   0.931   2.458
17814W        W90239  15.044  29.939  13.462
17815W        W90240  40.032  39.812  10.698
17816W        W90241   6.771  15.747   1.725
17817W        W90242   2.930   2.761   2.765
17818W        W90243  11.634  14.641   1.728
17819W        W90244  29.283  34.352   1.789
17820W        W90245  32.595  35.420  14.487
17821W        W90246  38.295  43.847  10.674
17822W        W90247  44.137  11.698   4.712
17823W        W90248  41.677   9.038  12.397
17824W        W90249  30.153  10.045   2.144
17825W        W90250  16.653  10.276   4.136
17826W        W90251   5.862  35.294  11.591
17827W        W90252  25.773  43.815  11.478
17828W        W90253   1.336   9.443  12.163
17829W        W90254  40.569  34.452  12.576
17830W        W90255  29.702  10.706  12.472
17831W        W90256   6.672  43.555  14.994
17832W        W90257  15.635  25.643   2.170
17833W        W90258  31.923  40.352   1.488
17834W        W90259  11.588  32.467  13.992
17835W        W90260   8.217  31.958  13.058
17836W        W90261  35.267  44.642  14.139
17837W        W90262  40.791  35.389   2.864
17838W        W90263   2.980  36.899  10.779
17839W        W90264  26.012  27.966  13.425
17840W        W90265  24.586  13.136   3.391
17841W        W90266  17.030  17.159  13.578
17842W        W90267  12.422   6.718   3.171
17843W        W90268   7.552  32.186  14.942
17844W        W90269  15.337   0.740   2.343
17845W        W90270  36.967   9.478   4.110
17846W        W90271   2.337  32.537  14.404
17847W        W90272  10.838   9.337  10.547
17848W        W90273   9.420  42.282  11.769
17849W        W90274  35.650  32.130   2.866
17850W        W90275  37.445   0.052   3.163
17851W        W90276   8.896  18.618   4.347
17852W        W90277  23.990  42.895   1.333
17853W        W90278  36.820  40.258   0.549
17854W        W90279   7.666  41.445  14.264
17855W        W90280  21.475  16.544  11.943
17856W        W90281  31.673  15.231   4.502
17857W        W90282  41.779  30.423  11.562
17858W        W90283   2.465  43.346  11.586
17859W        W90284  22.050  12.493   3.642
17860W        W90285  22.128  10.390   0.736
17861W        W90286  36.441  28.199   1.752
17862W        W90287   0.283  33.502   3.331
17863W        W90288  17.289  18.148   4.299
17864W        W90289  17.749   2.801   1.702
17865W        W90290  10.222  22.010  14.041
17866W        W90291   6.756  16.320  13.922
17867W        W90292  13.540  41.004   3.930
17868W        W90293  22.732  18.273   0.314
17869W        W90294  23.135  26.565   3.928
17870W        W90295  37.860  44.939  10.991
17871W        W90296  35.032  12.356   4.077
17872W        W90297  42.969  14.117   1.844
17873W        W90298  42.301   1.820   4.559
17874W        W90299  22.980  27.395   4.863
17875W        W90300   4.433  29.059   0.539
17876W        W90301   6.440  35.149  11.178
17877W        W90302   1.012  24.020   0.805
17878W        W90303  35.953  32.639  12.448
17879W        W90304  32.449  42.459  10.648
17880W        W90305   9.721  23.281   1.444
17881W        W90306   1.321  29.908   3.120
17882W        W90307   4.401  32.028  12.548
17883W        W90308   3.003  28.144  14.840
17884W        W90309  27.959  13.070   0.165
17885W        W90310  28.774   0.806   3.042
17886W        W90311  24.931  44.521   2.803
17887W        W90312  18.353  12.322  11.363
17888W        W90313  27.242  32.731  12.883
17889W        W90314  10.193   9.791  13.095
17890W        W90315   8.134  12.431  11.494
17891W        W90316  11.310  35.360  10.605
17892W        W90317  38.166  22.872   5.304
17893W        W90318  23.623  18.327  10.779
17894W        W90319  25.376  17.570  10.492
17895W        W90320  44.721   6.447   0.426
17896W        W90321  33.522  24.219  13.379
17897W        W90322  40.291  35.461   3.579
17898W        W90323  26.146   2.276  13.776
17899W        W90324  40.041  32.906  10.663
17900W        W90325  19.196  41.463  12.581
17901W        W90326  38.014  39.202   0.933
17902W        W90327  41.964  44.902   3.273
17903W        W90328  24.146  11.142  13.080
17904W        W90329  38.251  32.100   4.583
17905W        W90330  30.143  38.858   4.067
17906W        W90331  14.806   6.215   2.887
17907W        W90332  25.200  26.526  11.737
17908W        W90333  26.560  18.897   5.053
17909W        W90334  43.466  11.328   3.394
17910W        W90335  39.583   0.506   4.710
17911W        W90336  41.719   7.818   2.153
17912W        W90337  23.595  32.431   2.698
17913W        W90338  17.704  14.123   4.629
17914W        W90339  25.723  21.769  11.487
17915W        W90340  22.237   7.936  10.653
17916W        W90341  22.667  25.158   1.777
17917W        W90342  30.188  14.812  13.895
17918W        W90343   3.008   2.030  14.520
17919W        W90344  22.568  10.595  14.392
17920W        W90345  17.678   1.964  13.222
17921W        W90346  27.339  31.104  13.041
17922W        W90347  22.040  29.940  13.309
17923W        W90348   1.277  35.386  14.869
17924W        W90349  17.862  41.648  11.083
17925W        W90350   8.142  32.675   1.381
17926W        W90351   2.785  26.874  12.524
17927W        W90352  38.893   4.933   1.294
17928W        W90353   0.836  27.445   0.463
17929W        W90354   7.368  20.904   2.067
17930W        W90355  16.802  27.182  13.823
17931W        W90356  24.644  40.895   2.420
17932W        W90357  15.615  10.376   0.282
17933W        W90358  36.006  14.781   3.782
17934W        W90359  18.928   1.452  11.563
17935W        W90360  13.314  38.670   5.101
17936W        W90361   0.827  38.553  13.580
17937W        W90362  41.989   8.750  14.273
17938W        W90363  39.955  26.533  12.453
17939W        W90364  24.846  43.048   0.088
17940W        W90365   5.925  28.011   4.792
17941W        W90366  38.999  18.454  14.590
17942W        W90367  39.319  23.644  11.544
17943W        W90368   3.486   4.265  11.527
17944W        W90369   0.308   1.865  10.908
17945W        W90370  43.094   3.258  12.862
17946W        W90371  15.555  26.487   0.086
17947W        W90372   4.672  38.039  13.863
17948W        W90373  32.384   1.187  11.105
17949W        W90374  40.656  16.581   4.119
17950W        W90375  26.302  41.065  11.325
17951W        W90376  23.748  14.247   4.298
17952W        W90377  15.114  35.847  11.911
17953W        W90378   4.487  12.870  10.359
17954W        W90379  39.778  25.504   3.717
17955W        W90380   5.957  14.102   4.165
17956W        W90381   5.447  27.000  12.027
17957W        W90382  19.481  23.648   3.724
17958W        W90383  33.069  35.420   2.687
17959W        W90384  25.727  10.295   4.675
17960W        W90385  16.281  43.126  13.014
17961W        W90386   6.258  41.535  12.840
17962W        W90387  21.452   1.506  14.834
17963W        W90388  19.711  25.541  12.802
17964W        W90389  12.595  13.131  14.289
17965W        W90390  25.129  32.455  12.973
17966W        W90391  21.709   8.814   4.921
17967W        W90392  42.892   4.653  13.367
17968W        W90393  20.151  13.625   0.880
17969W        W90394  23.295  35.985   1.856
17970W        W90395  11.682  10.751   2.861
17971W        W90396  27.442  11.549   3.303
17972W        W90397  32.234   5.127   4.609
17973W        W90398   5.965  41.132   4.723
17974W        W90399  19.709  12.249  12.032
17975W        W90400  34.590  22.070  13.428
17976W        W90401  23.605  22.669   3.758
17977W        W90402  44.345   9.279  14.423
17978W        W90403  34.808  21.182  14.456
17979W        W90404  20.308  19.976   3.987
17980W        W90405  21.160  13.068   3.738
17981W        W90406   1.577  30.021   1.311
17982W        W90407  26.183  18.840   2.695
17983W        W90408  41.105  31.856   0.801
17984W        W90409   4.880   5.332  12.539
17985W        W90410  17.090   2.348  10.997
17986W        W90411  34.117  35.888  13.608
17987W        W90412  19.235  15.969   2.833
17988W        W90413  32.142  43.959  11.526
17989W        W90414  21.261  23.037  14.407
17990W        W90415   1.313   3.171  12.397
17991W        W90416  28.896   6.182   1.299
17992W        W90417  10.743  18.595   3.786
17993W        W90418   1.334  11.868  13.343
17994W        W90419  30.183  21.275   3.155
17995W        W90420  31.917   6.097  13.032
17996W        W90421  24.742  37.465   1.194
17997W        W90422  10.224  43.521   3.744
17998W        W90423   6.254  10.364   2.326
17999W        W90424  34.557  12.584   4.173
18000W        W90425  33.263  13.583   2.208
18001W        W90426  24.958  35.479   2.162
18002W        W90427  22.259  28.444   1.758
18003W        W90428  27.725  25.784   2.627
18004W        W90429   0.643  17.727  12.395
18005W        W90430  34.146   7.272  13.760
18006W        W90431  26.123  31.400  12.909
18007W        W90432  21.801  29.011   0.896
18008W        W90433  14.024  22.678   4.138
18009W        W90434  32.924  13.849  13.400
18010W        W90435  43.275  21.280  10.977
18011W        W90436  17.993   9.284  12.014
18012W        W90437   8.805  34.459   2.181
18013W        W90438  27.557  44.786  14.802
18014W        W90439  23.141  21.568   1.400
18015W        W90440  34.858  14.718  11.203
18016W        W90441  30.892   4.429  10.496
18017W        W90442  32.562  10.206  10.507
18018W        W90443  22.121  37.908   2.435
18019W        W90444  19.482  35.811   2.860
18020W        W90445  32.412  32.019  11.056
18021W        W90446   9.295  36.330   3.728
18022W        W90447   5.331  22.206   0.841
18023W        W90448   8.016  24.732   1.775
18024W        W90449  38.855   7.744   2.743
18025W        W90450   2.854  29.560   4.760
18026W        W90451  32.559  23.894  12.595
18027W        W90452   6.424  21.230  12.168
18028W        W90453  39.555   1.761  13.899
18029W        W90454  16.286  40.016   4.219
18030W        W90455  41.812  12.798  14.820
18031W        W90456  32.789  35.853  14.752
18032W        W90457  44.656  31.439   1.211
18033W        W90458   8.594  17.216   4.506
18034W        W90459  33.036  37.890  12.298
18035W        W90460  15.083  26.952  11.130
18036W        W90461  17.871  31.520  10.574
18037W        W90462   3.857   7.130  10.682
18038W        W90463  24.304  33.408  11.517
18039W        W90464  36.362   0.550   0.871
18040W        W90465  37.622  43.975   5.006
18041W        W90466  24.065   5.921   1.348
18042W        W90467  32.991  15.674   4.843
18043W        W90468  18.650   5.515  11.069
18044W        W90469  27.889  24.211   2.926
18045W        W90470  41.143  22.047  12.129
18046W        W90471  40.664  25.591   3.686
18047W        W90472  33.133   4.393   3.812
18048W        W90473  37.927  40.465  13.801
18049W        W90474  37.043  32.215  12.338
18050W        W90475  39.145   2.705   1.210
18051W        W90476  17.712  13.759   0.407
18052W        W90477  21.973  33.870  14.875
18053W        W90478  24.705   2.861   1.374
18054W        W90479  39.423  33.337   2.201
18055W        W90480   9.062   4.150  13.264
18056W        W90481   2.643   3.719   3.118
18057W        W90482  25.221  28.167   1.228
18058W        W90483  11.171  20.471   1.638
18059W        W90484  29.433  20.767   3.903
18060W        W90485  24.526   6.312   0.227
18061W        W90486  33.988   8.288   2.268
18062W        W90487  44.029  31.209  14.357
18063W        W90488   0.762  30.895   0.562
18064W        W90489   8.183  34.845  14.266
18065W        W90490  17.574  19.969   3.746
18066W        W90491   4.981  39.299  12.018
18067W        W90492  23.436  29.482  11.739
18068W        W90493  27.392  26.680  11.401
18069W        W90494   9.197  28.506  13.056
18070W        W90495  10.760  10.027   4.272
18071W        W90496  14.219  34.052  14.361
18072W        W90497   0.804   9.202  11.698
18073W        W90498  18.544  13.782   3.234
18074W        W90499   7.907   7.312   4.064
18075W        W90500  20.235  10.000   4.963
18076W        W90501   3.792  43.675   1.187
18077W        W90502  43.681   4.320  10.886
18078W        W90503  32.591   1.441   2.300
18079W        W90504   5.169  38.020   0.291
18080W        W90505   5.947   8.247   4.045
18081W        W90506   2.382  38.127  14.260
18082W        W90507  44.436  30.410  10.711
18083W        W90508  43.203   9.685  14.028
18084W        W90509   6.347  21.071   2.696
18085W        W90510  12.574  27.248  10.798
18086W        W90511  28.014   9.082  11.367
18087W        W90512  32.925  12.352   2.880
18088W        W90513  12.192   2.673   2.259
18089W        W90514  34.470   2.255   2.467
18090W        W90515   1.228  31.576  14.403
18091W        W90516  23.947  33.601  13.074
18092W        W90517  36.658   4.898   1.268
18093W        W90518   5.273  14.789  10.707
18094W        W90519  34.841  20.119  11.635
18095W        W90520   4.680  44.184   1.507
18096W        W90521   2.435  35.890   3.368
18097W        W90522   5.459  28.416   4.885
18098W        W90523   3.402  34.641  13.370
18099W        W90524   5.288  35.545  13.316
18100W        W90525   3.032  41.404  11.229
18101W        W90526  19.247  14.456   2.916
18102W        W90527  38.968   3.228  10.647
18103W        W90528  35.001  19.667  14.983
18104W        W90529   7.105  24.053   0.713
18105W        W90530   6.390   8.412  11.109
18106W        W90531  13.667  36.085   2.893
18107W        W90532  27.240  37.599  13.075
18108W        W90533  35.802  13.634   4.544
18109W        W90534  30.005  35.472  12.922
18110W        W90535  10.243   8.117   5.553
18111W        W90536  33.814   0.905   4.106
18112W        W90537  29.515   8.822  10.696
18113W        W90538   2.393   4.868  11.268
18114W        W90539   9.336  19.827  14.388
18115W        W90540   8.801  29.397   1.207
18116W        W90541  10.361  37.450  11.983
18117W        W90542  24.501   9.291   5.063
18118W        W90543  33.630  30.588  10.213
18119W        W90544   5.388  21.758   3.822
18120W        W90545   0.242  26.125   0.912
18121W        W90546  36.013  23.539  11.049
18122W        W90547  30.342  25.596  11.901
18123W        W90548   0.275  29.633   0.512
18124W        W90549  37.782   7.445  14.199
18125W        W90550  32.872  33.604   4.138
18126W        W90551  21.684  19.027  13.357
18127W        W90552  22.799  37.715  14.652
18128W        W90553   2.872  29.539   1.789
18129W        W90554  15.079   4.959  12.905
18130W        W90555   7.799  32.430   3.755
18131W        W90556  15.770  33.915  12.616
18132W        W90557  38.421  32.035   2.780
18133W        W90558  21.543  11.699   4.409
18134W        W90559  27.611  25.487   3.509
18135W        W90560   1.515  33.845   1.428
18136W        W90561   7.818  21.361  11.014
18137W        W90562  30.911  22.796   1.290
18138W        W90563  43.056  27.099  12.036
18139W        W90564  39.365  31.884   3.539
18140W        W90565  31.334  32.168   2.210
18141W        W90566   5.280  35.564  10.757
18142W        W90567   3.712  21.288   4.248
18143W        W90568  16.748  35.723  10.678
18144W        W90569  23.187  43.048   0.811
18145W        W90570  37.122  32.999   0.823
18146W        W90571  12.142  26.534  13.988
18147W        W90572  10.234  26.468  13.901
18148W        W90573  36.054  44.543   2.796
18149W        W90574  42.972  34.016   0.386
18150W        W90575  17.249  30.445  14.717
18151W        W90576  33.065  34.020   2.734
18152W        W90577   2.167  34.917  11.199
18153W        W90578  25.712  10.892   0.871
18154W        W90579   5.954  41.989   0.488
18155W        W90580   9.257  20.308  11.495
18156W        W90581  36.480  16.648  10.595
18157W        W90582  25.971  12.757   2.275
18158W        W90583  44.476  28.962  10.326
18159W        W90584  28.557  40.633   2.306
18160W        W90585  36.479   1.899  14.818
18161W        W90586  23.217  20.204  12.948
18162W        W90587  35.204  26.438   4.088
18163W        W90588  19.277  28.402   2.601
18164W        W90589  14.749  13.273  12.539
18165W        W90590   0.475  10.468   3.990
18166W        W90591   4.457  10.759  13.374
18167W        W90592   6.069  33.676   0.331
18168W        W90593  14.758  36.657  14.860
18169W        W90594  29.653  28.742  13.834
18170W        W90595  30.962   9.614  14.473
18171W        W90596  35.299   7.127   3.758
18172W        W90597  41.189  33.641   2.904
18173W        W90598  18.721  35.937   1.121
18174W        W90599  43.901   1.302   1.389
18175W        W90600  14.091  27.640  13.426
18176W        W90601   1.788   8.941  14.562
18177W        W90602  35.636  34.420  11.074
18178W        W90603  30.198  23.437  12.248
18179W        W90604   2.206  28.459   0.693
18180W        W90605   1.677  12.903   2.880
18181W        W90606  22.099   3.692  13.592
18182W        W90607   6.739  21.981   1.300
18183W        W90608  42.386  20.572   2.773
18184W        W90609  32.199  32.071  12.406
18185W        W90610  37.638  33.833  13.624
18186W        W90611  39.360  24.454  12.518
18187W        W90612  39.811   2.660  12.021
18188W        W90613  16.327   0.254  12.437
18189W        W90614  13.241  17.766  10.155
18190W        W90615  12.087  37.390   0.389
18191W        W90616  16.476  36.770  11.765
18192W        W90617  34.464  25.397   4.949
18193W        W90618  40.240   2.008  10.273
18194W        W90619  36.986  18.713   1.637
18195W        W90620  25.677  23.669   2.826
18196W        W90621  24.335  23.205   1.726
18197W        W90622  20.826  25.086   4.512
18198W        W90623   0.548  15.393  11.096
18199W        W90624  34.989  39.996  14.072
18200W        W90625  31.948  19.660  13.571
18201W        W90626   4.142  34.872  12.598
18202W        W90627   3.641  34.070   4.324
18203W        W90628  38.205  26.423   0.009
18204W        W90629  11.313  21.009  11.595
18205W        W90630  25.359  19.585  12.032
18206W        W90631  28.758  14.121   5.029
18207W        W90632  14.087  33.098   2.218
18208W        W90633  30.749  23.609   3.396
18209W        W90634  16.217  17.227   0.863
18210W        W90635  34.585  24.150  12.459
18211W        W90636  31.988  16.078  10.624
18212W        W90637  25.035  42.569  14.905
18213W        W90638   9.963   1.849   2.120
18214W        W90639  41.924  39.838   2.573
18215W        W90640  24.581  14.242   0.538
18216W        W90641   6.733  13.818  12.542
18217W        W90642  34.045  37.934   0.660
18218W        W90643  40.862   9.587   1.845
18219W        W90644  26.487  37.820  13.755
18220W        W90645   5.497  16.187  10.452
18221W        W90646   0.380  17.837   1.429
18222W        W90647  35.146  25.292   2.913
18223W        W90648  24.572  28.143   4.058
18224W        W90649  13.075  21.344   2.273
18225W        W90650   5.300   0.058  13.663
18226W        W90651  33.515   4.948   2.824
18227W        W90652  30.362   0.859  14.884
18228W        W90653  29.892   6.430  13.066
18229W        W90654  33.015   5.452  12.422
18230W        W90655  39.873   7.720  12.858
18231W        W90656  14.731   7.129   5.148
18232W        W90657  32.765  29.184  14.420
18233W        W90658  27.972  31.829  14.328
18234W        W90659  33.568  37.470   3.079
18235W        W90660  10.736   7.980   5.352
18236W        W90661  23.181  26.638   2.114
18237W        W90662  37.526  38.527  12.109
18238W        W90663  31.871  41.263  13.991
18239W        W90664   7.209  24.912   1.319
18240W        W90665   2.534  36.317   3.611
18241W        W90666  44.358  13.709   3.034
18242W        W90667  44.027  40.825  13.749
18243W        W90668  16.844  14.518  11.098
18244W        W90669  31.175  25.701  11.626
18245W        W90670  28.074  24.426  11.372
18246W        W90671  20.652   5.979  13.352
18247W        W90672  41.843  41.750  11.585
18248W        W90673  19.549  40.277   4.227
18249W        W90674  35.334  33.691   3.688
18250W        W90675  18.750  10.267  14.081
18251W        W90676  22.740  37.014   0.234
18252W        W90677  43.406  41.794   2.641
18253W        W90678  35.981   9.813   4.597
18254W        W90679   8.899  17.677  13.011
18255W        W90680   6.087  37.386  11.153
18256W        W90681  24.459  37.479   3.701
18257W        W90682  25.552   1.483  11.195
18258W        W90683  32.448  13.368  13.847
18259W        W90684  10.969  11.908  11.066
18260W        W90685   7.708   5.330  13.962
18261W        W90686   9.816  39.564  13.037
18262W        W90687  11.207  19.559   2.915
18263W        W90688  40.677  16.950  14.544
18264W        W90689  29.003  20.483   1.091
18265W        W90690  39.104  44.230   2.207
18266W        W90691  33.927  43.176   1.369
18267W        W90692   2.890  22.676  11.167
18268W        W90693  36.549   4.727  12.606
18269W        W90694  22.094  43.391  10.849
18270W        W90695   9.135  23.226  14.096
18271W        W90696  42.037  31.958   3.119
18272W        W90697   9.913  38.007   0.388
18273W        W90698  18.164  41.236   2.821
18274W        W90699  14.672   2.308  10.695
18275W        W90700  27.027  41.051   1.383
18276W        W90701   0.400  26.431   3.017
18277W        W90702   7.637  42.024   1.249
18278W        W90703  17.102   0.868  10.997
18279W        W90704  29.094  33.563   0.226
18280W        W90705  40.459  35.866   1.592
18281W        W90706   3.316  35.549   0.420
18282W        W90707  43.258  23.019  14.879
18283W        W90708  14.363  28.998   0.978
18284W        W90709  21.135  13.588  14.245
18285W        W90710  28.090  16.039  10.771
18286W        W90711   8.012  23.815  10.224
18287W        W90712  21.531  35.957  12.982
18288W        W90713  37.462  27.748   3.472
18289W        W90714  13.803  36.387   0.765
18290W        W90715   6.582   9.107  14.045
18291W        W90716  29.375   6.463  12.941
18292W        W90717  22.960  11.756  11.900
18293W        W90718  24.071  10.148  10.403
18294W        W90719  38.531  22.656   0.821
18295W        W90720  39.971  44.820  12.094
18296W        W90721  44.474  12.683  12.092
18297W        W90722   5.014   5.953  10.702
18298W        W90723  16.710   9.219  12.303
18299W        W90724  28.485  14.803   1.526
18300W        W90725  28.052   5.449   2.956
18301W        W90726  31.570  40.085  12.360
18302W        W90727   6.217  29.618   4.434
18303W        W90728  40.541  18.312   3.623
18304W        W90729  41.622  42.999  11.205
18305W        W90730   1.013  41.325   0.846
18306W        W90731   4.041  34.534   3.637
18307W        W90732  11.388  28.338   3.503
18308W        W90733  35.575  31.471  12.098
18309W        W90734  16.368   6.957   1.233
18310W        W90735  13.161  16.267  11.612
18311W        W90736   4.959  31.556   2.789
18312W        W90737  30.002  37.082  12.872
18313W        W90738  44.945  20.189  11.335
18314W        W90739  16.768  33.456   1.296
18315W        W90740  41.765   3.328  12.424
18316W        W90741  44.927  29.229   0.523
18317W        W90742  30.234  23.687  13.629
18318W        W90743   7.945  31.641   2.819
18319W        W90744  33.176  28.546  13.307
18320W        W90745  39.115   3.361   1.793
18321W        W90746  14.478  28.518   1.925
18322W        W90747   3.413   9.740   2.294
18323W        W90748   5.662  36.644   1.357
18324W        W90749  10.702   8.801   0.472
18325W        W90750  39.697  11.636  11.106
18326W        W90751  30.113  44.468   2.899
18327W        W90752  43.278  12.696  11.722
18328W        W90753   0.764  26.038   4.816
18329W        W90754  12.617   8.663  13.401
18330W        W90755  21.518   8.541  11.962
18331W        W90756  30.979  23.255  13.369
18332W        W90757   5.827  18.077   4.193
18333W        W90758   0.786  27.516  12.978
18334W        W90759  21.623  37.647   0.061
18335W        W90760  16.796  10.106  10.023
18336W        W90761  39.597   7.027   4.633
18337W        W90762   8.821   1.568  11.195
18338W        W90763  43.781  33.116   0.402
18339W        W90764  29.588  13.581   1.309
18340W        W90765  41.351  18.299   4.871
18341W        W90766  41.085  24.286   1.499
18342W        W90767  17.062  25.926   1.484
18343W        W90768  28.743  32.489   0.391
18344W        W90769   0.725  12.564   0.325
18345W        W90770   0.959  31.358  13.890
18346W        W90771   9.891  36.876   1.788
18347W        W90772  13.933  39.648   4.258
18348W        W90773  11.747  15.914   0.158
18349W        W90774  25.249   4.916  13.628
18350W        W90775  40.755  44.285  14.531
18351W        W90776  18.545  36.828  11.570
18352W        W90777  29.964  41.213   3.651
18353W        W90778   1.546  33.505   3.692
18354W        W90779  25.577   2.385  14.841
18355W        W90780  32.100   8.273  11.088
18356W        W90781  26.157  38.837   3.429
18357W        W90782  42.433  42.042   2.576
18358W        W90783  42.272   9.838  10.644
18359W        W90784  30.955  28.847  12.792
18360W        W90785  30.660  33.832   0.043
18361W        W90786  32.093  30.280   0.219
18362W        W90787   9.308  19.142   1.038
18363W        W90788  44.769  36.306  12.437
18364W        W90789  36.626  38.555  10.920
18365W        W90790  12.748  41.725   2.634
18366W        W90791  20.044  25.650   1.328
18367W        W90792  16.115   5.357  11.695
18368W        W90793  20.723  13.568  13.936
18369W        W90794  10.599   8.659   3.784
18370W        W90795  17.347  35.172  13.390
18371W        W90796  43.266   0.083  12.413
18372W        W90797  33.464  27.565  14.967
18373W        W90798  28.022  24.285   4.717
18374W        W90799  31.736   8.809   3.673
18375W        W90800  32.622  23.763   3.879
18376W        W90801   7.778  19.263  11.977
18377W        W90802  29.602  25.877  11.163
18378W        W90803  21.551  26.530  14.110
18379W        W90804  44.923  14.751   3.306
18380W        W90805  41.535   9.764  11.146
18381W        W90806  32.681  32.650  14.320
18382W        W90807  30.429   0.381   0.466
18383W        W90808  22.219  40.372  13.369
18384W        W90809  30.971  39.725  13.095
18385W        W90810  19.297  26.088   3.254
18386W        W90811  16.123  22.207   3.258
18387W        W90812  32.634  17.314  12.017
18388W        W90813  22.233  23.718   3.734
18389W        W90814  32.489   4.759  11.886
18390W        W90815   8.836   0.537   1.582
18391W        W90816  12.756  43.323   0.244
18392W        W90817  40.471  15.209   2.189
18393W        W90818   0.829   1.318  11.244
18394W        W90819   6.715  29.566  11.576
18395W        W90820   9.266  39.813  11.132
18396W        W90821  15.843  19.251   0.154
18397W        W90822  15.422   8.335  11.762
18398W        W90823  26.634  35.646   2.995
18399W        W90824  16.309  14.601  14.017
18400W        W90825   1.967  23.178  12.027
18401W        W90826  44.599  33.389  11.724
18402W        W90827  26.280  42.403  11.198
18403W        W90828   2.848  27.133  14.709
18404W        W90829  31.055  30.203  12.523
18405W        W90830  10.536  11.564   0.165
18406W        W90831  14.771   9.078   1.015
18407W        W90832  43.779  14.097  10.728
18408W        W90833  36.582  43.296  11.826
18409W        W90834  20.740  37.509   1.790
18410W        W90835  42.462  43.472  13.542
18411W        W90836  13.726   8.352  10.775
18412W        W90837  18.608   2.993   1.115
18413W        W90838  16.217  29.624  10.662
18414W        W90839   0.989  17.207  10.145
18415W        W90840  14.338  26.116  11.696
18416W        W90841  12.738  25.467  12.415
18417W        W90842  42.237   4.632  11.143
18418W        W90843  43.769  21.261   3.551
18419W        W90844  44.420  41.536  13.452
18420W        W90845  41.766  23.667  11.811
18421W        W90846  16.558  29.559   4.532
18422W        W90847  19.220  32.622  13.383
18423W        W90848   7.281  38.394  14.831
18424W        W90849  24.954  23.609  13.340
18425W        W90850   8.291   3.916  11.486
18426W        W90851  15.776  36.644  13.334
18427W        W90852  20.083  31.892   4.827
18428W        W90853  33.417  43.003   2.143
18429W        W90854  15.201   0.468  13.345
18430W        W90855  31.856  21.040  12.911
18431W        W90856  23.668  38.516  10.655
18432W        W90857  37.942   4.503  10.554
18433W        W90858   3.884   5.033  11.558
18434W        W90859  30.642  36.440   4.548
18435W        W90860  13.845  31.157   1.215
18436W        W90861  33.339  23.868  13.806
18437W        W90862  39.940   1.536  13.355
18438W        W90863  28.472  40.502  12.633
18439W        W90864  38.604  35.028  11.607
18440W        W90865  30.740   7.914  13.845
18441W        W90866  37.795  10.866  13.447
18442W        W90867  16.818  33.602   3.727
18443W        W90868  19.808  32.646   3.605
18444W        W90869  18.212  22.451  14.935
18445W        W90870  10.643  17.895   1.400
18446W        W90871  23.307  36.557   3.711
18447W        W90872  16.310  30.988  11.191
18448W        W90873   9.763  42.609  12.946
18449W        W90874  10.330  31.516   1.889
18450W        W90875   2.259  30.103   4.153
18451W        W90876  18.002  22.805  11.179
18452W        W90877  10.560  30.213   1.286
18453W        W90878  15.465   1.758   4.207
18454W        W90879   1.544  38.361   0.085
18455W        W90880  11.191  11.219   4.959
18456W        W90881  23.923  42.831  11.830
18457W        W90882  26.492  41.650   4.972
18458W        W90883  25.117  16.098  10.747
18459W        W90884  16.272  36.964  12.758
18460W        W90885  44.558  37.448   1.680
18461W        W90886  29.608  27.038   1.270
18462W        W90887   4.322  36.902   0.068
18463W        W90888   6.789  10.923   1.653
18464W        W90889  22.993   3.083   3.302
18465W        W90890   7.284  10.353  11.239
18466W        W90891  26.690  16.029   0.450
18467W        W90892   8.300  29.649   2.309
18468W        W90893  19.509  20.265  11.382
18469W        W90894   8.428   7.838   3.230
18470W        W90895  16.735  40.334  14.368
18471W        W90896  12.794  42.810  12.106
18472W        W90897  38.579  24.225   2.602
18473W        W90898  11.167  37.086   2.295
18474W        W90899  15.780  23.550  14.793
18475W        W90900  42.510  22.138   1.560
18476W        W90901  18.619   4.923  12.116
18477W        W90902  31.741  17.582  10.667
18478W        W90903   4.273  41.779   1.836
18479W        W90904  44.769  43.874   4.118
18480W        W90905  20.535   6.811  12.162
18481W        W90906   2.236  16.940   0.065
18482W        W90907   2.395  26.190   0.568
18483W        W90908  26.093  37.513  10.511
18484W        W90909  14.108  10.159  12.000
18485W        W90910  37.118  35.358  11.189
18486W        W90911  44.218  20.327   2.703
18487W        W90912  42.921  19.660  10.369
18488W        W90913  41.780  39.875  14.434
18489W        W90914   3.643  32.994   1.942
18490W        W90915  36.255  37.575  14.687
18491W        W90916  22.697  14.830  12.923
18492W        W90917  13.688  27.269  13.515
18493W        W90918  10.327  32.527   3.767
18494W        W90919  33.547  13.361  12.060
18495W        W90920  20.226  29.986   5.076
18496W        W90921  15.623   9.790  12.994
18497W        W90922   0.028  38.984  13.403
18498W        W90923   1.355  22.830   0.357
18499W        W90924  33.822  44.049  13.937
18500W        W90925  12.771  32.493   1.421
18501W        W90926  24.309  14.117  14.551
18502W        W90927  28.898  24.597  13.050
18503W        W90928  42.818   1.234   2.322
18504W        W90929  36.385  43.819  13.575
18505W        W90930  20.759  12.463   4.708
18506W        W90931  35.425  22.705  13.380
18507W        W90932  44.339   2.749   0.466
18508W        W90933  29.120  14.328  10.568
18509W        W90934  36.001   7.350  12.389
18510W        W90935  22.087  34.328  12.328
18511W        W90936  28.158  17.638   2.682
18512W        W90937  29.616  28.968  13.103
18513W        W90938   8.467  24.758   0.883
18514W        W90939  39.819   8.408  13.470
18515W        W90940   0.043  44.963  14.942
18516W        W90941  11.374  27.955   0.914
18517W        W90942   3.510  40.072  13.970
18518W        W90943  26.161  17.933  12.118
18519W        W90944  40.922  12.247   1.641
18520W        W90945   6.678  18.697  13.838
18521W        W90946  20.509  31.842   0.530
18522W        W90947   9.742  27.843  14.785
18523W        W90948  35.896  21.651  14.995
18524W        W90949  44.920  32.145   3.580
18525W        W90950  34.632   3.295  11.708
18526W        W90951  17.791  13.548   3.850
18527W        W90952  19.117  35.497   2.639
18528W        W90953   7.926  36.085  13.341
18529W        W90954  28.504  33.586   4.269
18530W        W90955  33.886  24.479   3.143
18531W        W90956  39.003   8.390   3.322
18532W        W90957  13.359  29.145  10.645
18533W        W90958  30.598  36.563  13.840
18534W        W90959   6.303   6.110  10.724
18535W        W90960  42.968  38.562   2.763
18536W        W90961  37.078  15.769  14.939
18537W        W90962  29.040  31.607   2.301
18538W        W90963   3.373  35.062  14.341
18539W        W90964  29.552  39.068   2.449
18540W        W90965  16.757  16.274   3.927
18541W        W90966  21.724  36.059  13.471
18542W        W90967  17.895  22.292  11.925
18543W        W90968  15.620  40.538  14.805
18544W        W90969  30.354   8.392  11.884
18545W        W90970  31.963  35.897   2.050
18546W        W90971  35.166  18.667   2.581
18547W        W90972  21.671  28.000  14.370
18548W        W90973  20.579   9.432  11.671
18549W        W90974   7.086  10.035  12.016
18550W        W90975  28.365  20.948   0.294
18551W        W90976  39.547  20.778   3.748
18552W        W90977  24.164  16.647  10.699
18553W        W90978   3.435   6.219  12.811
18554W        W90979  31.566  14.315   0.232
18555W        W90980  24.948  41.597  13.904
18556W        W90981  22.088  14.304   2.851
18557W        W90982   3.309  24.524  10.589
18558W        W90983  38.029  11.684   0.352
18559W        W90984  33.866   9.012  10.711
18560W        W90985   4.840  22.151   3.350
18561W        W90986  13.383   3.350   3.191
18562W        W90987   9.507  33.807  11.639
18563W        W90988  44.012   7.350  14.993
18564W        W90989   3.110  12.574  11.609
18565W        W90990   5.715   1.416  13.777
18566W        W90991  34.868  43.250   4.989
18567W        W90992  10.087  40.030  14.473
18568W        W90993  32.943   1.461   1.367
18569W        W90994   7.721  14.972   4.363
18570W        W90995   6.373  27.932  13.478
18571W        W90996  10.994  18.084   0.148
18572W        W90997  29.124  37.596   4.623
18573W        W90998  22.952  42.790  13.358
18574W        W90999  18.759  24.163   3.589
18575W        W91000  32.548  35.008   1.332
18576W        W91001  31.569   2.419  11.159
18577W        W91002  18.392  22.688  10.154
18578W        W91003   9.229  11.350   2.396
18579W        W91004   8.312  13.553  12.816
18580W        W91005  20.727  31.891  12.005
18581W        W91006  33.361  29.632   0.646
18582W        W91007   2.439   9.360   1.397
18583W        W91008  35.478  16.206  14.303
18584W        W91009  42.967  43.358   1.450
18585W        W91010   8.761   4.266   4.899
18586W        W91011  38.255  14.112   1.453
18587W        W91012  30.969   4.899  10.760
18588W        W91013  27.673  12.019   3.306
18589W        W91014   4.517  37.332   1.390
18590W        W91015   2.451  22.638   2.129
18591W        W91016  37.368  33.392   2.247
18592W        W91017  23.088  20.989  11.496
18593W        W91018   8.389   9.907   2.111
18594W        W91019   3.523  28.119  14.788
18595W        W91020   8.874  41.807   0.980
18596W        W91021  29.792  41.233   2.809
18597W        W91022  41.027  19.478   0.773
18598W        W91023  33.597   4.836  10.044
18599W        W91024  41.877   1.788   3.208
18600W        W91025  30.154  38.845   4.581
18601W        W91026  15.840  22.198  13.668
18602W        W91027  43.355  15.273  12.508
18603W        W91028  37.006  35.855   3.202
18604W        W91029   3.294   3.384   4.947
18605W        W91030  40.027  40.033   3.655
18606W        W91031  14.382  15.150   0.868
18607W        W91032  12.519  44.891  14.266
18608W        W91033   4.560   4.408   4.935
18609W        W91034  39.605  22.652  14.861
18610W        W91035  44.281  37.889  13.805
18611W        W91036  15.126  34.543  13.112
18612W        W91037  25.898  40.881  12.084
18613W        W91038  27.140  44.704  10.856
18614W        W91039  42.047  39.939  10.351
18615W        W91040  13.719  18.040   2.359
18616W        W91041   1.076   3.814   0.904
18617W        W91042  25.119  42.947  14.076
18618W        W91043  10.013   1.570   3.779
18619W        W91044  23.513   1.663  11.965
18620W        W91045  33.653  31.925   1.298
18621W        W91046   1.273   7.409  12.464
18622W        W91047  31.965  37.038  14.659
18623W        W91048  12.145  39.088  13.969
18624W        W91049  42.490  29.531   4.457
18625W        W91050   8.693   8.356  10.164
18626W        W91051  15.220  34.522  12.127
18627W        W91052  41.046  26.992   1.019
18628W        W91053  31.147   0.363  14.896
18629W        W91054   9.795  34.418   3.151
18630W        W91055  10.646  36.926  11.461
18631W        W91056   8.047  31.229   4.174
18632W        W91057  21.592  32.936  12.638
18633W        W91058  36.626  10.067   2.315
18634W        W91059  21.030  33.515   0.527
18635W        W91060   4.248  40.381   1.937
18636W        W91061   7.881   1.218  13.599
18637W        W91062  23.665  37.638  14.108
18638W        W91063   6.661  29.735  13.372
18639W        W91064  37.081  17.014   2.305
18640W        W91065  41.371   6.822   4.461
18641W        W91066   6.656  40.857  13.550
18642W        W91067  30.340  23.929  12.360
18643W        W91068  25.044  21.085   3.347
18644W        W91069  13.626   2.398   2.281
18645W        W91070   2.957  13.093   1.613
18646W        W91071  17.804   7.164   0.339
18647W        W91072  16.380   6.930  12.526
18648W        W91073  23.758  12.861   0.839
18649W        W91074  38.557  25.550  11.622
18650W        W91075   6.235  10.052   3.282
18651W        W91076  41.910  28.590   1.629
18652W        W91077  11.778   7.699  10.676
18653W        W91078  40.451   8.753  11.633
18654W        W91079  19.497  43.806   0.320
18655W        W91080   3.160  13.608  14.451
18656W        W91081  11.932  21.744  13.431
18657W        W91082  33.035  23.978  13.401
18658W        W91083  43.303   2.077  12.865
18659W        W91084  14.259   5.906  14.060
18660W        W91085   5.869  39.567   4.707
18661W        W91086  38.021  11.070   4.151
18662W        W91087   9.187  17.889   1.208
18663W        W91088  43.938  27.959   2.218
18664W        W91089  29.116  19.578   1.306
18665W        W91090  11.094  12.821   3.152
18666W        W91091  23.076   8.380  14.000
18667W        W91092   7.305  15.256   4.268
18668W        W91093  34.377  22.183   4.223
18669W        W91094  32.846  12.288   3.704
18670W        W91095  23.740  14.293   3.384
18671W        W91096  21.209  37.734   2.306
18672W        W91097  27.249  35.946   1.408
18673W        W91098  23.597  34.897  10.639
18674W        W91099  25.573  20.014  11.766
18675W        W91100  10.820  13.646  12.823
18676W        W91101   3.310  39.022   4.223
18677W        W91102  23.485  29.710  11.303
18678W        W91103   1.369  25.938   2.634
18679W        W91104  12.849  30.120  11.530
18680W        W91105  38.832   1.794  13.336
18681W        W91106  18.110   5.234   1.036
18682W        W91107   7.820  40.546   2.230
18683W        W91108  33.626  21.197  11.144
18684W        W91109  35.809  35.507   1.948
18685W        W91110  32.665  40.073   4.836
18686W        W91111  32.948  41.029   0.864
18687W        W91112  17.270  44.416  13.223
18688W        W91113  19.957  23.089   4.134
18689W        W91114  32.854  30.481   2.675
18690W        W91115  33.993   7.799  13.811
18691W        W91116  10.342   7.251  11.433
18692W        W91117  31.067   1.024   1.765
18693W        W91118   7.435  35.437   4.258
18694W        W91119   3.455  19.637  13.544
18695W        W91120  27.057  33.567  12.443
18696W        W91121  30.163  10.359   0.368
18697W        W91122  11.170  34.871  13.355
18698W        W91123  20.050  22.728   2.362
18699W        W91124   7.247   2.348  10.769
18700W        W91125  36.071  35.156  12.043
18701W        W91126  24.128  13.725   3.573
18702W        W91127  30.489   4.499   4.197
18703W        W91128  16.544  23.226   3.682
18704W        W91129  12.284  20.139   0.685
18705W        W91130  38.043  43.653   5.123
18706W        W91131  18.499   7.884  14.321
18707W        W91132  14.151  31.180  11.317
18708W        W91133  29.581  16.137   3.385
18709W        W91134   5.481  26.687   3.731
18710W        W91135  35.412  31.965  11.192
18711W        W91136   8.564  22.897  14.686
18712W        W91137   6.399  34.392  12.377
18713W        W91138  37.067  10.491  14.423
18714W        W91139   1.225  16.882   1.241
18715W        W91140  28.242   9.275   1.820
18716W        W91141   0.719  16.760  11.969
18717W        W91142  28.031  33.849   5.013
18718W        W91143  10.838   2.825   3.243
18719W        W91144  22.672   4.409   1.413
18720W        W91145  38.452  21.623   1.281
18721W        W91146   7.622   1.759   1.334
18722W        W91147  44.075  20.680  12.074
18723W        W91148  25.798  35.530   0.247
18724W        W91149  38.993   1.969   2.798
18725W        W91150  15.742  29.177  11.936
18726W        W91151   4.484  38.626   0.428
18727W        W91152  21.954  31.852   4.009
18728W        W91153   2.015  36.467   1.671
18729W        W91154  14.600  26.639   3.749
18730W        W91155  40.796  15.155  12.457
18731W        W91156  26.297  27.183   3.564
18732W        W91157  16.572   0.507  11.961
18733W        W91158  34.406  37.532   1.499
18734W        W91159  10.833   9.763   2.823
18735W        W91160   0.265   7.403   1.383
18736W        W91161  44.165  20.691   4.167
18737W        W91162  35.970   0.305  13.619
18738W        W91163  11.253  11.761   4.703
18739W        W91164  25.677  42.476   3.613
18740W        W91165  14.677   5.328   4.604
18741W        W91166   6.888  18.259  10.675
18742W        W91167  38.975  29.311   2.837
18743W        W91168  39.854  16.072   4.139
18744W        W91169   9.154   6.179   1.866
18745W        W91170  33.210   1.362   0.931
18746W        W91171  36.082  12.563   1.391
18747W        W91172  16.133  21.597  11.032
18748W        W91173  21.134  20.768   1.786
18749W        W91174  33.733  10.176   3.728
18750W        W91175   8.261  31.139   2.262
18751W        W91176  11.314  34.835  10.734
18752W        W91177  24.568  18.885  12.905
18753W        W91178  30.672  35.049   0.298
18754W        W91179  10.864  19.224  14.936
18755W        W91180  33.618  38.121   3.404
18756W        W91181   4.613  29.410  10.799
18757W        W91182  35.487  14.661  12.649
18758W        W91183  12.750  10.408   3.211
18759W        W91184   8.268  31.890  12.065
18760W        W91185  18.386  36.365  14.384
18761W        W91186  38.320  27.402   3.530
18762W        W91187   3.360  37.035  12.063
18763W        W91188  10.432  17.737  12.921
18764W        W91189  15.770  17.234  14.063
18765W        W91190  36.559  44.846  14.832
18766W        W91191  26.656   9.359   4.783
18767W        W91192  28.831  34.823  13.794
18768W        W91193  30.176  28.231   2.457
18769W        W91194  22.632   1.223   3.744
18770W        W91195  32.997   4.141   2.769
18771W        W91196  23.659   5.273   1.860
18772W        W91197  30.308  12.119   1.747
18773W        W91198  22.700  21.977  12.129
18774W        W91199   2.440  44.252   0.906
18775W        W91200   0.944  25.466   3.196
18776W        W91201  36.392   6.008   3.564
18777W        W91202   2.242  18.991   3.704
18778W        W91203  13.173  38.320   3.241
18779W        W91204   5.758  23.100   0.842
18780W        W91205  34.346   2.790  14.441
18781W        W91206  37.455   0.804  13.875
18782W        W91207  21.720  43.594   1.904
18783W        W91208  23.075  35.483  11.224
18784W        W91209  13.816  26.457   3.163
18785W        W91210   1.410  40.521   1.422
18786W        W91211  38.127   8.305  14.383
18787W        W91212  11.014   0.952   2.008
18788W        W91213   2.971  10.056   4.428
18789W        W91214  21.306  38.452  11.644
18790W        W91215  33.750  21.784  11.939
18791W        W91216   8.464  28.157   4.018
18792W        W91217   4.961   8.154  10.709
18793W        W91218  33.966  43.347  13.472
18794W        W91219  13.346  34.624   2.798
18795W        W91220   2.787  20.806   0.387
18796W        W91221  29.599  24.755  14.997
18797W        W91222   5.268  20.628  12.412
18798W        W91223   4.867  21.791  13.891
18799W        W91224  24.963  23.081   2.043
18800W        W91225   9.432  31.677   0.730
18801W        W91226  24.535  24.690  14.772
18802W        W91227  36.904  44.106  12.505
18803W        W91228  16.276  40.240  13.595
18804W        W91229   8.360  12.887   1.463
18805W        W91230   9.312  18.250  14.658
18806W        W91231  22.732   6.800   0.930
18807W        W91232  11.045  13.110   4.496
18808W        W91233  24.367   0.322  13.908
18809W        W91234  16.597  40.461   2.716
18810W        W91235  22.178  12.875  11.156
18811W        W91236  24.929  22.974  14.238
18812W        W91237  28.853  25.451  13.968
18813W        W91238  29.173  27.447   4.262
18814W        W91239  16.436   8.422   1.242
18815W        W91240  12.407  20.245   3.691
18816W        W91241  29.214   9.233   1.629
18817W        W91242  29.593   5.670  10.695
18818W        W91243  12.846  17.382   3.427
18819W        W91244  13.942  14.219  10.329
18820W        W91245  18.211  10.438   2.310
18821W        W91246  40.174   9.295   3.318
18822W        W91247  32.589  44.861   2.331
18823W        W91248  14.091  25.420  12.352
18824W        W91249   2.524  44.052  14.952
18825W        W91250  38.761  36.025   1.228
18826W        W91251  20.724   4.165  10.725
18827W        W91252  22.563  28.720  10.654
18828W        W91253  41.513  22.828  14.315
18829W        W91254  24.173   2.820   1.435
18830W        W91255   7.772  40.406  12.076
18831W        W91256  35.143  43.935   3.277
18832W        W91257  41.439   7.755  10.696
18833W        W91258  29.028  27.491  11.551
18834W        W91259  21.284  20.334   3.186
18835W        W91260   6.315  24.976   4.740
18836W        W91261  35.752  32.028  10.765
18837W        W91262  26.017  34.534  12.354
18838W        W91263  25.940  27.109  14.298
18839W        W91264  36.567   8.626  12.110
18840W        W91265  30.508  34.605   1.785
18841W        W91266  17.889  26.818  12.541
18842W        W91267  18.686   9.437   3.364
18843W        W91268   7.673  42.946  10.602
18844W        W91269  35.494   7.648  14.053
18845W        W91270  34.242  31.778  14.982
18846W        W91271  41.758  29.675  12.040
18847W        W91272  26.936  23.564  13.408
18848W        W91273  11.894   6.225  14.159
18849W        W91274  43.103   1.486   2.855
18850W        W91275  25.442  31.565  14.578
18851W        W91276  18.118  10.268  11.365
18852W        W91277   0.916  33.154  12.037
18853W        W91278  27.593  18.685  12.018
18854W        W91279  29.057  17.279   1.245
18855W        W91280  10.248  43.566  10.606
18856W        W91281  36.891   6.069   3.736
18857W        W91282  20.119  17.221  14.334
18858W        W91283  38.938  36.688  14.106
18859W        W91284  44.049  27.942  14.978
18860W        W91285  28.924  32.025  13.037
18861W        W91286  21.199  36.422  12.672
18862W        W91287   0.782  40.875   2.153
18863W        W91288  26.372  20.642   1.495
18864W        W91289  28.178   1.292   3.823
18865W        W91290  18.646  23.181  12.407
18866W        W91291  41.401  28.654   1.481
18867W        W91292  20.976   2.224  12.090
18868W        W91293   7.332  28.991   3.342
18869W        W91294  32.766  13.219   0.279
18870W        W91295  39.826  19.861   0.324
18871W        W91296  17.169   4.566   1.991
18872W        W91297  25.956   6.147   3.771
18873W        W91298  39.530  21.202   1.412
18874W        W91299  37.019  15.882  13.901
18875W        W91300  30.246  11.299   3.106
18876W        W91301  24.293   2.996  11.214
18877W        W91302  38.500  24.869   4.135
18878W        W91303  23.817  36.056   1.865
18879W        W91304  31.591  33.862  12.510
18880W        W91305  24.197  42.441   1.340
18881W        W91306  20.788   2.920   2.852
18882W        W91307  43.882   5.226  13.397
18883W        W91308  11.560   8.666   1.791
18884W        W91309   6.149  21.274  14.853
18885W        W91310   8.801   6.380   2.209
18886W        W91311  35.361  28.695  12.206
18887W        W91312  12.623  17.141  14.464
18888W        W91313  37.453   7.170   2.440
18889W        W91314  36.913  17.524  12.585
18890W        W91315  22.478  13.682  12.469
18891W        W91316  42.221   2.686   4.671
18892W        W91317  39.740  42.418   1.413
18893W        W91318  18.849  26.956   4.864
18894W        W91319  24.016  31.324  12.305
18895W        W91320  11.718   4.395  11.594
18896W        W91321  34.850  35.472  14.432
18897W        W91322   7.297   0.952   1.761
18898W        W91323  32.438   7.588  10.624
18899W        W91324  34.542   1.778   0.554
18900W        W91325  33.307  21.679   4.173
18901W        W91326  34.948  11.729   1.426
18902W        W91327   4.345  13.300  11.653
18903W        W91328  44.841   7.725  14.284
18904W        W91329  36.602  39.873  10.625
18905W        W91330  31.718  34.635  12.090
18906W        W91331  26.735  20.206  14.715
18907W        W91332  24.298  18.532  12.533
18908W        W91333  33.454  33.659  14.011
18909W        W91334  20.178   1.433  13.085
18910W        W91335  12.104  27.045   4.738
18911W        W91336  31.927  15.550  10.631
18912W        W91337  40.790  30.514  14.996
18913W        W91338  28.714   5.682  11.587
18914W        W91339  34.353  14.444   2.218
18915W        W91340  13.936  11.057   3.342
18916W        W91341  43.479   5.259  11.891
18917W        W91342  44.968   4.299   0.022
18918W        W91343  39.557  33.597  10.111
18919W        W91344   6.399  36.760   2.511
18920W        W91345  13.771  37.453   3.092
18921W        W91346  44.790  19.752  13.450
18922W        W91347  12.141  17.268   2.720
18923W        W91348  12.821  33.665  11.700
18924W        W91349  24.651  17.696   1.852
18925W        W91350  18.598  36.613   4.545
18926W        W91351  15.725  11.304   4.470
18927W        W91352   5.012  40.517  11.413
18928W        W91353  41.925  12.625  12.619
18929W        W91354  32.848  16.920  14.236
18930W        W91355  19.773  41.293   3.774
18931W        W91356  21.519   1.039  14.600
18932W        W91357  31.366   8.276  11.912
18933W        W91358  15.582  19.643   4.136
18934W        W91359  35.748  34.903  11.608
18935W        W91360   2.837   4.973  11.057
18936W        W91361  12.743   0.471   3.628
18937W        W91362  12.777  22.276  14.729
18938W        W91363  11.320   6.289   3.852
18939W        W91364  13.907  26.101  11.978
18940W        W91365  29.641  42.068   2.583
18941W        W91366  23.937   7.768  12.880
18942W        W91367   8.242  26.506   2.709
18943W        W91368  22.187  34.485  10.896
18944W        W91369  13.185  34.280   0.263
18945W        W91370  17.765   1.921   2.801
18946W        W91371  19.418  15.209  13.297
18947W        W91372   8.131  26.941  11.464
18948W        W91373  42.126  28.631   4.184
18949W        W91374  28.943  30.121  11.260
18950W        W91375  29.775  12.016   4.530
18951W        W91376  31.913  26.796   1.346
18952W        W91377  42.938   3.287  13.750
18953W        W91378  21.954  13.004   2.223
18954W        W91379  22.239  43.521  12.791
18955W        W91380  22.219  13.311  14.123
18956W        W91381   5.693   5.087  10.952
18957W        W91382  21.730  17.830   0.573
18958W        W91383  44.758   9.324  12.995
18959W        W91384  13.217  31.193   0.009
18960W        W91385   8.964   1.810   3.744
18961W        W91386   9.755  25.096  14.943
18962W        W91387   4.648  24.232  12.770
18963W        W91388  15.860   2.250  12.366
18964W        W91389  41.954  21.523   2.101
18965W        W91390  14.653  21.011  14.776
18966W        W91391  10.854  25.699   3.732
18967W        W91392  17.293  43.646   4.428
18968W        W91393  18.582  22.256  13.341
18969W        W91394   6.159  20.625   4.599
18970W        W91395  41.530   7.924  11.204
18971W        W91396  10.669  23.556   2.131
18972W        W91397  23.556   8.198  11.489
18973W        W91398  16.616   1.236  13.337
18974W        W91399   4.156   3.341   3.874
18975W        W91400  37.054   7.872  12.177
18976W        W91401   9.285  39.547  13.004
18977W        W91402   7.396   3.814   3.758
18978W        W91403   9.687  44.763   2.148
18979W        W91404   0.151  18.731  13.423
18980W        W91405  22.484  17.831   3.629
18981W        W91406  28.013  26.874  14.847
18982W        W91407  39.098   2.953  11.069
18983W        W91408  17.291  43.892   0.538
18984W        W91409  17.731  30.467  11.617
18985W        W91410  37.065  20.557   4.180
18986W        W91411  10.892   7.206   5.118
18987W        W91412  13.623  22.375   4.002
18988W        W91413   1.880  37.562   4.929
18989W        W91414  21.528  37.583   0.995
18990W        W91415  30.429  30.453   0.973
18991W        W91416  34.974  37.184   2.460
18992W        W91417  40.985  30.067   4.605
18993W        W91418  21.060   8.790  11.990
18994W        W91419   5.433   9.147  12.536
18995W        W91420   9.309  33.065  12.699
18996W        W91421  41.938  38.325  11.876
18997W        W91422  13.532  31.391   4.081
18998W        W91423  12.583  18.516  12.202
18999W        W91424  21.582  30.612  11.976
19000W        W91425   2.747  17.648   2.949
19001W        W91426  30.560  17.616  13.395
19002W        W91427  26.521  39.323  10.784
19003W        W91428   0.866  14.297   1.177
19004W        W91429  13.593  24.357   0.209
19005W        W91430  18.428  42.982  12.879
19006W        W91431  33.634   2.743   2.851
19007W        W91432  33.167   4.889   3.246
19008W        W91433  22.247  35.480   2.884
19009W        W91434  18.762  37.645  12.567
19010W        W91435  15.218  30.076   0.298
19011W        W91436  21.694  11.409  14.202
19012W        W91437  34.219  15.037   3.700
19013W        W91438  13.194  15.178   3.617
19014W        W91439  22.649   2.901   3.675
19015W        W91440  31.433  26.558   3.095
19016W        W91441  14.013  38.357   1.128
19017W        W91442  14.046  20.411   0.786
19018W        W91443  17.038  11.085  11.666
19019W        W91444  24.687  28.602   3.329
19020W        W91445  40.331  35.439   4.579
19021W        W91446  43.807  26.010  11.454
19022W        W91447  18.709   8.326   0.769
19023W        W91448   6.338  13.673   2.010
19024W        W91449  43.268  44.425  11.246
19025W        W91450   1.795  19.292  11.094
19026W        W91451  15.589  16.219  11.099
19027W        W91452  40.815  21.174  12.403
19028W        W91453  22.154   3.602  11.069
19029W        W91454  40.977  30.599  10.813
19030W        W91455  33.134  40.821   4.156
19031W        W91456  10.705  11.804   3.982
19032W        W91457  19.310   6.310   1.897
19033W        W91458  15.545  25.933   1.746
19034W        W91459  12.642  11.105  12.334
19035W        W91460  17.479  38.992  10.821
19036W        W91461   7.276   2.952  11.445
19037W        W91462  24.002   1.938  12.828
19038W        W91463   7.990   2.645  14.441
19039W        W91464  41.843  23.012   3.200
19040W        W91465  28.119  42.265  11.214
19041W        W91466  25.156  25.648   4.539
19042W        W91467  26.811   8.769   3.256
19043W        W91468  28.492  35.305  11.716
19044W        W91469  16.095  18.098   0.449
19045W        W91470   7.811  11.694  13.812
19046W        W91471  29.553  30.757   3.183
19047W        W91472  28.668  32.475  14.387
19048W        W91473  43.475  44.043   4.844
19049W        W91474   7.431   9.444   1.183
19050W        W91475  15.807  29.965   2.478
19051W        W91476   9.311   7.056  13.467
19052W        W91477  35.931   0.580   1.632
19053W        W91478  16.721  30.021   0.193
19054W        W91479   5.747  22.488  10.582
19055W        W91480  12.268   1.950   3.495
19056W        W91481  17.589   0.954   2.228
19057W        W91482  19.051  27.418   3.199
19058W        W91483  23.937  26.599   2.815
19059W        W91484  13.624  32.315   2.447
19060W        W91485  26.172  13.486   0.227
19061W        W91486  32.682  21.913   1.727
19062W        W91487  26.724   9.714   1.032
19063W        W91488   5.828  44.070  10.690
19064W        W91489  12.895  14.401   3.228
19065W        W91490  43.567  39.881   3.306
19066W        W91491   5.850   5.315  12.863
19067W        W91492  29.505  26.485   1.260
19068W        W91493  39.494  21.627   4.617
19069W        W91494   0.306  41.402  12.511
19070W        W91495  36.904  16.994   1.012
19071W        W91496  42.382   9.209   1.758
19072W        W91497   0.005  34.193  14.525
19073W        W91498  22.301  32.054  14.048
19074W        W91499  44.790  10.716   1.217
19075W        W91500  44.902   8.897   4.549
19076W        W91501  29.968  29.634   2.636
19077W        W91502  24.172  33.734  11.891
19078W        W91503  43.861  14.394  14.342
19079W        W91504  32.090  30.351  10.219
19080W        W91505   3.261  43.420  14.203
19081W        W91506  10.407   0.865   0.768
19082W        W91507   1.526  31.048  12.591
19083W        W91508   4.842  39.980   2.624
19084W        W91509  25.668  23.979  13.958
19085W        W91510  18.643  26.508   3.577
19086W        W91511  20.309  39.454  12.886
19087W        W91512   9.608  26.188  13.568
19088W        W91513  26.012  38.689   0.534
19089W        W91514  34.550   8.950  12.093
19090W        W91515  11.335  44.372  14.443
19091W        W91516  28.265   2.219  11.239
19092W        W91517   5.513  28.531   3.413
19093W        W91518  21.285   7.364  10.185
19094W        W91519  15.677  41.386  14.310
19095W        W91520   0.003  40.364   1.216
19096W        W91521   8.654   2.403  10.912
19097W        W91522  28.426  29.724   1.647
19098W        W91523   1.231  20.160   1.867
19099W        W91524   5.249  32.623   3.642
19100W        W91525  44.242  28.099  12.498
19101W        W91526  12.956  15.361   0.432
19102W        W91527  12.916  43.891  12.415
19103W        W91528  34.851  26.195   3.625
19104W        W91529   0.462  17.333   0.916
19105W        W91530  16.150   1.175   2.307
19106W        W91531   4.987  32.409   0.057
19107W        W91532   2.965   5.365  14.826
19108W        W91533  41.259  10.225   1.256
19109W        W91534   5.512  37.201   4.326
19110W        W91535  34.291  36.407  13.163
19111W        W91536   6.425  20.225  12.927
19112W        W91537  27.150  44.338   1.986
19113W        W91538  16.378  42.943   0.941
19114W        W91539  19.777  37.688   2.618
19115W        W91540   5.738  16.382   0.233
19116W        W91541  38.282  30.734  11.231
19117W        W91542  12.824  35.901  12.873
19118W        W91543   0.303   7.674  13.422
19119W        W91544   4.782   0.357   0.207
19120W        W91545   9.232  37.797   0.838
19121W        W91546   7.596  14.365   1.737
19122W        W91547  15.680  35.990   2.191
19123W        W91548   0.676  37.776   0.455
19124W        W91549  20.157   4.409  14.783
19125W        W91550  15.912  16.328  12.599
19126W        W91551  32.952   3.962  11.427
19127W        W91552  20.723  35.468  13.394
19128W        W91553   5.802  13.061  14.574
19129W        W91554   7.598  31.205  12.823
19130W        W91555  35.684  25.563   0.320
19131W        W91556   4.349  19.803  14.093
19132W        W91557  35.903  30.113   4.549
19133W        W91558  14.325  25.422   0.862
19134W        W91559   3.969   1.918   4.116
19135W        W91560  22.027  41.437   3.269
19136W        W91561  13.822   9.394   2.702
19137W        W91562  42.923   0.482   2.834
19138W        W91563  34.236  42.909  10.680
19139W        W91564   0.677  28.674  13.969
19140W        W91565  20.494  32.476   1.345
19141W        W91566  13.596  18.481  13.907
19142W        W91567  40.008  43.520  10.232
19143W        W91568  21.594  21.642  13.740
19144W        W91569   5.792  13.322  12.410
19145W        W91570  17.179  38.989  14.335
19146W        W91571   5.481  33.625   1.671
19147W        W91572   4.731  17.264  11.354
19148W        W91573  22.900  23.103  14.713
19149W        W91574  29.962   1.515   3.523
19150W        W91575  19.646   3.499   0.438
19151W        W91576  32.519  32.568  11.801
19152W        W91577  15.112   2.144  13.920
19153W        W91578  14.435  34.707   1.481
19154W        W91579  17.693  30.526  10.647
19155W        W91580  36.512  26.742  14.851
19156W        W91581  22.288  23.336  11.958
19157W        W91582  30.535  18.537   4.580
19158W        W91583  38.512  16.239   0.795
19159W        W91584  20.406  12.697   0.815
19160W        W91585   1.668  13.670  10.903
19161W        W91586  16.154  32.631  10.674
19162W        W91587  40.715  17.123  11.355
19163W        W91588  18.114   5.678  14.217
19164W        W91589  19.405  31.494  14.055
19165W        W91590  19.024  41.978   0.839
19166W        W91591  16.370   8.116  11.240
19167W        W91592  37.878  44.534   1.796
19168W        W91593  20.309  34.099   2.789
19169W        W91594   1.483  10.760  11.736
19170W        W91595   2.029   4.469  13.971
19171W        W91596  21.143   1.713  13.427
19172W        W91597   2.868  35.935   3.057
19173W        W91598  15.918  44.464  14.793
19174W        W91599   8.653  44.035   4.362
19175W        W91600  14.678  15.781   0.140
19176W        W91601   5.300  13.333   3.235
19177W        W91602   0.123  22.444  10.814
19178W        W91603  26.684  32.932  10.306
19179W        W91604  16.048  41.305   0.396
19180W        W91605  41.910  21.616  11.171
19181W        W91606  35.495   8.546  12.103
19182W        W91607  44.732   5.807  12.373
19183W        W91608  35.596  35.062  10.721
19184W        W91609   3.378  27.173  11.625
19185W        W91610  37.945  26.774   4.022
19186W        W91611  23.162  14.508  11.676
19187W        W91612  18.653  19.720  12.391
19188W        W91613  36.607  40.262  14.527
19189W        W91614   1.663   6.465   1.662
19190W        W91615  16.316  23.839   0.218
19191W        W91616  23.853  22.252   9.910
19192W        W91617  38.501  18.106   4.168
19193W        W91618  10.998  13.200  11.119
19194W        W91619   5.127  31.094   2.966
19195W        W91620  10.402  29.861   2.740
19196W        W91621  30.535  11.347   4.289
19197W        W91622  31.914   2.826  14.408
19198W        W91623  36.538  43.190  14.508
19199W        W91624  25.995  27.666  10.468
19200W        W91625  14.289  29.110  10.638
19201W        W91626   1.766  17.549   0.331
19202W        W91627   9.413  27.009   2.180
19203W        W91628  11.020  27.660  12.015
19204W        W91629   4.299  26.100  13.128
19205W        W91630   2.292   7.349  14.292
19206W        W91631  20.471   4.702   2.073
19207W        W91632  13.073  15.884   0.450
19208W        W91633   0.710  19.107  12.424
19209W        W91634  39.574  39.963   2.240
19210W        W91635  35.816  34.648   2.273
19211W        W91636  18.584  44.067  11.889
19212W        W91637  16.381   4.912   0.896
19213W        W91638  29.075  40.315   3.793
19214W        W91639   6.688  41.677   2.020
19215W        W91640   9.647   7.887  13.085
19216W        W91641  11.206   2.998  13.407
19217W        W91642  39.047  31.829  11.937
19218W        W91643  16.150  20.731   1.269
19219W        W91644   3.713  42.808  13.559
19220W        W91645   1.241  28.201   0.355
19221W        W91646  18.208  14.556   2.268
19222W        W91647  40.041   0.265   4.684
19223W        W91648  41.942  36.819   0.193
19224W        W91649   4.197  10.217  12.663
19225W        W91650  10.158  41.298   0.914
19226W        W91651  24.729  39.216   4.831
19227W        W91652  24.499   7.258   0.710
19228W        W91653  12.126   1.688  10.387
19229W        W91654  37.499   3.273   3.400
19230W        W91655   8.170  44.171   4.171
19231W        W91656  29.288  19.400  10.697
19232W        W91657  36.037  37.554   2.629
19233W        W91658  13.198   8.733   4.566
19234W        W91659  32.004  28.428   4.057
19235W        W91660  14.200   4.677   0.174
19236W        W91661  18.162  44.302   2.320
19237W        W91662   7.974  24.412   3.151
19238W        W91663  16.215   1.830  13.573
19239W        W91664  40.187  41.479  14.503
19240W        W91665  17.032  36.255   0.429
19241W        W91666  12.700   3.430  11.178
19242W        W91667  44.413  11.406  10.299
19243W        W91668  39.351   7.957  10.744
19244W        W91669  33.496  14.546   1.783
19245W        W91670  30.046  35.202   0.403
19246W        W91671  22.923  29.615   1.971
19247W        W91672  27.826  11.106  14.948
19248W        W91673  24.685  23.158   2.735
19249W        W91674  13.674  18.100  13.260
19250W        W91675  31.245   9.684   0.920
19251W        W91676  31.411  44.869   1.990
19252W        W91677   4.845  39.029   0.351
19253W        W91678  36.465  30.235  14.867
19254W        W91679  44.064  10.229  10.731
19255W        W91680   0.128   3.128   5.168
19256W        W91681   4.881  19.681   0.402
19257W        W91682  27.758   2.728   3.634
19258W        W91683  36.402  34.989  15.000
19259W        W91684  25.714  29.022  12.431
19260W        W91685  26.652  33.436  10.164
19261W        W91686  20.548  29.561   4.742
19262W        W91687  19.304  15.314   0.314
19263W        W91688  11.264  26.208   4.555
19264W        W91689   5.211  31.481  11.893
19265W        W91690  12.858  25.674   0.972
19266W        W91691  13.738   9.873  10.722
19267W        W91692  37.021  31.512  14.092
19268W        W91693  33.444  25.585   1.713
19269W        W91694   2.195   9.417  12.460
19270W        W91695  43.362  13.949  12.374
19271W        W91696  33.784  26.299   2.226
19272W        W91697   1.880  23.538   2.915
19273W        W91698  33.368  43.302  10.169
19274W        W91699  36.845  30.545   3.186
19275W        W91700  35.578  40.283  14.367
19276W        W91701  44.489  41.492  11.103
19277W        W91702   4.920  25.728   0.761
19278W        W91703  13.115   3.471  14.369
19279W        W91704  26.993  34.662  10.557
19280W        W91705   6.918   8.223   0.175
19281W        W91706  44.784   9.414   2.770
19282W        W91707  27.656  38.297  12.821
19283W        W91708  26.070  32.814   1.700
19284W        W91709  30.166  27.584   4.848
19285W        W91710  25.156  40.459  11.736
19286W        W91711  11.304  41.343   1.562
19287W        W91712   9.531  32.170   2.998
19288W        W91713  28.490  29.127  13.109
19289W        W91714  22.121   8.372  11.617
19290W        W91715  12.587  16.236  12.244
19291W        W91716  29.544  25.932  12.045
19292W        W91717  35.019   2.235   2.800
19293W        W91718  35.989  15.308   2.752
19294W        W91719  30.513  15.196  13.331
19295W        W91720  13.333   6.478  12.901
19296W        W91721  13.209  25.790   2.472
19297W        W91722  25.652  41.262   3.223
19298W        W91723  25.426   8.455   1.763
19299W        W91724  39.113  27.809   9.992
19300W        W91725   0.972   3.235  10.701
19301W        W91726  17.201  41.822  14.746
19302W        W91727   1.815  28.543   3.279
19303W        W91728   3.314   3.343  14.722
19304W        W91729   5.009  38.840  14.882
19305W        W91730  41.929  29.589   3.621
19306W        W91731  34.434   8.698  11.655
19307W        W91732   0.369  19.465   0.862
19308W        W91733  38.157  34.010  11.644
19309W        W91734   4.843  11.123  13.849
19310W        W91735  16.321  19.587   3.721
19311W        W91736   0.254  36.637  11.229
19312W        W91737  23.269  43.797   0.317
19313W        W91738  18.123   6.833   3.144
19314W        W91739   1.496  21.092  13.847
19315W        W91740  11.318  22.002  14.756
19316W        W91741  22.256  40.405   0.293
19317W        W91742  20.792   7.708  11.681
19318W        W91743  22.029   1.523  14.937
19319W        W91744   5.058   2.963  12.632
19320W        W91745  11.336  10.854   2.166
19321W        W91746  37.080  39.757  10.463
19322W        W91747  12.686   8.169  11.482
19323W        W91748   3.451  14.628   2.449
19324W        W91749  27.614  20.145  11.391
19325W        W91750   4.484  32.316   2.752
19326W        W91751  14.571   3.123  14.119
19327W        W91752  14.828  19.756  13.429
19328W        W91753   4.673  23.517   2.243
19329W        W91754  32.546  15.624   0.419
19330W        W91755   7.829  35.809   0.357
19331W        W91756   5.690  34.105   3.239
19332W        W91757  11.767  22.763  13.450
19333W        W91758  15.455  42.497   5.110
19334W        W91759   5.230  26.717  11.639
19335W        W91760  42.865  11.421  10.471
19336W        W91761  33.508  17.766   0.985
19337W        W91762  24.814  33.512  11.506
19338W        W91763  28.691  19.491   3.618
19339W        W91764  11.791  44.552  14.263
19340W        W91765   4.928  10.842   3.964
19341W        W91766  10.288   4.212   0.795
19342W        W91767  41.354  23.623  11.509
19343W        W91768   6.920  22.279  11.663
19344W        W91769  16.154  34.481   0.523
19345W        W91770  14.559  20.667  13.624
19346W        W91771   9.717   8.859  10.247
19347W        W91772  36.891  26.203   3.555
19348W        W91773  12.791  39.579   0.373
19349W        W91774  28.101  28.868  11.132
19350W        W91775  26.717  13.280   3.701
19351W        W91776  20.329   3.350  13.790
19352W        W91777  22.162  24.740  12.111
19353W        W91778  30.614  32.879  12.816
19354W        W91779  37.050  17.265  11.101
19355W        W91780  16.334  31.920   0.419
19356W        W91781  36.778  12.828  14.665
19357W        W91782  20.965  30.076  13.970
19358W        W91783  44.243   6.696  11.057
19359W        W91784  31.604  29.420   1.295
19360W        W91785  37.511  12.834  14.455
19361W        W91786  11.263  16.133   2.327
19362W        W91787   8.338  13.753  11.375
19363W        W91788   0.587  12.328  12.879
19364W        W91789  17.103  19.867   4.020
19365W        W91790  43.974  26.219   3.829
19366W        W91791  30.992  24.903  14.162
19367W        W91792  41.913  39.887   0.959
19368W        W91793  44.056  37.523  14.402
19369W        W91794   6.707  38.876   1.928
19370W        W91795  42.853  17.448  14.911
19371W        W91796  28.547   4.376   3.299
19372W        W91797  10.298  19.076  12.639
19373W        W91798  17.186   3.587  14.565
19374W        W91799  22.749  44.848   2.203
19375W        W91800  29.372   8.102   2.677
19376W        W91801  11.750  37.392  11.487
19377W        W91802  13.377  27.587  11.894
19378W        W91803   5.243   2.480  14.579
19379W        W91804  22.523  29.902  11.540
19380W        W91805   5.206  12.950  13.902
19381W        W91806   9.340  30.554   3.833
19382W        W91807  33.443  36.266  10.784
19383W        W91808  27.659   8.862  14.380
19384W        W91809  38.063  29.182  13.832
19385W        W91810  25.070  30.865   2.868
19386W        W91811  16.156  10.266   3.101
19387W        W91812  20.251  28.190   4.633
19388W        W91813  42.495  15.376  11.167
19389W        W91814  24.581  24.662   1.202
19390W        W91815  37.110   4.850  13.037
19391W        W91816  23.130   4.546  14.603
19392W        W91817  41.315  42.628  10.731
19393W        W91818   2.219  42.067   0.939
19394W        W91819  36.842  26.545  10.296
19395W        W91820  32.173   0.740   2.665
19396W        W91821  17.829  23.067  14.316
19397W        W91822  36.735   8.356  10.507
19398W        W91823   5.182  13.339  11.118
19399W        W91824  42.460  42.976   1.658
19400W        W91825  43.785  16.772   3.647
19401W        W91826  39.321  10.735   4.493
19402W        W91827  37.386  20.515   2.331
19403W        W91828  34.820  29.552   3.415
19404W        W91829   1.963  29.556  11.219
19405W        W91830  34.930   4.922   1.894
19406W        W91831  38.965  11.003   3.295
19407W        W91832  36.884  37.961  13.392
19408W        W91833  12.964   8.918   2.228
19409W        W91834  14.682  27.432   2.803
19410W        W91835  32.033  11.284   1.757
19411W        W91836   8.888  32.695  11.140
19412W        W91837  20.796  41.377   2.814
19413W        W91838  37.501  24.638  10.862
19414W        W91839  15.385   2.484   1.758
19415W        W91840  31.934  20.197   0.431
19416W        W91841  31.027   5.913   1.758
19417W        W91842   9.104   4.710  12.004
19418W        W91843  33.828   9.341   1.283
19419W        W91844  16.664   9.327  13.785
19420W        W91845  44.174  35.785   4.186
19421W        W91846  11.298   1.194   1.389
19422W        W91847   1.450   5.647   1.734
19423W        W91848  44.881  24.767   0.406
19424W        W91849  41.128  14.959  14.841
19425W        W91850  34.567  38.436  13.018
19426W        W91851   0.454  22.155   3.715
19427W        W91852   6.278  44.365  10.711
19428W        W91853  14.770  18.704  14.767
19429W        W91854   6.656  13.256  10.747
19430W        W91855  31.549  14.695   1.553
19431W        W91856  19.608  25.043   2.820
19432W        W91857   6.837  32.559  14.895
19433W        W91858   0.835  37.890   1.840
19434W        W91859  23.313  26.147   3.283
19435W        W91860  11.507  42.973  10.371
19436W        W91861  41.093   1.267  11.052
19437W        W91862  16.583  35.541   4.898
19438W        W91863  37.343  44.277  11.397
19439W        W91864   2.983  31.013   0.960
19440W        W91865  41.466  42.466   2.349
19441W        W91866   4.326  35.029  10.619
19442W        W91867  31.047   5.194   4.312
19443W        W91868  39.278  15.169  12.489
19444W        W91869  33.873  17.655  12.132
19445W        W91870   4.270   1.756   2.732
19446W        W91871  44.742  37.516   4.446
19447W        W91872  35.350   5.004   0.478
19448W        W91873  18.423  32.523  14.995
19449W        W91874  26.357   7.792   4.193
19450W        W91875  42.408  11.270  12.533
19451W        W91876  29.192  10.298   2.843
19452W        W91877  18.171   0.507   4.673
19453W        W91878  27.189  16.918   1.734
19454W        W91879  10.389  26.764  12.634
19455W        W91880  38.243   6.634   0.485
19456W        W91881  16.336  38.454  13.470
19457W        W91882  31.128  18.458   4.153
19458W        W91883  39.862  37.476  13.654
19459W        W91884  38.697   8.692  13.610
19460W        W91885  35.259  19.822   4.184
19461W        W91886   0.845  19.802   4.533
19462W        W91887  18.079  10.763   0.360
19463W        W91888  12.692  32.378  12.369
19464W        W91889  27.917   1.513  11.666
19465W        W91890  40.079  29.578   1.396
19466W        W91891  41.830  26.520  13.667
19467W        W91892  34.082  20.565  14.626
19468W        W91893  16.703  29.059  13.040
19469W        W91894  31.092  41.014  11.691
19470W        W91895  24.629  31.586   0.071
19471W        W91896  14.149  18.314   2.228
19472W        W91897   0.892  28.830   0.578
19473W        W91898  16.802  36.597  11.051
19474W        W91899  17.193  14.651  12.443
19475W        W91900   5.214  14.815   0.448
19476W        W91901  20.644  31.504   1.131
19477W        W91902  42.438  25.975   0.191
19478W        W91903  32.699  32.035  14.783
19479W        W91904  10.739  28.505   2.359
19480W        W91905  37.314  14.852   2.388
19481W        W91906   0.384  33.947  14.279
19482W        W91907  34.492   3.190   2.951
19483W        W91908   7.165  17.204  12.985
19484W        W91909  41.670   3.361  14.250
19485W        W91910  23.756  29.159   0.752
19486W        W91911  14.126  35.888   3.052
19487W        W91912   7.322  10.840  11.970
19488W        W91913   8.839  13.740   4.803
19489W        W91914  12.819  20.368   0.434
19490W        W91915  15.687  22.977   2.440
19491W        W91916  27.463  18.437   0.472
19492W        W91917  30.610   4.014   0.859
19493W        W91918  33.110  14.053  14.919
19494W        W91919  21.666  15.153   3.175
19495W        W91920  39.070  28.425   3.170
19496W        W91921   6.314  38.567   4.430
19497W        W91922  14.223  40.406  11.869
19498W        W91923  33.161  23.415  11.934
19499W        W91924  14.558  24.169   3.799
19500W        W91925  26.259  22.923   4.638
19501W        W91926  33.421  40.569  13.758
19502W        W91927  44.886  27.548  11.046
19503W        W91928  12.307  22.830   3.103
19504W        W91929  16.220  35.442  11.535
19505W        W91930  31.298  44.874   2.853
19506W        W91931  43.774  14.145   1.016
19507W        W91932   5.125  42.319   4.605
19508W        W91933  20.584   1.877  11.191
19509W        W91934  40.078  15.677  14.712
19510W        W91935  15.525  17.256   3.238
19511W        W91936  38.493  33.731   0.028
19512W        W91937  31.498  37.399  13.317
19513W        W91938  32.948  40.517   3.684
19514W        W91939   1.717  11.825   4.603
19515W        W91940   0.311  23.916  13.878
19516W        W91941  15.279  27.058   2.676
19517W        W91942  10.885  21.557   2.426
19518W        W91943  26.285  11.314  11.123
19519W        W91944  30.087  25.864  12.881
19520W        W91945   8.163  37.904  11.408
19521W        W91946  29.759  17.298   0.445
19522W        W91947  39.432  19.241   1.237
19523W        W91948  34.978   0.918   2.230
19524W        W91949  36.208  38.577   1.752
19525W        W91950   8.931  40.610  10.929
19526W        W91951   2.463  35.212   1.099
19527W        W91952  22.132  33.316   2.210
19528W        W91953  17.934  31.273   4.400
19529W        W91954   9.490  21.153  11.487
19530W        W91955  35.551   4.190   4.223
19531W        W91956  20.039  37.569  11.082
19532W        W91957  23.692  25.562  12.403
19533W        W91958   2.764   2.143   3.399
19534W        W91959  18.675   0.724   1.729
19535W        W91960  24.788  39.835  14.892
19536W        W91961  44.410  20.545  12.464
19537W        W91962  21.754  34.418  13.725
19538W        W91963  31.041   3.010   1.272
19539W        W91964  12.893   5.890  11.398
19540W        W91965  39.946  13.529   3.102
19541W        W91966  39.767  30.127  11.677
19542W        W91967  36.927   2.811  13.404
19543W        W91968   7.272  10.885   3.192
19544W        W91969  31.424  12.806   2.842
19545W        W91970   3.197  22.689  10.742
19546W        W91971  11.284  32.366   3.406
19547W        W91972  40.843   2.901   0.413
19548W        W91973   5.773  30.454   3.371
19549W        W91974  28.530  29.927  10.561
19550W        W91975  15.055   1.045   2.667
19551W        W91976  20.678  11.706  12.778
19552W        W91977  28.465  35.530  13.862
19553W        W91978  40.444  11.630  10.142
19554W        W91979   4.592  36.514  12.024
19555W        W91980  11.019   9.588  10.993
19556W        W91981   3.509  17.836  13.882
19557W        W91982   1.443  11.744  14.100
19558W        W91983  25.471   3.322  14.936
19559W        W91984  12.563  42.452   2.684
19560W        W91985  35.811  17.606  12.446
19561W        W91986  33.536   9.635  10.797
19562W        W91987  18.089  28.687   0.520
19563W        W91988  34.608  15.803  12.105
19564W        W91989  43.297  17.141  14.965
19565W        W91990   3.427  38.139   2.591
19566W        W91991  33.655  10.655  12.445
19567W        W91992  13.846  19.916  12.632
19568W        W91993  18.942  25.176   0.682
19569W        W91994   7.316  26.040   2.666
19570W        W91995  38.972  35.019   2.210
19571W        W91996  40.560   5.893  14.415
19572W        W91997  22.334  14.177  13.893
19573W        W91998  26.131  24.123  11.032
19574W        W91999  18.185   1.528   1.832
19575W        W92000  37.883  39.832  14.977
19576W        W92001  29.657   6.797   2.152
19577W        W92002  33.790  11.586  11.140
19578W        W92003  16.213  12.347  14.809
19579W        W92004  34.839  26.978   4.186
19580W        W92005   4.739  22.525   3.718
19581W        W92006   1.955   2.497  11.829
19582W        W92007   7.283  15.440  13.779
19583W        W92008   1.125  44.565  14.325
19584W        W92009   8.351  43.378  13.605
19585W        W92010  26.314  10.178   3.205
19586W        W92011  17.848  12.215  11.499
19587W        W92012  32.093  16.226   5.539
19588W        W92013   4.909   1.948  10.724
19589W        W92014  38.987  36.916   4.676
19590W        W92015  31.825  12.312   3.643
19591W        W92016  38.380  35.944  14.031
19592W        W92017  44.484  37.560   0.671
19593W        W92018  16.112  26.686  14.157
19594W        W92019  10.262  31.637  11.122
19595W        W92020  30.475  12.283  14.548
19596W        W92021   2.946  22.156   3.810
19597W        W92022  33.955  33.384  13.193
19598W        W92023  32.945   0.309  12.019
19599W        W92024  23.699  31.892  10.726
19600W        W92025  11.854   8.450   5.002
19601W        W92026  40.932  34.605   2.657
19602W        W92027  39.004  11.153  10.898
19603W        W92028   6.192  31.076   2.956
19604W        W92029   6.455  25.042   2.245
19605W        W92030   4.506  12.735  14.841
19606W        W92031  31.577  26.095  12.560
19607W        W92032  15.139  38.730  11.470
19608W        W92033  33.500  12.886   3.154
19609W        W92034   4.213  44.944  12.384
19610W        W92035  14.352  44.479   3.964
19611W        W92036  11.278   6.471   0.728
19612W        W92037   9.671  23.600   4.734
19613W        W92038  23.486  17.745  13.097
19614W        W92039   4.686  11.598  12.781
19615W        W92040   1.707  36.551  10.531
19616W        W92041  31.037  20.475   0.959
19617W        W92042  19.100  16.594  14.924
19618W        W92043  18.470   2.943  10.386
19619W        W92044  42.366  44.917   4.475
19620W        W92045  37.379   0.199  12.121
19621W        W92046  31.948  10.159  14.857
19622W        W92047  11.456  21.530  13.485
19623W        W92048  40.792  12.539  11.161
19624W        W92049   0.954   5.730   0.439
19625W        W92050  23.036  27.508   3.232
19626W        W92051  24.504   8.636   4.568
19627W        W92052   2.635  26.153   2.974
19628W        W92053  32.958  25.157   1.351
19629W        W92054  40.709   6.975  13.640
19630W        W92055  24.259  30.528   1.759
19631W        W92056   0.321  32.867  11.461
19632W        W92057   3.827  42.311  11.417
19633W        W92058   8.361  34.395   4.654
19634W        W92059   7.914  42.031  12.690
19635W        W92060   7.422  17.603  14.431
19636W        W92061  43.522   7.124   1.568
19637W        W92062  22.313   8.436  10.758
19638W        W92063   6.540  29.077  11.569
19639W        W92064  15.412  13.775  11.202
19640W        W92065  42.441   7.432  11.513
19641W        W92066  20.716  39.376   2.547
19642W        W92067   4.201  26.722  12.634
19643W        W92068  28.747  33.157  13.333
19644W        W92069  37.990   0.691  11.478
19645W        W92070  32.498  42.675   2.354
19646W        W92071  34.341   7.826  10.474
19647W        W92072  25.310  17.408   4.855
19648W        W92073  38.508  11.898  12.345
19649W        W92074  25.268   5.740  12.917
19650W        W92075  17.727  41.441   1.740
19651W        W92076  23.683  18.857  11.521
19652W        W92077  13.289  19.204  12.037
19653W        W92078  16.510  44.238   0.475
19654W        W92079  12.600  38.258   0.061
19655W        W92080  24.074  35.824  13.085
19656W        W92081  41.279  18.144   4.360
19657W        W92082   5.349  20.164   2.192
19658W        W92083   3.747  37.874   0.473
19659W        W92084  35.389  41.471   2.719
19660W        W92085  24.287   0.848   3.142
19661W        W92086  34.455  22.458   3.790
19662W        W92087   6.895  34.063   2.137
19663W        W92088  26.536  20.254   0.648
19664W        W92089  44.152  30.041   4.269
19665W        W92090  43.862  22.986   0.907
19666W        W92091  33.931  12.672   1.910
19667W        W92092  12.233  32.726   3.696
19668W        W92093   1.515  17.344   2.783
19669W        W92094  40.059  21.723  12.538
19670W        W92095   7.399   5.231  14.407
19671W        W92096  31.558  10.800   2.383
19672W        W92097  30.463  25.681   0.523
19673W        W92098  44.005  32.156  12.470
19674W        W92099  28.023  15.134   3.874
19675W        W92100  23.990  20.763  12.441
19676W        W92101  33.441  43.164  10.946
19677W        W92102  25.589  34.370   4.033
19678W        W92103  23.004  44.954  14.791
19679W        W92104  24.142  42.807  10.449
19680W        W92105   2.756  19.742   1.304
19681W        W92106  39.096  10.874   1.891
19682W        W92107  37.047  11.094  13.723
19683W        W92108  11.894   1.864   0.930
19684W        W92109  14.718  25.026  11.918
19685W        W92110  36.398  39.906  10.157
19686W        W92111  32.344  18.137  13.508
19687W        W92112   9.116  16.335   0.488
19688W        W92113  21.164  16.085  14.234
19689W        W92114  14.718  18.578   0.362
19690W        W92115  44.991  26.616   2.580
19691W        W92116  44.296  34.680   1.300
19692W        W92117  12.567  18.762  13.098
19693W        W92118  13.416  21.568   1.358
19694W        W92119  25.141  32.115   4.817
19695W        W92120  38.288   8.412  14.874
19696W        W92121  23.107   9.429   0.898
19697W        W92122  39.795  35.264  14.190
19698W        W92123  20.253  22.632   1.771
19699W        W92124   2.432  28.964  13.018
19700W        W92125   2.461  30.605  14.342
19701W        W92126  44.018   9.705  14.275
19702W        W92127  12.513   3.308  13.127
19703W        W92128  41.467  43.326  11.852
19704W        W92129   3.269  42.342   2.358
19705W        W92130   2.884   5.697  11.531
19706W        W92131  39.567  25.269   3.283
19707W        W92132   2.427   1.549  11.082
19708W        W92133  30.387  14.207   0.939
19709W        W92134  29.548   9.423  12.893
19710W        W92135  19.092  39.924   0.230
19711W        W92136  31.941   6.024   0.558
19712W        W92137   7.871  14.710  11.955
19713W        W92138  17.290  24.718  13.322
19714W        W92139  13.834  43.044   1.283
19715W        W92140  43.277  25.445   0.229
19716W        W92141  35.301   7.771  13.592
19717W        W92142  25.209  40.745  12.749
19718W        W92143  23.133  39.035   0.736
19719W        W92144  35.175  27.210  12.286
19720W        W92145  34.350  11.838   3.468
19721W        W92146   4.163   4.896   0.981
19722W        W92147  12.746  34.052   0.418
19723W        W92148   1.035  40.240   2.339
19724W        W92149  18.980  26.112   3.674
19725W        W92150  32.369  10.727   2.867
19726W        W92151  40.116  34.656   2.691
19727W        W92152   6.388  24.282   4.148
19728W        W92153  42.984  34.159   2.767
19729W        W92154  32.453  38.601   4.312
19730W        W92155  18.022  43.006  11.894
19731W        W92156  29.437  35.126   2.934
19732W        W92157   7.754  41.040   3.121
19733W        W92158  26.102  15.333   1.462
19734W        W92159  24.895   3.508   4.262
19735W        W92160  18.067  16.936   2.338
19736W        W92161  43.500  11.919  12.563
19737W        W92162  44.332  19.532  13.460
19738W        W92163  19.363  23.468  11.753
19739W        W92164   3.924  40.505   2.327
19740W        W92165  12.776  20.040   4.903
19741W        W92166  19.521  43.390   4.248
19742W        W92167  11.860  15.229  13.828
19743W        W92168  18.532   1.746   3.188
19744W        W92169  13.208  32.917  12.869
19745W        W92170  31.022  38.324  14.740
19746W        W92171  26.711  38.672   1.458
19747W        W92172  13.788  38.487   0.684
19748W        W92173  43.949   5.250   1.673
19749W        W92174  15.735  18.854   3.945
19750W        W92175  44.876   4.100   1.726
19751W        W92176  11.776  33.077  10.610
19752W        W92177  38.836  34.874   3.719
19753W        W92178  39.396  39.118  13.529
19754W        W92179  40.773  13.274   3.158
19755W        W92180  17.026  43.370  14.249
19756W        W92181  44.407  37.389  11.812
19757W        W92182  27.409  41.171   3.417
19758W        W92183   2.462   9.314  11.143
19759W        W92184  18.869  41.670  11.149
19760W        W92185   6.859   9.229  14.893
19761W        W92186  20.865  42.868   4.010
19762W        W92187  20.683  18.309   0.307
19763W        W92188  20.960  38.269  12.538
19764W        W92189  41.307  34.164  14.360
19765W        W92190  14.892  14.930  14.066
19766W        W92191  16.856  32.614  13.997
19767W        W92192  20.298   0.230   4.856
19768W        W92193  18.223   0.245  12.985
19769W        W92194  29.155  16.820  10.448
19770W        W92195  26.228  20.591   3.220
19771W        W92196   6.367  36.366  13.924
19772W        W92197  32.230   7.385   2.541
19773W        W92198   6.342   9.250   2.605
19774W        W92199   4.464  11.879   0.830
19775W        W92200  19.100  20.184  11.676
19776W        W92201  11.300  17.076   0.208
19777W        W92202   1.541  16.220  10.708
19778W        W92203  18.322  41.503   2.404
19779W        W92204  24.990   2.661   1.752
19780W        W92205   2.022  22.445   3.006
19781W        W92206  11.240   5.833   4.093
19782W        W92207  33.684  41.760  13.130
19783W        W92208   6.852  23.010  11.893
19784W        W92209  39.938   5.286   3.612
19785W        W92210  32.727  44.391  11.601
19786W        W92211   0.982  39.665  12.928
19787W        W92212  38.907  40.663  12.919
19788W        W92213  13.920  29.696   0.396
19789W        W92214  41.262  19.753   2.802
19790W        W92215  17.341  37.928  14.855
19791W        W92216  27.972  39.079   4.180
19792W        W92217  44.777  41.860  11.893
19793W        W92218   0.211  34.908  14.566
19794W        W92219  40.263  36.172  12.627
19795W        W92220  17.669   3.288   2.416
19796W        W92221   1.705  38.977  14.419
19797W        W92222  13.757  12.812   3.588
19798W        W92223  25.618  21.119  14.252
19799W        W92224  20.469  32.990  11.880
19800W        W92225  20.700  22.087   0.747
19801W        W92226  42.826  30.190  12.852
19802W        W92227   2.632  31.382   0.824
19803W        W92228  21.809  14.555   4.258
19804W        W92229  33.962   5.872   4.739
19805W        W92230  20.185  26.065  11.927
19806W        W92231  31.231   4.354   3.751
19807W        W92232  23.712  19.431   3.238
19808W        W92233  26.456  29.917   1.204
19809W        W92234   5.603  37.739  12.920
19810W        W92235  26.608  38.784  14.247
19811W        W92236  30.631   4.341   1.296
19812W        W92237   2.847  32.464   0.277
19813W        W92238  44.542  43.594  14.362
19814W        W92239  15.761   0.906  12.597
19815W        W92240  18.575   4.097   1.953
19816W        W92241  42.312  12.437   0.672
19817W        W92242  15.799  27.328   1.969
19818W        W92243  18.255  17.240  12.952
19819W        W92244  10.349   3.168   4.189
19820W        W92245  23.072   6.387   0.804
19821W        W92246  39.784   6.229   1.404
19822W        W92247  28.068  14.586  12.574
19823W        W92248  19.779  14.743   1.367
19824W        W92249   5.906   2.960  12.410
19825W        W92250  22.131   6.820  11.494
19826W        W92251  13.266  12.722   4.486
19827W        W92252   6.386  43.779  12.463
19828W        W92253  17.169  11.934   4.646
19829W        W92254  36.817  31.873   1.842
19830W        W92255  25.988   0.044   1.281
19831W        W92256  42.091  21.429  13.499
19832W        W92257   4.425  36.471  11.097
19833W        W92258  34.577  23.218  12.024
19834W        W92259  26.137  15.896   0.267
19835W        W92260  15.662   4.823  14.052
19836W        W92261  36.217  35.518  11.272
19837W        W92262  12.254  27.980  13.126
19838W        W92263   9.454  27.188  12.585
19839W        W92264  22.930  44.027  10.613
19840W        W92265  20.251  14.711  11.601
19841W        W92266  20.090  21.662  12.382
19842W        W92267   7.690   2.714   1.315
19843W        W92268  10.846   1.761   0.479
19844W        W92269  13.612  36.114   0.349
19845W        W92270   4.301  21.829  11.356
19846W        W92271   0.161  22.145   3.290
19847W        W92272  14.186   5.236  10.924
19848W        W92273  18.469  28.515   1.399
19849W        W92274  35.471  13.138   3.195
19850W        W92275   4.569  21.471   0.845
19851W        W92276  25.039  32.642   1.153
19852W        W92277  12.935  12.096   0.148
19853W        W92278  15.348  15.561   3.817
19854W        W92279  14.625  43.682   1.931
19855W        W92280  30.538  24.736   1.185
19856W        W92281  27.642  34.450   4.227
19857W        W92282  13.226  14.759   2.430
19858W        W92283  41.990   7.248   3.748
19859W        W92284  40.980  32.600  11.470
19860W        W92285  11.650   2.286  13.578
19861W        W92286  20.286   8.805  13.186
19862W        W92287  19.829  16.941  10.943
19863W        W92288  26.712  43.837   2.231
19864W        W92289  24.932   6.870  13.026
19865W        W92290  23.686   0.342   4.647
19866W        W92291  23.094  36.079  12.275
19867W        W92292  38.798  40.601  13.855
19868W        W92293  42.452  33.418   0.058
19869W        W92294  26.087   5.038  12.977
19870W        W92295   7.699  40.872  10.676
19871W        W92296  33.976  16.547  10.221
19872W        W92297   6.165  20.251   3.250
19873W        W92298  15.073  18.324   4.904
19874W        W92299  44.168  38.523   2.265
19875W        W92300  19.961  33.653   4.225
19876W        W92301   0.710   5.232   2.380
19877W        W92302  13.746  27.974  11.893
19878W        W92303  39.340  22.670  14.377
19879W        W92304   9.401  25.538  13.564
19880W        W92305   9.066  14.343   2.294
19881W        W92306   0.132   4.245   4.021
19882W        W92307  25.297  25.258   0.834
19883W        W92308   6.940  34.533  13.625
19884W        W92309   1.839  36.671   4.598
19885W        W92310  10.355  36.842  10.622
19886W        W92311  44.672   1.440   0.303
19887W        W92312  16.701  32.735  10.167
19888W        W92313   4.854  28.970  14.370
19889W        W92314  37.563   5.860  13.458
19890W        W92315  41.516  15.775  13.478
19891W        W92316  11.696  25.612   2.392
19892W        W92317  21.057  15.605   2.138
19893W        W92318  17.726  21.085  11.921
19894W        W92319   7.003  42.385  12.854
19895W        W92320   5.819  34.414   1.130
19896W        W92321  42.274  17.510  12.926
19897W        W92322  30.065  35.362  14.432
19898W        W92323  10.690   0.904  11.209
19899W        W92324  31.120  24.458   2.291
19900W        W92325   0.885  11.377  12.755
19901W        W92326   1.334  25.740  13.406
19902W        W92327  11.888  10.133   4.649
19903W        W92328   1.125  22.777   0.885
19904W        W92329  22.232  10.947   2.489
19905W        W92330  38.621  24.232   5.454
19906W        W92331   5.896  33.198   2.169
19907W        W92332   7.288  24.271   2.096
19908W        W92333  41.903   9.985   2.610
19909W        W92334   6.426  38.344   0.252
19910W        W92335  30.592   7.839   4.770
19911W        W92336  41.387  24.513   3.909
19912W        W92337  27.009  23.115   4.081
19913W        W92338  37.325   6.608   0.208
19914W        W92339  10.792  12.255  14.471
19915W        W92340  21.108  34.384  13.516
19916W        W92341  33.406  12.081  12.451
19917W        W92342  26.980  30.653   4.324
19918W        W92343  21.192  18.244   1.174
19919W        W92344   1.440   9.847  10.483
19920W        W92345  35.057  15.270   2.878
19921W        W92346  42.324  30.202   3.338
19922W        W92347  35.641  40.498  10.678
19923W        W92348  20.312  15.420  13.348
19924W        W92349   2.985  21.591   1.684
19925W        W92350  30.481  43.330   4.527
19926W        W92351   3.668  26.615   1.590
19927W        W92352   6.411  19.326   2.898
19928W        W92353  44.930  28.930  11.879
19929W        W92354   2.078  32.183  11.748
19930W        W92355  37.541   2.437  11.158
19931W        W92356  20.575  28.474   0.945
19932W        W92357  37.881  17.163   2.790
19933W        W92358  40.288  38.580  14.095
19934W        W92359   3.006  11.008   0.292
19935W        W92360  27.432  31.329   0.717
19936W        W92361  27.286  34.038  12.123
19937W        W92362  27.522  25.208  11.779
19938W        W92363  25.272  18.341  14.748
19939W        W92364   3.000  44.610   2.367
19940W        W92365  14.244  21.467   3.673
19941W        W92366  44.708  19.158  12.644
19942W        W92367   6.168  39.433  13.628
19943W        W92368  35.106  13.197   0.101
19944W        W92369  34.444   9.193   2.613
19945W        W92370  44.829   4.793  14.949
19946W        W92371   2.716  32.130  13.899
19947W        W92372  21.294  38.967   0.916
19948W        W92373  40.405   9.437  13.019
19949W        W92374  42.535   1.184  12.450
19950W        W92375  36.053  40.547   4.186
19951W        W92376  27.206   5.873  14.859
19952W        W92377  31.571   3.213  10.761
19953W        W92378  10.750  12.811  14.860
19954W        W92379  24.591   5.123  14.492
19955W        W92380  42.113  38.127  12.879
19956W        W92381  10.224  29.684   5.089
19957W        W92382  39.007  13.622  10.970
19958W        W92383  27.830  22.114  12.232
19959W        W92384  34.351  26.159   3.849
19960W        W92385   9.297  32.792  11.851
19961W        W92386  38.240  20.577  13.861
19962W        W92387  15.570  30.255  12.972
19963W        W92388  37.907   9.726   4.493
19964W        W92389   4.839  32.699  11.837
19965W        W92390   6.406  39.119   2.678
19966W        W92391  11.243  40.452  14.601
19967W        W92392  38.356  43.224  13.552
19968W        W92393  39.812  38.388  10.914
19969W        W92394  29.592   5.216  14.429
19970W        W92395  24.480   8.152   4.268
19971W        W92396  32.365   8.676  13.543
19972W        W92397  14.141  25.240   5.155
19973W        W92398   5.712  36.077   2.776
19974W        W92399  16.832  19.271   0.373
19975W        W92400  42.617   0.055   2.861
19976W        W92401  11.722   1.953   4.095
19977W        W92402  32.863  10.458  14.200
19978W        W92403  24.925  31.943   1.741
19979W        W92404   1.655  36.029   1.762
19980W        W92405  22.428  14.276  10.659
19981W        W92406  44.732  42.768   1.259
19982W        W92407  36.160   5.644  14.909
19983W        W92408  40.557   8.876   1.251
19984W        W92409  33.027  14.033   2.223
19985W        W92410   1.791  24.297  10.657
19986W        W92411  42.435  16.450  12.639
19987W        W92412   5.261  19.178   2.234
19988W        W92413  19.714  43.816   4.493
19989W        W92414  33.501  34.114   3.731
19990W        W92415  27.563   6.877  14.325
19991W        W92416  34.048  24.633  12.087
19992W        W92417   0.508  26.082  14.428
19993W        W92418  16.751  26.671   2.832
19994W        W92419  27.498  23.705  14.296
19995W        W92420  23.152  21.692   3.697
19996W        W92421   7.816  40.272   1.804
19997W        W92422  14.386  37.021   3.378
19998W        W92423  27.780  24.712   0.702
19999W        W92424  17.215   2.260   0.954
20000W        W92425  11.237  44.511   1.732
20001W        W92426  23.125   7.888   0.834
20002W        W92427   6.435  27.484   2.922
20003W        W92428  33.655   0.621   5.052
20004W        W92429   9.314  29.925   5.007
20005W        W92430  28.949  15.588   4.077
20006W        W92431  23.092  22.577   3.701
20007W        W92432  35.272  29.594  13.579
20008W        W92433   5.264  41.032   0.678
20009W        W92434   7.943  26.603  11.131
20010W        W92435   3.818  31.026  10.532
20011W        W92436  11.172  41.836   1.480
20012W        W92437  26.488  27.615  10.650
20013W        W92438  17.245  16.915   4.915
20014W        W92439  20.735  42.263   2.452
20015W        W92440   1.513  11.896   0.294
20016W        W92441  30.755  13.553  13.215
20017W        W92442   3.943  24.053   2.309
20018W        W92443  19.483  14.632  13.463
20019W        W92444  26.475  38.387   4.980
20020W        W92445  14.656   4.511   0.370
20021W        W92446  43.354  16.723  12.611
20022W        W92447  37.067   9.677   3.623
20023W        W92448  15.882  21.250   1.409
20024W        W92449  12.461  23.406   0.313
20025W        W92450  40.485  26.631  13.619
20026W        W92451  33.388  24.999  13.987
20027W        W92452   4.412   1.072   3.247
20028W        W92453   5.701  17.440   4.595
20029W        W92454  33.920  35.494  10.239
20030W        W92455   1.030  16.189   4.601
20031W        W92456   1.913  14.787  11.439
20032W        W92457  36.148  35.852   2.167
20033W        W92458  16.590  10.571  11.071
20034W        W92459  35.625  32.488   0.894
20035W        W92460  32.008  37.324   0.502
20036W        W92461  25.077  22.281  11.067
20037W        W92462  39.420  38.453  10.562
20038W        W92463  37.204  13.596   1.304
20039W        W92464  10.606  23.264  12.260
20040W        W92465  13.829  22.037  14.418
20041W        W92466  27.378  37.930   1.848
20042W        W92467  16.092  38.118  14.918
20043W        W92468  32.898  34.655  12.414
20044W        W92469  37.710   9.888  11.219
20045W        W92470  34.617  23.021   4.641
20046W        W92471  20.157  19.722   4.670
20047W        W92472  14.463  40.083   5.201
20048W        W92473   1.594  17.570   0.836
20049W        W92474  29.344  18.287   1.373
20050W        W92475  30.122  25.413  12.638
20051W        W92476   3.422  14.343  14.070
20052W        W92477  19.825  42.815   3.150
20053W        W92478  12.229   8.085   3.262
20054W        W92479   3.888  44.353   4.103
20055W        W92480  18.691   4.404   2.936
20056W        W92481  10.315  20.670   0.277
20057W        W92482  33.065   2.906   4.349
20058W        W92483   5.009   9.950   2.135
20059W        W92484   1.188   6.804   4.536
20060W        W92485  42.800  40.772  12.793
20061W        W92486   2.788   7.191  14.283
20062W        W92487  16.326   7.870   2.450
20063W        W92488  28.154  22.796   3.417
20064W        W92489  17.586  33.571   3.313
20065W        W92490  42.801  34.945  13.359
20066W        W92491  12.129  37.850   1.577
20067W        W92492  28.994  12.178   0.264
20068W        W92493  35.604  37.598  12.041
20069W        W92494   1.934  34.012  10.856
20070W        W92495  43.239  14.306   4.601
20071W        W92496  21.181   5.717   3.327
20072W        W92497  41.516   3.113   4.203
20073W        W92498  35.990  33.119   1.629
20074W        W92499  17.110  26.938   0.505
20075W        W92500  12.344  10.891   4.811
20076W        W92501  27.567  11.553  14.906
20077W        W92502  36.845   7.675   3.851
20078W        W92503  29.654  23.940   1.758
20079W        W92504   9.307  23.952  13.361
20080W        W92505   7.187  29.559   2.388
20081W        W92506  29.859  26.631   0.328
20082W        W92507  24.699   7.753   0.031
20083W        W92508  42.429  24.625   2.474
20084W        W92509  42.940  16.220  13.381
20085W        W92510  40.305  33.046   2.207
20086W        W92511   0.939  35.578   3.824
20087W        W92512  23.568  32.120  12.091
20088W        W92513   9.659  31.737   2.297
20089W        W92514  40.902   0.401   2.690
20090W        W92515  20.277  34.845   1.662
20091W        W92516  10.701  39.898   3.641
20092W        W92517   9.550  38.146  13.063
20093W        W92518   3.359  18.964   2.847
20094W        W92519  21.357   1.995   3.841
20095W        W92520  10.473  12.046   1.871
20096W        W92521  33.989  32.906  11.091
20097W        W92522  35.947   7.987   0.601
20098W        W92523  39.481  13.919  11.913
20099W        W92524  30.511  41.759   2.764
20100W        W92525  24.479  40.944   3.831
20101W        W92526  15.703   1.558   4.642
20102W        W92527  37.494  41.427   4.244
20103W        W92528  40.264  33.510   1.969
20104W        W92529  33.955  31.398  12.521
20105W        W92530  14.704  44.834   3.860
20106W        W92531  26.383   2.356   1.476
20107W        W92532  38.727  23.448   4.996
20108W        W92533  13.905  36.645  13.034
20109W        W92534  27.669  28.923   2.167
20110W        W92535   3.478  21.132  12.574
20111W        W92536  13.446  31.347   2.279
20112W        W92537  19.464  42.910  12.011
20113W        W92538  41.189   0.660   1.407
20114W        W92539  36.065  30.690  12.451
20115W        W92540  16.684  40.884  14.395
20116W        W92541  31.958  29.271  11.450
20117W        W92542  35.344  22.571  10.433
20118W        W92543  38.402  15.299  10.650
20119W        W92544  21.665  19.601   2.688
20120W        W92545   0.436  30.692   2.875
20121W        W92546  29.015  34.392   0.652
20122W        W92547  28.637  28.904   3.683
20123W        W92548  19.158  36.503  10.443
20124W        W92549  27.056  44.786  13.761
20125W        W92550  21.105  38.016  11.402
20126W        W92551   1.943  11.352   2.802
20127W        W92552  31.993   2.704  11.218
20128W        W92553  31.212  44.759  14.405
20129W        W92554  35.104  25.748   2.671
20130W        W92555  14.496  31.575   0.480
20131W        W92556   6.298  38.939   4.082
20132W        W92557  38.401  19.656  14.287
20133W        W92558   2.043  35.912  13.918
20134W        W92559  10.618  40.497  11.634
20135W        W92560   2.875   1.377  10.632
20136W        W92561  23.457  39.586   4.622
20137W        W92562  24.518  33.058  11.203
20138W        W92563  34.497  43.762   1.232
20139W        W92564   7.671  24.641   0.245
20140W        W92565  43.145  16.626  14.914
20141W        W92566  44.934  34.118  12.200
20142W        W92567  16.553  38.411   4.593
20143W        W92568  24.765  12.225   2.375
20144W        W92569   2.822  41.803   2.361
20145W        W92570  35.644  24.912  14.365
20146W        W92571  38.889   4.700  13.913
20147W        W92572  15.735  42.953   0.904
20148W        W92573  42.034  38.644  12.918
20149W        W92574  43.772  22.578  14.411
20150W        W92575  11.566  30.474  11.668
20151W        W92576  11.943  38.420  10.298
20152W        W92577  32.594  15.290   0.022
20153W        W92578  21.568  20.873   2.585
20154W        W92579  37.617  16.698   1.429
20155W        W92580  16.472   5.833  14.704
20156W        W92581   7.621  34.002   4.090
20157W        W92582   4.256  21.387   1.808
20158W        W92583  32.629   0.256  13.997
20159W        W92584  14.649  32.214  13.647
20160W        W92585  18.202   1.556   4.745
20161W        W92586   5.596  24.787  11.959
20162W        W92587  41.794  17.180  13.647
20163W        W92588  16.054   2.311   4.823
20164W        W92589  33.829  35.288  12.490
20165W        W92590  10.675  43.901  12.318
20166W        W92591  21.954  27.582  11.558
20167W        W92592  16.501  34.429  12.426
20168W        W92593  42.537  43.014   2.681
20169W        W92594  25.785  10.179  11.904
20170W        W92595  21.142  39.307  11.177
20171W        W92596   7.934  44.194  14.821
20172W        W92597  27.192   8.571  14.778
20173W        W92598   9.627  11.488   0.588
20174W        W92599  43.279  17.446  11.608
20175W        W92600  11.658  19.355   0.951
20176W        W92601  10.340  29.529   3.711
20177W        W92602   6.906   6.226   3.185
20178W        W92603  11.686  15.693  14.710
20179W        W92604  22.312  25.253  11.295
20180W        W92605  14.730  25.958   3.024
20181W        W92606  18.494  33.011  10.251
20182W        W92607  21.235   3.673   3.294
20183W        W92608  35.193  27.198   2.547
20184W        W92609   9.807  24.214   1.427
20185W        W92610  32.390  18.730   1.186
20186W        W92611  41.402  26.217  10.665
20187W        W92612  27.594  27.668   1.841
20188W        W92613   8.724  36.950  10.177
20189W        W92614  42.048  28.352   5.061
20190W        W92615  19.704  19.484  14.983
20191W        W92616  31.142   8.611   2.295
20192W        W92617  22.758  25.743   2.622
20193W        W92618   6.750  26.583  13.283
20194W        W92619  20.540  17.235   3.443
20195W        W92620   1.680  16.796   2.761
20196W        W92621  19.105   0.813  11.148
20197W        W92622   0.193  37.952   3.110
20198W        W92623  28.423  24.778   4.303
20199W        W92624  17.553  11.102   2.218
20200W        W92625   9.661  11.637   3.733
20201W        W92626   8.358  30.478  13.517
20202W        W92627  17.085  27.804   9.995
20203W        W92628  23.218  41.443  13.350
20204W        W92629  17.011   7.628   5.027
20205W        W92630  39.689   0.964   4.404
20206W        W92631  41.482  22.648  13.842
20207W        W92632  33.955   4.988  11.651
20208W        W92633  30.096   1.378   1.152
20209W        W92634  14.714  22.643   1.406
20210W        W92635   6.816  21.276  12.953
20211W        W92636  10.363  40.716  12.430
20212W        W92637  39.390  22.785   3.431
20213W        W92638  23.546  23.613  12.216
20214W        W92639   5.986   4.239  12.522
20215W        W92640  23.162  26.284  14.015
20216W        W92641  41.445  32.919   1.446
20217W        W92642  27.836  24.878  13.483
20218W        W92643  25.523  18.766  14.524
20219W        W92644  29.141  20.753  12.455
20220W        W92645  20.676  20.030   0.665
20221W        W92646  29.705  21.488   3.095
20222W        W92647  31.863   9.789  10.616
20223W        W92648  13.843  10.276   0.055
20224W        W92649  38.391  31.589   4.587
20225W        W92650   6.225  23.819  14.783
20226W        W92651  35.253  38.408   0.538
20227W        W92652  24.950  26.342  12.160
20228W        W92653  26.738  33.254   0.303
20229W        W92654  38.909  30.403  13.418
20230W        W92655  43.357  43.902   2.177
20231W        W92656  34.747  17.981   2.203
20232W        W92657  28.772  13.069  14.940
20233W        W92658   6.973  15.175   3.771
20234W        W92659  40.282  40.495   2.399
20235W        W92660  32.620   6.859   3.083
20236W        W92661  14.783  10.292   3.792
20237W        W92662  27.034  12.278   1.139
20238W        W92663  27.840  15.278  12.861
20239W        W92664  10.752  11.263  11.982
20240W        W92665  16.848  11.771  14.872
20241W        W92666  28.611  10.196  12.251
20242W        W92667  14.540   9.340  12.018
20243W        W92668  21.025   3.973   3.692
20244W        W92669  44.532  33.635  13.430
20245W        W92670   4.901   3.557  10.001
20246W        W92671  37.639  27.726   1.649
20247W        W92672  31.630   4.652  11.905
20248W        W92673  17.583   5.231   2.435
20249W        W92674  44.970  31.865  12.428
20250W        W92675  18.692  21.557  10.689
20251W        W92676   0.279  38.350   4.720
20252W        W92677  21.480  13.751   0.071
20253W        W92678  31.093  31.236  13.457
20254W        W92679   9.925   3.344   5.062
20255W        W92680  21.792  31.613   4.666
20256W        W92681  28.246  32.629  10.730
20257W        W92682  15.322  42.462   0.248
20258W        W92683  24.110   6.680   3.251
20259W        W92684  42.466   6.637  11.106
20260W        W92685  39.292  37.638   5.079
20261W        W92686   9.277   1.482   0.920
20262W        W92687  19.782  30.553  12.760
20263W        W92688  39.831  38.802  13.642
20264W        W92689   4.497  23.107   1.892
20265W        W92690  14.886  38.009   4.220
20266W        W92691  10.789  38.985   4.595
20267W        W92692   7.450  25.604  11.187
20268W        W92693   2.627   2.321   2.937
20269W        W92694  32.671   4.364   1.586
20270W        W92695   9.148  41.929  10.470
20271W        W92696  39.949  19.619   2.624
20272W        W92697  42.800  28.122  14.320
20273W        W92698   2.045  29.739   1.369
20274W        W92699   1.827  32.447  14.365
20275W        W92700  23.125  16.861  13.418
20276W        W92701   5.366  37.628   3.140
20277W        W92702  30.589  36.352   1.047
20278W        W92703  29.540  37.595  11.207
20279W        W92704  18.214  41.985   0.191
20280W        W92705  44.025  11.059   0.098
20281W        W92706  14.280  32.939   3.205
20282W        W92707  33.994  17.571  14.169
20283W        W92708  29.845  42.695  13.484
20284W        W92709  38.089  17.294  12.654
20285W        W92710   7.213  14.875  14.493
20286W        W92711  31.681   4.968   0.891
20287W        W92712  30.162   8.696  13.899
20288W        W92713  24.784  31.965   3.638
20289W        W92714   3.702  23.227   3.161
20290W        W92715   3.580  30.452  11.683
20291W        W92716  27.708  17.667  13.124
20292W        W92717  39.113  19.775   4.377
20293W        W92718  28.256  31.988  11.180
20294W        W92719  26.081  32.602   5.706
20295W        W92720  44.274  43.257  11.514
20296W        W92721   7.844  12.190  13.435
20297W        W92722   8.766   1.984  14.488
20298W        W92723  37.029   5.017   0.751
20299W        W92724   0.649   3.739   2.235
20300W        W92725  13.404   6.790   4.693
20301W        W92726   0.441  15.934   1.668
20302W        W92727  38.797  16.994  13.901
20303W        W92728  25.606   8.688   2.241
20304W        W92729  18.051   9.893   2.771
20305W        W92730   6.066  37.422  11.680
20306W        W92731  32.890   9.215  11.223
20307W        W92732  13.811  11.833   1.893
20308W        W92733  31.945  44.926  10.637
20309W        W92734  42.029  42.930   0.552
20310W        W92735  41.542  15.406  11.221
20311W        W92736  23.916  11.181   3.910
20312W        W92737  25.623  43.484   3.623
20313W        W92738  28.075  20.351   2.708
20314W        W92739  33.397  17.374   1.347
20315W        W92740  16.288  25.129  14.092
20316W        W92741  29.577  38.833  11.525
20317W        W92742  38.884  41.633   4.232
20318W        W92743  25.532  18.275  14.294
20319W        W92744  34.491   2.421  13.553
20320W        W92745   5.785   3.001  11.042
20321W        W92746  42.629   0.992  10.752
20322W        W92747  42.190   5.810   1.814
20323W        W92748  30.899  10.763  12.913
20324W        W92749   3.941  29.604  13.583
20325W        W92750  29.312  21.226   2.892
20326W        W92751  32.924   6.497  14.680
20327W        W92752   7.676  11.799  12.766
20328W        W92753   0.940  42.407   1.379
20329W        W92754   4.313  32.666  11.988
20330W        W92755  20.152  31.617   0.979
20331W        W92756  29.238  11.018  12.028
20332W        W92757  44.525  20.623  10.643
20333W        W92758  25.115  12.571   2.723
20334W        W92759  26.697  37.375  11.124
20335W        W92760  30.161  33.364  13.441
20336W        W92761  27.867  13.548  14.234
20337W        W92762  28.175  44.805  12.075
20338W        W92763  24.749  14.059  14.265
20339W        W92764   4.997  15.726  11.213
20340W        W92765  31.044  26.361  10.957
20341W        W92766  18.240  28.854   4.443
20342W        W92767   3.608   8.144   3.647
20343W        W92768  44.186  16.826   0.400
20344W        W92769  37.900   6.771   3.262
20345W        W92770   2.764   2.224   4.822
20346W        W92771   8.747  35.830  10.935
20347W        W92772  11.052  28.577  14.335
20348W        W92773  44.884  25.746   3.585
20349W        W92774   9.783  29.509   3.349
20350W        W92775  26.030  38.758   2.624
20351W        W92776   0.628  25.818  11.544
20352W        W92777  13.833  36.061  11.010
20353W        W92778  21.618  15.744   3.859
20354W        W92779  11.260  20.097  13.400
20355W        W92780  17.712  12.827   0.397
20356W        W92781  35.807  12.544  12.849
20357W        W92782  34.374  39.581   3.613
20358W        W92783  34.928  37.566   0.892
20359W        W92784  36.572   8.409   1.300
20360W        W92785  37.979  14.285   4.382
20361W        W92786   4.768  14.158   9.998
20362W        W92787  18.510   7.626   1.707
20363W        W92788  37.131  31.794  12.923
20364W        W92789  28.623  37.190  12.997
20365W        W92790  26.362  30.383   0.447
20366W        W92791  31.892  30.613   1.963
20367W        W92792  35.596  16.266  10.666
20368W        W92793  34.969  23.528   3.228
20369W        W92794   2.401   8.605  14.828
20370W        W92795   2.916  24.439   0.965
20371W        W92796  20.350   9.821  11.958
20372W        W92797  22.727  13.211  12.435
20373W        W92798  27.871  39.059   0.032
20374W        W92799  13.469  11.265  13.517
20375W        W92800  42.481  11.009  14.387
20376W        W92801   2.774  29.465  14.031
20377W        W92802  17.165  25.389   0.432
20378W        W92803   4.825   2.636   4.991
20379W        W92804  26.646  27.255   1.744
20380W        W92805   8.855  32.381   2.322
20381W        W92806   9.756  24.024   3.240
20382W        W92807   5.883  22.205   3.821
20383W        W92808   0.835  27.050  13.397
20384W        W92809  15.330   4.960  11.533
20385W        W92810   2.223   4.906   0.874
20386W        W92811  15.365  20.347   3.815
20387W        W92812  35.445   2.217  11.721
20388W        W92813  21.162  43.373   2.658
20389W        W92814  44.864  17.710  11.679
20390W        W92815  42.617  12.109  11.094
20391W        W92816  39.361  41.328   2.385
20392W        W92817   3.756  30.255   5.289
20393W        W92818  30.606  25.130   4.507
20394W        W92819  15.792  22.430   5.049
20395W        W92820  24.232  44.368   4.623
20396W        W92821  12.237  30.149   2.050
20397W        W92822  43.906   5.937  13.992
20398W        W92823   0.357  33.635   2.414
20399W        W92824   3.847  15.861   4.752
20400W        W92825   9.380  12.551  11.520
20401W        W92826  14.342  41.565  10.607
20402W        W92827  38.380  16.679   4.634
20403W        W92828  10.030   1.011   1.590
20404W        W92829  29.927  22.956  12.101
20405W        W92830  39.816  41.857  11.070
20406W        W92831   0.227  19.476  13.373
20407W        W92832  19.844  15.547  10.331
20408W        W92833  37.944   3.719   2.375
20409W        W92834  20.590   4.952   3.595
20410W        W92835  15.016  30.167   4.842
20411W        W92836  24.103  38.405  14.487
20412W        W92837   8.181  25.440   0.258
20413W        W92838   2.001  38.865  11.407
20414W        W92839  31.524  28.749  10.345
20415W        W92840  32.520  39.484  11.631
20416W        W92841  44.614   0.371   4.135
20417W        W92842  24.150   9.169  10.574
20418W        W92843  34.032  26.737  11.471
20419W        W92844  12.632  24.533   2.792
20420W        W92845   1.673  11.897   3.708
20421W        W92846   5.804  25.190  13.987
20422W        W92847   1.290  25.231  13.455
20423W        W92848  19.539  35.351  10.817
20424W        W92849  13.018  12.351   1.413
20425W        W92850   9.304  13.097   3.149
20426W        W92851   6.157  38.054   1.184
20427W        W92852  30.367  21.716   1.207
20428W        W92853  21.732  27.648   4.045
20429W        W92854  29.492  29.805   2.140
20430W        W92855  44.512  23.070   1.648
20431W        W92856  23.867  18.800  12.386
20432W        W92857  20.738  34.554  14.867
20433W        W92858  16.103  34.981   2.880
20434W        W92859  37.030  13.330   3.954
20435W        W92860  35.455   3.085   2.855
20436W        W92861  16.390  10.291   0.718
20437W        W92862  29.954  44.229  11.130
20438W        W92863  28.446   5.075  10.736
20439W        W92864  18.860  29.165  12.977
20440W        W92865  25.135  34.387  12.891
20441W        W92866  39.511  36.918  14.915
20442W        W92867  19.240  25.842   0.081
20443W        W92868  27.335   5.145  13.852
20444W        W92869  36.567  14.126   2.292
20445W        W92870   5.840   2.592   1.805
20446W        W92871  18.056   7.631  11.591
20447W        W92872  33.903  38.551   4.473
20448W        W92873   4.802  16.576   3.817
20449W        W92874   4.110  32.529   0.649
20450W        W92875  20.686  27.349   4.548
20451W        W92876  20.564   2.957  14.604
20452W        W92877  27.408  22.643  10.401
20453W        W92878  38.440  44.219  10.054
20454W        W92879  42.924  19.751   1.248
20455W        W92880  38.503  25.433  11.126
20456W        W92881  41.361  11.906   4.561
20457W        W92882  33.520  22.355  12.909
20458W        W92883  28.230  28.159   2.576
20459W        W92884  19.587  29.709  12.284
20460W        W92885   7.535  41.587  11.677
20461W        W92886  33.150  13.206   2.565
20462W        W92887   9.701  35.586   1.319
20463W        W92888   3.058  12.527   4.114
20464W        W92889  25.105  11.893  13.460
20465W        W92890  43.465  20.921  14.041
20466W        W92891   6.280  11.199   0.365
20467W        W92892  12.308  30.467   3.364
20468W        W92893   2.049  28.434   2.839
20469W        W92894  15.336  40.674  10.827
20470W        W92895  38.371  36.368   1.313
20471W        W92896  23.527  43.001   2.294
20472W        W92897  10.463   4.159   1.934
20473W        W92898   4.114  10.469   3.641
20474W        W92899  43.301  17.632  14.735
20475W        W92900  22.361   9.265   0.180
20476W        W92901  44.620  32.774   2.236
20477W        W92902   4.001   2.390  14.963
20478W        W92903   3.324  39.430  14.741
20479W        W92904  42.354  20.470  14.482
20480W        W92905   7.231  21.847   3.502
20481W        W92906  19.765  35.902  11.968
20482W        W92907  34.570  10.367   2.351
20483W        W92908  30.203   5.406  12.981
20484W        W92909  11.607  11.614  10.345
20485W        W92910  39.156  25.727   0.368
20486W        W92911  20.209  35.541  13.513
20487W        W92912  24.587  17.985   4.238
20488W        W92913  33.535  28.092  14.216
20489W        W92914  18.728  28.627  13.064
20490W        W92915  17.049  19.812  14.308
20491W        W92916  12.987  27.478  10.990
20492W        W92917  43.967  44.051  14.916
20493W        W92918  13.261  36.751  14.525
20494W        W92919  30.875  10.298  13.394
20495W        W92920  43.089  10.428   2.398
20496W        W92921  12.767  28.387   4.191
20497W        W92922  18.047  39.108  14.862
20498W        W92923  15.264  26.664   4.369
20499W        W92924  32.894   9.350   0.352
20500W        W92925  20.928   9.595   0.549
20501W        W92926  31.799  38.363  11.392
20502W        W92927   2.935   2.718   4.795
20503W        W92928  43.905  22.277   0.330
20504W        W92929  18.093  24.800  14.468
20505W        W92930  25.980  36.822   4.435
20506W        W92931  36.498  14.016  12.123
20507W        W92932  40.837  15.286   4.752
20508W        W92933   3.143  14.146  14.489
20509W        W92934  41.513  18.731   4.614
20510W        W92935  17.615  31.911  11.419
20511W        W92936  15.999  33.550   0.751
20512W        W92937   2.204  27.885   2.795
20513W        W92938   9.079  11.169  14.694
20514W        W92939  35.585   1.856  14.892
20515W        W92940  25.580  43.141   4.175
20516W        W92941  37.024   4.380   4.655
20517W        W92942  29.298   2.285   4.151
20518W        W92943  26.229  13.138   4.603
20519W        W92944  23.719   3.699  12.565
20520W        W92945  18.822  44.978   0.764
20521W        W92946  16.160  11.739   3.630
20522W        W92947  20.623  28.951  13.382
20523W        W92948  24.704  32.156  11.613
20524W        W92949  28.589  43.971   2.332
20525W        W92950  30.045  14.358  12.479
20526W        W92951  44.056  34.489   4.504
20527W        W92952  19.521  35.042  12.511
20528W        W92953  27.522  29.398   2.269
20529W        W92954  12.326  18.613  13.584
20530W        W92955  38.381   8.417  11.666
20531W        W92956   0.037  30.946   4.184
20532W        W92957  44.604  29.684  11.681
20533W        W92958   0.967  12.265   1.499
20534W        W92959  22.012  30.554  11.206
20535W        W92960  23.989  20.101   1.876
20536W        W92961  19.164  37.184   0.016
20537W        W92962  35.943  35.678  12.056
20538W        W92963  32.485  34.868   3.214
20539W        W92964   2.009   5.456   4.771
20540W        W92965   4.242  22.191  12.568
20541W        W92966   3.615   5.464  11.668
20542W        W92967  31.692  39.890   1.363
20543W        W92968  19.498  11.119  13.929
20544W        W92969   7.334  12.635  10.713
20545W        W92970  26.116  16.341  10.577
20546W        W92971  36.344  30.997   1.745
20547W        W92972  17.188  34.549  11.773
20548W        W92973  38.435   1.610   0.212
20549W        W92974  18.595  21.007   1.820
20550W        W92975   7.448  20.193  12.926
20551W        W92976  30.085  28.356  12.998
20552W        W92977  37.396  30.735  10.698
20553W        W92978  16.131  10.370   4.058
20554W        W92979  30.903   4.609  14.807
20555W        W92980  37.991  44.456  14.076
20556W        W92981  43.344   9.179  12.461
20557W        W92982  33.615  21.826   0.418
20558W        W92983  15.913  17.754  13.323
20559W        W92984  43.406  32.027  11.081
20560W        W92985  41.084   6.897  12.510
20561W        W92986  18.735   9.734   3.803
20562W        W92987   9.957  30.751   0.591
20563W        W92988  41.859  41.248   2.270
20564W        W92989  23.050  12.896  10.906
20565W        W92990  28.107  32.932   2.629
20566W        W92991  43.793  34.172   4.823
20567W        W92992   1.924  22.019   2.716
20568W        W92993  22.740  11.491   2.491
20569W        W92994   9.278   2.646  11.988
20570W        W92995  28.519  25.930   2.330
20571W        W92996  14.114   5.572  12.099
20572W        W92997  19.874   3.210   1.932
20573W        W92998  33.402   8.118   0.732
20574W        W92999  25.892  40.491   1.118
20575W        W93000  39.574  34.841   1.337
20576W        W93001  32.525   7.080   1.646
20577W        W93002  27.426   7.864   0.765
20578W        W93003   4.750  22.021  13.446
20579W        W93004   0.847   9.386   0.940
20580W        W93005  39.098  23.227   3.421
20581W        W93006  36.171   1.169  13.478
20582W        W93007  36.858  32.119   1.398
20583W        W93008  42.234  43.309   4.083
20584W        W93009  16.116  14.231   1.756
20585W        W93010   5.924  13.753   1.233
20586W        W93011  39.459  43.931  12.249
20587W        W93012   4.139  14.670   4.602
20588W        W93013  13.680  42.916   2.669
20589W        W93014  19.971  40.837  11.215
20590W        W93015   3.411  25.408   1.870
20591W        W93016  26.211   0.459   4.805
20592W        W93017  20.642   4.168  13.971
20593W        W93018  42.438  11.334  10.746
20594W        W93019  33.197  15.045   1.331
20595W        W93020  17.610  38.596   1.043
20596W        W93021  38.761  36.266   2.728
20597W        W93022  32.110   7.428  12.938
20598W        W93023  39.708  19.682   1.276
20599W        W93024  27.699  31.483  10.518
20600W        W93025  38.399   2.496  12.190
20601W        W93026  29.629  39.957   4.562
20602W        W93027  24.232  39.252  14.263
20603W        W93028  13.472  42.945   4.860
20604W        W93029  35.634  37.629  13.311
20605W        W93030  31.045  26.429   1.747
20606W        W93031  21.612   8.324   3.161
20607W        W93032  44.852  37.933   3.585
20608W        W93033  13.102  11.345   4.556
20609W        W93034  35.928  10.561   2.858
20610W        W93035  44.165  26.522   0.489
20611W        W93036  29.564  13.703   1.827
20612W        W93037  27.012   0.490  12.670
20613W        W93038  37.591   6.117  11.771
20614W        W93039  17.862  34.869  11.201
20615W        W93040   9.672   4.437   3.661
20616W        W93041  36.556  15.577  11.695
20617W        W93042  14.363  44.475   4.486
20618W        W93043  35.829   8.364  12.460
20619W        W93044  34.326   7.359   1.293
20620W        W93045   0.378  20.611  10.912
20621W        W93046   4.470  14.178   0.697
20622W        W93047   4.816  31.074  10.246
20623W        W93048  27.893  32.257  10.684
20624W        W93049   6.456  31.590  11.929
20625W        W93050  13.341  32.907   4.227
20626W        W93051  18.705   7.054  12.950
20627W        W93052  28.091   0.707   3.006
20628W        W93053   0.745  29.428  13.285
20629W        W93054  12.707  17.030   1.864
20630W        W93055  44.814  14.597   1.894
20631W        W93056  38.530   4.400   2.988
20632W        W93057  43.115  27.992  12.004
20633W        W93058   3.901  20.060   3.282
20634W        W93059  36.930  15.211   1.701
20635W        W93060  29.674  19.171  10.952
20636W        W93061  18.521  38.376  12.094
20637W        W93062   1.186  35.066   1.772
20638W        W93063   7.466   1.903  12.061
20639W        W93064  30.295  15.385  12.380
20640W        W93065  16.264  10.420  10.700
20641W        W93066   2.423  17.956   0.604
20642W        W93067  36.617  38.274  13.044
20643W        W93068  41.023  23.456   1.276
20644W        W93069  10.050   8.755  11.140
20645W        W93070  33.707  24.650   2.232
20646W        W93071   5.419  11.594   3.559
20647W        W93072  33.436  20.240  14.484
20648W        W93073  33.341  21.988   2.699
20649W        W93074  33.932  33.731  10.771
20650W        W93075  26.839   7.360   1.833
20651W        W93076  11.578  41.620  12.017
20652W        W93077  43.930  40.112   4.186
20653W        W93078  26.046  24.141  12.366
20654W        W93079  35.275  42.933  10.734
20655W        W93080  41.818  31.933  14.436
20656W        W93081  31.406   6.380  13.418
20657W        W93082  23.156  38.734   0.322
20658W        W93083  28.149  30.324  14.517
20659W        W93084  14.771  20.762   1.234
20660W        W93085  22.287  40.504   3.707
20661W        W93086   7.392  38.193  10.702
20662W        W93087  44.000  13.990   2.807
20663W        W93088  36.978  41.270  10.614
20664W        W93089  23.727  21.191   0.247
20665W        W93090   6.749  29.273  12.005
20666W        W93091   4.459  42.325   2.471
20667W        W93092  17.774  40.351   0.396
20668W        W93093  27.015  12.307  11.647
20669W        W93094  43.557  31.477   0.215
20670W        W93095  35.914  36.319   2.299
20671W        W93096  24.808  21.562   4.550
20672W        W93097  44.299   1.414   3.237
20673W        W93098  31.919   3.068   3.203
20674W        W93099  32.916  38.963  11.034
20675W        W93100  35.647  15.695   1.852
20676W        W93101  36.906  31.001  11.954
20677W        W93102  21.252  39.957   1.821
20678W        W93103  36.016  19.171   4.393
20679W        W93104   6.674  35.535   0.224
20680W        W93105  27.685   4.698   2.631
20681W        W93106  34.900  25.918  14.511
20682W        W93107  36.903  38.996   3.059
20683W        W93108  21.919  26.924  13.845
20684W        W93109  38.978  15.087  12.948
20685W        W93110  42.193  27.939   0.715
20686W        W93111  24.053  41.641  13.623
20687W        W93112  38.447  17.358  13.850
20688W        W93113  13.596  18.240   2.839
20689W        W93114  40.911  37.084   1.287
20690W        W93115   9.589  36.402  14.293
20691W        W93116   3.464  44.328  14.490
20692W        W93117  42.767   1.296  12.883
20693W        W93118   6.772  22.586   3.657
20694W        W93119  27.520   3.724  13.976
20695W        W93120  42.454   5.896  11.603
20696W        W93121  11.048   0.216   1.409
20697W        W93122  43.331   7.725   4.658
20698W        W93123  36.506  36.802  14.292
20699W        W93124  36.672  10.305  13.082
20700W        W93125  30.921  22.511  14.020
20701W        W93126  31.853   3.061  12.603
20702W        W93127  34.418   8.140  13.978
20703W        W93128  21.017  33.611   4.156
20704W        W93129  39.992  14.711   1.342
20705W        W93130  26.596  20.268   1.165
20706W        W93131   6.854  44.503   4.661
20707W        W93132   5.397  12.083   3.731
20708W        W93133  25.517  31.098   4.191
20709W        W93134  13.589  35.077   0.372
20710W        W93135  30.508  39.455  12.160
20711W        W93136  38.571  23.478  11.075
20712W        W93137  28.165  16.314   2.051
20713W        W93138   9.887  10.637   2.210
20714W        W93139   5.890   7.006  14.666
20715W        W93140  18.773   1.826   5.489
20716W        W93141  15.851   4.470  12.432
20717W        W93142   2.992   0.470   4.028
20718W        W93143  40.136  22.440   0.117
20719W        W93144  13.950   5.363  14.262
20720W        W93145  22.140  17.086  10.538
20721W        W93146  14.506  38.306   1.312
20722W        W93147  42.186  31.092  11.973
20723W        W93148   8.675  14.519  11.581
20724W        W93149  14.882  22.154   1.188
20725W        W93150   8.453   8.338  14.303
20726W        W93151  31.000   4.273   4.259
20727W        W93152   5.024  35.166   4.253
20728W        W93153  28.425  39.557  12.037
20729W        W93154  38.727   3.708   1.789
20730W        W93155  43.170  24.577   4.931
20731W        W93156  27.325  23.459   0.837
20732W        W93157  26.919  14.025  13.464
20733W        W93158  35.530   8.342   0.673
20734W        W93159  39.474  24.935   4.075
20735W        W93160   1.314  39.858  14.066
20736W        W93161  22.433   2.421   3.592
20737W        W93162  23.003   7.622  12.565
20738W        W93163   4.827  10.657  12.113
20739W        W93164  42.434  13.206  10.724
20740W        W93165   0.505  34.055  10.565
20741W        W93166   5.689  34.987   3.077
20742W        W93167   4.822  21.142   4.611
20743W        W93168  36.772  27.610   1.160
20744W        W93169   8.177  17.225  14.631
20745W        W93170  19.307  41.331  14.569
20746W        W93171  28.942   7.813   4.474
20747W        W93172  42.321  23.939  12.897
20748W        W93173  29.340   2.934  13.394
20749W        W93174  15.051  33.301  13.329
20750W        W93175  40.770  29.691   4.284
20751W        W93176   7.050  15.624  13.328
20752W        W93177  23.358  44.890   0.397
20753W        W93178  18.544  21.314   1.144
20754W        W93179  38.009   4.019   2.807
20755W        W93180  13.704  44.507  12.886
20756W        W93181   6.352  13.819   3.326
20757W        W93182  23.177  37.618   1.360
20758W        W93183   5.541  40.350   2.311
20759W        W93184  35.907   4.298   2.443
20760W        W93185  32.569  12.344  12.972
20761W        W93186   3.602  25.243  10.215
20762W        W93187  25.590  28.118   0.874
20763W        W93188  32.914  11.841  14.574
20764W        W93189  37.216  10.299  13.961
20765W        W93190  26.066   2.794   1.410
20766W        W93191  17.625  33.021  13.836
20767W        W93192  43.399  24.201  12.479
20768W        W93193  21.006  25.698   3.264
20769W        W93194  17.757  38.493   3.252
20770W        W93195   8.916  35.038   4.262
20771W        W93196   4.218  33.872   2.710
20772W        W93197   6.346  43.796  13.862
20773W        W93198  15.785  34.417  13.462
20774W        W93199  11.202  19.104  11.983
20775W        W93200  34.587   7.924   1.837
20776W        W93201  37.015   4.502   0.722
20777W        W93202   2.723  14.616   2.828
20778W        W93203  43.278  16.293  13.839
20779W        W93204  22.921  11.487  11.470
20780W        W93205  32.390  27.557  11.574
20781W        W93206  27.048  16.484  14.243
20782W        W93207  28.401   6.439   0.796
20783W        W93208  43.518   6.878   1.105
20784W        W93209  25.002   6.466  12.200
20785W        W93210  25.568   4.762  14.396
20786W        W93211  25.192  16.732  14.364
20787W        W93212  26.859   9.394   0.246
20788W        W93213  16.768   9.846  13.033
20789W        W93214  13.173  23.649   0.908
20790W        W93215   6.987  28.082  14.711
20791W        W93216  15.572   8.236   1.462
20792W        W93217  33.079  42.764   4.608
20793W        W93218  27.611  39.226   1.439
20794W        W93219  23.593   4.761  14.332
20795W        W93220  12.016  34.965  12.936
20796W        W93221   0.659  19.663   3.774
20797W        W93222   5.629  35.559   0.311
20798W        W93223  38.045   2.809  14.556
20799W        W93224  25.981  19.301  10.729
20800W        W93225  41.274  38.837  10.656
20801W        W93226  31.068  30.063   1.740
20802W        W93227  13.795  35.853   0.777
20803W        W93228  33.142  25.659   2.638
20804W        W93229  19.353   5.665  10.727
20805W        W93230   9.396  44.661  13.464
20806W        W93231  24.135   4.350  12.409
20807W        W93232   8.448  29.577  12.961
20808W        W93233  37.972  18.569   3.154
20809W        W93234  36.597   7.646  12.010
20810W        W93235  23.179  37.324  13.421
20811W        W93236  12.597  15.589  14.651
20812W        W93237  27.781  35.967  12.908
20813W        W93238  31.361   6.922  14.794
20814W        W93239  40.341  29.133   0.878
20815W        W93240   9.708  40.690  13.820
20816W        W93241   9.706   2.647   2.694
20817W        W93242  11.745  35.013   3.208
20818W        W93243  31.985  40.039   0.878
20819W        W93244  43.455  42.829  12.352
20820W        W93245  29.338   0.920   4.620
20821W        W93246  31.048   6.782   0.709
20822W        W93247  31.021  22.985  11.123
20823W        W93248   4.000   0.804   1.365
20824W        W93249  42.045  10.902  12.505
20825W        W93250   6.765  29.234  13.367
20826W        W93251  10.363  23.989   1.272
20827W        W93252  40.323  27.176   0.417
20828W        W93253  34.892  36.861   0.368
20829W        W93254   5.622  12.926   3.395
20830W        W93255   0.116  40.814  12.353
20831W        W93256  32.108  22.936  11.287
20832W        W93257   5.858  30.651  11.163
20833W        W93258  26.714  39.716  11.147
20834W        W93259  10.570  39.093   2.368
20835W        W93260  23.999  23.809  11.961
20836W        W93261  27.535  38.963  13.742
20837W        W93262  35.396  16.640   2.947
20838W        W93263  31.840   7.857  11.303
20839W        W93264  20.747   6.241  10.565
20840W        W93265  13.955  43.345   4.099
20841W        W93266  22.193  37.464   2.121
20842W        W93267  32.407  39.540   4.254
20843W        W93268  15.193   0.503  11.624
20844W        W93269  20.623  28.894  14.312
20845W        W93270  17.268  25.253   5.132
20846W        W93271  36.070  40.502   3.658
20847W        W93272   4.619  12.381   1.684
20848W        W93273   7.191   1.580  11.387
20849W        W93274  16.203  10.336   1.663
20850W        W93275  35.382  14.468   2.744
20851W        W93276  28.633  43.971   0.250
20852W        W93277  30.914  40.063   1.657
20853W        W93278  25.860  23.860   4.616
20854W        W93279  18.228   9.912  10.602
20855W        W93280  17.273  30.406  10.337
20856W        W93281  13.873   9.453  13.445
20857W        W93282  29.892  18.677  14.803
20858W        W93283   2.002  18.793   2.862
20859W        W93284   9.281  35.092  14.593
20860W        W93285   3.474   7.502  14.835
20861W        W93286  29.145  29.995   5.370
20862W        W93287  11.862   7.756  10.121
20863W        W93288  21.515  30.707  11.105
20864W        W93289  26.997  26.614   3.092
20865W        W93290   5.343  33.706  11.951
20866W        W93291  39.113  42.110  13.290
20867W        W93292   0.878  37.044  10.490
20868W        W93293  31.979  26.908  10.672
20869W        W93294  43.567  11.645  13.883
20870W        W93295   9.147  11.116  12.874
20871W        W93296   6.874  22.489   1.251
20872W        W93297  22.649   7.299  14.350
20873W        W93298   1.864   3.404   3.518
20874W        W93299  28.791  30.579   4.580
20875W        W93300  11.254  20.973   1.680
20876W        W93301   2.313  35.218  12.161
20877W        W93302  37.078  22.648  12.297
20878W        W93303   7.764  34.941   2.687
20879W        W93304  16.218  24.475  10.431
20880W        W93305  40.832  24.205   2.368
20881W        W93306  33.480  16.239   1.397
20882W        W93307  31.347  37.658  13.820
20883W        W93308   8.554  15.370  12.876
20884W        W93309  11.682   9.856  11.465
20885W        W93310  43.642  28.064  11.311
20886W        W93311   1.376  40.063   0.500
20887W        W93312  38.610  35.456   1.326
20888W        W93313  31.614   0.442  13.990
20889W        W93314  33.216  28.940  11.747
20890W        W93315   0.484   8.701  13.902
20891W        W93316  24.689  25.713   1.206
20892W        W93317  42.846  37.760  13.905
20893W        W93318  31.590  33.263   4.119
20894W        W93319  39.890  35.530   2.813
20895W        W93320  27.769  31.030  10.253
20896W        W93321  24.867  36.358  13.003
20897W        W93322   3.465  37.507   3.202
20898W        W93323  39.587  22.353   1.373
20899W        W93324  40.078  13.552   1.356
20900W        W93325   8.817  17.034  11.676
20901W        W93326  20.142  41.289  13.893
20902W        W93327  20.114  36.615   2.240
20903W        W93328   9.346  18.358   5.059
20904W        W93329  10.347  35.400   1.826
20905W        W93330   3.562  17.897  14.933
20906W        W93331   6.269  30.023   2.716
20907W        W93332  37.620  21.043   1.450
20908W        W93333  10.643  16.165   4.693
20909W        W93334  24.014  27.186  14.505
20910W        W93335  44.356  30.898   0.451
20911W        W93336  16.153  12.240   2.757
20912W        W93337  16.861   4.999   3.268
20913W        W93338  16.975  13.593   2.931
20914W        W93339  22.782  17.823  13.853
20915W        W93340   4.428   8.888  11.924
20916W        W93341  19.116  20.013  13.014
20917W        W93342  30.558  25.632   4.666
20918W        W93343  31.378  39.034   3.597
20919W        W93344  15.660  35.614  11.910
20920W        W93345  17.339  27.878  13.141
20921W        W93346  19.860  16.761   1.453
20922W        W93347  44.226  14.382   0.829
20923W        W93348  23.982  30.039   4.524
20924W        W93349  41.553  42.587  12.615
20925W        W93350   5.333   2.364  14.072
20926W        W93351  22.515   8.868  14.307
20927W        W93352  34.600  34.961  10.660
20928W        W93353   9.371  15.287   4.542
20929W        W93354  34.597  31.821   0.406
20930W        W93355  11.642  20.511   2.432
20931W        W93356  24.466  14.857   4.684
20932W        W93357  43.711  23.492  12.926
20933W        W93358  43.100  10.938  13.269
20934W        W93359  10.080  21.264   2.137
20935W        W93360  15.138   9.413   0.836
20936W        W93361  24.288  16.764  12.588
20937W        W93362  21.122  18.821   4.615
20938W        W93363  36.676  14.342  12.944
20939W        W93364   3.445  38.398   3.444
20940W        W93365  22.822  15.370   1.141
20941W        W93366  39.789   7.709  10.450
20942W        W93367   8.747   3.318  14.230
20943W        W93368  19.718  23.951   1.866
20944W        W93369  41.037   4.740   2.556
20945W        W93370  13.854   1.469  12.000
20946W        W93371  22.762  14.069   2.232
20947W        W93372  23.970  39.065  12.022
20948W        W93373  15.823  29.146   4.246
20949W        W93374  25.074  31.145   4.442
20950W        W93375  23.030  20.669   0.389
20951W        W93376  20.606  20.254   4.857
20952W        W93377  15.723  30.184   3.814
20953W        W93378  26.089  12.308   1.125
20954W        W93379  30.113  13.529  11.114
20955W        W93380  18.073  33.183  11.157
20956W        W93381  41.482   2.025   2.901
20957W        W93382  10.283  19.745   3.327
20958W        W93383  42.587  32.603   3.589
20959W        W93384  15.724  34.880  13.182
20960W        W93385  12.248  43.857  14.342
20961W        W93386  30.175  12.391   2.184
20962W        W93387  30.103  36.080  13.819
20963W        W93388  10.772  21.703   1.960
20964W        W93389  22.570  11.696   2.980
20965W        W93390  40.470  21.556   4.212
20966W        W93391  41.979  25.120   1.490
20967W        W93392  12.924   1.502   3.591
20968W        W93393  41.528  37.971  11.150
20969W        W93394  35.397  23.009   3.412
20970W        W93395  30.262  32.383  14.854
20971W        W93396  33.266  26.259   2.283
20972W        W93397  38.116  10.884  13.843
20973W        W93398   9.252   3.029  12.354
20974W        W93399  19.829  15.540  13.469
20975W        W93400  17.683   6.416   0.813
20976W        W93401   4.912  41.517   4.512
20977W        W93402  20.471  27.029  13.226
20978W        W93403   3.928  34.850  10.316
20979W        W93404  34.214  41.434   3.709
20980W        W93405   6.975  15.591   4.144
20981W        W93406   1.382  44.303   1.156
20982W        W93407   1.623  27.025   2.198
20983W        W93408   9.348  27.217  14.394
20984W        W93409  13.608  25.608   5.159
20985W        W93410   0.951  27.659  14.932
20986W        W93411   4.806  13.047  10.785
20987W        W93412  25.534  38.516   0.092
20988W        W93413  24.605  18.080   0.837
20989W        W93414  34.746   0.956   5.064
20990W        W93415   3.264  16.020   1.389
20991W        W93416  28.122   0.169   3.039
20992W        W93417  12.674  19.685  12.817
20993W        W93418  35.418   4.014  13.529
20994W        W93419  33.696  16.555   4.563
20995W        W93420  44.448  21.979   2.004
20996W        W93421  27.198  19.723  14.107
20997W        W93422  31.654  14.626   2.918
20998W        W93423   7.170  15.348   3.315
20999W        W93424   8.171  37.381   3.583
21000W        W93425  23.543  38.301   0.905
21001W        W93426  16.566  10.217  13.911
21002W        W93427  35.799  16.417  12.612
21003W        W93428  27.080   5.770   2.433
21004W        W93429  34.923   1.261  13.585
21005W        W93430  12.551  27.602  10.412
21006W        W93431  36.940  26.984  12.817
21007W        W93432  32.600   8.204  11.049
21008W        W93433   8.104   8.951   9.832
21009W        W93434  12.112  28.198   2.182
21010W        W93435  33.450  16.591   9.556
21011W        W93436  41.352   1.268   3.337
21012W        W93437  39.558   6.946   2.769
21013W        W93438  31.106  14.480  13.547
21014W        W93439  27.427   5.064  11.435
21015W        W93440  31.538  30.227   1.898
21016W        W93441   8.960  41.913   4.947
21017W        W93442  10.560  28.053   3.137
21018W        W93443  29.955  10.701   4.338
21019W        W93444  12.278   1.292  13.502
21020W        W93445  31.188  30.938  13.845
21021W        W93446  42.103   8.564   2.501
21022W        W93447  15.335  16.315   0.379
21023W        W93448  30.186  38.625  13.845
21024W        W93449  28.324  32.587   1.682
21025W        W93450  27.382  38.102  13.954
21026W        W93451  29.620  19.607   3.611
21027W        W93452  29.636   9.253  14.287
21028W        W93453  11.189  40.593   0.779
21029W        W93454  18.294  26.989  14.852
21030W        W93455  33.642  30.499  11.038
21031W        W93456  27.054  26.771  12.438
21032W        W93457  38.652  23.973   4.032
21033W        W93458   7.143  28.527  14.963
21034W        W93459   7.789  10.170  10.552
21035W        W93460  42.276  22.669   4.132
21036W        W93461  28.661  38.503  14.080
21037W        W93462  38.700  30.525   0.520
21038W        W93463  34.156   2.364  13.131
21039W        W93464   2.902  12.588   1.702
21040W        W93465  15.204  18.599   0.053
21041W        W93466  27.018  22.004   4.148
21042W        W93467  12.148  27.962  12.121
21043W        W93468  14.095  35.030   4.554
21044W        W93469  31.867  31.603   2.363
21045W        W93470  23.471  34.404   2.396
21046W        W93471  20.118  11.448  14.416
21047W        W93472  20.833  17.451  14.390
21048W        W93473  23.686  36.339  12.210
21049W        W93474   0.481   1.470  13.452
21050W        W93475  33.955  20.185  10.804
21051W        W93476  19.659  35.558   1.910
21052W        W93477  15.612  12.145   4.717
21053W        W93478   8.894  37.024   0.275
21054W        W93479   7.231  27.532   4.239
21055W        W93480  33.595  34.010   2.693
21056W        W93481  21.522  30.704  13.282
21057W        W93482  30.980  19.450  13.375
21058W        W93483  32.090   4.449   4.123
21059W        W93484  37.921  27.548  13.004
21060W        W93485  14.385  15.008   3.252
21061W        W93486  44.009  26.443  10.662
21062W        W93487  33.982   1.305   1.378
21063W        W93488  34.070  42.653   5.042
21064W        W93489  38.349  39.774  13.818
21065W        W93490   7.943  32.106   1.860
21066W        W93491  32.417   6.747  10.758
21067W        W93492  22.567  41.671  12.519
21068W        W93493  41.759  39.974   3.425
21069W        W93494  21.890  42.772  11.537
21070W        W93495  31.493  41.430   3.731
21071W        W93496  37.414  41.533  12.431
21072W        W93497  16.772  13.796  12.457
21073W        W93498  24.079   8.865   0.416
21074W        W93499   1.041  33.614   3.728
21075W        W93500  29.706  19.081   4.822
21076W        W93501   1.014  34.074   0.477
21077W        W93502   2.789   3.275  12.754
21078W        W93503   4.660   4.190  10.879
21079W        W93504  34.424  21.923  11.017
21080W        W93505  38.419  12.709   3.209
21081W        W93506  36.469  35.057  12.450
21082W        W93507  14.942   8.344  14.332
21083W        W93508  42.969  19.703   0.391
21084W        W93509   9.842  29.078   0.390
21085W        W93510  26.315  17.378   0.403
21086W        W93511  21.225  17.511  14.789
21087W        W93512  28.878  24.208   2.168
21088W        W93513  43.454  33.454   3.698
21089W        W93514  39.862  11.242  13.807
21090W        W93515  14.214   4.686  12.107
21091W        W93516  33.596  23.137   3.401
21092W        W93517  25.235  42.010  13.085
21093W        W93518   5.540  30.196  14.887
21094W        W93519  19.105  36.478   4.508
21095W        W93520   9.929  44.380  13.675
21096W        W93521  18.184   4.405   2.192
21097W        W93522  36.885  43.334   0.405
21098W        W93523   1.945  21.676   4.152
21099W        W93524  18.133  16.108  10.729
21100W        W93525  14.844  21.071   4.727
21101W        W93526   3.083  30.841   5.078
21102W        W93527  19.281  36.555  12.397
21103W        W93528  20.096  28.010   0.395
21104W        W93529  22.233  14.673   4.494
21105W        W93530  11.695   9.082  10.623
21106W        W93531  29.229  38.197   4.087
21107W        W93532  19.092  23.027  13.338
21108W        W93533  34.347  35.290   1.735
21109W        W93534  13.607   7.157   1.706
21110W        W93535  43.884  42.207  11.173
21111W        W93536  18.377  13.566   1.948
21112W        W93537  19.842   5.679   3.710
21113W        W93538  35.490   9.595  11.990
21114W        W93539  24.254  35.490  13.443
21115W        W93540  10.395  14.817  12.067
21116W        W93541  17.857  30.870   0.765
21117W        W93542  21.469  38.291  11.156
21118W        W93543   8.179  16.733   1.943
21119W        W93544  28.214  15.841   1.835
21120W        W93545  35.137  15.640  12.128
21121W        W93546  36.874  30.110   1.658
21122W        W93547   7.986   3.731  12.015
21123W        W93548  13.481  15.578   2.307
21124W        W93549   1.255  43.866   4.551
21125W        W93550  11.327  19.229   2.137
21126W        W93551  19.204  14.256   2.399
21127W        W93552  11.041  41.177  12.077
21128W        W93553  44.056  29.770   1.927
21129W        W93554  29.752  14.545   1.596
21130W        W93555  27.945   0.605   1.245
21131W        W93556   9.624  12.109  11.433
21132W        W93557   6.409  35.459  14.783
21133W        W93558  17.141   5.345  14.403
21134W        W93559   7.257  27.777  13.290
21135W        W93560   2.896   0.979  14.397
21136W        W93561   9.907  22.695   4.250
21137W        W93562  39.463  33.830   3.253
21138W        W93563   4.632   3.302  11.907
21139W        W93564   6.857   9.585   3.798
21140W        W93565  34.419  41.100  10.875
21141W        W93566  14.417   6.786   2.118
21142W        W93567  44.817  15.768  10.934
21143W        W93568  10.320   6.840   5.122
21144W        W93569  11.144  34.894  11.471
21145W        W93570   4.851   4.676  14.087
21146W        W93571  15.133  12.547  13.848
21147W        W93572   3.157  14.679  14.341
21148W        W93573  17.315  11.249   0.512
21149W        W93574  20.112  17.144   1.687
21150W        W93575   2.792   6.183  12.421
21151W        W93576  17.250  28.105   4.498
21152W        W93577  32.245   6.419   0.761
21153W        W93578  28.058  28.317   4.674
21154W        W93579  24.790  28.470   4.904
21155W        W93580  40.747  20.812  12.916
21156W        W93581  35.987  20.261   1.785
21157W        W93582  41.457  17.206  12.716
21158W        W93583   0.932  31.471  12.088
21159W        W93584   5.164  44.369   1.381
21160W        W93585   4.815  21.564   3.674
21161W        W93586  26.976   7.679  11.493
21162W        W93587  12.277  29.831   1.658
21163W        W93588   4.606  20.099  13.386
21164W        W93589  38.959  10.714   2.851
21165W        W93590  16.537  34.794  12.812
21166W        W93591  18.563  14.460   1.738
21167W        W93592  22.161  43.048   1.653
21168W        W93593   5.271  29.277   2.741
21169W        W93594  40.457  34.164   1.406
21170W        W93595  44.908   5.604  13.918
21171W        W93596  19.692  28.544   0.790
21172W        W93597   9.889   7.964   1.411
21173W        W93598  26.088  30.452   4.258
21174W        W93599  19.546  15.495  14.491
21175W        W93600  29.068  18.480  14.837
21176W        W93601  32.428  37.513   4.237
21177W        W93602  41.834  13.681  12.130
21178W        W93603  24.714  35.557  11.195
21179W        W93604  40.639  39.401   2.779
21180W        W93605  10.601  11.142  10.692
21181W        W93606  29.495  42.016  10.627
21182W        W93607  38.292  42.407  12.974
21183W        W93608  14.627  13.056  14.283
21184W        W93609   1.259  44.503   4.177
21185W        W93610  20.128  22.187   3.163
21186W        W93611  19.580  23.255  13.289
21187W        W93612  18.977  27.326   1.455
21188W        W93613  37.888  21.248   4.361
21189W        W93614  36.697   0.960   0.882
21190W        W93615  39.489  44.084  14.786
21191W        W93616  12.503  28.844   4.159
21192W        W93617  24.887  10.499   3.288
21193W        W93618  27.102  32.538   3.192
21194W        W93619  43.873   9.270  12.878
21195W        W93620   4.198  30.261  11.098
21196W        W93621  18.198   4.212   2.716
21197W        W93622  38.275  28.644  11.595
21198W        W93623  36.131  28.676   1.719
21199W        W93624   0.553  22.243  11.059
21200W        W93625   5.167  19.648   0.844
21201W        W93626  13.229  32.162  12.436
21202W        W93627  21.719  13.258   4.088
21203W        W93628   7.027  14.668   1.339
21204W        W93629  23.615  30.659   1.240
21205W        W93630  39.062  35.873   2.597
21206W        W93631   1.339  14.295  10.554
21207W        W93632   3.463  39.535   2.253
21208W        W93633  38.488  27.642  12.539
21209W        W93634  37.857  25.571   5.489
21210W        W93635  32.395  27.665  10.939
21211W        W93636  38.777  36.026   3.435
21212W        W93637  23.465   3.430  13.030
21213W        W93638  23.183  19.260   3.712
21214W        W93639   5.992  15.550  11.812
21215W        W93640   7.318   4.319   3.891
21216W        W93641  26.656  32.583   9.944
21217W        W93642   0.069  33.886  13.527
21218W        W93643  15.143  12.280   3.079
21219W        W93644  27.472  34.155   2.498
21220W        W93645  18.035   2.712   3.570
21221W        W93646   9.166  35.301   2.769
21222W        W93647   9.865  34.015  14.280
21223W        W93648  18.168  38.417   0.667
21224W        W93649  39.799  18.121  13.982
21225W        W93650  29.073  13.133  13.005
21226W        W93651  39.986  29.973   4.575
21227W        W93652  14.256   3.960  14.463
21228W        W93653  25.952  33.933  12.962
21229W        W93654  32.612  19.008  13.841
21230W        W93655   9.357  20.247   2.710
21231W        W93656  27.919  13.652   9.885
21232W        W93657   5.133  31.955  12.105
21233W        W93658  39.553  42.415  11.802
21234W        W93659  15.633  20.783   4.741
21235W        W93660  36.397   7.232  11.126
21236W        W93661   0.539  20.292   0.382
21237W        W93662  42.886  31.694   3.971
21238W        W93663   1.855   0.414  12.587
21239W        W93664  44.412  29.154  14.799
21240W        W93665  19.130   7.175   0.990
21241W        W93666  21.216   8.791   9.946
21242W        W93667  21.484  28.829   2.246
21243W        W93668  30.762  32.459  14.914
21244W        W93669   1.765  33.122  13.853
21245W        W93670  13.435  18.243   0.554
21246W        W93671  22.240   2.965   0.726
21247W        W93672  35.169  17.482  11.253
21248W        W93673   2.650  28.429   0.968
21249W        W93674  38.559  41.759   3.767
21250W        W93675  11.377  11.305   0.909
21251W        W93676   1.546  18.626  12.095
21252W        W93677  30.279  35.452  10.595
21253W        W93678   4.736  22.151  12.166
21254W        W93679  18.608  35.777   0.648
21255W        W93680  32.995  27.419  11.991
21256W        W93681  34.131  40.826  14.942
21257W        W93682  37.819   0.392  11.924
21258W        W93683  37.954   2.409  11.959
21259W        W93684  38.786  35.789  10.323
21260W        W93685   1.250  31.900  14.824
21261W        W93686  38.254  12.125   0.213
21262W        W93687  34.523  13.383   2.005
21263W        W93688   2.295  43.929   2.734
21264W        W93689  31.822  18.701  10.955
21265W        W93690   6.304  41.742  10.545
21266W        W93691  26.651   4.744   3.598
21267W        W93692   9.682  21.750  12.094
21268W        W93693  19.151   1.248  13.888
21269W        W93694   6.953  34.590   1.394
21270W        W93695   1.766  30.399  13.487
21271W        W93696  29.538  12.120  12.539
21272W        W93697   4.319   1.305   4.287
21273W        W93698  40.316  44.327   2.874
21274W        W93699  34.566   2.017   2.931
21275W        W93700  34.129  22.738  13.888
21276W        W93701  28.431  34.107  13.235
21277W        W93702   4.855  25.156  11.840
21278W        W93703  44.436   0.176   3.283
21279W        W93704  26.721  44.946  11.987
21280W        W93705  19.027   0.087  12.611
21281W        W93706  35.037   2.834  12.060
21282W        W93707   2.381  14.158   0.544
21283W        W93708  44.581  39.540  11.920
21284W        W93709  30.124  36.818   2.775
21285W        W93710  36.814  39.440  10.778
21286W        W93711   7.694  21.218   1.799
21287W        W93712  36.740  39.292   1.182
21288W        W93713  11.199  40.422  13.988
21289W        W93714  33.384  14.846   2.257
21290W        W93715  25.952   2.378  12.439
21291W        W93716  36.460  24.314   4.644
21292W        W93717   7.815   5.774   0.505
21293W        W93718  19.111   1.371   4.413
21294W        W93719  10.569  39.834  14.497
21295W        W93720  36.937  14.672   3.819
21296W        W93721  26.889  38.480  13.260
21297W        W93722  13.213   4.323  14.238
21298W        W93723  14.933  33.477  13.854
21299W        W93724  37.190  32.576   5.385
21300W        W93725  44.907   8.370   4.550
21301W        W93726  23.028  22.503   0.390
21302W        W93727  14.830  23.145   4.354
21303W        W93728   6.742  34.341  11.148
21304W        W93729  21.938  39.619  11.255
21305W        W93730  40.881  19.008   0.598
21306W        W93731   9.294  34.233   3.751
21307W        W93732   6.325  20.416  14.340
21308W        W93733  39.301  22.750   1.183
21309W        W93734  42.414  18.138   4.529
21310W        W93735  13.062  41.292   2.629
21311W        W93736  18.996   4.798   4.776
21312W        W93737  14.811  23.480  14.981
21313W        W93738  37.989  30.654  12.903
21314W        W93739  31.976   7.568  11.703
21315W        W93740  25.115  42.272  11.561
21316W        W93741  25.635  39.923  14.058
21317W        W93742  15.985  40.801  12.114
21318W        W93743  21.811   3.537  11.472
21319W        W93744  13.290  37.070  14.947
21320W        W93745  17.526  19.613   4.151
21321W        W93746  13.262  17.753  14.179
21322W        W93747  34.574  33.432  14.396
21323W        W93748  23.325   5.740  11.983
21324W        W93749  35.921   6.768  13.079
21325W        W93750   6.442  19.930  14.378
21326W        W93751  22.428  15.310   3.842
21327W        W93752  10.640  34.096   4.145
21328W        W93753  22.978  19.061  12.556
21329W        W93754  30.229  24.026   0.849
21330W        W93755  13.400  19.794  10.384
21331W        W93756  41.050  39.610  12.076
21332W        W93757  32.561  40.045  13.623
21333W        W93758  15.620  13.190  13.287
21334W        W93759   0.951  33.264  13.385
21335W        W93760  10.877   2.079   0.895
21336W        W93761  32.492  16.972   4.662
21337W        W93762   9.296  32.903   4.156
21338W        W93763  40.798  10.447  14.967
21339W        W93764  18.668  29.610  13.321
21340W        W93765   4.785  14.661   3.936
21341W        W93766  16.526  25.654   3.065
21342W        W93767  28.052  42.944  13.234
21343W        W93768   3.519  23.681  11.587
21344W        W93769   3.816  15.585   1.518
21345W        W93770   9.847  41.251  12.583
21346W        W93771   0.715  21.793  13.913
21347W        W93772  27.180   7.872   0.285
21348W        W93773  44.535  18.252  12.933
21349W        W93774  17.651  22.610  14.471
21350W        W93775  20.438  29.655  11.907
21351W        W93776  18.197  22.982   4.771
21352W        W93777   4.439  30.864  14.484
21353W        W93778  22.474   9.305  11.583
21354W        W93779  11.363  24.196   4.669
21355W        W93780  31.038  40.093  14.830
21356W        W93781  11.745  29.167  12.670
21357W        W93782  29.850  26.092  14.828
21358W        W93783  21.669   2.874  14.534
21359W        W93784   2.586  18.079  11.591
21360W        W93785  18.271  23.163   1.315
21361W        W93786  19.584  15.331  11.575
21362W        W93787   9.118  17.230  13.825
21363W        W93788  12.621  32.377   3.712
21364W        W93789  30.058   1.068  11.356
21365W        W93790  30.593  28.034  11.587
21366W        W93791   6.848   1.762  10.741
21367W        W93792   4.755  43.775  12.602
21368W        W93793   6.355  37.164  13.305
21369W        W93794   6.830   0.451   1.097
21370W        W93795  39.610  16.657  13.993
21371W        W93796  22.636  25.500   0.420
21372W        W93797  24.609   2.021   4.241
21373W        W93798  32.111  24.951   2.416
21374W        W93799   7.656  10.061  11.996
21375W        W93800  21.339  31.719   2.421
21376W        W93801  26.382  24.449   2.295
21377W        W93802  44.805  16.431  13.909
21378W        W93803  11.391   3.958   4.875
21379W        W93804   6.371  42.978  12.872
21380W        W93805  15.141  10.629  10.907
21381W        W93806  38.453   5.915  13.697
21382W        W93807  39.240  15.389  11.969
21383W        W93808  27.187  32.414  14.167
21384W        W93809  12.620   5.652   4.165
21385W        W93810  19.618  37.464   4.111
21386W        W93811  22.454  13.163   2.168
21387W        W93812   6.655  19.761  13.008
21388W        W93813   7.275  35.415   3.774
21389W        W93814  23.647   1.961   2.717
21390W        W93815   7.330  18.349   4.147
21391W        W93816  38.311  30.951   3.992
21392W        W93817  32.493  43.288  12.327
21393W        W93818  44.349  44.666   3.210
21394W        W93819   6.836  43.308   1.549
21395W        W93820   5.935  14.289   1.147
21396W        W93821   7.821   7.442   2.758
21397W        W93822  23.203  15.161  13.907
21398W        W93823  37.623  14.046  13.961
21399W        W93824  13.225   1.076  12.063
21400W        W93825   9.386  33.939   1.712
21401W        W93826  16.017  33.016   3.760
21402W        W93827  30.593  40.400   1.304
21403W        W93828  15.790  43.585   2.661
21404W        W93829  39.769   5.685  14.890
21405W        W93830  40.489  10.507   1.685
21406W        W93831  13.185  27.475   4.895
21407W        W93832  40.159  13.121  13.958
21408W        W93833  20.041  29.622  11.586
21409W        W93834  41.267  39.879   3.280
21410W        W93835  17.359  22.096  11.930
21411W        W93836   9.119  22.477   2.862
21412W        W93837  32.342  37.276  13.851
21413W        W93838  11.139  37.441   0.212
21414W        W93839   8.253  23.414  12.366
21415W        W93840   0.490  18.044  13.993
21416W        W93841   8.784  43.202   1.345
21417W        W93842  27.567  36.891  10.932
21418W        W93843  39.916  33.883   2.260
21419W        W93844   3.625  36.971  10.212
21420W        W93845  31.957  19.982  12.895
21421W        W93846  23.820  16.773  12.818
21422W        W93847  25.629   1.510  12.851
21423W        W93848   0.355   5.283   2.869
21424W        W93849   3.258  26.626  14.074
21425W        W93850  12.548  24.958   0.456
21426W        W93851   0.507  14.777  14.547
21427W        W93852   1.293  21.584   4.695
21428W        W93853  15.837  10.704   2.201
21429W        W93854  19.138  33.810  11.461
21430W        W93855   0.832  13.297  13.922
21431W        W93856  12.245  28.214  10.744
21432W        W93857  32.664  13.387   2.732
21433W        W93858   2.379   8.395   0.684
21434W        W93859  43.939  15.622   3.772
21435W        W93860  33.395  32.148   2.754
21436W        W93861  28.389  44.435   0.309
21437W        W93862  20.700  24.450   0.737
21438W        W93863  26.680   8.604   0.085
21439W        W93864  14.354  26.518   4.225
21440W        W93865  36.422  25.065   1.620
21441W        W93866  15.354  11.205  13.374
21442W        W93867  21.698   4.964   2.693
21443W        W93868  42.967  44.007  11.209
21444W        W93869  25.377   8.147   4.325
21445W        W93870  10.568  31.579   2.346
21446W        W93871  34.064   6.008   0.448
21447W        W93872  33.842   3.892   3.391
21448W        W93873  25.026   5.393  13.789
21449W        W93874  42.834  25.125  12.041
21450W        W93875  41.751  44.842   5.067
21451W        W93876  30.708   6.320  12.681
21452W        W93877  21.050  33.275  14.486
21453W        W93878  15.014   9.831  14.867
21454W        W93879  44.875  25.296   0.427
21455W        W93880  26.661  17.079  13.731
21456W        W93881  27.657  14.245   3.562
21457W        W93882  42.041   4.105   3.157
21458W        W93883  13.378  28.292   3.825
21459W        W93884  24.306  42.139  14.730
21460W        W93885  26.058  29.612   0.098
21461W        W93886  30.116   4.942   0.813
21462W        W93887  40.193   3.215  12.461
21463W        W93888   0.678  21.092   1.746
21464W        W93889  16.833   6.657   3.719
21465W        W93890   9.893  35.140  13.522
21466W        W93891  36.674  26.470   4.046
21467W        W93892  22.737   0.193   3.783
21468W        W93893  38.871   3.117   1.368
21469W        W93894  16.577  32.397   2.148
21470W        W93895  25.506  26.652  13.299
21471W        W93896   0.497  16.299   4.244
21472W        W93897  22.065  18.013   0.020
21473W        W93898  34.610  36.913  11.511
21474W        W93899  25.653  33.916   0.870
21475W        W93900  26.521  41.941   0.133
21476W        W93901  37.308  29.638   0.953
21477W        W93902  32.086  37.401   4.608
21478W        W93903   8.473   4.651   0.558
21479W        W93904   6.424  36.415  12.882
21480W        W93905  39.462  20.765  11.144
21481W        W93906  13.626  27.968  11.366
21482W        W93907  35.849  38.970   0.691
21483W        W93908  28.427  22.738  13.018
21484W        W93909  12.166  11.202   2.103
21485W        W93910  31.474  42.978  11.082
21486W        W93911  10.788  12.604   2.206
21487W        W93912  17.433  36.649   3.619
21488W        W93913  29.171  18.576  13.899
21489W        W93914  39.001  31.551   2.198
21490W        W93915  22.479  29.649  12.002
21491W        W93916   9.739  30.195  12.892
21492W        W93917  19.839  15.201   0.449
21493W        W93918  14.069  38.341  10.823
21494W        W93919  25.733  37.067  11.117
21495W        W93920  43.045  20.995  13.201
21496W        W93921  16.834  40.385   2.243
21497W        W93922  31.613   6.761   1.608
21498W        W93923  25.284  23.068  12.502
21499W        W93924   1.380  35.970   2.612
21500W        W93925  33.043  29.227   3.259
21501W        W93926  34.671  11.128   4.060
21502W        W93927  35.747  34.958  13.566
21503W        W93928  39.364  28.354   3.828
21504W        W93929  27.998   5.341   2.465
21505W        W93930   6.200  16.473  10.236
21506W        W93931  16.867  23.659   1.849
21507W        W93932  27.144  38.581   0.741
21508W        W93933  14.371  23.777  13.554
21509W        W93934  35.423  36.444  14.872
21510W        W93935   5.461   4.822   3.278
21511W        W93936  31.160  24.540  14.959
21512W        W93937   3.384   0.643  10.543
21513W        W93938  19.700   2.825   1.631
21514W        W93939  16.750  30.567   9.956
21515W        W93940   8.284  24.953  12.601
21516W        W93941  27.140  24.528  10.759
21517W        W93942  10.693  40.462   1.287
21518W        W93943  23.601  27.988   3.750
21519W        W93944  22.736  36.324  11.942
21520W        W93945  29.318  16.175   2.938
21521W        W93946  13.185  33.416   1.352
21522W        W93947  42.393  34.850   1.203
21523W        W93948  13.873  37.376   0.841
21524W        W93949  23.440  44.743   4.769
21525W        W93950   9.642  16.832  12.843
21526W        W93951  19.570   4.778   0.265
21527W        W93952  39.392  40.970  11.447
21528W        W93953  18.466   4.842  10.735
21529W        W93954  23.848  42.469  10.677
21530W        W93955  42.278   2.468  12.090
21531W        W93956  25.479  22.030   3.202
21532W        W93957  37.860  43.526   0.692
21533W        W93958   2.496  12.212  12.050
21534W        W93959  25.160   6.860  12.518
21535W        W93960  43.783  26.735   0.808
21536W        W93961  24.784  43.071   1.732
21537W        W93962  10.192   2.495   0.534
21538W        W93963   2.308  21.329  10.703
21539W        W93964   1.708  28.985   0.309
21540W        W93965   9.241  27.995   1.957
21541W        W93966  30.222  14.599  14.845
21542W        W93967  15.632  22.524  10.845
21543W        W93968  28.799  13.544  11.735
21544W        W93969  26.487   5.658   3.440
21545W        W93970  15.530  19.808   2.500
21546W        W93971  41.271   9.623  12.379
21547W        W93972  23.332  44.028  14.017
21548W        W93973  36.964  19.385   1.315
21549W        W93974  22.837  33.961   1.110
21550W        W93975  10.528   8.253   4.175
21551W        W93976  34.670   4.866   3.713
21552W        W93977  10.239  44.024   3.721
21553W        W93978  28.201  18.153   1.869
21554W        W93979  28.591  44.291  11.463
21555W        W93980  19.099  20.541  12.945
21556W        W93981  15.087  17.231   0.428
21557W        W93982  12.917  39.009   2.565
21558W        W93983  26.629  44.740   3.493
21559W        W93984  33.698  16.561  12.995
21560W        W93985  38.960  10.279  12.402
21561W        W93986  15.734  27.505   4.495
21562W        W93987  36.813  29.478   4.645
21563W        W93988  42.275  14.592   3.239
21564W        W93989   0.518  29.572  11.989
21565W        W93990  24.026  27.223  11.548
21566W        W93991  24.611  18.075  12.529
21567W        W93992  27.676  27.213  13.513
21568W        W93993  24.831  16.203   0.780
21569W        W93994  33.841  32.398   2.790
21570W        W93995  24.523  18.022  14.466
21571W        W93996   0.725  42.938  13.547
21572W        W93997  23.762  36.106  11.090
21573W        W93998   2.353  41.571   2.306
21574W        W93999  41.019  14.600   0.227
21575W        W94000  21.197  30.890   2.835
21576W        W94001  21.144  25.852  14.834
21577W        W94002  23.377  25.782  12.073
21578W        W94003  14.312  27.769  12.468
21579W        W94004  13.175  12.277   2.317
21580W        W94005  27.120  43.541   2.360
21581W        W94006  35.092  31.342  12.343
21582W        W94007  28.639  35.328   0.230
21583W        W94008  29.951  15.301   2.765
21584W        W94009  23.711  14.845   3.093
21585W        W94010   7.477  26.976   2.241
21586W        W94011   4.399  38.926  13.457
21587W        W94012  20.517   9.757  13.812
21588W        W94013  32.988  21.244   1.478
21589W        W94014  26.650  22.636  13.294
21590W        W94015  22.073  33.986   4.846
21591W        W94016   8.288  28.088   1.597
21592W        W94017  37.852  39.113   1.789
21593W        W94018  43.506  22.080   2.548
21594W        W94019   1.222   6.359   0.241
21595W        W94020   2.469   6.646  10.702
21596W        W94021  11.840  44.530   2.363
21597W        W94022  13.699  15.912   2.863
21598W        W94023  43.164   7.694  13.886
21599W        W94024  13.327  40.952   1.154
21600W        W94025  10.583  12.839   1.206
21601W        W94026  23.258  27.611   1.951
21602W        W94027   2.694  15.628   1.803
21603W        W94028   4.668  36.010  12.012
21604W        W94029  26.632  18.598   2.434
21605W        W94030  27.362  25.415   1.328
21606W        W94031   9.691  30.226   3.708
21607W        W94032  33.449  27.163  11.891
21608W        W94033  43.029   6.367  14.026
21609W        W94034  33.535  38.569  13.433
21610W        W94035   4.789   3.196  13.807
21611W        W94036  35.385  41.796   4.922
21612W        W94037  34.074  25.023  10.919
21613W        W94038  44.052  19.824  11.216
21614W        W94039   3.290  42.995  11.360
21615W        W94040  19.638  40.551   1.595
21616W        W94041  13.755  44.901   2.852
21617W        W94042  34.349  17.790   3.364
21618W        W94043  17.882  42.826  10.912
21619W        W94044   8.603   4.366  13.420
21620W        W94045  42.678   4.595  11.979
21621W        W94046   4.319  26.413  13.540
21622W        W94047  11.568  31.464  11.180
21623W        W94048  30.421  33.794   3.677
21624W        W94049  19.330   7.943  12.031
21625W        W94050  41.434  31.676   1.966
21626W        W94051  26.746  39.194   1.509
21627W        W94052  38.567   4.432   0.326
21628W        W94053  24.273  35.302  11.166
21629W        W94054   8.754  12.732   1.197
21630W        W94055  21.696  18.735   0.994
21631W        W94056  13.064  33.329  13.767
21632W        W94057  32.664  12.340  11.221
21633W        W94058  32.104  34.837  13.641
21634W        W94059  21.816  22.185   3.680
21635W        W94060  20.085  28.441  10.669
21636W        W94061  20.294   1.860   2.836
21637W        W94062   8.362   9.402  12.495
21638W        W94063   2.730  19.214   4.595
21639W        W94064  16.198  42.993   3.269
21640W        W94065   8.628  10.854   0.463
21641W        W94066  19.906  12.857  11.888
21642W        W94067  26.682  39.292   4.295
21643W        W94068  15.173  22.299   2.922
21644W        W94069  29.886  23.212   0.853
21645W        W94070  35.993  17.561  13.912
21646W        W94071  30.563  43.017   4.976
21647W        W94072  12.498  41.469   4.824
21648W        W94073   1.945  43.405  13.979
21649W        W94074  22.139  36.004  12.014
21650W        W94075  31.179  33.519   3.204
21651W        W94076  11.137  37.916  10.725
21652W        W94077  27.682  26.957   0.778
21653W        W94078  12.637   4.343  13.498
21654W        W94079  39.602  12.123  10.724
21655W        W94080  17.933   2.313  10.541
21656W        W94081   2.220  38.945   0.256
21657W        W94082  10.813   7.729   1.423
21658W        W94083  43.434   0.525   1.252
21659W        W94084  12.061   8.927  13.536
21660W        W94085  18.338   2.094   9.623
21661W        W94086  27.138  11.296   2.349
21662W        W94087   6.932  38.832  14.250
21663W        W94088  21.483   1.860  13.053
21664W        W94089  10.661   3.248   0.030
21665W        W94090  12.208  11.681  14.918
21666W        W94091  13.677  40.835  10.592
21667W        W94092  24.067  40.872  14.275
21668W        W94093  13.236  15.535  14.022
21669W        W94094   8.441  20.126   0.842
21670W        W94095  29.814  27.548   0.258
21671W        W94096  40.545  23.638   1.129
21672W        W94097   1.351   0.734   1.325
21673W        W94098  18.268  39.778   1.221
21674W        W94099  22.799  24.662   2.789
21675W        W94100   7.655  34.103  12.053
21676W        W94101  37.049  26.461  12.557
21677W        W94102  26.142  37.915   3.333
21678W        W94103  44.938   2.736   1.944
21679W        W94104  33.304   5.271   3.610
21680W        W94105  32.289  27.107   2.978
21681W        W94106  15.139  11.488   3.635
21682W        W94107  23.613   8.827  13.539
21683W        W94108  21.108  18.825  12.187
21684W        W94109  40.158  27.178  13.043
21685W        W94110  44.057  34.048  10.594
21686W        W94111   4.954  43.028   2.664
21687W        W94112   7.947  35.721   1.100
21688W        W94113  44.692   4.164  14.613
21689W        W94114  21.620  24.162   4.076
21690W        W94115   1.338  30.178   1.804
21691W        W94116  43.104   5.475  10.627
21692W        W94117   8.872   2.935  12.047
21693W        W94118  16.310  28.589  13.993
21694W        W94119  43.572  19.087   3.115
21695W        W94120   0.027  20.473  14.889
21696W        W94121  33.386  39.074  11.202
21697W        W94122  38.868  41.212   4.506
21698W        W94123  20.683  41.181  12.441
21699W        W94124  39.020  32.278   5.391
21700W        W94125  36.377   5.377   1.966
21701W        W94126  24.669  22.750   2.322
21702W        W94127  27.649   3.742  11.359
21703W        W94128  34.570   4.387   3.894
21704W        W94129  15.309   3.422   4.093
21705W        W94130   7.264   8.241   3.763
21706W        W94131  36.996  24.187   0.878
21707W        W94132  24.718  41.947  14.451
21708W        W94133   7.474  37.897  11.993
21709W        W94134   6.110  25.061  13.543
21710W        W94135  25.311  43.794   2.260
21711W        W94136  33.648  42.012  10.241
21712W        W94137  36.131  36.923  11.505
21713W        W94138  11.661  37.646  13.794
21714W        W94139  32.877   8.316   0.796
21715W        W94140  42.260  13.594   4.174
21716W        W94141  10.718   5.302   0.466
21717W        W94142  26.453  17.340   1.293
21718W        W94143  40.806  29.930  12.927
21719W        W94144  43.234   5.736  12.932
21720W        W94145  23.407   8.310  14.842
21721W        W94146  31.894  17.893  10.296
21722W        W94147  33.927  19.804  12.975
21723W        W94148  36.383   6.815   0.099
21724W        W94149  30.440  27.611  10.668
21725W        W94150  21.323   7.749  14.559
21726W        W94151  22.060   2.371  12.205
21727W        W94152  13.852   4.836  14.379
21728W        W94153  29.470  28.687  14.746
21729W        W94154  35.355  23.158  13.051
21730W        W94155  33.457  19.872   3.239
21731W        W94156  28.616  40.814  11.417
21732W        W94157  13.433  22.846   4.132
21733W        W94158  30.086  14.294  10.739
21734W        W94159  28.230  42.762  11.138
21735W        W94160  35.898  35.866  14.979
21736W        W94161  29.600  40.750   2.807
21737W        W94162  37.052  19.534  13.403
21738W        W94163  33.078  22.035   4.958
21739W        W94164  27.834  30.538   4.215
21740W        W94165  16.885  16.550   4.486
21741W        W94166  29.704  26.919   2.225
21742W        W94167  19.793   9.269   4.473
21743W        W94168   7.235  32.451   2.757
21744W        W94169  13.060  11.701   2.680
21745W        W94170  24.663   5.937   3.505
21746W        W94171  24.700  20.033  13.331
21747W        W94172  26.023  39.340  10.575
21748W        W94173  40.032  43.347   1.932
21749W        W94174  10.400   9.396  12.386
21750W        W94175  11.134   5.012  11.525
21751W        W94176  35.840  29.705  11.191
21752W        W94177  31.097  40.207  13.009
21753W        W94178  19.668  44.316  12.517
21754W        W94179  36.006   5.358   1.035
21755W        W94180  11.850  24.973  10.200
21756W        W94181   2.485   4.089  14.084
21757W        W94182  38.112   8.675  12.775
21758W        W94183   5.061  19.633   1.878
21759W        W94184  34.356   4.946   2.154
21760W        W94185  24.083  25.193  14.421
21761W        W94186  31.389  25.988  14.838
21762W        W94187  42.227   2.868   3.349
21763W        W94188  33.075  34.998   3.928
21764W        W94189  13.546  29.935  11.119
21765W        W94190  30.072  36.259  11.132
21766W        W94191   2.903  41.772   4.426
21767W        W94192  27.950  19.045   4.140
21768W        W94193   7.813   6.927   2.796
21769W        W94194  42.333  22.975  11.433
21770W        W94195  35.431   7.339   4.219
21771W        W94196  43.375   7.173  10.365
21772W        W94197  33.164   7.142  14.687
21773W        W94198   2.383  40.681  13.466
21774W        W94199  14.399   2.755   0.526
21775W        W94200   1.537  20.116  14.956
21776W        W94201   5.198   7.230  13.306
21777W        W94202  29.100  19.079   2.005
21778W        W94203  38.444  23.116  14.221
21779W        W94204  35.577   6.725   2.925
21780W        W94205  41.559  31.541  11.467
21781W        W94206  26.202  29.205  11.123
21782W        W94207  17.500   3.750   2.250
21783W        W94208  32.482  38.298  14.025
21784W        W94209  30.615  11.382  10.958
21785W        W94210   7.948  44.227  13.528
21786W        W94211  34.075  35.541   4.793
21787W        W94212   5.716   9.631  11.991
21788W        W94213   1.960  42.830  10.462
21789W        W94214  13.580  18.385  11.035
21790W        W94215  28.457   0.895   3.978
21791W        W94216  31.431  15.201  11.870
21792W        W94217   1.591   3.697   1.005
21793W        W94218   3.917  37.719  14.212
21794W        W94219  16.566   7.701   3.860
21795W        W94220   2.542   8.266   0.205
21796W        W94221   2.346   6.632  13.898
21797W        W94222   3.691   8.856   2.942
21798W        W94223  28.420  32.150  10.715
21799W        W94224  40.738  39.352  14.972
21800W        W94225  28.232  43.931  11.863
21801W        W94226  44.693  30.083  11.012
21802W        W94227  20.779  15.263   2.484
21803W        W94228  42.981  15.648  10.431
21804W        W94229  34.615  44.923  12.592
21805W        W94230  10.279  24.211  13.100
21806W        W94231  13.457  42.409  12.306
21807W        W94232  17.198  17.576  13.854
21808W        W94233  13.592  43.908  10.727
21809W        W94234  44.524  12.267  10.393
21810W        W94235  19.758   5.053   2.833
21811W        W94236  28.376  13.106  13.030
21812W        W94237  21.043  13.810  14.794
21813W        W94238  35.312  43.247   4.581
21814W        W94239  13.192  24.459   2.818
21815W        W94240  29.854  40.021   1.669
21816W        W94241  41.964  17.633  14.712
21817W        W94242  12.635  10.881  10.412
21818W        W94243  37.652  35.047   4.115
21819W        W94244  12.942   2.165   1.340
21820W        W94245  26.419   7.768   0.512
21821W        W94246  31.881  38.992  10.145
21822W        W94247   8.688   3.844  13.467
21823W        W94248  44.508  26.773  13.498
21824W        W94249  26.961   5.388  12.524
21825W        W94250  36.053  28.490  10.550
21826W        W94251  25.221  13.164   0.220
21827W        W94252  26.061   7.445   3.299
21828W        W94253   1.035   1.937  12.896
21829W        W94254  25.233  12.389  14.819
21830W        W94255   0.250   3.858  14.910
21831W        W94256  17.847   1.544   3.622
21832W        W94257  18.178  29.510   2.267
21833W        W94258  38.401  42.865   1.742
21834W        W94259  43.521  25.586  11.511
21835W        W94260  38.876  21.528  11.148
21836W        W94261  17.880   8.397   1.791
21837W        W94262   0.004  13.578  13.355
21838W        W94263  14.407  43.266  14.346
21839W        W94264  31.051  30.332   3.312
21840W        W94265  29.708  28.000   4.049
21841W        W94266  28.923   4.663   2.562
21842W        W94267   0.021  41.775   4.539
21843W        W94268  10.600   4.153  11.548
21844W        W94269  11.348  36.575  14.930
21845W        W94270  32.480  12.564  13.437
21846W        W94271  32.892  23.029  12.184
21847W        W94272  24.821  43.649   3.643
21848W        W94273   0.941   1.692   3.235
21849W        W94274  13.811  41.060  14.769
21850W        W94275  26.186   7.152   3.778
21851W        W94276  12.870  30.375  14.779
21852W        W94277  42.252  21.980  12.866
21853W        W94278  22.829  14.302  10.313
21854W        W94279  35.385  11.189   3.558
21855W        W94280  10.331  17.765   4.047
21856W        W94281   7.159  25.450   1.169
21857W        W94282  10.274  22.041  11.677
21858W        W94283  18.162  27.720   0.508
21859W        W94284  15.072  11.896  12.681
21860W        W94285  31.608  39.237   1.764
21861W        W94286  23.409   8.716  14.365
21862W        W94287   4.650   5.645  14.275
21863W        W94288  44.073  16.339  12.860
21864W        W94289  19.700  13.259  13.913
21865W        W94290   8.166  36.092   2.585
21866W        W94291  18.434  20.004  12.738
21867W        W94292  43.908  16.019   4.107
21868W        W94293   8.654  12.516   1.703
21869W        W94294   1.853  14.128  13.744
21870W        W94295  42.013  31.842   2.208
21871W        W94296  33.464  18.605  13.908
21872W        W94297  30.294   2.909  13.813
21873W        W94298  21.708  32.356  14.382
21874W        W94299   4.318  40.947   1.155
21875W        W94300  23.001  23.194  13.431
21876W        W94301  29.062  36.514  12.057
21877W        W94302   4.203  14.636   0.710
21878W        W94303  34.735  13.605  12.197
21879W        W94304  20.842   5.538  12.022
21880W        W94305   5.759  41.495   0.216
21881W        W94306   3.044  26.208   1.011
21882W        W94307   9.206  41.876  12.014
21883W        W94308  31.633  38.570   3.752
21884W        W94309  44.475  28.869   3.765
21885W        W94310  21.661  28.538  11.315
21886W        W94311  37.969  22.682  10.290
21887W        W94312  20.709  44.610  11.772
21888W        W94313   1.163   8.672  10.522
21889W        W94314  28.682   8.917  12.087
21890W        W94315  17.068  12.372   2.251
21891W        W94316  14.512  24.113  12.396
21892W        W94317  14.225  39.968  13.105
21893W        W94318   4.805   5.846  11.608
21894W        W94319   2.610  17.307   4.170
21895W        W94320  41.966  31.908  13.895
21896W        W94321  39.504  35.828   2.342
21897W        W94322  12.013  42.004   3.254
21898W        W94323  30.593  30.905  10.497
21899W        W94324   3.954  26.758   4.536
21900W        W94325  12.124  24.117   9.685
21901W        W94326  23.635  10.705   1.947
21902W        W94327   0.122   1.460   3.468
21903W        W94328  14.385  17.091   4.006
21904W        W94329  31.675  41.811   4.516
21905W        W94330  10.605   4.338  14.294
21906W        W94331  16.099  40.764   3.608
21907W        W94332  15.769  38.327   4.110
21908W        W94333  12.655   5.888   4.640
21909W        W94334  14.848   7.468  10.853
21910W        W94335  13.065  17.036   3.808
21911W        W94336  44.655  39.227   5.204
21912W        W94337  15.487   5.289  13.853
21913W        W94338  29.039  40.430  12.018
21914W        W94339  36.798  35.562  13.144
21915W        W94340  34.361  43.183  11.562
21916W        W94341  21.679  23.471   2.845
21917W        W94342   1.234   9.401   3.828
21918W        W94343  41.997   3.801  12.311
21919W        W94344   1.081   9.198  13.519
21920W        W94345  27.450  34.762   1.266
21921W        W94346  31.684  17.863   5.010
21922W        W94347  10.746  10.852   1.365
21923W        W94348  17.525   3.131   4.872
21924W        W94349  42.740   1.413   3.947
21925W        W94350  20.702  23.433  11.498
21926W        W94351  29.462  15.007  12.937
21927W        W94352   4.511  19.310  12.289
21928W        W94353   3.833  14.199  12.419
21929W        W94354  29.944   1.541  10.488
21930W        W94355  27.949  32.928  12.971
21931W        W94356  39.840  27.033  12.628
21932W        W94357  14.757  39.763  13.071
21933W        W94358   5.228  44.997   0.335
21934W        W94359  27.810  10.259   4.213
21935W        W94360  12.325  20.123   1.192
21936W        W94361  17.238  43.173   3.345
21937W        W94362   1.382  37.598  13.806
21938W        W94363  31.006  40.035   0.800
21939W        W94364  28.637  27.327   4.095
21940W        W94365  21.612  28.639  14.936
21941W        W94366  41.732  24.437  10.663
21942W        W94367  19.461  16.212  14.863
21943W        W94368  18.256  42.497  12.517
21944W        W94369  17.218  22.672   0.280
21945W        W94370   8.688  21.112   0.893
21946W        W94371   9.472   1.309  14.461
21947W        W94372  14.030  21.540  10.687
21948W        W94373   3.919  22.247  10.711
21949W        W94374  14.732  38.686  14.266
21950W        W94375  39.557  17.724   3.620
21951W        W94376   6.684  16.771  10.742
21952W        W94377   7.702  29.705  14.213
21953W        W94378  20.036  44.933  13.951
21954W        W94379  42.612  32.000   2.249
21955W        W94380  30.588  38.449   0.411
21956W        W94381  35.804  14.895   0.377
21957W        W94382  34.369  38.911  12.948
21958W        W94383  22.477  38.999  13.799
21959W        W94384  42.678  23.065  12.662
21960W        W94385  37.643  10.932   2.145
21961W        W94386  31.283  24.939  12.013
21962W        W94387   0.044   6.786   0.211
21963W        W94388  12.148  20.142  13.307
21964W        W94389  38.606  39.459   3.737
21965W        W94390  14.253   3.724   0.471
21966W        W94391   0.826   9.151  12.664
21967W        W94392  16.600   6.032  10.618
21968W        W94393  38.369  43.456   4.141
21969W        W94394  10.273  17.149   5.125
21970W        W94395  34.555  24.089  13.857
21971W        W94396  35.902  22.687   2.828
21972W        W94397  26.091   7.713   4.633
21973W        W94398  30.567  44.415   3.686
21974W        W94399   3.744   0.350   0.449
21975W        W94400  26.802  39.633  13.991
21976W        W94401   3.542   0.325   4.699
21977W        W94402  32.569  16.623   0.200
21978W        W94403   5.109   2.175   2.316
21979W        W94404  38.636  24.472  10.763
21980W        W94405   7.280  34.338   0.268
21981W        W94406  13.258  17.973   0.969
21982W        W94407  24.752   4.542   1.732
21983W        W94408  29.580  37.065  11.123
21984W        W94409  16.654  18.407   0.422
21985W        W94410  41.091  38.436  12.532
21986W        W94411  33.145  28.512  12.029
21987W        W94412   0.299   4.882  14.717
21988W        W94413  16.531  33.439  12.900
21989W        W94414   0.970  25.224  13.871
21990W        W94415   9.182  35.784  14.972
21991W        W94416   8.403  44.113   2.110
21992W        W94417  15.952  30.863   1.231
21993W        W94418  16.459  32.217  12.053
21994W        W94419  16.408   0.255   1.261
21995W        W94420  36.942   5.076   2.803
21996W        W94421   8.646  26.188  11.785
21997W        W94422   5.274  20.580   4.517
21998W        W94423  11.691   3.760   4.515
21999W        W94424  26.452   2.948  12.934
22000W        W94425  34.902   6.746   3.616
22001W        W94426   6.509   4.032   1.881
22002W        W94427  43.885  23.738   4.131
22003W        W94428  32.224   5.354   2.229
22004W        W94429  43.601  25.016   3.245
22005W        W94430  21.985  17.658   4.526
22006W        W94431  30.028  30.223  12.030
22007W        W94432   6.282  20.053  14.863
22008W        W94433  40.049   2.427  13.752
22009W        W94434   9.104   5.895  13.874
22010W        W94435   1.874  11.326   4.690
22011W        W94436   0.851  39.945  14.829
22012W        W94437  30.927  19.510   2.570
22013W        W94438  31.901  37.769  12.609
22014W        W94439  27.550  29.969   4.225
22015W        W94440  27.742   6.617  13.925
22016W        W94441  24.132  33.128   0.783
22017W        W94442  25.056   7.325  13.870
22018W        W94443  37.560   2.267  11.649
22019W        W94444  37.375  40.460   4.127
22020W        W94445  30.235  13.862   2.230
22021W        W94446  19.020   0.972  13.087
22022W        W94447   5.321   2.566   3.263
22023W        W94448   7.853   9.178   1.297
22024W        W94449  30.483   2.459   2.027
22025W        W94450  27.202   3.464  12.794
22026W        W94451  24.062  23.632   4.607
22027W        W94452  32.172   2.290  12.917
22028W        W94453  41.585  28.084  10.799
22029W        W94454   3.179  27.043   1.347
22030W        W94455  27.021  34.894  14.093
22031W        W94456   2.580  12.257   0.392
22032W        W94457  22.843  16.291  11.969
22033W        W94458  39.782  22.737   0.382
22034W        W94459   4.203   1.794   4.572
22035W        W94460  24.992   3.125  13.191
22036W        W94461   5.910  37.728  10.791
22037W        W94462  19.723   5.713  13.128
22038W        W94463  37.861   2.963   0.815
22039W        W94464  23.617   6.354   0.312
22040W        W94465   8.416  32.388   1.722
22041W        W94466  24.997  36.942   4.696
22042W        W94467   9.296  26.928   1.683
22043W        W94468  18.033   5.663   1.795
22044W        W94469  44.598  35.560  11.022
22045W        W94470   7.311  24.622  10.678
22046W        W94471   8.796  38.633   1.346
22047W        W94472  37.381  18.678  14.338
22048W        W94473  23.526  41.648   0.797
22049W        W94474  22.138   3.026   2.778
22050W        W94475  13.168  44.062  14.444
22051W        W94476  22.011   9.231  10.739
22052W        W94477  26.039  39.458  12.942
22053W        W94478  41.074   8.722   2.776
22054W        W94479  43.270   5.950   0.922
22055W        W94480  25.592  22.282   4.067
22056W        W94481  27.154  37.029  14.437
22057W        W94482  33.914  24.164   0.122
22058W        W94483  24.451   3.805   4.448
22059W        W94484  25.686   0.338   0.395
22060W        W94485  29.533  36.388   4.461
22061W        W94486  26.951  43.877  10.386
22062W        W94487  40.894  31.153  13.337
22063W        W94488   0.422  25.377  11.729
22064W        W94489  23.174  24.843   1.020
22065W        W94490  35.396  24.592   3.246
22066W        W94491  13.585  41.938  11.459
22067W        W94492  28.004  15.124  12.403
22068W        W94493   5.653  15.473   4.656
22069W        W94494  15.230  32.967  10.943
22070W        W94495  25.203  37.968   1.371
22071W        W94496   3.368  12.775  10.740
22072W        W94497  20.039   3.260   2.825
22073W        W94498  34.597   8.330   0.437
22074W        W94499  11.711  24.033   0.518
22075W        W94500  12.727  32.048   3.239
22076W        W94501  31.098  16.807   4.956
22077W        W94502  42.423  34.016   2.138
22078W        W94503  12.051  21.084   1.371
22079W        W94504  10.639  29.446   0.636
22080W        W94505   5.399  37.934   4.838
22081W        W94506   0.868  16.099   1.435
22082W        W94507  13.903  34.824   0.046
22083W        W94508  26.958  38.576   0.239
22084W        W94509   7.467   9.060   0.416
22085W        W94510  13.953  35.171  12.980
22086W        W94511   5.452   8.341  12.975
22087W        W94512  12.694   4.710   1.716
22088W        W94513  23.349  39.071  13.395
22089W        W94514  11.223  40.838  12.414
22090W        W94515  31.572  32.888  12.378
22091W        W94516  32.948   0.439  14.544
22092W        W94517  38.960   8.204  13.827
22093W        W94518  12.203  36.575   3.654
22094W        W94519  39.445  24.507  14.957
22095W        W94520  15.197  18.964   3.799
22096W        W94521  40.000   0.536   5.116
22097W        W94522  43.406  28.562   4.478
22098W        W94523  30.450  19.401   0.964
22099W        W94524  22.503  27.519   3.357
22100W        W94525   0.384  37.579   4.894
22101W        W94526  34.351  44.399  12.559
22102W        W94527  32.105  26.363  13.953
22103W        W94528  11.688  39.873  12.131
22104W        W94529  33.439   6.929  11.968
22105W        W94530  17.427  37.059   4.117
22106W        W94531   5.958  34.082   4.660
22107W        W94532   9.238   2.516   4.090
22108W        W94533  23.674   1.919   2.201
22109W        W94534   8.981  29.402  13.908
22110W        W94535  43.814  17.635  13.320
22111W        W94536  28.190   8.807   1.584
22112W        W94537  21.563  44.444   1.316
22113W        W94538  19.045  16.564  13.065
22114W        W94539  17.775  23.502  14.595
22115W        W94540  26.115   0.769  12.834
22116W        W94541  39.463  32.943   0.916
22117W        W94542  39.874  24.654  12.400
22118W        W94543  24.554   6.420   3.714
22119W        W94544  42.030  18.852  12.184
22120W        W94545  26.699  23.517   2.745
22121W        W94546  40.563  39.475  11.903
22122W        W94547  14.564  20.350   2.729
22123W        W94548  22.712  16.478   1.893
22124W        W94549  41.454  16.051  12.090
22125W        W94550  22.503  32.553  13.921
22126W        W94551  23.037  42.732  11.907
22127W        W94552  29.555   2.633   1.204
22128W        W94553  19.281  36.914   4.734
22129W        W94554   7.189  38.044   4.369
22130W        W94555  14.328  26.800  11.113
22131W        W94556   3.645  14.319  13.345
22132W        W94557  20.069   5.451   0.345
22133W        W94558   5.733   9.678  13.836
22134W        W94559   1.787  33.036  14.840
22135W        W94560   9.300  41.615  14.975
22136W        W94561   7.673   9.424   0.725
22137W        W94562  20.451  33.443  13.105
22138W        W94563   1.847   9.392   2.753
22139W        W94564   5.411  14.935  14.154
22140W        W94565  32.978  23.204   0.357
22141W        W94566  30.238  34.962   4.191
22142W        W94567  34.461  17.303   4.631
22143W        W94568   8.872  22.007   2.728
22144W        W94569  16.593  19.622   0.690
22145W        W94570  20.472   4.730  11.546
22146W        W94571  13.387  14.159  11.603
22147W        W94572  43.698   7.823  10.537
22148W        W94573  37.407  39.246  13.891
22149W        W94574  16.972  15.761  12.887
22150W        W94575  40.275  15.850  13.840
22151W        W94576  15.880   5.777  12.172
22152W        W94577  20.011   7.656  14.543
22153W        W94578  21.761  21.183   0.411
22154W        W94579  38.992   0.235  10.639
22155W        W94580  43.236  13.530   0.589
22156W        W94581  13.258   5.931   4.849
22157W        W94582  36.950  36.772  13.982
22158W        W94583   1.453   8.372  14.017
22159W        W94584  43.994  22.755  11.493
22160W        W94585  12.874  21.351  12.474
22161W        W94586  42.480  18.196   0.377
22162W        W94587   6.782  35.987  14.856
22163W        W94588   1.238  26.125   3.660
22164W        W94589  23.575  14.276   0.764
22165W        W94590  22.212   8.043  14.592
22166W        W94591  37.408   0.236   3.640
22167W        W94592   3.255  15.626  10.668
22168W        W94593  33.587   6.902  13.934
22169W        W94594  39.363   0.463  11.105
22170W        W94595  33.444  40.418   2.442
22171W        W94596  17.200  27.366   0.795
22172W        W94597  26.501  30.238  13.846
22173W        W94598  44.732   5.125  13.855
22174W        W94599  35.065   7.667   1.768
22175W        W94600  23.198  35.649  10.770
22176W        W94601  21.106  31.706   1.954
22177W        W94602  38.784  32.120  14.032
22178W        W94603  32.871   9.204   0.898
22179W        W94604  39.847  40.286  12.974
22180W        W94605  11.124  25.916  11.390
22181W        W94606  16.853  18.765  11.099
22182W        W94607  22.876  27.915  13.623
22183W        W94608   4.819  12.388  13.226
22184W        W94609  11.692  19.353  11.230
22185W        W94610  13.697  33.986  13.935
22186W        W94611  29.524   4.661   2.816
22187W        W94612  11.143  15.192  13.603
22188W        W94613  33.089  19.041   5.369
22189W        W94614  22.825  27.728   1.528
22190W        W94615  22.042  31.140  13.976
22191W        W94616  37.045  43.108   0.857
22192W        W94617  20.564  35.174  12.398
22193W        W94618  41.935  30.362  12.947
22194W        W94619  40.871  27.520   4.526
22195W        W94620  10.440  43.185  13.398
22196W        W94621  35.837   1.695   4.064
22197W        W94622  17.147  29.579   0.770
22198W        W94623   4.401  43.024   1.967
22199W        W94624  26.963  25.431  11.149
22200W        W94625  37.026  38.913   2.544
22201W        W94626   0.395   5.409  14.987
22202W        W94627  10.143  22.490   2.611
22203W        W94628  13.076  35.355   1.160
22204W        W94629   3.635   8.828   4.777
22205W        W94630  33.978   9.144   0.382
22206W        W94631   4.292  23.761   0.236
22207W        W94632  44.328  16.425  11.669
22208W        W94633  14.676   8.895  14.947
22209W        W94634  33.043  42.469  12.540
22210W        W94635  22.434  35.321   2.271
22211W        W94636  36.801  43.379  14.114
22212W        W94637  15.808  35.942   2.699
22213W        W94638  36.134  35.929   4.449
22214W        W94639  12.210  13.221   2.904
22215W        W94640  15.733   3.852   3.411
22216W        W94641  11.322  40.745  11.916
22217W        W94642  14.756  26.410  11.922
22218W        W94643  23.597  30.671  12.380
22219W        W94644   9.149  35.838   3.680
22220W        W94645  14.840   7.622   4.253
22221W        W94646   7.342  11.253   0.266
22222W        W94647  36.563   1.017   4.770
22223W        W94648   7.758  30.405   2.308
22224W        W94649  43.155  16.869  13.063
22225W        W94650  21.621  29.226   0.428
22226W        W94651  42.655  15.678  11.577
22227W        W94652  43.449  40.785  10.089
22228W        W94653  24.018  37.889  14.414
22229W        W94654  24.983  12.206  12.478
22230W        W94655  32.916  20.802   3.260
22231W        W94656  34.891   9.235   1.954
22232W        W94657   4.337  34.002  11.618
22233W        W94658  21.190  14.068   2.351
22234W        W94659  14.776  19.681  14.323
22235W        W94660  12.870  29.858   3.911
22236W        W94661  44.579  22.677  14.008
22237W        W94662   7.274  26.097   2.164
22238W        W94663   5.268  32.119   4.340
22239W        W94664   2.251  10.380  13.985
22240W        W94665  19.653  10.981   1.278
22241W        W94666  15.164  43.493  12.492
22242W        W94667  41.986  24.571   2.197
22243W        W94668  10.393   8.242   5.069
22244W        W94669  36.492  29.054   0.904
22245W        W94670  10.623  24.580  13.627
22246W        W94671   8.918  37.872   4.257
22247W        W94672  32.149  39.794  11.366
22248W        W94673  35.585  44.817   2.622
22249W        W94674  22.110   0.247   4.166
22250W        W94675  18.554  23.191   1.740
22251W        W94676  40.554  27.111  13.873
22252W        W94677  34.131  29.223   4.210
22253W        W94678  22.542  24.069   1.890
22254W        W94679  39.029  13.389   3.225
22255W        W94680   3.201  18.379   3.542
22256W        W94681   6.949  39.306  12.119
22257W        W94682  10.062  22.704  13.481
22258W        W94683  28.523  43.712   1.333
22259W        W94684  30.598  38.839  14.998
22260W        W94685  21.172  15.452  14.870
22261W        W94686  18.668  24.524   1.280
22262W        W94687  14.930   3.187  13.487
22263W        W94688  44.871   5.133   3.825
22264W        W94689  35.017   9.186  11.141
22265W        W94690   7.745  20.225  13.343
22266W        W94691   3.448  38.486  10.465
22267W        W94692  19.715   5.197  13.036
22268W        W94693  20.676  17.033   4.548
22269W        W94694   8.891  24.616  14.456
22270W        W94695  29.027  17.154  13.986
22271W        W94696  22.288  32.501   4.550
22272W        W94697  25.870  21.070  12.481
22273W        W94698  44.486  29.178  11.738
22274W        W94699  31.207  41.920  14.528
22275W        W94700  39.219  27.126  11.134
22276W        W94701   1.053  28.162  11.586
22277W        W94702  18.312   1.231   0.975
22278W        W94703  26.650  33.464  13.599
22279W        W94704  40.548   0.191   3.006
22280W        W94705  23.427  26.186  13.585
22281W        W94706  41.831  20.524   1.296
22282W        W94707  20.214  37.393  13.339
22283W        W94708  42.946  19.631  13.592
22284W        W94709  33.080  11.831   3.823
22285W        W94710  43.814   9.783  11.967
22286W        W94711  42.300  28.221  14.363
22287W        W94712  16.655  30.962  14.925
22288W        W94713  43.812  32.026   3.888
22289W        W94714   5.785  22.695   1.595
22290W        W94715  23.044  19.612  12.981
22291W        W94716  42.064   3.222  11.183
22292W        W94717  34.711  40.147  11.101
22293W        W94718  40.322  14.283  12.182
22294W        W94719  28.139   4.190   3.947
22295W        W94720  32.452  12.892  12.089
22296W        W94721  13.723  41.103  11.048
22297W        W94722  33.002  11.851   0.427
22298W        W94723  34.353  17.012   1.021
22299W        W94724   4.856  38.414  11.857
22300W        W94725   7.729   6.772   0.897
22301W        W94726  11.397  33.958   3.779
22302W        W94727   9.337  16.033  13.931
22303W        W94728  15.137   0.487   4.224
22304W        W94729  26.124  20.140   4.292
22305W        W94730  43.958  11.591   2.665
22306W        W94731  16.751  23.053  13.989
22307W        W94732  32.423   9.704  10.656
22308W        W94733  20.968  25.710   1.916
22309W        W94734  44.327  40.736  13.343
22310W        W94735  10.305  38.352   3.344
22311W        W94736  43.508   3.256  10.158
22312W        W94737  22.817  32.970  13.666
22313W        W94738  19.798  32.899  12.635
22314W        W94739  36.587  23.252   0.765
22315W        W94740  41.053  29.986  14.340
22316W        W94741  27.771  11.837  12.119
22317W        W94742  10.436  26.638   1.353
22318W        W94743  11.535   8.565   0.385
22319W        W94744   2.014  33.288   3.828
22320W        W94745  43.409   3.972  13.301
22321W        W94746  21.209  34.358   2.427
22322W        W94747  36.040  11.878  14.976
22323W        W94748   6.238  40.210   3.776
22324W        W94749  36.084  19.352  10.666
22325W        W94750  31.386  12.483   4.311
22326W        W94751  44.628  26.587  14.359
22327W        W94752  28.437  23.086   4.636
22328W        W94753  16.096  21.072   2.235
22329W        W94754   4.416   4.211   2.113
22330W        W94755  36.093  17.645   4.147
22331W        W94756   1.823  39.565  11.983
22332W        W94757  37.376   1.255  10.981
22333W        W94758  15.776  39.825  12.970
22334W        W94759  14.885  21.057  11.607
22335W        W94760   7.273  26.277  13.037
22336W        W94761  40.766  28.231  11.061
22337W        W94762  38.105   1.566   0.713
22338W        W94763  15.661  37.694   2.384
22339W        W94764   6.400  39.638   4.653
22340W        W94765  11.232   6.729   2.820
22341W        W94766  27.228  43.294  10.629
22342W        W94767  30.569   0.924  11.131
22343W        W94768  29.030   5.899   0.508
22344W        W94769   0.356  11.838  12.465
22345W        W94770  24.758  21.355   2.264
22346W        W94771  27.950  21.787  10.671
22347W        W94772  31.149  21.028  13.965
22348W        W94773  25.720  11.772  11.147
22349W        W94774   7.724  13.623   1.062
22350W        W94775  18.714  32.919   4.624
22351W        W94776  26.975  29.263   4.808
22352W        W94777  39.440  37.075  12.012
22353W        W94778  30.143   7.785   3.774
22354W        W94779  44.703  34.431  10.509
22355W        W94780  15.584   1.431   2.879
22356W        W94781  35.133  42.014   0.678
22357W        W94782  42.615   4.202  14.306
22358W        W94783   8.776  29.397  10.641
22359W        W94784  34.982  19.829   2.428
22360W        W94785   9.912   7.452  11.953
22361W        W94786  34.732  38.481   1.832
22362W        W94787   9.482  15.146  12.514
22363W        W94788  17.637   9.001   2.787
22364W        W94789  15.788  15.862  12.886
22365W        W94790  26.739  43.298  14.942
22366W        W94791  20.020  44.021   0.037
22367W        W94792  41.267   9.146   0.919
22368W        W94793  44.708  39.400  13.352
22369W        W94794   7.289   4.879  13.101
22370W        W94795  30.980  10.124  13.924
22371W        W94796   5.982  41.792  12.433
22372W        W94797  33.011  23.087  12.679
22373W        W94798  42.984   5.344  12.030
22374W        W94799  43.582  25.768  11.018
22375W        W94800  37.677  10.834   3.226
22376W        W94801  20.764   1.486  12.461
22377W        W94802  36.374  24.517   0.747
22378W        W94803  15.534  32.632  13.654
22379W        W94804  10.383  11.638   4.840
22380W        W94805  13.426  43.972  12.531
22381W        W94806  22.937   7.834   1.857
22382W        W94807  13.785  14.535  14.477
22383W        W94808  41.479   0.431   3.457
22384W        W94809  36.403   0.684  10.710
22385W        W94810  31.092  14.722  11.504
22386W        W94811  38.321  33.550   1.367
22387W        W94812  28.985  35.669   1.453
22388W        W94813  39.518  42.052   2.567
22389W        W94814  39.738  35.899   0.926
22390W        W94815  38.521   9.950  13.174
22391W        W94816  13.618  42.447  14.039
22392W        W94817  44.150  30.291  13.463
22393W        W94818  11.710   7.681   0.476
22394W        W94819  35.401  44.428  14.684
22395W        W94820  18.438  37.447  12.918
22396W        W94821  41.077  34.970   2.972
22397W        W94822   7.410  32.748   3.156
22398W        W94823   3.883  37.381   2.004
22399W        W94824   9.854  33.072   1.439
22400W        W94825   2.306  27.093  12.614
22401W        W94826  32.416   4.362  12.565
22402W        W94827  32.355  34.563   0.485
22403W        W94828  28.302  23.613  10.756
22404W        W94829  37.541   3.814   2.761
22405W        W94830  11.216  32.447   0.703
22406W        W94831   1.806  16.211   3.187
22407W        W94832  41.780   5.442   3.263
22408W        W94833  19.669  44.577  13.839
22409W        W94834  35.262  35.949   2.825
22410W        W94835   7.500  12.365  11.129
22411W        W94836  16.374  30.530   4.694
22412W        W94837  22.688  34.948   0.953
22413W        W94838  31.998  22.427   2.211
22414W        W94839  33.682   8.584   0.772
22415W        W94840  14.274  11.148  11.732
22416W        W94841  27.059  10.906  11.059
22417W        W94842   5.245  32.014   3.079
22418W        W94843   2.358  11.345   3.601
22419W        W94844  16.624   1.844  12.631
22420W        W94845  43.880   7.439  11.720
22421W        W94846  25.310  44.910   3.472
22422W        W94847   0.139  38.402   2.322
22423W        W94848  42.429  15.893  14.047
22424W        W94849  17.649  22.776   2.331
22425W        W94850  30.538  41.315  14.196
22426W        W94851  22.923  26.501   1.268
22427W        W94852  42.850  27.506  13.474
22428W        W94853  19.700  18.917  12.123
22429W        W94854  13.767  27.600   1.219
22430W        W94855  17.776   7.670   1.232
22431W        W94856  26.624  13.043   0.839
22432W        W94857  29.948  11.152  11.231
22433W        W94858   7.951  17.160  13.302
22434W        W94859  33.487  43.932   2.865
22435W        W94860  33.467  37.619  11.131
22436W        W94861  41.012  29.247  10.999
22437W        W94862  15.205  23.644   0.943
22438W        W94863  32.982   6.854  13.387
22439W        W94864  18.139  35.477  14.772
22440W        W94865  40.002  28.438  13.474
22441W        W94866   0.608   0.490   4.186
22442W        W94867  38.539  20.510   3.609
22443W        W94868  35.148  39.014   2.303
22444W        W94869   8.298  38.285   3.130
22445W        W94870  26.593  14.118  10.746
22446W        W94871  40.949  35.864   2.839
22447W        W94872  27.045  41.448  12.541
22448W        W94873  44.835   7.515   2.617
22449W        W94874  13.228  33.457   4.285
22450W        W94875  22.139  34.836  12.325
22451W        W94876  23.674  10.093   5.230
22452W        W94877  16.614  25.766   4.396
22453W        W94878  35.577   1.158  10.856
22454W        W94879  14.759  35.116   2.112
22455W        W94880  24.155   0.872  14.821
22456W        W94881   2.853  23.531  13.919
22457W        W94882  27.529  25.209  14.422
22458W        W94883  35.391  35.345  13.581
22459W        W94884  42.219  12.066   4.004
22460W        W94885  21.748  21.568  11.224
22461W        W94886   7.264  10.631  13.901
22462W        W94887  10.432   3.611   1.955
22463W        W94888  32.864  31.111   2.091
22464W        W94889  24.432  44.917  13.039
22465W        W94890  42.956  26.871  10.687
22466W        W94891   3.656  13.062  11.114
22467W        W94892  21.543  40.598   2.345
22468W        W94893  37.001  26.824   0.756
22469W        W94894  39.775   0.988  10.710
22470W        W94895  28.326  28.101  11.364
22471W        W94896   9.136  34.495  11.175
22472W        W94897  11.604  22.669   4.250
22473W        W94898  35.908  21.786   3.735
22474W        W94899  11.373  33.442   0.360
22475W        W94900  18.699   1.448  12.027
22476W        W94901  22.424   5.393   2.045
22477W        W94902   8.213  21.074   1.714
22478W        W94903  13.835  41.286   0.831
22479W        W94904  26.845  24.673   2.371
22480W        W94905   8.001   2.759  13.532
22481W        W94906  28.227  39.794  13.026
22482W        W94907  20.455   2.347   1.732
22483W        W94908  42.724  32.868   1.372
22484W        W94909  20.538  37.556   0.466
22485W        W94910  24.020  30.880   2.246
22486W        W94911   2.419  17.132   0.499
22487W        W94912  23.973  23.493   1.478
22488W        W94913   7.482   7.590   0.485
22489W        W94914  33.893  10.187   1.393
22490W        W94915  39.062  16.249   3.715
22491W        W94916  34.414  21.074   2.188
22492W        W94917  23.948  43.713  13.377
22493W        W94918  27.915   1.295  11.181
22494W        W94919  12.731  44.702   4.649
22495W        W94920  40.970  43.272   0.440
22496W        W94921   0.886   0.945   1.380
22497W        W94922   7.731  12.620   4.552
22498W        W94923   4.484  37.534   2.874
22499W        W94924  20.499  25.687   3.267
22500W        W94925   2.038  17.615   1.785
22501W        W94926  41.272   5.383   3.156
22502W        W94927   2.352  26.517   2.435
22503W        W94928  16.657   1.718   0.353
22504W        W94929  43.494  10.436  12.460
22505W        W94930  13.996  17.488  13.337
22506W        W94931  10.889  30.652  12.379
22507W        W94932  34.818  14.997  14.799
22508W        W94933  40.067  41.141  13.159
22509W        W94934  24.568  28.408  13.318
22510W        W94935  11.148  44.711   1.232
22511W        W94936   9.257  18.314  11.335
22512W        W94937  24.369  44.053  10.561
22513W        W94938  14.574   1.312   2.911
22514W        W94939  36.339   4.424  12.176
22515W        W94940  18.272  42.996  12.357
22516W        W94941  14.228  20.165  10.849
22517W        W94942  35.414  39.648   1.180
22518W        W94943  41.953  10.780   1.334
22519W        W94944  24.467  32.064   4.070
22520W        W94945   5.846   2.504   0.876
22521W        W94946   6.665  12.137  14.810
22522W        W94947  31.084  13.062  11.935
22523W        W94948  43.842  41.932   0.735
22524W        W94949  10.377  17.564  12.026
22525W        W94950   1.207  13.631  14.815
22526W        W94951  41.910  26.995  14.022
22527W        W94952  26.095   8.774   4.692
22528W        W94953  15.670  35.123  14.431
22529W        W94954  36.410  14.156  14.767
22530W        W94955   4.457   6.668  14.499
22531W        W94956  12.447  21.688  13.380
22532W        W94957  15.781  42.918  11.967
22533W        W94958  15.155  43.345  14.963
22534W        W94959  25.073  21.785   2.339
22535W        W94960  41.781  20.149  13.782
22536W        W94961   0.179  44.683   1.170
22537W        W94962  13.811  28.035   2.940
22538W        W94963  13.821   2.718  13.940
22539W        W94964  36.939  37.490   2.567
22540W        W94965  11.713  14.639   1.207
22541W        W94966  34.062   3.901  10.754
22542W        W94967  37.393  43.753   1.893
22543W        W94968   5.719   6.026   2.719
22544W        W94969  22.535   9.884   1.332
22545W        W94970  22.081  12.001  13.038
22546W        W94971  31.433   6.336  14.493
22547W        W94972  14.823  42.398   0.240
22548W        W94973  40.905  14.887  11.597
22549W        W94974  31.496  21.652  12.630
22550W        W94975  32.389  14.254   1.714
22551W        W94976  18.741  32.942   0.026
22552W        W94977  36.625  24.618  12.884
22553W        W94978  13.933  42.829   0.341
22554W        W94979  10.597  41.769   4.223
22555W        W94980  15.326  28.395  11.947
22556W        W94981   2.470  36.519  12.573
22557W        W94982   7.660  22.692   1.909
22558W        W94983   8.348  33.014   1.766
22559W        W94984   5.172  31.841   4.773
22560W        W94985   4.287   9.902   2.828
22561W        W94986  17.009  43.020  12.927
22562W        W94987  34.299   5.894  12.146
22563W        W94988  13.639  13.615   3.240
22564W        W94989  16.027   0.544  12.904
22565W        W94990  43.979   8.891   4.091
22566W        W94991  18.919  18.654   1.833
22567W        W94992  24.538   6.745  12.161
22568W        W94993  10.731  29.960  12.956
22569W        W94994  42.969  19.447  11.201
22570W        W94995  22.530  41.905  14.376
22571W        W94996  35.082  36.154  12.479
22572W        W94997   3.863  44.394  14.848
22573W        W94998   6.595  38.990   0.820
22574W        W94999   2.388   8.370  14.367
22575W        W95000  44.754  10.854   4.312
22576W        W95001   3.698  42.761   0.373
22577W        W95002   8.700  38.787   4.974
22578W        W95003  36.395  17.709   0.921
22579W        W95004  15.284  27.459   1.969
22580W        W95005  34.316  35.125  12.567
22581W        W95006  23.789  41.935  11.947
22582W        W95007  29.821  31.465   2.727
22583W        W95008   5.902  29.672   2.803
22584W        W95009  38.392  37.013  13.994
22585W        W95010  41.088  40.054  13.834
22586W        W95011  20.843  40.798   3.476
22587W        W95012  29.402  40.563   2.340
22588W        W95013   8.243   5.790   5.061
22589W        W95014  35.286   6.644   3.972
22590W        W95015  25.238  17.117  11.605
22591W        W95016   9.309  30.088  11.557
22592W        W95017  24.673  31.629   2.301
22593W        W95018  38.039  12.324  14.780
22594W        W95019   3.169  35.504  12.011
22595W        W95020   5.763  28.282  12.120
22596W        W95021  27.654   2.476  12.784
22597W        W95022  39.514   8.856  11.419
22598W        W95023  11.611   8.003   3.073
22599W        W95024   8.495   9.740  10.094
22600W        W95025  29.056  16.283   3.383
22601W        W95026  16.230  33.457  14.455
22602W        W95027  37.086   2.463  14.567
22603W        W95028  23.352   6.503  11.190
22604W        W95029   1.350   7.747  14.838
22605W        W95030   6.526  40.784  11.194
22606W        W95031  19.699   7.956   3.339
22607W        W95032  37.932  21.722   5.589
22608W        W95033  23.528  36.882  14.843
22609W        W95034  23.745  28.037  10.722
22610W        W95035  32.085  29.469  14.817
22611W        W95036   3.325  44.536   0.529
22612W        W95037  19.256   2.852   0.248
22613W        W95038  33.881  15.650  11.619
22614W        W95039  42.961  14.530  10.218
22615W        W95040  16.074  25.488   4.469
22616W        W95041  14.257   0.438  14.285
22617W        W95042  29.552  41.905   1.065
22618W        W95043  31.441  43.947  12.650
22619W        W95044   7.893  32.991  12.975
22620W        W95045   9.773  32.704   4.333
22621W        W95046  24.097   6.357  11.064
22622W        W95047  23.561  18.097   1.086
22623W        W95048  32.659   3.740   2.772
22624W        W95049  19.810  11.493   1.173
22625W        W95050   8.179   0.116   4.905
22626W        W95051  38.624  42.470  10.528
22627W        W95052  39.768  41.824  14.327
22628W        W95053  14.713  32.940   4.321
22629W        W95054  31.539  41.621   1.694
22630W        W95055  12.208   1.717   1.333
22631W        W95056   7.904  29.145   0.450
22632W        W95057  15.354  22.216   1.826
22633W        W95058  41.506   3.398  12.865
22634W        W95059  36.188  30.488  13.995
22635W        W95060   0.712  32.060  14.801
22636W        W95061   5.358  36.138   5.098
22637W        W95062  41.739  35.594  11.957
22638W        W95063  13.691  23.648   3.736
22639W        W95064  25.865  13.732  13.540
22640W        W95065  30.454  21.499  11.097
22641W        W95066  40.480  43.842   4.627
22642W        W95067  31.035  17.526   2.988
22643W        W95068  38.556  44.903   9.722
22644W        W95069   6.008  21.606   0.677
22645W        W95070   3.597  28.375  10.680
22646W        W95071   9.138  32.882  14.091
22647W        W95072  15.817  18.845   9.730
22648W        W95073  25.306  40.594  12.212
22649W        W95074  44.071  10.118   2.851
22650W        W95075  40.277  12.240   4.272
22651W        W95076  22.814  41.745  12.086
22652W        W95077  34.381  11.330  10.664
22653W        W95078   9.599  44.069  10.482
22654W        W95079  41.338  37.556   3.282
22655W        W95080  39.287  35.646   4.534
22656W        W95081  31.462  13.291   0.270
22657W        W95082  41.371  17.678  11.281
22658W        W95083  17.564  32.711   1.207
22659W        W95084  20.110  35.782   1.830
22660W        W95085  31.957  33.274   3.766
22661W        W95086  40.987  12.311  14.685
22662W        W95087  17.533   6.992  12.590
22663W        W95088  43.218   5.721   3.911
22664W        W95089  20.686  22.522  11.518
22665W        W95090  21.056  43.723   3.173
22666W        W95091  28.699  11.351  13.233
22667W        W95092  39.649  17.289   0.752
22668W        W95093  25.466  30.398   1.233
22669W        W95094   8.600  42.953  10.729
22670W        W95095   7.344  37.840   4.804
22671W        W95096  36.338  11.176   4.694
22672W        W95097   7.150  36.247  12.580
22673W        W95098  25.269  22.033  11.488
22674W        W95099  21.696  41.331   3.664
22675W        W95100  20.149  39.926   4.761
22676W        W95101  23.645  32.174   1.523
22677W        W95102  33.629   4.234  13.984
22678W        W95103  35.358  29.444   3.359
22679W        W95104  28.624  10.349   5.009
22680W        W95105  27.462   6.545   4.620
22681W        W95106  14.877  11.561  14.960
22682W        W95107   7.940  41.458   4.231
22683W        W95108   7.407  35.206  12.443
22684W        W95109  23.070  37.898   1.830
22685W        W95110  23.608  28.073   2.325
22686W        W95111  30.764  28.035  10.672
22687W        W95112  30.708  17.160   5.037
22688W        W95113  25.156  22.501  13.327
22689W        W95114  39.645  38.331  13.735
22690W        W95115  36.112  21.608   3.294
22691W        W95116   6.244  21.947   0.332
22692W        W95117  23.689  17.966   0.603
22693W        W95118  29.545  21.827   3.685
22694W        W95119  22.173  19.520  10.942
22695W        W95120  37.611  39.829  11.903
22696W        W95121  42.883  31.128  13.334
22697W        W95122  18.763   8.241  12.438
22698W        W95123  38.901  13.319  13.519
22699W        W95124  17.102  43.960  10.642
22700W        W95125  34.082  34.760  11.486
22701W        W95126  20.669  12.127   0.029
22702W        W95127  12.827  38.493   2.009
22703W        W95128   3.830  43.766   3.151
22704W        W95129  40.174  15.233  11.155
22705W        W95130  28.579  42.162  11.424
22706W        W95131  43.316  10.618   4.761
22707W        W95132  44.768   5.335   4.734
22708W        W95133  26.460  22.062   2.257
22709W        W95134  38.499   6.501   1.534
22710W        W95135  24.990  26.890  10.690
22711W        W95136   9.365  14.846  11.972
22712W        W95137  18.215  22.651  13.607
22713W        W95138  28.773  30.567   4.064
22714W        W95139  38.996   2.765  12.321
22715W        W95140  20.148  28.978   4.699
22716W        W95141  25.440  36.414   1.377
22717W        W95142  32.191   1.454  12.501
22718W        W95143  11.840  22.100  12.856
22719W        W95144  16.410   3.207  13.570
22720W        W95145  14.059  40.636  14.590
22721W        W95146  35.952  41.789  13.334
22722W        W95147  23.858  33.410  12.534
22723W        W95148  35.105  18.724  12.205
22724W        W95149  32.546   5.796  13.579
22725W        W95150  15.185   2.017   1.895
22726W        W95151  40.798  18.555   3.183
22727W        W95152  12.890  43.450  13.046
22728W        W95153  37.707  26.529  14.794
22729W        W95154  22.059  12.863   4.039
22730W        W95155  20.135   1.834   5.037
22731W        W95156  30.145  22.596   5.030
22732W        W95157  30.603  31.540  13.009
22733W        W95158  40.471  44.706  11.999
22734W        W95159  34.033  16.600  12.230
22735W        W95160  13.532  28.521   0.780
22736W        W95161  12.189  10.917   2.856
22737W        W95162  37.015  35.405  14.121
22738W        W95163  44.561  17.137  13.327
22739W        W95164  35.582  13.581  14.431
22740W        W95165   5.641  34.505  12.888
22741W        W95166  13.760   4.465  10.462
22742W        W95167  23.725  18.783  13.844
22743W        W95168  21.609  19.759   5.048
22744W        W95169   3.998  33.679  13.987
22745W        W95170  40.074  17.570   0.725
22746W        W95171  24.755  39.337  12.018
22747W        W95172  33.541  12.945   0.120
22748W        W95173  43.548  16.080   2.669
22749W        W95174  18.200  17.036  14.836
22750W        W95175   0.820  42.867   2.314
22751W        W95176  29.618  16.992  11.334
22752W        W95177  10.857   5.976  13.068
22753W        W95178  28.342  34.098  12.383
22754W        W95179  33.884  40.381  11.175
22755W        W95180  18.795  33.007   3.753
22756W        W95181   5.236  38.045  11.648
22757W        W95182  40.829  31.680   0.361
22758W        W95183   4.156  14.252  13.341
22759W        W95184  18.342   9.675  11.592
22760W        W95185  19.675   3.825  13.810
22761W        W95186  26.517  43.112   1.752
22762W        W95187  16.033  30.592  11.033
22763W        W95188   3.846   2.425   4.120
22764W        W95189  16.818   1.834   5.017
22765W        W95190  16.263   1.900  10.292
22766W        W95191  18.116  35.562  11.836
22767W        W95192  31.907  27.525   2.298
22768W        W95193  37.001  23.178  14.088
22769W        W95194  15.287   8.293  12.250
22770W        W95195  18.659  31.462   2.476
22771W        W95196   9.191   8.947  13.741
22772W        W95197  44.937  43.462   0.642
22773W        W95198  23.209  13.916   0.877
22774W        W95199   4.595  25.226   3.773
22775W        W95200  35.806  14.309  11.521
22776W        W95201  36.667  22.872  13.821
22777W        W95202  20.634  43.394  14.363
22778W        W95203   9.301  27.429  11.564
22779W        W95204  37.852  15.141   1.752
22780W        W95205  33.420  32.708   2.720
22781W        W95206  23.708   8.746  12.486
22782W        W95207  30.205  32.017  12.456
22783W        W95208  40.813  32.871  14.379
22784W        W95209  44.619  12.883   3.804
22785W        W95210  36.972  11.501  12.091
22786W        W95211  21.707  16.736   2.127
22787W        W95212  34.505  36.473   1.467
22788W        W95213   1.421   1.364   3.932
22789W        W95214  33.417  17.324  10.729
22790W        W95215  31.002   0.875   3.813
22791W        W95216   9.658  23.157  14.045
22792W        W95217  15.823  15.101   0.674
22793W        W95218  42.071  20.556  14.901
22794W        W95219  40.801   8.536   3.751
22795W        W95220  14.583  24.741  13.400
22796W        W95221   0.696  13.921  11.077
22797W        W95222  32.120  18.857   2.798
22798W        W95223   2.636  43.860  10.687
22799W        W95224   0.479  42.840   0.156
22800W        W95225  24.684  43.270  11.061
22801W        W95226  16.120  16.123  14.902
22802W        W95227  32.005   3.644  13.893
22803W        W95228  33.807   5.904  13.049
22804W        W95229  27.905  35.753  11.234
22805W        W95230  18.212   0.158   3.182
22806W        W95231  42.749  26.515  12.455
22807W        W95232  36.036  15.763   3.697
22808W        W95233  26.391  10.499   4.207
22809W        W95234  34.524  42.621  10.363
22810W        W95235   1.494  18.392  14.432
22811W        W95236  24.255  10.627  13.144
22812W        W95237  31.601  19.105   2.340
22813W        W95238  37.136  19.610  11.218
22814W        W95239   5.824  12.359  11.513
22815W        W95240  37.641  39.436   1.423
22816W        W95241  33.609   2.221   2.838
22817W        W95242   9.663  14.613  11.113
22818W        W95243  25.992   6.287  14.784
22819W        W95244  14.321   9.201  12.486
22820W        W95245  22.302  28.679   0.419
22821W        W95246  35.245  31.111  14.253
22822W        W95247  29.417  32.121  11.997
22823W        W95248  38.157  28.693   1.297
22824W        W95249  28.931   9.612  14.612
22825W        W95250   8.651  26.437   2.389
22826W        W95251   2.403  40.791   0.003
22827W        W95252  41.431  21.753  10.506
22828W        W95253  12.697  20.657   3.590
22829W        W95254  24.142  19.151   3.303
22830W        W95255  14.238  27.426  13.956
22831W        W95256  38.613  24.460  14.384
22832W        W95257  18.732   4.909   2.855
22833W        W95258  10.503  13.632  11.594
22834W        W95259  28.997  41.899  10.745
22835W        W95260  33.680   6.320  11.101
22836W        W95261  23.284  25.767  13.315
22837W        W95262  18.582  18.635   2.852
22838W        W95263   0.806  34.868   2.107
22839W        W95264  32.942   2.936   3.859
22840W        W95265   4.357  13.863  10.749
22841W        W95266   1.876   3.775  12.491
22842W        W95267  20.143  26.489   9.724
22843W        W95268  41.563   8.943  11.484
22844W        W95269  16.227  28.890   2.309
22845W        W95270   1.556  23.535   2.333
22846W        W95271  32.528   4.308  10.603
22847W        W95272   5.498  41.689   2.477
22848W        W95273   8.597  21.052  10.397
22849W        W95274  30.410  41.529   4.563
22850W        W95275   1.519   6.916   1.399
22851W        W95276  42.025  39.983   4.707
22852W        W95277   1.569  30.167   2.632
22853W        W95278  36.795   2.222   4.287
22854W        W95279   0.839  14.589  13.108
22855W        W95280   1.857  15.713   1.871
22856W        W95281   0.905  17.824   3.719
22857W        W95282  31.641  44.454  12.421
22858W        W95283  38.514   2.965  12.333
22859W        W95284  11.002   9.268   0.452
22860W        W95285  11.582  40.907  13.166
22861W        W95286  26.957  15.545   0.430
22862W        W95287  31.524  13.012  13.585
22863W        W95288  29.621  34.620  14.454
22864W        W95289  14.118   9.867  10.289
22865W        W95290  12.824  26.997  14.354
22866W        W95291  36.968  16.714  12.154
22867W        W95292  13.347   0.990   3.891
22868W        W95293  15.090  27.169   3.146
22869W        W95294   4.450  35.925  13.726
22870W        W95295  42.067  36.062  12.073
22871W        W95296   9.479  12.132  12.883
22872W        W95297   7.945  13.624  14.846
22873W        W95298  33.055   7.923   2.181
22874W        W95299  41.343  11.579   1.898
22875W        W95300   4.416  39.589  14.035
22876W        W95301   3.854  10.767   1.754
22877W        W95302  30.943  13.358  14.759
22878W        W95303   7.797  15.068  11.533
22879W        W95304  20.306  38.661  13.825
22880W        W95305  29.110  18.634   4.608
22881W        W95306  15.829  23.535   2.694
22882W        W95307   1.300  30.513   1.289
22883W        W95308  18.750  40.746  12.859
22884W        W95309  17.382   0.576   1.318
22885W        W95310  35.367   6.095   0.875
22886W        W95311  39.582  17.858  13.568
22887W        W95312   8.692  19.937   4.456
22888W        W95313   5.758   3.894   4.242
22889W        W95314  11.261   1.412   4.583
22890W        W95315  21.637  41.349  12.511
22891W        W95316  37.385  32.897   3.596
22892W        W95317  10.938   0.407  11.789
22893W        W95318   1.876   8.072  10.800
22894W        W95319  28.245  24.497   0.887
22895W        W95320  27.541  18.947   0.393
22896W        W95321  15.565  43.829  13.912
22897W        W95322  26.212  27.426   4.324
22898W        W95323   6.074  35.089  14.974
22899W        W95324  27.011  35.503  13.883
22900W        W95325  32.013  17.470   1.955
22901W        W95326  23.210  23.000  12.188
22902W        W95327  23.214   4.385  13.239
22903W        W95328   7.861  14.328   0.547
22904W        W95329   4.640  42.696  12.526
22905W        W95330  24.086  42.491  12.610
22906W        W95331  12.879  23.722   3.190
22907W        W95332  40.623  24.059  11.159
22908W        W95333  22.921   2.086  14.823
22909W        W95334  12.680   0.295   0.794
22910W        W95335  42.474  11.184  14.998
22911W        W95336  41.828  30.044   3.361
22912W        W95337  28.483  15.979   2.328
22913W        W95338   1.819  19.336   4.622
22914W        W95339  36.216   5.653   3.232
22915W        W95340  13.311   9.018  11.504
22916W        W95341  33.580   9.259  14.660
22917W        W95342   0.559   3.918   0.835
22918W        W95343  30.344  10.830  12.023
22919W        W95344  12.350   8.345   3.676
22920W        W95345  27.036   6.826   4.663
22921W        W95346  38.732  32.682  13.761
22922W        W95347  35.121  16.117   3.477
22923W        W95348  18.474  26.521   0.216
22924W        W95349  35.778  12.794  11.987
22925W        W95350  23.939  14.676  10.692
22926W        W95351  30.468  44.277  14.405
22927W        W95352  41.120  22.717  12.908
22928W        W95353  25.619  32.651  14.015
22929W        W95354   1.889  21.605  12.384
22930W        W95355   1.567  38.150   3.400
22931W        W95356   2.751  36.945   1.530
22932W        W95357  34.417  32.892  11.568
22933W        W95358   4.613   7.965  14.424
22934W        W95359   5.974  24.107   3.885
22935W        W95360   4.736  28.966   1.709
22936W        W95361  15.783   3.400  10.491
22937W        W95362  24.728  44.544  12.818
22938W        W95363  34.071  23.201  11.925
22939W        W95364  39.087  24.618   3.129
22940W        W95365  29.540  27.038   4.202
22941W        W95366   4.361  35.603  10.668
22942W        W95367  19.519  19.048   4.772
22943W        W95368  10.382  30.475   0.472
22944W        W95369  29.079  38.352  11.139
22945W        W95370  42.542  26.962   0.742
22946W        W95371   5.179  40.055   4.476
22947W        W95372  44.193  15.040   1.368
22948W        W95373  10.878  17.141   1.817
22949W        W95374  12.725  13.189  11.557
22950W        W95375   4.445   3.375   1.527
22951W        W95376  44.925  43.725   3.644
22952W        W95377  15.720  16.942   1.762
22953W        W95378  26.403   0.503   1.246
22954W        W95379   4.796  31.402  10.651
22955W        W95380  39.948  34.861   0.954
22956W        W95381  36.910  24.111  13.463
22957W        W95382  28.993  10.737   4.879
22958W        W95383  31.469  33.241  12.782
22959W        W95384  31.815  31.426  12.034
22960W        W95385   9.714  26.924  12.061
22961W        W95386  15.586  41.025   2.186
22962W        W95387   5.734  19.409  12.503
22963W        W95388  31.654   3.686   3.814
22964W        W95389  40.077  23.960   0.984
22965W        W95390  14.220  11.421   0.766
22966W        W95391  17.595  39.792   3.756
22967W        W95392  24.163  33.482   0.353
22968W        W95393  25.790  43.425   2.611
22969W        W95394  20.961  41.848   0.399
22970W        W95395  41.809  41.667  12.515
22971W        W95396  21.258  25.642   2.814
22972W        W95397  41.995  22.138  11.870
22973W        W95398  12.475   1.309   3.816
22974W        W95399  15.068   7.227  13.140
22975W        W95400  25.947   1.771   2.418
22976W        W95401  32.982  38.319   4.187
22977W        W95402  39.512  17.336  13.571
22978W        W95403   6.487  43.861   0.419
22979W        W95404  33.495   4.263   1.421
22980W        W95405  20.127  16.154   4.436
22981W        W95406  38.518  13.226   3.163
22982W        W95407  28.030   2.264  10.246
22983W        W95408  37.620  32.048   2.413
22984W        W95409  22.101  17.722  12.968
22985W        W95410   4.040  33.677   1.918
22986W        W95411  32.457  29.518   1.706
22987W        W95412  13.270   6.537  13.407
22988W        W95413  19.402  12.867  11.991
22989W        W95414  31.181  22.525   0.923
22990W        W95415  24.849  43.995  10.712
22991W        W95416   3.863  42.761   4.954
22992W        W95417  33.428  41.232  10.604
22993W        W95418   2.470  43.573   2.360
22994W        W95419  15.540  16.560  14.466
22995W        W95420  35.798  10.713  11.508
22996W        W95421  34.076  24.382   3.808
22997W        W95422  19.299  42.941   3.143
22998W        W95423  22.083  23.396  14.712
22999W        W95424  38.345  15.135  11.539
23000W        W95425  17.081  17.094   3.544
23001W        W95426   8.577   3.904   3.155
23002W        W95427  26.542  44.602   5.172
23003W        W95428  27.989  23.653   2.096
23004W        W95429  27.018   1.538  11.463
23005W        W95430   6.683   6.962  13.382
23006W        W95431  21.601  14.115   2.682
23007W        W95432  17.630  38.907   3.545
23008W        W95433  22.420   1.909  14.867
23009W        W95434  31.529  13.315  14.015
23010W        W95435  40.989  25.432   0.476
23011W        W95436   2.255   6.710  14.885
23012W        W95437   7.130  39.058   5.170
23013W        W95438  29.907  44.545   0.365
23014W        W95439  37.491  17.016  11.014
23015W        W95440  33.860  37.373  11.553
23016W        W95441  10.725  13.155  11.562
23017W        W95442   0.745  30.058  13.525
23018W        W95443  21.111  19.003   2.801
23019W        W95444  19.321  35.085  12.021
23020W        W95445  23.665  14.667  11.844
23021W        W95446   2.721  33.665  13.065
23022W        W95447  28.153  11.569  12.396
23023W        W95448  27.970  28.714   0.264
23024W        W95449  39.610  10.908  12.351
23025W        W95450  15.706  28.216  13.097
23026W        W95451  34.345  24.642  11.666
23027W        W95452   0.317  29.993  10.697
23028W        W95453  42.992  27.180   0.906
23029W        W95454  22.145  23.214   1.870
23030W        W95455  43.835   8.685   3.106
23031W        W95456   3.582   0.431   3.272
23032W        W95457   1.329   5.628  11.966
23033W        W95458  21.534   6.541   3.813
23034W        W95459  30.586  33.842   2.631
23035W        W95460  36.325   7.936  11.687
23036W        W95461  39.982  43.236  11.217
23037W        W95462   7.595  16.737  12.063
23038W        W95463   0.395  29.692   1.938
23039W        W95464  28.576  28.550   4.622
23040W        W95465  17.576  33.400   4.176
23041W        W95466  24.167  20.492  11.100
23042W        W95467  28.518  39.880  11.608
23043W        W95468  31.173  16.338  12.299
23044W        W95469   7.148   1.761   2.781
23045W        W95470  10.773   8.492  10.204
23046W        W95471  10.325  24.575   2.332
23047W        W95472  39.305  19.166   3.872
23048W        W95473  24.676  29.614  11.685
23049W        W95474  27.044  26.454  13.412
23050W        W95475  44.595  13.092   1.978
23051W        W95476  42.770  33.820  14.925
23052W        W95477   8.607  15.787  12.186
23053W        W95478  19.794  39.825   4.375
23054W        W95479  14.776  16.817  12.194
23055W        W95480  23.595  19.633  14.870
23056W        W95481  15.628  18.528  14.450
23057W        W95482  26.877   9.701   2.685
23058W        W95483  20.121  38.517   4.831
23059W        W95484  14.760   0.805   3.640
23060W        W95485  26.405   5.866   4.822
23061W        W95486  43.367  30.004   1.737
23062W        W95487  40.435  22.513   4.194
23063W        W95488  21.023  12.399  14.784
23064W        W95489  23.469  26.106   1.509
23065W        W95490   2.954  32.889  14.490
23066W        W95491  37.792  23.513  12.080
23067W        W95492   3.550  15.788  13.481
23068W        W95493  33.921  20.111  11.699
23069W        W95494  29.039  15.659  13.967
23070W        W95495  20.122   3.431   5.145
23071W        W95496  31.046  33.685  11.618
23072W        W95497  18.025  31.026  10.084
23073W        W95498   6.338  31.588   3.825
23074W        W95499  27.135  11.570   0.775
23075W        W95500  21.565  33.969   3.579
23076W        W95501   7.400  44.494   2.788
23077W        W95502  39.485  39.084   4.512
23078W        W95503  38.618  11.383  13.066
23079W        W95504  40.523   1.245  11.808
23080W        W95505  17.624  41.482  14.676
23081W        W95506  10.317  32.152   3.419
23082W        W95507  44.910  17.997   1.298
23083W        W95508  11.863  16.771  10.274
23084W        W95509  26.900   0.481   2.176
23085W        W95510  19.070  29.842  11.122
23086W        W95511   3.424  43.460  14.773
23087W        W95512   4.747   7.655  11.476
23088W        W95513  26.279   5.897  10.546
23089W        W95514  24.533  37.313  14.748
23090W        W95515   3.598  10.817   1.309
23091W        W95516  43.631  15.238  14.434
23092W        W95517   8.406  43.490   2.508
23093W        W95518   0.316  29.231  14.576
23094W        W95519   8.708  13.763   2.263
23095W        W95520  12.175   1.444  13.021
23096W        W95521   0.900  31.881  13.902
23097W        W95522  17.546  17.583   2.201
23098W        W95523  22.638  26.860  12.888
23099W        W95524  21.912  31.911  11.585
23100W        W95525   7.340   6.686   3.128
23101W        W95526  23.377  15.660   0.055
23102W        W95527   5.178  19.284   1.223
23103W        W95528   5.751  39.856  14.306
23104W        W95529  19.105  38.689   0.323
23105W        W95530  38.306  26.668  12.062
23106W        W95531  14.593  25.919   4.053
23107W        W95532  19.216  41.858  14.488
23108W        W95533  38.857  37.875  14.087
23109W        W95534  40.970  34.858  14.551
23110W        W95535  35.535   2.584   2.749
23111W        W95536  37.742  32.573  14.908
23112W        W95537  40.031  25.707   4.117
23113W        W95538   3.773  35.970   1.683
23114W        W95539   8.953  18.777   0.777
23115W        W95540  14.896  14.365  11.633
23116W        W95541  20.615  32.793   0.285
23117W        W95542  29.185  24.438  12.047
23118W        W95543  21.455  11.254  12.442
23119W        W95544  42.301  20.137  13.791
23120W        W95545  37.394  24.074  12.604
23121W        W95546  10.941  40.993   1.475
23122W        W95547  17.005   4.537   0.417
23123W        W95548   6.288  34.589   0.420
23124W        W95549  43.863  36.783  14.845
23125W        W95550  15.917  24.610   4.634
23126W        W95551  35.531  19.983   2.459
23127W        W95552  42.783  29.686   5.211
23128W        W95553   3.464  34.499   2.746
23129W        W95554  30.857  28.881   0.832
23130W        W95555   7.770  38.605   9.803
23131W        W95556  29.536  31.143   3.593
23132W        W95557  11.667  24.776   4.207
23133W        W95558  35.250  37.590   5.057
23134W        W95559   5.369  41.926  11.169
23135W        W95560  43.060  11.351  12.973
23136W        W95561  10.522   4.083   2.885
23137W        W95562  43.031  44.327   0.438
23138W        W95563  13.423  18.973  10.992
23139W        W95564  39.239  34.973   2.661
23140W        W95565  41.917  24.240  11.102
23141W        W95566  29.904   8.868   0.183
23142W        W95567  13.660  12.563  11.232
23143W        W95568  40.320  35.425   3.076
23144W        W95569   3.366  37.130   2.858
23145W        W95570  34.686  16.138   2.642
23146W        W95571  41.858  30.672  13.368
23147W        W95572  25.075  25.862   1.511
23148W        W95573   8.085   5.538  13.147
23149W        W95574  30.190  32.665  12.039
23150W        W95575  10.720  23.714  12.496
23151W        W95576  42.758  30.975   0.395
23152W        W95577  44.074  29.770  12.807
23153W        W95578  14.188   3.211   0.413
23154W        W95579   8.105  44.368  10.609
23155W        W95580  21.148  19.514   2.758
23156W        W95581  23.530   8.290  13.492
23157W        W95582  28.462  13.303  10.576
23158W        W95583  21.795  37.945   4.220
23159W        W95584   8.213  17.077   3.278
23160W        W95585  23.385  11.324  14.246
23161W        W95586   0.917  38.842   0.674
23162W        W95587  21.046   4.432  14.194
23163W        W95588  35.809  13.438  11.218
23164W        W95589   7.368  21.208   1.253
23165W        W95590   8.149  32.986   4.752
23166W        W95591  33.922   5.452  11.890
23167W        W95592   7.861  22.318   2.837
23168W        W95593   6.861  16.684   4.560
23169W        W95594   1.038  15.066  11.688
23170W        W95595   4.935  14.876   4.746
23171W        W95596  30.521   7.718  10.598
23172W        W95597  34.365  17.741  11.865
23173W        W95598   2.271  25.880   2.710
23174W        W95599  14.306  22.298   2.647
23175W        W95600  21.378  17.638  13.712
23176W        W95601  25.725   7.926   3.709
23177W        W95602   0.019  34.596  12.841
23178W        W95603  28.791  32.141   3.508
23179W        W95604  28.734  28.248   2.722
23180W        W95605  23.857  12.719   4.761
23181W        W95606  16.114  30.842   3.340
23182W        W95607  13.623   6.296  14.943
23183W        W95608   7.365  39.103  14.411
23184W        W95609   6.543  28.220  14.373
23185W        W95610  20.787   8.859  10.294
23186W        W95611   5.345   8.738   0.222
23187W        W95612  40.467  33.984   4.331
23188W        W95613   0.209  17.878   2.967
23189W        W95614  39.161  24.962  14.884
23190W        W95615  34.946   8.474   2.218
23191W        W95616  44.048  42.799   4.136
23192W        W95617  28.105  41.433   4.173
23193W        W95618  19.299  13.339   4.853
23194W        W95619   6.726  30.284   4.576
23195W        W95620  11.565  36.607   4.157
23196W        W95621  25.620  38.383   4.949
23197W        W95622   3.701  44.384  12.042
23198W        W95623  16.817  24.589  13.442
23199W        W95624  31.536  37.446  11.011
23200W        W95625  30.635  16.363   3.880
23201W        W95626  28.813  17.764  11.562
23202W        W95627   7.766   8.347  10.425
23203W        W95628  19.705  33.948  13.265
23204W        W95629  16.173  44.697   3.821
23205W        W95630  21.383  16.189   3.858
23206W        W95631  30.427  36.925   3.788
23207W        W95632  31.937  35.566   4.188
23208W        W95633  42.809   5.153  11.105
23209W        W95634   9.719   9.550   0.366
23210W        W95635   2.405  22.622   2.654
23211W        W95636  33.950  29.447  12.539
23212W        W95637  11.985  18.080  12.494
23213W        W95638  10.820  11.338   1.590
23214W        W95639  22.915  30.968   4.259
23215W        W95640  26.894  23.193   0.911
23216W        W95641  13.148  24.916   1.773
23217W        W95642  18.173  18.771   4.696
23218W        W95643  13.476  37.881   4.850
23219W        W95644  10.631  13.707  14.789
23220W        W95645  15.293  10.088  13.300
23221W        W95646  44.485   0.260  12.360
23222W        W95647  17.585  14.605   4.108
23223W        W95648   1.406  22.756   2.792
23224W        W95649  31.876  25.069  13.864
23225W        W95650  19.676  25.697  10.271
23226W        W95651  17.964  15.883  11.624
23227W        W95652  19.383  31.299  12.918
23228W        W95653  31.535  29.960  10.831
23229W        W95654  41.447  40.356   1.195
23230W        W95655  12.244  41.055  10.760
23231W        W95656  27.508  24.105   1.355
23232W        W95657   6.132   6.404   1.950
23233W        W95658   6.869  24.504  10.448
23234W        W95659  19.767  19.620   2.587
23235W        W95660  14.814  32.546  14.444
23236W        W95661   1.136  21.983  10.997
23237W        W95662  44.174  14.915   0.836
23238W        W95663  27.323  19.808   2.780
23239W        W95664   6.716  27.567  12.621
23240W        W95665  13.426  11.203   3.344
23241W        W95666   8.733  17.095  10.725
23242W        W95667  15.037  28.591  13.774
23243W        W95668  10.212  41.334  12.203
23244W        W95669   2.412  31.691  11.162
23245W        W95670  13.372  16.532   4.734
23246W        W95671   0.383  12.875  13.491
23247W        W95672  20.538  34.780  13.935
23248W        W95673   1.361  13.908  12.251
23249W        W95674  30.247  25.311  13.122
23250W        W95675  39.882  18.764  13.905
23251W        W95676  11.774  20.209   0.833
23252W        W95677  17.057  19.565  13.830
23253W        W95678  32.665  29.557  14.027
23254W        W95679  27.832  29.313  11.170
23255W        W95680  22.116  37.707  12.257
23256W        W95681  27.784  10.251   0.441
23257W        W95682  24.361   0.499  11.384
23258W        W95683  34.511  27.156   1.785
23259W        W95684  36.496  11.305  11.998
23260W        W95685  44.568  14.033  11.119
23261W        W95686  35.068  11.850   4.062
23262W        W95687  41.800  30.867  13.853
23263W        W95688  13.072  19.037   1.450
23264W        W95689   6.186   6.237   4.844
23265W        W95690  31.557   8.228   4.507
23266W        W95691  17.166   2.340   2.358
23267W        W95692   9.702  42.392   1.910
23268W        W95693   8.224   6.952   0.709
23269W        W95694  32.081  14.820   3.831
23270W        W95695  11.788  21.224  13.188
23271W        W95696  24.457  36.428   2.189
23272W        W95697  28.063  39.372   4.626
23273W        W95698  11.321  36.396   3.478
23274W        W95699  42.863  20.735   0.330
23275W        W95700   9.300  18.909  13.461
23276W        W95701  33.014  43.495   2.335
23277W        W95702  38.556   7.381  13.474
23278W        W95703  27.584  44.017   2.833
23279W        W95704  32.131  44.696   3.722
23280W        W95705  31.916  16.159   4.146
23281W        W95706  11.242  12.907  11.499
23282W        W95707  22.192  22.328   0.798
23283W        W95708  34.378  16.735   2.120
23284W        W95709   7.369   4.737  12.521
23285W        W95710  34.951   1.677   2.768
23286W        W95711  10.149  25.049  12.470
23287W        W95712  21.743  19.174   3.896
23288W        W95713  13.683   6.812  14.998
23289W        W95714  10.706   6.931  11.707
23290W        W95715  28.173  30.031   9.783
23291W        W95716   6.653   4.564   2.167
23292W        W95717  37.951  18.211  12.918
23293W        W95718  44.327  33.313   2.776
23294W        W95719  15.302  23.089  10.866
23295W        W95720  13.615  15.848   1.843
23296W        W95721  14.760   8.620   0.387
23297W        W95722  31.982  19.236  14.442
23298W        W95723  30.329   1.743   2.124
23299W        W95724  12.642  22.922  13.945
23300W        W95725  10.264  39.625   0.306
23301W        W95726  27.474  40.859  14.012
23302W        W95727  22.154  20.529  11.131
23303W        W95728   5.229  26.694   3.252
23304W        W95729  23.603  35.932  10.638
23305W        W95730   8.600   3.311  14.787
23306W        W95731  36.798  42.250   4.171
23307W        W95732  23.136  22.571   1.382
23308W        W95733  33.519  37.326   4.537
23309W        W95734  22.033  33.152   2.961
23310W        W95735  22.259   8.859  10.500
23311W        W95736  13.667  22.452   2.787
23312W        W95737  32.052  15.725  13.749
23313W        W95738   6.856  23.724  12.592
23314W        W95739   1.268  36.311  14.994
23315W        W95740  24.722  27.455  12.366
23316W        W95741  16.564  38.604   2.745
23317W        W95742  20.471   0.282  13.899
23318W        W95743   4.756   9.545  12.955
23319W        W95744  25.053  42.720  10.282
23320W        W95745   4.307  15.363   0.410
23321W        W95746  41.068  22.926   3.737
23322W        W95747   7.693  34.860  12.975
23323W        W95748  23.703  34.842   4.600
23324W        W95749  39.836  36.604   3.754
23325W        W95750  24.538  28.727  11.958
23326W        W95751   2.804  13.875  13.395
23327W        W95752  41.820  12.585  13.507
23328W        W95753  18.633  24.416  11.330
23329W        W95754  39.343  19.798  11.507
23330W        W95755  31.968  27.206  12.942
23331W        W95756   6.273  23.171  13.048
23332W        W95757   4.337   2.689   4.590
23333W        W95758   2.293  26.184  13.447
23334W        W95759  39.807  11.857   2.781
23335W        W95760  42.448  29.582   3.636
23336W        W95761  37.542  25.008   4.710
23337W        W95762  27.381  30.848   3.570
23338W        W95763  21.836  32.933  14.703
23339W        W95764  12.999  18.725   4.237
23340W        W95765   9.283   8.158   1.780
23341W        W95766  30.399  24.218   2.348
23342W        W95767  16.211  21.560   4.628
23343W        W95768  18.284  33.164  14.304
23344W        W95769  44.240  11.801   4.179
23345W        W95770  18.550  24.576  11.807
23346W        W95771  39.484  13.856  11.044
23347W        W95772  18.434  20.960   3.959
23348W        W95773  36.563   3.629   3.630
23349W        W95774  41.085   0.478  14.770
23350W        W95775   3.358  13.999  10.124
23351W        W95776   5.975  30.433  13.973
23352W        W95777  36.934  20.045  13.432
23353W        W95778   2.388  39.533  14.323
23354W        W95779  18.904  10.673  12.461
23355W        W95780  30.577  27.848  11.116
23356W        W95781  31.213  34.600   3.947
23357W        W95782  34.578  44.195   1.840
23358W        W95783  39.961  39.626   2.333
23359W        W95784  27.193  27.100  10.568
23360W        W95785  36.440   0.395  11.760
23361W        W95786  31.672  24.039   2.913
23362W        W95787  15.259  44.429   3.921
23363W        W95788   9.885  12.826  12.968
23364W        W95789  43.242   2.945   3.657
23365W        W95790   7.035  37.525   5.081
23366W        W95791  36.351  19.679   0.337
23367W        W95792   8.636  29.438  14.697
23368W        W95793  28.929  40.010  10.691
23369W        W95794  44.701  41.329   1.372
23370W        W95795  16.388  32.625   2.846
23371W        W95796  16.138  39.861   3.362
23372W        W95797  22.731  18.294   1.282
23373W        W95798  27.938  31.226   0.728
23374W        W95799  36.416  35.478   0.309
23375W        W95800  35.530  33.431   3.266
23376W        W95801   5.161  38.112   1.238
23377W        W95802  11.454  15.544  12.407
23378W        W95803   6.366  26.710   3.556
23379W        W95804  23.612   4.842   0.778
23380W        W95805  30.989  18.765   4.532
23381W        W95806  32.657  20.530   3.903
23382W        W95807  14.553  34.609  12.437
23383W        W95808  28.017   9.342  13.060
23384W        W95809  23.308  14.093   2.252
23385W        W95810  38.903  31.000   1.875
23386W        W95811  38.547  34.858   3.120
23387W        W95812  43.402  40.829   4.406
23388W        W95813  10.269   4.280   3.400
23389W        W95814  13.036  38.004   0.793
23390W        W95815   8.611   6.415   0.429
23391W        W95816  18.033  13.180  10.935
23392W        W95817   9.709   9.513   5.005
23393W        W95818  32.294  25.987   2.353
23394W        W95819   9.880  18.863  12.406
23395W        W95820  16.116   1.927   1.818
23396W        W95821  34.409  43.943   2.877
23397W        W95822  30.413   9.067   3.675
23398W        W95823  39.553  18.767   2.723
23399W        W95824  35.916  13.741  13.040
23400W        W95825  29.535  14.212  14.887
23401W        W95826  17.701   5.939   2.892
23402W        W95827  11.619  14.931   4.187
23403W        W95828  18.796  39.586  11.612
23404W        W95829  42.431   5.083  12.894
23405W        W95830  39.678  15.214  11.109
23406W        W95831  27.051   3.224   2.108
23407W        W95832  12.421  40.031   4.095
23408W        W95833  41.187  28.295  13.834
23409W        W95834  17.393  21.739   2.567
23410W        W95835   3.369  28.632  14.757
23411W        W95836  11.177   9.264  14.949
23412W        W95837  11.648  17.845   1.272
23413W        W95838  36.987  35.135   2.750
23414W        W95839  33.067  33.079  10.638
23415W        W95840   3.755  37.379  10.970
23416W        W95841  24.599  38.798   3.722
23417W        W95842  21.991  19.959  10.708
23418W        W95843   3.959  39.357   1.755
23419W        W95844  37.913  20.141  11.577
23420W        W95845  43.664  18.954   1.342
23421W        W95846  43.598  20.621   1.995
23422W        W95847  39.857   6.938   0.388
23423W        W95848  29.689  20.260  10.682
23424W        W95849  34.333  17.294  11.586
23425W        W95850  42.663  40.047   4.495
23426W        W95851  16.614  35.051  14.843
23427W        W95852  40.503  14.583   0.364
23428W        W95853  10.613   6.692  10.737
23429W        W95854  35.873  14.192  13.311
23430W        W95855  43.879  27.025   4.498
23431W        W95856  23.270  18.225   2.660
23432W        W95857  10.316  44.558   1.527
23433W        W95858  15.274  35.979   4.991
23434W        W95859   1.607  38.822   2.357
23435W        W95860  14.349  31.581  11.545
23436W        W95861  18.880  14.095   2.757
23437W        W95862  24.728   7.108   4.546
23438W        W95863  34.948  19.869  13.994
23439W        W95864  12.729   7.904   1.561
23440W        W95865  20.640  44.507  11.276
23441W        W95866  18.277  26.478  13.423
23442W        W95867  18.704  27.914   3.609
23443W        W95868  40.346   4.885   1.389
23444W        W95869  36.663  22.559   2.434
23445W        W95870  18.676  40.049  13.341
23446W        W95871  34.960  36.341   1.247
23447W        W95872  33.021  44.745  11.991
23448W        W95873  41.996  19.073  10.634
23449W        W95874  24.131  11.840   3.346
23450W        W95875  28.857   0.040   3.696
23451W        W95876  11.162  15.852   5.029
23452W        W95877  34.349  18.205   2.681
23453W        W95878  14.810  25.407  12.891
23454W        W95879  17.441  38.704  13.998
23455W        W95880  23.985  29.747   4.079
23456W        W95881  33.943  24.550  10.711
23457W        W95882   3.948  14.779  14.819
23458W        W95883   3.876   5.771  13.847
23459W        W95884  26.790  10.159   5.205
23460W        W95885  39.387  40.921   3.333
23461W        W95886   3.313  12.773   1.397
23462W        W95887   4.104  29.271  10.880
23463W        W95888  31.381  33.026  13.889
23464W        W95889  27.546  34.524  11.385
23465W        W95890  23.715  24.427   4.941
23466W        W95891  36.145  10.308   0.773
23467W        W95892   1.365  10.278   3.319
23468W        W95893  13.788  37.353  14.688
23469W        W95894  29.854  34.843   2.849
23470W        W95895  39.413   7.419   1.802
23471W        W95896  26.174  26.554   2.898
23472W        W95897  21.055  14.377   3.316
23473W        W95898  13.201  28.127  11.621
23474W        W95899  15.746  30.427  10.621
23475W        W95900  37.477  13.236   4.585
23476W        W95901  16.463  27.086  14.254
23477W        W95902  27.289   6.616   0.365
23478W        W95903  11.112   8.791  14.185
23479W        W95904  15.269  35.905  13.869
23480W        W95905  32.586  29.695   4.210
23481W        W95906  44.584  44.328   1.762
23482W        W95907  15.292  10.807   3.405
23483W        W95908  19.617   1.812   0.645
23484W        W95909  13.037   6.293  11.752
23485W        W95910   0.185  32.487   3.050
23486W        W95911   6.353  23.502   3.424
23487W        W95912  20.797  23.922   2.855
23488W        W95913  20.850  44.369   4.381
23489W        W95914  35.825  28.017  13.860
23490W        W95915  41.880  31.908  12.969
23491W        W95916  11.637   6.757  12.285
23492W        W95917  31.662   8.419   4.017
23493W        W95918  11.157  28.705   2.579
23494W        W95919  20.090  13.662  14.753
23495W        W95920  25.186  30.006   3.105
23496W        W95921  31.593  16.487  12.556
23497W        W95922  39.902  34.647   4.465
23498W        W95923  36.418  27.384  12.880
23499W        W95924  27.868  34.980   1.019
23500W        W95925  11.703  42.311  11.692
23501W        W95926  15.671  11.349  10.915
23502W        W95927  24.086  24.169   0.344
23503W        W95928  29.688  33.577  13.534
23504W        W95929  37.552  20.122   1.376
23505W        W95930  30.728  21.610  14.202
23506W        W95931  35.663  28.662  14.480
23507W        W95932  19.563  27.105  14.670
23508W        W95933  37.853  18.519   3.666
23509W        W95934  39.276  41.954  13.989
23510W        W95935  30.495  36.781   3.303
23511W        W95936  38.415  25.717   3.738
23512W        W95937  36.269   9.157  10.643
23513W        W95938  39.223  23.552  14.395
23514W        W95939   2.595  40.996   0.447
23515W        W95940  14.027  39.309  14.791
23516W        W95941  24.006  38.325   3.438
23517W        W95942  29.722  27.657  12.384
23518W        W95943  34.111   5.890  11.120
23519W        W95944  23.053  26.998   3.090
23520W        W95945  31.573  43.199  12.893
23521W        W95946  43.646   2.307   2.129
23522W        W95947   6.872  42.714  11.207
23523W        W95948  32.488  10.317   1.584
23524W        W95949  29.472  16.383  14.062
23525W        W95950  24.149  17.771  11.126
23526W        W95951  36.881  21.773   3.305
23527W        W95952  17.665  14.896  12.495
23528W        W95953  18.389  30.590   0.738
23529W        W95954   2.305  39.869   3.623
23530W        W95955  17.611   5.899  12.367
23531W        W95956  13.757   3.963  14.165
23532W        W95957   3.880  40.296   0.981
23533W        W95958  27.035  31.047  10.781
23534W        W95959  41.599  32.795  14.055
23535W        W95960   7.862   7.202  12.627
23536W        W95961  37.914  34.173   4.582
23537W        W95962  23.632  18.278  12.512
23538W        W95963  40.000  17.011   3.338
23539W        W95964  10.443   3.753   2.460
23540W        W95965  22.922  43.778   3.846
23541W        W95966   6.609  17.720   4.554
23542W        W95967   8.687   7.333  11.573
23543W        W95968  42.507   2.201  12.464
23544W        W95969  27.609  28.615   3.891
23545W        W95970  24.206   1.289   3.803
23546W        W95971  12.330   3.865  11.704
23547W        W95972   3.226  41.091   0.623
23548W        W95973  38.430   2.031  14.379
23549W        W95974   8.243  19.569   0.766
23550W        W95975  40.883  25.635   1.338
23551W        W95976  39.372  21.539   1.038
23552W        W95977  21.565  39.429  13.318
23553W        W95978  11.421  23.212   2.696
23554W        W95979  10.344   7.166  11.940
23555W        W95980  13.137  23.163   3.300
23556W        W95981  23.181  13.888   0.050
23557W        W95982   7.192  21.231  13.831
23558W        W95983  10.416  41.930  12.468
23559W        W95984  19.771  35.532  13.211
23560W        W95985  27.449  28.593   2.832
23561W        W95986  33.549   4.279   0.433
23562W        W95987  18.645  17.186   5.268
23563W        W95988  23.284  17.319  13.280
23564W        W95989  42.876  40.503   3.706
23565W        W95990  36.746  28.100  11.471
23566W        W95991  10.483  28.448   0.883
23567W        W95992  44.353   3.963   3.177
23568W        W95993  36.634   1.942   0.321
23569W        W95994   2.423   4.844  10.759
23570W        W95995  37.017  41.351   2.892
23571W        W95996   6.813  13.861  11.317
23572W        W95997  39.309   3.646   0.890
23573W        W95998  32.423  17.584  14.814
23574W        W95999  23.492  42.836   1.373
23575W        W96000   6.347  13.952   2.450
23576W        W96001  22.057  30.865   0.428
23577W        W96002  20.014  19.834   3.574
23578W        W96003  24.481  31.521  10.804
23579W        W96004  37.961  21.460   1.429
23580W        W96005  28.145  10.710   2.625
23581W        W96006  26.018  27.109   3.113
23582W        W96007  10.826  43.601  11.929
23583W        W96008   2.183   7.754  13.868
23584W        W96009   6.748  14.259   3.678
23585W        W96010  37.318  12.957   4.194
23586W        W96011  25.983  43.810  10.965
23587W        W96012  10.372  36.609  14.847
23588W        W96013   6.784  20.050  11.619
23589W        W96014  26.855  20.627   0.014
23590W        W96015  44.541  21.653  10.710
23591W        W96016  22.265   5.884   1.143
23592W        W96017  18.532  42.868  10.641
23593W        W96018   7.414  11.203  10.667
23594W        W96019   3.512  12.698   0.663
23595W        W96020  36.968  19.101  14.322
23596W        W96021  13.907   5.715  11.144
23597W        W96022  43.247   8.374   1.256
23598W        W96023  40.868  43.313   1.339
23599W        W96024  43.371  41.338  12.224
23600W        W96025  26.416  16.851   2.062
23601W        W96026   8.898  40.558  13.743
23602W        W96027  29.920  31.163   4.798
23603W        W96028   9.970  43.363  13.531
23604W        W96029  34.519  39.285   4.564
23605W        W96030  11.098   6.699  10.592
23606W        W96031  19.145  29.048   1.896
23607W        W96032  44.477  38.887  11.067
23608W        W96033  10.863  25.887  13.965
23609W        W96034  23.322  35.631   1.161
23610W        W96035   8.911  10.373   1.314
23611W        W96036  42.463   3.638  11.193
23612W        W96037  38.801   6.742   1.871
23613W        W96038  13.240  43.034   9.723
23614W        W96039  25.012  16.366  11.207
23615W        W96040   7.762  18.451   0.974
23616W        W96041   4.940   8.096   3.756
23617W        W96042   5.109  17.438  11.016
23618W        W96043  13.619  44.252  14.999
23619W        W96044   4.914  31.497   0.432
23620W        W96045  17.066  29.070  10.376
23621W        W96046   1.424  34.879  11.958
23622W        W96047  11.807  40.872  11.707
23623W        W96048  44.841  30.860   2.380
23624W        W96049  14.781  37.800   2.359
23625W        W96050  29.079  15.185   3.740
23626W        W96051  30.209   0.387   2.841
23627W        W96052   9.557  29.507   0.481
23628W        W96053   6.197  26.441   4.848
23629W        W96054  43.906   2.159  13.241
23630W        W96055  10.447  11.890  11.138
23631W        W96056  24.050  44.026   1.359
23632W        W96057  39.505  37.370   1.295
23633W        W96058  12.210  10.658   2.213
23634W        W96059  15.534  42.857   9.989
23635W        W96060  20.683  30.921   0.505
23636W        W96061  33.799  28.248  11.521
23637W        W96062  20.754  43.368  11.299
23638W        W96063  10.204  16.313   0.648
23639W        W96064  20.056   4.657   4.101
23640W        W96065  22.369  18.303  11.066
23641W        W96066   5.775  35.784   4.221
23642W        W96067  42.246   0.402   4.350
23643W        W96068   4.196  18.746  12.397
23644W        W96069  14.580  21.672   1.872
23645W        W96070  15.079  21.929   0.023
23646W        W96071   0.064  22.614   2.992
23647W        W96072  36.522  32.415  13.447
23648W        W96073  23.094   9.895  10.177
23649W        W96074   7.108  36.546  12.102
23650W        W96075  33.488  34.054  10.706
23651W        W96076  21.092  24.158  12.661
23652W        W96077  41.320  11.360   4.593
23653W        W96078  15.047  19.085  14.991
23654W        W96079  26.580   8.335   0.840
23655W        W96080  42.392  10.571  11.341
23656W        W96081  30.934  34.146  14.264
23657W        W96082  42.564  14.080  13.357
23658W        W96083   7.962  22.050  13.976
23659W        W96084   9.768  29.391  12.526
23660W        W96085   1.343  24.686   1.404
23661W        W96086  20.221  23.778   0.868
23662W        W96087  19.045  42.634   4.419
23663W        W96088  11.128   3.670   2.927
23664W        W96089  34.456  37.366  12.632
23665W        W96090  35.464   1.493   1.312
23666W        W96091   6.841   9.421  14.409
23667W        W96092  41.924  43.518   3.728
23668W        W96093  17.346  19.316  12.157
23669W        W96094  38.939  13.110  11.863
23670W        W96095  24.749   1.750   2.155
23671W        W96096  32.529  22.427   4.274
23672W        W96097  41.789  32.474  13.711
23673W        W96098  29.964   5.489   2.802
23674W        W96099   8.624   0.016  13.031
23675W        W96100  15.744  32.352  12.413
23676W        W96101  29.430   2.175   1.460
23677W        W96102  29.069   0.025  14.071
23678W        W96103  35.566  32.512  12.093
23679W        W96104  11.250  22.564   3.558
23680W        W96105  28.467   2.740   4.108
23681W        W96106  41.557  44.377   4.969
23682W        W96107   3.078  30.306  11.477
23683W        W96108  32.651   7.438   4.288
23684W        W96109  20.701  13.761   4.743
23685W        W96110  43.762   6.909  11.071
23686W        W96111  32.044  44.901   1.626
23687W        W96112  16.320  11.248   4.231
23688W        W96113  38.621  10.753  13.783
23689W        W96114  27.952  33.840  11.518
23690W        W96115  10.933   4.412  12.064
23691W        W96116  32.564  38.655  11.250
23692W        W96117  31.612  17.779  14.325
23693W        W96118  36.507   9.268   0.214
23694W        W96119  24.684  28.437  11.548
23695W        W96120   0.997  39.598   1.323
23696W        W96121  11.332  26.681   4.388
23697W        W96122  11.073  21.091  12.484
23698W        W96123  23.992  31.866   3.175
23699W        W96124  20.924  40.169  12.710
23700W        W96125  40.951  21.599   4.461
23701W        W96126  43.064  33.404  11.172
23702W        W96127  39.598  42.732  10.152
23703W        W96128  19.749  27.694   1.507
23704W        W96129  30.515  44.834   0.327
23705W        W96130  32.503   5.433  13.165
23706W        W96131  14.075  31.576  13.142
23707W        W96132  43.435  34.813   1.546
23708W        W96133  30.140  34.504  12.012
23709W        W96134  21.036  35.387   3.436
23710W        W96135  42.251   7.010   2.588
23711W        W96136   8.607  15.775   2.169
23712W        W96137  10.435  16.371   1.627
23713W        W96138   4.936  25.570  12.136
23714W        W96139  20.518   3.301   2.642
23715W        W96140  39.970  18.709  11.027
23716W        W96141   6.600  10.703  11.528
23717W        W96142  41.081   3.811   1.428
23718W        W96143   1.291  28.386   1.229
23719W        W96144  23.555  20.704   0.852
23720W        W96145   6.465   1.759   5.012
23721W        W96146  32.185  28.835  11.597
23722W        W96147   4.343  44.582  14.907
23723W        W96148   1.752  25.191  14.247
23724W        W96149  29.199  22.029   2.414
23725W        W96150  39.634  39.832  12.840
23726W        W96151   3.361  37.947  13.489
23727W        W96152   4.280  31.120  11.988
23728W        W96153  22.553  18.984   2.962
23729W        W96154  15.386  19.064  11.099
23730W        W96155  12.336   0.814  10.569
23731W        W96156  27.428  27.611   0.452
23732W        W96157  14.552  42.840  13.027
23733W        W96158  21.551  35.653   3.309
23734W        W96159  32.461  22.839  11.706
23735W        W96160   7.060  30.559  13.207
23736W        W96161   1.181  14.587  14.942
23737W        W96162  12.960  33.129   0.936
23738W        W96163   7.984  26.179   0.138
23739W        W96164  44.874  37.287  12.503
23740W        W96165  18.453  41.594  10.267
23741W        W96166  16.250  41.837   0.497
23742W        W96167  40.287  31.506   2.660
23743W        W96168  17.271  11.133  13.446
23744W        W96169  27.740  10.712   1.222
23745W        W96170  33.567   0.253  13.860
23746W        W96171   7.460  26.798  12.463
23747W        W96172   1.935  44.837  11.759
23748W        W96173  25.171  22.180   2.810
23749W        W96174   9.311  43.366  10.935
23750W        W96175  42.614  18.787   1.475
23751W        W96176  44.016  34.133  14.434
23752W        W96177   3.383  42.171   1.851
23753W        W96178  35.551  11.748   3.818
23754W        W96179  28.092   3.610  10.665
23755W        W96180  12.141  44.504   1.614
23756W        W96181  41.476  31.708   4.236
23757W        W96182  24.115  17.578   0.544
23758W        W96183  43.534   7.107  11.556
23759W        W96184  13.091   3.414   2.771
23760W        W96185  26.531  14.897  13.480
23761W        W96186   7.425  12.816   9.813
23762W        W96187  26.688  21.644   3.910
23763W        W96188   4.402   9.128   3.572
23764W        W96189  16.320  21.659   1.427
23765W        W96190   0.872  17.605   0.751
23766W        W96191   1.863   8.584   0.676
23767W        W96192  25.665   0.198  12.512
23768W        W96193  17.793  16.748  10.669
23769W        W96194   9.923   2.522   1.153
23770W        W96195  34.021  23.119   2.622
23771W        W96196  23.002  26.262   2.430
23772W        W96197  29.116  30.447   1.330
23773W        W96198  18.168  36.851  14.461
23774W        W96199   7.063  25.776  13.905
23775W        W96200   0.230  26.613   0.762
23776W        W96201  17.405  27.402  14.845
23777W        W96202  14.496   2.159  13.024
23778W        W96203   7.364  30.705   0.859
23779W        W96204  39.976   0.979   2.216
23780W        W96205   7.590   1.226   2.219
23781W        W96206  41.272  27.151   0.092
23782W        W96207  41.544   7.920  13.060
23783W        W96208   2.166  28.663   0.223
23784W        W96209  40.071   2.559  10.782
23785W        W96210  18.763  42.494  12.422
23786W        W96211  22.133  44.179  13.563
23787W        W96212  20.995  22.573  10.509
23788W        W96213   9.013  16.267  10.346
23789W        W96214  42.877  18.220  13.771
23790W        W96215  27.395  10.397   2.280
23791W        W96216  14.528   6.446   3.806
23792W        W96217  35.998  11.235  10.681
23793W        W96218  11.764   1.813   3.601
23794W        W96219  37.348  27.624   2.974
23795W        W96220   1.369   4.335   2.275
23796W        W96221   2.431  28.140  13.961
23797W        W96222   8.126  17.579   3.184
23798W        W96223  20.007  36.077   1.359
23799W        W96224  19.555  24.266   4.187
23800W        W96225  10.481  12.382  12.431
23801W        W96226  36.848   7.407   1.391
23802W        W96227  36.780   8.986  12.965
23803W        W96228  20.358  31.089   4.003
23804W        W96229   6.379  40.176  14.571
23805W        W96230  37.563   8.628   0.371
23806W        W96231  41.577  43.857  11.702
23807W        W96232  24.732  24.298   2.245
23808W        W96233  22.026  34.868   4.634
23809W        W96234  10.964  35.927  13.312
23810W        W96235  14.046   7.982  12.015
23811W        W96236   5.400   0.868   1.344
23812W        W96237  13.621  15.069  11.598
23813W        W96238  22.741  14.798   4.603
23814W        W96239  24.568  38.968  12.639
23815W        W96240  41.737   2.950  12.056
23816W        W96241  39.471  32.478  14.253
23817W        W96242  25.943   1.422   0.039
23818W        W96243  26.198   3.720  13.334
23819W        W96244  34.899  29.983   3.135
23820W        W96245  19.349   5.761   1.375
23821W        W96246  34.454  38.371  12.519
23822W        W96247   4.435  26.938   1.695
23823W        W96248   8.119  12.606  12.642
23824W        W96249  44.910   9.438   4.579
23825W        W96250  36.812  32.056   4.390
23826W        W96251  40.878   7.158  13.174
23827W        W96252   6.702  35.691  10.025
23828W        W96253  21.209  10.624  11.634
23829W        W96254  38.346   9.923   2.905
23830W        W96255  40.532  21.038   4.225
23831W        W96256  14.416   4.070   3.559
23832W        W96257   4.805   7.369   1.761
23833W        W96258  34.188   8.961  12.516
23834W        W96259  30.299  27.486   0.389
23835W        W96260  39.338   5.964  13.942
23836W        W96261  15.813  38.433   1.314
23837W        W96262  41.618  14.420  13.647
23838W        W96263   9.412  44.639  12.592
23839W        W96264  29.354  44.012   3.661
23840W        W96265  26.762  31.590  13.514
23841W        W96266   3.309  42.193   4.610
23842W        W96267  26.579  37.767   5.226
23843W        W96268  16.597  19.624  11.912
23844W        W96269   6.313   2.058  14.909
23845W        W96270  27.918  19.204   2.438
23846W        W96271   8.312  28.612  11.621
23847W        W96272  18.806  21.777  14.773
23848W        W96273  39.907  20.162   2.464
23849W        W96274  14.517  21.639  12.439
23850W        W96275  22.739   7.079   3.735
23851W        W96276  12.522  26.933   4.289
23852W        W96277   6.236  27.396   1.783
23853W        W96278  11.948  14.853  11.147
23854W        W96279  10.795   7.386  12.066
23855W        W96280   9.884  33.955   1.926
23856W        W96281   4.843  40.326  13.753
23857W        W96282  27.168  17.802  13.941
23858W        W96283  23.886  33.963  11.539
23859W        W96284  16.251  24.208  11.906
23860W        W96285  14.039   5.166  12.880
23861W        W96286  32.031  35.864   3.771
23862W        W96287   3.393  15.674  12.069
23863W        W96288  32.558  23.114   0.016
23864W        W96289   6.527  41.948  13.743
23865W        W96290  24.729   7.682  12.596
23866W        W96291   3.307  19.092   2.361
23867W        W96292  40.643   7.259  11.441
23868W        W96293  33.661  13.055   2.705
23869W        W96294  31.061  27.173  10.291
23870W        W96295  19.238  19.745   4.614
23871W        W96296  34.988   3.247   1.733
23872W        W96297  22.299  34.452   3.496
23873W        W96298   6.328  39.809  11.137
23874W        W96299   8.318   6.450  12.605
23875W        W96300  33.616  36.352  14.523
23876W        W96301  11.715   5.831   1.529
23877W        W96302  19.176   1.861  12.493
23878W        W96303  43.475   8.901   4.144
23879W        W96304  37.437  38.640   0.357
23880W        W96305   7.376  30.706  10.658
23881W        W96306   7.281  15.106  12.469
23882W        W96307  26.950  16.018   3.244
23883W        W96308  15.428   5.236   2.310
23884W        W96309  39.541   3.504   5.176
23885W        W96310  32.917  32.502  10.699
23886W        W96311  22.179   4.080   2.976
23887W        W96312  31.970  18.450   1.312
23888W        W96313  16.750  42.314  11.088
23889W        W96314  25.594  37.582   5.006
23890W        W96315  15.850   1.009  13.608
23891W        W96316  16.832   7.215  10.457
23892W        W96317  19.859  27.562  11.612
23893W        W96318   8.934  32.574   4.778
23894W        W96319  10.502  13.686  12.426
23895W        W96320  36.834  23.612   2.258
23896W        W96321  43.230   9.266  13.499
23897W        W96322  43.407  19.557   4.431
23898W        W96323  12.200  18.206  12.046
23899W        W96324  38.889  11.175  11.750
23900W        W96325  28.089  42.436   1.373
23901W        W96326  37.022  42.496  14.866
23902W        W96327  11.391  10.832  10.656
23903W        W96328  19.751  34.628  13.876
23904W        W96329  42.994  18.561   2.779
23905W        W96330  38.981  13.733   1.846
23906W        W96331   9.202  25.038   1.846
23907W        W96332  12.845  10.153   2.779
23908W        W96333  40.479  30.896  10.716
23909W        W96334  20.250  12.936  10.977
23910W        W96335   7.345  26.984  10.654
23911W        W96336  12.267  42.364  13.429
23912W        W96337  21.734  44.985   3.330
23913W        W96338  11.140  42.839   3.251
23914W        W96339   6.875  10.605   0.749
23915W        W96340  38.879  43.904  12.131
23916W        W96341  29.189  40.499   1.162
23917W        W96342   8.784  17.788  14.468
23918W        W96343  36.563  12.819  13.874
23919W        W96344   3.757  22.343  12.604
23920W        W96345   6.808  39.444   0.934
23921W        W96346  27.153   3.783  12.381
23922W        W96347  32.296  12.684  11.032
23923W        W96348   4.351  36.644  12.883
23924W        W96349  15.826  16.247   4.554
23925W        W96350  25.948  36.452  10.630
23926W        W96351  31.731   9.349  13.086
23927W        W96352  14.448  24.633  11.228
23928W        W96353   6.457  30.841   1.925
23929W        W96354  38.076  17.162   2.276
23930W        W96355   3.650  20.076   4.511
23931W        W96356  37.536  33.781   3.649
23932W        W96357  42.593  20.614  12.548
23933W        W96358  16.728  31.970   0.041
23934W        W96359  32.045  13.355   3.772
23935W        W96360  29.128  38.097  12.969
23936W        W96361  30.938  39.307   2.310
23937W        W96362  24.085  44.878  13.869
23938W        W96363   1.466  40.049   1.884
23939W        W96364   7.644  34.018  14.048
23940W        W96365   9.349  29.832  11.098
23941W        W96366  32.948  32.958   2.759
23942W        W96367  11.893  22.999   2.816
23943W        W96368  44.076  43.379  11.056
23944W        W96369  11.770  30.687   0.319
23945W        W96370  19.937  30.430   0.126
23946W        W96371  17.943   9.392  13.771
23947W        W96372  22.201  20.050   2.939
23948W        W96373  22.199  28.495  13.070
23949W        W96374  20.963  25.323  11.999
23950W        W96375   5.410  39.485   3.074
23951W        W96376   2.277  12.115   4.096
23952W        W96377   5.392  34.849   4.050
23953W        W96378  37.988  41.472   0.902
23954W        W96379   2.462  20.520   1.884
23955W        W96380  36.512  34.519  10.999
23956W        W96381  31.629  10.973   1.415
23957W        W96382  12.170  11.849  14.395
23958W        W96383   4.648  40.207   3.211
23959W        W96384  17.639  37.771  13.609
23960W        W96385  26.458   9.996   1.385
23961W        W96386  11.331   8.623   3.169
23962W        W96387  35.484   4.012   0.392
23963W        W96388  19.786  43.011   4.487
23964W        W96389  23.195  43.486   1.137
23965W        W96390  30.503  14.047   3.241
23966W        W96391   3.521   2.244  11.077
23967W        W96392  26.494  28.256   1.771
23968W        W96393   8.169   1.370  11.856
23969W        W96394  14.756   3.189   2.215
23970W        W96395  27.969  12.320   4.167
23971W        W96396  17.329  35.830   4.590
23972W        W96397  40.799  39.718  13.568
23973W        W96398   9.420   2.449   1.419
23974W        W96399   9.328   3.997   2.729
23975W        W96400  17.375   5.912   4.877
23976W        W96401  10.251  10.299  13.163
23977W        W96402  27.944  39.295  12.048
23978W        W96403  18.800  30.290   1.021
23979W        W96404  22.539  27.980  14.319
23980W        W96405  44.463  17.299   0.229
23981W        W96406  18.357   2.697   3.161
23982W        W96407  27.192  23.002  14.071
23983W        W96408   9.352  40.148  14.875
23984W        W96409  33.154  22.426  14.926
23985W        W96410  25.560  24.985  14.011
23986W        W96411  30.128  25.182  11.001
23987W        W96412   2.445  24.117  12.782
23988W        W96413  11.505  36.595  14.412
23989W        W96414   8.815   7.612   5.121
23990W        W96415  24.016  14.429   3.881
23991W        W96416  13.191  25.298   0.869
23992W        W96417   2.370   5.181  13.394
23993W        W96418  36.939  35.866   1.484
23994W        W96419  28.374  37.495  10.681
23995W        W96420  41.004   6.377  11.516
23996W        W96421   7.351   7.698  13.311
23997W        W96422  36.408  32.916  14.961
23998W        W96423  26.183   3.762   4.355
23999W        W96424  28.167  42.009  13.000
24000W        W96425  34.883  26.475   4.468
24001W        W96426  16.412  30.481   3.614
24002W        W96427  42.045  13.220  11.547
24003W        W96428   8.944   5.933   3.799
24004W        W96429  16.311  32.584   0.721
24005W        W96430   8.336  21.892   0.257
24006W        W96431  18.731  34.779   2.320
24007W        W96432  23.526  20.280  10.679
24008W        W96433  24.885  31.030  14.367
24009W        W96434  19.329  11.340   0.263
24010W        W96435  16.024   3.898   0.806
24011W        W96436  15.970   9.747   4.550
24012W        W96437  34.575   3.297  13.055
24013W        W96438  16.525  10.424  14.757
24014W        W96439  27.425  43.226   0.968
24015W        W96440  39.390  10.903  13.343
24016W        W96441   1.293  31.501  12.590
24017W        W96442  24.738  30.512   3.482
24018W        W96443  38.159  19.646  11.198
24019W        W96444  23.711  15.781  14.529
24020W        W96445  26.702  14.625   0.855
24021W        W96446   1.925  29.385   1.825
24022W        W96447   8.952   1.967   4.570
24023W        W96448  24.292   1.919  11.652
24024W        W96449  33.954  30.177  13.967
24025W        W96450   1.743  13.713   3.778
24026W        W96451  25.741   7.864   3.150
24027W        W96452  17.663  36.967   2.371
24028W        W96453  10.191   4.444   4.299
24029W        W96454   6.129  21.556  12.500
24030W        W96455  22.770  37.017   2.813
24031W        W96456  43.330  44.275  14.841
24032W        W96457  32.255   1.715   2.048
24033W        W96458  30.021  24.895   1.755
24034W        W96459   0.296  12.761   2.519
24035W        W96460  35.943  43.558  12.444
24036W        W96461  18.497  30.916  14.371
24037W        W96462  24.961  42.106  11.111
24038W        W96463  37.072  12.925  11.683
24039W        W96464  28.398  20.117   2.361
24040W        W96465  40.237  44.954  14.010
24041W        W96466  44.360  33.792   2.163
24042W        W96467  32.620  17.676  13.410
24043W        W96468  17.165  16.274  14.131
24044W        W96469  42.617  14.298  11.764
24045W        W96470  37.988  33.591  11.345
24046W        W96471  35.443  43.512   3.233
24047W        W96472  21.773  16.766  10.711
24048W        W96473  29.379  17.547   3.329
24049W        W96474   2.763   3.285  14.021
24050W        W96475  42.805  33.532   2.290
24051W        W96476  18.164  14.013   0.355
24052W        W96477  22.173  20.701  12.983
24053W        W96478  12.841  35.629  14.035
24054W        W96479   6.097  33.765   3.325
24055W        W96480  42.330  23.794   4.725
24056W        W96481  18.912  17.120   1.336
24057W        W96482  43.253  38.457   4.117
24058W        W96483   6.706  10.234   3.127
24059W        W96484  14.533  27.349  12.213
24060W        W96485  42.607  16.241   0.772
24061W        W96486  12.739   0.380  14.733
24062W        W96487  12.220  16.371   2.802
24063W        W96488  16.173  33.893   0.331
24064W        W96489  27.348  38.493   4.464
24065W        W96490  39.409  16.553   1.824
24066W        W96491  43.867  20.137   2.002
24067W        W96492  23.103   7.607   0.349
24068W        W96493   4.649  38.145   0.268
24069W        W96494  14.649  44.604   1.620
24070W        W96495  12.239  24.593  14.910
24071W        W96496  22.838  33.164   0.481
24072W        W96497   2.865  35.001   3.052
24073W        W96498  29.492  30.195  13.844
24074W        W96499  42.255  35.417  10.703
24075W        W96500  43.302  33.040  12.152
24076W        W96501  35.654  39.379   1.833
24077W        W96502  18.940  28.249  14.971
24078W        W96503  14.125  35.116  10.749
24079W        W96504  20.073  29.434   4.475
24080W        W96505   9.777   4.256   3.188
24081W        W96506  11.306  34.148  12.840
24082W        W96507   8.696   6.763   0.861
24083W        W96508  30.577  41.797  11.391
24084W        W96509   9.355  16.024   1.867
24085W        W96510   5.878  40.068  11.198
24086W        W96511  39.031   3.677  11.596
24087W        W96512   1.274  10.386  13.069
24088W        W96513  37.608  15.776   0.057
24089W        W96514  32.231  35.437  11.522
24090W        W96515  22.055  14.015  12.623
24091W        W96516  15.572  37.333  12.560
24092W        W96517  22.595  30.320   1.745
24093W        W96518  29.587  44.445  14.948
24094W        W96519   6.306  33.247   2.519
24095W        W96520  20.750  30.421   2.283
24096W        W96521  41.136  15.101  11.162
24097W        W96522  32.400  38.913  10.839
24098W        W96523  19.127  40.336   3.680
24099W        W96524  44.716  37.479   3.810
24100W        W96525   4.889   2.937  11.153
24101W        W96526  34.545  22.280  12.038
24102W        W96527  28.448   3.425  11.999
24103W        W96528  18.181  34.538  10.718
24104W        W96529  21.628   7.837  13.352
24105W        W96530   3.041  39.921  13.803
24106W        W96531   2.056  35.548  10.755
24107W        W96532  18.638  15.336  11.459
24108W        W96533   2.892  15.888  10.411
24109W        W96534   7.767  34.484  12.617
24110W        W96535  11.715  28.982   2.324
24111W        W96536  16.692  42.370   3.735
24112W        W96537  42.019  35.031   4.169
24113W        W96538   7.895   7.898   3.194
24114W        W96539  10.412  43.122   0.414
24115W        W96540  35.123   3.966   2.254
24116W        W96541  24.671  38.402   4.200
24117W        W96542   3.974  44.468  12.517
24118W        W96543  13.840  33.050   4.129
24119W        W96544  31.481  18.551  10.629
24120W        W96545  22.559   4.435   0.757
24121W        W96546  31.608   5.252  11.042
24122W        W96547   5.696  38.009   0.331
24123W        W96548  42.260  34.494  12.377
24124W        W96549  21.176  29.207  11.741
24125W        W96550   0.901  12.079   3.338
24126W        W96551  19.957   7.579  13.351
24127W        W96552   8.656  14.638   1.047
24128W        W96553  31.439  21.025  14.478
24129W        W96554  32.025  25.703   4.244
24130W        W96555  42.259   8.376   4.195
24131W        W96556  31.899  12.612  10.137
24132W        W96557  12.129  41.457  11.065
24133W        W96558  41.467  40.086   0.741
24134W        W96559   9.687   8.347  10.269
24135W        W96560   2.773  17.881  13.339
24136W        W96561  38.455   2.943   2.311
24137W        W96562   0.196   3.465   2.312
24138W        W96563  34.477  40.056   1.362
24139W        W96564   8.728  35.985  14.774
24140W        W96565   6.196  28.521   0.862
24141W        W96566  18.048  40.071   4.653
24142W        W96567   7.811   8.794  12.194
24143W        W96568  29.052  15.063  11.998
24144W        W96569  41.101  29.560   3.906
24145W        W96570   6.626   9.713   3.340
24146W        W96571  30.023  11.173  13.909
24147W        W96572  23.445  29.263  12.191
24148W        W96573  12.993  27.648   1.359
24149W        W96574  44.978   0.701   0.446
24150W        W96575  24.441  11.430   4.795
24151W        W96576   3.433  24.561   2.780
24152W        W96577   9.921   9.936  13.523
24153W        W96578  38.972  28.632   3.646
24154W        W96579  12.038  35.556  14.262
24155W        W96580  14.611  22.164  14.750
24156W        W96581  11.079  40.804   2.626
24157W        W96582   9.025  40.010   0.881
24158W        W96583  23.521  37.591   0.432
24159W        W96584  19.467   0.058   2.744
24160W        W96585   7.292  31.859   4.174
24161W        W96586  28.031   1.737   2.821
24162W        W96587  36.407  39.394  11.099
24163W        W96588  16.348   9.240   2.326
24164W        W96589  31.949  40.498   3.717
24165W        W96590   4.645  10.662   9.886
24166W        W96591  10.307  41.281   2.156
24167W        W96592   7.929  40.015   2.321
24168W        W96593   4.324  27.863   0.955
24169W        W96594  44.403   0.829   4.143
24170W        W96595  17.713  31.233  12.212
24171W        W96596  42.014  19.331  11.446
24172W        W96597  28.221  34.581   0.971
24173W        W96598   4.887   9.091  14.783
24174W        W96599  37.561  21.005   2.365
24175W        W96600  20.531  12.230  13.490
24176W        W96601  12.076  42.984   3.293
24177W        W96602   3.637  19.523   0.911
24178W        W96603  38.512   2.687   1.820
24179W        W96604  16.059  40.317  11.937
24180W        W96605  15.205  17.646  11.661
24181W        W96606  39.080  40.091   2.179
24182W        W96607   3.186  14.272  11.469
24183W        W96608  31.171  20.080  14.885
24184W        W96609  14.652  21.225  12.122
24185W        W96610  10.802  31.619   3.898
24186W        W96611  38.096  27.279   0.853
24187W        W96612  22.000  36.503  14.394
24188W        W96613  26.343  24.603  14.341
24189W        W96614  38.360  21.346   2.036
24190W        W96615  41.953  41.762  14.835
24191W        W96616   8.648  41.864  14.990
24192W        W96617  22.641  21.633   1.260
24193W        W96618  19.287  20.752  14.731
24194W        W96619  24.074  20.719   3.233
24195W        W96620  24.676   0.789  12.995
24196W        W96621  33.638  43.981   5.103
24197W        W96622   2.447  31.077  14.943
24198W        W96623  33.013  39.575   2.276
24199W        W96624  43.915  17.209   1.423
24200W        W96625  22.713  11.759  12.585
24201W        W96626  12.305  23.143   5.715
24202W        W96627  22.082  37.426   2.618
24203W        W96628  31.227  13.992   5.241
24204W        W96629  19.541   6.753   2.118
24205W        W96630  41.530  37.594  11.555
24206W        W96631  21.958  28.257   0.331
24207W        W96632  35.488  32.872  13.869
24208W        W96633  34.934  23.004   3.155
24209W        W96634  38.419   8.825   2.366
24210W        W96635  25.125  31.998  10.904
24211W        W96636  43.436   4.819   1.259
24212W        W96637  22.187  17.778  13.821
24213W        W96638   2.227  19.021   4.538
24214W        W96639  21.467  32.558  14.824
24215W        W96640   1.340  17.046   4.661
24216W        W96641  35.110  14.783  12.995
24217W        W96642  31.506  44.774   4.745
24218W        W96643   9.220  36.791  14.344
24219W        W96644  32.431   9.827  14.028
24220W        W96645   0.133  35.399  11.780
24221W        W96646  28.019  41.366  10.895
24222W        W96647   5.464  37.382  12.552
24223W        W96648   6.970  40.320  12.343
24224W        W96649   8.843  22.331  12.947
24225W        W96650  10.451  20.162   0.239
24226W        W96651  34.912  18.571   4.675
24227W        W96652  32.947  32.137   4.915
24228W        W96653  10.058  17.282   4.656
24229W        W96654   7.596  42.020   2.126
24230W        W96655   3.412   6.732   4.666
24231W        W96656  10.688  42.267   4.949
24232W        W96657   3.946   5.459   4.581
24233W        W96658   8.648  42.858  14.306
24234W        W96659  10.745  31.954   0.987
24235W        W96660  38.641  29.690   0.467
24236W        W96661   6.408   8.358   3.805
24237W        W96662  11.872  26.118  13.792
24238W        W96663  13.721   8.420   0.930
24239W        W96664  38.472  25.204  12.967
24240W        W96665  13.122  44.099   1.664
24241W        W96666  13.602  26.250  11.545
24242W        W96667  14.712  32.167   1.301
24243W        W96668  23.491  16.156  11.300
24244W        W96669   8.182   6.403  11.641
24245W        W96670   6.880  34.491  14.842
24246W        W96671  11.007  18.795  11.539
24247W        W96672   9.649  36.145   2.200
24248W        W96673  39.840  41.478  12.391
24249W        W96674  39.805   1.721   2.773
24250W        W96675  17.532   8.568  13.854
24251W        W96676  15.345   8.624  13.000
24252W        W96677   1.328  33.541   4.178
24253W        W96678   3.698  29.042   4.121
24254W        W96679  38.054  10.797  10.752
24255W        W96680  22.546  39.938  13.981
24256W        W96681  11.260  27.306  12.436
24257W        W96682  33.134  31.496   3.680
24258W        W96683  25.726   9.436   1.756
24259W        W96684  27.729   6.623  11.058
24260W        W96685  22.135  26.238   5.079
24261W        W96686  41.905   7.370   2.391
24262W        W96687  10.410  34.970  14.739
24263W        W96688  44.027   5.333  12.925
24264W        W96689  34.573  42.997   3.543
24265W        W96690  31.273   9.380  13.291
24266W        W96691  44.985  43.794  11.215
24267W        W96692  33.921  44.375  13.536
24268W        W96693  28.167  15.581  12.178
24269W        W96694  31.470  37.219  11.496
24270W        W96695  26.643  36.362  11.064
24271W        W96696  15.332   5.855   3.080
24272W        W96697   1.997  38.389   3.216
24273W        W96698  12.331  40.259   1.005
24274W        W96699  27.300   3.882  13.155
24275W        W96700   7.289   8.356  13.446
24276W        W96701  18.094  30.214   0.502
24277W        W96702  17.160  38.943   0.317
24278W        W96703  33.582   2.006   4.684
24279W        W96704  38.117   1.997  13.963
24280W        W96705  31.016  20.744   3.447
24281W        W96706  15.583  24.244   4.713
24282W        W96707  43.057  39.485   2.123
24283W        W96708  28.973  24.634  10.877
24284W        W96709  12.104  43.379  13.604
24285W        W96710   6.740  30.454  11.295
24286W        W96711  13.237  17.011   3.212
24287W        W96712  13.175  15.892  13.111
24288W        W96713   6.107  32.867  12.347
24289W        W96714   6.148  36.759   1.637
24290W        W96715   0.953  22.232  14.055
24291W        W96716  36.862  25.609   5.202
24292W        W96717  13.812   1.010   4.838
24293W        W96718  37.138  10.757   3.175
24294W        W96719  24.603  12.152   1.742
24295W        W96720  22.578   3.752  13.010
24296W        W96721  10.046  37.443  14.419
24297W        W96722  26.191  18.596   0.726
24298W        W96723  10.056  40.275  12.473
24299W        W96724   9.994   1.750   1.624
24300W        W96725  12.848  10.687  12.101
24301W        W96726  40.263   0.441   1.436
24302W        W96727   3.440  26.161  13.865
24303W        W96728   9.282   5.798   1.445
24304W        W96729  34.617  11.672  11.979
24305W        W96730  12.157  34.514  12.019
24306W        W96731  38.398  21.161   1.535
24307W        W96732  13.906  26.872   3.838
24308W        W96733  41.962  16.280   0.525
24309W        W96734  44.551  10.209   3.768
24310W        W96735  33.170  21.091   1.944
24311W        W96736   5.659   5.324   0.496
24312W        W96737  19.624  36.878   2.304
24313W        W96738  22.411  37.466  11.082
24314W        W96739  26.479  30.905  14.780
24315W        W96740  35.344  38.908   0.386
24316W        W96741  37.335  33.134   2.744
24317W        W96742   9.349  18.775  11.589
24318W        W96743  27.996  16.984   4.211
24319W        W96744  17.128  15.387   4.140
24320W        W96745  22.122  20.709  13.832
24321W        W96746  38.888  30.183  12.945
24322W        W96747  12.351  26.133   3.425
24323W        W96748   0.815  36.848   4.566
24324W        W96749  42.215  25.606   3.619
24325W        W96750  35.787  43.002  10.761
24326W        W96751  36.777  20.823  12.790
24327W        W96752  15.185  43.511  11.106
24328W        W96753   8.260  44.846  11.173
24329W        W96754   1.483  21.107   2.237
24330W        W96755   3.283  42.095   0.926
24331W        W96756   7.148  42.111   0.265
24332W        W96757   6.913   7.446  11.707
24333W        W96758   4.774  12.315   0.200
24334W        W96759  29.882   2.048  14.412
24335W        W96760  22.546  21.686   3.690
24336W        W96761   8.984  15.148   0.381
24337W        W96762   2.358  41.255  14.021
24338W        W96763   8.039  41.779  14.368
24339W        W96764   0.843  36.751   4.061
24340W        W96765  18.061  33.386   3.124
24341W        W96766   8.196  37.888   4.643
24342W        W96767  41.465  28.427   3.387
24343W        W96768  17.225   3.284  14.089
24344W        W96769   0.565   2.190  12.442
24345W        W96770  36.852  19.319  14.799
24346W        W96771  23.443  36.904   4.588
24347W        W96772  20.072  33.557   1.047
24348W        W96773  38.311  27.571   4.034
24349W        W96774  11.045   2.448  14.389
24350W        W96775  36.509  38.415   3.858
24351W        W96776  25.926   6.858  11.611
24352W        W96777   8.663   4.784  13.004
24353W        W96778  30.676  33.378  12.638
24354W        W96779  19.180  39.653  11.031
24355W        W96780  32.326   7.599   1.784
24356W        W96781  11.144   4.933  10.995
24357W        W96782  28.871   1.000   4.844
24358W        W96783  36.067  12.727  11.570
24359W        W96784  29.427  15.765   4.086
24360W        W96785  36.878  26.260   2.066
24361W        W96786  38.878  33.575  11.368
24362W        W96787  43.058  11.370   2.794
24363W        W96788  17.225   2.564   1.379
24364W        W96789  15.703  26.025   1.244
24365W        W96790  17.464   3.848   0.722
24366W        W96791  14.784  31.483  12.525
24367W        W96792   0.193  21.192  14.466
24368W        W96793  42.930  12.069  11.848
24369W        W96794  28.144  30.963   3.209
24370W        W96795   5.831  40.917   2.486
24371W        W96796   1.028   8.332  12.933
24372W        W96797  23.802  11.743   1.780
24373W        W96798  18.647  16.562  12.025
24374W        W96799  44.278  16.248   0.287
24375W        W96800  34.688  14.752   1.197
24376W        W96801   7.272   7.980   4.215
24377W        W96802  42.942   2.756   0.695
24378W        W96803   1.271  12.620  13.946
24379W        W96804  10.371  42.033   3.621
24380W        W96805   0.486   8.385  12.912
24381W        W96806  10.700  31.562  11.883
24382W        W96807  22.776  27.080  11.105
24383W        W96808  36.573   0.036   0.750
24384W        W96809   9.677  31.453  13.332
24385W        W96810  38.973  22.771   4.139
24386W        W96811  17.869   8.710   4.616
24387W        W96812  10.186  20.221   4.147
24388W        W96813  19.381  38.510   2.529
24389W        W96814   3.644   4.996   0.920
24390W        W96815  15.862   6.318   4.111
24391W        W96816  21.697   9.956   0.236
24392W        W96817  43.183  10.687  13.710
24393W        W96818  22.980  11.353  13.919
24394W        W96819   8.821  12.598   0.214
24395W        W96820  11.741  13.576  11.703
24396W        W96821  17.106  35.459  14.339
24397W        W96822  23.877  29.259   1.251
24398W        W96823  21.636  13.771   4.824
24399W        W96824  39.367  42.969  13.828
24400W        W96825   3.323   5.153  14.269
24401W        W96826  32.360  43.632  11.162
24402W        W96827  10.712  18.320  14.759
24403W        W96828  24.576  16.730   1.514
24404W        W96829  15.776  26.382   1.649
24405W        W96830  33.380  34.177   5.070
24406W        W96831   2.853  16.894  14.436
24407W        W96832  27.094  30.622   0.855
24408W        W96833  29.607  15.862  11.264
24409W        W96834  37.704  14.566  13.038
24410W        W96835  37.973  43.054  11.704
24411W        W96836  33.350  28.912  12.298
24412W        W96837   2.002  26.434   0.320
24413W        W96838  34.896   8.494  14.843
24414W        W96839  29.588  17.132   2.564
24415W        W96840   7.322  32.898  11.908
24416W        W96841  16.870  17.019  14.598
24417W        W96842  40.908   9.218   2.795
24418W        W96843  21.070  38.580   1.263
24419W        W96844  34.087  28.138   0.224
24420W        W96845  23.447  13.273   2.259
24421W        W96846  13.302   4.221  11.984
24422W        W96847  35.289  36.705  11.183
24423W        W96848  32.097  41.353   2.303
24424W        W96849   9.132  32.562  14.506
24425W        W96850  25.559   4.141   1.284
24426W        W96851  28.656  17.111   1.510
24427W        W96852   7.825  38.856   0.275
24428W        W96853  14.057  43.928  11.710
24429W        W96854  30.001  19.765   1.698
24430W        W96855   0.190  23.456  10.701
24431W        W96856  40.917  32.561   1.384
24432W        W96857  16.698  23.011   3.217
24433W        W96858   2.784  22.038  14.894
24434W        W96859   1.145  32.084  10.632
24435W        W96860  34.513  28.431   3.160
24436W        W96861  29.627  38.356  11.931
24437W        W96862  12.616   3.841   3.719
24438W        W96863   5.198  37.808   9.896
24439W        W96864  12.788  10.102   0.761
24440W        W96865  19.522   4.328   1.395
24441W        W96866  27.446  12.905  14.944
24442W        W96867  25.042  11.163  11.575
24443W        W96868  32.093  37.297   2.431
24444W        W96869  37.318  21.321   0.496
24445W        W96870   1.275  19.767   2.797
24446W        W96871   7.434  25.066  12.126
24447W        W96872   6.460  31.189  11.106
24448W        W96873  16.410  11.854   2.525
24449W        W96874  28.635  37.924   3.234
24450W        W96875  20.276  30.136   4.108
24451W        W96876  27.553  13.386  10.704
24452W        W96877  19.073  44.313   4.775
24453W        W96878  19.179  30.500  14.039
24454W        W96879   3.298  12.883   0.206
24455W        W96880  38.055  24.976   4.661
24456W        W96881   6.678  29.931   1.743
24457W        W96882  14.621  30.253  13.473
24458W        W96883  12.037   3.889  13.920
24459W        W96884  42.469  10.678   0.327
24460W        W96885  21.358  25.160  11.643
24461W        W96886  11.979   9.259   2.400
24462W        W96887  26.587   2.850   1.356
24463W        W96888  19.769   6.464  14.417
24464W        W96889   1.531  14.106   2.678
24465W        W96890  43.900  32.394  10.708
24466W        W96891  26.089  28.931  11.552
24467W        W96892  20.568  39.242  10.602
24468W        W96893  30.247  17.326   2.190
24469W        W96894  27.954  40.551  10.308
24470W        W96895  32.438  24.231   4.181
24471W        W96896  14.017  38.424   0.241
24472W        W96897  39.723  41.316   3.310
24473W        W96898  22.096  30.774  10.386
24474W        W96899  13.088  34.458  13.559
24475W        W96900   6.697  19.090  11.544
24476W        W96901  40.751  42.739   4.212
24477W        W96902  14.900  23.543   4.692
24478W        W96903  36.903  13.046  12.403
24479W        W96904   5.481  44.750   3.681
24480W        W96905  31.003   2.195  14.778
24481W        W96906  13.125  42.298   2.241
24482W        W96907  28.671  29.568  12.879
24483W        W96908   4.120  20.549   0.743
24484W        W96909  37.114  20.078   0.244
24485W        W96910  13.099   5.143  13.805
24486W        W96911  29.093   5.798  10.723
24487W        W96912  30.434  34.063  13.079
24488W        W96913  37.588  40.442  11.423
24489W        W96914  25.908  21.700   2.734
24490W        W96915  39.504  43.298  10.947
24491W        W96916  43.081  39.417   3.794
24492W        W96917  11.425  38.035   0.460
24493W        W96918  35.371  20.253   3.834
24494W        W96919  20.670  10.847   2.822
24495W        W96920  36.408   7.842  14.816
24496W        W96921  40.020  14.956   0.877
24497W        W96922  27.160   0.337  14.490
24498W        W96923   7.664  41.049   0.081
24499W        W96924  28.548  37.350  11.557
24500W        W96925  33.609  33.647   3.518
24501W        W96926  31.939  28.468   2.537
24502W        W96927   4.629  17.668   0.809
24503W        W96928  33.158  38.846   4.898
24504W        W96929  33.519   8.046  13.730
24505W        W96930  18.669  19.017   3.569
24506W        W96931   8.772  25.589   4.238
24507W        W96932  36.072   5.037  11.414
24508W        W96933  39.806  24.052  10.731
24509W        W96934  43.688  21.764   3.550
24510W        W96935  12.605  20.593  11.972
24511W        W96936  11.834   6.838  14.904
24512W        W96937   6.481  28.635  11.008
24513W        W96938   9.041  14.105  12.428
24514W        W96939  36.291  38.891  11.108
24515W        W96940  34.159   9.730  12.118
24516W        W96941  10.179  27.863   4.691
24517W        W96942  11.954  19.235  14.148
24518W        W96943  22.904  35.440  11.696
24519W        W96944   6.506  37.501   4.322
24520W        W96945  33.555   4.924  14.346
24521W        W96946  41.249  44.973   3.557
24522W        W96947  42.523   5.783   0.551
24523W        W96948   4.432   7.979  12.020
24524W        W96949  22.806  26.989  14.699
24525W        W96950  31.178   0.492  12.824
24526W        W96951  12.853  14.581  14.451
24527W        W96952  16.659  22.454   2.351
24528W        W96953  15.802  23.215  11.073
24529W        W96954  15.633   6.362  12.394
24530W        W96955  33.494  18.698   0.417
24531W        W96956  36.865   0.231   2.454
24532W        W96957  12.169  36.887  13.918
24533W        W96958  24.602  41.166  11.494
24534W        W96959  41.003  17.483   3.915
24535W        W96960  32.070   9.157   4.522
24536W        W96961  34.846  36.006   1.638
24537W        W96962   8.795  21.189  14.846
24538W        W96963  20.246  27.088   3.573
24539W        W96964  36.411  42.580   1.282
24540W        W96965   4.767  25.491   1.995
24541W        W96966   8.357  36.440  13.276
24542W        W96967   1.645  19.973  13.304
24543W        W96968  30.914   8.410   2.743
24544W        W96969  16.003  30.921   4.646
24545W        W96970  40.619   1.439   4.968
24546W        W96971   6.573  26.628  12.406
24547W        W96972  20.512  38.994  13.472
24548W        W96973   4.245  17.309  11.503
24549W        W96974   8.194  19.633  12.872
24550W        W96975  15.408  32.687   5.079
24551W        W96976   8.806   7.760  10.483
24552W        W96977   9.225  33.433   4.237
24553W        W96978   9.938  33.733   0.744
24554W        W96979  21.771  28.752  12.954
24555W        W96980  24.561   7.466   1.959
24556W        W96981  43.880  26.086   0.298
24557W        W96982  21.703  35.849  11.123
24558W        W96983   8.394  16.172  13.435
24559W        W96984  20.047   9.685  14.123
24560W        W96985  32.016   9.658   1.233
24561W        W96986  40.026  42.870   1.702
24562W        W96987  27.757  23.649   4.137
24563W        W96988  38.551  41.844   2.886
24564W        W96989   1.406  16.036  12.744
24565W        W96990  40.940  34.718  12.314
24566W        W96991  25.138  39.953   3.306
24567W        W96992  42.428   1.545  11.597
24568W        W96993  41.030  44.995  14.931
24569W        W96994  37.606  42.647  10.541
24570W        W96995  22.040  37.821  11.047
24571W        W96996   3.506  11.542  10.425
24572W        W96997  16.041  44.209   0.252
24573W        W96998  42.183   8.412  11.561
24574W        W96999  40.030  39.921  11.994
24575W        W97000   2.698  16.631  13.946
24576W        W97001  35.467  25.099  10.587
24577W        W97002  21.234  13.327  13.815
24578W        W97003  34.853  35.043   0.915
24579W        W97004  23.700   2.147   3.205
24580W        W97005  44.995   8.659  12.481
24581W        W97006  26.371   4.964   0.263
24582W        W97007  16.733  23.056  13.043
24583W        W97008   0.949  21.566  11.251
24584W        W97009   6.647  23.683  13.065
24585W        W97010   8.592   7.308   2.347
24586W        W97011  33.861   5.279   0.812
24587W        W97012  28.994  11.247   2.714
24588W        W97013   3.019  43.324   0.935
24589W        W97014  31.406  41.551  11.444
24590W        W97015  33.821  20.025  14.781
24591W        W97016  37.048  34.548  13.040
24592W        W97017  10.829  13.849   4.031
24593W        W97018   3.967  31.477  13.365
24594W        W97019   8.225   8.453  14.792
24595W        W97020  40.808  30.849   0.892
24596W        W97021  17.644   3.723   1.185
24597W        W97022  13.766  19.116   3.920
24598W        W97023  39.778   1.768  11.142
24599W        W97024  26.052   5.615   3.749
24600W        W97025  43.779  19.560   2.096
24601W        W97026  14.632  27.991   2.018
24602W        W97027   8.233  24.019   3.360
24603W        W97028  12.860  40.597  12.036
24604W        W97029  15.653  34.145  14.478
24605W        W97030  36.293  11.402  12.458
24606W        W97031  35.453  11.066   1.889
24607W        W97032  12.863  32.100   2.374
24608W        W97033  26.200  11.092  13.980
24609W        W97034  33.827  23.661   1.953
24610W        W97035  32.719  42.907   0.904
24611W        W97036  40.157  25.858  13.016
24612W        W97037   3.198  21.492   2.724
24613W        W97038   9.290  27.995   4.021
24614W        W97039   3.810   4.177   1.348
24615W        W97040  41.840  40.107  10.781
24616W        W97041  34.234  43.053   2.688
24617W        W97042   4.629  25.516   4.452
24618W        W97043  44.977  43.503   2.650
24619W        W97044  17.086  11.267   0.035
24620W        W97045  22.170   5.791  11.627
24621W        W97046  13.233  19.024   4.622
24622W        W97047  32.363  14.363  14.653
24623W        W97048  40.998  21.582   2.503
24624W        W97049   5.824  26.639   0.761
24625W        W97050  43.291  22.646   1.237
24626W        W97051  39.547  14.964  12.074
24627W        W97052  33.681  42.280   4.837
24628W        W97053   4.253  14.466   2.292
24629W        W97054   1.208  34.792   3.635
24630W        W97055  42.422  19.252   1.676
24631W        W97056  19.949   9.622   4.802
24632W        W97057  37.928  32.613  10.885
24633W        W97058  40.504  43.357   3.765
24634W        W97059  36.733  13.641   2.168
24635W        W97060   3.710   6.325   3.385
24636W        W97061  20.921   0.847  11.923
24637W        W97062  35.552  22.519   1.829
24638W        W97063  22.142   8.636   5.108
24639W        W97064  28.232  20.830   0.965
24640W        W97065  36.639   9.789  12.940
24641W        W97066  27.954   0.008   1.342
24642W        W97067  17.875   7.418   4.774
24643W        W97068  21.088  22.630   0.251
24644W        W97069   1.211  43.023  10.290
24645W        W97070  26.400  43.012  10.619
24646W        W97071  24.964  39.007   1.351
24647W        W97072  16.660  43.495   2.715
24648W        W97073  24.451  32.176   2.655
24649W        W97074  24.996   3.871   3.386
24650W        W97075  21.752  37.165  12.038
24651W        W97076  34.818  20.815   2.347
24652W        W97077   8.695  43.905   0.258
24653W        W97078  24.901  27.759  13.962
24654W        W97079   6.231  29.209   4.110
24655W        W97080   6.879  23.263   0.213
24656W        W97081  30.898  35.585  13.446
24657W        W97082  41.440   2.145  12.180
24658W        W97083  21.695  24.533   2.242
24659W        W97084  15.232  28.365  12.868
24660W        W97085  23.773  35.130   1.760
24661W        W97086  31.728   0.766  11.768
24662W        W97087  27.257  36.901   4.347
24663W        W97088  16.801  20.914   4.699
24664W        W97089  34.171  32.321  13.715
24665W        W97090   0.368  10.211   4.422
24666W        W97091  15.543  30.559   1.371
24667W        W97092  30.159  35.057   4.695
24668W        W97093  37.920   3.278  14.391
24669W        W97094  19.165  27.532   4.596
24670W        W97095  17.257   6.964  11.171
24671W        W97096  37.374  11.353   0.387
24672W        W97097  41.768  34.545   0.540
24673W        W97098  32.214  41.795   5.143
24674W        W97099  24.245  26.431   3.173
24675W        W97100  28.664   8.216   0.498
24676W        W97101  19.598  11.327  14.400
24677W        W97102   3.571  37.551   1.273
24678W        W97103  42.653  29.235  11.645
24679W        W97104  42.861  21.143   4.451
24680W        W97105   9.210   1.254   4.563
24681W        W97106  10.829  12.234  13.957
24682W        W97107  21.579   6.504  10.226
24683W        W97108  38.058  24.974   3.260
24684W        W97109  13.205  24.493  10.660
24685W        W97110  33.958   4.503   0.199
24686W        W97111  33.882   4.527   4.602
24687W        W97112  35.816   0.154  14.556
24688W        W97113  15.642  18.142   1.277
24689W        W97114  26.720  44.921   4.765
24690W        W97115  28.728  36.936   2.845
24691W        W97116   2.321  13.097  14.520
24692W        W97117  16.238  27.596  11.192
24693W        W97118  11.283   3.358  14.403
24694W        W97119  19.474  25.997   1.713
24695W        W97120  16.309  37.961   4.716
24696W        W97121  25.720   8.428   0.270
24697W        W97122   2.381  10.343   0.486
24698W        W97123   5.485  14.174  13.009
24699W        W97124  17.141  27.463  12.252
24700W        W97125  12.160  19.567   4.243
24701W        W97126  32.462  30.959  11.686
24702W        W97127   4.500  10.404  13.015
24703W        W97128  22.374  40.324   4.228
24704W        W97129  28.201  24.945  11.234
24705W        W97130  10.228  29.707  14.922
24706W        W97131  29.565  37.750   0.477
24707W        W97132  26.516  14.189  14.383
24708W        W97133   9.110  37.806  12.381
24709W        W97134  37.400  20.104  12.909
24710W        W97135  41.707  34.505   3.237
24711W        W97136  27.439  29.532  11.982
24712W        W97137  35.715  18.658  11.614
24713W        W97138   6.219  28.539  11.987
24714W        W97139   0.969  33.102  14.305
24715W        W97140  23.623  25.751  11.625
24716W        W97141  44.802  30.899  13.578
24717W        W97142  40.387  42.681  12.019
24718W        W97143  31.625  19.815  11.141
24719W        W97144  34.562  21.787   3.268
24720W        W97145  14.411  15.674  13.386
24721W        W97146   8.582   0.495  12.060
24722W        W97147  39.792  24.274   1.273
24723W        W97148  16.118  19.718   2.156
24724W        W97149   7.328  10.306   0.503
24725W        W97150  35.287  18.841   4.932
24726W        W97151  36.884  44.221  11.590
24727W        W97152  23.642   0.502   4.133
24728W        W97153  16.095  34.692   2.403
24729W        W97154   9.782  33.950   2.911
24730W        W97155  38.912  12.864   2.386
24731W        W97156  17.580  40.282   4.586
24732W        W97157   8.915  28.088  10.662
24733W        W97158  33.867  15.233   3.350
24734W        W97159  29.901  20.629   4.103
24735W        W97160  27.557  26.194  13.536
24736W        W97161   4.937  24.584  13.064
24737W        W97162  27.647  39.324  11.488
24738W        W97163  26.254  22.027  12.425
24739W        W97164  21.148  14.137   0.867
24740W        W97165  18.130  30.310  13.859
24741W        W97166  22.256  35.390  13.334
24742W        W97167  15.547  27.428  14.934
24743W        W97168  38.175  29.627   4.858
24744W        W97169  43.952  39.363  13.942
24745W        W97170   0.063  11.257   0.984
24746W        W97171  22.388  14.405   2.404
24747W        W97172   5.359  42.742  10.544
24748W        W97173   7.137   2.361   0.268
24749W        W97174  22.255  29.014  10.364
24750W        W97175   3.614  27.393  10.800
24751W        W97176   5.675   0.470   0.019
24752W        W97177   8.844  39.434   3.868
24753W        W97178   0.027  35.529   0.426
24754W        W97179   0.869  28.603   3.304
24755W        W97180  31.123  11.804   0.891
24756W        W97181   3.391  33.705   0.208
24757W        W97182  22.978   2.730  12.487
24758W        W97183  35.544  43.386  14.767
24759W        W97184  40.357  12.342  11.595
24760W        W97185   7.334   4.966   1.311
24761W        W97186  16.288  15.323   0.436
24762W        W97187  17.566  31.518  11.775
24763W        W97188  26.089  38.418  10.399
24764W        W97189  15.916  12.615   4.665
24765W        W97190  42.708  21.634   1.702
24766W        W97191  20.186   8.969   1.629
24767W        W97192   3.808  19.692   2.933
24768W        W97193  42.408  19.093   4.550
24769W        W97194   1.779  30.614  12.614
24770W        W97195  13.204  13.302  10.776
24771W        W97196  42.559  20.761  14.872
24772W        W97197   6.924  24.622  11.483
24773W        W97198  37.907  41.975   4.563
24774W        W97199  39.998  28.587  12.964
24775W        W97200  17.676  15.128  13.349
24776W        W97201  39.048   6.790   1.433
24777W        W97202  13.319   7.817  13.789
24778W        W97203  32.245   4.467   1.281
24779W        W97204   9.858  18.051  13.856
24780W        W97205  37.560  42.836  10.047
24781W        W97206  32.697  42.792   2.838
24782W        W97207  22.242  22.826   1.510
24783W        W97208  21.137   5.955  10.723
24784W        W97209  17.687  43.103   1.291
24785W        W97210  24.168  28.220  11.588
24786W        W97211  13.657  26.521   2.244
24787W        W97212  27.038  36.421  13.804
24788W        W97213  31.903  13.526  12.363
24789W        W97214   4.216   3.661  11.626
24790W        W97215  12.175   0.265  11.052
24791W        W97216  43.777  35.159  14.524
24792W        W97217  32.650   3.271   1.196
24793W        W97218  26.223  34.801   3.251
24794W        W97219   7.823  42.773  11.156
24795W        W97220  28.110   9.212  12.573
24796W        W97221  37.394  16.354   4.740
24797W        W97222  33.501  24.539  12.029
24798W        W97223  14.355   5.875  13.555
24799W        W97224  21.446   0.368   0.298
24800W        W97225  40.837   0.432   2.178
24801W        W97226  16.218  34.600  10.627
24802W        W97227  24.639  43.368   1.326
24803W        W97228  40.212   3.478   3.197
24804W        W97229  30.026   0.480   2.374
24805W        W97230  17.209  29.675  13.323
24806W        W97231  12.987  37.494  13.589
24807W        W97232  44.284  20.038  12.526
24808W        W97233   7.660  12.888  14.451
24809W        W97234   3.986  15.463   1.987
24810W        W97235  31.129   4.041   0.848
24811W        W97236  34.824  42.431  14.064
24812W        W97237  19.756   6.490  12.075
24813W        W97238  42.811  42.754  14.481
24814W        W97239  31.242   1.245  11.493
24815W        W97240  23.027  28.354  14.382
24816W        W97241  25.732  11.787  11.642
24817W        W97242  42.703  27.162   3.911
24818W        W97243  14.496   7.649   0.770
24819W        W97244  21.991  27.591   3.273
24820W        W97245  18.348  11.073   1.568
24821W        W97246   0.723  10.408   0.742
24822W        W97247  30.486  16.219  10.789
24823W        W97248  28.957  33.878  11.548
24824W        W97249   8.907  15.284   2.239
24825W        W97250  42.820  23.018   0.837
24826W        W97251  24.771   4.034   1.823
24827W        W97252  16.065  33.017   2.693
24828W        W97253  43.608  27.185   4.061
24829W        W97254  15.390  20.196  13.997
24830W        W97255  43.821   2.848  12.609
24831W        W97256  20.190  43.548   1.790
24832W        W97257  24.256   1.648   2.130
24833W        W97258  40.264  26.932  12.364
24834W        W97259   1.437   4.850  14.284
24835W        W97260  27.731  43.604   1.077
24836W        W97261   4.565   7.905   0.724
24837W        W97262  28.738   7.333   4.515
24838W        W97263  27.876   8.708  10.994
24839W        W97264   4.233  31.940   3.141
24840W        W97265  22.070  32.653  11.132
24841W        W97266  11.598  27.428   0.305
24842W        W97267  43.378  14.843  10.379
24843W        W97268  10.828  15.530   0.318
24844W        W97269  42.793  30.183   4.285
24845W        W97270  27.177  26.043  12.434
24846W        W97271  25.045  32.660  14.319
24847W        W97272  30.499  44.981   4.099
24848W        W97273  15.641  26.217  10.952
24849W        W97274  33.613   3.699  10.892
24850W        W97275  43.044  29.554  11.658
24851W        W97276  24.285  37.910   3.107
24852W        W97277  20.575  21.165  14.538
24853W        W97278  14.903  15.577  13.276
24854W        W97279   4.328  27.170   3.509
24855W        W97280  16.997  40.943  12.926
24856W        W97281   1.529  38.586  12.134
24857W        W97282   9.317  22.282   0.421
24858W        W97283  27.627  16.095   0.824
24859W        W97284  36.956  20.021  11.511
24860W        W97285  25.446   1.102   5.085
24861W        W97286  16.595  32.470  13.570
24862W        W97287  26.763  32.546  11.762
24863W        W97288   2.918  13.348   2.068
24864W        W97289  14.243   1.286  12.696
24865W        W97290  19.784  18.419  12.013
24866W        W97291   0.701  37.522   2.183
24867W        W97292  23.592  14.299   0.244
24868W        W97293  38.330  16.298   0.241
24869W        W97294   8.128  14.245   1.844
24870W        W97295  10.362   5.850   5.623
24871W        W97296   3.869  35.679   3.124
24872W        W97297  43.801  36.163   2.616
24873W        W97298  43.941  36.930  13.073
24874W        W97299  31.878  31.436  12.992
24875W        W97300  11.613   7.280  12.090
24876W        W97301  32.051  17.879  11.543
24877W        W97302  39.080   8.758   0.421
24878W        W97303  29.215  41.544   1.351
24879W        W97304  27.729  40.045   0.990
24880W        W97305  10.064  37.582  13.538
24881W        W97306  24.091   4.205   1.252
24882W        W97307  38.388  38.115   1.704
24883W        W97308  43.160  32.489  11.063
24884W        W97309  32.061  18.236   2.137
24885W        W97310  13.364  22.283   0.836
24886W        W97311  16.682  37.932   3.864
24887W        W97312   5.465  40.983   4.712
24888W        W97313  40.069  28.624   1.362
24889W        W97314   4.897  14.886  13.028
24890W        W97315  17.535  40.510   0.834
24891W        W97316  11.874  33.015  12.374
24892W        W97317  29.559  15.174  13.429
24893W        W97318  26.505  18.010  12.594
24894W        W97319   9.090  20.059  14.004
24895W        W97320  28.614  31.867  11.544
24896W        W97321  27.025  26.923   3.951
24897W        W97322  36.958  16.077   1.247
24898W        W97323  26.670  19.784  12.441
24899W        W97324   3.912   8.280   1.346
24900W        W97325  18.174  22.621  11.645
24901W        W97326  24.200  27.031  14.959
24902W        W97327  24.454  33.076   3.385
24903W        W97328  32.065  22.713  12.521
24904W        W97329   9.873  14.773  11.990
24905W        W97330  41.829  24.952   2.509
24906W        W97331   4.784   6.688   3.822
24907W        W97332  34.007  27.592  12.087
24908W        W97333  32.018  17.600   3.652
24909W        W97334  19.949   3.615   3.674
24910W        W97335  36.135  35.909  11.596
24911W        W97336  11.286   0.853   4.851
24912W        W97337  29.663  20.262  12.051
24913W        W97338   0.441  14.811   0.528
24914W        W97339  11.401  42.875  14.116
24915W        W97340   3.197  33.521   4.451
24916W        W97341  36.491  16.611  11.560
24917W        W97342  39.782  40.636   0.347
24918W        W97343  15.366   6.682  13.911
24919W        W97344  19.671  37.641   1.816
24920W        W97345  18.328  23.387   2.697
24921W        W97346  44.321   1.995  12.497
24922W        W97347  27.534  19.354  11.500
24923W        W97348   6.331  27.490  14.720
24924W        W97349  29.163  17.600  11.056
24925W        W97350  41.160  10.901   0.816
24926W        W97351   7.108  18.239   2.290
24927W        W97352  18.231   7.424   4.369
24928W        W97353   7.401   2.838  11.929
24929W        W97354  33.942  31.770   2.093
24930W        W97355  30.634  24.593   4.204
24931W        W97356   3.929   5.030   2.392
24932W        W97357  32.880   0.973   4.455
24933W        W97358  44.552  42.894   4.282
24934W        W97359  17.135  11.783   3.194
24935W        W97360  18.024  32.971   0.739
24936W        W97361  34.598  26.729  11.084
24937W        W97362  16.807  28.106   3.683
24938W        W97363  39.581  25.221  12.002
24939W        W97364  20.676  19.005   1.751
24940W        W97365   1.155  29.262  14.419
24941W        W97366  18.117  20.607   2.479
24942W        W97367  31.457  19.484   1.865
24943W        W97368  18.315  35.156  12.071
24944W        W97369  17.692  15.814   0.413
24945W        W97370  29.996   3.517  12.847
24946W        W97371  42.060  36.111  13.865
24947W        W97372  15.255  44.276   3.421
24948W        W97373  27.919  35.944   2.803
24949W        W97374  35.621   3.214   4.139
24950W        W97375  23.658  13.657  14.983
24951W        W97376  42.392   3.861   1.911
24952W        W97377   7.867   6.801  11.485
24953W        W97378   3.703  22.619   3.702
24954W        W97379  10.110  17.127  12.900
24955W        W97380  30.145  15.346  13.955
24956W        W97381   8.292   4.784  13.436
24957W        W97382  39.048  11.621   0.375
24958W        W97383  25.437  42.495   2.706
24959W        W97384  40.781  24.142   2.912
24960W        W97385  22.004  28.555   2.216
24961W        W97386   2.955  35.643  10.920
24962W        W97387  24.617  21.182  14.938
24963W        W97388  22.101  25.196   2.864
24964W        W97389  12.088  33.606  13.343
24965W        W97390  41.427  38.790  14.269
24966W        W97391  31.265  11.180   3.139
24967W        W97392  10.269  13.460   1.372
24968W        W97393   7.446   4.026  11.108
24969W        W97394   4.324   5.773  13.029
24970W        W97395   0.168  33.375  11.575
24971W        W97396  32.191  22.781  14.817
24972W        W97397  21.706   6.453   3.298
24973W        W97398  28.767  11.601   3.898
24974W        W97399   2.837  35.077  12.155
24975W        W97400  23.533   5.775   1.756
24976W        W97401  30.154   8.159  13.886
24977W        W97402  27.145  23.506  11.590
24978W        W97403  11.656  21.752   1.763
24979W        W97404  13.899  29.481   2.658
24980W        W97405  25.169  40.602  13.863
24981W        W97406  10.589  23.757   0.679
24982W        W97407  28.242  19.312   1.861
24983W        W97408  44.525  16.804  14.566
24984W        W97409  21.290  17.396   0.835
24985W        W97410  35.695  15.395  14.461
24986W        W97411   6.749  32.080   2.728
24987W        W97412  30.502  34.819  12.606
24988W        W97413  27.679  27.702  14.502
24989W        W97414  34.161  42.057   4.132
24990W        W97415  34.460  43.515   2.581
24991W        W97416  17.298  40.024  12.937
24992W        W97417   9.771  21.463   0.382
24993W        W97418  33.120  15.563   1.265
24994W        W97419  24.615  40.726   1.827
24995W        W97420   1.287  13.298   0.237
24996W        W97421  21.678  29.164  11.089
24997W        W97422  39.894  14.263  11.874
24998W        W97423  31.336  34.867   2.747
24999W        W97424  23.611   4.391  13.947
25000W        W97425  34.817  33.442  12.601
25001W        W97426  27.999  29.868  11.205
25002W        W97427  31.699  37.100  11.972
25003W        W97428  33.132  22.181  12.145
25004W        W97429  27.639  39.454   3.951
25005W        W97430  44.259  30.132   0.801
25006W        W97431  30.644  24.684   2.270
25007W        W97432  32.322  34.814  14.904
25008W        W97433  13.976   1.781  12.771
25009W        W97434  30.928  10.886   1.846
25010W        W97435  23.120  15.757   3.771
25011W        W97436  21.979  29.677   0.546
25012W        W97437   5.744  13.122  10.497
25013W        W97438  39.123   1.437  11.955
25014W        W97439  31.924  27.731  13.862
25015W        W97440  14.731  42.820  14.319
25016W        W97441  26.913  21.158  10.794
25017W        W97442  25.201  36.917   1.444
25018W        W97443  31.043  25.564   4.942
25019W        W97444   7.575  21.492  13.563
25020W        W97445  17.716  21.337   4.600
25021W        W97446   6.880   5.210  14.385
25022W        W97447  30.153  33.540  10.893
25023W        W97448  39.207   7.363   4.507
25024W        W97449  18.772  26.489  14.342
25025W        W97450   0.929  40.237   4.614
25026W        W97451   7.722  37.623  12.694
25027W        W97452  42.935  35.783   3.704
25028W        W97453  16.497  37.036   1.435
25029W        W97454  43.831  37.353  10.461
25030W        W97455   0.561  30.473   0.784
25031W        W97456   9.189  24.965  10.582
25032W        W97457  43.933  33.499  13.051
25033W        W97458  31.497  37.619  10.281
25034W        W97459  37.844  38.493  12.499
25035W        W97460   4.886   6.204  11.168
25036W        W97461  15.991  40.577   0.806
25037W        W97462  25.898   6.912  10.806
25038W        W97463  36.302   2.882   1.067
25039W        W97464  33.004  32.119   2.332
25040W        W97465   9.634   1.203   3.812
25041W        W97466  40.893   5.612   1.185
25042W        W97467   1.828  31.614   0.214
25043W        W97468  25.520   4.387   2.186
25044W        W97469  11.261  33.065  10.587
25045W        W97470  31.107  27.175  13.581
25046W        W97471   0.803  16.059  11.411
25047W        W97472  32.567  22.243   0.761
25048W        W97473   2.448  36.911  13.951
25049W        W97474  42.084  11.031   1.786
25050W        W97475  33.881  39.852   0.650
25051W        W97476  30.362  17.310   3.205
25052W        W97477  21.001  14.982  14.751
25053W        W97478  43.782  15.177   4.680
25054W        W97479  27.051  26.897   1.678
25055W        W97480  11.859   2.790   4.590
25056W        W97481  42.429  10.493  14.346
25057W        W97482   1.739  32.593  13.871
25058W        W97483  25.440  31.825  12.671
25059W        W97484  14.865  26.346  13.855
25060W        W97485  12.696  21.097  12.050
25061W        W97486  31.579  19.175   4.725
25062W        W97487  14.571  32.203   2.301
25063W        W97488  37.827  15.797  13.287
25064W        W97489  17.644  22.742   3.179
25065W        W97490  31.036  23.477  12.903
25066W        W97491  43.548   2.376   3.849
25067W        W97492   2.437  30.349   0.876
25068W        W97493  18.184  35.604  12.847
25069W        W97494   2.496   7.151  13.836
25070W        W97495  35.178   2.358  14.407
25071W        W97496  44.715  31.080  13.093
25072W        W97497  37.322  31.949   0.317
25073W        W97498  19.815  16.548   0.391
25074W        W97499  32.121  29.879   0.560
25075W        W97500  14.211   9.179  11.088
25076W        W97501   8.739  13.590  12.018
25077W        W97502   6.228  28.758   1.324
25078W        W97503   4.281  40.407   2.867
25079W        W97504  17.785   4.793   3.241
25080W        W97505   8.094  24.230   0.909
25081W        W97506  20.511  19.275   2.227
25082W        W97507  37.382  13.574  13.968
25083W        W97508   0.674  28.544  12.990
25084W        W97509  24.594  21.096   3.679
25085W        W97510  44.773  24.099  11.087
25086W        W97511  20.089  18.707   4.258
25087W        W97512  38.913  44.429  10.372
25088W        W97513  22.646  24.189  14.853
25089W        W97514  11.277   1.179  13.111
25090W        W97515   8.788   1.333  13.741
25091W        W97516  43.995  31.494  12.968
25092W        W97517  10.693  32.177   1.475
25093W        W97518  21.000   0.751   1.546
25094W        W97519   8.093  28.956  13.722
25095W        W97520  26.793  41.019  11.550
25096W        W97521   5.321  24.076  11.389
25097W        W97522   5.213  33.838   0.749
25098W        W97523   7.231   3.086  14.744
25099W        W97524  11.316  23.991  14.545
25100W        W97525  19.325  37.397  13.824
25101W        W97526  17.708  26.482   1.443
25102W        W97527  38.651  38.340  13.896
25103W        W97528  32.332   2.747   3.345
25104W        W97529  35.640  25.835  10.092
25105W        W97530  15.650  20.221   1.211
25106W        W97531   4.206  29.185  12.563
25107W        W97532  35.628  11.263  13.855
25108W        W97533  24.630  28.239   1.745
25109W        W97534  10.162  34.813   2.319
25110W        W97535  28.934  23.148  11.924
25111W        W97536  41.383  22.107   2.547
25112W        W97537  20.599  31.707  14.238
25113W        W97538   8.621  19.648  11.083
25114W        W97539  20.055   1.412   2.898
25115W        W97540  36.772  20.176   3.950
25116W        W97541  23.701  44.859  12.388
25117W        W97542  18.733  23.841  13.502
25118W        W97543   6.462  16.246  12.438
25119W        W97544   2.373  22.341   1.328
25120W        W97545  14.263  42.036   0.875
25121W        W97546  33.057   6.260   4.575
25122W        W97547  37.392  17.552   3.818
25123W        W97548   9.337  12.930   4.607
25124W        W97549  44.740  26.137   0.790
25125W        W97550   2.325   2.639  12.163
25126W        W97551  10.459  25.477   1.910
25127W        W97552  37.800  30.149  13.802
25128W        W97553  14.705  27.459   3.340
25129W        W97554   1.979  41.141  11.022
25130W        W97555  36.397  26.869  12.885
25131W        W97556  13.665  31.396   3.223
25132W        W97557  30.450  15.637   4.990
25133W        W97558  14.724  21.849   3.643
25134W        W97559  27.687  37.937   2.371
25135W        W97560  34.680  19.533  11.646
25136W        W97561   8.584  17.077  14.929
25137W        W97562  25.491   8.168  12.412
25138W        W97563   5.783  29.482   4.171
25139W        W97564  29.081  17.555   2.701
25140W        W97565  42.412   4.821   2.363
25141W        W97566  26.947  11.214   0.419
25142W        W97567   4.243  21.220  12.710
25143W        W97568   1.637  22.103   4.139
25144W        W97569  34.077   1.728   4.678
25145W        W97570  44.005   4.639  12.357
25146W        W97571   5.802  23.209   2.291
25147W        W97572   9.649   2.055   1.169
25148W        W97573  43.811  13.677  13.576
25149W        W97574  29.123  37.569  12.996
25150W        W97575  12.695  23.271   2.272
25151W        W97576   9.252  12.164  13.356
25152W        W97577  28.269  33.983   4.549
25153W        W97578  30.933  15.729  14.463
25154W        W97579  34.673  27.581  13.269
25155W        W97580  41.672  11.153   0.566
25156W        W97581  39.444   0.045  13.011
25157W        W97582   2.532   6.240  10.258
25158W        W97583  32.480  23.209   0.537
25159W        W97584   5.261  33.193  10.654
25160W        W97585  41.892  21.802  14.286
25161W        W97586  10.451   4.849   0.861
25162W        W97587  10.380  22.552  11.029
25163W        W97588  25.005  32.742   4.845
25164W        W97589  37.321   4.588  11.126
25165W        W97590   1.513   8.843   0.287
25166W        W97591  28.933  33.656   4.568
25167W        W97592  31.610  21.391  10.265
25168W        W97593  44.353   6.026  14.754
25169W        W97594   6.804  38.021   2.154
25170W        W97595  17.206  41.285   3.180
25171W        W97596  37.525   3.991   2.288
25172W        W97597   9.752  35.224  13.000
25173W        W97598  44.094  44.785  12.862
25174W        W97599  14.398   4.725  11.568
25175W        W97600  25.524  35.093  13.447
25176W        W97601  20.069  19.478   3.170
25177W        W97602   4.033  37.293  10.142
25178W        W97603  36.129  25.601   4.612
25179W        W97604  31.675  24.513   4.326
25180W        W97605  35.052   5.241   3.716
25181W        W97606  12.994  31.622   2.124
25182W        W97607  25.499   5.449  12.520
25183W        W97608   7.233  33.656   2.242
25184W        W97609  18.822  19.379   0.297
25185W        W97610  16.587   1.194   0.375
25186W        W97611  23.113  28.903  13.342
25187W        W97612  10.904  11.180  12.826
25188W        W97613  16.176  41.065  11.137
25189W        W97614  30.502  21.240   4.558
25190W        W97615  21.235  15.006  13.131
25191W        W97616   3.437   7.114   5.029
25192W        W97617  17.634  29.989   4.360
25193W        W97618   7.297  11.405  14.324
25194W        W97619  38.610   8.259   4.083
25195W        W97620  40.073  32.124  13.717
25196W        W97621   9.891  24.198  14.896
25197W        W97622  29.437   5.019  13.892
25198W        W97623   5.470  28.347   2.924
25199W        W97624  12.270  34.447   0.886
25200W        W97625  10.129  19.585  12.675
25201W        W97626  29.272  39.578   0.425
25202W        W97627  25.857  44.284  11.154
25203W        W97628  30.047   5.786  10.932
25204W        W97629  22.603  25.821  13.503
25205W        W97630  40.489  26.481   3.322
25206W        W97631  39.113   6.820   4.643
25207W        W97632  13.732  24.213  14.294
25208W        W97633  13.177  13.725  12.674
25209W        W97634  38.138  34.858   1.149
25210W        W97635  42.983  43.310  10.801
25211W        W97636  44.370  44.934  10.934
25212W        W97637  12.358  10.399   4.657
25213W        W97638  14.586  23.644   4.286
25214W        W97639  21.785  32.457   3.242
25215W        W97640  27.571  21.291  14.869
25216W        W97641   8.658  36.617   0.516
25217W        W97642  42.978  39.908   0.237
25218W        W97643  27.179  24.938   1.052
25219W        W97644  37.991  39.836   3.119
25220W        W97645  32.099  30.409  13.493
25221W        W97646  19.986   2.538   4.506
25222W        W97647  38.295  20.492  13.017
25223W        W97648  44.161  26.075  13.882
25224W        W97649  23.516  31.970   2.920
25225W        W97650  42.067  14.047   1.581
25226W        W97651  27.453  25.950  14.937
25227W        W97652  36.981  30.824   2.762
25228W        W97653   0.226   5.817  14.728
25229W        W97654  30.086  32.747   4.120
25230W        W97655  24.192  16.041  10.430
25231W        W97656   8.099  40.921  14.776
25232W        W97657  40.255  28.445   4.644
25233W        W97658  12.308   3.199   1.359
25234W        W97659  41.524  30.861   3.752
25235W        W97660  43.642  12.856  13.001
25236W        W97661  21.061   8.377  10.208
25237W        W97662  19.447  19.693  10.542
25238W        W97663  16.737  10.160  12.403
25239W        W97664   4.629  16.897   4.182
25240W        W97665  19.512  10.194   3.742
25241W        W97666   2.571   9.880  11.655
25242W        W97667  28.911  36.039  13.367
25243W        W97668  10.369  41.946   4.663
25244W        W97669  44.347  42.007   0.618
25245W        W97670   1.072  44.876  14.770
25246W        W97671  35.592  28.132   2.855
25247W        W97672  25.578  19.308   3.176
25248W        W97673   5.791  33.654   2.907
25249W        W97674  21.437   7.394   3.342
25250W        W97675  19.666  37.407  14.937
25251W        W97676  29.153  27.132  10.733
25252W        W97677   7.888  16.360   1.024
25253W        W97678  13.667  11.750   1.385
25254W        W97679  43.812   0.326  12.073
25255W        W97680  16.693  44.021  14.429
25256W        W97681   5.652   3.268  14.854
25257W        W97682  17.198   9.053  13.016
25258W        W97683  39.811   3.382   1.269
25259W        W97684  43.981  24.994  11.878
25260W        W97685  13.651  43.909   0.433
25261W        W97686  18.247  24.415   2.832
25262W        W97687  28.942  24.686   1.290
25263W        W97688  30.490  18.724   2.632
25264W        W97689  30.415  31.124  13.211
25265W        W97690   7.232  33.989  14.894
25266W        W97691  27.113  37.116  12.109
25267W        W97692  28.813  21.188   0.262
25268W        W97693   8.256  25.651   2.303
25269W        W97694  23.608   8.083   3.074
25270W        W97695   9.952  18.966   1.830
25271W        W97696   9.046  44.485   4.262
25272W        W97697  28.853  22.199   2.041
25273W        W97698  38.552  42.337   2.229
25274W        W97699  13.311  37.534   2.751
25275W        W97700  33.690  31.491  11.174
25276W        W97701   8.543   4.874  11.041
25277W        W97702  28.076  18.607  13.805
25278W        W97703   7.301  13.061  14.775
25279W        W97704  21.711  28.050   1.642
25280W        W97705  32.424   5.915   0.744
25281W        W97706  26.953  16.259  11.175
25282W        W97707   6.828  25.176   3.416
25283W        W97708  12.000   4.202   2.809
25284W        W97709  40.985  36.142   2.368
25285W        W97710  36.054  23.573   4.146
25286W        W97711  24.118  37.890   1.272
25287W        W97712   8.864   0.654   2.920
25288W        W97713  41.637  44.829   2.691
25289W        W97714  27.559  35.775   0.037
25290W        W97715  11.059   9.137  11.821
25291W        W97716  26.105  27.119  13.819
25292W        W97717  36.481  41.794  14.076
25293W        W97718   4.404  32.776  13.004
25294W        W97719   6.294  39.095   4.588
25295W        W97720   2.552  12.836  11.487
25296W        W97721   6.729  37.442   2.902
25297W        W97722  20.824  14.519  14.585
25298W        W97723  25.021  23.257  12.944
25299W        W97724  30.062  19.857  11.625
25300W        W97725  28.376   4.836  13.070
25301W        W97726   6.774  18.662   2.944
25302W        W97727  25.190  34.484  13.815
25303W        W97728  41.090  30.987  12.275
25304W        W97729   8.433  34.516   1.284
25305W        W97730  20.646   8.379  10.521
25306W        W97731  24.153   6.375  13.010
25307W        W97732  13.666  30.090  12.573
25308W        W97733  27.137  33.481   3.096
25309W        W97734  35.062  31.016   3.320
25310W        W97735  32.341   6.475   4.533
25311W        W97736  20.604  29.658  10.338
25312W        W97737   4.001  34.862   1.186
25313W        W97738   8.960   9.345  13.468
25314W        W97739  17.135  17.026   9.930
25315W        W97740  32.025  33.665  10.267
25316W        W97741   2.398  17.934  12.976
25317W        W97742   9.372   3.511  12.471
25318W        W97743  21.178   2.656   3.039
25319W        W97744  30.083   4.372  10.757
25320W        W97745  13.735  15.084  12.810
25321W        W97746  13.076   9.314   3.309
25322W        W97747  24.593  21.847   4.154
25323W        W97748  16.594  19.828   4.110
25324W        W97749  41.121  29.755  11.120
25325W        W97750   3.830  36.563  12.706
25326W        W97751  43.590  25.542   3.266
25327W        W97752  11.373  27.816  11.673
25328W        W97753  24.688  28.215  12.844
25329W        W97754  43.512  41.396   1.825
25330W        W97755  13.879  31.444  14.234
25331W        W97756  26.426  13.618   3.989
25332W        W97757   0.695  21.154  14.362
25333W        W97758  39.468  16.158  13.895
25334W        W97759  43.040  33.455   3.290
25335W        W97760  31.104  12.803  11.408
25336W        W97761  13.389   4.318  13.758
25337W        W97762   8.952  34.841  14.931
25338W        W97763  14.020  18.811  13.072
25339W        W97764  19.311  31.015   3.095
25340W        W97765   6.862  34.466  11.646
25341W        W97766  21.046  41.760   3.091
25342W        W97767  30.221  16.651   4.004
25343W        W97768  40.376  16.268  11.463
25344W        W97769  22.766  26.663  13.993
25345W        W97770  43.799  31.928  12.017
25346W        W97771   8.763  27.637   1.609
25347W        W97772   2.192  26.075  11.006
25348W        W97773  34.498  23.686   0.843
25349W        W97774  29.883  26.728  13.533
25350W        W97775  32.941  41.573   1.126
25351W        W97776  22.659  20.241  13.668
25352W        W97777  22.466  38.513  14.368
25353W        W97778   4.435   3.761  10.710
25354W        W97779  26.060  44.877  10.682
25355W        W97780  25.207  32.943   1.572
25356W        W97781  22.922  15.286   3.691
25357W        W97782  25.582  16.804   2.438
25358W        W97783  26.928  28.699  14.371
25359W        W97784  31.593   4.882  11.431
25360W        W97785   9.380  28.569  14.050
25361W        W97786   9.806  21.362   4.614
25362W        W97787  23.637  39.307  13.045
25363W        W97788  27.205  22.218   0.972
25364W        W97789  11.436  29.147   0.367
25365W        W97790  21.532   1.462  14.275
25366W        W97791  37.523  21.979  10.612
25367W        W97792  12.564  21.250   0.444
25368W        W97793  21.205   7.488   0.453
25369W        W97794  14.094  28.747  12.554
25370W        W97795   0.455   0.631   1.445
25371W        W97796  24.159   1.202   4.378
25372W        W97797  41.378  14.883   0.501
25373W        W97798   1.681  31.501   3.236
25374W        W97799   3.272  11.344   4.089
25375W        W97800  12.308  31.005  13.491
25376W        W97801  12.666  13.149  13.587
25377W        W97802  22.752   9.748  13.316
25378W        W97803  31.105  17.591  13.342
25379W        W97804  18.909  17.703  14.291
25380W        W97805  41.023  35.165  14.974
25381W        W97806  18.523  18.335   0.276
25382W        W97807  25.062   9.543  11.120
25383W        W97808   6.717  38.426  11.686
25384W        W97809   0.287   0.329  11.146
25385W        W97810  42.004  30.044   2.878
25386W        W97811  32.453  16.262  10.797
25387W        W97812  11.104  16.060   3.684
25388W        W97813   0.248  43.166   3.954
25389W        W97814   6.437  33.521  14.951
25390W        W97815  39.313  31.757   0.352
25391W        W97816  27.616  32.532  11.938
25392W        W97817  12.110  40.448  14.739
25393W        W97818  22.133  41.112   1.752
25394W        W97819  12.022   4.619   9.998
25395W        W97820  19.258   0.411   4.609
25396W        W97821  11.613  18.838  11.097
25397W        W97822  34.128  38.338  14.756
25398W        W97823  13.388  32.332   0.681
25399W        W97824  22.650   6.783  14.437
25400W        W97825  18.260   5.516  13.365
25401W        W97826  24.142  11.820  13.840
25402W        W97827  41.078  10.344  11.245
25403W        W97828  32.072  19.739   1.064
25404W        W97829  11.192  26.455  12.905
25405W        W97830  43.536  12.642   0.167
25406W        W97831   2.443  38.630   3.355
25407W        W97832  24.611  43.461  14.800
25408W        W97833  30.213   1.751   3.127
25409W        W97834  10.825  35.899   4.605
25410W        W97835  44.463   5.127  12.179
25411W        W97836  29.509  21.071   0.552
25412W        W97837  24.744   3.341   3.729
25413W        W97838  26.847  17.636  12.663
25414W        W97839   2.738  28.551  13.812
25415W        W97840  31.126  26.537  14.808
25416W        W97841  32.714  41.648  11.200
25417W        W97842  12.117  40.522   1.399
25418W        W97843  39.783  28.904   1.710
25419W        W97844  14.582   6.880  11.534
25420W        W97845  32.155   9.579  13.398
25421W        W97846  10.233   8.224   4.594
25422W        W97847  26.468  44.785  14.831
25423W        W97848  20.736  43.371   4.116
25424W        W97849   5.700   7.310  11.527
25425W        W97850  39.518   9.230  13.109
25426W        W97851  14.994  41.520  12.497
25427W        W97852   3.981  38.861   2.744
25428W        W97853  34.122  22.825  11.576
25429W        W97854  10.789  20.475  10.545
25430W        W97855  24.454  36.837   3.203
25431W        W97856  16.103  17.720  10.605
25432W        W97857  39.485  40.763  14.495
25433W        W97858  37.400   2.751  13.979
25434W        W97859  32.915   4.763  10.997
25435W        W97860  20.063  37.208   4.226
25436W        W97861   4.327  34.988   1.939
25437W        W97862  12.522   7.801   0.840
25438W        W97863  39.897  28.018  14.422
25439W        W97864   7.396   3.289  14.256
25440W        W97865  24.680  39.721   3.375
25441W        W97866  31.370  15.584   2.282
25442W        W97867  27.447  42.572   0.342
25443W        W97868  39.529   6.534   4.453
25444W        W97869  25.200  30.664   4.263
25445W        W97870  13.193   9.832   3.234
25446W        W97871  44.672   4.697  12.931
25447W        W97872  23.744  29.404  14.898
25448W        W97873  10.569  13.113  13.505
25449W        W97874  12.948  37.916   4.770
25450W        W97875  36.090  17.773   3.150
25451W        W97876  14.296  18.341   1.719
25452W        W97877  18.304  31.979   1.430
25453W        W97878  16.727  25.046   3.770
25454W        W97879  18.280  11.634  12.920
25455W        W97880  23.881  12.742   2.860
25456W        W97881  43.731  24.395   0.975
25457W        W97882  29.458  12.258   1.308
25458W        W97883  43.427  13.048  12.088
25459W        W97884  24.623  40.040  12.923
25460W        W97885  30.143  35.414  14.947
25461W        W97886   0.965  20.578  11.655
25462W        W97887   7.912   2.488   4.594
25463W        W97888   3.329  31.727   1.355
25464W        W97889  15.342  34.373  14.077
25465W        W97890  41.024  13.173   0.363
25466W        W97891  20.366  30.257  11.918
25467W        W97892   2.274   3.333   3.207
25468W        W97893  38.615   0.095  12.003
25469W        W97894  38.531  20.990   1.018
25470W        W97895  24.423  23.768   0.317
25471W        W97896  13.350  25.736  11.630
25472W        W97897  31.691  43.906  13.512
25473W        W97898  39.083  40.331  13.510
25474W        W97899  21.692  33.827   1.632
25475W        W97900  23.058   1.700   0.701
25476W        W97901   6.417  10.772  14.346
25477W        W97902  11.306  31.417   4.200
25478W        W97903  28.909  37.075   4.768
25479W        W97904  16.364  44.058  11.574
25480W        W97905  11.863  37.528   5.010
25481W        W97906  17.240  14.162   4.907
25482W        W97907  12.338  14.233  12.700
25483W        W97908  29.449  18.199  14.086
25484W        W97909  44.276  37.490   4.679
25485W        W97910  18.561   2.474  13.911
25486W        W97911  38.358  21.646  11.141
25487W        W97912  16.696  17.862  10.661
25488W        W97913   0.698  36.031  13.546
25489W        W97914  29.711  39.434   4.622
25490W        W97915  31.024  11.685  11.624
25491W        W97916   2.397  29.435  11.727
25492W        W97917   8.659  38.119   4.631
25493W        W97918  29.010  14.003  11.856
25494W        W97919  39.359   5.198   2.197
25495W        W97920  27.854  39.546  11.078
25496W        W97921   6.103   2.643  13.533
25497W        W97922   5.668  37.808  14.306
25498W        W97923   9.996  34.974   4.306
25499W        W97924  36.874  28.036   2.375
25500W        W97925   3.413   2.389  11.949
25501W        W97926  21.728  16.600   1.127
25502W        W97927  29.135   8.727   1.775
25503W        W97928  38.373  40.339  14.031
25504W        W97929  14.724  26.401  14.843
25505W        W97930   1.235  23.927  13.678
25506W        W97931  14.271   4.614   4.118
25507W        W97932  42.427  13.693   1.315
25508W        W97933  20.510  28.515   2.306
25509W        W97934   2.954   6.439  12.859
25510W        W97935  34.337  40.553   1.548
25511W        W97936  29.283  30.495   2.665
25512W        W97937  22.983   4.148   0.569
25513W        W97938  40.800   1.711   4.542
25514W        W97939  12.515  24.743  11.347
25515W        W97940  12.501  41.516  12.006
25516W        W97941  24.514   3.950   0.002
25517W        W97942  38.917   3.339  14.418
25518W        W97943  35.067  10.278  14.787
25519W        W97944  33.741  24.336  14.655
25520W        W97945  14.070  28.071  14.837
25521W        W97946  25.696  34.062  11.198
25522W        W97947  10.774   0.957  14.885
25523W        W97948  40.744  21.545   4.941
25524W        W97949  41.042  42.003   3.622
25525W        W97950  41.497   4.784   1.231
25526W        W97951  33.661   0.957   3.624
25527W        W97952  43.067  12.337   5.015
25528W        W97953  30.479   9.096   2.946
25529W        W97954   1.693  43.547   3.614
25530W        W97955  17.333  13.390   2.114
25531W        W97956  16.046  22.767  14.362
25532W        W97957  34.608  21.730   4.186
25533W        W97958   6.892   3.243  14.225
25534W        W97959   9.431  10.936   2.904
25535W        W97960  18.801   4.548  14.916
25536W        W97961  22.208  35.013   2.661
25537W        W97962  13.181  41.811   1.207
25538W        W97963  37.939  38.492  10.408
25539W        W97964  32.667   4.382   4.003
25540W        W97965  28.461  23.761  11.665
25541W        W97966  32.600   9.112  14.873
25542W        W97967  34.089  25.039   2.126
25543W        W97968  17.333  12.217  13.354
25544W        W97969  23.223   6.863  14.887
25545W        W97970   8.375   1.397   1.550
25546W        W97971  25.119   9.379  12.584
25547W        W97972  25.486  11.382  14.932
25548W        W97973  31.153   7.368  13.211
25549W        W97974  27.827  26.383  11.822
25550W        W97975  17.617   2.727  10.481
25551W        W97976  10.390  25.840   5.087
25552W        W97977  11.140  41.798  11.171
25553W        W97978  39.429  20.811  14.433
25554W        W97979  40.912   1.499  13.071
25555W        W97980  44.413  26.526   1.486
25556W        W97981   6.511  26.679   1.464
25557W        W97982  32.968  14.812  13.179
25558W        W97983   7.537  11.193  14.737
25559W        W97984  13.278   9.170   1.388
25560W        W97985  41.939  26.379  10.665
25561W        W97986   3.742  27.875  12.315
25562W        W97987   2.413  24.012   4.695
25563W        W97988  30.477  37.597  11.082
25564W        W97989   1.169  12.886   2.902
25565W        W97990  17.372  17.916   1.665
25566W        W97991  26.720   8.326   4.622
25567W        W97992   0.871  30.921  12.047
25568W        W97993  18.703  33.524   0.234
25569W        W97994  38.250  14.125   3.341
25570W        W97995  44.422   1.417  14.319
25571W        W97996   6.892  23.862  14.406
25572W        W97997  33.049  20.694  13.768
25573W        W97998  26.224  17.239   1.811
25574W        W97999  10.794  19.807  11.235
25575W        W98000  22.719   5.900   3.356
25576W        W98001  24.543   2.456  10.881
25577W        W98002  39.542  30.541  12.843
25578W        W98003   4.026  34.515  12.047
25579W        W98004   4.167  11.811   1.687
25580W        W98005  35.952  37.509  14.269
25581W        W98006  26.236  31.531  12.111
25582W        W98007  41.608  40.030   2.923
25583W        W98008  10.419  32.637  10.894
25584W        W98009   1.495  34.277   0.408
25585W        W98010  44.829  25.464  13.468
25586W        W98011  36.712  30.707  14.745
25587W        W98012  37.356  26.014  10.882
25588W        W98013  41.431  24.396  14.194
25589W        W98014  15.277  28.534  14.252
25590W        W98015  15.042   1.203  13.786
25591W        W98016  30.875  12.557   0.415
25592W        W98017  42.548  11.568   0.380
25593W        W98018  30.603  12.023   3.685
25594W        W98019  38.609  37.397   0.853
25595W        W98020  20.121  19.344   3.697
25596W        W98021   8.314   2.312   3.871
25597W        W98022   9.393  17.264  10.426
25598W        W98023   7.088   9.192  14.015
25599W        W98024  37.775  23.271  10.566
25600W        W98025   2.981  14.082  10.505
25601W        W98026  12.668  24.117   5.087
25602W        W98027  34.044   6.195   3.630
25603W        W98028  25.602  12.752   0.541
25604W        W98029  44.583   7.691   3.547
25605W        W98030  27.689  44.306  12.582
25606W        W98031  18.782  21.952  12.914
25607W        W98032  12.314  21.638   3.180
25608W        W98033  33.521   8.752   3.227
25609W        W98034  11.232  19.862  10.420
25610W        W98035  11.107  27.261   0.339
25611W        W98036  39.878   8.173   1.611
25612W        W98037  32.202  41.252   4.111
25613W        W98038  14.271  12.534  10.253
25614W        W98039  21.438  18.115  12.534
25615W        W98040  34.094  35.786  11.490
25616W        W98041  41.517  10.219  10.371
25617W        W98042  23.232  38.548  11.973
25618W        W98043   0.742  33.111  14.823
25619W        W98044  41.764  35.033  13.385
25620W        W98045   8.476  26.926   2.455
25621W        W98046  40.691   6.762  11.610
25622W        W98047  22.086  15.177  12.904
25623W        W98048  27.942  32.994  14.350
25624W        W98049  42.526  44.418  11.869
25625W        W98050  40.778  19.083  14.745
25626W        W98051  12.647  14.877   4.297
25627W        W98052  19.311  27.161  11.143
25628W        W98053  13.486   5.182   0.788
25629W        W98054  40.092  39.948   2.716
25630W        W98055  29.144   9.326  14.229
25631W        W98056  10.705  35.078  13.354
25632W        W98057  17.526  39.964   3.272
25633W        W98058  43.283  12.859   0.664
25634W        W98059  27.199   7.261  12.946
25635W        W98060  28.750  31.428  10.200
25636W        W98061  32.666  36.808  12.959
25637W        W98062   9.919   2.416  10.744
25638W        W98063  37.605  35.903   0.850
25639W        W98064  19.272  22.481   0.946
25640W        W98065  15.090  39.547  11.064
25641W        W98066  14.819  13.877  10.606
25642W        W98067  25.034   0.331   4.163
25643W        W98068  39.854   5.346  12.917
25644W        W98069  24.117   0.515  11.861
25645W        W98070  20.021   5.182  12.538
25646W        W98071  13.157  37.140  11.986
25647W        W98072  28.624   5.814   4.385
25648W        W98073   3.679  33.274  12.028
25649W        W98074   4.563  15.099  12.009
25650W        W98075  11.141  10.388  14.929
25651W        W98076  34.900  29.728  13.267
25652W        W98077  12.337   6.275  14.405
25653W        W98078  37.957  11.119  12.909
25654W        W98079  36.497  44.399  10.933
25655W        W98080  39.661  18.459  10.711
25656W        W98081  24.600  32.062  12.104
25657W        W98082  13.666   1.407  10.671
25658W        W98083   1.562  33.568  11.578
25659W        W98084  11.871  34.506   3.213
25660W        W98085  19.070  26.038  14.350
25661W        W98086  41.592  21.104  12.837
25662W        W98087  20.796  42.769   3.368
25663W        W98088  17.238   1.917   2.755
25664W        W98089   3.378  21.653   2.238
25665W        W98090  35.925  40.243  11.037
25666W        W98091  24.078  22.974  12.335
25667W        W98092   1.902  28.073  14.863
25668W        W98093  34.117  41.559   4.211
25669W        W98094  41.876  39.952   1.873
25670W        W98095   6.477  38.840  11.431
25671W        W98096  41.833  22.605  14.999
25672W        W98097   0.931   0.402   1.425
25673W        W98098  29.019  22.127   0.420
25674W        W98099  17.255  31.384  11.383
25675W        W98100  39.838  40.433   3.901
25676W        W98101   0.821   1.421   1.184
25677W        W98102  41.202  28.384  14.987
25678W        W98103  15.486  37.213   2.407
25679W        W98104  42.868  40.953   3.981
25680W        W98105   5.432  23.513  14.304
25681W        W98106  16.212  15.348  13.530
25682W        W98107  36.503  39.622   3.860
25683W        W98108  36.323   4.461   2.071
25684W        W98109  23.479  16.171   1.262
25685W        W98110  13.626  13.959   4.116
25686W        W98111  40.554   0.915   5.001
25687W        W98112  37.766  13.974   3.426
25688W        W98113  34.448  14.447   3.123
25689W        W98114  17.037  39.531  12.114
25690W        W98115   4.203  42.580  11.213
25691W        W98116   8.525  12.783   2.126
25692W        W98117  40.278  36.450  14.003
25693W        W98118  29.061  41.976  11.609
25694W        W98119  11.976  41.986  12.590
25695W        W98120  10.285  26.605   3.840
25696W        W98121   7.361   9.938  11.520
25697W        W98122  30.333  13.567   3.350
25698W        W98123   2.468  44.292   4.560
25699W        W98124  17.823  40.776  12.619
25700W        W98125   0.167   3.958   2.149
25701W        W98126   8.640  27.178   0.394
25702W        W98127  20.227  11.700  13.064
25703W        W98128  24.468  21.064  12.607
25704W        W98129  19.361  35.117   2.907
25705W        W98130  20.026  33.823   3.130
25706W        W98131  13.021  24.762  14.755
25707W        W98132  13.367  41.511   0.839
25708W        W98133  12.187  24.079   3.677
25709W        W98134  18.537  21.443  13.738
25710W        W98135  19.952  31.842  11.474
25711W        W98136  24.962  15.186   3.175
25712W        W98137  44.795  21.129   3.864
25713W        W98138   4.404  11.377   1.489
25714W        W98139  43.671  11.680   4.977
25715W        W98140  38.598   5.307   3.272
25716W        W98141  15.527  21.325  12.447
25717W        W98142  10.942  38.518   3.893
25718W        W98143  34.795  39.015   1.891
25719W        W98144  23.699   0.668  12.141
25720W        W98145  43.770  39.121   3.298
25721W        W98146  44.938   2.431  14.721
25722W        W98147  37.342  33.013  14.488
25723W        W98148   5.395  37.750  13.432
25724W        W98149  34.014   9.377  14.924
25725W        W98150  15.787   2.304   0.882
25726W        W98151  13.161  13.905  11.202
25727W        W98152  34.110  12.323   4.163
25728W        W98153  39.296  37.470   4.573
25729W        W98154  29.383  20.701  12.007
25730W        W98155  35.656  13.236  10.537
25731W        W98156   7.161  43.956   1.934
25732W        W98157  40.960  44.537  12.137
25733W        W98158  41.433  39.026   4.568
25734W        W98159   2.779   4.459   0.299
25735W        W98160  19.140   2.241   4.935
25736W        W98161   0.461  19.619  10.612
25737W        W98162  15.736   2.910  10.650
25738W        W98163  29.506  39.515  13.608
25739W        W98164  34.895  43.250   1.507
25740W        W98165   8.413  21.148   5.200
25741W        W98166  17.432  11.530   4.815
25742W        W98167   5.734  22.637   0.161
25743W        W98168  12.305  35.135  14.127
25744W        W98169  15.058   4.007  13.870
25745W        W98170  41.930  20.048  10.976
25746W        W98171  25.665  35.403   0.743
25747W        W98172  23.611  35.590  11.126
25748W        W98173  25.618  42.280   4.604
25749W        W98174  44.048   3.261   3.863
25750W        W98175  22.999  39.535   3.905
25751W        W98176  32.567  11.612   3.099
25752W        W98177  40.065  41.904   0.733
25753W        W98178  22.700   7.262   1.215
25754W        W98179  25.963   9.669   3.130
25755W        W98180   6.969  22.227  13.942
25756W        W98181  25.171  32.679  13.484
25757W        W98182  17.972  35.397   3.396
25758W        W98183   5.055  31.979   0.336
25759W        W98184  26.708  40.500  13.364
25760W        W98185  11.266  34.785   3.304
25761W        W98186  27.898  27.717  10.527
25762W        W98187  40.660   6.277   4.090
25763W        W98188  40.812  22.977   2.203
25764W        W98189  38.326  14.237  11.678
25765W        W98190  38.980  22.539   3.668
25766W        W98191  38.961  41.637   4.797
25767W        W98192  36.379  21.599  14.812
25768W        W98193  13.296   3.855   3.004
25769W        W98194  34.594   5.603   0.381
25770W        W98195  27.293  41.062  12.263
25771W        W98196  28.135  19.832  12.885
25772W        W98197  18.957  24.400  14.071
25773W        W98198  30.142  18.018   0.815
25774W        W98199  10.854  31.401   1.896
25775W        W98200  42.477  29.218  10.440
25776W        W98201  32.545  14.256   2.210
25777W        W98202  32.387  36.946   0.524
25778W        W98203  34.617   3.429  13.772
25779W        W98204  41.259  25.841  14.274
25780W        W98205  30.599  10.647  12.507
25781W        W98206  18.953  41.724   2.789
25782W        W98207  26.305  31.945   4.086
25783W        W98208   2.009  36.314   3.407
25784W        W98209  20.300   6.738   1.138
25785W        W98210  25.346   8.524   9.935
25786W        W98211  34.070  35.464   2.673
25787W        W98212   8.340  41.168  10.199
25788W        W98213  21.120  44.284  10.541
25789W        W98214  12.614  15.551   1.168
25790W        W98215   0.052   2.367  12.475
25791W        W98216  43.934  11.917  10.942
25792W        W98217  26.087  28.544   0.495
25793W        W98218  18.130  32.828  12.059
25794W        W98219   8.719  13.347  10.792
25795W        W98220   4.093   4.941   3.728
25796W        W98221  28.428  19.823   3.330
25797W        W98222  31.987  38.900  14.092
25798W        W98223   6.620  42.969   0.353
25799W        W98224  18.285   7.159   1.413
25800W        W98225  21.663  36.102  14.403
25801W        W98226   9.923  42.767   4.661
25802W        W98227  25.256   4.805   0.885
25803W        W98228  28.412  34.396   1.424
25804W        W98229   1.351  26.328   0.784
25805W        W98230  43.203  37.259  14.553
25806W        W98231  19.537   8.429  11.991
25807W        W98232  21.691  18.264   0.281
25808W        W98233  19.719  40.640  13.108
25809W        W98234  19.290  41.371  11.186
25810W        W98235  15.476   2.394   2.820
25811W        W98236  37.821  15.748   4.891
25812W        W98237  33.837   9.720   1.648
25813W        W98238  14.245  18.516  12.169
25814W        W98239  40.778  18.343   0.397
25815W        W98240  32.164  25.341  14.832
25816W        W98241  17.239  13.976   4.434
25817W        W98242  22.205  44.442   1.678
25818W        W98243  43.332  39.458   4.716
25819W        W98244  19.698  30.574  14.067
25820W        W98245  41.068  22.511   2.711
25821W        W98246  10.164  28.260   5.068
25822W        W98247  16.194  13.849   0.353
25823W        W98248  36.973  34.195  12.201
25824W        W98249  32.736  42.423  11.552
25825W        W98250  18.053  43.239  10.658
25826W        W98251  34.228  28.464  13.560
25827W        W98252  38.522  17.651   4.922
25828W        W98253  32.664  27.441  14.370
25829W        W98254   5.336   1.418  14.126
25830W        W98255  15.069  34.956  11.883
25831W        W98256  10.224  12.996   4.706
25832W        W98257  16.025  39.748   3.872
25833W        W98258   5.412  11.806  13.540
25834W        W98259  33.800   5.912  12.125
25835W        W98260  24.629  24.735   2.777
25836W        W98261  22.159  18.684   3.302
25837W        W98262  43.226  40.432   4.089
25838W        W98263  40.838   6.375  11.021
25839W        W98264  27.829  30.453  14.909
25840W        W98265  40.783  41.173  13.309
25841W        W98266   9.169  15.101   1.815
25842W        W98267  12.280  35.105   3.332
25843W        W98268  33.233  39.427   2.860
25844W        W98269  12.116  14.245  13.562
25845W        W98270  15.762  38.036  11.901
25846W        W98271  10.684  33.622   0.790
25847W        W98272  41.943   8.588   5.065
25848W        W98273  21.175  13.147  12.939
25849W        W98274   0.270   0.984  11.459
25850W        W98275  34.932  37.392   1.382
25851W        W98276  21.256   6.450  10.642
25852W        W98277  32.442  14.773   1.441
25853W        W98278  19.076  11.294   2.264
25854W        W98279  15.718  39.978  11.530
25855W        W98280  40.551  10.322  11.171
25856W        W98281  32.499  42.137   0.383
25857W        W98282  18.322   1.844   5.757
25858W        W98283   7.544  14.108  11.581
25859W        W98284   1.121  26.658   4.987
25860W        W98285   9.278  19.559   3.372
25861W        W98286  13.292   2.399   0.297
25862W        W98287   2.492  29.012  13.929
25863W        W98288  26.397  34.411  11.106
25864W        W98289   1.827   1.448  12.489
25865W        W98290  37.409  27.537   2.448
25866W        W98291  28.876  35.417  12.063
25867W        W98292  22.012   6.922  12.431
25868W        W98293  36.368  39.949   1.768
25869W        W98294   0.407   8.476   1.966
25870W        W98295  33.953  42.847   4.571
25871W        W98296  17.561   5.015  14.417
25872W        W98297  12.389   9.462   2.632
25873W        W98298   4.328   7.075   5.032
25874W        W98299   3.744  21.046   3.368
25875W        W98300  36.558   3.653   2.268
25876W        W98301  40.374  30.351   9.899
25877W        W98302  36.665  27.253  14.934
25878W        W98303  21.116   0.709   3.199
25879W        W98304  18.595  10.741  13.952
25880W        W98305  17.148  13.871  14.306
25881W        W98306  41.698  14.883  12.923
25882W        W98307   5.863  22.210  11.571
25883W        W98308  24.274  21.169   4.130
25884W        W98309  29.718   5.032   4.340
25885W        W98310  17.269  12.918   3.580
25886W        W98311  12.255   4.746   3.916
25887W        W98312   2.339   5.280  12.686
25888W        W98313  13.090   9.127   0.901
25889W        W98314  14.073   9.783   4.594
25890W        W98315  13.171  20.273   3.083
25891W        W98316  11.269   6.262   4.378
25892W        W98317  39.050   7.379   0.276
25893W        W98318  32.089  37.485  12.110
25894W        W98319  20.148  17.004   4.593
25895W        W98320  36.186  34.098  10.926
25896W        W98321  41.891  38.051   0.743
25897W        W98322  18.285  22.720   3.716
25898W        W98323  36.114  37.464   0.907
25899W        W98324  40.965  21.836  14.258
25900W        W98325  21.962  42.777   2.211
25901W        W98326   2.817  20.804  10.852
25902W        W98327  39.077  28.669   1.136
25903W        W98328  20.993   6.791   2.432
25904W        W98329   9.591   4.038  12.846
25905W        W98330  24.883  10.314   9.790
25906W        W98331  42.237  15.017  10.769
25907W        W98332   8.510  14.736  13.503
25908W        W98333  24.948  44.957   3.133
25909W        W98334   8.223  21.810   4.433
25910W        W98335  33.864  26.428   2.712
25911W        W98336  29.099  14.195  13.328
25912W        W98337  28.580  40.440  14.649
25913W        W98338  33.108   7.128  10.984
25914W        W98339   1.741  35.840   2.240
25915W        W98340   1.766  39.822  12.907
25916W        W98341  14.669  14.600   1.411
25917W        W98342  20.518  22.699  14.034
25918W        W98343  22.721  42.370   2.207
25919W        W98344  16.356  26.984  11.552
25920W        W98345  15.113  19.166   4.728
25921W        W98346  29.390  22.662   1.311
25922W        W98347  10.782  44.279   1.779
25923W        W98348   3.871   0.737  11.401
25924W        W98349  44.144  31.702   1.243
25925W        W98350  27.129  29.663   1.284
25926W        W98351   3.377   1.494   0.794
25927W        W98352   1.885  22.172   0.275
25928W        W98353  23.500  28.539  10.630
25929W        W98354  12.823   3.401   1.344
25930W        W98355  20.711  14.628  13.752
25931W        W98356  37.010  37.208   3.422
25932W        W98357  15.152  35.986   2.275
25933W        W98358  13.998  13.264   2.842
25934W        W98359  11.078  38.612  14.393
25935W        W98360   9.688  13.479  13.523
25936W        W98361  29.958  28.142   4.873
25937W        W98362  13.949  27.919   4.641
25938W        W98363  35.511  19.082   1.066
25939W        W98364  31.854  20.989  12.032
25940W        W98365  13.245  43.467   3.081
25941W        W98366  14.783  26.386   2.732
25942W        W98367  22.684   8.474  12.514
25943W        W98368  30.037   7.860  14.866
25944W        W98369  15.980  23.081   2.861
25945W        W98370  38.879  29.614  12.093
25946W        W98371  13.278  14.220  12.528
25947W        W98372  34.306   7.819  13.416
25948W        W98373  41.524  33.204   2.730
25949W        W98374  34.792  12.652  13.083
25950W        W98375   9.848   5.420  12.850
25951W        W98376  41.456  20.318   1.842
25952W        W98377  29.043  33.393   4.994
25953W        W98378  37.842  17.976  14.943
25954W        W98379  39.298   8.555  14.978
25955W        W98380  19.813  30.171   2.825
25956W        W98381   8.339  37.317  14.793
25957W        W98382  28.879  23.036  13.110
25958W        W98383  35.521  13.008   1.836
25959W        W98384  37.308   4.140  12.030
25960W        W98385  17.174   3.199   4.503
25961W        W98386   1.505  19.182   2.446
25962W        W98387  30.584  35.052   1.176
25963W        W98388  22.686   4.307  10.671
25964W        W98389  12.777  27.573  12.955
25965W        W98390  16.688   8.715   2.705
25966W        W98391  19.872   8.851  12.855
25967W        W98392  41.279  33.384   2.223
25968W        W98393  32.653   0.778  14.007
25969W        W98394  14.314  13.062  12.989
25970W        W98395  39.484   3.845  11.091
25971W        W98396  44.190   3.971  12.571
25972W        W98397  24.042  26.506   0.850
25973W        W98398  16.836  18.026   2.516
25974W        W98399   9.684  34.506  14.536
25975W        W98400  25.570   9.290  10.655
25976W        W98401  32.307  32.559  12.801
25977W        W98402  39.473  24.388   4.015
25978W        W98403  13.379  15.635   4.618
25979W        W98404  22.246  18.134   2.679
25980W        W98405  19.882  28.005   5.410
25981W        W98406  26.140  44.092   2.493
25982W        W98407  40.954  11.872  10.440
25983W        W98408   2.813  35.843  14.414
25984W        W98409   5.738   1.379   4.589
25985W        W98410  11.233  13.534  14.581
25986W        W98411  37.470  18.324  11.546
25987W        W98412  21.961  27.513  10.667
25988W        W98413  40.900  29.575  13.389
25989W        W98414   4.518  20.972  11.135
25990W        W98415  41.508   2.768  11.597
25991W        W98416  14.453  34.468   2.630
25992W        W98417  35.586  14.256   0.993
25993W        W98418  42.556  43.448   1.862
25994W        W98419   5.742  12.313   1.763
25995W        W98420   4.057  36.399   3.862
25996W        W98421  15.641  30.927  10.104
25997W        W98422  22.530   8.999   4.892
25998W        W98423  25.022  44.972   2.217
25999W        W98424  38.896  43.057  10.287
26000W        W98425  39.436  44.455  11.194
26001W        W98426  38.457   9.866   3.813
26002W        W98427  20.023  11.154  11.710
26003W        W98428  34.010  30.679  14.051
26004W        W98429   0.067  17.155  13.389
26005W        W98430  44.779  26.057   4.441
26006W        W98431   2.147   8.204  13.514
26007W        W98432  22.453  23.421   2.336
26008W        W98433   8.774   0.616  14.451
26009W        W98434  11.605  24.778   3.309
26010W        W98435  28.152  17.268  12.053
26011W        W98436  25.377  21.851  11.027
26012W        W98437  12.810  23.501  12.662
26013W        W98438  12.910   9.232  14.615
26014W        W98439  17.764  21.841  12.119
26015W        W98440  17.735   5.815  13.806
26016W        W98441  15.206  15.771   0.041
26017W        W98442  40.573   6.180  14.870
26018W        W98443  43.511  28.993  14.315
26019W        W98444  10.307  34.874   3.905
26020W        W98445  13.209  43.547   0.900
26021W        W98446  23.321  26.584   1.624
26022W        W98447  24.441  43.575  13.097
26023W        W98448  11.273   9.644  10.523
26024W        W98449   0.480  37.654  13.265
26025W        W98450   9.756  41.972   0.250
26026W        W98451   2.029  15.226   0.803
26027W        W98452   8.865  44.892   3.270
26028W        W98453   4.992   1.102   1.534
26029W        W98454  16.913  40.771  13.421
26030W        W98455  31.001   2.359  13.326
26031W        W98456  37.818   1.476  11.164
26032W        W98457   1.677  29.962   3.715
26033W        W98458  12.212  20.489   4.104
26034W        W98459  29.582  28.058   0.722
26035W        W98460  37.506  26.921   1.225
26036W        W98461  24.458   7.385  14.774
26037W        W98462   1.272  16.618   4.365
26038W        W98463  39.519  11.068   4.051
26039W        W98464  20.314  14.169   4.650
26040W        W98465  24.164   8.665   0.898
26041W        W98466  36.900   9.157  14.844
26042W        W98467  25.409   3.471  12.412
26043W        W98468  30.261   9.754   4.642
26044W        W98469  31.767  33.558   3.109
26045W        W98470  17.675   4.382  14.496
26046W        W98471  35.904  18.941  14.233
26047W        W98472  30.661  20.733   4.665
26048W        W98473  28.617  19.587   1.455
26049W        W98474  36.850  20.733   1.424
26050W        W98475  44.442  22.320  13.071
26051W        W98476  40.697  35.141   3.331
26052W        W98477  41.788   0.594  12.054
26053W        W98478   7.665  27.656   3.244
26054W        W98479  25.971  22.701  12.109
26055W        W98480  18.184  41.345   1.949
26056W        W98481  42.461   8.225   2.367
26057W        W98482   7.173  11.313  11.124
26058W        W98483  34.930   1.687  10.522
26059W        W98484   7.933  44.754   3.567
26060W        W98485  16.328  20.090  11.954
26061W        W98486  16.761  29.909   4.197
26062W        W98487  16.564  30.209   9.600
26063W        W98488   1.365  11.538  14.930
26064W        W98489   5.918  29.938   3.253
26065W        W98490  42.555  40.028  10.430
26066W        W98491  14.580  43.585  13.504
26067W        W98492  21.002   5.162   3.332
26068W        W98493  19.206  26.871  14.993
26069W        W98494  31.722  38.763   3.245
26070W        W98495  42.023  11.104   0.945
26071W        W98496   3.517  28.082   3.728
26072W        W98497   0.741  38.236  10.683
26073W        W98498  31.915  42.183   1.410
26074W        W98499   2.012   1.331   2.711
26075W        W98500  12.674  33.042  13.008
26076W        W98501  28.572  19.999   0.067
26077W        W98502   9.715  10.125   0.840
26078W        W98503  14.395  19.472   1.028
26079W        W98504  28.062  39.607   4.177
26080W        W98505  26.454   8.353  14.020
26081W        W98506  10.846  33.686  13.569
26082W        W98507  10.838  36.951  13.217
26083W        W98508  29.903   0.938   2.635
26084W        W98509  27.715  22.640   3.231
26085W        W98510  36.010  23.149  11.851
26086W        W98511  18.924  44.086  10.951
26087W        W98512  10.564  41.789  13.837
26088W        W98513  11.864  26.179  10.555
26089W        W98514  37.469  17.605   2.861
26090W        W98515  16.619  23.242   1.687
26091W        W98516  36.511  30.428  11.345
26092W        W98517  25.102  19.744   2.176
26093W        W98518  27.395  30.961   4.087
26094W        W98519   3.638  27.606   2.399
26095W        W98520  34.725  24.288  11.586
26096W        W98521   1.078  36.029   3.519
26097W        W98522  40.977   9.189   0.450
26098W        W98523  44.335  18.906   2.695
26099W        W98524  11.841  42.999  14.987
26100W        W98525   0.295  36.013   0.546
26101W        W98526  31.019  43.552   3.141
26102W        W98527  13.359   4.742  11.862
26103W        W98528  23.095  32.108   2.659
26104W        W98529  37.487   7.247   1.502
26105W        W98530  27.674   5.247  10.431
26106W        W98531  24.733  10.356   0.593
26107W        W98532  40.414   1.255   3.819
26108W        W98533  31.043  37.872   4.680
26109W        W98534   9.847   3.297   4.110
26110W        W98535  21.486  35.771  14.953
26111W        W98536   7.363  34.515   0.812
26112W        W98537  12.601  27.891   4.196
26113W        W98538  31.256  18.563   9.836
26114W        W98539   7.325   4.471  14.086
26115W        W98540  11.180   2.898   4.548
26116W        W98541  20.032  28.074  14.533
26117W        W98542  13.215  22.062   5.114
26118W        W98543  31.830  43.934  11.946
26119W        W98544  30.435   8.273  10.525
26120W        W98545  10.045  24.707   0.511
26121W        W98546  25.982  28.476  14.987
26122W        W98547  32.161   0.420  10.737
26123W        W98548  25.212  25.698  13.316
26124W        W98549  35.185  15.643   2.170
26125W        W98550   6.293   5.728   0.061
26126W        W98551  29.802  15.817  13.249
26127W        W98552   9.713  15.643   3.189
26128W        W98553   1.426  24.057  14.138
26129W        W98554  31.655  17.602   3.219
26130W        W98555  14.804  44.974   1.966
26131W        W98556   5.195  27.159  12.491
26132W        W98557  44.577   1.604   5.174
26133W        W98558  13.042   7.806   1.954
26134W        W98559   1.674   7.830  13.944
26135W        W98560  18.069   2.764  14.913
26136W        W98561   8.826   8.132   2.804
26137W        W98562   2.298  26.243   4.192
26138W        W98563  20.579  26.352   4.246
26139W        W98564  32.836  43.412  11.151
26140W        W98565  22.132  19.872   4.185
26141W        W98566  27.636  25.269  10.751
26142W        W98567  28.121  16.033   4.442
26143W        W98568  29.104  12.064   1.974
26144W        W98569  25.752  36.440   3.196
26145W        W98570  12.086  30.817   3.048
26146W        W98571  32.252   9.889   0.743
26147W        W98572  44.871  28.884  12.390
26148W        W98573  39.421  44.840  14.393
26149W        W98574   0.328   2.265   4.660
26150W        W98575  28.548  17.196  12.740
26151W        W98576  26.226  13.076  12.405
26152W        W98577   6.508  14.388  12.971
26153W        W98578  26.411  25.315  13.889
26154W        W98579  33.081   0.294  13.105
26155W        W98580  13.110  18.760   3.299
26156W        W98581  20.981  32.214  10.092
26157W        W98582  40.275  34.850  13.442
26158W        W98583  38.841  38.925   1.855
26159W        W98584   5.798  27.959   3.803
26160W        W98585  29.459  19.713   0.332
26161W        W98586  16.357   5.347  14.921
26162W        W98587  20.142   9.007  12.286
26163W        W98588   1.576   3.930  11.689
26164W        W98589  17.739  28.640   3.566
26165W        W98590  43.845   5.832   1.942
26166W        W98591  32.309   9.861   4.928
26167W        W98592  35.242  34.849  13.591
26168W        W98593  36.783  44.721   2.357
26169W        W98594   4.387  20.079   2.224
26170W        W98595  31.486  18.807   4.353
26171W        W98596  31.055  29.538   1.846
26172W        W98597   3.431  29.078   4.569
26173W        W98598  21.734  10.652   4.553
26174W        W98599   7.596  42.340  14.990
26175W        W98600  10.787   1.350   1.202
26176W        W98601   2.307  23.489   4.642
26177W        W98602   3.072  35.009  14.753
26178W        W98603  21.558  19.148   1.275
26179W        W98604  36.349   8.380  12.517
26180W        W98605  17.496  21.037   2.758
26181W        W98606  36.415  15.173  13.166
26182W        W98607   8.048  16.097  14.096
26183W        W98608   6.723  26.187   4.405
26184W        W98609  31.993  12.644  13.327
26185W        W98610  24.668  20.966   4.436
26186W        W98611  31.200  39.540  13.990
26187W        W98612  27.130   4.486   1.849
26188W        W98613  26.440   6.983  13.891
26189W        W98614  21.047  12.283   1.796
26190W        W98615  12.476  23.044   2.675
26191W        W98616  16.327  29.455  13.560
26192W        W98617  24.447  14.797   1.685
26193W        W98618  34.200  30.927  12.540
26194W        W98619  19.003  19.630  10.826
26195W        W98620  25.244  22.516   3.170
26196W        W98621  34.873   6.373   1.897
26197W        W98622   6.911  43.090  14.927
26198W        W98623  27.129  17.171   1.239
26199W        W98624  44.293  42.530   0.320
26200W        W98625  24.752   9.671   2.806
26201W        W98626  25.731  31.509   0.458
26202W        W98627   3.221  16.731  11.918
26203W        W98628   0.022   7.288   0.882
26204W        W98629  27.576  14.639  14.429
26205W        W98630  17.589  18.259   4.754
26206W        W98631  25.732  14.377  11.704
26207W        W98632   4.544  37.581  13.094
26208W        W98633  15.588  23.052  14.658
26209W        W98634  24.868  39.086   0.850
26210W        W98635  18.790  17.260  12.617
26211W        W98636  37.795   1.721  13.039
26212W        W98637  14.334  36.316   3.278
26213W        W98638  13.889  33.014  11.074
26214W        W98639   3.208  39.848  14.331
26215W        W98640  10.909  42.983  14.028
26216W        W98641   6.323  22.612   1.896
26217W        W98642   0.958  40.216   3.306
26218W        W98643  39.791  21.728  13.001
26219W        W98644  11.419  40.062  11.722
26220W        W98645  43.633   0.050   4.114
26221W        W98646  37.307  40.097   1.720
26222W        W98647   7.408  16.560   2.749
26223W        W98648  21.987  23.043  12.250
26224W        W98649  37.126  19.185   1.775
26225W        W98650  44.063  35.880  14.922
26226W        W98651  36.595  13.125  11.929
26227W        W98652  38.091  43.752  12.992
26228W        W98653  11.591  27.988   4.022
26229W        W98654  34.823  26.966  11.948
26230W        W98655  15.689  31.000  14.802
26231W        W98656  12.912   7.190  10.529
26232W        W98657  18.524  10.238   3.929
26233W        W98658  25.686  26.683   4.120
26234W        W98659  22.738  34.531   1.846
26235W        W98660   3.312  41.422   0.226
26236W        W98661  40.426  13.113   1.416
26237W        W98662   8.764  14.711   0.550
26238W        W98663  34.289  25.381   3.352
26239W        W98664  41.507  21.394  14.787
26240W        W98665  43.747  42.475  12.583
26241W        W98666   3.366  26.977   1.854
26242W        W98667  21.134  28.024   2.066
26243W        W98668  24.912  15.221  13.330
26244W        W98669  38.316  12.084   4.367
26245W        W98670   9.624  42.004   1.408
26246W        W98671   0.286  14.721   2.843
26247W        W98672  43.774  30.839  10.750
26248W        W98673  12.462  44.317   4.471
26249W        W98674  40.059  42.378  13.582
26250W        W98675   1.972  14.854   3.212
26251W        W98676   9.942  24.452   0.978
26252W        W98677  36.837  30.415   0.773
26253W        W98678  41.067  26.198  13.122
26254W        W98679  15.496  14.544  13.343
26255W        W98680  24.310  15.856   1.258
26256W        W98681  43.362  44.007   4.326
26257W        W98682  18.724  24.459   2.170
26258W        W98683  28.040   7.701   1.446
26259W        W98684  22.650  39.761  14.849
26260W        W98685  22.780   5.875   0.682
26261W        W98686  42.425  21.304   2.037
26262W        W98687  33.035  17.782   1.885
26263W        W98688  15.679  21.115   4.332
26264W        W98689  29.054   3.208  11.507
26265W        W98690  12.666   7.869   3.583
26266W        W98691  33.995  44.529  14.079
26267W        W98692  43.263  37.515   3.708
26268W        W98693  17.364   1.383   3.548
26269W        W98694   3.602  38.842  13.010
26270W        W98695   8.124  35.937  12.511
26271W        W98696  43.960  22.125  12.571
26272W        W98697  11.604  43.533   2.314
26273W        W98698   0.478  29.539  12.879
26274W        W98699  40.518  22.697   0.406
26275W        W98700  24.715   1.181   3.101
26276W        W98701   7.621  14.221   4.691
26277W        W98702  39.442  11.948   0.873
26278W        W98703  10.960  44.839  13.303
26279W        W98704  44.820  29.694   0.805
26280W        W98705   6.480   8.316  14.951
26281W        W98706  38.294   5.836  10.626
26282W        W98707   5.680  36.910  13.525
26283W        W98708  30.033  21.313  12.987
26284W        W98709   0.859   6.262  12.342
26285W        W98710  42.454  42.821   3.361
26286W        W98711   2.691  30.277  13.349
26287W        W98712  30.849  11.588   3.967
26288W        W98713  39.283  10.542  10.212
26289W        W98714  21.490  40.638  14.890
26290W        W98715  15.052   2.647  10.834
26291W        W98716  37.747  32.106   4.482
26292W        W98717  11.497   1.923   1.220
26293W        W98718   7.457  43.801   1.529
26294W        W98719  12.800  21.250  14.905
26295W        W98720  32.036  34.582   3.178
26296W        W98721  28.480  35.579   1.647
26297W        W98722   3.806  11.367  13.013
26298W        W98723   5.296  27.390   4.797
26299W        W98724   4.408  33.031  11.629
26300W        W98725  10.901  34.916   1.886
26301W        W98726  39.117   0.887   0.874
26302W        W98727  36.566  12.197  10.526
26303W        W98728   7.276  24.235   3.676
26304W        W98729   8.321  33.895   4.020
26305W        W98730   7.562  29.254   0.847
26306W        W98731  33.527  33.113  11.219
26307W        W98732   2.298  18.791  12.532
26308W        W98733  32.848  40.606  11.959
26309W        W98734  22.714   4.890   4.524
26310W        W98735  26.472  16.102  14.862
26311W        W98736  28.093  33.339   5.043
26312W        W98737   8.311  20.054  11.060
26313W        W98738  41.346   1.512  13.361
26314W        W98739   0.856  11.408  14.837
26315W        W98740  32.929  25.602   0.710
26316W        W98741   1.984  38.152   3.677
26317W        W98742  16.764  28.864   3.223
26318W        W98743  43.032   7.206  11.666
26319W        W98744  22.680  34.915   3.863
26320W        W98745  43.884  13.596   4.888
26321W        W98746  19.965   9.383   0.222
26322W        W98747  10.705  30.707  10.442
26323W        W98748  39.599  17.994  11.542
26324W        W98749   3.889  44.942  14.954
26325W        W98750  26.060  18.706   1.216
26326W        W98751   5.809  16.343  11.078
26327W        W98752   4.477   9.460   2.659
26328W        W98753   6.228   8.231   3.187
26329W        W98754  18.251  34.055  10.916
26330W        W98755  34.008   7.271  14.695
26331W        W98756  33.087  26.639  13.999
26332W        W98757  41.869  11.117  13.786
26333W        W98758  24.855   5.513   2.576
26334W        W98759  21.890  19.044   0.222
26335W        W98760  24.135  14.540   4.428
26336W        W98761  15.683  28.551   2.373
26337W        W98762  16.850  27.506  11.218
26338W        W98763  44.365  15.475  11.933
26339W        W98764  19.215  18.580  11.058
26340W        W98765   9.209  18.584   0.345
26341W        W98766  25.453   5.298  11.505
26342W        W98767  38.131   1.640  14.780
26343W        W98768  13.253  11.267   2.349
26344W        W98769  31.079  35.552   3.191
26345W        W98770  13.118  23.199  11.080
26346W        W98771  10.763  28.538  11.841
26347W        W98772   9.917   2.249  12.141
26348W        W98773  29.637  43.492   2.816
26349W        W98774  22.141  24.030   3.195
26350W        W98775  17.221  30.254   0.211
26351W        W98776   6.682  25.672   1.275
26352W        W98777  19.969  12.779  13.916
26353W        W98778  25.476  32.322   2.362
26354W        W98779  14.083  37.835  10.818
26355W        W98780   3.455   9.147  13.366
26356W        W98781  18.800  18.193   4.125
26357W        W98782   2.524  19.156  10.779
26358W        W98783  44.814  27.529  13.008
26359W        W98784  43.396  20.525   3.804
26360W        W98785  39.278   6.362  14.300
26361W        W98786  24.945  10.949   4.221
26362W        W98787  33.047  29.742   3.981
26363W        W98788  29.166  26.151   4.517
26364W        W98789  27.728  30.016  14.555
26365W        W98790  39.973  38.884  11.908
26366W        W98791  24.637  21.986  10.496
26367W        W98792  17.277  14.809  14.482
26368W        W98793  30.618  36.327   2.400
26369W        W98794  11.850   1.862  14.044
26370W        W98795  43.992  44.691  11.287
26371W        W98796  13.316  17.031   4.642
26372W        W98797  17.248  40.345  11.747
26373W        W98798  20.683  28.111   1.839
26374W        W98799   6.283  11.122   3.108
26375W        W98800  15.082  33.590  12.863
26376W        W98801  30.074  39.991  14.032
26377W        W98802  37.924   5.220   0.235
26378W        W98803  16.334  40.208  11.494
26379W        W98804  13.399  31.627   1.196
26380W        W98805  32.088  41.270  11.421
26381W        W98806  31.203  17.882   3.314
26382W        W98807   5.095   0.524  11.732
26383W        W98808  31.420  36.531  11.085
26384W        W98809  39.449   0.293  12.517
26385W        W98810  33.604  39.347  10.673
26386W        W98811  23.457  30.937  11.026
26387W        W98812  15.142  18.915  13.291
26388W        W98813  29.080   4.959   0.812
26389W        W98814  10.724  38.524  13.868
26390W        W98815   8.490  28.579  13.837
26391W        W98816  29.188  17.405  11.545
26392W        W98817  17.106   6.619  14.993
26393W        W98818   1.736   7.635   0.885
26394W        W98819  26.687   1.157  10.679
26395W        W98820   3.308  36.392  11.473
26396W        W98821  25.192  27.555  11.112
26397W        W98822  33.454  31.759   0.860
26398W        W98823  25.956  31.296   3.862
26399W        W98824  11.388  28.406  10.606
26400W        W98825  41.301  13.303  12.007
26401W        W98826  44.261   7.736   0.275
26402W        W98827   9.420  30.038   0.348
26403W        W98828  26.473   9.642   2.370
26404W        W98829  12.210  14.036  12.231
26405W        W98830  31.929  38.897  12.015
26406W        W98831  33.952   4.831   1.474
26407W        W98832   5.691  29.463  14.318
26408W        W98833   1.670  31.268  11.426
26409W        W98834  44.888  18.636   4.318
26410W        W98835  22.487   1.972   3.291
26411W        W98836  40.440  37.294   0.424
26412W        W98837   5.929   9.336  13.489
26413W        W98838  13.783  19.203  10.698
26414W        W98839  32.533   1.896   4.668
26415W        W98840   8.476   6.020  11.890
26416W        W98841  19.653  25.911   0.417
26417W        W98842  28.115  22.381  13.979
26418W        W98843  14.144  40.552   2.704
26419W        W98844  19.473   4.010   2.854
26420W        W98845  36.388  41.050  13.439
26421W        W98846   9.721   9.926   1.804
26422W        W98847  25.454  29.879  13.926
26423W        W98848  43.424  40.005  12.173
26424W        W98849  17.087  24.475   2.401
26425W        W98850   4.721   3.822   2.310
26426W        W98851  19.710  31.560   5.479
26427W        W98852  18.392  42.890  10.101
26428W        W98853  24.376  32.013   1.776
26429W        W98854  27.156  21.230   2.754
26430W        W98855  30.916  29.981   2.663
26431W        W98856   7.632  31.094   3.841
26432W        W98857  15.097  16.455   2.145
26433W        W98858  42.226   7.460  14.000
26434W        W98859  12.604  18.264  13.274
26435W        W98860  12.503  23.759  11.209
26436W        W98861  18.520  29.017  11.145
26437W        W98862   1.198  29.192  12.445
26438W        W98863  10.740   5.199  13.976
26439W        W98864   7.168  41.103   1.318
26440W        W98865   1.484  26.999  14.524
26441W        W98866   9.281  32.321   3.447
26442W        W98867  31.098  17.782  11.428
26443W        W98868   0.723  23.327   2.039
26444W        W98869  15.868  31.680  11.597
26445W        W98870  28.098  34.808   2.408
26446W        W98871   7.410   0.474  12.962
26447W        W98872  18.219  40.357   1.765
26448W        W98873  19.189  41.507  12.080
26449W        W98874  22.859  44.148   0.412
26450W        W98875  40.281   5.761   1.714
26451W        W98876  42.460  25.623   3.163
26452W        W98877  41.000  26.952  14.144
26453W        W98878  19.141  44.269   3.942
26454W        W98879  11.179   3.259   4.155
26455W        W98880  26.987  18.723   3.371
26456W        W98881  14.224  24.505   2.336
26457W        W98882   0.737   8.340  14.750
26458W        W98883  10.666  16.018  12.441
26459W        W98884  24.097   5.494   0.430
26460W        W98885  36.480  32.225   0.743
26461W        W98886   3.906  17.866   3.170
26462W        W98887   6.202  20.945   4.058
26463W        W98888  43.998  16.256   0.738
26464W        W98889  32.161  39.410  10.994
26465W        W98890  16.175   3.692  10.675
26466W        W98891   2.685   6.151  11.519
26467W        W98892  16.533   1.409   2.991
26468W        W98893  28.409  38.944  13.943
26469W        W98894  25.269  44.958  10.929
26470W        W98895  44.855  27.389   3.599
26471W        W98896  34.860  23.655   2.310
26472W        W98897  15.264  17.539   3.703
26473W        W98898  41.050  43.600   2.003
26474W        W98899   4.508   5.892  10.745
26475W        W98900  20.582  30.064   0.595
26476W        W98901  19.550  26.530  12.945
26477W        W98902  43.419   9.192  14.973
26478W        W98903  13.555   8.343   4.577
26479W        W98904  29.154  23.942   1.723
26480W        W98905  29.695  17.204  12.384
26481W        W98906   8.268  12.777  12.184
26482W        W98907   7.621  32.600   0.261
26483W        W98908  43.284  44.984   2.153
26484W        W98909   9.218   7.452  14.824
26485W        W98910  24.461  20.215  10.773
26486W        W98911  22.053   6.920   3.254
26487W        W98912  24.126  10.810  12.676
26488W        W98913  38.981  23.116   0.979
26489W        W98914  38.607  31.553  12.068
26490W        W98915  11.451  25.683  13.452
26491W        W98916   2.301   5.661   1.822
26492W        W98917  42.847   5.446  11.552
26493W        W98918   0.047  27.104  13.968
26494W        W98919   3.267  13.581  12.525
26495W        W98920   7.772  21.250   0.908
26496W        W98921  18.515  33.965  14.964
26497W        W98922  27.815   9.712   1.201
26498W        W98923  22.081  21.321   2.800
26499W        W98924  34.521  10.873  10.389
26500W        W98925  25.117  39.499   1.163
26501W        W98926  33.634  24.596  13.767
26502W        W98927  29.079  34.550   1.174
26503W        W98928  14.827  23.574   1.825
26504W        W98929  27.774  32.216   4.176
26505W        W98930  37.042  12.833   3.784
26506W        W98931  38.592  38.364  12.024
26507W        W98932  17.100  23.253  10.667
26508W        W98933  28.982   3.370   3.632
26509W        W98934  15.066  29.448  11.993
26510W        W98935  44.898   4.698  10.356
26511W        W98936  18.017  39.979   3.420
26512W        W98937  22.242  11.614   2.593
26513W        W98938   2.364  14.563  11.461
26514W        W98939   9.427  26.005  12.502
26515W        W98940  25.225  41.561   3.258
26516W        W98941  37.015   8.651   3.390
26517W        W98942  13.630  30.621  13.346
26518W        W98943  44.755  29.968  14.515
26519W        W98944   5.655  40.772   0.956
26520W        W98945  40.929   7.131   4.549
26521W        W98946  23.161  10.601   2.842
26522W        W98947   1.752  18.171  11.011
26523W        W98948  16.721   2.252  13.512
26524W        W98949  27.640   2.904   4.601
26525W        W98950  23.432  28.102  13.465
26526W        W98951  19.099  17.187   0.382
26527W        W98952  25.258  30.407   2.718
26528W        W98953  27.919   6.330   4.407
26529W        W98954  14.709  14.582   3.233
26530W        W98955  41.717  28.091  10.257
26531W        W98956  11.605   7.263   4.119
26532W        W98957  26.304  29.168   2.703
26533W        W98958  23.668   0.468   2.392
26534W        W98959  38.367  13.426  13.549
26535W        W98960  10.900  41.817   4.654
26536W        W98961  27.072  17.164   4.608
26537W        W98962  19.806  34.877  14.865
26538W        W98963  15.183   5.919  12.928
26539W        W98964  27.941  14.612   4.631
26540W        W98965  16.218  30.335  12.649
26541W        W98966  14.625  29.705   4.739
26542W        W98967  18.704   0.410   2.148
26543W        W98968  10.814  24.562   2.835
26544W        W98969  40.246  19.352   3.690
26545W        W98970  39.273   5.034  14.177
26546W        W98971  10.570  35.573   0.785
26547W        W98972  36.148  33.652  13.288
26548W        W98973   0.587  27.764  14.542
26549W        W98974  12.309   1.716  13.838
26550W        W98975  30.541  10.368   2.322
26551W        W98976   0.334  41.734  13.921
26552W        W98977   2.942  12.826  13.421
26553W        W98978  28.058   1.920   1.885
26554W        W98979   3.766  35.516   3.629
26555W        W98980  44.034  42.661   2.357
26556W        W98981  25.663  31.201  14.253
26557W        W98982  34.852  43.260  11.613
26558W        W98983  12.754  22.681  13.118
26559W        W98984  20.300  18.527  10.775
26560W        W98985  26.642  15.410   1.278
26561W        W98986  14.776   3.912  14.295
26562W        W98987  33.845  32.337   3.875
26563W        W98988  20.411  17.526   2.633
26564W        W98989  20.148   9.928   1.883
26565W        W98990  33.590  41.929   3.235
26566W        W98991   3.226   8.879   3.691
26567W        W98992  12.199  34.307  10.640
26568W        W98993   7.438  17.159  13.427
26569W        W98994  14.750   1.042  14.852
26570W        W98995   9.870  16.834   4.848
26571W        W98996  14.731  16.641  13.461
26572W        W98997   2.259   8.861  14.378
26573W        W98998   6.287   0.701  11.165
26574W        W98999  15.809  13.632  13.500
26575W        W99000   7.856  23.630  11.519
26576W        W99001   5.725   8.600   2.670
26577W        W99002  16.576  41.362  11.000
26578W        W99003  14.876  24.418  10.410
26579W        W99004  39.503  18.826  13.486
26580W        W99005  33.980  11.366   4.572
26581W        W99006   9.292  29.558   1.377
26582W        W99007  35.715  15.194   4.011
26583W        W99008   7.836  11.223   0.157
26584W        W99009  40.402  44.280   5.415
26585W        W99010  22.490  23.165  13.477
26586W        W99011  25.164  29.940   4.153
26587W        W99012  10.771   4.627  11.624
26588W        W99013  28.063   0.319   4.017
26589W        W99014  31.593  34.863   4.637
26590W        W99015  40.451  11.312  13.291
26591W        W99016  24.296   6.914  14.939
26592W        W99017  27.626  36.324  10.980
26593W        W99018  32.395  15.156   3.164
26594W        W99019  36.543   9.419  12.524
26595W        W99020   8.406  41.295  10.730
26596W        W99021  14.869  17.790   0.866
26597W        W99022   9.873   6.841   4.232
26598W        W99023   7.358  20.597  11.165
26599W        W99024  15.036  15.343   2.807
26600W        W99025  24.256  36.638   0.681
26601W        W99026   2.665   5.368   1.586
26602W        W99027  27.440  42.456  12.852
26603W        W99028  29.128  11.071  13.288
26604W        W99029  36.700  28.039  10.800
26605W        W99030  34.898   2.008  14.731
26606W        W99031  13.912  16.889   3.954
26607W        W99032  23.101  39.033  13.920
26608W        W99033  28.589  17.305  13.754
26609W        W99034  11.052  10.112   3.157
26610W        W99035  13.561  21.105   2.212
26611W        W99036  27.414  44.239  14.797
26612W        W99037   3.379  35.072   1.794
26613W        W99038  28.680  24.883   5.169
26614W        W99039   5.321  38.253  13.508
26615W        W99040  18.211  23.478  12.380
26616W        W99041   8.317  24.630  14.490
26617W        W99042  28.827  23.611  14.789
26618W        W99043  15.642   0.828   0.069
26619W        W99044  14.222  44.029   3.697
26620W        W99045   0.463   2.237   1.388
26621W        W99046   5.829  37.791   1.783
26622W        W99047  13.748  26.448   0.276
26623W        W99048   0.817  17.692  12.908
26624W        W99049   5.589   0.602  11.563
26625W        W99050  16.190  21.150   4.160
26626W        W99051  43.457  37.002  13.210
26627W        W99052  32.857   1.847  10.741
26628W        W99053  29.143  10.229  12.996
26629W        W99054  41.922  25.055  11.803
26630W        W99055  24.048  35.610  10.830
26631W        W99056  18.190  16.743   4.267
26632W        W99057  10.775   3.260   4.580
26633W        W99058  37.887   3.186  14.913
26634W        W99059  42.518   3.559  12.875
26635W        W99060  20.967  40.518  11.325
26636W        W99061   8.268  33.884   4.549
26637W        W99062  44.418  31.335   3.397
26638W        W99063   0.726  40.365   1.929
26639W        W99064  40.904  41.716   2.302
26640W        W99065  14.602  32.103  14.629
26641W        W99066  12.142  40.796  12.086
26642W        W99067   3.874  13.415  12.943
26643W        W99068  33.173   3.865   3.688
26644W        W99069  14.068  17.157   3.547
26645W        W99070  40.870  19.264  12.014
26646W        W99071   0.837  27.952   2.968
26647W        W99072  29.634  20.692   1.944
26648W        W99073   5.908  14.325   0.602
26649W        W99074  31.306  34.090   3.264
26650W        W99075  31.517  16.764   5.255
26651W        W99076   2.288  28.243   3.307
26652W        W99077  13.372   3.899   1.058
26653W        W99078  31.149  27.756  14.461
26654W        W99079   7.395  39.476   4.777
26655W        W99080  11.174  42.691   2.235
26656W        W99081  24.504  28.731   0.949
26657W        W99082  31.481  19.490   3.740
26658W        W99083  35.343  21.481   2.270
26659W        W99084   8.726  27.605  14.249
26660W        W99085  39.026   0.182  14.371
26661W        W99086   9.208  11.710   1.496
26662W        W99087  13.395  23.487   1.542
26663W        W99088  37.087   1.572   2.691
26664W        W99089  18.361  38.620   2.151
26665W        W99090  12.960  17.272  14.101
26666W        W99091  14.180  40.047   0.913
26667W        W99092  38.323  24.429  11.161
26668W        W99093  30.535  21.216   1.174
26669W        W99094  31.113  40.597  13.323
26670W        W99095  33.430  13.597  12.524
26671W        W99096   7.394  18.687  12.478
26672W        W99097  15.295   1.970   0.302
26673W        W99098  15.004  17.691  12.133
26674W        W99099  14.477  16.554   4.148
26675W        W99100  12.691  20.077  11.933
26676W        W99101  42.574  39.367   2.306
26677W        W99102  41.535  26.951  13.384
26678W        W99103   3.392   5.498  13.468
26679W        W99104  43.782  10.161   3.315
26680W        W99105  33.532  28.129   4.017
26681W        W99106  33.702  34.967  13.441
26682W        W99107  36.271  23.077   4.162
26683W        W99108  31.470  44.196   4.197
26684W        W99109  24.888  33.050  12.121
26685W        W99110  36.505  31.895  13.452
26686W        W99111  32.796  16.127   5.056
26687W        W99112  30.931  25.496   0.386
26688W        W99113  15.596  17.028   4.139
26689W        W99114  18.133   4.296  14.681
26690W        W99115  27.125   5.784   1.267
26691W        W99116  12.154  19.324   2.749
26692W        W99117  10.329  10.953   2.849
26693W        W99118  23.494  42.581   0.908
26694W        W99119  43.409   5.415  13.344
26695W        W99120   5.391  31.763   1.706
26696W        W99121   1.505  24.633  12.329
26697W        W99122  17.911  34.954   4.410
26698W        W99123  26.754  28.141  13.082
26699W        W99124  44.388  21.559  13.347
26700W        W99125  33.507   4.726   2.349
26701W        W99126  22.105  11.079  14.204
26702W        W99127  18.562  15.100  13.329
26703W        W99128  20.233  29.572  12.932
26704W        W99129   2.066  19.255  12.612
26705W        W99130  42.433  16.540  13.506
26706W        W99131  34.549   3.379   2.465
26707W        W99132  27.374   5.557  11.345
26708W        W99133  30.150  25.948  13.828
26709W        W99134  16.540  31.083   1.880
26710W        W99135  37.194  29.482  14.943
26711W        W99136  42.853   9.683   4.553
26712W        W99137  26.563  37.966   0.916
26713W        W99138  36.596  44.546   0.569
26714W        W99139  14.018  12.590   4.264
26715W        W99140  17.900  21.776   4.728
26716W        W99141  38.645  30.591   3.847
26717W        W99142  39.935  16.770  13.049
26718W        W99143  31.589  39.473   3.861
26719W        W99144  42.826  26.556   1.113
26720W        W99145  23.502  18.479  13.372
26721W        W99146  11.017  37.445  13.345
26722W        W99147  17.210  18.295  12.092
26723W        W99148  34.001  27.104   0.447
26724W        W99149  44.797  43.247  12.957
26725W        W99150   0.535   0.802  12.294
26726W        W99151   0.786  43.121   5.028
26727W        W99152   5.188  12.836   2.330
26728W        W99153  35.930  43.863  13.276
26729W        W99154   2.421  21.268   2.291
26730W        W99155  13.305   9.226  10.610
26731W        W99156  38.603  42.319  12.586
26732W        W99157  17.782  43.445  14.868
26733W        W99158  34.451   2.771   0.769
26734W        W99159   5.084  24.228   0.784
26735W        W99160  17.991  32.309   4.633
26736W        W99161  27.987  16.708  13.322
26737W        W99162   9.336  32.957  11.329
26738W        W99163  41.837   6.618  11.334
26739W        W99164  39.104  39.339   2.809
26740W        W99165  36.383  44.848  10.663
26741W        W99166  25.597   9.314   3.095
26742W        W99167  19.188  43.696   2.323
26743W        W99168  20.536  31.764   9.860
26744W        W99169  44.092  39.307  11.992
26745W        W99170  13.358  39.264   1.697
26746W        W99171   7.828  30.566  14.389
26747W        W99172  33.889  37.443  14.920
26748W        W99173   0.975  19.589  10.736
26749W        W99174  40.957  12.400  10.368
26750W        W99175   4.754  19.643  14.435
26751W        W99176  15.391  35.482   2.132
26752W        W99177  41.941  13.285   2.048
26753W        W99178  44.789  23.186   4.591
26754W        W99179   5.818  12.858  11.112
26755W        W99180   4.429  24.799  11.086
26756W        W99181  20.188   5.413   4.613
26757W        W99182  10.212  35.432   4.157
26758W        W99183  12.807  23.134  11.895
26759W        W99184   3.924  14.106   1.893
26760W        W99185  11.981  21.248  12.715
26761W        W99186  14.126  40.118   4.806
26762W        W99187  43.435  12.849   2.648
26763W        W99188   1.102  29.652   4.075
26764W        W99189  27.694  14.736   3.093
26765W        W99190  21.759  35.560  13.597
26766W        W99191   2.231  23.740  13.096
26767W        W99192  24.721  39.305   3.686
26768W        W99193  43.810  18.941   2.674
26769W        W99194  18.559  18.620  13.402
26770W        W99195  19.772   4.677  13.902
26771W        W99196  40.588  11.802   4.247
26772W        W99197  26.131  27.462  11.221
26773W        W99198  25.547  35.016   1.664
26774W        W99199  16.213  13.772  14.394
26775W        W99200  33.322   4.406  11.060
26776W        W99201  12.883  23.666   0.483
26777W        W99202  41.662  30.519   5.006
26778W        W99203   3.027  11.782  10.481
26779W        W99204  22.659  21.852   3.225
26780W        W99205   4.299  26.160   3.900
26781W        W99206  27.804  22.975   5.118
26782W        W99207  44.516  22.639   1.941
26783W        W99208   7.205   8.504   4.223
26784W        W99209  30.168  28.543  14.792
26785W        W99210  44.270  18.972  10.903
26786W        W99211   9.939  14.232   4.202
26787W        W99212   5.938  22.510  14.697
26788W        W99213  32.894   2.791   0.827
26789W        W99214  17.018   4.008  12.059
26790W        W99215  40.872   9.203   4.900
26791W        W99216  20.625   2.404  11.204
26792W        W99217   5.409  17.030  14.811
26793W        W99218  40.076   7.739  11.352
26794W        W99219  20.488  30.429  12.390
26795W        W99220   5.711  33.686   0.763
26796W        W99221  17.382  24.255  12.996
26797W        W99222  22.695  26.031   0.284
26798W        W99223  10.611  36.613  11.019
26799W        W99224  37.621  44.573   2.296
26800W        W99225   2.384  40.897   3.681
26801W        W99226  21.226  39.407   0.217
26802W        W99227  26.212  20.056  14.669
26803W        W99228  35.226  14.789   2.050
26804W        W99229  22.987  19.003   4.120
26805W        W99230  16.554   3.755   0.177
26806W        W99231  36.599   4.058  13.264
26807W        W99232  10.255  23.611  11.188
26808W        W99233   9.618  44.847   3.714
26809W        W99234  13.368  40.375  13.456
26810W        W99235  13.103  13.169   3.566
26811W        W99236   6.483   7.745   3.237
26812W        W99237  24.507  10.685   4.191
26813W        W99238  42.579  35.948   3.079
26814W        W99239  14.544  12.776   2.229
26815W        W99240  28.737   3.012  12.055
26816W        W99241  12.363  44.311  13.466
26817W        W99242  42.043  35.381   2.242
26818W        W99243  24.670  10.905   5.499
26819W        W99244  21.165  16.226   2.773
26820W        W99245  13.368  16.314   0.356
26821W        W99246  30.184  26.663   0.786
26822W        W99247  36.813  30.522  12.141
26823W        W99248  32.115  28.604  14.667
26824W        W99249   5.718  25.891   3.621
26825W        W99250  40.515  31.190  11.137
26826W        W99251  22.919  42.873  11.390
26827W        W99252  44.598   3.429  11.052
26828W        W99253   0.488  29.681   4.479
26829W        W99254   7.355  13.685  10.398
26830W        W99255  28.481  29.138  14.021
26831W        W99256  20.606  29.163   4.420
26832W        W99257   5.589  32.600  13.388
26833W        W99258   3.187  16.693  13.759
26834W        W99259  14.393  22.045  13.462
26835W        W99260  43.403  37.777  12.533
26836W        W99261  41.483   5.348   4.660
26837W        W99262  29.622   8.623   1.919
26838W        W99263  40.379  42.184  11.913
26839W        W99264   3.927   9.379  13.455
26840W        W99265  34.531  32.579   4.560
26841W        W99266  42.512  34.465   3.687
26842W        W99267  19.688   1.913   1.154
26843W        W99268  23.296  40.505   3.870
26844W        W99269  27.071   7.964  13.427
26845W        W99270  32.188   1.893   2.651
26846W        W99271  27.586  43.715  11.515
26847W        W99272  38.514  40.245   4.576
26848W        W99273  24.074   2.267   1.494
26849W        W99274   4.716  13.277  12.611
26850W        W99275  40.840  40.887  14.259
26851W        W99276  22.267  33.952  12.639
26852W        W99277  14.512   7.822  12.665
26853W        W99278  23.556  41.585  14.804
26854W        W99279  19.190  17.808  12.391
26855W        W99280  42.247  27.587  13.982
26856W        W99281  19.398  13.885   4.888
26857W        W99282  28.164  33.138   0.335
26858W        W99283   3.009  32.399  11.703
26859W        W99284   5.953   3.907  12.118
26860W        W99285  36.601  18.087  13.307
26861W        W99286  11.992  23.177   4.416
26862W        W99287   5.731  39.618  12.438
26863W        W99288  16.352  38.946   1.808
26864W        W99289  41.052  40.834  12.865
26865W        W99290  37.878  33.610   0.682
26866W        W99291  37.399   9.191  12.043
26867W        W99292  24.730  22.892   1.399
26868W        W99293  30.942   6.639   4.784
26869W        W99294   7.303   0.734  14.844
26870W        W99295   1.381  11.604   2.720
26871W        W99296   8.857  41.430  14.769
26872W        W99297   3.270  32.207   2.187
26873W        W99298  11.369  30.673  13.090
26874W        W99299   3.224  10.811   1.957
26875W        W99300   6.439   7.783   2.715
26876W        W99301   7.350   7.849  10.265
26877W        W99302  30.410  29.701   2.372
26878W        W99303  39.331  23.128   2.489
26879W        W99304  24.997  33.130   0.542
26880W        W99305  25.697  14.661   2.104
26881W        W99306  22.554   3.028  12.457
26882W        W99307   7.594  42.470  10.789
26883W        W99308  14.223  39.622   4.750
26884W        W99309  42.396  41.373  14.552
26885W        W99310  14.322  16.700   3.676
26886W        W99311   9.080  39.652  14.302
26887W        W99312   8.976  19.775  10.754
26888W        W99313   5.467  40.421   0.586
26889W        W99314  43.683  32.469   3.171
26890W        W99315  42.615  22.262  10.761
26891W        W99316   0.652  29.443  14.244
26892W        W99317  44.056   4.748   2.661
26893W        W99318   4.893   5.399   2.952
26894W        W99319   6.833   0.782  11.924
26895W        W99320  43.712  12.611  10.742
26896W        W99321   0.909   0.317  13.998
26897W        W99322  30.554  29.395   0.284
26898W        W99323  18.333  40.133   0.858
26899W        W99324  12.860  42.244   0.845
26900W        W99325  34.939  43.641   4.394
26901W        W99326  28.817  21.411  11.515
26902W        W99327   8.223  19.764  14.802
26903W        W99328  16.729  31.035   9.716
26904W        W99329  44.759   7.271  14.499
26905W        W99330  25.057  10.596  10.190
26906W        W99331   5.760   4.473   1.806
26907W        W99332  21.807  15.623  11.083
26908W        W99333  27.586  15.609  14.357
26909W        W99334  11.932  17.077  13.842
26910W        W99335  40.393  39.300   1.258
26911W        W99336  34.964  30.035   1.296
26912W        W99337  39.994  20.086  11.138
26913W        W99338   8.036  18.719   0.615
26914W        W99339   6.640  12.658  12.130
26915W        W99340  19.153   1.271   9.693
26916W        W99341  27.479  38.933  11.754
26917W        W99342  14.776  43.322  12.836
26918W        W99343  21.269   8.123   2.366
26919W        W99344  23.859   9.497  11.975
26920W        W99345   8.818  24.922  14.871
26921W        W99346  29.683   2.723   4.571
26922W        W99347   6.976   0.262  11.196
26923W        W99348  41.438   3.957  13.471
26924W        W99349  21.191  34.666  10.217
26925W        W99350  19.857  32.128   3.452
26926W        W99351  19.480   3.483  12.080
26927W        W99352  30.506  29.599  12.991
26928W        W99353  25.935  27.017   4.486
26929W        W99354  31.686  20.272  12.579
26930W        W99355  41.607  37.387   4.107
26931W        W99356   4.952   2.125  12.849
26932W        W99357   4.610  43.993  14.078
26933W        W99358   5.799  41.925  14.930
26934W        W99359  39.921  40.879   2.594
26935W        W99360  16.251  40.943  14.826
26936W        W99361  36.928   8.724   2.377
26937W        W99362  14.416  13.648  11.327
26938W        W99363  13.401  26.602  12.416
26939W        W99364  44.054  25.611   2.457
26940W        W99365   5.385  31.488   2.135
26941W        W99366  28.235  34.857   3.251
26942W        W99367  19.192  14.344  14.173
26943W        W99368  12.333  40.845   0.388
26944W        W99369  12.020  12.716  13.490
26945W        W99370  30.483  11.872   4.162
26946W        W99371   0.074   2.787   0.798
26947W        W99372  32.456   8.189  14.798
26948W        W99373  39.359  16.682   2.761
26949W        W99374  36.890  30.413  11.664
26950W        W99375  44.839  21.322  12.188
26951W        W99376   3.175  30.985  13.364
26952W        W99377   5.644  18.599  13.996
26953W        W99378  44.148  34.603  12.356
26954W        W99379  30.123  33.078  12.988
26955W        W99380  38.892  22.774   3.193
26956W        W99381   4.801   2.408  11.056
26957W        W99382  37.109  26.927  11.151
26958W        W99383   4.772   8.768   3.735
26959W        W99384  41.324  29.376  14.889
26960W        W99385  16.129  20.515  11.007
26961W        W99386  26.918   7.654   0.706
26962W        W99387  27.137  33.586   4.061
26963W        W99388  33.639  24.131   4.573
26964W        W99389  36.386  26.395   2.218
26965W        W99390  11.229   5.258  10.602
26966W        W99391  23.659  44.748   1.758
26967W        W99392  30.078  36.285   4.510
26968W        W99393   4.713  40.873  12.823
26969W        W99394  18.262  25.935   0.542
26970W        W99395   1.095   0.725   1.798
26971W        W99396  41.546   2.430   1.612
26972W        W99397  10.852  33.886   1.864
26973W        W99398  21.762  12.027  14.389
26974W        W99399  35.715  33.893  11.038
26975W        W99400  38.649   3.270  13.987
26976W        W99401  22.408  33.665  11.024
26977W        W99402   6.753  12.592   4.502
26978W        W99403  36.808   7.684   3.333
26979W        W99404   8.401  23.164   1.836
26980W        W99405  37.127  37.420   2.082
26981W        W99406  25.556  40.242   3.254
26982W        W99407   6.592  14.799  10.749
26983W        W99408  13.329  39.608   1.293
26984W        W99409  12.871  20.849   0.233
26985W        W99410  13.499  29.251   2.867
26986W        W99411  15.620  16.968   4.980
26987W        W99412   1.391  17.091  13.686
26988W        W99413  34.608  21.545  11.735
26989W        W99414   7.440  16.089  11.639
26990W        W99415  11.348   8.576  12.468
26991W        W99416   5.662  14.708   0.838
26992W        W99417  25.771  37.492   3.240
26993W        W99418  18.294   4.347   1.162
26994W        W99419  22.461  15.124   4.879
26995W        W99420  19.514   2.388   2.892
26996W        W99421  28.083  21.608  12.096
26997W        W99422  38.429  21.716   3.826
26998W        W99423  44.518  30.468  13.806
26999W        W99424   6.637  14.318  11.623
27000W        W99425  39.203  37.979  10.781
27001W        W99426  18.694  12.223   4.177
27002W        W99427  21.990  16.649  11.904
27003W        W99428  44.520  28.530  12.523
27004W        W99429  16.158  44.933   3.326
27005W        W99430  23.295   9.221  12.793
27006W        W99431  42.294  10.209   0.288
27007W        W99432  14.171  29.069   3.793
27008W        W99433  20.727  13.728   3.738
27009W        W99434  36.480  38.265  14.657
27010W        W99435   0.516  18.983  14.090
27011W        W99436   9.364  25.077   4.203
27012W        W99437  24.030  20.655  14.081
27013W        W99438  17.185  30.551  12.955
27014W        W99439  23.517  28.048  11.190
27015W        W99440  42.367  21.497  13.024
27016W        W99441  34.401  40.452   0.199
27017W        W99442  35.618  23.788   4.580
27018W        W99443  25.968  19.058  14.923
27019W        W99444  27.627   7.750   1.773
27020W        W99445  30.197   2.709  14.954
27021W        W99446   1.570  33.108   4.030
27022W        W99447  40.733  36.793   0.837
27023W        W99448  44.941  39.848  13.496
27024W        W99449  17.021  12.465   1.356
27025W        W99450   7.178  24.003  13.392
27026W        W99451  15.730   9.646   1.244
27027W        W99452   9.212  10.517   2.050
27028W        W99453  37.816  20.172   4.130
27029W        W99454  37.092  19.758  12.085
27030W        W99455  21.778   1.940  14.100
27031W        W99456  18.286  26.201  10.753
27032W        W99457  40.054  39.806  13.581
27033W        W99458  14.752  29.897   1.952
27034W        W99459  29.893  16.629   2.781
27035W        W99460   9.300   5.204   2.177
27036W        W99461  35.977  33.706   3.278
27037W        W99462  21.876   6.354  13.365
27038W        W99463  40.846  17.161  14.067
27039W        W99464  41.769  29.539  13.867
27040W        W99465   5.483  20.832  14.380
27041W        W99466  27.130  40.435   3.165
27042W        W99467  38.998  44.846   3.322
27043W        W99468  24.587  16.556  11.001
27044W        W99469  16.000  40.125  11.124
27045W        W99470  29.397  37.822  10.581
27046W        W99471   9.272  44.387  13.016
27047W        W99472  25.992  12.644  10.951
27048W        W99473  42.234  25.007   2.818
27049W        W99474  28.951  12.480   1.742
27050W        W99475   2.476   6.096   4.177
27051W        W99476   5.518  32.108   0.165
27052W        W99477  11.600  17.520   4.484
27053W        W99478  41.491  29.402  11.266
27054W        W99479  23.549  40.959  14.101
27055W        W99480  17.504   6.383  12.011
27056W        W99481  43.485  25.572  10.512
27057W        W99482  31.726  41.224   1.324
27058W        W99483   2.420  32.378   4.607
27059W        W99484   1.362  28.534   4.130
27060W        W99485  34.480   9.393  12.369
27061W        W99486  25.666  41.500   2.773
27062W        W99487  20.818  24.715  11.052
27063W        W99488   1.678  32.646   0.970
27064W        W99489  12.074   5.284  14.277
27065W        W99490  43.785   8.240  14.569
27066W        W99491  22.602  11.360  14.899
27067W        W99492  37.018   5.252  13.334
27068W        W99493  27.952   4.878   2.224
27069W        W99494  18.346  39.477   3.561
27070W        W99495  24.747  23.720  12.867
27071W        W99496  31.406  20.735   2.736
27072W        W99497  14.657  41.289  11.943
27073W        W99498  12.776   5.874   2.808
27074W        W99499   9.000  21.568   2.981
27075W        W99500  35.874   0.267   0.059
27076W        W99501  30.168  44.757   0.808
27077W        W99502  39.415   0.817   1.922
27078W        W99503  10.859  28.157   0.501
27079W        W99504  32.488  39.659  14.021
27080W        W99505  43.491  36.925  10.529
27081W        W99506  33.458  35.433  10.022
27082W        W99507  31.101  11.158  10.342
27083W        W99508  10.846  30.836  11.836
27084W        W99509   4.974  15.676  12.477
27085W        W99510  25.549  36.892   4.116
27086W        W99511  44.137  13.191  13.005
27087W        W99512  42.644   5.459   3.781
27088W        W99513  35.372   8.809   4.968
27089W        W99514   2.408  26.564  11.214
27090W        W99515  18.742   4.262  10.730
27091W        W99516   2.396  39.793   4.585
27092W        W99517  16.609  41.467   1.682
27093W        W99518  34.426  20.203  14.495
27094W        W99519  37.404   4.055   4.816
27095W        W99520  20.704  18.542  12.047
27096W        W99521  20.040  20.035  13.877
27097W        W99522   2.018  28.179   1.295
27098W        W99523  41.376  16.945   2.821
27099W        W99524   5.349  13.634   3.639
27100W        W99525  32.543   8.912   3.316
27101W        W99526  41.594  25.965   1.711
27102W        W99527  44.639  32.515   9.836
27103W        W99528   5.142  13.384   4.573
27104W        W99529  13.775  17.879  11.035
27105W        W99530  37.981   3.240   1.499
27106W        W99531  21.591  43.515  10.770
27107W        W99532  16.138  18.814  11.480
27108W        W99533  42.485  13.583  14.963
27109W        W99534  27.582  23.776  11.620
27110W        W99535  36.828  15.008   2.353
27111W        W99536   2.245  29.279  12.596
27112W        W99537  19.474  16.577   4.388
27113W        W99538  13.380  41.312  13.945
27114W        W99539  32.916  26.751  13.013
27115W        W99540   7.815   7.956   2.694
27116W        W99541  17.653   0.178  13.464
27117W        W99542  21.536  41.743   3.946
27118W        W99543  15.646   8.241   2.505
27119W        W99544  27.734  19.117  12.810
27120W        W99545  23.338  22.431  12.842
27121W        W99546  15.794  21.206  12.020
27122W        W99547  33.931   9.734   2.590
27123W        W99548  36.420  35.364   3.901
27124W        W99549  32.321  31.827   2.219
27125W        W99550  26.000  38.381   3.612
27126W        W99551  40.086  40.558   1.912
27127W        W99552   7.835  43.992   0.753
27128W        W99553   2.685  39.603   3.309
27129W        W99554   5.779   2.467  11.013
27130W        W99555   1.250  24.525  14.283
27131W        W99556  41.158  14.163  11.106
27132W        W99557  20.817  15.070   3.503
27133W        W99558  25.247  13.853  12.906
27134W        W99559  10.537  12.614  13.741
27135W        W99560  12.821   1.006  10.563
27136W        W99561  11.781   4.529   4.100
27137W        W99562  22.673  25.363  11.697
27138W        W99563  33.230   8.955  11.929
27139W        W99564   0.510   9.513   3.295
27140W        W99565  16.335  21.028   3.136
27141W        W99566  40.898  25.481  10.672
27142W        W99567  44.309  37.044   1.909
27143W        W99568  31.539   5.329  14.303
27144W        W99569  36.344   3.203  10.775
27145W        W99570   9.771  36.401   3.515
27146W        W99571  42.337   1.537  13.004
27147W        W99572  38.330   5.362  12.073
27148W        W99573   6.221  30.984  10.698
27149W        W99574   2.087   0.540   0.446
27150W        W99575  34.467  17.467   0.807
27151W        W99576   0.951  43.987   2.826
27152W        W99577  44.252  30.532   4.138
27153W        W99578  25.456  41.617  12.863
27154W        W99579  30.901  21.034   5.083
27155W        W99580  44.198   3.873   1.285
27156W        W99581  13.410   1.524   2.028
27157W        W99582  40.129   0.471  11.549
27158W        W99583   1.009  14.148   2.606
27159W        W99584  25.221  36.512   3.871
27160W        W99585  31.695   1.255  10.578
27161W        W99586  44.711  33.039   3.609
27162W        W99587   4.849  10.148  12.176
27163W        W99588   0.718  16.243   0.515
27164W        W99589  42.460  33.053   3.817
27165W        W99590  25.152  11.239  13.625
27166W        W99591  23.149  30.927  10.607
27167W        W99592   8.438  38.597  13.339
27168W        W99593  39.809  36.197  11.194
27169W        W99594  15.698  13.743   1.427
27170W        W99595  34.229  24.972   4.806
27171W        W99596  36.911  15.079  11.450
27172W        W99597  10.764  35.513  13.010
27173W        W99598   7.335  23.984   1.190
27174W        W99599  11.965  38.377   4.587
27175W        W99600  34.595   8.879   2.210
27176W        W99601  22.168  32.207   0.877
27177W        W99602  20.736   5.917   3.576
27178W        W99603  35.493  30.510  14.781
27179W        W99604   1.708   1.575   1.228
27180W        W99605   1.415  16.374   2.392
27181W        W99606  35.556  34.440   0.744
27182W        W99607  10.319  23.450   4.215
27183W        W99608  13.219  21.713  12.201
27184W        W99609  20.307  10.134  14.096
27185W        W99610  20.686  31.102   3.512
27186W        W99611  21.015  16.489  14.792
27187W        W99612  29.073  32.943  12.967
27188W        W99613  32.237  31.554  13.340
27189W        W99614   7.081  34.792   5.497
27190W        W99615  40.365  10.318  14.017
27191W        W99616  12.235  10.791   0.544
27192W        W99617  41.841  25.507  13.105
27193W        W99618  19.288  43.358  11.192
27194W        W99619  44.088  17.640  14.378
27195W        W99620  44.862  11.087  11.617
27196W        W99621  28.606  18.601   0.063
27197W        W99622  10.354  33.884   3.772
27198W        W99623  25.751  31.102  10.502
27199W        W99624   4.449  22.991  14.350
27200W        W99625  39.914  26.046  13.809
27201W        W99626  36.074  34.702  11.197
27202W        W99627  14.996  24.207  12.529
27203W        W99628  18.816  36.909   2.658
27204W        W99629  42.757  26.038   3.315
27205W        W99630  26.162   4.691  14.250
27206W        W99631  20.572  40.404   2.325
27207W        W99632  41.199  29.086  14.316
27208W        W99633  11.383  15.231  14.055
27209W        W99634  28.704  24.004   3.900
27210W        W99635  36.999  41.006   4.757
27211W        W99636  35.997  24.462   2.432
27212W        W99637  14.259  30.477   1.492
27213W        W99638  41.845  37.160  10.247
27214W        W99639   5.152  27.190   0.147
27215W        W99640  33.618  25.089   0.455
27216W        W99641  12.470  12.163  11.717
27217W        W99642  36.935  18.208   4.934
27218W        W99643  17.075  34.964   4.943
27219W        W99644  36.904  21.539  12.160
27220W        W99645  15.638  30.581  11.981
27221W        W99646   1.704  44.934  13.503
27222W        W99647  19.253  37.851   3.837
27223W        W99648   8.538   7.144  10.256
27224W        W99649  36.914  44.623   1.021
27225W        W99650  43.404   3.979  12.795
27226W        W99651  27.036  11.324  12.829
27227W        W99652  39.528  11.928   2.351
27228W        W99653  29.018   6.194   0.027
27229W        W99654   3.998  27.448   3.885
27230W        W99655  37.779  29.073   1.731
27231W        W99656  27.519  43.002  12.020
27232W        W99657   2.903  14.786   1.352
27233W        W99658  14.112  40.173  10.972
27234W        W99659  11.865   0.906  14.511
27235W        W99660  16.619  15.825  14.808
27236W        W99661  35.135  21.461   0.968
27237W        W99662  28.229  36.429   2.259
27238W        W99663  17.466   4.900   2.809
27239W        W99664   1.710  10.619   4.545
27240W        W99665  19.782   3.711  11.727
27241W        W99666  42.970  31.674  12.484
27242W        W99667   3.776  16.195  10.835
27243W        W99668   8.882   0.157   1.126
27244W        W99669   0.462  40.503   4.624
27245W        W99670  33.350  19.017   3.662
27246W        W99671  28.088  36.348   3.081
27247W        W99672  29.964  37.861   3.664
27248W        W99673  42.241   4.307   0.702
27249W        W99674  34.351  28.162  10.673
27250W        W99675   7.558  24.554  12.127
27251W        W99676  42.477  35.916   4.463
27252W        W99677  23.191  36.523  10.568
27253W        W99678  40.602   2.196   2.812
27254W        W99679  16.879  13.367  11.727
27255W        W99680  20.448   9.006   5.210
27256W        W99681  44.423   5.460   3.057
27257W        W99682  31.552  12.797  13.114
27258W        W99683  27.615  13.930  10.759
27259W        W99684  12.226  24.637  13.557
27260W        W99685   9.765  30.417  10.676
27261W        W99686  39.405   0.691   0.449
27262W        W99687  29.567  29.224  13.984
27263W        W99688  27.090  11.201   4.588
27264W        W99689   1.967  30.461  12.170
27265W        W99690  39.611   7.244  14.524
27266W        W99691  17.708  12.674   1.802
27267W        W99692  31.990  21.707   4.434
27268W        W99693  39.792   8.193  12.103
27269W        W99694  40.886  12.645   3.369
27270W        W99695  11.803  23.056   9.728
27271W        W99696  21.457   9.887  11.101
27272W        W99697   0.376  17.484  13.088
27273W        W99698  42.500  36.622  11.478
27274W        W99699   5.306  41.045   1.216
27275W        W99700  37.445  37.859  10.401
27276W        W99701  44.721  33.439  12.496
27277W        W99702  29.638   8.284  13.879
27278W        W99703  27.958  43.208   2.789
27279W        W99704  31.943   6.513   0.320
27280W        W99705  16.998  14.835   3.349
27281W        W99706  28.694  43.804  13.378
27282W        W99707   1.990  41.754   4.053
27283W        W99708  17.903   3.153  10.429
27284W        W99709   9.620  15.297  11.974
27285W        W99710  38.415  42.195  10.899
27286W        W99711  41.410  38.897   2.383
27287W        W99712  35.149  26.627  11.000
27288W        W99713  19.756  42.623  12.367
27289W        W99714  30.442  31.729  14.429
27290W        W99715   3.744  10.272  14.268
27291W        W99716  32.231   4.578   3.218
27292W        W99717  43.878  29.704   4.952
27293W        W99718  16.580  25.064  12.338
27294W        W99719  44.851   8.690   2.188
27295W        W99720  33.643  41.147   2.756
27296W        W99721  16.545  38.100  10.290
27297W        W99722  34.976  21.627   2.714
27298W        W99723  41.862  16.915  11.532
27299W        W99724  34.217  10.007   3.578
27300W        W99725  39.361   4.943   2.708
27301W        W99726  39.546  15.565   3.362
27302W        W99727   3.289  17.099  11.035
27303W        W99728   9.105  36.230  11.011
27304W        W99729  11.193  34.101   2.685
27305W        W99730  28.258  39.888   0.442
27306W        W99731  28.483   5.224   3.149
27307W        W99732  27.592   1.326   3.179
27308W        W99733  42.031  19.304   3.180
27309W        W99734   5.240  38.441   4.725
27310W        W99735  43.956  40.957   4.289
27311W        W99736  24.498  43.288   0.404
27312W        W99737  16.454  21.611  12.627
27313W        W99738  26.077  24.102   1.235
27314W        W99739  26.714  34.860   3.396
27315W        W99740  14.771  34.124   3.835
27316W        W99741  17.158  36.501   1.123
27317W        W99742  24.515  34.765  14.269
27318W        W99743  16.172  18.556   4.682
27319W        W99744   2.687  20.247   4.874
27320W        W99745  17.759  21.992  14.160
27321W        W99746  28.491  11.900   0.183
27322W        W99747  42.631  10.175   2.297
27323W        W99748  20.148  44.461   1.831
27324W        W99749   4.975   6.863  10.351
27325W        W99750   6.253   5.804   2.424
27326W        W99751  41.550  29.469   1.253
27327W        W99752  18.998   0.790  12.050
27328W        W99753  27.739  40.972   2.067
27329W        W99754  20.715   3.457  12.688
27330W        W99755  14.244  24.609  10.682
27331W        W99756  36.774  17.503  13.484
27332W        W99757   0.395   4.191   1.734
27333W        W99758   6.211  44.980   2.183
27334W        W99759  31.696  27.530   3.705
27335W        W99760   3.297   0.065  11.417
27336W        W99761  24.571   0.390  14.397
27337W        W99762  44.179  21.999  14.423
27338W        W99763  36.107   3.102   4.119
27339W        W99764  13.822  21.646   0.214
27340W        W99765   7.996  16.236  14.612
27341W        W99766   1.984  38.619  14.938
27342W        W99767   5.362  14.937  11.200
27343W        W99768   3.166   9.670   4.704
27344W        W99769  31.618  19.813   4.133
27345W        W99770   2.518   4.576  13.860
27346W        W99771  38.333   3.434   2.207
27347W        W99772  17.022  34.547   4.113
27348W        W99773   6.350  31.338  13.418
27349W        W99774  21.081  44.557  11.021
27350W        W99775  36.847  16.101   3.955
27351W        W99776  16.195  27.981   2.878
27352W        W99777  24.067  40.954   4.583
27353W        W99778  22.132   7.504   0.434
27354W        W99779  21.145  12.720  10.371
27355W        W99780  44.768  17.427  13.719
27356W        W99781  38.712   9.846  14.944
27357W        W99782  29.240  16.795   1.345
27358W        W99783  20.406  33.913   1.286
27359W        W99784  21.658  30.105   2.690
27360W        W99785  39.838   9.127  12.375
27361W        W99786  35.347  18.638   0.835
27362W        W99787  43.496  38.027   4.396
27363W        W99788  32.167  23.618   4.098
27364W        W99789   4.908  29.784   4.071
27365W        W99790   9.866  31.161  11.723
27366W        W99791   3.825  18.739  11.600
27367W        W99792  32.967   9.761   2.762
27368W        W99793  18.471  43.826   1.635
27369W        W99794   7.305  34.232  12.412
27370W        W99795  36.064   8.390   0.321
27371W        W99796  18.848  24.991   3.176
27372W        W99797  16.329  11.600   0.793
27373W        W99798   9.797   9.213   9.784
27374W        W99799   5.741  38.015   3.246
27375W        W99800  19.521  27.432   4.137
27376W        W99801   8.669  39.957  14.359
27377W        W99802  23.999  16.183  11.393
27378W        W99803  28.467   7.354   3.195
27379W        W99804  43.776   6.381  11.164
27380W        W99805  35.423  18.697   4.463
27381W        W99806  33.466  43.521   2.061
27382W        W99807   0.363  12.800  14.379
27383W        W99808  19.580   4.911  12.625
27384W        W99809   7.325  32.495   2.226
27385W        W99810  19.153  26.085   4.150
27386W        W99811  17.076  28.597   2.712
27387W        W99812   2.540  44.827  13.057
27388W        W99813  20.061   4.947   0.235
27389W        W99814  25.014  16.999  12.051
27390W        W99815  11.579  40.834  14.820
27391W        W99816  29.933  44.494   1.434
27392W        W99817  38.661   7.297  14.033
27393W        W99818  13.735   1.212   0.020
27394W        W99819   5.918  20.103  14.142
27395W        W99820  28.994  37.392   1.484
27396W        W99821  33.577  11.610  14.440
27397W        W99822  28.219   4.334  13.821
27398W        W99823   2.930   4.930  14.527
27399W        W99824  27.977  18.732   0.744
27400W        W99825   4.187   3.635   4.920
27401W        W99826  39.739  27.071   1.379
27402W        W99827  38.374  44.336  11.579
27403W        W99828  27.509  19.794   4.351
27404W        W99829   5.236  33.241   1.452
27405W        W99830  19.589  30.661  12.315
27406W        W99831  37.413   3.163  13.050
27407W        W99832   9.332   5.654   0.299
27408W        W99833  38.760  15.874  11.998
27409W        W99834  32.503  24.084   0.212
27410W        W99835   9.583  20.202  14.127
27411W        W99836  44.077  30.878  12.075
27412W        W99837   8.885   2.729   1.201
27413W        W99838  40.225   5.991   4.070
27414W        W99839  43.273   0.350   4.473
27415W        W99840  41.064  18.248  12.810
27416W        W99841  15.233  13.521   1.436
27417W        W99842  11.146  29.158   0.817
27418W        W99843  19.140  26.210  12.843
27419W        W99844  44.344   4.182  14.223
27420W        W99845  43.475   0.391  14.998
27421W        W99846   0.077  43.332  11.032
27422W        W99847  28.479   4.561   3.795
27423W        W99848  14.712  14.871   2.792
27424W        W99849  39.639  30.097  14.683
27425W        W99850   0.458  19.486  13.906
27426W        W99851  40.719   3.300   2.277
27427W        W99852  24.834  36.229   1.873
27428W        W99853  27.799  13.234   1.456
27429W        W99854  38.556   7.731   2.314
27430W        W99855  21.803  14.667  11.695
27431W        W99856  17.782  23.895  13.311
27432W        W99857  40.925  40.860   0.790
27433W        W99858  43.320  30.105  12.997
27434W        W99859   9.255  34.625  10.470
27435W        W99860  38.961  19.825  12.092
27436W        W99861  35.875  24.649   4.994
27437W        W99862  19.576   8.715   2.745
27438W        W99863  12.584  19.248  11.125
27439W        W99864   1.973  30.095  10.583
27440W        W99865  33.080  21.636  12.770
27441W        W99866  16.992  24.488   0.424
27442W        W99867  41.070  41.487  10.635
27443W        W99868  10.791  29.884   3.078
27444W        W99869   4.756  21.346  14.919
27445W        W99870  21.703  17.308  11.464
27446W        W99871  11.349  26.202   2.251
27447W        W99872  39.793  14.651  13.093
27448W        W99873  10.071  26.942  14.090
27449W        W99874  42.536  21.706  13.461
27450W        W99875  44.443  42.936  10.033
27451W        W99876  20.760  24.372  11.435
27452W        W99877  20.524  20.701   3.258
27453W        W99878  44.004  11.572   0.345
27454W        W99879  31.650  26.580  11.398
27455W        W99880  15.243  13.101  10.660
27456W        W99881   4.424  17.951  14.047
27457W        W99882   3.347  43.234   4.609
27458W        W99883  40.343  24.109  10.705
27459W        W99884  35.606  34.017  12.285
27460W        W99885  22.544   6.011   1.986
27461W        W99886   0.247   9.681   2.406
27462W        W99887  18.660  38.913   4.071
27463W        W99888  13.567  27.521   2.177
27464W        W99889   3.382  10.175   0.518
27465W        W99890  43.910  34.943  13.393
27466W        W99891  24.079   8.116   3.243
27467W        W99892   0.679   6.688   0.050
27468W        W99893   6.466   4.419  12.635
27469W        W99894  10.264  29.966  10.393
27470W        W99895  13.216  31.092   0.525
27471W        W99896  23.664  28.387  11.673
27472W        W99897  19.707  31.694   4.526
27473W        W99898  23.267   8.827  14.854
27474W        W99899  14.410  22.735   2.408
27475W        W99900  43.734  17.355  14.669
27476W        W99901  28.235   0.353  14.511
27477W        W99902  27.882  30.985   3.664
27478W        W99903   2.137   3.744  11.462
27479W        W99904  37.478  43.781   0.960
27480W        W99905   3.895   3.282   0.413
27481W        W99906  44.311  29.982  14.250
27482W        W99907  23.248  10.618   4.591
27483W        W99908  23.957  17.566   1.869
27484W        W99909  44.941   5.324   0.861
27485W        W99910  30.703   6.808  12.885
27486W        W99911  26.941  34.855   1.800
27487W        W99912  19.969  14.894  14.784
27488W        W99913  27.559  19.677  11.106
27489W        W99914  30.177  14.310   0.396
27490W        W99915  20.934  37.442   4.250
27491W        W99916  35.306   4.701  12.666
27492W        W99917  36.923  34.024   1.340
27493W        W99918   8.219  15.241  10.704
27494W        W99919  14.700  35.448   0.946
27495W        W99920  16.624  34.488   3.785
27496W        W99921  23.848  25.825   3.782
27497W        W99922  43.027  40.453   4.596
27498W        W99923  35.586  27.052   0.769
27499W        W99924  17.413   4.704  10.425
27500W        W99925  19.984  11.304   2.098
27501W        W99926  20.188  22.427  11.499
27502W        W99927  41.903   5.213   4.374
27503W        W99928  11.343  12.820  12.713
27504W        W99929  19.102  39.276  13.548
27505W        W99930  42.763   5.484   4.503
27506W        W99931  34.908  42.350   1.975
27507W        W99932  16.229  31.003  12.113
27508W        W99933   9.643  32.557   0.815
27509W        W99934  17.592   5.786   1.536
27510W        W99935  26.293  16.294  11.409
27511W        W99936  23.149  43.232  13.133
27512W        W99937  25.599  19.029  13.612
27513W        W99938  43.587  16.336   1.044
27514W        W99939  29.607  24.740   0.927
27515W        W99940  11.079  41.126   1.989
27516W        W99941  44.184  21.945  12.166
27517W        W99942  41.529  21.347   3.328
27518W        W99943  28.963  22.705  14.575
27519W        W99944  28.049  39.793   2.306
27520W        W99945  43.628   4.960   2.869
27521W        W99946   1.292   4.658   2.718
27522W        W99947  43.926  25.103  14.036
27523W        W99948  10.102  23.038  10.657
27524W        W99949  29.500   8.617  12.473
27525W        W99950  34.984  38.513   2.322
27526W        W99951   3.373   4.437   1.192
27527W        W99952  34.565   6.897   0.658
27528W        W99953   6.173  36.976  11.453
27529W        W99954   7.842  28.179   0.289
27530W        W99955  18.145  25.067   0.417
27531W        W99956   8.146  31.918  11.146
27532W        W99957  35.701  27.457  14.000
27533W        W99958  30.517  40.070   4.906
27534W        W99959  34.929  17.951  14.028
27535W        W99960  40.001  40.446   2.866
27536W        W99961  44.915   0.329   3.660
27537W        W99962  40.485  29.158   4.823
27538W        W99963   7.432  36.885   2.799
27539W        W99964   9.502  35.441   3.706
27540W        W99965   5.380  31.010   4.413
27541W        W99966  33.694   3.968   2.542
27542W        W99967  41.486  31.706  14.015
27543W        W99968  16.200  26.172  12.170
27544W        W99969  26.196  44.936   4.737
27545W        W99970  28.502  24.725  10.679
27546W        W99971  28.413  15.660   3.246
27547W        W99972   4.695  28.939   2.273
27548W        W99973  24.066  19.156  11.417
27549W        W99974  29.966   4.467   2.553
27550W        W99975  10.392  29.388  11.626
27551W        W99976  28.271  16.804  12.913
27552W        W99977  44.351  36.444  12.165
27553W        W99978   0.727  40.619   0.180
27554W        W99979  34.112   4.948  10.744
27555W        W99980  24.840  36.879  12.976
27556W        W99981  32.330  25.711   3.189
27557W        W99982   3.913  41.880  13.940
27558W        W99983  43.313  33.196   2.150
27559W        W99984  36.070   0.192  12.606
27560W        W99985  44.213  31.562  11.673
27561W        W99986   0.966  25.637   2.694
27562W        W99987  11.226  14.372   3.296
27563W        W99988  43.602  25.868   3.788
27564W        W99989  34.344  42.932  12.963
27565W        W99990  25.684   9.421   3.618
27566W        W99991  30.003  26.099   4.485
27567W        W99992  39.064  29.415  12.523
27568W        W99993  22.246  34.436  11.413
27569W        W99994  20.868  18.288   0.783
27570W        W99995  23.479   9.382   0.508
27571W        W99996   8.822   9.638   1.914
27572W        W99997  23.404   0.011  12.899
27573W        W99998  17.194   1.993  13.461
27574W        W99999   1.269  17.640   4.057
27575W        W    0   4.920  31.062  12.822
27576W        W    1  13.712   8.883   4.611
27577W        W    2  21.545  31.438  12.548
27578W        W    3   1.896  36.423  14.224
27579W        W    4  31.584  23.248   2.486
27580W        W    5  30.089   6.169  11.747
27581W        W    6  24.169  13.106   4.655
27582W        W    7  26.977  38.869   4.371
27583W        W    8  21.279  16.557   1.426
27584W        W    9  19.964  37.540  12.785
27585W        W   10  10.626  32.527   0.760
27586W        W   11   4.121   3.449  11.158
27587W        W   12   7.648   3.335   2.557
27588W        W   13  41.578  10.658   4.020
27589W        W   14  22.791  32.143  14.135
27590W        W   15   8.678   7.869  13.430
27591W        W   16  38.994  12.119  12.408
27592W        W   17  19.253   5.743   3.686
27593W        W   18  31.679  35.829  14.384
27594W        W   19   9.951  38.774   3.733
27595W        W   20  36.014  28.352   4.298
27596W        W   21  20.068  26.577   3.244
27597W        W   22  18.750  20.621  11.660
27598W        W   23  20.076  18.233  12.916
27599W        W   24  39.808  34.517  11.846
27600W        W   25  14.818  43.198   1.300
27601W        W   26  18.748  41.483   4.881
27602W        W   27   9.699  10.317   3.996
27603W        W   28  28.516   0.243  12.912
27604W        W   29  38.485   9.304   0.888
27605W        W   30  19.170  18.457   2.279
27606W        W   31  40.622  11.255  11.068
27607W        W   32   5.225   7.205   2.166
27608W        W   33  16.847  13.279   2.204
27609W        W   34   3.241  12.531  14.292
27610W        W   35   4.441  16.896  10.547
27611W        W   36   6.729  40.928   1.534
27612W        W   37  36.058   7.498   0.540
27613W        W   38  20.355  16.957   4.124
27614W        W   39  15.704  16.857  10.666
27615W        W   40  13.303  11.159   0.237
27616W        W   41  33.880  26.782   1.409
27617W        W   42  15.831  43.846   0.875
27618W        W   43  26.457  13.610   4.484
27619W        W   44   4.493  31.473   3.044
27620W        W   45  22.365   7.856   1.319
27621W        W   46  12.262   6.947  11.033
27622W        W   47   7.975  29.705   3.613
27623W        W   48   9.886   6.684   0.281
27624W        W   49   0.757  17.892   4.607
27625W        W   50  44.291   2.811   2.438
27626W        W   51  43.404  23.092   0.373
27627W        W   52  39.056   6.150  11.257
27628W        W   53  36.403  32.009   3.071
27629W        W   54   1.374  35.881  14.725
27630W        W   55  18.245  35.874  14.463
27631W        W   56  44.810  11.132   2.240
27632W        W   57  13.343  28.666  13.877
27633W        W   58  13.984  21.124  11.435
27634W        W   59  26.500  29.935   3.419
27635W        W   60  16.781   0.480  14.993
27636W        W   61  36.971  21.084   0.780
27637W        W   62  29.152  25.206   0.411
27638W        W   63  36.554  25.951  12.906
27639W        W   64  27.397  43.375   1.915
27640W        W   65  41.354  31.641   2.913
27641W        W   66  28.462  31.368   0.725
27642W        W   67  16.610  29.998   3.717
27643W        W   68   6.617  12.171   0.690
27644W        W   69  40.557   1.489   1.191
27645W        W   70  35.672  35.638   2.861
27646W        W   71  41.448  36.565   4.786
27647W        W   72  21.789  25.524   2.355
27648W        W   73  36.058   3.852  10.674
27649W        W   74   4.811  37.857   4.828
27650W        W   75   3.068   3.673  10.747
27651W        W   76  26.566  25.050   2.169
27652W        W   77  30.567   3.738   3.156
27653W        W   78  12.706  19.790  12.337
27654W        W   79  36.689  35.438   3.090
27655W        W   80  25.722   8.452   4.523
27656W        W   81  33.836  20.563   3.271
27657W        W   82  11.574  11.233  14.133
27658W        W   83   1.453  15.036   2.782
27659W        W   84  20.579   3.207   2.137
27660W        W   85  12.677   7.559   0.426
27661W        W   86  29.075  33.897  14.361
27662W        W   87  11.210  14.253  13.252
27663W        W   88   6.976  23.965  13.882
27664W        W   89  44.012  20.592  10.673
27665W        W   90  12.884  25.940   0.524
27666W        W   91  15.822  30.413   0.967
27667W        W   92  26.576  27.256  11.073
27668W        W   93   7.695  20.540   2.292
27669W        W   94  33.620  15.320   1.225
27670W        W   95  16.545  32.367   1.388
27671W        W   96  20.033  16.066   0.366
27672W        W   97  30.001  23.547   2.694
27673W        W   98  33.962   4.766   3.014
27674W        W   99  17.126  16.290  13.613
27675W        W  100   2.966  40.282  13.147
27676W        W  101  33.042  31.276  14.406
27677W        W  102  43.487  20.289  11.928
27678W        W  103  44.905  37.792  14.313
27679W        W  104   9.908   5.816  11.407
27680W        W  105  15.707  35.049  12.671
27681W        W  106  29.458  42.427  10.924
27682W        W  107  26.078  19.177  13.519
27683W        W  108  38.429  21.261  11.997
27684W        W  109  21.613  40.918  12.190
27685W        W  110  36.123  34.879   1.389
27686W        W  111  25.487   7.923  12.912
27687W        W  112  19.810  39.322  12.914
27688W        W  113  36.336  14.853   0.299
27689W        W  114  23.642  25.680  11.106
27690W        W  115  18.663   8.681   0.307
27691W        W  116  18.319  35.481  10.377
27692W        W  117  14.636  19.983   1.883
27693W        W  118  35.924  42.005  11.654
27694W        W  119   5.286  12.308   0.406
27695W        W  120  31.053  35.368   3.663
27696W        W  121  20.412   3.319   0.838
27697W        W  122  35.450  35.664   3.751
27698W        W  123  23.172  32.633   0.859
27699W        W  124  17.513  10.394   3.059
27700W        W  125   8.422  27.951   4.991
27701W        W  126  37.904  18.633   4.164
27702W        W  127  14.222   1.649  12.342
27703W        W  128  33.108  21.093   4.704
27704W        W  129   8.735  41.964  11.682
27705W        W  130  22.922  33.112   2.667
27706W        W  131   2.475  20.481  13.002
27707W        W  132  15.753   1.740   0.274
27708W        W  133  43.910  31.333   3.235
27709W        W  134  13.808  19.783   0.388
27710W        W  135  35.212  37.919   2.971
27711W        W  136  42.232  31.035  14.069
27712W        W  137  32.167  31.389  11.636
27713W        W  138  31.520  33.631  14.658
27714W        W  139  42.966  24.689   2.662
27715W        W  140  34.806   5.006  10.937
27716W        W  141  11.741   4.917  12.182
27717W        W  142  13.381  42.592  11.457
27718W        W  143   9.612  38.874  13.442
27719W        W  144  14.044  29.571   3.660
27720W        W  145  44.605  16.809   0.073
27721W        W  146  39.113  39.203  14.028
27722W        W  147  35.218  38.049  11.160
27723W        W  148  41.013  44.441   4.992
27724W        W  149  14.179  43.458   4.551
27725W        W  150  24.948   6.808  10.494
27726W        W  151   9.319  20.105  12.340
27727W        W  152  19.281  29.017   4.168
27728W        W  153   7.669   4.948  11.278
27729W        W  154  36.791  16.113   0.215
27730W        W  155  28.033  38.835   0.474
27731W        W  156  39.123  36.904  11.640
27732W        W  157  44.859  39.549   2.880
27733W        W  158  36.439  13.325  13.943
27734W        W  159   5.165  11.510   0.716
27735W        W  160  15.201  18.683  10.747
27736W        W  161  29.513  19.786  13.904
27737W        W  162  17.279  24.022   4.591
27738W        W  163   9.573  21.249   2.121
27739W        W  164  23.123  35.172  10.540
27740W        W  165  32.187  12.771   3.374
27741W        W  166   5.810   1.887  14.920
27742W        W  167  22.586  23.494  14.924
27743W        W  168  31.727  24.051   4.678
27744W        W  169  30.523  34.967  10.576
27745W        W  170  40.882  32.129  11.618
27746W        W  171  34.743  41.482   3.742
27747W        W  172  25.562  39.714   1.351
27748W        W  173  18.689  41.545   1.973
27749W        W  174  16.188  28.269   4.302
27750W        W  175  25.188  25.164  11.423
27751W        W  176  43.781  16.382   0.216
27752W        W  177  41.498   3.944   3.194
27753W        W  178  15.627  18.611  10.458
27754W        W  179  37.244  23.008   5.373
27755W        W  180   2.572   3.749  10.636
27756W        W  181  37.526   5.755   4.441
27757W        W  182   9.342  14.375   5.083
27758W        W  183   5.923  29.888  14.592
27759W        W  184  43.267  33.462  12.532
27760W        W  185  33.177   0.805   3.677
27761W        W  186  26.664   0.794  14.899
27762W        W  187   3.034  10.824  13.759
27763W        W  188  31.640  22.738   2.567
27764W        W  189  26.950  11.632   3.227
27765W        W  190  40.522  39.907  12.167
27766W        W  191  26.711  10.419  12.874
27767W        W  192  26.977  37.381   2.092
27768W        W  193  16.199  32.146  12.497
27769W        W  194  38.398  39.797  14.833
27770W        W  195  36.533  25.059  10.990
27771W        W  196  10.601  28.453   1.379
27772W        W  197  33.490  43.072   4.505
27773W        W  198   8.336  39.063   0.350
27774W        W  199  21.013  12.077   4.532
27775W        W  200   7.807  18.034  10.929
27776W        W  201   4.336  11.730   0.340
27777W        W  202  31.402  38.390  11.038
27778W        W  203  24.508   2.840   2.388
27779W        W  204  16.805  43.936   1.285
27780W        W  205  18.224  32.261   5.488
27781W        W  206   0.736  26.152  14.923
27782W        W  207  19.825  28.906  11.966
27783W        W  208  40.714  44.330   3.259
27784W        W  209  26.714   7.924  13.811
27785W        W  210  27.947  44.821   4.707
27786W        W  211  21.383   8.360   1.264
27787W        W  212  30.666  13.911  12.025
27788W        W  213  15.316   4.002   4.701
27789W        W  214  25.755   5.094   2.920
27790W        W  215  16.222  18.324  11.563
27791W        W  216  22.705  12.559  10.101
27792W        W  217  39.512   8.826  12.798
27793W        W  218  41.535  11.689  12.589
27794W        W  219  23.694  23.147   3.585
27795W        W  220  44.884  23.614  12.727
27796W        W  221  39.862  15.776   3.706
27797W        W  222   2.800  23.651   4.614
27798W        W  223  25.467  24.753  13.551
27799W        W  224  21.282  39.942   3.062
27800W        W  225   5.147  25.463   2.350
27801W        W  226  25.023   8.889  12.102
27802W        W  227  30.036   6.306   4.358
27803W        W  228  10.723  26.677   1.896
27804W        W  229  43.833  17.779  10.679
27805W        W  230  25.659  30.493   3.506
27806W        W  231  26.457  15.312   3.284
27807W        W  232  11.240  23.834   0.428
27808W        W  233   4.433  28.216   3.728
27809W        W  234  24.488  35.917   0.490
27810W        W  235   2.255   3.813   0.368
27811W        W  236  17.280  25.170  13.579
27812W        W  237  25.553  26.684   0.707
27813W        W  238  13.197  39.880  10.259
27814W        W  239  30.516  18.018   4.632
27815W        W  240  39.977  40.673  14.325
27816W        W  241  36.044  22.901   4.627
27817W        W  242  28.712  41.395   1.492
27818W        W  243  18.542   0.854   4.798
27819W        W  244   1.969  13.738   3.200
27820W        W  245  39.776  30.679  13.509
27821W        W  246   8.703  33.500   2.221
27822W        W  247   2.278  30.634  12.542
27823W        W  248  31.585  29.999   3.939
27824W        W  249  39.594  18.165  14.850
27825W        W  250  44.068  37.053  12.581
27826W        W  251   4.284   4.711   2.192
27827W        W  252  32.251   1.382  11.562
27828W        W  253  18.279  39.420   1.589
27829W        W  254   8.773  32.407  14.837
27830W        W  255  10.607  17.264  11.357
27831W        W  256  30.126  27.597  12.049
27832W        W  257  25.926  31.997   4.429
27833W        W  258   6.232   2.132   3.121
27834W        W  259  42.934  33.483   0.282
27835W        W  260  11.500   8.242  10.242
27836W        W  261  17.308   1.812  12.059
27837W        W  262  39.830  37.111   3.736
27838W        W  263  30.385  10.232   1.679
27839W        W  264   5.411  12.678   1.284
27840W        W  265  39.164  22.025   4.502
27841W        W  266  32.016   8.732  14.324
27842W        W  267   9.503   9.120   1.636
27843W        W  268   1.531  23.221  12.774
27844W        W  269  18.292   6.425   4.278
27845W        W  270  15.704   3.317   2.191
27846W        W  271   4.754  39.401  11.583
27847W        W  272  10.013  10.319  10.598
27848W        W  273  38.949  24.496  14.793
27849W        W  274   1.715  13.136  12.072
27850W        W  275  13.297   9.788  12.059
27851W        W  276   6.805   3.787  13.500
27852W        W  277  31.419   7.203   3.725
27853W        W  278  40.744  28.162  14.767
27854W        W  279  20.968  17.053   3.718
27855W        W  280   6.886  30.441   1.821
27856W        W  281  30.595  13.418   4.070
27857W        W  282  23.698  27.102  14.909
27858W        W  283  24.288  33.376  13.402
27859W        W  284  41.974  30.368   4.115
27860W        W  285  10.238  21.229   0.326
27861W        W  286  44.787  21.120   4.914
27862W        W  287   9.818   5.705   0.650
27863W        W  288  16.418  12.876  13.797
27864W        W  289  10.134  16.058  12.422
27865W        W  290  26.076  21.541  12.441
27866W        W  291  42.520  34.863  10.993
27867W        W  292  36.853  33.100   1.249
27868W        W  293  13.493  30.636   2.849
27869W        W  294  21.657   4.499   4.666
27870W        W  295   0.983  23.451  11.202
27871W        W  296  23.299  35.878   4.076
27872W        W  297  43.732   2.269  13.729
27873W        W  298  42.983  37.921  11.611
27874W        W  299  20.018  31.515   2.833
27875W        W  300  41.586  19.367  11.714
27876W        W  301  26.998   6.549   0.783
27877W        W  302   4.541  32.539   1.381
27878W        W  303  35.908  23.043  14.869
27879W        W  304  26.689  25.009  11.194
27880W        W  305  31.407  44.704  12.849
27881W        W  306   4.861  28.190   1.037
27882W        W  307   3.985  10.842   4.004
27883W        W  308  20.233  42.090  13.902
27884W        W  309  32.593  37.477   1.185
27885W        W  310  18.548  20.824  12.093
27886W        W  311  18.593  42.478  12.925
27887W        W  312  10.599  40.756   2.864
27888W        W  313  42.911  15.021  14.872
27889W        W  314   8.689  11.791  11.666
27890W        W  315   5.786   0.907  13.791
27891W        W  316   3.730  30.718   4.360
27892W        W  317   5.696  10.197  14.069
27893W        W  318   5.551  39.391  14.441
27894W        W  319  42.328  39.106  11.531
27895W        W  320   0.454   8.713   1.063
27896W        W  321   1.028  31.834  11.098
27897W        W  322  29.192  25.020   4.975
27898W        W  323  39.485  30.080   2.645
27899W        W  324  43.729  35.492  14.911
27900W        W  325  19.229   9.645  11.562
27901W        W  326  34.419  24.788  13.297
27902W        W  327  23.551   0.150   3.187
27903W        W  328   7.898   1.358  13.103
27904W        W  329   0.943  28.057  12.969
27905W        W  330  40.779   5.110   1.235
27906W        W  331   7.729  26.200   1.817
27907W        W  332   3.230   7.839  12.582
27908W        W  333  20.658  18.198  13.830
27909W        W  334  39.149   6.697  10.721
27910W        W  335  41.764  18.042   4.597
27911W        W  336  10.988  12.836  13.663
27912W        W  337   6.451  29.014  10.664
27913W        W  338  17.701   9.179   0.451
27914W        W  339  31.498  31.122  10.641
27915W        W  340  44.416  40.375   3.090
27916W        W  341  10.379  11.863   0.831
27917W        W  342  33.403  18.267  10.692
27918W        W  343  42.740  22.052  11.201
27919W        W  344   5.813  31.008  11.580
27920W        W  345   7.671   3.825   4.200
27921W        W  346  15.386  12.605  14.318
27922W        W  347  11.833  36.505   1.255
27923W        W  348  30.860  18.044   2.940
27924W        W  349  33.959   7.742  14.951
27925W        W  350  22.491  21.078  13.867
27926W        W  351  27.217  43.856   4.248
27927W        W  352   8.196   4.861   0.974
27928W        W  353  40.803   9.932  12.456
27929W        W  354  23.812  42.461   3.165
27930W        W  355  25.054  43.948   4.560
27931W        W  356   9.762   8.288  11.120
27932W        W  357  12.715  21.532   3.535
27933W        W  358  39.374   8.378  12.530
27934W        W  359  29.395  28.556  13.371
27935W        W  360  43.193  10.446   1.211
27936W        W  361   6.878  35.823   4.262
27937W        W  362  12.404   0.300   2.685
27938W        W  363   0.206   9.101  14.826
27939W        W  364  25.147  34.010  11.638
27940W        W  365  28.738  42.797  14.974
27941W        W  366  42.617   4.953   2.838
27942W        W  367  41.121  37.264   4.275
27943W        W  368  22.754   4.685  11.945
27944W        W  369  18.160   2.458   5.027
27945W        W  370  28.389  38.414  14.535
27946W        W  371  24.548  39.971   3.849
27947W        W  372  29.504  40.477  14.768
27948W        W  373  28.993  14.807  11.539
27949W        W  374   2.745  29.436  12.546
27950W        W  375  41.992  14.372  11.591
27951W        W  376   7.553  43.208  10.160
27952W        W  377  33.440  16.676  11.555
27953W        W  378   0.169  11.754  14.723
27954W        W  379   1.807  20.765  11.947
27955W        W  380  22.270  19.138  11.477
27956W        W  381  25.429  17.052   3.048
27957W        W  382   4.035  31.178  11.064
27958W        W  383  22.091  31.172   4.699
27959W        W  384  19.158   8.002  14.121
27960W        W  385  17.765  19.976  14.014
27961W        W  386  11.784  21.794   0.021
27962W        W  387  17.831   9.086   4.186
27963W        W  388  37.739  12.052   0.105
27964W        W  389  39.600  25.070  14.005
27965W        W  390  29.107  28.002  10.687
27966W        W  391  26.933  44.428  11.246
27967W        W  392  28.726  23.822   4.381
27968W        W  393  22.150  43.019   2.872
27969W        W  394  39.494  30.031   0.168
27970W        W  395  21.803   4.630  12.054
27971W        W  396   7.404  40.612   0.287
27972W        W  397  31.517   7.416  11.366
27973W        W  398  28.398  36.960  10.682
27974W        W  399   8.405   0.506  13.911
27975W        W  400  24.995  16.148   3.405
27976W        W  401  37.964  13.826   1.786
27977W        W  402  28.129  14.051  13.045
27978W        W  403  25.294  37.364  11.123
27979W        W  404  28.728  42.848  14.068
27980W        W  405  15.963  43.744   5.107
27981W        W  406   9.124  29.056  13.472
27982W        W  407   4.419  12.842  12.575
27983W        W  408  28.647  32.963   0.195
27984W        W  409   5.870  20.536  14.543
27985W        W  410  18.011  19.772  12.973
27986W        W  411  28.027  24.019  11.685
27987W        W  412  41.791  11.471   3.048
27988W        W  413  30.777  35.881  14.426
27989W        W  414  23.398   6.514   1.201
27990W        W  415  29.384   6.784   0.843
27991W        W  416  33.117   2.010  11.153
27992W        W  417  26.577  23.637  10.298
27993W        W  418  12.786  10.908   0.437
27994W        W  419   4.657  35.025  13.864
27995W        W  420   7.449  44.443  11.212
27996W        W  421  18.724  44.348  13.115
27997W        W  422   8.787  35.013   1.325
27998W        W  423   2.318  27.944  10.464
27999W        W  424  22.142  37.655   0.226
28000W        W  425   0.876  12.865  14.466
28001W        W  426  41.214  17.241  11.475
28002W        W  427   9.238  38.396   3.263
28003W        W  428  40.795  25.693   0.024
28004W        W  429  35.809  41.564  10.584
28005W        W  430   6.178   1.709  14.300
28006W        W  431  36.917   9.335   1.231
28007W        W  432  25.276  32.732   3.659
28008W        W  433  35.099  38.116  14.995
28009W        W  434  39.652  10.687   0.356
28010W        W  435  21.737  39.134  11.135
28011W        W  436   6.715  40.327  11.906
28012W        W  437   5.214  42.402   0.400
28013W        W  438  44.004  37.684  12.572
28014W        W  439   1.568  10.360   0.244
28015W        W  440  23.615   3.476  10.384
28016W        W  441   8.278   1.794   2.418
28017W        W  442  40.350   4.446  14.836
28018W        W  443  23.438   1.515   4.144
28019W        W  444  36.640  27.252   3.598
28020W        W  445  35.013  41.324   4.987
28021W        W  446  20.049  23.655   0.374
28022W        W  447  39.486  44.963   3.448
28023W        W  448  36.658  41.956   2.836
28024W        W  449  39.967  40.555  10.370
28025W        W  450  22.550   6.607   1.386
28026W        W  451  20.483  28.654   4.466
28027W        W  452  10.710   0.851  12.549
28028W        W  453   9.083  34.428   4.925
28029W        W  454  19.813  27.538   3.718
28030W        W  455   2.232   5.141   1.756
28031W        W  456  30.119   8.459  13.030
28032W        W  457  14.309  18.665   0.013
28033W        W  458  32.481   6.511  12.621
28034W        W  459  44.232  21.089   3.685
28035W        W  460  18.722  39.239  10.382
28036W        W  461   5.237  30.614  14.946
28037W        W  462  20.634  17.107   2.406
28038W        W  463  16.269  35.876  11.858
28039W        W  464  43.299  42.342  12.808
28040W        W  465   1.888  24.695  12.806
28041W        W  466  44.233  18.092  14.716
28042W        W  467   5.142  35.905   2.950
28043W        W  468  11.934  35.955   4.610
28044W        W  469  16.594   4.251  11.869
28045W        W  470  38.769  12.796   0.777
28046W        W  471   7.902  44.231   3.710
28047W        W  472   1.914  18.183   1.371
28048W        W  473  32.864  20.220   0.173
28049W        W  474  38.043  29.906  12.517
28050W        W  475  25.595  15.098   1.862
28051W        W  476  11.799  34.089  14.596
28052W        W  477   9.637  39.986   4.510
28053W        W  478  40.896  18.574   0.852
28054W        W  479   5.167  27.016   2.852
28055W        W  480  16.657  24.755   2.356
28056W        W  481  14.739   7.865  14.385
28057W        W  482  25.203   8.548   0.252
28058W        W  483  40.454  10.424  13.010
28059W        W  484  24.503  37.559   2.690
28060W        W  485   1.929   7.960   3.810
28061W        W  486  37.126   6.327   3.366
28062W        W  487  17.674  41.865   0.953
28063W        W  488  32.042  40.987  13.125
28064W        W  489  40.287  29.990  12.956
28065W        W  490  34.984  16.978   2.082
28066W        W  491  32.804   9.610  14.908
28067W        W  492   6.317  24.009   4.778
28068W        W  493  28.151  35.514  13.441
28069W        W  494   8.737  35.492   4.475
28070W        W  495   3.319  29.895   0.736
28071W        W  496   7.821  30.527   1.775
28072W        W  497   3.926  11.241   3.392
28073W        W  498  40.050   2.664   3.747
28074W        W  499  34.706   0.021   3.435
28075W        W  500  16.271  16.381  13.600
28076W        W  501  32.583  34.440   3.863
28077W        W  502  36.105   7.160   4.128
28078W        W  503   8.737   1.771   0.535
28079W        W  504  12.768  25.291   4.908
28080W        W  505   1.466  20.430  11.685
28081W        W  506   4.962  19.159  14.331
28082W        W  507  31.204  25.519   1.330
28083W        W  508   1.947   6.435  10.759
28084W        W  509  35.090  29.079   4.127
28085W        W  510  25.991  13.399   1.951
28086W        W  511  44.619  39.444   1.528
28087W        W  512  44.646  14.138   1.614
28088W        W  513  23.186  42.894   2.741
28089W        W  514   8.474  21.140  14.423
28090W        W  515  10.163  12.615  12.063
28091W        W  516  34.106  20.638  13.076
28092W        W  517   2.014  13.327  11.682
28093W        W  518  23.672   7.720   4.836
28094W        W  519   9.737  43.515   3.159
28095W        W  520  44.883  39.920   1.488
28096W        W  521  12.789  29.659   4.481
28097W        W  522  12.875   3.888  13.577
28098W        W  523  41.518  10.931  15.000
28099W        W  524   0.720  17.581  10.634
28100W        W  525  22.658  42.377   5.013
28101W        W  526   3.687  22.128   4.291
28102W        W  527  44.920  15.093   2.820
28103W        W  528  41.509  17.151  14.208
28104W        W  529   9.438   7.154  12.033
28105W        W  530  30.448   8.586  14.375
28106W        W  531  16.169   5.694  13.519
28107W        W  532   8.658  12.791   3.302
28108W        W  533  25.456  26.115  10.613
28109W        W  534  33.066  10.782   2.189
28110W        W  535  27.943  38.318   1.240
28111W        W  536  32.142  23.527  10.178
28112W        W  537  32.960  32.982  13.732
28113W        W  538  16.088  12.812  12.056
28114W        W  539  19.491  13.231  13.403
28115W        W  540  30.471   6.235   0.395
28116W        W  541  30.010  16.885   2.350
28117W        W  542   2.726   3.912  11.097
28118W        W  543  10.162  24.004  10.875
28119W        W  544  24.991  17.104   3.342
28120W        W  545  13.238   9.797  10.722
28121W        W  546  30.634   0.559   0.929
28122W        W  547  40.452  22.706  12.794
28123W        W  548  41.048  19.751   4.247
28124W        W  549  42.930   8.223   3.323
28125W        W  550  41.854   5.224  11.488
28126W        W  551  37.002  25.483   4.737
28127W        W  552  35.961  42.823   1.173
28128W        W  553  44.800  42.446   4.329
28129W        W  554  33.856  15.273  13.505
28130W        W  555  30.108  20.823  13.090
28131W        W  556   6.573  44.921   4.539
28132W        W  557  10.023   7.844  14.877
28133W        W  558  11.286  34.691  11.916
28134W        W  559  40.108  11.657   4.086
28135W        W  560  20.201  12.852   3.768
28136W        W  561  44.348  31.396   1.615
28137W        W  562   3.017  42.576  13.813
28138W        W  563   6.064  18.707  14.975
28139W        W  564   8.268  34.449   1.780
28140W        W  565   4.883  26.437   0.338
28141W        W  566  27.591  26.775   2.768
28142W        W  567  20.713  26.625  14.949
28143W        W  568  44.837  33.795   3.369
28144W        W  569  12.752  33.517   0.176
28145W        W  570   9.768   8.780   4.240
28146W        W  571   2.196   9.804  11.133
28147W        W  572  36.712  40.424   0.038
28148W        W  573  20.264  13.134   4.312
28149W        W  574   1.432  27.539   0.799
28150W        W  575  42.957  31.557  10.787
28151W        W  576  34.021  36.498  11.921
28152W        W  577  30.680  27.119  10.640
28153W        W  578  41.725  25.629  14.254
28154W        W  579  40.061   1.426   0.305
28155W        W  580  31.356  12.829  10.899
28156W        W  581  35.511  15.321   0.508
28157W        W  582  34.030  11.805  10.739
28158W        W  583  43.850   8.641  11.981
28159W        W  584  37.230  16.305  12.897
28160W        W  585  39.334  13.680  12.357
28161W        W  586  15.751  35.940  13.078
28162W        W  587  22.530  16.197  14.702
28163W        W  588   5.456  43.879   3.724
28164W        W  589   2.256  12.181  12.537
28165W        W  590  18.081   6.753  11.612
28166W        W  591  44.899  36.959  14.935
28167W        W  592   5.163  24.547   0.388
28168W        W  593   1.746  39.035   4.233
28169W        W  594  15.680   4.754  12.029
28170W        W  595  33.639   0.470  14.794
28171W        W  596  34.394  19.579  13.010
28172W        W  597  25.605   8.176   2.167
28173W        W  598  14.118  15.248   1.865
28174W        W  599   0.902  44.236  11.634
28175W        W  600  33.053  12.114   1.985
28176W        W  601  13.824  40.008  12.190
28177W        W  602  40.107  15.868  11.684
28178W        W  603  27.928  22.865   0.548
28179W        W  604  24.502  31.380  14.212
28180W        W  605  30.693  30.925  13.597
28181W        W  606  44.014  18.617  11.170
28182W        W  607  17.664  30.010  10.611
28183W        W  608   3.333  39.895  14.986
28184W        W  609  43.918  15.817  12.891
28185W        W  610  25.691  23.300  14.497
28186W        W  611  25.934  11.229   2.666
28187W        W  612   0.191   5.667  12.592
28188W        W  613  35.007  24.437   4.702
28189W        W  614  15.190  32.685  10.507
28190W        W  615  32.452  15.571  13.424
28191W        W  616  16.794   5.326   1.361
28192W        W  617  34.988  21.847   2.248
28193W        W  618   3.934  17.395  11.889
28194W        W  619  41.264   3.918   2.724
28195W        W  620  43.239  31.007   4.302
28196W        W  621   1.167  17.392   1.153
28197W        W  622  28.690   0.359  14.268
28198W        W  623  10.159   8.312  12.899
28199W        W  624   6.216  28.211   1.266
28200W        W  625  35.156  15.265   3.380
28201W        W  626  25.683  25.633   3.709
28202W        W  627  36.897   1.926  13.402
28203W        W  628   3.266  25.890   1.908
28204W        W  629  24.704   7.489  11.413
28205W        W  630  39.420  17.639  13.108
28206W        W  631  18.599  15.609  14.565
28207W        W  632  42.674  17.369   1.227
28208W        W  633  22.968  42.572   0.809
28209W        W  634   8.935   4.343   2.823
28210W        W  635  14.564  30.648  14.457
28211W        W  636  31.118   3.801   3.003
28212W        W  637  22.156  11.169  14.697
28213W        W  638   6.002   9.381   2.193
28214W        W  639  41.959  42.577  14.456
28215W        W  640  27.518  40.414  11.679
28216W        W  641  20.823   0.689   4.078
28217W        W  642   5.864   4.367  10.699
28218W        W  643  13.308   4.341   1.802
28219W        W  644  32.465  37.056  13.381
28220W        W  645  38.141  22.110   4.668
28221W        W  646  16.131  43.570  13.810
28222W        W  647  24.031   6.589   3.748
28223W        W  648  29.465  27.208  14.734
28224W        W  649  42.376  37.845   3.214
28225W        W  650  22.064   2.711   3.204
28226W        W  651  28.669  30.068  13.738
28227W        W  652  43.873  29.200   4.909
28228W        W  653  34.078  40.191  13.948
28229W        W  654   0.746  43.815   2.356
28230W        W  655  14.200   0.434   4.014
28231W        W  656   8.869  43.513  11.248
28232W        W  657  21.227  33.831  10.643
28233W        W  658  32.198  37.797   3.222
28234W        W  659   4.428   8.270   1.084
28235W        W  660  18.701  16.207   1.515
28236W        W  661  17.285  14.014   2.909
28237W        W  662  14.640   4.476   3.773
28238W        W  663  41.067  43.338  13.630
28239W        W  664  32.653  29.060  13.324
28240W        W  665  19.489   2.311   4.558
28241W        W  666  17.338  24.065   3.168
28242W        W  667  14.473  34.385  12.924
28243W        W  668  44.530  35.415   3.845
28244W        W  669  19.987  22.142  11.068
28245W        W  670   0.515  21.269  14.862
28246W        W  671  23.072  15.143  14.437
28247W        W  672  27.723  31.343  14.802
28248W        W  673  20.298  42.370   2.749
28249W        W  674   4.021  35.032   4.070
28250W        W  675  30.199  30.097   0.672
28251W        W  676  17.182  21.062   9.876
28252W        W  677  42.734  35.388  10.523
28253W        W  678  16.730  33.954  12.430
28254W        W  679  12.452  43.341   3.275
28255W        W  680  19.809  33.105   1.044
28256W        W  681  39.455  32.948  13.970
28257W        W  682  42.974  35.463  12.789
28258W        W  683  35.832  27.428   1.030
28259W        W  684  21.201  41.852   0.884
28260W        W  685   4.201  40.764  11.505
28261W        W  686  23.993  16.309   1.245
28262W        W  687  41.008  32.103   1.820
28263W        W  688  11.917  36.023   1.070
28264W        W  689   9.735  12.069  11.937
28265W        W  690  19.618  13.338  11.993
28266W        W  691  32.195   5.164  11.630
28267W        W  692   3.447  32.700   3.381
28268W        W  693  13.355  14.084  13.911
28269W        W  694   5.843  10.355   3.138
28270W        W  695  10.802   0.320  13.293
28271W        W  696   0.483  19.799   0.262
28272W        W  697   3.385  13.403   0.324
28273W        W  698   9.343  35.954   5.149
28274W        W  699  44.620   1.349   2.808
28275W        W  700  28.958  43.372   2.115
28276W        W  701   1.752  44.446   2.006
28277W        W  702  38.144  39.881  11.992
28278W        W  703  33.063  43.532  11.693
28279W        W  704  21.312  35.284  13.485
28280W        W  705  26.487  42.946   4.092
28281W        W  706  37.633  44.831  11.828
28282W        W  707  24.479  32.597   3.176
28283W        W  708  38.857  18.502   3.184
28284W        W  709   2.497   6.424  12.069
28285W        W  710  26.202  13.788   0.886
28286W        W  711  40.465  32.507   4.867
28287W        W  712   6.466  29.495  13.793
28288W        W  713  15.909  12.736   1.218
28289W        W  714  17.145  26.362   4.753
28290W        W  715  40.566  12.088  11.169
28291W        W  716  15.708  26.990  12.000
28292W        W  717   4.946  17.620   2.126
28293W        W  718   5.243  31.572  13.839
28294W        W  719  21.608  13.751  14.053
28295W        W  720   0.456  14.717   3.329
28296W        W  721  22.729  44.820  11.673
28297W        W  722   2.022   6.767   1.404
28298W        W  723  16.676   3.437   3.242
28299W        W  724  23.931  16.512  12.213
28300W        W  725  44.934   5.750   2.330
28301W        W  726  21.051   0.933  11.013
28302W        W  727  24.560  23.475   4.513
28303W        W  728   5.884  14.180  10.350
28304W        W  729  21.338   3.992  12.606
28305W        W  730  43.954  25.319  10.253
28306W        W  731  10.045  19.277   2.264
28307W        W  732  16.551  35.259   0.885
28308W        W  733  12.211   0.201  12.495
28309W        W  734  24.525  17.305   3.103
28310W        W  735  12.396   7.313  14.385
28311W        W  736  35.247   9.560   1.730
28312W        W  737  17.242  13.277   4.946
28313W        W  738  21.122  40.323  10.374
28314W        W  739  36.944  35.442   2.277
28315W        W  740  33.573  30.414   4.214
28316W        W  741  32.175  17.562  11.160
28317W        W  742  41.810   6.781   1.755
28318W        W  743  37.064  22.151   5.426
28319W        W  744   5.192   0.765   4.553
28320W        W  745   2.254  37.842  12.002
28321W        W  746  25.225  37.464  14.225
28322W        W  747  36.097  24.051  12.384
28323W        W  748  32.415  36.053  12.447
28324W        W  749   8.567  38.394  13.813
28325W        W  750  37.419  15.199  10.746
28326W        W  751  36.065  38.059   1.746
28327W        W  752   5.339   2.397   1.890
28328W        W  753   2.271  31.960  14.995
28329W        W  754   8.426  27.627   0.221
28330W        W  755  28.720  16.685  14.788
28331W        W  756   7.137  14.235  11.215
28332W        W  757  24.568   3.386   0.975
28333W        W  758  15.245  14.840   2.725
28334W        W  759  26.942  21.730  14.693
28335W        W  760  44.085  41.003   2.597
28336W        W  761   5.720  38.816  13.032
28337W        W  762   6.478  16.859  11.544
28338W        W  763   2.941   4.928   0.440
28339W        W  764   0.994  36.845  13.861
28340W        W  765  35.374  32.040   0.753
28341W        W  766   1.272   9.853  13.064
28342W        W  767   8.891  36.845   4.226
28343W        W  768  44.700  18.719  14.218
28344W        W  769  30.800   6.996  12.108
28345W        W  770  17.848  17.697   1.800
28346W        W  771   3.073  28.196  10.747
28347W        W  772   2.327  43.053   2.507
28348W        W  773  17.084  33.385   3.321
28349W        W  774  29.500  20.167  13.551
28350W        W  775  41.398   4.173   2.278
28351W        W  776   2.238  26.036   4.649
28352W        W  777  36.676  22.225  14.330
28353W        W  778  44.773   0.800   3.802
28354W        W  779   9.826  29.446  13.813
28355W        W  780   8.694   2.968   2.139
28356W        W  781  23.470  10.380  14.708
28357W        W  782  19.051   4.037  14.884
28358W        W  783   4.246   1.235  10.390
28359W        W  784  40.555   6.454   3.640
28360W        W  785  11.688  18.306   3.391
28361W        W  786   8.734   2.919  13.022
28362W        W  787  28.429  24.203   0.321
28363W        W  788  31.313   1.521   0.528
28364W        W  789   3.140  15.686  14.418
28365W        W  790  40.284   3.533   2.162
28366W        W  791  24.418   3.248  12.962
28367W        W  792  38.436  26.504   1.461
28368W        W  793  28.187  22.245  10.699
28369W        W  794  15.856  27.814   3.714
28370W        W  795  15.832  18.403  12.486
28371W        W  796  18.741  42.183   2.782
28372W        W  797   2.707  10.311  11.419
28373W        W  798  35.409  37.056   3.725
28374W        W  799  23.109  39.835  14.429
28375W        W  800   7.043  35.459  13.036
28376W        W  801  44.226  31.943  12.956
28377W        W  802  21.113  20.315   4.567
28378W        W  803   7.450   2.001   0.485
28379W        W  804  34.633   6.201   4.530
28380W        W  805  25.165  17.591  13.996
28381W        W  806  27.516   2.496   4.285
28382W        W  807   7.873  38.226  12.020
28383W        W  808  39.547  43.062   1.788
28384W        W  809  27.590  30.195  11.011
28385W        W  810  31.254  41.398   1.314
28386W        W  811  42.536  19.671  12.629
28387W        W  812   5.644  23.887  14.031
28388W        W  813   7.513  14.655  13.300
28389W        W  814   1.758   8.300   4.165
28390W        W  815  11.294  37.551   2.117
28391W        W  816  40.859  41.686   4.059
28392W        W  817  36.808   8.879   1.467
28393W        W  818  42.893   8.430  12.129
28394W        W  819   0.898  11.550   2.479
28395W        W  820  28.992  24.185   0.400
28396W        W  821   2.357  35.086  11.636
28397W        W  822  38.593  31.382   0.869
28398W        W  823  36.604  32.462   3.253
28399W        W  824  44.943  28.535   1.313
28400W        W  825  16.597  37.477   4.601
28401W        W  826  29.164   7.934   4.033
28402W        W  827  13.094  15.725   1.915
28403W        W  828  24.783  42.041   0.962
28404W        W  829  26.105   4.738  12.544
28405W        W  830   6.157   6.838   4.945
28406W        W  831  31.193  16.735  10.646
28407W        W  832  23.273  44.979  10.492
28408W        W  833   8.183   5.929   0.849
28409W        W  834   8.566  34.560  11.983
28410W        W  835  17.242  37.083   1.903
28411W        W  836   7.481  11.660  11.683
28412W        W  837  39.905  19.066  14.976
28413W        W  838  16.405   8.718  14.450
28414W        W  839   8.752  23.459   3.886
28415W        W  840  22.093  15.735   1.111
28416W        W  841  18.784  32.597   2.893
28417W        W  842  12.689  19.854   2.228
28418W        W  843  21.914  21.171  13.050
28419W        W  844  28.143  43.081  11.509
28420W        W  845  40.944  25.590   4.133
28421W        W  846  21.113  13.052   2.260
28422W        W  847  26.116  30.112  11.084
28423W        W  848  42.457  21.588   2.922
28424W        W  849  43.873  38.005  11.512
28425W        W  850  20.092  12.260   0.750
28426W        W  851  29.532  25.640  11.627
28427W        W  852  35.983  24.128  11.468
28428W        W  853  40.697  22.232   0.115
28429W        W  854  26.961  42.469  12.636
28430W        W  855  21.621  15.638  13.537
28431W        W  856  28.864  17.155   0.307
28432W        W  857  11.841  16.623  14.348
28433W        W  858  14.774  18.527   1.708
28434W        W  859  24.974   9.827   2.087
28435W        W  860   6.866   0.255   4.255
28436W        W  861   2.186  30.419  11.709
28437W        W  862   4.901  42.531  13.815
28438W        W  863  26.012  22.967   1.806
28439W        W  864   9.282  21.708   0.361
28440W        W  865  29.651  28.792  11.598
28441W        W  866  22.320  34.925   4.228
28442W        W  867  12.989  28.971   4.222
28443W        W  868  17.280   1.803  12.949
28444W        W  869  26.139  26.880  12.101
28445W        W  870  38.880  21.356  13.975
28446W        W  871   5.855  35.928   1.567
28447W        W  872  25.150  29.396   0.836
28448W        W  873  32.823   2.935  10.857
28449W        W  874   6.135  14.583   3.926
28450W        W  875  33.413  36.411  12.604
28451W        W  876   8.681  25.904   1.344
28452W        W  877  32.010  26.634  12.330
28453W        W  878  33.144  26.184   5.078
28454W        W  879  11.223  29.254  11.485
28455W        W  880  13.855  18.162  10.631
28456W        W  881  12.758  27.132  14.846
28457W        W  882   6.325  43.847   3.435
28458W        W  883  21.022  34.605   0.384
28459W        W  884  37.754  15.846  11.066
28460W        W  885  24.540  31.144   1.350
28461W        W  886  16.738  33.485  10.694
28462W        W  887  29.585   4.036   3.806
28463W        W  888   4.215   8.296   0.627
28464W        W  889  10.861   1.273  12.836
28465W        W  890  21.083  16.606  14.303
28466W        W  891  29.147  22.105   4.786
28467W        W  892  25.973  41.349   0.959
28468W        W  893  22.470  13.374   4.108
28469W        W  894  26.682  37.494   0.281
28470W        W  895   8.948  10.358  13.532
28471W        W  896  17.838  39.552   2.691
28472W        W  897  29.049  43.743   4.622
28473W        W  898  16.208  44.770   1.459
28474W        W  899  33.365  19.345   4.072
28475W        W  900  12.883  11.343   3.255
28476W        W  901  27.612  31.639   4.817
28477W        W  902   8.371  14.570  12.909
28478W        W  903  20.283  15.295   0.695
28479W        W  904  11.904  41.231   2.851
28480W        W  905   0.885  13.617  13.514
28481W        W  906   3.814   1.427  14.504
28482W        W  907   4.439  34.438  10.847
28483W        W  908  10.173  20.774  13.377
28484W        W  909  35.157   3.919   3.876
28485W        W  910   2.889   8.562  11.563
28486W        W  911   7.035  32.881   4.811
28487W        W  912  12.115  13.876  13.965
28488W        W  913  31.421   2.647  14.447
28489W        W  914  39.530  37.016   0.425
28490W        W  915   9.797  28.869  10.655
28491W        W  916  15.148  13.069   4.734
28492W        W  917  31.096  31.707   4.893
28493W        W  918  21.583  31.416   3.380
28494W        W  919  13.741  35.463   1.387
28495W        W  920  18.175  21.218   4.813
28496W        W  921  22.408  22.981  14.781
28497W        W  922   6.868  40.579  14.529
28498W        W  923  25.670  27.577  13.480
28499W        W  924  10.888  39.818  11.085
28500W        W  925  27.982  26.192   5.154
28501W        W  926  37.125   0.753   4.237
28502W        W  927   6.800  29.974  11.158
28503W        W  928  25.729  28.885  11.172
28504W        W  929   3.486   9.714  14.067
28505W        W  930  32.881  18.545   1.143
28506W        W  931  19.189   1.245  11.949
28507W        W  932  31.930  26.689   3.019
28508W        W  933   3.339  15.283   0.248
28509W        W  934  41.835  13.824  14.387
28510W        W  935  22.497  33.068   4.371
28511W        W  936   9.581   4.427  12.430
28512W        W  937  17.035  34.947  12.572
28513W        W  938  23.705  40.453  14.039
28514W        W  939  18.753  16.222  11.512
28515W        W  940  22.534  10.550   0.285
28516W        W  941  23.367  18.738  12.456
28517W        W  942  37.385   9.722  13.558
28518W        W  943  36.624   4.993  13.054
28519W        W  944  34.949  26.353  11.374
28520W        W  945  38.420  25.441   1.143
28521W        W  946  24.626  17.016   4.038
28522W        W  947   9.570  23.394   2.899
28523W        W  948   5.150  41.950  11.916
28524W        W  949  38.438  43.836   3.365
28525W        W  950  28.691  28.034  13.610
28526W        W  951  22.512   9.326  14.643
28527W        W  952  37.325  29.520   4.639
28528W        W  953  18.581  23.897  14.881
28529W        W  954  12.660   8.847  12.339
28530W        W  955   4.320   7.311  11.390
28531W        W  956  11.253  29.661   2.931
28532W        W  957   5.325  12.376   4.603
28533W        W  958  10.723   6.787   5.418
28534W        W  959  19.406   1.285  11.447
28535W        W  960   4.833  12.055  10.448
28536W        W  961  32.633  21.279   3.257
28537W        W  962   5.875  34.536   2.903
28538W        W  963  31.063  32.942   2.137
28539W        W  964  32.070  25.833  14.944
28540W        W  965   9.399  37.308   3.156
28541W        W  966   7.452   1.841   1.848
28542W        W  967  17.398  11.378   1.798
28543W        W  968  11.721   3.277   1.903
28544W        W  969   4.724   5.473   4.106
28545W        W  970  38.768   9.654   2.806
28546W        W  971  39.594  10.318  11.154
28547W        W  972  19.784  40.493   2.679
28548W        W  973  13.545  12.776   0.489
28549W        W  974  19.174  36.023  14.834
28550W        W  975  18.445  36.088  11.067
28551W        W  976  20.080   9.876   3.242
28552W        W  977  16.809  28.137   1.022
28553W        W  978  21.087  42.364   5.053
28554W        W  979  34.138  35.432  13.856
28555W        W  980  16.724   2.442   1.244
28556W        W  981  19.462  15.258  12.787
28557W        W  982  39.054   8.633   5.086
28558W        W  983   0.645  12.157   5.008
28559W        W  984  23.500  26.663  11.207
28560W        W  985  21.536  22.534   4.373
28561W        W  986  34.472   7.329  13.360
28562W        W  987   1.933   5.831  11.505
28563W        W  988  18.763  30.918   1.717
28564W        W  989  43.550  11.215   4.331
28565W        W  990  11.903  41.025  13.542
28566W        W  991   2.422  15.264   0.014
28567W        W  992   4.852   4.179  11.370
28568W        W  993  21.043  43.784  11.464
28569W        W  994  43.465  36.262   0.515
28570W        W  995  28.716  18.325   1.846
28571W        W  996  28.547  36.293  11.655
28572W        W  997  23.468  27.099   2.273
28573W        W  998  43.213   2.340   0.938
28574W        W  999   0.223  21.922  13.095
28575W        W 1000  14.034   9.214  12.044
28576W        W 1001  20.271  36.892   3.145
28577W        W 1002  19.799  28.432  13.378
28578W        W 1003  13.451   8.797   2.336
28579W        W 1004   0.234  43.781   2.295
28580W        W 1005  22.746  33.900   3.686
28581W        W 1006  21.175  40.556   3.789
28582W        W 1007  34.853  18.050  14.539
28583W        W 1008  25.737  15.493  13.577
28584W        W 1009  26.249  25.442   2.275
28585W        W 1010  22.659  24.157  10.430
28586W        W 1011  32.993  27.167   4.550
28587W        W 1012   8.591  17.882   0.339
28588W        W 1013  29.421  38.021   4.539
28589W        W 1014  10.420  37.926   0.424
28590W        W 1015  44.405   3.206  11.509
28591W        W 1016  31.517  38.046  11.717
28592W        W 1017  20.167  43.833  12.926
28593W        W 1018  31.034   2.142   4.668
28594W        W 1019  13.300  37.404  11.559
28595W        W 1020   1.834  20.176   2.173
28596W        W 1021  22.871  15.598  11.111
28597W        W 1022  25.384  42.577  12.458
28598W        W 1023   5.022   4.943   1.953
28599W        W 1024   6.341   8.751  13.739
28600W        W 1025  33.881  24.155  11.053
28601W        W 1026  21.522  11.383   2.849
28602W        W 1027  41.145  18.722   2.170
28603W        W 1028  33.129   1.979   2.679
28604W        W 1029  32.180   5.228   0.467
28605W        W 1030   5.993   7.960   0.282
28606W        W 1031  14.637  20.999   3.419
28607W        W 1032  12.398   7.255  11.906
28608W        W 1033   4.910  44.835  11.179
28609W        W 1034  31.667  17.168  11.986
28610W        W 1035   9.664  23.781   3.722
28611W        W 1036  31.043  18.284  10.227
28612W        W 1037  24.538  38.770   1.931
28613W        W 1038  10.120  18.301   2.146
28614W        W 1039  21.763  17.083   1.743
28615W        W 1040   2.202   6.099  13.851
28616W        W 1041  44.892  44.874   0.447
28617W        W 1042  21.715  40.540   2.850
28618W        W 1043  11.956  15.794  13.763
28619W        W 1044  24.451   9.326  11.015
28620W        W 1045  18.972  20.676  10.782
28621W        W 1046  19.074   6.765   1.819
28622W        W 1047  23.129   8.780  13.024
28623W        W 1048  18.110  39.782   3.879
28624W        W 1049   2.431  33.324  13.862
28625W        W 1050  14.634   2.370  14.018
28626W        W 1051  18.965  42.157   4.176
28627W        W 1052  30.953  35.717  12.460
28628W        W 1053  17.839  28.890   2.669
28629W        W 1054  17.606  36.153   3.699
28630W        W 1055  41.200  24.817  13.353
28631W        W 1056   0.901  27.222   4.232
28632W        W 1057  44.256  12.197  12.087
28633W        W 1058   4.043   1.312  13.515
28634W        W 1059   6.485  19.167  12.951
28635W        W 1060  23.484  32.124  12.588
28636W        W 1061   4.399   9.911  11.561
28637W        W 1062  38.692  42.952   4.133
28638W        W 1063  19.874  25.009   0.717
28639W        W 1064  21.601   8.021  11.935
28640W        W 1065  43.697  11.182  11.111
28641W        W 1066  13.419  35.774  11.056
28642W        W 1067  30.177   5.957   3.038
28643W        W 1068  16.863  18.551   2.466
28644W        W 1069  39.264  37.849   1.332
28645W        W 1070  21.656   3.053  11.521
28646W        W 1071  35.088   8.737   3.070
28647W        W 1072  14.683  31.731  13.393
28648W        W 1073   8.636   2.202  10.429
28649W        W 1074  44.916  15.124   3.692
28650W        W 1075  43.561  31.300  11.637
28651W        W 1076  17.436  39.553   1.603
28652W        W 1077  43.028  27.674  12.988
28653W        W 1078   4.696   5.030   0.935
28654W        W 1079   5.454  20.091  13.878
28655W        W 1080  44.734   9.274   0.260
28656W        W 1081  42.256  16.788   2.290
28657W        W 1082  20.737  33.764   2.618
28658W        W 1083  12.611  40.343  14.902
28659W        W 1084   1.751  32.547  12.062
28660W        W 1085  27.461  19.301   0.762
28661W        W 1086   6.940  29.975  10.659
28662W        W 1087  31.574   7.679  10.705
28663W        W 1088  15.232  31.655  10.707
28664W        W 1089  21.197   1.407   0.399
28665W        W 1090   0.753  23.268   0.063
28666W        W 1091  20.425  29.399   2.543
28667W        W 1092  17.761  27.032  11.835
28668W        W 1093  23.844  41.542   2.591
28669W        W 1094  43.523   1.528  14.933
28670W        W 1095  32.896   5.316   3.029
28671W        W 1096   0.284  35.044   0.888
28672W        W 1097  11.265  41.434  12.455
28673W        W 1098  33.368  16.689   4.963
28674W        W 1099  25.417  44.740  13.374
28675W        W 1100  32.862  23.824  11.979
28676W        W 1101  37.072  17.020   0.525
28677W        W 1102   2.849  15.325   1.265
28678W        W 1103  26.396  32.222   4.538
28679W        W 1104  40.443   4.717  13.953
28680W        W 1105  44.333  27.919  10.641
28681W        W 1106  18.760  22.729   1.665
28682W        W 1107  30.010  18.684  12.529
28683W        W 1108  44.504  19.804  13.883
28684W        W 1109  12.932  37.032  14.213
28685W        W 1110  15.461   2.714  11.622
28686W        W 1111  42.462  16.751   4.768
28687W        W 1112  24.134   2.080   4.996
28688W        W 1113  29.659  31.548   0.326
28689W        W 1114  31.260  37.833  12.127
28690W        W 1115   7.722  17.242   3.277
28691W        W 1116  43.518  10.697  12.013
28692W        W 1117  36.606  30.918  11.459
28693W        W 1118  17.242  31.292  12.384
28694W        W 1119  23.969  35.723  10.333
28695W        W 1120  33.699  42.928   0.695
28696W        W 1121  11.127   7.166   0.224
28697W        W 1122  22.244  34.889   5.108
28698W        W 1123  17.371  32.001   5.390
28699W        W 1124  35.276   1.900  12.940
28700W        W 1125  28.506  12.647  12.883
28701W        W 1126   9.788  34.386   0.025
28702W        W 1127  38.583  10.400   4.564
28703W        W 1128   5.403  25.581  14.301
28704W        W 1129  24.055  20.506  10.576
28705W        W 1130  23.969   4.838  12.591
28706W        W 1131   7.664  23.677   2.801
28707W        W 1132  28.545   1.800   1.447
28708W        W 1133  21.670   5.962  13.983
28709W        W 1134  14.143  26.954   0.909
28710W        W 1135  36.272   6.904  12.364
28711W        W 1136  20.185  38.514  13.342
28712W        W 1137  12.613  23.116  12.355
28713W        W 1138  18.804  11.536   2.648
28714W        W 1139   6.710  31.198   3.791
28715W        W 1140  17.788  28.645  10.618
28716W        W 1141  30.163  25.023  13.532
28717W        W 1142  26.354  23.706   4.454
28718W        W 1143  13.842   3.483   2.306
28719W        W 1144   6.356  16.428   4.211
28720W        W 1145   8.381  15.631  13.510
28721W        W 1146  34.573  21.148  12.550
28722W        W 1147  38.061  21.081   0.167
28723W        W 1148  39.455  13.382   2.482
28724W        W 1149  19.107  40.262  11.988
28725W        W 1150  40.425   8.258   2.371
28726W        W 1151   3.654  10.723  14.513
28727W        W 1152  13.169  30.100  12.505
28728W        W 1153  28.230   8.699  10.113
28729W        W 1154  22.590  42.771   3.599
28730W        W 1155  42.681  15.973   1.243
28731W        W 1156   8.840  17.547  11.643
28732W        W 1157   2.847   0.352   1.794
28733W        W 1158  13.009  13.838  13.642
28734W        W 1159  23.241  12.413   3.535
28735W        W 1160  11.465  13.025  10.989
28736W        W 1161  32.437  23.615   2.142
28737W        W 1162  43.900  30.909   1.244
28738W        W 1163  17.190  12.338  11.119
28739W        W 1164  18.233   4.410   0.163
28740W        W 1165  30.911  43.582  12.242
28741W        W 1166  23.202  27.170  14.979
28742W        W 1167  16.074  35.539   4.264
28743W        W 1168   7.710  25.775  11.629
28744W        W 1169  35.045  23.331  14.299
28745W        W 1170  22.882  13.428  13.384
28746W        W 1171  44.997  44.545  11.613
28747W        W 1172  42.496  31.868  11.082
28748W        W 1173  39.815   4.672  12.075
28749W        W 1174  11.782  22.002  11.881
28750W        W 1175  29.557   5.170   2.880
28751W        W 1176  35.800  16.863   3.210
28752W        W 1177  32.846  15.477  11.604
28753W        W 1178  33.280  12.819  10.235
28754W        W 1179  15.587  11.850  11.061
28755W        W 1180  34.876  20.708   1.460
28756W        W 1181  36.406  11.361  11.475
28757W        W 1182   4.336  30.641   3.778
28758W        W 1183   5.117  12.817   3.317
28759W        W 1184  12.858  25.237  13.231
28760W        W 1185  31.206  30.057  11.230
28761W        W 1186  25.465  43.419  14.372
28762W        W 1187  10.777  21.876   4.721
28763W        W 1188  35.645  41.879   3.413
28764W        W 1189   3.872  36.797  13.855
28765W        W 1190  29.259  41.835  13.367
28766W        W 1191  15.703  42.402  10.975
28767W        W 1192  15.797  29.059  14.716
28768W        W 1193  10.896   7.883  13.847
28769W        W 1194  13.075  27.660  10.520
28770W        W 1195  15.678   2.773   3.125
28771W        W 1196   8.419  38.391   0.613
28772W        W 1197  32.645  15.980   4.596
28773W        W 1198  41.516  43.366   1.938
28774W        W 1199  42.303  39.544   4.789
28775W        W 1200  23.201  33.379  11.130
28776W        W 1201  23.802  20.954   4.283
28777W        W 1202  41.682  18.881   0.366
28778W        W 1203  19.323  30.239   2.676
28779W        W 1204  43.012  11.581   3.273
28780W        W 1205  30.272  37.484   4.417
28781W        W 1206   4.395  40.081  13.852
28782W        W 1207   4.255  24.045  13.519
28783W        W 1208   5.770   7.788   2.110
28784W        W 1209  37.351  20.589   1.449
28785W        W 1210   2.413   5.190   5.010
28786W        W 1211  38.834  10.223   3.714
28787W        W 1212   0.719  34.908  14.677
28788W        W 1213  13.779  11.231   1.456
28789W        W 1214  22.593  17.548  12.882
28790W        W 1215   5.447  39.549   1.646
28791W        W 1216  32.144  29.023  13.378
28792W        W 1217  28.079  36.208   4.680
28793W        W 1218  27.266  15.733  12.512
28794W        W 1219   3.249  36.086   2.715
28795W        W 1220   0.236   1.031  13.750
28796W        W 1221   9.326  18.240  11.825
28797W        W 1222   3.823   5.956   4.529
28798W        W 1223   2.456  12.501   3.214
28799W        W 1224  33.503   1.461   2.240
28800W        W 1225  25.914  44.293   2.900
28801W        W 1226  15.811  29.883  14.265
28802W        W 1227   9.303  28.249   3.588
28803W        W 1228  39.431  15.189   0.451
28804W        W 1229   6.862   7.639   4.182
28805W        W 1230  37.913  21.616   4.714
28806W        W 1231  15.121   7.862  10.621
28807W        W 1232  11.436  39.825  13.838
28808W        W 1233   3.947  42.311   3.135
28809W        W 1234   7.189   5.303   4.068
28810W        W 1235   7.730   8.245   3.541
28811W        W 1236  19.913  18.469  13.462
28812W        W 1237  38.986   8.631   3.763
28813W        W 1238   1.158  15.748  12.410
28814W        W 1239  17.167   9.540  13.753
28815W        W 1240  23.812  34.591  12.867
28816W        W 1241   0.424  35.102  13.402
28817W        W 1242  38.365  19.355  11.663
28818W        W 1243  12.756  42.854  14.913
28819W        W 1244   7.413  31.898   0.395
28820W        W 1245  34.861  34.588   2.036
28821W        W 1246  19.818  17.679   1.037
28822W        W 1247  15.760   1.418  11.783
28823W        W 1248  23.008  14.727   0.458
28824W        W 1249  17.036  13.273  11.257
28825W        W 1250  33.499   6.651  13.492
28826W        W 1251  27.182  36.422   4.190
28827W        W 1252  44.488   6.220  12.975
28828W        W 1253   2.032   9.693  13.880
28829W        W 1254  12.396   7.182  10.562
28830W        W 1255  44.258  25.070  11.466
28831W        W 1256  34.138  14.749  14.224
28832W        W 1257  40.852  13.231   1.733
28833W        W 1258  21.524  40.144  13.493
28834W        W 1259  19.983  16.944  13.322
28835W        W 1260  20.542  43.773  13.580
28836W        W 1261  14.340   8.581   0.711
28837W        W 1262  39.974   6.882  14.370
28838W        W 1263   6.886   3.731  12.903
28839W        W 1264  27.464  32.387  13.732
28840W        W 1265   0.411  30.742  13.483
28841W        W 1266  24.735  26.447  11.486
28842W        W 1267  31.463  11.184  12.625
28843W        W 1268  19.094  44.512  13.483
28844W        W 1269  37.947  30.397  14.234
28845W        W 1270  10.551   3.926  10.574
28846W        W 1271  11.298  18.844   4.480
28847W        W 1272  26.919  25.951  11.987
28848W        W 1273  19.262  30.519  14.540
28849W        W 1274  30.435  15.325   2.204
28850W        W 1275  17.128  23.726  11.630
28851W        W 1276  21.643  11.729  14.998
28852W        W 1277  20.841   3.821  11.711
28853W        W 1278  38.784  29.092  11.165
28854W        W 1279  34.641  27.423   3.981
28855W        W 1280  24.732  13.820   0.803
28856W        W 1281  24.356  12.799  12.951
28857W        W 1282  20.227  26.898  10.963
28858W        W 1283  37.112  31.444   3.227
28859W        W 1284  36.965   8.720   4.636
28860W        W 1285  33.404  44.979  11.574
28861W        W 1286   3.971  14.358  11.959
28862W        W 1287  14.694  40.944  13.487
28863W        W 1288  22.515  14.322   3.733
28864W        W 1289  30.029  22.148  10.650
28865W        W 1290  32.910  34.536  14.335
28866W        W 1291  29.771  37.588  12.456
28867W        W 1292  27.621   7.951   4.463
28868W        W 1293  21.690  23.605   3.690
28869W        W 1294  30.493  37.102  13.951
28870W        W 1295  31.447   3.416   3.170
28871W        W 1296  23.762  41.493  10.668
28872W        W 1297  36.749   4.102   3.635
28873W        W 1298  22.143   0.317   1.628
28874W        W 1299  17.223  44.769  11.963
28875W        W 1300  28.347  14.974  11.078
28876W        W 1301  44.233  40.414   0.265
28877W        W 1302   0.460   2.849  14.056
28878W        W 1303   4.416   3.586  10.193
28879W        W 1304  21.607  15.831  14.486
28880W        W 1305  17.077  30.201   1.140
28881W        W 1306  38.043  21.069  11.189
28882W        W 1307  27.589  13.863   0.170
28883W        W 1308  11.305  16.494  12.849
28884W        W 1309  16.801  13.348   1.225
28885W        W 1310  43.112   5.282   3.657
28886W        W 1311  43.974  29.499  10.628
28887W        W 1312   5.456  41.382  13.159
28888W        W 1313  20.045   2.986  12.876
28889W        W 1314  10.048  33.449  13.071
28890W        W 1315  33.543  36.786   3.802
28891W        W 1316  32.472   5.258  12.084
28892W        W 1317  30.743  30.436   4.428
28893W        W 1318  29.667  30.242  12.403
28894W        W 1319  16.361  43.464   4.181
28895W        W 1320  38.958  13.643  11.902
28896W        W 1321  35.947   4.866   1.208
28897W        W 1322  16.163  10.705   3.489
28898W        W 1323  26.704  40.109  11.533
28899W        W 1324  41.641  41.793   4.914
28900W        W 1325  25.144   7.316   3.790
28901W        W 1326  33.602  39.127  14.304
28902W        W 1327  36.858  35.228  14.993
28903W        W 1328  40.533  14.238   3.830
28904W        W 1329  18.293  39.242   1.110
28905W        W 1330  35.885  23.058  13.799
28906W        W 1331   7.656  23.698  12.929
28907W        W 1332  28.645  39.992  11.119
28908W        W 1333  22.476  31.918  12.432
28909W        W 1334  24.255  28.596   4.154
28910W        W 1335  11.895   3.987   3.287
28911W        W 1336  32.876  38.862  12.156
28912W        W 1337  27.062  20.191   0.315
28913W        W 1338  18.217  24.958   1.905
28914W        W 1339   5.231  22.092  10.946
28915W        W 1340  40.224  31.602   3.658
28916W        W 1341  18.658  15.121   3.676
28917W        W 1342  14.325   3.186   1.338
28918W        W 1343  28.660  12.714   2.192
28919W        W 1344  32.514  12.108  11.653
28920W        W 1345   9.219  38.157   5.461
28921W        W 1346   5.803  31.181  14.725
28922W        W 1347   0.265  25.513   4.917
28923W        W 1348  42.691  10.339   4.678
28924W        W 1349  41.722  33.572  10.606
28925W        W 1350  34.878  44.427  10.810
28926W        W 1351  23.611  13.266   3.283
28927W        W 1352   3.948  42.785   1.853
28928W        W 1353  37.531  32.117  12.968
28929W        W 1354  41.362  23.377   1.933
28930W        W 1355  15.711   9.872   0.320
28931W        W 1356  21.396  33.433   1.840
28932W        W 1357  42.363  11.844  10.715
28933W        W 1358  13.191  43.326  11.652
28934W        W 1359  28.024  17.484   3.147
28935W        W 1360  35.927  10.227  11.669
28936W        W 1361  41.994   7.298  11.710
28937W        W 1362   0.837  14.759  11.021
28938W        W 1363  25.048  37.070   0.952
28939W        W 1364   6.415  15.314  11.607
28940W        W 1365  35.847  22.632  10.580
28941W        W 1366  14.778   5.494   0.283
28942W        W 1367  20.747   2.914   4.343
28943W        W 1368  40.832  37.199  11.926
28944W        W 1369  10.511  11.677  12.186
28945W        W 1370  38.337  43.699   1.870
28946W        W 1371   1.833  18.258   3.749
28947W        W 1372   4.951  19.330  12.040
28948W        W 1373   4.093  14.883  12.056
28949W        W 1374  28.855   6.300  12.232
28950W        W 1375   4.996   8.160   2.466
28951W        W 1376  41.364  18.350   0.952
28952W        W 1377   1.256  12.919  13.519
28953W        W 1378   6.139  11.210   0.864
28954W        W 1379  25.048  21.707  12.069
28955W        W 1380  41.029  35.234  11.435
28956W        W 1381  35.224  24.507   1.781
28957W        W 1382   9.132  21.973  11.639
28958W        W 1383  26.029  17.712   1.632
28959W        W 1384   0.576  17.179  13.452
28960W        W 1385  28.709  44.315  13.518
28961W        W 1386  35.549   1.299  11.816
28962W        W 1387  16.401  44.748  12.465
28963W        W 1388   1.162  18.724   3.509
28964W        W 1389   8.418  21.163   3.761
28965W        W 1390  21.698  27.322   3.637
28966W        W 1391   3.286   4.794   1.888
28967W        W 1392  21.574  36.514   4.330
28968W        W 1393  18.629  34.644   1.390
28969W        W 1394  33.345   0.903  14.935
28970W        W 1395   8.104  28.950   1.585
28971W        W 1396  16.286  35.668   1.681
28972W        W 1397  19.780  29.999   2.313
28973W        W 1398  40.303  43.537   2.359
28974W        W 1399   1.981  24.596  11.013
28975W        W 1400  26.783  20.698   0.897
28976W        W 1401  12.816  24.754  14.072
28977W        W 1402  33.411  14.240  14.331
28978W        W 1403  10.684  34.619   4.166
28979W        W 1404  29.281  30.994  14.375
28980W        W 1405  38.315  40.844  14.286
28981W        W 1406  32.384  24.618  11.587
28982W        W 1407   6.715  39.461   2.956
28983W        W 1408  12.684  25.041  12.682
28984W        W 1409  29.408   0.207   2.398
28985W        W 1410   6.132  11.351  13.930
28986W        W 1411  34.976  29.962  12.262
28987W        W 1412  20.780  13.735   3.205
28988W        W 1413  29.370  23.903  14.499
28989W        W 1414  29.098  26.464   3.743
28990W        W 1415  35.071  34.875  12.024
28991W        W 1416   3.676  25.596  11.057
28992W        W 1417  42.777  32.115  14.539
28993W        W 1418  24.104  21.336  12.339
28994W        W 1419  16.517  44.700   4.235
28995W        W 1420  21.034  20.154  12.423
28996W        W 1421  20.159  19.863   2.827
28997W        W 1422  15.623  20.840  12.592
28998W        W 1423  39.881  40.978   1.702
28999W        W 1424   3.806   1.911   0.777
29000W        W 1425   9.647  35.440  12.124
29001W        W 1426  31.746  12.362   0.334
29002W        W 1427  15.295  30.293  14.832
29003W        W 1428  29.406  14.018  11.263
29004W        W 1429  22.729  25.945   2.123
29005W        W 1430  42.581   4.293   0.278
29006W        W 1431  18.361  42.305  13.439
29007W        W 1432  40.494   3.249   1.780
29008W        W 1433  38.389  19.552   0.735
29009W        W 1434  20.927  25.554  12.890
29010W        W 1435  14.261  17.284  14.754
29011W        W 1436  39.400  43.484   2.605
29012W        W 1437   8.224  21.732  11.898
29013W        W 1438  37.174   5.296  11.397
29014W        W 1439  26.059  43.538   4.460
29015W        W 1440   1.897  43.676   4.098
29016W        W 1441  27.013  32.010   3.192
29017W        W 1442  41.520  34.990   0.911
29018W        W 1443  13.942  28.247   0.541
29019W        W 1444  40.419  29.555   3.296
29020W        W 1445   3.985  23.009   3.548
29021W        W 1446  38.423  38.578  13.429
29022W        W 1447   5.899   1.223   2.622
29023W        W 1448  38.798  24.018   2.167
29024W        W 1449  36.066  17.198  12.276
29025W        W 1450  20.057  11.762  13.547
29026W        W 1451  37.482  13.337  14.428
29027W        W 1452  15.116  19.617  13.869
29028W        W 1453   6.071   3.944   0.994
29029W        W 1454  44.980   7.680  14.780
29030W        W 1455  21.974  22.229  11.442
29031W        W 1456  11.492  34.462   3.665
29032W        W 1457   7.278  29.801   2.872
29033W        W 1458  32.930  42.561  13.510
29034W        W 1459  26.188  36.876   0.265
29035W        W 1460   7.758  10.429   1.774
29036W        W 1461  37.907  20.573   2.349
29037W        W 1462   9.085  21.238  10.588
29038W        W 1463  42.988   7.779   4.272
29039W        W 1464  44.682  10.965   0.222
29040W        W 1465  34.188  26.468   1.100
29041W        W 1466  11.381  28.876  12.458
29042W        W 1467  18.548   2.504   3.614
29043W        W 1468  15.253  21.847   2.661
29044W        W 1469  44.459  16.703   1.958
29045W        W 1470  36.186   5.207   1.501
29046W        W 1471  40.052  30.966  11.059
29047W        W 1472  15.242  16.962   2.136
29048W        W 1473  15.170  10.109   0.256
29049W        W 1474  44.223  36.730   2.312
29050W        W 1475  36.935  24.990   3.575
29051W        W 1476   6.520  15.325  12.846
29052W        W 1477  43.528   9.628  10.775
29053W        W 1478  29.257   2.904   3.661
29054W        W 1479  10.817  44.247  14.390
29055W        W 1480  32.056  18.306   4.657
29056W        W 1481  36.962  31.110   3.636
29057W        W 1482   6.004  19.142   0.252
29058W        W 1483  12.159   4.348  14.321
29059W        W 1484  17.919  42.917  12.784
29060W        W 1485   3.942  24.246   3.263
29061W        W 1486  16.696  31.843  12.995
29062W        W 1487  28.996  10.748   3.036
29063W        W 1488  38.016   1.878   4.101
29064W        W 1489  36.012   0.789   4.144
29065W        W 1490  26.206  44.792  13.081
29066W        W 1491   8.431   9.464  11.498
29067W        W 1492  34.458  25.655  13.480
29068W        W 1493  33.394  18.853  14.370
29069W        W 1494  15.767  17.336  10.418
29070W        W 1495  28.183  42.160   2.645
29071W        W 1496   5.525   1.251  10.713
29072W        W 1497  33.893  35.574  14.318
29073W        W 1498  41.156  41.823  12.039
29074W        W 1499  37.563  20.131  14.235
29075W        W 1500  18.234  14.123   4.662
29076W        W 1501   0.815  33.570  12.955
29077W        W 1502  20.429  25.668  12.783
29078W        W 1503  33.345  33.863   1.222
29079W        W 1504  42.912  25.761   0.448
29080W        W 1505  23.233  29.520   0.012
29081W        W 1506  20.191  17.251  11.843
29082W        W 1507  38.300  38.078   2.777
29083W        W 1508   9.517  32.530   1.318
29084W        W 1509   0.980  11.919  11.123
29085W        W 1510  24.306  16.192   0.832
29086W        W 1511  22.168   0.186  13.596
29087W        W 1512  11.384  21.756   3.237
29088W        W 1513  12.454  26.239   0.474
29089W        W 1514  14.919  35.916   2.755
29090W        W 1515  13.291   8.833   3.227
29091W        W 1516  39.934   9.147   3.750
29092W        W 1517  41.872  42.501   2.713
29093W        W 1518  32.234  19.232   1.062
29094W        W 1519  14.693  31.183  14.355
29095W        W 1520  43.634  12.553  12.097
29096W        W 1521  39.565  30.936  14.435
29097W        W 1522  29.602   4.945   0.824
29098W        W 1523  40.617  40.977   1.269
29099W        W 1524   3.543  16.777   0.681
29100W        W 1525   2.215   2.719  13.434
29101W        W 1526  16.770  44.490  14.636
29102W        W 1527  14.278  22.767  12.361
29103W        W 1528  42.937  20.070   1.656
29104W        W 1529  18.377  14.904   1.932
29105W        W 1530  29.146  39.863   0.021
29106W        W 1531  40.014  32.713  11.524
29107W        W 1532   5.443  40.057   1.603
29108W        W 1533  10.564  18.673   2.858
29109W        W 1534  41.007  41.908   1.833
29110W        W 1535   6.737   3.323  13.742
29111W        W 1536  10.646  40.993  13.525
29112W        W 1537  21.792  42.406  14.379
29113W        W 1538  24.656  13.215  12.518
29114W        W 1539  10.752   5.635  14.228
29115W        W 1540  25.612   2.355   3.240
29116W        W 1541  36.992  39.775   2.317
29117W        W 1542  17.363  18.832  11.206
29118W        W 1543  39.070  19.759  13.462
29119W        W 1544  15.790  22.163   0.459
29120W        W 1545  12.636   2.230  12.017
29121W        W 1546   9.639  25.838  10.706
29122W        W 1547  27.075  44.301   3.629
29123W        W 1548   5.363  28.739   3.869
29124W        W 1549  41.830  33.403   4.450
29125W        W 1550  22.253  28.381   4.781
29126W        W 1551  30.414  20.269   4.554
29127W        W 1552   5.938  26.915  12.943
29128W        W 1553   7.723   0.835  14.534
29129W        W 1554  24.910  10.232  11.527
29130W        W 1555  39.133  27.105  13.946
29131W        W 1556   0.462  25.201   3.156
29132W        W 1557  14.753   9.193   4.161
29133W        W 1558  18.393   4.905   0.762
29134W        W 1559   4.247  17.350  14.389
29135W        W 1560  12.715  30.389  11.111
29136W        W 1561  25.233  36.849  11.137
29137W        W 1562  13.482  22.931   2.767
29138W        W 1563  27.450  11.702   2.326
29139W        W 1564  44.431  19.269  13.043
29140W        W 1565  29.913  16.632  11.091
29141W        W 1566  13.020  44.789  12.138
29142W        W 1567   6.430  35.521  12.364
29143W        W 1568  15.589  13.628   2.293
29144W        W 1569  10.914  13.220   1.370
29145W        W 1570   9.770  13.122   3.435
29146W        W 1571  21.144   1.978   1.019
29147W        W 1572  23.009  24.281  12.513
29148W        W 1573   1.580  42.312   2.682
29149W        W 1574   5.402  37.844   3.632
29150W        W 1575  25.415  31.918   4.323
29151W        W 1576   5.463   1.105  13.315
29152W        W 1577  43.288  30.360  11.635
29153W        W 1578  10.943  39.033  12.348
29154W        W 1579   9.302  41.845   3.203
29155W        W 1580   5.915  17.826   0.658
29156W        W 1581  34.384  38.962  14.426
29157W        W 1582   2.449   0.956   5.153
29158W        W 1583   1.797  18.296  13.968
29159W        W 1584   9.779  32.940  13.429
29160W        W 1585  44.876  28.684  14.878
29161W        W 1586  14.850   3.707   1.536
29162W        W 1587  41.088   1.788  14.003
29163W        W 1588  26.168  21.142   4.554
29164W        W 1589   6.145   6.822  11.094
29165W        W 1590  25.245  22.545  11.504
29166W        W 1591  14.571  25.005  13.865
29167W        W 1592  35.670   2.945   4.871
29168W        W 1593  31.826  32.455   2.898
29169W        W 1594  43.236  14.584   2.279
29170W        W 1595  33.492  37.306  13.920
29171W        W 1596  16.690  37.943   4.377
29172W        W 1597   5.887  25.740  14.034
29173W        W 1598  24.345  39.299  12.318
29174W        W 1599  35.887  25.953  11.260
29175W        W 1600  12.069  21.103   0.412
29176W        W 1601  42.811   5.699   0.985
29177W        W 1602  39.290  42.859  11.812
29178W        W 1603   0.221   8.190  12.502
29179W        W 1604  16.121  31.926  13.455
29180W        W 1605  44.920  14.229   3.632
29181W        W 1606  28.625  43.434  12.704
29182W        W 1607  36.619  32.813  12.689
29183W        W 1608  35.420  30.327   0.271
29184W        W 1609  32.902   6.596  13.830
29185W        W 1610  27.876  40.045   3.957
29186W        W 1611   0.313  11.367  12.656
29187W        W 1612  17.726   5.105   0.716
29188W        W 1613   6.619  10.794  12.444
29189W        W 1614  13.246  36.126   2.203
29190W        W 1615   2.710  11.152   1.834
29191W        W 1616   7.384  36.133  10.170
29192W        W 1617   0.889  32.568  14.747
29193W        W 1618   5.686  35.764  11.480
29194W        W 1619  21.103   9.883   0.962
29195W        W 1620   8.812  35.672   2.797
29196W        W 1621  29.069  17.832  14.272
29197W        W 1622  24.765  39.360  14.218
29198W        W 1623  24.593  42.605  12.974
29199W        W 1624   2.997  15.236  12.373
29200W        W 1625   9.802  17.700   4.814
29201W        W 1626  41.280  13.872   4.204
29202W        W 1627  31.032   2.482  11.455
29203W        W 1628  32.139  33.615  12.403
29204W        W 1629   7.436  20.303   4.115
29205W        W 1630  36.041  18.255  12.051
29206W        W 1631   0.257  17.327   1.388
29207W        W 1632  32.045  11.731   4.622
29208W        W 1633   6.734  41.967  12.912
29209W        W 1634   9.161  33.689   2.406
29210W        W 1635   7.868  32.178  14.465
29211W        W 1636   1.005   7.325  14.763
29212W        W 1637  36.619  21.811  12.521
29213W        W 1638  22.651  31.999   3.769
29214W        W 1639   7.631   5.668   2.288
29215W        W 1640   3.929  33.975  10.835
29216W        W 1641  20.632   9.207   4.730
29217W        W 1642  32.419  20.263  13.533
29218W        W 1643   9.641  32.116  11.013
29219W        W 1644  11.675  15.857  11.141
29220W        W 1645   0.417  23.937   1.282
29221W        W 1646  26.172   2.942  10.893
29222W        W 1647   3.975  10.372   4.490
29223W        W 1648   1.011  36.621   1.743
29224W        W 1649  36.468   6.192   4.029
29225W        W 1650  19.761  35.926   2.250
29226W        W 1651  44.985  11.802   0.288
29227W        W 1652   6.852  37.280  10.649
29228W        W 1653  15.211   1.414   1.462
29229W        W 1654  16.742   7.290   3.106
29230W        W 1655  24.117  28.726  11.593
29231W        W 1656  27.575  14.120   0.966
29232W        W 1657  26.626   3.880  13.768
29233W        W 1658  36.943   2.203  15.000
29234W        W 1659  38.890   3.673   3.155
29235W        W 1660  33.246  17.112  13.969
29236W        W 1661  15.099  37.623   0.787
29237W        W 1662  40.373   4.930   4.730
29238W        W 1663  11.130  14.532  12.408
29239W        W 1664  22.647  31.410   4.087
29240W        W 1665   2.353  32.600  13.374
29241W        W 1666  18.357  17.159  13.946
29242W        W 1667  31.876  34.898   2.758
29243W        W 1668  30.231  11.292   2.202
29244W        W 1669  38.140  22.703  14.935
29245W        W 1670  14.366  36.535   0.200
29246W        W 1671  22.562  21.682   0.739
29247W        W 1672  37.849  28.361  14.925
29248W        W 1673  34.013   1.999   1.847
29249W        W 1674  10.486  25.533   0.893
29250W        W 1675   4.424   7.283   4.000
29251W        W 1676  24.679  12.794   4.405
29252W        W 1677  17.350   5.330   4.137
29253W        W 1678   7.505  32.260  13.608
29254W        W 1679  29.463  43.305  12.168
29255W        W 1680  13.633  34.809   2.392
29256W        W 1681  32.046  27.945  13.403
29257W        W 1682  21.665  32.104   2.699
29258W        W 1683  34.369   5.901  13.022
29259W        W 1684  22.246  27.951   1.574
29260W        W 1685  29.490  13.152  11.533
29261W        W 1686   5.993  33.650   2.436
29262W        W 1687  20.246  12.264   3.275
29263W        W 1688  13.279  38.590  13.926
29264W        W 1689  40.806  20.224  12.556
29265W        W 1690   6.963  14.590  14.071
29266W        W 1691  12.327  32.543  14.839
29267W        W 1692  18.015  18.168  11.192
29268W        W 1693  12.498  34.923  13.120
29269W        W 1694  20.683  20.226  12.024
29270W        W 1695   9.537  32.575  12.654
29271W        W 1696  26.855  28.361  10.283
29272W        W 1697   7.541  16.101  10.779
29273W        W 1698  12.291  18.912   0.576
29274W        W 1699  42.141   8.705  14.761
29275W        W 1700  30.642   9.801   1.851
29276W        W 1701  40.894   7.779  11.959
29277W        W 1702  31.337  25.594  14.428
29278W        W 1703  24.921   6.795   3.752
29279W        W 1704  15.215   3.165  11.669
29280W        W 1705  25.671   7.925   2.617
29281W        W 1706  38.880  28.016  10.447
29282W        W 1707   9.247  19.347  10.657
29283W        W 1708  43.401   8.776  11.699
29284W        W 1709   6.382  30.333   1.827
29285W        W 1710   7.799  24.724  11.689
29286W        W 1711   0.478  17.122   0.433
29287W        W 1712  44.022  24.803  10.442
29288W        W 1713  29.706   7.697   0.266
29289W        W 1714  14.187   2.173  12.496
29290W        W 1715  34.625  20.077   2.717
29291W        W 1716   2.741  25.611   2.767
29292W        W 1717  25.900   6.206  11.110
29293W        W 1718  38.968   2.942   4.588
29294W        W 1719  19.330   8.235  14.578
29295W        W 1720  40.621  22.084  12.112
29296W        W 1721  33.475  30.036  10.897
29297W        W 1722  37.012  14.108   0.381
29298W        W 1723  12.642  34.348  14.273
29299W        W 1724   9.364  28.201  12.283
29300W        W 1725  19.298   0.339   3.738
29301W        W 1726   2.685  32.478   3.737
29302W        W 1727  10.860  20.296   2.888
29303W        W 1728  11.813  36.200  12.774
29304W        W 1729  40.516  20.264   3.171
29305W        W 1730  17.659  35.156  13.822
29306W        W 1731   1.960   9.546   0.418
29307W        W 1732  19.262  15.182   2.405
29308W        W 1733  36.305   4.081   1.718
29309W        W 1734  21.188  43.750  10.533
29310W        W 1735   3.791  16.196  13.234
29311W        W 1736  43.303  44.591  12.491
29312W        W 1737   5.640   3.203   3.573
29313W        W 1738  40.822  36.862   4.134
29314W        W 1739  27.433  10.770  11.471
29315W        W 1740  18.554  14.125  11.102
29316W        W 1741  41.119  40.067  13.306
29317W        W 1742  19.590   0.271   3.254
29318W        W 1743  14.124  37.523  13.403
29319W        W 1744   7.853  36.066   4.624
29320W        W 1745  32.490  15.060  13.234
29321W        W 1746  21.217   7.000   3.797
29322W        W 1747   4.879  32.911  10.457
29323W        W 1748  43.059  39.153   0.748
29324W        W 1749  40.578  36.266  13.032
29325W        W 1750   0.581  40.441  11.067
29326W        W 1751  30.096  31.100   1.406
29327W        W 1752  42.273  34.619   3.210
29328W        W 1753  33.146  31.407  11.953
29329W        W 1754  20.977  42.527  11.230
29330W        W 1755  29.915  15.125   0.860
29331W        W 1756  11.442  41.506   0.960
29332W        W 1757   2.804  29.610  10.459
29333W        W 1758   6.752  22.087   4.384
29334W        W 1759  43.030  10.867   2.704
29335W        W 1760  20.221  25.954  11.033
29336W        W 1761  43.541  20.226  13.278
29337W        W 1762   3.454  28.851  14.154
29338W        W 1763   9.757  31.678   4.179
29339W        W 1764  29.626  22.047  11.400
29340W        W 1765   7.921  24.050  14.399
29341W        W 1766  17.821  38.464   1.509
29342W        W 1767   2.086  34.030   3.119
29343W        W 1768   6.338  40.521   4.675
29344W        W 1769  15.306   7.968  14.315
29345W        W 1770  34.518   3.337  14.869
29346W        W 1771  11.571  42.794   4.151
29347W        W 1772  10.374   6.201  13.346
29348W        W 1773  23.886   3.949   4.201
29349W        W 1774   1.267   8.937  11.520
29350W        W 1775   5.671  27.602  10.562
29351W        W 1776  24.254  30.552   0.866
29352W        W 1777  27.001  24.460   0.320
29353W        W 1778   7.859   5.413  11.438
29354W        W 1779  30.481  14.684   2.474
29355W        W 1780  16.502  24.293   5.101
29356W        W 1781   5.915  27.457  13.041
29357W        W 1782   2.420   1.328  14.794
29358W        W 1783  16.009  38.846   4.918
29359W        W 1784  23.562  13.778   3.417
29360W        W 1785   7.089  27.627  11.620
29361W        W 1786   1.219   7.888   2.247
29362W        W 1787  41.261  39.847  14.314
29363W        W 1788   3.907  18.150  12.939
29364W        W 1789  21.116  40.519   1.121
29365W        W 1790  36.843   0.469  11.440
29366W        W 1791  26.205  36.111  10.943
29367W        W 1792  33.989  19.884  11.216
29368W        W 1793  10.612  15.297  11.155
29369W        W 1794  20.728  40.503  13.045
29370W        W 1795  31.633  15.789   3.802
29371W        W 1796  15.583  21.755   1.826
29372W        W 1797  35.855  10.740  10.382
29373W        W 1798  24.235  18.028  13.927
29374W        W 1799  19.896   9.240   5.157
29375W        W 1800   9.727   9.710   4.518
29376W        W 1801  19.616  22.954   2.830
29377W        W 1802   5.869  26.051  12.452
29378W        W 1803  38.783  37.652  11.859
29379W        W 1804  17.396  25.589   0.838
29380W        W 1805  32.925  24.984  13.763
29381W        W 1806  10.301   7.005  12.432
29382W        W 1807  18.109  17.952   2.215
29383W        W 1808  11.966   4.474  12.050
29384W        W 1809  18.452  32.004  14.501
29385W        W 1810  11.407  13.043   4.127
29386W        W 1811  22.152  43.993   4.419
29387W        W 1812  26.227   8.091  14.471
29388W        W 1813  36.467  25.983  11.388
29389W        W 1814  22.603  26.957   1.268
29390W        W 1815   7.300  19.730  14.268
29391W        W 1816   6.785   9.050   4.624
29392W        W 1817  16.010  35.775  13.709
29393W        W 1818  44.328  37.964   3.638
29394W        W 1819  10.313  41.581   0.495
29395W        W 1820  14.605  18.760   0.853
29396W        W 1821   5.580  26.994   0.437
29397W        W 1822   8.389  36.042   4.508
29398W        W 1823  39.276   0.801  10.718
29399W        W 1824  32.943  17.636   1.366
29400W        W 1825  37.428  25.688  12.942
29401W        W 1826  38.464  24.904  12.001
29402W        W 1827  25.052  32.391   3.131
29403W        W 1828   1.939  11.891   2.836
29404W        W 1829  19.727   1.279  13.295
29405W        W 1830   0.206  25.995   4.740
29406W        W 1831  26.008  43.352  12.613
29407W        W 1832  19.692   1.452   1.457
29408W        W 1833  26.858  36.809  14.840
29409W        W 1834  22.795  25.567   1.330
29410W        W 1835   6.350  33.868  10.679
29411W        W 1836  24.106  35.211   3.606
29412W        W 1837  31.515  19.519   0.507
29413W        W 1838   1.406   0.322   1.624
29414W        W 1839  10.336  33.534   3.387
29415W        W 1840  29.159  42.230   2.645
29416W        W 1841  21.915   8.779   3.168
29417W        W 1842   6.274   3.503   2.798
29418W        W 1843  39.526   1.752  14.791
29419W        W 1844  35.715   1.249   0.787
29420W        W 1845  19.120  36.472  11.463
29421W        W 1846  39.223  21.272  14.472
29422W        W 1847  27.736  30.313   9.703
29423W        W 1848   1.555   0.545   4.592
29424W        W 1849   0.342  39.058  10.398
29425W        W 1850  24.419  25.299   4.330
29426W        W 1851  28.472  27.158  14.910
29427W        W 1852  11.430   6.470  10.967
29428W        W 1853  29.188   1.857  11.996
29429W        W 1854  22.028   1.880  12.915
29430W        W 1855   1.455  23.230   1.802
29431W        W 1856   6.176   7.938   3.618
29432W        W 1857  35.123  30.712   1.876
29433W        W 1858  15.162  28.372  11.074
29434W        W 1859  23.044   8.738   3.299
29435W        W 1860  18.102  35.334   2.904
29436W        W 1861   2.051  31.201   0.933
29437W        W 1862  28.479  10.979  14.480
29438W        W 1863  25.993  34.762   1.367
29439W        W 1864  23.820  42.113   0.906
29440W        W 1865  19.213   7.461  11.211
29441W        W 1866   8.548  33.715   0.747
29442W        W 1867  12.856   3.374   3.811
29443W        W 1868  39.262   7.561  14.847
29444W        W 1869  22.431  22.039  11.321
29445W        W 1870  14.060  16.874  12.841
29446W        W 1871  20.134  26.591  13.623
29447W        W 1872  21.154  21.803  12.450
29448W        W 1873  19.978  19.535  13.988
29449W        W 1874  41.365  24.813  14.472
29450W        W 1875   4.966  39.398  14.017
29451W        W 1876  24.560   5.720  11.178
29452W        W 1877  23.816  26.972   0.912
29453W        W 1878   6.382  27.180   4.577
29454W        W 1879  21.110  28.401   1.609
29455W        W 1880  40.808  39.360   0.939
29456W        W 1881  10.385  42.814   1.949
29457W        W 1882   8.396  43.708   4.045
29458W        W 1883   2.460  11.921  11.528
29459W        W 1884  13.964  11.349  14.391
29460W        W 1885  18.833   5.858   1.397
29461W        W 1886  13.832  40.535   3.837
29462W        W 1887  34.131  25.179  11.772
29463W        W 1888  42.290   6.840  13.279
29464W        W 1889  27.661  39.925  11.891
29465W        W 1890  43.000  27.587   4.731
29466W        W 1891   0.667  42.148   1.765
29467W        W 1892  15.218  14.628  10.804
29468W        W 1893  29.097   6.766  12.166
29469W        W 1894   7.376   7.238  11.093
29470W        W 1895  36.340  19.648   0.909
29471W        W 1896  42.540  34.148  12.911
29472W        W 1897  11.092   4.368  14.514
29473W        W 1898  36.553  20.350  11.560
29474W        W 1899  26.690  22.630   4.596
29475W        W 1900   4.001  41.904   0.355
29476W        W 1901  10.289   5.623  14.458
29477W        W 1902  18.805  39.735  12.906
29478W        W 1903  12.793   4.080   0.018
29479W        W 1904   7.699   8.423   4.034
29480W        W 1905  19.251  35.947   2.394
29481W        W 1906  37.967   8.378   3.590
29482W        W 1907   9.797  24.276   3.697
29483W        W 1908  31.968  42.766  11.067
29484W        W 1909  30.914   7.399   3.001
29485W        W 1910  11.201  12.520   3.559
29486W        W 1911  38.791  16.518  11.171
29487W        W 1912  34.732  15.179   3.691
29488W        W 1913  34.605  34.852  14.363
29489W        W 1914   8.791   9.607   1.405
29490W        W 1915   7.174   6.166  11.641
29491W        W 1916   2.747  25.853   0.747
29492W        W 1917  39.875  33.546  12.977
29493W        W 1918  34.770  38.453   2.832
29494W        W 1919  41.226  33.401  11.642
29495W        W 1920  18.602  37.786   3.373
29496W        W 1921   3.496  38.336  13.171
29497W        W 1922  19.156  23.525  10.308
29498W        W 1923  22.647  31.860  14.980
29499W        W 1924  41.488  17.353  12.219
29500W        W 1925  22.213  42.683  13.944
29501W        W 1926  14.658  15.508   1.159
29502W        W 1927  30.062  23.657  12.735
29503W        W 1928   8.331  11.606  14.036
29504W        W 1929  31.879  40.385  11.983
29505W        W 1930  21.675  37.661   3.257
29506W        W 1931  44.709   6.207   2.421
29507W        W 1932  34.896  13.557   1.410
29508W        W 1933  39.993  30.553   2.452
29509W        W 1934  29.699  15.207   1.368
29510W        W 1935  33.930  39.225  14.772
29511W        W 1936  24.141   1.823   2.940
29512W        W 1937  42.522  40.950  14.984
29513W        W 1938  21.027  14.382  12.521
29514W        W 1939  24.833  22.493  10.672
29515W        W 1940  31.039  26.587   2.761
29516W        W 1941   7.137  32.066  13.968
29517W        W 1942   6.032  30.227   0.001
29518W        W 1943   5.819  13.838   0.741
29519W        W 1944  40.483   0.035   1.144
29520W        W 1945  34.913  24.226   3.814
29521W        W 1946  16.138  25.533  10.989
29522W        W 1947  23.476   1.089   2.788
29523W        W 1948  24.625  16.650  12.995
29524W        W 1949  44.039   3.331  12.362
29525W        W 1950  20.950  21.719   2.188
29526W        W 1951  33.834   7.801   3.468
29527W        W 1952  25.497  21.935  11.950
29528W        W 1953  13.628  19.100   0.441
29529W        W 1954  11.436  40.668  13.598
29530W        W 1955  27.584  14.542  11.430
29531W        W 1956  35.105   0.845  14.269
29532W        W 1957   2.850   0.743   4.885
29533W        W 1958  15.260  16.207  11.504
29534W        W 1959  32.668  30.531  11.908
29535W        W 1960   8.784  33.241  11.991
29536W        W 1961  13.828  24.068  14.785
29537W        W 1962  15.846  44.917  11.162
29538W        W 1963  36.181  17.756  12.078
29539W        W 1964  36.680   4.790  12.091
29540W        W 1965  14.691  23.959  10.553
29541W        W 1966   5.392   7.345  12.857
29542W        W 1967  12.757  35.065   0.340
29543W        W 1968  42.542  33.029   4.431
29544W        W 1969   2.275   0.986   3.646
29545W        W 1970  14.802  25.331   5.301
29546W        W 1971  31.430  44.278  11.984
29547W        W 1972  15.504  39.550  13.890
29548W        W 1973  14.498  44.236  11.603
29549W        W 1974  14.077  35.079   1.351
29550W        W 1975  19.511  43.997   2.636
29551W        W 1976  10.747  13.225   3.334
29552W        W 1977   1.117  17.248   1.671
29553W        W 1978  37.884  43.446  13.503
29554W        W 1979  16.052  10.685  12.419
29555W        W 1980  19.199   7.355   1.505
29556W        W 1981  37.756   6.192   4.666
29557W        W 1982  43.390  23.450  14.027
29558W        W 1983  37.853  11.308   2.459
29559W        W 1984  39.138   6.912   3.706
29560W        W 1985  29.925   8.111  13.410
29561W        W 1986   9.262  43.810  11.196
29562W        W 1987  13.603  35.539   4.681
29563W        W 1988  36.649   7.917  13.912
29564W        W 1989   4.375   5.380  14.658
29565W        W 1990  42.903  17.657   2.678
29566W        W 1991  11.088  26.187   3.600
29567W        W 1992   0.687  37.759  12.802
29568W        W 1993  24.431  22.302   4.745
29569W        W 1994  43.331  31.162  10.712
29570W        W 1995  33.938   7.200  12.908
29571W        W 1996  44.780   2.813  13.934
29572W        W 1997  18.180  27.557  13.616
29573W        W 1998  34.445  28.784  12.136
29574W        W 1999   3.121  27.701   2.529
29575W        W 2000   9.267  38.425  11.087
29576W        W 2001  23.208  43.852   2.462
29577W        W 2002  22.256   6.814  13.480
29578W        W 2003  28.297  23.970  13.607
29579W        W 2004  32.499  14.025   4.629
29580W        W 2005  18.660   1.468   9.628
29581W        W 2006  18.254   4.919   2.284
29582W        W 2007  19.582  29.314  10.352
29583W        W 2008  35.501  15.054  13.166
29584W        W 2009  38.870  35.309  14.237
29585W        W 2010   3.279  38.483   2.945
29586W        W 2011  18.362   8.302   2.968
29587W        W 2012   2.319   7.129  10.742
29588W        W 2013  14.745  20.234  12.192
29589W        W 2014   1.981  11.314   1.371
29590W        W 2015  16.824  42.803  11.209
29591W        W 2016  24.064  35.401   0.475
29592W        W 2017  33.047  35.338  11.148
29593W        W 2018  11.231   1.666  11.970
29594W        W 2019  20.394  17.458   4.442
29595W        W 2020  35.582  16.197   2.766
29596W        W 2021   6.173  43.748   4.293
29597W        W 2022   2.734  24.883  14.313
29598W        W 2023  36.400  28.891  10.286
29599W        W 2024  14.077   2.316   3.633
29600W        W 2025  17.778  35.896  12.018
29601W        W 2026  18.222  38.793  11.943
29602W        W 2027   9.734  43.397   3.687
29603W        W 2028  17.493   2.326  12.918
29604W        W 2029  20.093   8.781   4.260
29605W        W 2030   8.357  14.897  12.037
29606W        W 2031   9.758  12.425  13.306
29607W        W 2032  44.486  22.144  12.549
29608W        W 2033  13.243  34.729  12.552
29609W        W 2034  39.778   0.215  11.803
29610W        W 2035  18.043  35.804  13.533
29611W        W 2036   7.607  42.980   1.361
29612W        W 2037  37.434   3.482   2.372
29613W        W 2038   2.795  29.482  10.958
29614W        W 2039  37.323  39.476   4.208
29615W        W 2040  15.563   5.197  12.966
29616W        W 2041  14.137   2.846  11.982
29617W        W 2042  30.609  34.518   0.853
29618W        W 2043  16.330  31.481  11.386
29619W        W 2044  27.654  23.604   1.208
29620W        W 2045   0.521   7.848   2.830
29621W        W 2046  34.093  36.612   2.215
29622W        W 2047  37.022  36.542  12.118
29623W        W 2048  35.004   9.379  12.557
29624W        W 2049  16.365  11.269   3.150
29625W        W 2050  42.984   1.238   1.235
29626W        W 2051  18.990  41.368   1.322
29627W        W 2052  36.388   8.899   1.168
29628W        W 2053  36.038  14.737  14.054
29629W        W 2054  35.534  44.756   3.653
29630W        W 2055  37.562   4.949  11.398
29631W        W 2056  38.392  27.661   4.533
29632W        W 2057  23.044  25.765   4.348
29633W        W 2058   0.935  29.548   1.355
29634W        W 2059   7.408  10.826  12.898
29635W        W 2060  18.631   6.841   3.238
29636W        W 2061  27.813   1.864  10.014
29637W        W 2062  37.276  10.527   2.692
29638W        W 2063  37.889   6.883  13.008
29639W        W 2064   5.692   7.610  11.080
29640W        W 2065  44.520   9.587  11.673
29641W        W 2066  22.361  33.439   2.645
29642W        W 2067  26.479  27.987   5.081
29643W        W 2068  11.112  29.119  13.395
29644W        W 2069  29.172  34.345  11.458
29645W        W 2070  18.165  30.084  14.983
29646W        W 2071   6.842  13.558  11.716
29647W        W 2072  40.449  14.301  14.911
29648W        W 2073  42.951  14.733   4.862
29649W        W 2074   3.742   2.363   0.433
29650W        W 2075  18.506  34.516  14.986
29651W        W 2076  40.938  22.462   4.051
29652W        W 2077  44.773  25.575  14.382
29653W        W 2078  19.685   6.361  10.643
29654W        W 2079  20.027  42.309   1.385
29655W        W 2080   6.181  44.271   0.418
29656W        W 2081  10.830   3.356  13.518
29657W        W 2082   5.053  35.235  11.129
29658W        W 2083  10.229  30.632   5.069
29659W        W 2084   6.349  37.845  14.991
29660W        W 2085   0.863   4.426  11.336
29661W        W 2086  11.829  39.457   0.315
29662W        W 2087   0.345  18.658   4.563
29663W        W 2088  36.637  25.756   3.682
29664W        W 2089   4.962   1.979   0.718
29665W        W 2090   2.537  44.898   1.813
29666W        W 2091   9.685  26.076   3.404
29667W        W 2092  20.222  37.170  13.866
29668W        W 2093  33.605   6.332   1.315
29669W        W 2094  17.076  19.717   0.521
29670W        W 2095  35.470   6.057  10.785
29671W        W 2096  40.925  21.208  14.845
29672W        W 2097  35.537  17.338   4.695
29673W        W 2098  18.873   7.179  11.708
29674W        W 2099  12.255  20.263  13.835
29675W        W 2100   6.263  31.431  12.910
29676W        W 2101  38.357  21.037   4.267
29677W        W 2102  14.795  11.921  13.888
29678W        W 2103   7.311   8.011  11.036
29679W        W 2104   3.415  25.817  13.096
29680W        W 2105  21.775  18.523  10.513
29681W        W 2106  22.662  12.234   4.179
29682W        W 2107   5.572  37.436   9.978
29683W        W 2108  22.738  41.332   1.470
29684W        W 2109  27.025  20.205  14.249
29685W        W 2110   5.238  39.981  13.711
29686W        W 2111  21.539   5.957  13.472
29687W        W 2112   6.986  11.159   2.056
29688W        W 2113   3.001  38.049  11.957
29689W        W 2114  13.616  21.249  11.085
29690W        W 2115  27.389  28.200   3.663
29691W        W 2116  15.390  23.047  11.377
29692W        W 2117  34.441  23.236   5.080
29693W        W 2118  14.353  20.613  14.465
29694W        W 2119   3.457  16.791   1.853
29695W        W 2120  28.182  43.492   4.221
29696W        W 2121   9.904  16.533  12.479
29697W        W 2122  36.601  20.180  12.039
29698W        W 2123  41.045   5.172   4.038
29699W        W 2124  13.226  20.048  13.328
29700W        W 2125  13.196   1.715  11.542
29701W        W 2126  20.042   9.233  14.391
29702W        W 2127  26.029  14.851  11.649
29703W        W 2128   7.872  23.273  13.215
29704W        W 2129   4.801   3.452  10.538
29705W        W 2130  26.150  43.418   1.993
29706W        W 2131  29.598   9.747   0.946
29707W        W 2132  22.988  38.148   2.280
29708W        W 2133  25.170  38.022  13.429
29709W        W 2134  40.473   9.710  11.734
29710W        W 2135  17.672  43.593  10.667
29711W        W 2136  16.695  17.142   2.448
29712W        W 2137   4.279  16.285  13.490
29713W        W 2138  39.456  34.369   3.218
29714W        W 2139  33.311  16.225   1.911
29715W        W 2140  21.601  43.791   3.763
29716W        W 2141   8.246   6.023   9.755
29717W        W 2142  15.089  41.024   1.380
29718W        W 2143  10.316  34.633   4.574
29719W        W 2144   6.156  13.527   2.944
29720W        W 2145  13.974  14.117  13.112
29721W        W 2146  23.743  39.389  14.098
29722W        W 2147  19.111   5.328   4.629
29723W        W 2148  31.398  24.472   4.751
29724W        W 2149  42.834  22.482  13.363
29725W        W 2150   5.690  23.540  14.750
29726W        W 2151  34.623   0.821   4.554
29727W        W 2152  19.126   4.893  12.005
29728W        W 2153  39.944  38.779   2.796
29729W        W 2154  18.692  20.254  13.641
29730W        W 2155  32.362  25.683  11.972
29731W        W 2156   5.764  43.910   1.806
29732W        W 2157   5.686  34.010  13.979
29733W        W 2158  32.546   7.631   3.793
29734W        W 2159  13.301  41.617  10.603
29735W        W 2160  16.341  43.906  12.487
29736W        W 2161  38.892   9.923   3.250
29737W        W 2162   5.930  17.675  11.834
29738W        W 2163  24.489  30.222   2.513
29739W        W 2164  33.663   5.414  12.933
29740W        W 2165  39.633  35.587   1.879
29741W        W 2166  26.066  20.181  12.126
29742W        W 2167  17.794  23.981   4.559
29743W        W 2168  27.129   1.802   0.962
29744W        W 2169  19.641  22.020  14.954
29745W        W 2170  33.133  23.897  11.546
29746W        W 2171  42.457  32.384  12.384
29747W        W 2172  20.060  33.727   2.548
29748W        W 2173  39.790  41.421  10.252
29749W        W 2174  18.333  19.788   3.714
29750W        W 2175   8.158   3.527   3.321
29751W        W 2176  29.499   0.352   3.317
29752W        W 2177  26.648  34.385   3.209
29753W        W 2178  11.214  29.789  11.605
29754W        W 2179  22.980  12.647   3.123
29755W        W 2180  37.633  10.796  12.514
29756W        W 2181  41.908   8.209  12.815
29757W        W 2182  30.895  35.920   1.090
29758W        W 2183  32.452  22.451   2.854
29759W        W 2184   6.104   6.641  12.900
29760W        W 2185  37.880  37.478   5.116
29761W        W 2186  29.525  21.987  13.119
29762W        W 2187   3.233  35.140   3.810
29763W        W 2188   8.452  20.755  11.645
29764W        W 2189  43.822  29.028   2.322
29765W        W 2190  27.301  17.142  12.002
29766W        W 2191   5.954   0.952   3.896
29767W        W 2192  18.807  23.600  14.418
29768W        W 2193  38.250  22.275   1.732
29769W        W 2194  34.719   6.735   4.517
29770W        W 2195   4.321  30.135   0.954
29771W        W 2196   6.211   9.562  11.254
29772W        W 2197   5.819  13.339   0.912
29773W        W 2198  33.200   5.667   2.159
29774W        W 2199  34.384   0.870   0.035
29775W        W 2200  42.389  32.973  13.268
29776W        W 2201  39.914  29.825   0.975
29777W        W 2202  38.137  12.860   2.788
29778W        W 2203  12.096  14.826   1.484
29779W        W 2204  28.893  41.925   3.652
29780W        W 2205  25.253  28.612   2.603
29781W        W 2206  10.948   8.200  12.501
29782W        W 2207  12.509  31.708   2.273
29783W        W 2208  24.130  19.232   0.951
29784W        W 2209  10.818  28.587  13.248
29785W        W 2210  43.560  16.950  12.207
29786W        W 2211   4.902  38.304   1.678
29787W        W 2212  18.252  43.467  11.917
29788W        W 2213  30.405  17.742   5.104
29789W        W 2214   0.026  33.212   2.175
29790W        W 2215  35.043  41.978  14.256
29791W        W 2216   5.201  29.002  14.861
29792W        W 2217   2.578   0.027  14.679
29793W        W 2218  25.023  36.586  10.760
29794W        W 2219   1.190  42.956   0.906
29795W        W 2220  11.716  23.582   5.175
29796W        W 2221  27.132  30.907   9.844
29797W        W 2222  25.555  32.173  13.083
29798W        W 2223  15.335  29.920   0.795
29799W        W 2224  24.574  44.408  14.337
29800W        W 2225  15.224  20.115   4.269
29801W        W 2226  11.439  10.796   3.740
29802W        W 2227  20.160  42.388   0.907
29803W        W 2228  28.938  24.316  10.475
29804W        W 2229   1.687   8.854  11.185
29805W        W 2230  14.681   7.067   3.193
29806W        W 2231  16.372  43.250   2.368
29807W        W 2232  38.065  22.728  12.668
29808W        W 2233  12.295  24.852  10.422
29809W        W 2234   7.266  33.671  13.393
29810W        W 2235   8.766  12.673  12.028
29811W        W 2236  20.155  39.956  10.704
29812W        W 2237  35.626   2.847   1.684
29813W        W 2238  15.392  39.038   4.271
29814W        W 2239  20.225  33.423   3.853
29815W        W 2240  11.454  10.831  12.846
29816W        W 2241  24.045  24.940   4.199
29817W        W 2242   2.368  20.151   0.554
29818W        W 2243  15.250  16.691  13.586
29819W        W 2244   0.064  10.324   1.806
29820W        W 2245  35.658  22.172  10.701
29821W        W 2246  14.037  33.051  13.395
29822W        W 2247  20.640  36.346   1.409
29823W        W 2248  38.493   0.739   1.753
29824W        W 2249   8.845  34.656  14.008
29825W        W 2250  38.357  39.229   4.159
29826W        W 2251  29.785  41.525   1.367
29827W        W 2252  36.177  35.536   2.988
29828W        W 2253   7.880   1.722  13.522
29829W        W 2254  43.875   3.007  11.125
29830W        W 2255  40.632  31.139  12.466
29831W        W 2256  35.313  12.682  14.297
29832W        W 2257  25.414  13.192  12.038
29833W        W 2258  34.968  10.870   1.790
29834W        W 2259  37.964  37.889   3.667
29835W        W 2260   1.990  29.319   4.331
29836W        W 2261  26.179   7.043  14.375
29837W        W 2262  40.087  30.939  14.296
29838W        W 2263  36.905   5.174  11.833
29839W        W 2264  22.668  32.165  12.008
29840W        W 2265   0.801  23.616  12.092
29841W        W 2266  23.465  43.484   0.704
29842W        W 2267   6.704   8.905  14.506
29843W        W 2268  20.374  14.012   9.915
29844W        W 2269  29.158   2.951   1.364
29845W        W 2270  12.183   4.751   4.931
29846W        W 2271   8.142  36.912   4.381
29847W        W 2272   1.225  43.283   3.657
29848W        W 2273   4.193  10.924  10.574
29849W        W 2274  12.429  37.022  14.347
29850W        W 2275   0.358  37.795   3.563
29851W        W 2276   4.639  41.333  14.436
29852W        W 2277   7.088   0.277  14.817
29853W        W 2278  37.419   0.374   4.576
29854W        W 2279   0.934  28.950   3.710
29855W        W 2280  18.096   0.018   2.672
29856W        W 2281   9.828  31.898  12.942
29857W        W 2282  42.838  39.379  14.748
29858W        W 2283  12.566   8.816  14.455
29859W        W 2284  22.986  11.608   0.416
29860W        W 2285  36.396  24.646   5.061
29861W        W 2286  24.279  38.827   2.366
29862W        W 2287  25.982  15.749   3.824
29863W        W 2288  41.247  22.516  11.956
29864W        W 2289  23.443  19.114  12.789
29865W        W 2290  25.351  42.234   4.110
29866W        W 2291  24.674   8.691   2.658
29867W        W 2292  37.885  30.451  13.360
29868W        W 2293  12.684  44.646  11.741
29869W        W 2294  43.815   9.721   3.613
29870W        W 2295   6.650   6.432   2.791
29871W        W 2296  41.632  22.309   4.269
29872W        W 2297  21.853   6.737   4.751
29873W        W 2298  33.829  28.911  14.409
29874W        W 2299   0.298  24.500   0.217
29875W        W 2300  32.353  24.139  11.296
29876W        W 2301  27.672  25.089   1.035
29877W        W 2302  10.666  30.725   1.366
29878W        W 2303  34.158  23.939  13.371
29879W        W 2304  17.292  40.657   3.891
29880W        W 2305  38.759  14.244  11.375
29881W        W 2306  41.677  40.962   0.418
29882W        W 2307  37.123  30.559   2.341
29883W        W 2308  13.777  40.255  14.393
29884W        W 2309  15.928  36.307  13.735
29885W        W 2310  16.117  12.809   2.088
29886W        W 2311  12.263  33.908  12.908
29887W        W 2312  22.536  38.356   2.102
29888W        W 2313   6.390  32.935  13.307
29889W        W 2314  16.322   7.102   0.243
29890W        W 2315  10.865  36.605   1.270
29891W        W 2316  35.986  21.160   0.717
29892W        W 2317   7.643  32.023  11.026
29893W        W 2318  34.382  41.423   1.531
29894W        W 2319  24.087   7.815   4.371
29895W        W 2320   4.318   0.491  11.514
29896W        W 2321  32.054  20.426  13.872
29897W        W 2322  41.305   1.889   4.336
29898W        W 2323  40.414   6.675   3.187
29899W        W 2324   6.228  27.697   1.234
29900W        W 2325  21.642  30.014  14.526
29901W        W 2326  43.893   4.812  14.333
29902W        W 2327  37.876  10.282  11.513
29903W        W 2328  28.077  29.146  10.708
29904W        W 2329   5.280  29.563   4.887
29905W        W 2330  18.745  39.912  11.171
29906W        W 2331   0.902  39.174  13.030
29907W        W 2332  11.620  10.352  11.312
29908W        W 2333  28.697  30.448  12.140
29909W        W 2334  12.834  19.299  14.439
29910W        W 2335  36.882  34.623  14.560
29911W        W 2336   2.135   0.874  14.046
29912W        W 2337  13.830  35.926   4.413
29913W        W 2338  25.447  10.223   1.344
29914W        W 2339   2.837  17.808  10.953
29915W        W 2340   5.677  20.036   3.268
29916W        W 2341  43.070  41.031   3.501
29917W        W 2342  18.779  34.305  14.006
29918W        W 2343  28.428  29.473  13.499
29919W        W 2344  22.546  10.769  13.505
29920W        W 2345   5.923  15.709  12.840
29921W        W 2346  20.688  13.834  10.743
29922W        W 2347  17.308  35.148   1.251
29923W        W 2348  28.446  41.953  13.968
29924W        W 2349  17.556  29.132  10.583
29925W        W 2350   7.913  40.644  12.506
29926W        W 2351  20.719   5.378  14.595
29927W        W 2352   8.217  33.351   3.170
29928W        W 2353  41.467  39.836   1.243
29929W        W 2354  13.786  32.451  13.354
29930W        W 2355   5.308  18.289  11.204
29931W        W 2356  23.928  10.411  11.403
29932W        W 2357  16.603  42.054   1.442
29933W        W 2358   4.928  28.737   4.179
29934W        W 2359   8.196  37.835  14.436
29935W        W 2360  20.680  18.777   2.254
29936W        W 2361  19.170  38.350  13.427
29937W        W 2362  39.358  34.637   3.665
29938W        W 2363   9.631  11.228   3.399
29939W        W 2364  37.806  15.351  11.085
29940W        W 2365  23.170  20.129   4.586
29941W        W 2366  23.693   9.020  12.044
29942W        W 2367  43.288  39.895   2.368
29943W        W 2368  38.328  41.535   1.432
29944W        W 2369  13.308  25.620   1.290
29945W        W 2370  22.469   7.484   3.380
29946W        W 2371   9.238  32.772  10.573
29947W        W 2372  16.297  23.523  11.170
29948W        W 2373  27.996  22.384   0.369
29949W        W 2374  37.905  26.434   3.633
29950W        W 2375  21.529  41.698  11.560
29951W        W 2376  42.521   6.274  14.025
29952W        W 2377  33.418  12.467   1.878
29953W        W 2378  14.751   4.383   3.169
29954W        W 2379   7.295  32.259   0.972
29955W        W 2380   9.121  36.161   2.434
29956W        W 2381   8.317  14.676   4.615
29957W        W 2382   5.814  20.450  10.754
29958W        W 2383  25.044  26.587   0.830
29959W        W 2384  33.188  44.862  12.454
29960W        W 2385  30.515  41.067  12.855
29961W        W 2386  39.051  28.093   4.553
29962W        W 2387  18.322  36.323   1.851
29963W        W 2388  19.621  10.420   4.193
29964W        W 2389  28.599  38.087  11.032
29965W        W 2390   7.795  35.808   4.179
29966W        W 2391  41.384  35.496  12.296
29967W        W 2392  42.185  19.575  10.649
29968W        W 2393  12.626  17.810   1.311
29969W        W 2394  38.042   6.416   0.945
29970W        W 2395  29.592   4.067   2.384
29971W        W 2396   9.716  38.844  14.391
29972W        W 2397  25.686  11.658  12.125
29973W        W 2398   4.280  42.336   1.413
29974W        W 2399  28.445  12.426   1.799
29975W        W 2400  23.686  42.004  14.515
29976W        W 2401   8.716   9.677  13.807
29977W        W 2402   6.365  25.056  13.079
29978W        W 2403  44.242  40.054   2.630
29979W        W 2404   9.209  19.751   1.792
29980W        W 2405  10.299  15.573  12.979
29981W        W 2406  13.408   0.846  14.223
29982W        W 2407  23.728  17.021  13.286
29983W        W 2408  35.918   2.003  11.756
29984W        W 2409  10.697  42.909   2.359
29985W        W 2410  25.705   9.898  14.661
29986W        W 2411  17.560   1.461   2.295
29987W        W 2412  12.851   7.673   2.764
29988W        W 2413  13.370  32.965  13.991
29989W        W 2414  20.207  31.146   3.147
29990W        W 2415   1.449  23.205  11.197
29991W        W 2416   4.000  27.876   2.706
29992W        W 2417  35.859  44.619  11.458
29993W        W 2418  41.620  31.876   0.902
29994W        W 2419   7.813  27.430  13.896
29995W        W 2420   8.096  17.103   0.130
29996W        W 2421  24.081  33.825  11.078
29997W        W 2422   7.784  17.735   4.810
29998W        W 2423  23.536  13.365  14.555
29999W        W 2424  37.237  26.569  13.033
30000W        W 2425  42.007  10.773   2.241
30001W        W 2426   4.201  30.154   3.659
30002W        W 2427  35.784  23.482   2.203
30003W        W 2428  33.952   5.454  11.377
30004W        W 2429  26.489  18.303  14.427
30005W        W 2430   8.200   2.449  11.154
30006W        W 2431  22.336   3.977   4.135
30007W        W 2432   6.471   7.116  13.950
30008W        W 2433  28.711  42.344   1.721
30009W        W 2434  20.006  16.291   1.300
30010W        W 2435  38.043  23.528   5.116
30011W        W 2436   3.750  11.575   1.961
30012W        W 2437  17.709   9.668   1.435
30013W        W 2438  38.038  32.660  11.392
30014W        W 2439  30.900  13.792  12.482
30015W        W 2440  16.206  37.340   3.150
30016W        W 2441   3.023  21.111   1.494
30017W        W 2442   5.748  23.015  14.820
30018W        W 2443   8.178  29.593   4.092
30019W        W 2444   4.245  43.368  10.663
30020W        W 2445  10.399   6.441   4.192
30021W        W 2446  28.674  16.164  13.314
30022W        W 2447  12.157  26.493  12.136
30023W        W 2448  17.683  25.773   2.454
30024W        W 2449   6.976  44.537  12.431
30025W        W 2450  39.404  39.630   0.287
30026W        W 2451  40.496  21.071   0.203
30027W        W 2452  16.423  19.075  11.124
30028W        W 2453  28.539   1.714  14.396
30029W        W 2454   9.197  30.787  12.487
30030W        W 2455  20.367  10.187  11.459
30031W        W 2456  13.506   7.220   3.672
30032W        W 2457  43.541  42.595  11.054
30033W        W 2458  21.967   4.936   3.227
30034W        W 2459  26.132   0.695   0.724
30035W        W 2460  31.872   4.701   3.709
30036W        W 2461  16.319  10.661   2.046
30037W        W 2462  37.188  26.356   5.231
30038W        W 2463  18.614  11.084  12.205
30039W        W 2464   7.008  40.297  10.485
30040W        W 2465  35.350  25.689   0.802
30041W        W 2466  35.446  32.009  14.929
30042W        W 2467   9.236   4.913  14.889
30043W        W 2468  17.291  13.509   1.332
30044W        W 2469   8.743  19.493   1.883
30045W        W 2470  44.719  11.196   1.378
30046W        W 2471  14.066  29.445   0.855
30047W        W 2472  17.399  21.637   3.850
30048W        W 2473  30.430  30.156   2.604
30049W        W 2474   0.391  43.985  14.759
30050W        W 2475  44.224  14.783  11.175
30051W        W 2476  14.676   7.150  12.816
30052W        W 2477  16.495  13.145  13.340
30053W        W 2478  20.275  41.405   2.904
30054W        W 2479  18.204  25.677   4.211
30055W        W 2480   9.110  25.467  10.667
30056W        W 2481  27.683   0.017  11.960
30057W        W 2482   8.959  31.497   2.853
30058W        W 2483  14.256  40.309  12.387
30059W        W 2484   3.512  17.142  11.848
30060W        W 2485  23.739  20.723  10.906
30061W        W 2486  25.883   7.982  11.421
30062W        W 2487  20.068  32.119   5.277
30063W        W 2488  40.011   2.303   0.311
30064W        W 2489  37.896  24.982   3.761
30065W        W 2490   4.206  12.331  13.943
30066W        W 2491  13.246  30.868  12.030
30067W        W 2492   8.747  44.321  14.348
30068W        W 2493  21.830   3.404   1.992
30069W        W 2494  15.701  12.628   3.798
30070W        W 2495  42.769  34.520  10.658
30071W        W 2496  18.672   0.450  10.523
30072W        W 2497  22.546   1.461  14.019
30073W        W 2498  42.965  36.293   3.651
30074W        W 2499  15.331  35.308  14.808
30075W        W 2500  18.556  23.182   4.175
30076W        W 2501  19.764  25.563  13.869
30077W        W 2502   3.270  32.353   4.466
30078W        W 2503  23.236   3.406   1.933
30079W        W 2504   5.130  20.569   0.768
30080W        W 2505  39.520  28.541  13.173
30081W        W 2506   8.159  23.535   0.289
30082W        W 2507   5.275  35.331   3.826
30083W        W 2508  30.078   4.045   2.154
30084W        W 2509  18.236  19.269   4.866
30085W        W 2510  28.556  20.669  12.923
30086W        W 2511  22.954  21.367   0.895
30087W        W 2512  20.671  44.850   4.406
30088W        W 2513  36.251  40.348   3.193
30089W        W 2514  41.376   0.785  13.608
30090W        W 2515  14.820  13.880  11.557
30091W        W 2516  19.203   7.914   1.431
30092W        W 2517   6.647  33.437   4.611
30093W        W 2518  11.368  36.467  11.688
30094W        W 2519   8.850   5.703  10.157
30095W        W 2520  30.220  27.424   4.326
30096W        W 2521  36.872  18.807  14.809
30097W        W 2522  36.672  17.747  11.125
30098W        W 2523  20.062   0.338   4.392
30099W        W 2524  14.106  15.735   1.692
30100W        W 2525  36.474  43.879   0.817
30101W        W 2526  22.316  19.039   0.522
30102W        W 2527   2.238   0.970  13.567
30103W        W 2528  14.273  22.903   3.695
30104W        W 2529  11.781  27.086   1.836
30105W        W 2530  42.161  40.915  11.467
30106W        W 2531   5.909  12.237   4.607
30107W        W 2532  44.823   9.260   1.865
30108W        W 2533   4.486  18.697   4.775
30109W        W 2534  11.696  14.356  13.036
30110W        W 2535  42.945  42.715   0.929
30111W        W 2536  40.057  17.409   4.367
30112W        W 2537  27.867   5.666  10.191
30113W        W 2538  32.743  27.391  11.194
30114W        W 2539  25.503  40.105  12.152
30115W        W 2540  41.772   4.666   1.832
30116W        W 2541  17.547  42.540  10.648
30117W        W 2542  40.986  22.949   0.327
30118W        W 2543  23.215  18.255  11.119
30119W        W 2544  32.642  30.732  13.768
30120W        W 2545  37.988  43.554   2.797
30121W        W 2546  43.415  30.484   1.442
30122W        W 2547   8.498  41.486  11.634
30123W        W 2548  32.081  13.361  12.815
30124W        W 2549  32.108  24.077  10.484
30125W        W 2550  27.088   9.512  14.803
30126W        W 2551   0.830  17.274  14.874
30127W        W 2552  27.691  12.299   2.840
30128W        W 2553  41.077   2.405   2.794
30129W        W 2554  39.467  23.489   1.638
30130W        W 2555  29.299  29.281   4.959
30131W        W 2556   1.151  39.082   1.797
30132W        W 2557  27.307   8.184  13.016
30133W        W 2558   2.747  18.796   4.067
30134W        W 2559  40.545  38.351  14.495
30135W        W 2560  11.366  36.675   1.378
30136W        W 2561  21.308  10.785  13.010
30137W        W 2562  21.143  11.427  14.871
30138W        W 2563  40.040  13.205   0.624
30139W        W 2564  43.305  12.270   0.443
30140W        W 2565  18.733  14.638  13.126
30141W        W 2566   5.756  31.652  11.263
30142W        W 2567   9.247  35.207   5.598
30143W        W 2568  39.896   2.277  11.165
30144W        W 2569  25.134  27.431   1.884
30145W        W 2570  26.662  16.361   4.157
30146W        W 2571  10.238  33.076  10.106
30147W        W 2572  25.649  29.251  11.534
30148W        W 2573  39.100  28.450  11.248
30149W        W 2574  11.771  13.901  10.383
30150W        W 2575   7.708  18.483   0.258
30151W        W 2576   1.846  23.699  12.059
30152W        W 2577  20.943  27.143  12.157
30153W        W 2578   4.387  31.377  13.722
30154W        W 2579  37.479   3.471   0.060
30155W        W 2580  16.061  24.708  12.984
30156W        W 2581  35.459  41.217  14.274
30157W        W 2582  19.692  23.455   2.848
30158W        W 2583  36.430  19.142   0.455
30159W        W 2584   6.614  26.396  11.573
30160W        W 2585  10.140   2.256   2.767
30161W        W 2586   7.847  11.373  14.278
30162W        W 2587   1.068  12.870  14.966
30163W        W 2588   5.754  34.815  14.638
30164W        W 2589  33.360  40.707   0.859
30165W        W 2590  13.768  20.330   1.822
30166W        W 2591  42.911  41.067  11.907
30167W        W 2592  16.707   3.059   4.644
30168W        W 2593  26.935   0.258  14.015
30169W        W 2594  12.618  32.837   1.804
30170W        W 2595  12.645  24.431  13.323
30171W        W 2596  24.127  33.652   3.678
30172W        W 2597  27.324   6.269   1.157
30173W        W 2598  21.552  16.216   4.358
30174W        W 2599  34.871   0.302   0.679
30175W        W 2600   7.796  27.103  14.445
30176W        W 2601  42.234  16.141   2.261
30177W        W 2602  36.144  13.761   1.966
30178W        W 2603  16.055   6.851   2.879
30179W        W 2604  17.496   9.134  12.003
30180W        W 2605  37.081   3.402  12.156
30181W        W 2606   1.884  27.477  11.946
30182W        W 2607   0.379  22.383  12.912
30183W        W 2608   1.277   0.108  11.860
30184W        W 2609   9.117  29.247  14.422
30185W        W 2610  20.697  25.238   3.420
30186W        W 2611  39.419  11.629  10.667
30187W        W 2612   1.429  25.455   4.405
30188W        W 2613  41.447  41.145  10.515
30189W        W 2614  32.102   6.506   3.747
30190W        W 2615  41.539   0.851  14.106
30191W        W 2616  12.339  12.780   0.685
30192W        W 2617  41.957   7.819  14.310
30193W        W 2618  20.793  23.895  12.334
30194W        W 2619  27.256   6.727  11.270
30195W        W 2620  29.644   4.315   4.238
30196W        W 2621  31.082   9.626   2.345
30197W        W 2622   9.223  35.978   1.964
30198W        W 2623   6.017  21.816   3.498
30199W        W 2624  18.115  17.245   0.798
30200W        W 2625   6.347  21.561  12.957
30201W        W 2626  15.548  44.224   4.315
30202W        W 2627  29.714  40.382   0.705
30203W        W 2628  36.289  31.976   2.558
30204W        W 2629  37.701  18.401   0.786
30205W        W 2630   9.785  39.353  14.512
30206W        W 2631  42.560  33.092  10.716
30207W        W 2632  25.914  39.063  13.964
30208W        W 2633  13.388  42.028  14.379
30209W        W 2634  30.515  11.683  11.652
30210W        W 2635  37.131  13.136  12.873
30211W        W 2636  37.189  23.333   9.709
30212W        W 2637  22.984  37.472   9.807
30213W        W 2638  37.140  30.832  11.494
30214W        W 2639  10.449   4.791   3.434
30215W        W 2640  25.680  18.593   3.405
30216W        W 2641  26.209  18.634  14.707
30217W        W 2642  26.791  23.951   4.139
30218W        W 2643  17.358  44.215  11.022
30219W        W 2644  12.607  22.567   3.722
30220W        W 2645  34.251   6.243   0.893
30221W        W 2646  31.658   5.908  13.508
30222W        W 2647  34.388  28.066   4.652
30223W        W 2648  34.817   3.008   2.189
30224W        W 2649  26.230  44.019  11.392
30225W        W 2650  44.255   6.926  13.862
30226W        W 2651  16.482  31.059   4.547
30227W        W 2652  26.120  40.607  11.122
30228W        W 2653  29.163  23.004   0.425
30229W        W 2654  30.890  44.067  13.973
30230W        W 2655  18.596   5.322   2.279
30231W        W 2656  35.296  13.632  14.864
30232W        W 2657  44.296  19.623  10.278
30233W        W 2658  31.660  29.597   3.244
30234W        W 2659  22.584  21.704  11.682
30235W        W 2660  24.245  27.342  12.952
30236W        W 2661  30.129  43.258   4.140
30237W        W 2662  37.145  19.259  13.837
30238W        W 2663  33.488   8.228   2.114
30239W        W 2664  19.309  13.562  11.187
30240W        W 2665   4.943  27.057  12.039
30241W        W 2666  27.843  29.956  12.168
30242W        W 2667  36.918  22.062  12.079
30243W        W 2668  25.946   3.259  14.723
30244W        W 2669  15.258  16.916   0.793
30245W        W 2670  24.160  10.121   0.807
30246W        W 2671  17.682  19.021   3.607
30247W        W 2672   3.412  20.665  12.795
30248W        W 2673  30.107  22.819  14.917
30249W        W 2674   7.269  40.120   1.326
30250W        W 2675  17.210  30.188   4.105
30251W        W 2676  22.725  40.355  12.035
30252W        W 2677  28.916  16.052   4.358
30253W        W 2678  32.226   8.156  13.372
30254W        W 2679  16.811  17.542  12.364
30255W        W 2680   9.811  10.781   4.250
30256W        W 2681  37.879  14.675   4.073
30257W        W 2682  14.357   6.468   0.262
30258W        W 2683  32.040  22.115  10.153
30259W        W 2684   5.112   1.262  14.970
30260W        W 2685  43.881  32.126  11.538
30261W        W 2686  32.545   7.118  11.798
30262W        W 2687   4.954  41.094   0.239
30263W        W 2688  16.280  35.262   1.367
30264W        W 2689  31.624  10.467   1.231
30265W        W 2690  11.120   0.842  13.462
30266W        W 2691  22.212  17.740  14.364
30267W        W 2692   5.728  43.886   1.265
30268W        W 2693   9.305  20.573  11.063
30269W        W 2694  34.596  30.170  14.539
30270W        W 2695   8.844  28.623  13.431
30271W        W 2696  23.246  34.530  13.735
30272W        W 2697  38.810  38.595  14.626
30273W        W 2698  26.214  26.906  11.195
30274W        W 2699  23.381  15.648  11.207
30275W        W 2700  17.960   0.342  11.324
30276W        W 2701  30.677  14.800   2.936
30277W        W 2702  36.268  11.777   4.507
30278W        W 2703  26.502  38.897   0.293
30279W        W 2704  22.208  16.671   1.360
30280W        W 2705  20.688  28.443  13.406
30281W        W 2706  31.063  18.819  10.614
30282W        W 2707  29.203  36.183  13.787
30283W        W 2708   8.630  37.193   1.781
30284W        W 2709   9.157  41.026   1.943
30285W        W 2710  24.957   8.276   1.226
30286W        W 2711  11.140   8.299  11.474
30287W        W 2712  34.193  18.384   1.782
30288W        W 2713   3.817  13.548   3.190
30289W        W 2714  29.563  26.538  12.851
30290W        W 2715  11.096   1.383  11.535
30291W        W 2716  25.018  27.397  10.658
30292W        W 2717  23.563  40.049   2.098
30293W        W 2718  34.131  42.852  13.499
30294W        W 2719  39.836  11.710  14.453
30295W        W 2720  42.397   3.385   1.259
30296W        W 2721  40.395  31.128   4.530
30297W        W 2722  36.941  23.602  13.161
30298W        W 2723  32.907  10.722   4.076
30299W        W 2724   9.853   5.926  11.901
30300W        W 2725   9.278  39.365   2.231
30301W        W 2726  16.286  40.168  14.107
30302W        W 2727  20.347  17.470   3.865
30303W        W 2728  25.570  28.744   4.313
30304W        W 2729  12.717  25.128  11.678
30305W        W 2730  25.570  35.460   3.233
30306W        W 2731   1.842  22.128  11.658
30307W        W 2732  16.989  28.181  11.054
30308W        W 2733  17.666  25.230   0.375
30309W        W 2734  17.074   7.602  13.260
30310W        W 2735  18.961  30.628   3.165
30311W        W 2736  11.594  38.323   0.875
30312W        W 2737  19.174  36.937  13.982
30313W        W 2738  13.032   2.854   3.962
30314W        W 2739  38.602   2.660   1.279
30315W        W 2740   3.725  16.229   4.202
30316W        W 2741  24.527  25.557   0.239
30317W        W 2742   1.870  17.129  10.826
30318W        W 2743   8.982  30.369   0.384
30319W        W 2744  12.987  11.059  13.561
30320W        W 2745  35.133  22.813   1.029
30321W        W 2746  21.692  22.735   1.538
30322W        W 2747   8.455  29.897  14.486
30323W        W 2748  25.922  38.845   4.961
30324W        W 2749  35.766  40.344  13.046
30325W        W 2750  18.392  21.740   4.879
30326W        W 2751  24.766  30.362   4.876
30327W        W 2752  35.227  37.790   4.205
30328W        W 2753  40.913   7.836  14.891
30329W        W 2754  32.254  35.136   4.860
30330W        W 2755   6.052   1.860  13.823
30331W        W 2756  11.237  18.894   5.002
30332W        W 2757  31.552  42.584  12.338
30333W        W 2758   7.448   9.065   3.368
30334W        W 2759  10.209  21.262  13.561
30335W        W 2760  29.634  24.196  13.297
30336W        W 2761  27.030  25.130  14.569
30337W        W 2762  44.901  41.989   0.853
30338W        W 2763   9.798  44.210   0.865
30339W        W 2764  21.467  21.005   4.006
30340W        W 2765   3.958  27.137  12.926
30341W        W 2766  11.594  34.011  11.582
30342W        W 2767  11.482   0.827  10.740
30343W        W 2768   8.781  43.760   2.251
30344W        W 2769   2.995  12.129  12.191
30345W        W 2770  21.408   6.965  14.748
30346W        W 2771  21.756   7.301   2.902
30347W        W 2772  22.268  43.015  12.942
30348W        W 2773  19.173  34.141  11.072
30349W        W 2774   7.765  44.934   3.117
30350W        W 2775   5.905  30.959   2.100
30351W        W 2776   3.710  17.121  13.259
30352W        W 2777  10.272  30.095  13.227
30353W        W 2778   6.154   8.475   0.327
30354W        W 2779  15.283   9.940  11.481
30355W        W 2780   8.162   5.799   4.136
30356W        W 2781   0.545  35.414  10.654
30357W        W 2782  21.959   0.292   0.243
30358W        W 2783  39.895  30.622   3.909
30359W        W 2784  26.196   0.995  11.450
30360W        W 2785  34.182   8.228  12.991
30361W        W 2786  16.218  27.517  12.478
30362W        W 2787  29.553  33.514   4.913
30363W        W 2788  22.089   8.848  10.033
30364W        W 2789  39.952   6.190  11.118
30365W        W 2790  38.939  29.167   0.164
30366W        W 2791  10.893  42.920  11.564
30367W        W 2792  37.499  43.012  10.883
30368W        W 2793   6.393  26.327  11.004
30369W        W 2794  10.847  40.079  14.870
30370W        W 2795  44.279  39.900   0.279
30371W        W 2796  34.029  36.586   0.289
30372W        W 2797  44.334  13.315   3.729
30373W        W 2798   8.924  11.161   2.773
30374W        W 2799   8.892  32.953  11.579
30375W        W 2800   5.936  22.396   1.125
30376W        W 2801  15.576  44.753   0.784
30377W        W 2802   4.218  44.340   0.358
30378W        W 2803   5.655  11.185  13.870
30379W        W 2804   2.246  17.618  13.396
30380W        W 2805   7.817  21.467   1.362
30381W        W 2806   0.342   8.688   4.351
30382W        W 2807  28.440  43.139  10.509
30383W        W 2808   5.809  29.541   3.622
30384W        W 2809  25.710  41.900  10.676
30385W        W 2810  38.343  30.359   3.346
30386W        W 2811   7.637  30.488  10.241
30387W        W 2812  39.224  29.405   1.821
30388W        W 2813   1.788  42.937  11.803
30389W        W 2814  10.749  44.375   1.249
30390W        W 2815  32.673  14.629   2.937
30391W        W 2816  24.135  31.644   4.053
30392W        W 2817  40.225  10.274   1.306
30393W        W 2818  29.594   5.167   3.869
30394W        W 2819  28.147   5.729   1.252
30395W        W 2820  10.830  18.144  11.034
30396W        W 2821  43.351  44.864  11.526
30397W        W 2822  37.483  32.976   0.472
30398W        W 2823  28.106  30.481  10.069
30399W        W 2824  40.305  30.911   3.231
30400W        W 2825  34.135  30.528  11.118
30401W        W 2826  38.062  25.172  11.858
30402W        W 2827  44.758  22.077   4.285
30403W        W 2828   4.146  13.778  14.338
30404W        W 2829  43.041  34.734   4.091
30405W        W 2830   1.036  42.372  11.382
30406W        W 2831   2.831  20.674   4.601
30407W        W 2832  28.376  37.800   2.780
30408W        W 2833  41.799  33.357   2.222
30409W        W 2834  36.598  17.727   0.443
30410W        W 2835  39.988   8.619  12.884
30411W        W 2836  26.156  31.695   5.449
30412W        W 2837  27.244  30.712  11.145
30413W        W 2838   6.964  39.875  14.840
30414W        W 2839  19.940  41.847  13.546
30415W        W 2840  32.484  18.195   1.242
30416W        W 2841  18.796   6.027  12.896
30417W        W 2842  25.726  39.042   2.292
30418W        W 2843   1.226   5.857   0.918
30419W        W 2844  40.010  24.195   3.969
30420W        W 2845   5.388  13.150  13.181
30421W        W 2846  35.599  20.993  11.106
30422W        W 2847  33.860  36.510   4.617
30423W        W 2848  12.720  32.902  13.534
30424W        W 2849   2.957   1.837  12.148
30425W        W 2850  24.690  12.930   2.920
30426W        W 2851   7.632  41.854  14.780
30427W        W 2852  24.213  33.673   2.771
30428W        W 2853  23.104  16.084  10.963
30429W        W 2854   5.122  12.130   1.792
30430W        W 2855  19.255   8.176   3.223
30431W        W 2856  42.257  22.585   0.341
30432W        W 2857  30.644  31.810   2.718
30433W        W 2858  16.533  23.561   1.300
30434W        W 2859  21.144  28.554   3.236
30435W        W 2860  21.866   2.536  14.164
30436W        W 2861  30.859   7.170  14.444
30437W        W 2862  18.516  41.276   1.071
30438W        W 2863  27.034   2.435   2.634
30439W        W 2864  27.611  27.565   2.562
30440W        W 2865  18.096  35.662   4.177
30441W        W 2866  11.857   3.064  11.382
30442W        W 2867   1.925  32.640  11.598
30443W        W 2868  32.905  16.680  12.892
30444W        W 2869  42.594   1.116  14.943
30445W        W 2870  15.900  11.295   0.852
30446W        W 2871   0.004  18.133   0.391
30447W        W 2872   1.839  40.215   1.328
30448W        W 2873  22.649  16.692   2.376
30449W        W 2874   2.843   2.860   4.275
30450W        W 2875  34.232  22.034   2.917
30451W        W 2876  44.961   4.365  12.641
30452W        W 2877  40.389   5.693  11.606
30453W        W 2878   0.014  19.576   0.311
30454W        W 2879  10.605  40.949  14.981
30455W        W 2880   0.440  13.361  14.387
30456W        W 2881  28.429  38.512   2.159
30457W        W 2882  32.928  44.430   2.380
30458W        W 2883  31.833  18.051   4.258
30459W        W 2884  14.208   0.432  10.570
30460W        W 2885   6.248  25.374   1.337
30461W        W 2886  31.832  22.577   3.530
30462W        W 2887  39.463   1.388   3.742
30463W        W 2888  43.160  33.536   0.944
30464W        W 2889  40.928  10.662  13.132
30465W        W 2890  18.541  10.263   1.506
30466W        W 2891  13.269  41.628   4.450
30467W        W 2892  11.718  37.878  14.653
30468W        W 2893  34.001  34.214  10.617
30469W        W 2894  25.980  14.317  12.173
30470W        W 2895  43.049   3.700   3.214
30471W        W 2896   8.327   3.147  13.307
30472W        W 2897  41.906  36.831   3.730
30473W        W 2898  30.871  31.954  12.892
30474W        W 2899  40.934  29.548   3.407
30475W        W 2900  38.057  19.864   5.011
30476W        W 2901  34.305  13.093  11.072
30477W        W 2902  42.400  11.604  11.191
30478W        W 2903  28.693  42.966  10.951
30479W        W 2904  36.785   7.401   4.639
30480W        W 2905  30.734  40.119   4.431
30481W        W 2906  12.842  36.461  10.995
30482W        W 2907  16.299  29.630  14.340
30483W        W 2908  34.794  27.935   4.138
30484W        W 2909  35.567  35.785  13.397
30485W        W 2910  35.523  28.475  11.222
30486W        W 2911  18.197   4.386  11.501
30487W        W 2912   9.332  10.558   4.268
30488W        W 2913  20.089  25.573  12.426
30489W        W 2914   3.954  42.880  10.696
30490W        W 2915  40.019  20.074   1.443
30491W        W 2916  10.138  13.261  11.415
30492W        W 2917  18.257  31.970  11.735
30493W        W 2918  16.971  16.843  10.968
30494W        W 2919  28.430  35.958   2.913
30495W        W 2920  34.790  24.419   0.360
30496W        W 2921  14.576   2.180   3.760
30497W        W 2922   1.438  43.503  14.073
30498W        W 2923  36.022  36.372   1.382
30499W        W 2924  14.652  34.110  12.508
30500W        W 2925   0.319  44.295  14.349
30501W        W 2926  15.612  15.579   0.810
30502W        W 2927   8.362   7.640  10.253
30503W        W 2928  12.367  23.863  13.899
30504W        W 2929  22.649  27.534   0.532
30505W        W 2930  19.318   1.376   0.667
30506W        W 2931  23.140  12.811   1.574
30507W        W 2932   7.958  19.168  12.890
30508W        W 2933   4.835  26.680   0.825
30509W        W 2934   9.640  34.502   0.527
30510W        W 2935  28.040  17.167   5.142
30511W        W 2936  30.874  24.451  13.253
30512W        W 2937  41.825  26.126   4.180
30513W        W 2938  12.227  13.625  11.533
30514W        W 2939  15.065  13.255  14.505
30515W        W 2940  23.113  13.443  14.027
30516W        W 2941  10.794  11.133   2.710
30517W        W 2942   9.954  19.777  11.911
30518W        W 2943  38.119  44.033  14.739
30519W        W 2944  40.734  34.877  13.215
30520W        W 2945   3.426  21.591  12.326
30521W        W 2946  29.244  26.591  14.497
30522W        W 2947  31.792  36.100   4.991
30523W        W 2948  10.163  42.384   0.032
30524W        W 2949  36.320   7.404   2.820
30525W        W 2950  42.907  37.596  12.102
30526W        W 2951  44.589  25.605  13.012
30527W        W 2952  35.072  35.934   0.629
30528W        W 2953   6.890   7.708   0.335
30529W        W 2954  37.493   8.274  10.897
30530W        W 2955  26.517  20.509  12.947
30531W        W 2956  14.416   0.898  14.475
30532W        W 2957  32.417  27.960   0.931
30533W        W 2958  23.791   5.195  13.436
30534W        W 2959  31.100  22.184   0.081
30535W        W 2960   5.406   0.752  10.784
30536W        W 2961   9.843  41.735  14.359
30537W        W 2962  24.221   2.387  12.936
30538W        W 2963  38.614  24.203  13.888
30539W        W 2964   3.801  29.122  13.385
30540W        W 2965   1.496  11.694   4.142
30541W        W 2966   4.414  24.133   1.528
30542W        W 2967  40.272  28.528   4.128
30543W        W 2968  34.520  42.448  10.849
30544W        W 2969   3.969  16.138  10.348
30545W        W 2970  12.814  35.511   4.164
30546W        W 2971  36.407  31.945   3.588
30547W        W 2972  39.015  34.822  10.055
30548W        W 2973  36.363   6.015  10.513
30549W        W 2974  22.062  18.197   3.153
30550W        W 2975  20.198  30.168   3.193
30551W        W 2976  16.827  22.292   0.976
30552W        W 2977  25.993  10.419  10.107
30553W        W 2978  21.000  19.578  14.038
30554W        W 2979   5.127  25.752  10.501
30555W        W 2980  30.093  39.986   0.446
30556W        W 2981   0.974  19.569   5.000
30557W        W 2982  35.500  31.573  14.321
30558W        W 2983   1.251  16.141  14.248
30559W        W 2984   7.576   5.755  14.391
30560W        W 2985  27.643  22.167  13.846
30561W        W 2986  19.089   6.050   2.275
30562W        W 2987  28.705  15.686   1.859
30563W        W 2988  27.125  31.749   3.623
30564W        W 2989  32.736  30.479  14.234
30565W        W 2990  18.573  32.253  11.310
30566W        W 2991  36.427  26.018  14.879
30567W        W 2992  44.402  29.386   3.732
30568W        W 2993  43.910  39.994  11.579
30569W        W 2994   0.494  25.581   2.461
30570W        W 2995  15.740   3.812   3.932
30571W        W 2996   2.858  31.857  13.462
30572W        W 2997  35.826   2.757  13.384
30573W        W 2998  15.781  15.783   4.773
30574W        W 2999  24.570  13.623  10.577
30575W        W 3000  18.894  43.003   1.834
30576W        W 3001  18.863  35.131  13.300
30577W        W 3002  22.250  29.621   4.152
30578W        W 3003  20.756   0.315   3.110
30579W        W 3004   1.704  35.749   4.480
30580W        W 3005   7.949  16.057  11.599
30581W        W 3006  42.066  11.485  10.399
30582W        W 3007  33.609  30.910  13.394
30583W        W 3008  22.541  18.740   4.020
30584W        W 3009  20.280  36.380  14.392
30585W        W 3010  16.517  18.202   2.861
30586W        W 3011  30.707  11.247  13.050
30587W        W 3012  35.441   6.643  12.935
30588W        W 3013  24.664  10.548   2.836
30589W        W 3014  25.749  31.518  11.966
30590W        W 3015  37.546   7.372  14.836
30591W        W 3016  10.189  15.439  10.260
30592W        W 3017  41.489  31.678  10.553
30593W        W 3018  29.219  43.620  14.760
30594W        W 3019   0.486   8.893  12.992
30595W        W 3020  34.580   0.874  11.689
30596W        W 3021  28.603  42.947   4.613
30597W        W 3022  33.427  24.049  14.953
30598W        W 3023  19.542  30.533  11.363
30599W        W 3024  19.496  30.079  13.950
30600W        W 3025  40.985   6.686  13.997
30601W        W 3026  17.822  27.179  12.931
30602W        W 3027  17.457   8.426   2.079
30603W        W 3028  26.292  18.360  11.861
30604W        W 3029  18.512  30.852  11.977
30605W        W 3030  44.982   1.971   1.339
30606W        W 3031  38.087  12.906   4.648
30607W        W 3032  11.305   9.118  12.465
30608W        W 3033  17.194  11.576  11.591
30609W        W 3034   8.273  11.672  13.520
30610W        W 3035  28.224  21.604  11.081
30611W        W 3036  28.583  14.653  12.527
30612W        W 3037  23.764   5.410   2.683
30613W        W 3038  14.538  40.569  14.852
30614W        W 3039   8.163  11.461   2.250
30615W        W 3040   3.006   1.828  13.065
30616W        W 3041  40.729  20.319  13.050
30617W        W 3042   1.301  16.608  13.974
30618W        W 3043  23.823  11.108  10.223
30619W        W 3044  43.632  27.982   0.874
30620W        W 3045  44.479  39.112  14.868
30621W        W 3046  22.539  15.133   0.077
30622W        W 3047  22.745  34.962  14.943
30623W        W 3048   7.106  11.251  12.955
30624W        W 3049   5.281  22.197   2.418
30625W        W 3050  40.973  29.103   3.678
30626W        W 3051  33.087  11.757   4.355
30627W        W 3052   0.329   1.018   4.859
30628W        W 3053  30.916  26.909  12.876
30629W        W 3054  38.622   4.379  11.625
30630W        W 3055  15.857  13.465   0.457
30631W        W 3056  41.813   1.647  13.547
30632W        W 3057  14.189  42.776  11.408
30633W        W 3058  37.879  36.831   3.620
30634W        W 3059   5.711  26.481  11.648
30635W        W 3060   3.478  11.286  11.184
30636W        W 3061   0.544  37.925   4.538
30637W        W 3062  36.001   2.171  14.922
30638W        W 3063  18.797  11.230   1.389
30639W        W 3064  15.391   9.668  13.584
30640W        W 3065   5.425  15.587   4.210
30641W        W 3066  12.353  37.547   2.629
30642W        W 3067  12.206   9.165   3.329
30643W        W 3068  11.254  37.977   1.431
30644W        W 3069   3.402  40.466   0.937
30645W        W 3070  39.131  39.333  11.845
30646W        W 3071  26.360   7.664  11.424
30647W        W 3072   7.309  38.069  14.419
30648W        W 3073  21.676  43.315   4.660
30649W        W 3074  19.612  16.293   3.678
30650W        W 3075   0.721   0.645   4.980
30651W        W 3076  25.178  44.749  14.248
30652W        W 3077  21.301  20.591  12.509
30653W        W 3078   4.514  35.076   4.263
30654W        W 3079  16.847  33.830  13.458
30655W        W 3080   0.361  43.432   3.494
30656W        W 3081   8.187  18.754  10.469
30657W        W 3082  43.019  19.600   3.558
30658W        W 3083  36.518  44.697  12.011
30659W        W 3084   2.481  37.992   4.516
30660W        W 3085   7.520  39.493  11.160
30661W        W 3086   3.250  25.174  14.227
30662W        W 3087  25.754  32.777   2.394
30663W        W 3088   9.586   7.099   0.419
30664W        W 3089  17.243   1.439  11.713
30665W        W 3090  21.737  44.921  14.427
30666W        W 3091  11.643   6.429  12.689
30667W        W 3092  32.924  18.974   3.958
30668W        W 3093  26.228  32.054   0.871
30669W        W 3094  42.895  18.350  11.514
30670W        W 3095  20.712  32.401   2.694
30671W        W 3096   9.287   1.812  14.381
30672W        W 3097   1.009  34.890  12.548
30673W        W 3098  11.383  32.162  10.519
30674W        W 3099   0.847  29.987  12.020
30675W        W 3100  32.667  30.075   2.435
30676W        W 3101   6.784  24.210  12.470
30677W        W 3102   7.905   7.775  14.551
30678W        W 3103   1.338   1.569  11.510
30679W        W 3104  24.699  42.535  11.371
30680W        W 3105  31.622   1.222  12.970
30681W        W 3106  19.529  32.141   1.772
30682W        W 3107  23.549  13.607   4.213
30683W        W 3108   5.336  12.193  11.704
30684W        W 3109   3.793  18.621   0.824
30685W        W 3110  31.902  27.873   3.331
30686W        W 3111  25.919  16.104  14.827
30687W        W 3112  20.957  35.534   4.343
30688W        W 3113  42.090   9.217   2.245
30689W        W 3114  33.529  27.256   2.392
30690W        W 3115  37.728  20.616  14.033
30691W        W 3116   9.292  25.002   0.407
30692W        W 3117  44.456  44.109  14.390
30693W        W 3118  41.335   9.546  13.611
30694W        W 3119  41.260  20.190   4.077
30695W        W 3120   6.859  21.027   1.400
30696W        W 3121  16.649   6.369  14.901
30697W        W 3122  17.222   2.467   0.453
30698W        W 3123  29.529   7.268  10.635
30699W        W 3124  15.146  21.533  14.150
30700W        W 3125  38.548  12.376  10.571
30701W        W 3126  18.406  34.942  13.466
30702W        W 3127  22.990  37.106   2.233
30703W        W 3128  25.492   0.685  11.617
30704W        W 3129  17.196   4.598  12.402
30705W        W 3130   1.037  34.585   1.670
30706W        W 3131   7.332   9.978  12.783
30707W        W 3132  21.159   0.868  10.528
30708W        W 3133  42.587  17.638   4.294
30709W        W 3134  30.559   2.780   3.946
30710W        W 3135  17.285  29.129  11.389
30711W        W 3136  25.504   6.392   3.700
30712W        W 3137  29.094  16.861   3.347
30713W        W 3138   9.753   0.543   1.069
30714W        W 3139  24.504  13.814  13.889
30715W        W 3140  31.166  21.670  13.326
30716W        W 3141  24.619  39.430  10.533
30717W        W 3142  29.092  42.048   1.263
30718W        W 3143  24.399  41.399  12.921
30719W        W 3144  38.901  21.606   4.677
30720W        W 3145  26.401  44.536   1.804
30721W        W 3146  31.981   6.864  10.989
30722W        W 3147  43.845  28.541  10.453
30723W        W 3148  18.958  41.906  14.033
30724W        W 3149  15.690   4.334   4.899
30725W        W 3150  14.136   2.244   2.274
30726W        W 3151  26.301  32.203   5.396
30727W        W 3152  44.337   0.782  12.928
30728W        W 3153  20.839   9.255  13.024
30729W        W 3154  19.413  17.761  11.527
30730W        W 3155  17.758   8.723   1.391
30731W        W 3156  22.790  21.124   0.451
30732W        W 3157  38.562  33.114   4.155
30733W        W 3158  19.316  29.888   0.828
30734W        W 3159  39.255  41.723  14.457
30735W        W 3160  43.859  16.051   3.164
30736W        W 3161   6.791  37.414  14.879
30737W        W 3162  10.904  22.553   1.332
30738W        W 3163  15.035  37.111  13.480
30739W        W 3164  41.955   0.832   3.674
30740W        W 3165  16.252  34.331   0.044
30741W        W 3166  39.904  43.838   1.641
30742W        W 3167   1.856  37.367  11.283
30743W        W 3168  16.798   0.247  13.327
30744W        W 3169  35.859   4.035  12.828
30745W        W 3170   4.552   2.695  11.453
30746W        W 3171  41.250  44.397   4.552
30747W        W 3172   2.405  24.603   1.050
30748W        W 3173  18.547   4.516  13.013
30749W        W 3174  28.037  22.530  14.483
30750W        W 3175   8.221  21.666  14.241
30751W        W 3176  18.718  39.888   0.617
30752W        W 3177  17.314  18.500  13.884
30753W        W 3178  25.184  11.211   1.500
30754W        W 3179  27.800  28.083   5.116
30755W        W 3180   6.734  38.068  10.224
30756W        W 3181   4.130   9.105  13.871
30757W        W 3182  33.450   5.405  10.641
30758W        W 3183  16.750  15.335   2.091
30759W        W 3184   0.992   8.353   2.251
30760W        W 3185  21.842  18.255  11.000
30761W        W 3186  44.819   2.722  13.434
30762W        W 3187   8.883  30.669   0.804
30763W        W 3188  18.236  11.499   1.826
30764W        W 3189  14.459  36.789  12.053
30765W        W 3190  23.145  11.257  11.918
30766W        W 3191   3.984   4.000   0.854
30767W        W 3192  38.986   8.755   1.055
30768W        W 3193  12.429  32.191  11.529
30769W        W 3194  42.007  36.089  10.214
30770W        W 3195   9.155  31.603   1.186
30771W        W 3196  15.056  33.324  12.395
30772W        W 3197  41.932  23.532   0.152
30773W        W 3198   1.360  26.585   2.305
30774W        W 3199  41.850  29.910  11.584
30775W        W 3200  42.939  15.868  13.807
30776W        W 3201  38.933  28.088  13.814
30777W        W 3202  21.244  24.944   4.210
30778W        W 3203  25.481   0.484   0.899
30779W        W 3204  16.758  29.777  14.126
30780W        W 3205  32.380  14.740  14.015
30781W        W 3206  38.321   9.914   4.732
30782W        W 3207  33.597  18.136  12.023
30783W        W 3208   7.680   3.166   4.997
30784W        W 3209  35.655  41.122  12.402
30785W        W 3210  11.825  34.379   4.353
30786W        W 3211   3.252  40.662  11.876
30787W        W 3212   1.198  28.537  12.976
30788W        W 3213  18.625  31.607   5.031
30789W        W 3214  37.806  42.685  13.007
30790W        W 3215  15.399  19.061  12.853
30791W        W 3216  43.040   5.727   0.512
30792W        W 3217  16.854   5.348  13.960
30793W        W 3218  22.120   0.264  13.082
30794W        W 3219  28.869  42.445   2.230
30795W        W 3220  43.414  39.457  13.010
30796W        W 3221  29.535  20.978   1.052
30797W        W 3222  40.400  28.166  11.534
30798W        W 3223  42.546  24.746  12.321
30799W        W 3224  12.087  23.685  11.507
30800W        W 3225   8.673  15.860  11.090
30801W        W 3226   0.059   8.941  12.048
30802W        W 3227   7.246  12.920  13.443
30803W        W 3228  39.293  18.971  11.663
30804W        W 3229  31.709  13.285  13.184
30805W        W 3230  26.868  15.675   4.051
30806W        W 3231  41.852  21.512  13.031
30807W        W 3232   6.404  28.250  13.066
30808W        W 3233  19.779  16.041   1.695
30809W        W 3234  37.056   8.043  10.810
30810W        W 3235  43.063   4.345   0.039
30811W        W 3236  32.120   0.461   0.831
30812W        W 3237  43.374  18.146   1.865
30813W        W 3238  23.868  11.758   4.651
30814W        W 3239   7.624  32.096   4.741
30815W        W 3240  36.455   8.854   2.658
30816W        W 3241  33.093  41.397   4.729
30817W        W 3242   5.946  23.746   3.207
30818W        W 3243   7.419  33.651  10.772
30819W        W 3244  21.538   1.386  13.754
30820W        W 3245  14.825  31.084   1.184
30821W        W 3246  14.265  42.420  14.608
30822W        W 3247   8.936  41.734  12.496
30823W        W 3248  38.290  40.209  13.526
30824W        W 3249   6.482  28.911   0.590
30825W        W 3250  31.301  19.932  12.737
30826W        W 3251  37.171  30.146  12.060
30827W        W 3252  25.884   3.837  12.946
30828W        W 3253   0.257  26.026   2.678
30829W        W 3254   5.922  40.607   0.385
30830W        W 3255   3.815  21.249  10.665
30831W        W 3256  40.394  28.157   0.666
30832W        W 3257  14.366  27.818   3.278
30833W        W 3258  20.454  41.873   0.266
30834W        W 3259  14.525  25.968   1.624
30835W        W 3260   9.876  37.434  11.062
30836W        W 3261  20.958  37.975   1.871
30837W        W 3262  28.992  30.993   4.298
30838W        W 3263  37.907  15.087  10.648
30839W        W 3264  26.730  22.341   3.344
30840W        W 3265  29.490  13.378   3.394
30841W        W 3266  23.737  11.408  11.059
30842W        W 3267  26.511  25.230   4.710
30843W        W 3268  23.766  44.477   4.438
30844W        W 3269  27.040  22.530  14.277
30845W        W 3270  25.692  26.662   0.194
30846W        W 3271  32.090  37.916   4.468
30847W        W 3272  18.676  30.624   2.717
30848W        W 3273  34.354  32.523  12.865
30849W        W 3274   1.342  20.817  14.276
30850W        W 3275  39.334   4.954  12.042
30851W        W 3276  26.994  25.031   1.858
30852W        W 3277  43.346  26.452   0.916
30853W        W 3278   3.038  19.797   1.909
30854W        W 3279   4.503  36.610   0.850
30855W        W 3280  25.730  23.063  14.974
30856W        W 3281   3.726  25.219   1.499
30857W        W 3282  35.552   1.778  12.054
30858W        W 3283   9.593   2.990   3.772
30859W        W 3284   9.248  16.256   3.955
30860W        W 3285  23.684   2.976   3.688
30861W        W 3286  34.331  13.859   4.689
30862W        W 3287  40.737  20.518  11.576
30863W        W 3288  22.149  33.246   3.452
30864W        W 3289  26.157  24.254  13.952
30865W        W 3290  25.236   9.111   3.391
30866W        W 3291  35.358  42.808  12.892
30867W        W 3292   2.073  23.013   0.652
30868W        W 3293   7.932  20.181   0.946
30869W        W 3294  43.860  43.496  13.946
30870W        W 3295   1.701  21.083   3.100
30871W        W 3296   9.867   5.110   5.482
30872W        W 3297   5.958  36.540   2.300
30873W        W 3298  11.722  27.994   0.281
30874W        W 3299  23.783  18.475  11.233
30875W        W 3300  35.369   8.640   2.666
30876W        W 3301  17.185   0.720   0.858
30877W        W 3302  30.014  39.010   3.174
30878W        W 3303  19.565  26.944  11.577
30879W        W 3304  24.016  29.882  12.505
30880W        W 3305  19.611   3.892  14.797
30881W        W 3306  37.467   5.696  14.026
30882W        W 3307  27.746  35.662  14.573
30883W        W 3308  35.980  27.665  13.026
30884W        W 3309   2.331   1.515   4.406
30885W        W 3310  21.165  13.853  13.775
30886W        W 3311  38.991  19.149  13.984
30887W        W 3312  11.784  30.195   4.632
30888W        W 3313  26.004  24.387   4.623
30889W        W 3314  14.063   8.780   3.796
30890W        W 3315   9.736   5.312  13.830
30891W        W 3316  42.372  40.518  12.616
30892W        W 3317  15.787  36.870   0.729
30893W        W 3318   9.211   1.214   0.287
30894W        W 3319  20.178   1.292   3.866
30895W        W 3320  34.826   9.845  14.924
30896W        W 3321  40.571  10.112  12.038
30897W        W 3322  34.034  42.389  10.991
30898W        W 3323  25.984   8.364   1.248
30899W        W 3324  13.363  35.968  12.803
30900W        W 3325  39.839  32.522   3.199
30901W        W 3326  34.869  38.912   4.697
30902W        W 3327  33.976  10.787  13.564
30903W        W 3328  13.777   3.956  10.363
30904W        W 3329   3.510  10.077   4.463
30905W        W 3330   7.625  18.708   2.953
30906W        W 3331  22.480  39.775   2.381
30907W        W 3332  21.577  13.619  13.549
30908W        W 3333  42.917  34.670   2.760
30909W        W 3334  10.161   3.289  12.355
30910W        W 3335   6.401  40.937  12.650
30911W        W 3336  19.687  14.236   1.378
30912W        W 3337  21.065  42.601  11.991
30913W        W 3338  11.227   2.361   4.464
30914W        W 3339  38.488  20.763  11.057
30915W        W 3340   3.154   4.825   0.915
30916W        W 3341  38.104  40.266   2.836
30917W        W 3342  30.595  32.666  11.028
30918W        W 3343   7.917  35.439   2.736
30919W        W 3344  37.071  36.020  10.395
30920W        W 3345  23.133  39.558  14.853
30921W        W 3346  31.937  22.369  12.909
30922W        W 3347   4.033  23.233  14.101
30923W        W 3348   5.962  29.522  13.780
30924W        W 3349  34.574  27.453   3.459
30925W        W 3350  26.795  34.113  14.926
30926W        W 3351  28.524  13.994  11.703
30927W        W 3352  12.381   9.759   3.641
30928W        W 3353  38.923  29.630   2.177
30929W        W 3354   2.034  25.916   0.321
30930W        W 3355  18.286  19.976   0.953
30931W        W 3356  21.907   2.729  11.103
30932W        W 3357  38.617  23.488  11.999
30933W        W 3358  35.444  40.292   0.379
30934W        W 3359   2.832  42.236  14.178
30935W        W 3360  11.078  12.716   1.308
30936W        W 3361  22.064  13.679  13.744
30937W        W 3362   8.661  14.005  11.690
30938W        W 3363  30.916   1.919  13.578
30939W        W 3364  40.763  16.599   2.229
30940W        W 3365  14.828  34.896   4.688
30941W        W 3366   2.464  35.182  13.536
30942W        W 3367  31.550  26.675   2.608
30943W        W 3368   6.473   7.605  10.729
30944W        W 3369  40.481  39.351   5.029
30945W        W 3370  11.277  44.803  10.684
30946W        W 3371   4.209  32.721   4.669
30947W        W 3372   7.092  41.467   3.744
30948W        W 3373  33.937  28.800  12.671
30949W        W 3374  36.489   0.162   9.819
30950W        W 3375  28.598  30.384   3.624
30951W        W 3376  30.969  20.817  14.420
30952W        W 3377   6.191  24.611   2.355
30953W        W 3378  33.153  12.711   4.581
30954W        W 3379  22.209  20.848   4.078
30955W        W 3380  43.223  23.525   1.301
30956W        W 3381  22.523  42.474  14.916
30957W        W 3382   9.403  32.561   5.009
30958W        W 3383  37.541  31.620   1.648
30959W        W 3384   7.400  28.749   0.829
30960W        W 3385  13.609   7.863  11.618
30961W        W 3386  38.082  20.117   1.446
30962W        W 3387   8.924   8.094   5.010
30963W        W 3388   7.675  27.034  11.089
30964W        W 3389  37.594  26.557  13.936
30965W        W 3390  44.662  30.131   4.191
30966W        W 3391  12.106  18.058   3.230
30967W        W 3392  26.054  35.176  13.460
30968W        W 3393  14.780  22.702   4.617
30969W        W 3394  35.959  32.926   2.868
30970W        W 3395  22.492  31.252  13.761
30971W        W 3396  26.666  41.003  13.402
30972W        W 3397  42.807  21.295   1.328
30973W        W 3398  29.902  18.589  12.041
30974W        W 3399  25.526   4.950  12.475
30975W        W 3400  16.751  20.149  13.713
30976W        W 3401  13.297  11.565   3.797
30977W        W 3402  13.339   4.483  12.876
30978W        W 3403  19.836  18.540   1.403
30979W        W 3404  42.329  44.405   4.485
30980W        W 3405  20.969  29.015   3.054
30981W        W 3406  31.685  37.858   3.166
30982W        W 3407   4.238  28.590   2.262
30983W        W 3408  31.712  26.154   3.846
30984W        W 3409  36.802  21.729  13.023
30985W        W 3410  24.922  42.821  10.780
30986W        W 3411  29.026  10.204  10.965
30987W        W 3412   0.462  20.036  13.054
30988W        W 3413  38.398  14.721   4.190
30989W        W 3414  41.029  32.518   3.586
30990W        W 3415  23.438   0.909   3.726
30991W        W 3416  29.552  33.231  14.789
30992W        W 3417  14.787  10.103   4.522
30993W        W 3418  12.323  26.564  11.650
30994W        W 3419   9.809  21.566   1.771
30995W        W 3420  26.506  33.026   3.012
30996W        W 3421  14.316  23.598   3.148
30997W        W 3422  38.414  38.069  13.510
30998W        W 3423  10.117  24.984  10.721
30999W        W 3424  29.678  30.765   5.042
31000W        W 3425  22.311  41.043  14.917
31001W        W 3426  29.859  16.610   3.644
31002W        W 3427  40.050  31.960   1.295
31003W        W 3428  42.042  12.261   1.656
31004W        W 3429  44.049   1.264  10.777
31005W        W 3430   5.131  44.388   4.870
31006W        W 3431  18.213   6.268  13.015
31007W        W 3432   1.665  13.646   0.035
31008W        W 3433  34.141  40.992   1.367
31009W        W 3434   7.533  22.842  12.565
31010W        W 3435  22.187   8.369   9.825
31011W        W 3436  16.519   4.286  12.998
31012W        W 3437  36.030  31.618   1.152
31013W        W 3438  34.519  25.503  11.561
31014W        W 3439   8.129  31.165  14.984
31015W        W 3440  27.570  20.065   0.120
31016W        W 3441  16.491  15.897  12.955
31017W        W 3442  19.688  15.761  13.011
31018W        W 3443  24.399  23.719   2.392
31019W        W 3444  17.318  12.866  12.959
31020W        W 3445  30.398   1.916  13.494
31021W        W 3446   4.355  38.020  14.335
31022W        W 3447  14.035  12.308   4.710
31023W        W 3448  37.619  25.708   2.085
31024W        W 3449  43.011  36.224   4.505
31025W        W 3450  28.695  27.333   0.905
31026W        W 3451  30.243  44.443   2.394
31027W        W 3452  24.174  36.980   3.632
31028W        W 3453  34.439  16.314   0.442
31029W        W 3454  15.240   9.604   0.357
31030W        W 3455   2.965   6.356   2.836
31031W        W 3456  28.287  30.920  10.280
31032W        W 3457   5.715  15.175  12.110
31033W        W 3458   4.637  19.865  10.710
31034W        W 3459  28.086  42.356  12.644
31035W        W 3460  34.973  35.645   2.347
31036W        W 3461  35.217  35.930  10.781
31037W        W 3462  20.499   6.639   2.152
31038W        W 3463  37.498  18.650   2.365
31039W        W 3464   5.183  28.018  14.507
31040W        W 3465  15.890   6.807   2.082
31041W        W 3466  12.717   6.622   0.547
31042W        W 3467  31.094  40.491  11.545
31043W        W 3468  19.045   2.737  13.944
31044W        W 3469  24.170  40.199   4.162
31045W        W 3470   4.791   1.882  10.233
31046W        W 3471  32.909  41.965  12.590
31047W        W 3472  17.272   2.753  11.674
31048W        W 3473  26.472   2.266   0.959
31049W        W 3474  36.804  42.822  10.666
31050W        W 3475  38.542   8.209  14.111
31051W        W 3476  40.196  32.129   3.200
31052W        W 3477  44.942  13.132  14.448
31053W        W 3478  12.445  39.244  11.919
31054W        W 3479  30.524  29.935   0.278
31055W        W 3480  29.263   4.534  13.863
31056W        W 3481  40.379  44.062   1.467
31057W        W 3482   7.860   7.085  13.514
31058W        W 3483  26.518  12.182   0.245
31059W        W 3484   4.919  11.846  14.423
31060W        W 3485  38.361   4.226   0.762
31061W        W 3486  38.285  37.126  12.564
31062W        W 3487  12.765  23.139   5.011
31063W        W 3488  23.993  10.787   0.393
31064W        W 3489  39.934  38.049   4.361
31065W        W 3490  29.073   9.794   0.975
31066W        W 3491  19.272  20.858  13.519
31067W        W 3492   0.923   0.935   4.107
31068W        W 3493  38.856  28.596   4.583
31069W        W 3494  28.429  24.431   3.882
31070W        W 3495  13.097   8.208  14.905
31071W        W 3496  24.581  35.913   4.415
31072W        W 3497  15.153  22.958   1.303
31073W        W 3498  14.232  26.577  14.797
31074W        W 3499  40.741  14.135   0.302
31075W        W 3500  17.285   9.970  12.937
31076W        W 3501  44.281   0.858   0.051
31077W        W 3502  31.010  44.572   3.461
31078W        W 3503  17.740  30.280  10.172
31079W        W 3504  35.311   6.148  14.783
31080W        W 3505  13.618  24.402   5.580
31081W        W 3506  28.618  10.657  14.888
31082W        W 3507   6.180  38.243  13.745
31083W        W 3508  33.416  14.412   4.439
31084W        W 3509   1.284   2.424  12.139
31085W        W 3510   2.541  32.048  14.546
31086W        W 3511  34.391  22.179   4.745
31087W        W 3512  33.130  25.787   2.119
31088W        W 3513  39.460  31.606  13.648
31089W        W 3514  43.990   5.639   3.284
31090W        W 3515  24.560  27.562   2.334
31091W        W 3516  19.163   6.457  11.066
31092W        W 3517   1.027   1.987  12.314
31093W        W 3518  37.432   5.938   2.915
31094W        W 3519  41.317  11.153  13.021
31095W        W 3520  44.831  20.672  11.069
31096W        W 3521  22.359   9.451   4.093
31097W        W 3522  12.369  33.489   4.891
31098W        W 3523  36.553  33.833  14.630
31099W        W 3524  15.225   3.773   2.728
31100W        W 3525  32.533   6.603   4.054
31101W        W 3526   0.342  22.891   1.249
31102W        W 3527  15.893  43.846   4.253
31103W        W 3528  18.275  43.933   3.623
31104W        W 3529  30.859  39.111  11.999
31105W        W 3530  23.305  36.376  14.959
31106W        W 3531   8.640  43.779  14.330
31107W        W 3532   9.349  36.022   4.147
31108W        W 3533  14.703  22.146   5.707
31109W        W 3534  27.039  31.047   1.639
31110W        W 3535  26.198  21.989  11.650
31111W        W 3536  29.938   9.181  13.880
31112W        W 3537  44.410  13.864  11.606
31113W        W 3538  34.255  22.683   4.920
31114W        W 3539  31.682  15.371  10.204
31115W        W 3540  27.982  22.072  11.128
31116W        W 3541   9.071  36.345  14.582
31117W        W 3542  19.608  18.159   0.272
31118W        W 3543  16.619  20.681   1.857
31119W        W 3544  23.984   3.032   2.370
31120W        W 3545  19.626  21.956   0.492
31121W        W 3546   6.675  38.101  13.730
31122W        W 3547  30.663  22.814  14.845
31123W        W 3548  33.172   6.344  10.985
31124W        W 3549  10.410  43.645   0.449
31125W        W 3550  29.027  34.313   2.226
31126W        W 3551  43.894  12.196  12.443
31127W        W 3552  38.303   1.162  12.368
31128W        W 3553   8.640  43.810  13.400
31129W        W 3554  33.395   0.286   2.925
31130W        W 3555  23.485  34.292   0.560
31131W        W 3556   3.958  18.985  11.169
31132W        W 3557  35.124   6.247   2.347
31133W        W 3558  37.490  35.715   2.941
31134W        W 3559   7.812  29.575   2.145
31135W        W 3560  32.736   4.798  10.504
31136W        W 3561  17.583  44.720  12.925
31137W        W 3562  20.935  24.195   4.614
31138W        W 3563  31.833  25.028   2.848
31139W        W 3564  15.737   2.365  11.369
31140W        W 3565  44.895   9.856   0.829
31141W        W 3566  38.311  12.525   1.881
31142W        W 3567  14.760   2.582   0.063
31143W        W 3568   9.414   7.694   4.098
31144W        W 3569  24.652  23.633  13.789
31145W        W 3570  29.991   9.532  13.168
31146W        W 3571  33.675  16.181   3.823
31147W        W 3572  10.138  42.221  12.885
31148W        W 3573  36.640  11.756  13.061
31149W        W 3574   3.903  15.043   3.383
31150W        W 3575  21.232  20.049   1.446
31151W        W 3576  33.040   6.105  13.745
31152W        W 3577   9.697  42.047  12.128
31153W        W 3578   6.168  43.427   3.698
31154W        W 3579  13.770  41.436   4.615
31155W        W 3580  37.965  17.868  13.306
31156W        W 3581  15.151   5.399  10.740
31157W        W 3582  20.634   8.831  14.799
31158W        W 3583  43.456  27.281   2.384
31159W        W 3584  40.862  31.651  13.515
31160W        W 3585  33.970  33.837   3.850
31161W        W 3586   4.796  15.093   2.845
31162W        W 3587   3.790  18.061   0.379
31163W        W 3588   6.419   1.196   2.765
31164W        W 3589   5.890  35.550  13.858
31165W        W 3590  25.685  41.047   0.272
31166W        W 3591   9.614  12.664  13.935
31167W        W 3592  27.582  40.367  12.194
31168W        W 3593  10.830  14.148   1.432
31169W        W 3594  23.570  13.816  12.077
31170W        W 3595  23.590  29.419   2.723
31171W        W 3596  17.103   4.986  11.925
31172W        W 3597   3.241  36.931   1.344
31173W        W 3598  33.899   0.684   2.401
31174W        W 3599  34.131   4.763  13.997
31175W        W 3600  34.374  28.701  10.699
31176W        W 3601   8.219   0.058   1.443
31177W        W 3602  32.218  18.539  12.754
31178W        W 3603  13.579   9.440   4.490
31179W        W 3604  35.615  24.206   4.911
31180W        W 3605  23.195  28.247  13.898
31181W        W 3606   8.873   1.718  10.326
31182W        W 3607  26.181   4.706  13.367
31183W        W 3608  29.995   9.384   2.808
31184W        W 3609  14.055  30.975   4.636
31185W        W 3610  29.935  32.941  12.477
31186W        W 3611   7.835  19.861  11.172
31187W        W 3612  41.048  15.660  13.175
31188W        W 3613  21.268  42.346  14.341
31189W        W 3614  14.624   5.382  10.690
31190W        W 3615  26.727  19.589  13.949
31191W        W 3616   3.467  29.599   2.605
31192W        W 3617   5.404   2.118  13.113
31193W        W 3618   9.288  19.999   0.929
31194W        W 3619  44.977  14.599   0.470
31195W        W 3620  35.877   0.245   3.267
31196W        W 3621  32.479  39.972   0.075
31197W        W 3622   9.705  36.884   3.323
31198W        W 3623  18.707  32.064  10.598
31199W        W 3624   4.508   2.761  13.887
31200W        W 3625   2.334  38.438   2.739
31201W        W 3626  19.801   1.325   3.372
31202W        W 3627  34.835  33.496  11.161
31203W        W 3628  42.517  37.697   0.087
31204W        W 3629   0.237  10.772  11.434
31205W        W 3630  10.862  27.229   0.836
31206W        W 3631  44.180  39.849  12.847
31207W        W 3632  23.805  40.828  14.997
31208W        W 3633   9.296  13.797   4.382
31209W        W 3634  23.232  20.494  13.377
31210W        W 3635  26.529  37.487  10.226
31211W        W 3636  22.079  29.630  11.095
31212W        W 3637  11.600  43.867  13.155
31213W        W 3638   2.141  36.597   3.830
31214W        W 3639  36.414   7.414  13.346
31215W        W 3640  38.298  31.495   0.441
31216W        W 3641  27.209  23.286   1.322
31217W        W 3642  42.023  35.836   5.094
31218W        W 3643  33.898  38.754  14.541
31219W        W 3644  33.141  32.032  10.735
31220W        W 3645  23.674   7.480   4.369
31221W        W 3646   8.717  34.151  11.135
31222W        W 3647  24.170  42.276  10.326
31223W        W 3648  39.234  12.607   1.803
31224W        W 3649   8.838  26.361   3.793
31225W        W 3650   9.046  36.943   9.735
31226W        W 3651  39.899   7.618   1.715
31227W        W 3652  37.929  23.294   4.112
31228W        W 3653  34.124  32.264  14.813
31229W        W 3654  32.995  41.466   1.625
31230W        W 3655  25.450  43.274   2.250
31231W        W 3656  27.829  44.890   3.823
31232W        W 3657  19.556  24.237   2.397
31233W        W 3658  11.177  17.056   1.385
31234W        W 3659  24.492  37.228   5.066
31235W        W 3660  21.428  13.324   5.091
31236W        W 3661  21.712  35.717   0.419
31237W        W 3662  39.454  30.906  13.174
31238W        W 3663  32.291   1.279   2.685
31239W        W 3664  19.465  21.553   0.793
31240W        W 3665  21.676  41.022  10.805
31241W        W 3666  14.157  29.919   4.530
31242W        W 3667  37.598  39.551   1.936
31243W        W 3668  44.203  29.503  11.997
31244W        W 3669  19.351  40.974  13.828
31245W        W 3670  36.411   3.093  13.478
31246W        W 3671  22.896  34.423  12.930
31247W        W 3672  20.723  38.331  14.881
31248W        W 3673  43.853  37.108   2.701
31249W        W 3674  11.180  28.129   0.026
31250W        W 3675  43.399  23.603  10.790
31251W        W 3676  23.014  34.089   1.932
31252W        W 3677  16.089  10.587  12.925
31253W        W 3678   9.870  29.664  14.504
31254W        W 3679  18.169  44.384  11.817
31255W        W 3680  36.252  10.384  10.712
31256W        W 3681   8.837  23.337  11.128
31257W        W 3682  33.021   2.420   4.047
31258W        W 3683   6.981  14.377   4.132
31259W        W 3684  43.498  26.126  13.302
31260W        W 3685   9.263  32.041   2.145
31261W        W 3686  16.083  38.444  13.019
31262W        W 3687  25.297  21.640   4.733
31263W        W 3688  31.149   6.788  10.931
31264W        W 3689  38.610  18.098   3.659
31265W        W 3690  19.706  11.911   0.860
31266W        W 3691  19.630  43.253   3.380
31267W        W 3692   1.944  26.487   1.618
31268W        W 3693   6.823  19.684  11.210
31269W        W 3694   7.378  44.274   0.692
31270W        W 3695  10.809  27.729   2.796
31271W        W 3696   5.342   5.627  12.016
31272W        W 3697   3.289  38.383  11.472
31273W        W 3698   2.185  37.343   3.256
31274W        W 3699  16.367  13.846   2.043
31275W        W 3700  23.998  40.922   1.407
31276W        W 3701   4.220  34.746  11.618
31277W        W 3702  18.231  28.256  10.718
31278W        W 3703   4.147  11.731  14.867
31279W        W 3704   2.874  10.370  12.875
31280W        W 3705   6.173  20.683  12.811
31281W        W 3706  36.227  28.048  11.632
31282W        W 3707   4.704  34.087  13.990
31283W        W 3708   6.836   4.510  13.922
31284W        W 3709  31.883  39.031   3.659
31285W        W 3710  21.829   8.684  13.385
31286W        W 3711  36.499  40.769  11.692
31287W        W 3712  23.341  35.110  11.021
31288W        W 3713   2.068  12.857   2.011
31289W        W 3714   0.689  43.708  11.568
31290W        W 3715  14.139   1.890   0.529
31291W        W 3716   4.617  38.111   4.308
31292W        W 3717  37.649   3.254  13.884
31293W        W 3718   4.464  27.195   2.159
31294W        W 3719  24.469  23.396   3.200
31295W        W 3720  16.773   1.882   1.330
31296W        W 3721  32.592  13.107   5.016
31297W        W 3722   4.398  30.858  12.916
31298W        W 3723  26.681  22.081  10.595
31299W        W 3724   6.472  28.024  12.584
31300W        W 3725   2.898  16.331  10.728
31301W        W 3726  27.609   5.276  10.974
31302W        W 3727  38.303  14.231   1.951
31303W        W 3728  32.474  44.401  10.742
31304W        W 3729   1.976  21.146   3.557
31305W        W 3730   8.281  34.898   2.584
31306W        W 3731  34.494   3.588   0.341
31307W        W 3732  11.371   4.775   0.904
31308W        W 3733   6.441  30.776  12.162
31309W        W 3734  31.916  30.980  11.829
31310W        W 3735  43.665  34.322  14.751
31311W        W 3736  25.630  43.925  13.045
31312W        W 3737  22.867  44.924   2.695
31313W        W 3738  30.109  23.667   4.070
31314W        W 3739  34.476   6.480   3.679
31315W        W 3740  28.947   3.964   1.844
31316W        W 3741  39.585  25.162   2.362
31317W        W 3742  10.120  21.312  14.471
31318W        W 3743  42.793  42.164   2.921
31319W        W 3744  21.660  34.596   0.927
31320W        W 3745  12.828  20.383  11.553
31321W        W 3746   2.827  31.569   0.357
31322W        W 3747  35.644  18.565   2.382
31323W        W 3748  41.324   1.781   3.349
31324W        W 3749  19.530  11.915   4.214
31325W        W 3750  34.045  26.853  10.536
31326W        W 3751  42.739  16.322   4.869
31327W        W 3752  27.046  42.250   0.379
31328W        W 3753  34.957  32.908   4.557
31329W        W 3754  36.879  31.148  13.491
31330W        W 3755  39.512  41.448  10.673
31331W        W 3756  39.780  12.368  12.994
31332W        W 3757  14.151  22.307  12.617
31333W        W 3758  40.244   3.429  10.722
31334W        W 3759  17.129   7.435   2.227
31335W        W 3760   3.368  17.242   0.482
31336W        W 3761  13.436  25.067   3.273
31337W        W 3762  14.391  13.805  13.914
31338W        W 3763  16.080  39.218   2.168
31339W        W 3764  10.688  18.888  14.546
31340W        W 3765  21.188  27.593   2.821
31341W        W 3766  29.106  23.728  13.763
31342W        W 3767  35.750  37.621   0.507
31343W        W 3768   1.720  24.470  11.455
31344W        W 3769   7.902  26.526  12.319
31345W        W 3770  21.534  31.205  13.354
31346W        W 3771  35.541  29.126   4.870
31347W        W 3772  40.376  25.656  11.003
31348W        W 3773   8.790  18.324   0.511
31349W        W 3774  19.209  24.598   2.261
31350W        W 3775   4.404   0.642  14.845
31351W        W 3776  31.664  41.488  13.483
31352W        W 3777  27.976   7.486  12.011
31353W        W 3778  41.862  15.553   3.625
31354W        W 3779   2.902   8.268   2.833
31355W        W 3780  38.992  37.576  12.851
31356W        W 3781  25.747   9.394  12.943
31357W        W 3782  37.934  41.772   3.229
31358W        W 3783  31.847  38.012   1.417
31359W        W 3784   0.483  40.521  12.606
31360W        W 3785  39.519   2.012  13.030
31361W        W 3786  28.487  28.010   1.278
31362W        W 3787  35.035  11.212  11.522
31363W        W 3788   0.912   6.464   2.545
31364W        W 3789   9.753  28.896  14.886
31365W        W 3790  32.242  15.622  14.833
31366W        W 3791  33.334  31.726  13.528
31367W        W 3792  44.932  32.476  11.419
31368W        W 3793   4.131  20.237  13.303
31369W        W 3794   6.818   7.128   1.173
31370W        W 3795   6.193   2.944   4.096
31371W        W 3796  43.531  43.336   0.752
31372W        W 3797  20.125   0.583  10.733
31373W        W 3798  21.682  15.714  11.582
31374W        W 3799  42.041  24.145  12.430
31375W        W 3800   1.253  30.386  11.515
31376W        W 3801  30.894  17.834   4.952
31377W        W 3802  15.886  36.472  14.244
31378W        W 3803   1.631  10.364  12.029
31379W        W 3804  42.562  11.848   3.361
31380W        W 3805  40.743   6.235   3.232
31381W        W 3806  38.777  44.722   2.858
31382W        W 3807  42.551   9.694  11.120
31383W        W 3808  19.589   1.506  13.736
31384W        W 3809   2.923  27.626  13.386
31385W        W 3810  12.333  28.869  11.851
31386W        W 3811   6.830  32.864   1.046
31387W        W 3812  43.013  44.844  11.072
31388W        W 3813  16.348  11.294  13.623
31389W        W 3814   6.087  29.568   0.844
31390W        W 3815  37.039  21.099   2.248
31391W        W 3816   1.475  25.824   0.766
31392W        W 3817  31.830  40.966  13.583
31393W        W 3818   7.483  20.230  14.308
31394W        W 3819  44.356  42.420  14.800
31395W        W 3820   9.819   1.320  12.097
31396W        W 3821  18.251   4.063  14.252
31397W        W 3822  29.555  34.301   2.237
31398W        W 3823  39.498  26.343  14.919
31399W        W 3824  24.575  20.808   2.224
31400W        W 3825   5.392  27.492  12.154
31401W        W 3826  30.054  41.853  11.451
31402W        W 3827  30.069  31.664  10.485
31403W        W 3828  10.804  15.277   1.268
31404W        W 3829  19.766  25.029   3.748
31405W        W 3830  31.914  18.991   1.404
31406W        W 3831   4.269  23.130   1.384
31407W        W 3832  20.196  28.070   3.130
31408W        W 3833  38.468  38.835  12.935
31409W        W 3834  12.712  28.171   4.663
31410W        W 3835  35.557  29.454   1.406
31411W        W 3836  10.662  19.275   4.912
31412W        W 3837  11.153  32.957   1.158
31413W        W 3838  44.292   7.941  12.468
31414W        W 3839  23.020  38.853  12.436
31415W        W 3840   1.508  32.140   2.796
31416W        W 3841  23.428  36.905   3.146
31417W        W 3842  14.819  41.675  14.237
31418W        W 3843  35.003  21.276   0.427
31419W        W 3844  11.178   8.051   5.037
31420W        W 3845  12.901   5.024  12.008
31421W        W 3846  33.625  43.734   3.336
31422W        W 3847   9.660  16.163   2.371
31423W        W 3848   5.532   3.844  13.965
31424W        W 3849   5.440  24.971   1.764
31425W        W 3850  14.617   8.761  14.402
31426W        W 3851  31.587  34.888   3.204
31427W        W 3852  27.902  41.886   3.581
31428W        W 3853  39.813  19.331   0.440
31429W        W 3854   9.345  12.374  14.314
31430W        W 3855  42.884   2.722   0.175
31431W        W 3856  15.390  11.359   0.719
31432W        W 3857   6.362  37.752   2.746
31433W        W 3858   1.345  17.119  10.992
31434W        W 3859  18.615   6.301   3.163
31435W        W 3860   9.982   7.791  13.487
31436W        W 3861  15.126  32.920   1.414
31437W        W 3862  18.744  10.208   1.976
31438W        W 3863  39.183  19.850   2.023
31439W        W 3864  16.171  36.720   4.945
31440W        W 3865   9.695   5.928  12.884
31441W        W 3866  23.615  17.310  10.635
31442W        W 3867   4.003   3.907  10.956
31443W        W 3868  20.899  31.266  14.352
31444W        W 3869  12.082   3.756   1.403
31445W        W 3870   4.654  30.393  10.867
31446W        W 3871  36.670  28.097   3.622
31447W        W 3872  30.350  22.030  12.012
31448W        W 3873  43.225  18.283   0.927
31449W        W 3874  10.997  22.475  11.354
31450W        W 3875  30.884  34.472   4.340
31451W        W 3876  33.688   7.152  12.399
31452W        W 3877  16.577  40.367   4.473
31453W        W 3878  36.810  16.532  12.598
31454W        W 3879   4.413  39.467  13.131
31455W        W 3880  18.139  26.446   2.741
31456W        W 3881  12.514   7.858   2.023
31457W        W 3882  34.640  21.130  12.054
31458W        W 3883  15.853  28.301  13.965
31459W        W 3884   8.237  39.875   4.454
31460W        W 3885  22.141  10.737  14.993
31461W        W 3886  11.057  18.246  13.460
31462W        W 3887  18.067  41.538   0.980
31463W        W 3888  42.635  33.138   4.942
31464W        W 3889  34.937  23.089   0.171
31465W        W 3890  42.390  22.860  11.928
31466W        W 3891  24.076  21.897  12.170
31467W        W 3892  24.200  15.177  12.024
31468W        W 3893  26.600  12.554   1.011
31469W        W 3894  27.084  27.248  14.768
31470W        W 3895  13.333  18.110  10.675
31471W        W 3896  17.143  12.956   4.573
31472W        W 3897  41.804  30.927   3.328
31473W        W 3898  27.667   5.617   3.337
31474W        W 3899   1.353  16.251  11.178
31475W        W 3900  19.551  35.737   1.429
31476W        W 3901  39.426  38.061  11.985
31477W        W 3902  34.742  34.409   3.729
31478W        W 3903   0.882  22.593  14.647
31479W        W 3904  20.081  12.361  14.236
31480W        W 3905   4.602  42.996  12.126
31481W        W 3906  42.972  28.435  10.736
31482W        W 3907  23.046   9.691   0.445
31483W        W 3908  30.082  34.829  13.373
31484W        W 3909  33.672   0.189  11.173
31485W        W 3910  21.620  11.224  14.737
31486W        W 3911  31.115  31.540   0.473
31487W        W 3912  44.439  24.204   3.192
31488W        W 3913  42.873  28.634   4.487
31489W        W 3914   6.692  39.794  11.501
31490W        W 3915   4.274  21.300  11.456
31491W        W 3916  41.938  22.600   4.558
31492W        W 3917  40.723  17.563   2.950
31493W        W 3918  27.239  31.090  10.313
31494W        W 3919  20.119   6.963   1.999
31495W        W 3920  21.781  32.558   4.637
31496W        W 3921   2.351  28.511  11.440
31497W        W 3922   8.693  26.724  12.961
31498W        W 3923  31.109  19.029   2.686
31499W        W 3924  42.959  14.738   2.703
31500W        W 3925  41.788  42.091  14.471
31501W        W 3926  28.599  36.539   3.741
31502W        W 3927  30.548   9.571   3.789
31503W        W 3928   5.023  17.146  10.456
31504W        W 3929  44.442   8.110   4.528
31505W        W 3930   0.697   9.359  13.122
31506W        W 3931  37.418  33.863   2.465
31507W        W 3932  27.398  10.297  13.592
31508W        W 3933  17.214   7.366   0.920
31509W        W 3934  43.880   0.234  12.998
31510W        W 3935  18.438   3.875   2.403
31511W        W 3936  25.947  19.319  14.013
31512W        W 3937  14.232  10.874   4.769
31513W        W 3938  32.581   9.179   4.605
31514W        W 3939  26.482  12.730  10.837
31515W        W 3940  13.590  10.719   3.183
31516W        W 3941  25.176  25.299   2.369
31517W        W 3942   1.909  38.418   0.447
31518W        W 3943   6.242   0.887  14.050
31519W        W 3944  21.579  27.042   2.659
31520W        W 3945  24.870  41.567   3.678
31521W        W 3946   1.232  10.597  14.913
31522W        W 3947  20.331   7.216  12.454
31523W        W 3948   5.293   4.780  14.812
31524W        W 3949  21.196  12.795   2.710
31525W        W 3950  13.234  38.365   4.147
31526W        W 3951  15.312  37.909  11.678
31527W        W 3952  28.938  42.061   3.140
31528W        W 3953  44.533  36.012   2.889
31529W        W 3954  40.450  25.403   4.117
31530W        W 3955  43.465  12.596   4.103
31531W        W 3956  44.113  40.366   3.733
31532W        W 3957  25.776   8.216  13.277
31533W        W 3958  29.764   9.186   2.391
31534W        W 3959   4.479  19.317   0.233
31535W        W 3960  19.775  27.028   4.326
31536W        W 3961  32.234  29.593  13.116
31537W        W 3962  24.734  38.009   2.383
31538W        W 3963  11.843   2.098   0.470
31539W        W 3964  18.039   7.794   0.785
31540W        W 3965  22.549   3.467  13.454
31541W        W 3966  19.469  19.650  13.847
31542W        W 3967  14.868  28.784  13.242
31543W        W 3968  35.408  33.993   1.949
31544W        W 3969  39.337  29.043   1.457
31545W        W 3970  29.071  25.507   0.891
31546W        W 3971   3.049  11.838   2.855
31547W        W 3972  35.889  13.347   0.522
31548W        W 3973   3.161   9.807   0.815
31549W        W 3974   0.418  39.095  10.895
31550W        W 3975  43.762  33.640  12.555
31551W        W 3976  23.267  16.469  10.638
31552W        W 3977   4.348  25.354   2.723
31553W        W 3978  37.387  25.554  12.059
31554W        W 3979  12.652  37.085  11.782
31555W        W 3980  33.584  20.599  11.832
31556W        W 3981  20.303  33.103   0.847
31557W        W 3982  26.133  10.281   1.834
31558W        W 3983  44.317  37.549  13.382
31559W        W 3984  35.370  16.123   1.725
31560W        W 3985  42.252  39.820   4.283
31561W        W 3986  10.225  27.184   3.669
31562W        W 3987   6.419  25.608  14.495
31563W        W 3988  22.043  34.011   3.373
31564W        W 3989  37.107  12.620   0.006
31565W        W 3990  24.508   2.208   2.246
31566W        W 3991  30.923  15.342  13.033
31567W        W 3992  36.292   4.511   1.429
31568W        W 3993  30.633   7.955  11.580
31569W        W 3994  14.117  30.559  10.938
31570W        W 3995  33.859  21.530   0.752
31571W        W 3996  44.932  37.312   0.839
31572W        W 3997  20.600   8.381  14.524
31573W        W 3998   3.948   4.544  11.403
31574W        W 3999  14.232  41.038   1.095
31575W        W 4000   2.644   7.986   0.863
31576W        W 4001   6.066   2.380   2.233
31577W        W 4002   1.512  14.787   2.305
31578W        W 4003  24.583  42.800  10.012
31579W        W 4004  38.447   3.740   4.051
31580W        W 4005  22.983  37.358   4.094
31581W        W 4006  26.088   9.588  14.772
31582W        W 4007  27.157  22.547  13.382
31583W        W 4008  25.518  32.416   0.450
31584W        W 4009  10.770  43.423  13.786
31585W        W 4010  35.930   0.972   2.106
31586W        W 4011  20.718  21.727  10.770
31587W        W 4012  26.594  36.602   2.442
31588W        W 4013  25.665  14.421   4.941
31589W        W 4014  30.866  24.040  11.049
31590W        W 4015  15.228  33.485   0.200
31591W        W 4016  43.748  43.609   4.100
31592W        W 4017  40.104  23.638  10.693
31593W        W 4018  40.676  25.586   4.596
31594W        W 4019  22.001  14.652  11.234
31595W        W 4020  29.102  24.691   2.180
31596W        W 4021   4.296  16.307  14.396
31597W        W 4022  16.006   1.504  13.960
31598W        W 4023  20.118  37.632  14.802
31599W        W 4024  27.427  42.219   2.365
31600W        W 4025  16.324  24.613  12.539
31601W        W 4026  44.992  25.670   0.792
31602W        W 4027  34.181  34.523  11.052
31603W        W 4028  11.944  36.308  10.668
31604W        W 4029  18.459  15.792  11.602
31605W        W 4030  29.536  29.421  12.834
31606W        W 4031   7.750  38.834  13.759
31607W        W 4032  14.798  37.422  10.667
31608W        W 4033  35.555  20.242  13.475
31609W        W 4034  21.044  27.014   4.150
31610W        W 4035  26.772  30.633  13.439
31611W        W 4036  18.042  23.543  12.980
31612W        W 4037  16.493   2.446  13.076
31613W        W 4038  42.241  33.541  10.742
31614W        W 4039  36.126   8.380  11.096
31615W        W 4040  27.647   3.834   0.458
31616W        W 4041  40.754  42.933   1.007
31617W        W 4042   8.636   6.347  11.428
31618W        W 4043  17.602  32.407  10.558
31619W        W 4044  10.722  22.473   0.335
31620W        W 4045  42.878   7.417  11.203
31621W        W 4046  21.255  25.219   3.256
31622W        W 4047  43.448  37.138  11.389
31623W        W 4048   8.767  31.938   1.349
31624W        W 4049   4.449   5.249   2.713
31625W        W 4050  21.143  42.858   2.734
31626W        W 4051  34.943   6.342   0.755
31627W        W 4052  11.239  11.314   1.894
31628W        W 4053   8.203  26.013  10.583
31629W        W 4054  44.307   9.188   3.806
31630W        W 4055  25.344   1.714   0.251
31631W        W 4056   5.402  16.127   3.349
31632W        W 4057   5.803  40.878   1.977
31633W        W 4058  41.906  40.489   0.432
31634W        W 4059  12.716  27.265  12.539
31635W        W 4060  42.866  18.274  14.291
31636W        W 4061  21.867  31.949   3.163
31637W        W 4062  28.003  31.674   3.420
31638W        W 4063  21.760  21.743  12.127
31639W        W 4064  10.226   2.606  11.993
31640W        W 4065  21.961  37.422   4.149
31641W        W 4066   0.417  19.998   0.795
31642W        W 4067  18.076  22.210  13.258
31643W        W 4068  21.732  10.821   9.875
31644W        W 4069  38.830  23.753  13.631
31645W        W 4070  40.791  42.140   0.301
31646W        W 4071  43.030  40.150  13.581
31647W        W 4072  29.929  28.704   1.943
31648W        W 4073   0.407  39.470   0.717
31649W        W 4074  43.814  37.003  13.977
31650W        W 4075  29.709  42.831  11.105
31651W        W 4076  40.818   1.366  13.918
31652W        W 4077  19.145   2.670   3.442
31653W        W 4078  17.856  23.619   1.898
31654W        W 4079   8.425  18.206  11.938
31655W        W 4080  33.050  42.347  13.046
31656W        W 4081   1.476   6.304  14.787
31657W        W 4082  38.100  18.810   1.114
31658W        W 4083   6.137   7.628  11.549
31659W        W 4084  24.514   3.197   2.778
31660W        W 4085   7.395  27.081   3.636
31661W        W 4086  43.075  18.331   2.269
31662W        W 4087   8.399  18.870  12.557
31663W        W 4088  41.029  39.576   1.387
31664W        W 4089  38.958  42.990   1.683
31665W        W 4090  19.491  42.752   2.698
31666W        W 4091  42.331  11.584   3.750
31667W        W 4092  39.258  44.404   4.138
31668W        W 4093  40.052  28.776   2.790
31669W        W 4094  36.778  12.689  12.964
31670W        W 4095  12.692  33.506   1.172
31671W        W 4096  23.268  22.404  14.507
31672W        W 4097  36.903  30.698  11.065
31673W        W 4098   3.283  34.523  12.497
31674W        W 4099  15.203  28.865   2.384
31675W        W 4100  12.850  15.058  10.789
31676W        W 4101  27.974  31.968   4.594
31677W        W 4102  22.053   8.388   1.853
31678W        W 4103  42.701  34.757  12.350
31679W        W 4104  34.183   4.290   4.253
31680W        W 4105  16.163  36.312   0.169
31681W        W 4106  19.750  14.272   0.479
31682W        W 4107  27.920  25.953  11.182
31683W        W 4108  13.884   2.993  14.383
31684W        W 4109  14.615  38.940  12.320
31685W        W 4110  37.034  37.329  10.973
31686W        W 4111  34.326   2.178  14.013
31687W        W 4112  16.187  26.192   3.820
31688W        W 4113   6.138  24.021   0.897
31689W        W 4114  39.658  37.002   3.193
31690W        W 4115  40.057  29.819  14.006
31691W        W 4116  18.353  31.319   3.315
31692W        W 4117  20.985  38.909   3.788
31693W        W 4118  38.797  29.792   2.846
31694W        W 4119  29.305  18.312   4.243
31695W        W 4120  41.674   1.151  14.565
31696W        W 4121  41.906   1.292   3.388
31697W        W 4122   0.926  44.158   1.974
31698W        W 4123  41.613   0.540  12.531
31699W        W 4124   5.120  43.993   0.446
31700W        W 4125   1.324  17.056  14.761
31701W        W 4126  12.762  31.024  10.760
31702W        W 4127   5.289   5.345  13.007
31703W        W 4128  24.213  44.145  11.706
31704W        W 4129  22.656  23.219   0.907
31705W        W 4130  38.954  21.192  10.708
31706W        W 4131  12.901  40.750  13.605
31707W        W 4132  27.179  29.139  14.416
31708W        W 4133  41.399  13.303   1.933
31709W        W 4134  22.197  16.767   1.901
31710W        W 4135  17.089  31.955   3.238
31711W        W 4136  18.617   6.202   5.009
31712W        W 4137  43.371   5.911  13.426
31713W        W 4138  20.145  40.684   3.218
31714W        W 4139  37.129   3.161   1.335
31715W        W 4140  13.160  20.694   3.805
31716W        W 4141  32.498  26.609  14.752
31717W        W 4142   4.429  23.560  13.400
31718W        W 4143   1.275  35.008  12.957
31719W        W 4144  14.364  18.041  10.848
31720W        W 4145  39.485  18.815  11.160
31721W        W 4146  31.177  35.404  11.539
31722W        W 4147  44.761  13.535  11.095
31723W        W 4148  19.759  39.426   4.035
31724W        W 4149  15.607  18.755  13.489
31725W        W 4150  25.712  10.892  13.950
31726W        W 4151  23.211  30.023  11.844
31727W        W 4152  36.619  25.231  13.616
31728W        W 4153  38.020  37.020   4.656
31729W        W 4154  11.660  33.706  11.179
31730W        W 4155  35.899  20.539  13.191
31731W        W 4156  16.196   4.146  10.393
31732W        W 4157  32.595  14.342  11.103
31733W        W 4158  33.155   0.397  10.478
31734W        W 4159  36.264  29.305   1.755
31735W        W 4160  42.121  32.850  14.056
31736W        W 4161  19.700  25.218   1.614
31737W        W 4162  11.261  31.681  10.686
31738W        W 4163  14.309  37.411  11.825
31739W        W 4164  40.886  23.525   2.141
31740W        W 4165  39.080  19.456   1.670
31741W        W 4166  34.080  22.703   2.319
31742W        W 4167  12.244  41.539  14.981
31743W        W 4168   0.750  15.010   2.354
31744W        W 4169  10.101  18.798   3.049
31745W        W 4170  26.736   5.942  13.003
31746W        W 4171  44.741  31.725  10.899
31747W        W 4172   6.185  30.475  11.537
31748W        W 4173  30.106  20.353  11.785
31749W        W 4174  42.293  41.634   1.279
31750W        W 4175   2.707  28.675  11.984
31751W        W 4176  43.039  22.540   0.795
31752W        W 4177  10.198  15.809   0.766
31753W        W 4178   8.501  38.505   3.749
31754W        W 4179  39.916  35.232   3.911
31755W        W 4180   3.303  15.793   3.618
31756W        W 4181  39.937  22.185  10.738
31757W        W 4182   2.508  23.950   2.248
31758W        W 4183  33.486  25.605   0.413
31759W        W 4184  36.382  44.445  11.450
31760W        W 4185  30.228   8.010  14.384
31761W        W 4186  32.037  42.348  12.455
31762W        W 4187   6.847  31.988   1.119
31763W        W 4188   0.216  42.429  10.394
31764W        W 4189  11.687  10.185  12.319
31765W        W 4190   8.898  27.485  11.194
31766W        W 4191  19.779  38.339  14.835
31767W        W 4192  33.799  28.868   0.777
31768W        W 4193  35.041   7.441  13.934
31769W        W 4194  32.292  31.199  12.115
31770W        W 4195  30.560  19.241  13.935
31771W        W 4196  37.878  43.959   0.382
31772W        W 4197  27.025   7.452  13.415
31773W        W 4198  30.377   2.048   4.065
31774W        W 4199  33.494  43.523   2.563
31775W        W 4200  31.390  37.871  10.752
31776W        W 4201   2.522   0.380   4.725
31777W        W 4202  34.153  24.633  14.416
31778W        W 4203   8.395  35.162   5.193
31779W        W 4204  27.499  18.076   4.322
31780W        W 4205   3.834  37.505   0.057
31781W        W 4206  10.413  44.041   1.509
31782W        W 4207  11.935  35.894  11.987
31783W        W 4208  11.223   5.763   1.217
31784W        W 4209  11.679  26.058   1.613
31785W        W 4210  21.688  18.412   2.395
31786W        W 4211  38.780  19.253  14.864
31787W        W 4212  24.222  22.731   0.883
31788W        W 4213  26.076  27.230   1.170
31789W        W 4214  36.356  38.720  12.946
31790W        W 4215   4.376  42.104  14.010
31791W        W 4216  34.437  23.563   5.530
31792W        W 4217  32.435  25.753  12.869
31793W        W 4218  25.311   1.674  14.321
31794W        W 4219   4.025   0.369   2.973
31795W        W 4220  31.792  30.664  13.827
31796W        W 4221  24.166  32.228   4.752
31797W        W 4222  38.953  10.658   2.348
31798W        W 4223  43.481  44.910   3.059
31799W        W 4224  33.477  30.142  13.809
31800W        W 4225  25.906  39.780  14.863
31801W        W 4226  22.742  38.423  11.748
31802W        W 4227  43.004  24.068   3.233
31803W        W 4228   8.658   3.754  12.839
31804W        W 4229  21.660  35.021   2.487
31805W        W 4230  44.263   5.449  12.498
31806W        W 4231  31.406  38.853  12.794
31807W        W 4232  14.273  19.062  12.160
31808W        W 4233   9.644  37.883  13.501
31809W        W 4234   0.300   1.528   4.997
31810W        W 4235  27.020  12.734  14.032
31811W        W 4236  40.556  27.074  11.936
31812W        W 4237   1.042  23.986  14.468
31813W        W 4238   1.082  40.394  14.883
31814W        W 4239   9.871  37.120   4.691
31815W        W 4240   4.338   9.006   0.279
31816W        W 4241  37.572   5.048  13.123
31817W        W 4242  35.876  30.211  12.534
31818W        W 4243  18.593   3.332  14.477
31819W        W 4244  37.123  22.716   3.152
31820W        W 4245  16.636  30.841  12.998
31821W        W 4246  15.093  20.749   3.591
31822W        W 4247  30.496  29.612  14.821
31823W        W 4248  31.011  39.632  10.512
31824W        W 4249  20.688  14.207   2.464
31825W        W 4250  30.887  31.687  11.750
31826W        W 4251  32.929  23.657   0.703
31827W        W 4252   6.701   5.955   0.337
31828W        W 4253  44.261  18.430  10.779
31829W        W 4254  36.349  36.673  14.800
31830W        W 4255   9.765  38.629   1.009
31831W        W 4256  16.755  38.864  11.426
31832W        W 4257   2.832  30.840  14.664
31833W        W 4258  44.954   6.352  13.134
31834W        W 4259  44.305  20.774  11.069
31835W        W 4260  43.078  41.274  13.426
31836W        W 4261  14.362  41.976  12.675
31837W        W 4262   5.692  35.040   2.214
31838W        W 4263  20.981  22.810  12.519
31839W        W 4264  29.630   2.406  11.590
31840W        W 4265  18.227  20.554   4.209
31841W        W 4266  11.337  25.467  10.673
31842W        W 4267  21.462  44.014   0.366
31843W        W 4268  39.120  22.435  14.793
31844W        W 4269  33.208  21.129  12.846
31845W        W 4270  32.345   6.836   4.917
31846W        W 4271  44.531  11.352   4.328
31847W        W 4272  30.681  33.498  11.267
31848W        W 4273  17.728  32.068  10.937
31849W        W 4274  21.166  11.684   9.805
31850W        W 4275  29.072   3.936  12.097
31851W        W 4276   4.871   9.112  12.022
31852W        W 4277  42.695  39.979  12.947
31853W        W 4278  41.891   6.861  14.558
31854W        W 4279   9.424  43.501  14.353
31855W        W 4280   3.669   1.713   4.511
31856W        W 4281  10.369  15.404   1.503
31857W        W 4282  12.012  16.510  10.987
31858W        W 4283  24.600  15.383  12.454
31859W        W 4284  14.005   8.163  11.162
31860W        W 4285  34.949  39.446  13.949
31861W        W 4286   9.636  40.497   0.508
31862W        W 4287  25.085   5.688   3.835
31863W        W 4288  29.147   6.928  14.482
31864W        W 4289  43.784  37.567   0.334
31865W        W 4290  31.950  32.631  11.580
31866W        W 4291   7.924  10.102   4.521
31867W        W 4292   0.414   5.626   3.265
31868W        W 4293   3.641  13.173   0.912
31869W        W 4294  34.910  12.655   0.103
31870W        W 4295  19.569   8.794  11.489
31871W        W 4296  36.079  21.720  13.988
31872W        W 4297   5.852  28.936   4.315
31873W        W 4298  23.711  39.100  11.380
31874W        W 4299  20.174  10.966  11.086
31875W        W 4300   2.704   4.437   3.627
31876W        W 4301  32.879  15.054   4.127
31877W        W 4302  29.228  33.077  13.483
31878W        W 4303   0.282  23.292   2.939
31879W        W 4304  25.709  17.089  12.434
31880W        W 4305  19.642  14.127  13.586
31881W        W 4306   7.755  18.069   3.867
31882W        W 4307  11.334  13.567  11.022
31883W        W 4308  36.051  32.328  12.059
31884W        W 4309  43.276  10.238   4.315
31885W        W 4310  10.466   1.892  13.349
31886W        W 4311  32.989  27.738  12.971
31887W        W 4312  35.838  25.184   2.175
31888W        W 4313  28.444  38.102   3.740
31889W        W 4314  32.371  27.784  12.509
31890W        W 4315  15.487  13.415  12.028
31891W        W 4316  23.495   4.325  11.001
31892W        W 4317  11.777  27.468   3.149
31893W        W 4318   5.136  27.691   3.184
31894W        W 4319  35.469  12.318  14.613
31895W        W 4320   6.670   1.830   3.135
31896W        W 4321  10.706  21.445  12.655
31897W        W 4322  27.264  13.149   1.352
31898W        W 4323  44.715  32.277   3.112
31899W        W 4324   4.795  23.777   1.794
31900W        W 4325  20.243   8.486   4.654
31901W        W 4326  29.955   7.088  13.411
31902W        W 4327   9.866  28.878  12.539
31903W        W 4328  36.706   8.253   5.188
31904W        W 4329  35.593  14.961   3.527
31905W        W 4330  21.997  34.434  14.224
31906W        W 4331  29.950  34.649   0.253
31907W        W 4332  29.946  28.438   0.685
31908W        W 4333  15.012  28.551  11.558
31909W        W 4334   4.103  28.513  10.722
31910W        W 4335  30.453  34.562   0.358
31911W        W 4336   7.961  30.526  13.883
31912W        W 4337  18.244   1.332   3.316
31913W        W 4338   8.083  15.962   1.350
31914W        W 4339  26.716  41.907  13.366
31915W        W 4340  22.286  22.260   2.882
31916W        W 4341  40.416  38.900  12.174
31917W        W 4342  42.753  43.984   1.792
31918W        W 4343  32.944  36.378   2.978
31919W        W 4344  35.058   1.932  11.920
31920W        W 4345  14.328  27.683   0.496
31921W        W 4346  36.325  24.606   2.855
31922W        W 4347  40.043  27.649   3.688
31923W        W 4348   6.677   1.234   0.460
31924W        W 4349  25.946  44.871   0.370
31925W        W 4350   4.737  31.964   1.324
31926W        W 4351   0.713  12.686  11.562
31927W        W 4352  42.057  10.198  12.834
31928W        W 4353  17.362  38.260  12.454
31929W        W 4354   4.320   9.546  14.436
31930W        W 4355  38.950  11.896  14.959
31931W        W 4356  34.289  42.318   0.360
31932W        W 4357  23.073  15.004  11.639
31933W        W 4358   8.826   9.362   9.876
31934W        W 4359  38.130  14.707   1.717
31935W        W 4360  35.939  43.572   3.112
31936W        W 4361  12.354   7.667  14.770
31937W        W 4362  22.873  22.719  14.352
31938W        W 4363  14.227   2.346   0.785
31939W        W 4364  40.642  30.116  14.693
31940W        W 4365  29.130  36.540   0.367
31941W        W 4366  33.196  25.741  10.748
31942W        W 4367  43.963  44.686  10.770
31943W        W 4368  39.781  21.037   0.664
31944W        W 4369  38.088  41.532   3.677
31945W        W 4370  32.058   2.232  11.466
31946W        W 4371  37.837  16.670  14.528
31947W        W 4372  12.048  32.531  11.585
31948W        W 4373  33.037  44.749   3.594
31949W        W 4374  15.415  19.110   4.265
31950W        W 4375  23.067  19.064  14.369
31951W        W 4376  17.280  40.586   1.781
31952W        W 4377  31.696  18.177   0.857
31953W        W 4378  13.150  35.869   0.201
31954W        W 4379   1.943  35.036  10.745
31955W        W 4380  38.068  29.437   4.378
31956W        W 4381  29.015   7.079   2.591
31957W        W 4382   7.648  15.828  11.207
31958W        W 4383  20.710  26.108  10.915
31959W        W 4384  23.984   1.770  11.269
31960W        W 4385  10.896  39.401  11.959
31961W        W 4386  25.202  11.670   3.765
31962W        W 4387  20.565   6.280   1.191
31963W        W 4388  20.061   4.005  12.048
31964W        W 4389  31.399   7.604   2.892
31965W        W 4390  37.355  36.204  12.318
31966W        W 4391  16.046  15.081   1.606
31967W        W 4392  22.435  37.665  13.586
31968W        W 4393  34.514   0.816  11.191
31969W        W 4394  32.179  18.696   0.456
31970W        W 4395  22.142  31.444   4.258
31971W        W 4396  14.212  25.117  11.963
31972W        W 4397  33.994  31.866  14.505
31973W        W 4398  37.893  37.962   1.015
31974W        W 4399  40.268  22.760  11.878
31975W        W 4400   0.996  27.162   0.852
31976W        W 4401  35.748  40.372   3.282
31977W        W 4402  29.954  12.651  10.621
31978W        W 4403  34.710  18.230   3.618
31979W        W 4404  29.569  25.061  14.206
31980W        W 4405  22.174  29.190   2.755
31981W        W 4406  10.668   9.998  14.866
31982W        W 4407  32.217  22.123  12.499
31983W        W 4408   1.666   6.917  14.029
31984W        W 4409  21.003  37.938  10.917
31985W        W 4410   6.139  23.769  13.019
31986W        W 4411  15.317  14.055  11.635
31987W        W 4412  22.001  21.829   2.841
31988W        W 4413   3.517  18.703  14.860
31989W        W 4414  44.505  40.264  13.478
31990W        W 4415  26.515   0.138  10.688
31991W        W 4416  26.556  13.091  10.467
31992W        W 4417  37.257  26.016   3.198
31993W        W 4418   8.613  16.792   1.239
31994W        W 4419  41.207  41.020   3.444
31995W        W 4420  14.689   5.440  13.456
31996W        W 4421  32.436   8.147  11.959
31997W        W 4422  19.596   3.294  10.016
31998W        W 4423  15.314  25.270  12.985
31999W        W 4424   4.945  43.891   3.678
32000W        W 4425  26.038  37.881  12.862
32001W        W 4426  34.859  16.541  14.243
32002W        W 4427  39.867  20.750   0.262
32003W        W 4428   0.045  30.353  11.956
32004W        W 4429  11.702  34.884   4.542
32005W        W 4430   1.823  22.613   4.184
32006W        W 4431   6.286  40.684  14.785
32007W        W 4432  40.371  12.008   3.823
32008W        W 4433  14.229   4.790  13.237
32009W        W 4434   2.899  39.463  14.002
32010W        W 4435  38.119  38.864  10.723
32011W        W 4436  18.258  16.724   0.779
32012W        W 4437   4.099  10.540   2.150
32013W        W 4438  25.901  28.495  13.516
32014W        W 4439  28.980  17.476   1.729
32015W        W 4440  33.657  11.240   4.176
32016W        W 4441  28.173  43.851   4.588
32017W        W 4442  25.874   8.802  11.906
32018W        W 4443   0.284  34.809   2.809
32019W        W 4444  10.909  44.492  11.521
32020W        W 4445  37.309   9.097   2.667
32021W        W 4446  29.100  12.789   2.785
32022W        W 4447   1.175   9.051   3.459
32023W        W 4448  21.138  32.509  10.987
32024W        W 4449  14.216  27.664  11.960
32025W        W 4450  43.280  12.260   4.547
32026W        W 4451  27.023  20.006   1.335
32027W        W 4452  38.298  14.706  13.803
32028W        W 4453  35.076   9.792  11.050
32029W        W 4454  22.823   8.234   1.171
32030W        W 4455  30.239   2.946   3.569
32031W        W 4456  32.457  13.590  10.715
32032W        W 4457  36.784   7.446  10.858
32033W        W 4458  24.507  40.161  13.445
32034W        W 4459  35.643  40.606  12.376
32035W        W 4460   7.949  43.654  11.028
32036W        W 4461  31.068   2.939   2.643
32037W        W 4462  33.368  31.464   0.473
32038W        W 4463  23.789  21.552  12.992
32039W        W 4464  35.912  30.678  14.532
32040W        W 4465  26.451  25.461   1.332
32041W        W 4466  42.185  13.261   1.488
32042W        W 4467   5.581   8.120   2.561
32043W        W 4468  30.774  31.987   1.175
32044W        W 4469  37.900  34.885   2.696
32045W        W 4470  40.750  11.148   1.059
32046W        W 4471  16.618   1.011   3.776
32047W        W 4472  22.636   9.767  11.412
32048W        W 4473  28.895  33.561  11.971
32049W        W 4474  13.969  35.430  14.273
32050W        W 4475  26.600  40.725   3.290
32051W        W 4476  22.231   5.983   0.209
32052W        W 4477  44.503  34.358  14.474
32053W        W 4478   0.060  11.618   2.305
32054W        W 4479  27.422  16.552   1.425
32055W        W 4480  21.794  17.588   2.861
32056W        W 4481  19.307  37.040  11.153
32057W        W 4482  27.521  43.147  14.553
32058W        W 4483   5.412  27.142   2.156
32059W        W 4484  44.438  41.449   4.371
32060W        W 4485  10.061  22.073  12.658
32061W        W 4486  22.887   8.207   5.124
32062W        W 4487  28.575  31.673  10.646
32063W        W 4488   5.758  40.114  12.512
32064W        W 4489  33.438   6.562   3.756
32065W        W 4490   7.899  33.750   1.117
32066W        W 4491  18.267   9.603   0.993
32067W        W 4492  41.923   7.635  10.410
32068W        W 4493   5.661  21.750  12.445
32069W        W 4494   6.655   3.718  10.722
32070W        W 4495  34.344  19.310  12.543
32071W        W 4496  15.626  29.026  13.284
32072W        W 4497   3.284  36.625  14.476
32073W        W 4498  18.194  24.187  10.550
32074W        W 4499  42.713   4.069  14.782
32075W        W 4500  19.751  30.831   0.419
32076W        W 4501  43.859  11.667   3.819
32077W        W 4502  14.254   8.266  10.730
32078W        W 4503  19.450   2.256   0.835
32079W        W 4504  21.258  15.358   2.795
32080W        W 4505  31.819   0.742  12.875
32081W        W 4506  35.783   3.841   4.578
32082W        W 4507  24.909  37.341  13.270
32083W        W 4508  30.540   6.412   4.125
32084W        W 4509  12.185  30.887  12.468
32085W        W 4510  16.198  23.711  14.321
32086W        W 4511  39.978  28.096   4.309
32087W        W 4512   0.313  40.774   2.385
32088W        W 4513   3.249   1.449  12.398
32089W        W 4514  40.324  19.098   4.135
32090W        W 4515  27.054  41.973   3.184
32091W        W 4516  43.472  35.951   0.021
32092W        W 4517  37.257  34.871  14.874
32093W        W 4518  25.096  43.442   1.915
32094W        W 4519  15.639  39.193  14.373
32095W        W 4520  34.529  17.792   3.884
32096W        W 4521  39.758   5.689  11.969
32097W        W 4522  35.091   7.237   0.331
32098W        W 4523   8.770  34.904   3.663
32099W        W 4524  10.620  32.996   4.369
32100W        W 4525  14.229   8.679  14.774
32101W        W 4526   7.516  37.903   0.730
32102W        W 4527  44.195  39.357  13.463
32103W        W 4528  19.021   5.661  11.550
32104W        W 4529  33.731  20.286  13.025
32105W        W 4530   7.732  40.304   3.666
32106W        W 4531  13.260   5.841   3.869
32107W        W 4532  16.319  38.340   1.237
32108W        W 4533  33.542  29.719   0.184
32109W        W 4534   2.769  23.811  11.091
32110W        W 4535  24.607  10.183   1.080
32111W        W 4536  15.547   7.901  11.422
32112W        W 4537  35.093  12.245   1.466
32113W        W 4538   8.366  12.351   0.267
32114W        W 4539  19.112  39.389   2.172
32115W        W 4540  23.476  16.184   4.590
32116W        W 4541  39.456   0.539  13.147
32117W        W 4542   6.646  30.946   3.230
32118W        W 4543   8.413  40.899   0.825
32119W        W 4544  15.149  24.135   2.669
32120W        W 4545  26.551  31.053   5.417
32121W        W 4546   7.701  42.964   0.448
32122W        W 4547  41.481  37.271   2.871
32123W        W 4548  18.081  38.936   1.502
32124W        W 4549  17.346  30.055   0.727
32125W        W 4550  40.014  39.878   4.532
32126W        W 4551  41.492  43.935   4.709
32127W        W 4552   7.747  33.931   0.052
32128W        W 4553  33.428  37.320   0.644
32129W        W 4554   9.414  42.033  14.250
32130W        W 4555  10.800  22.275   3.716
32131W        W 4556  23.667   6.331  10.771
32132W        W 4557  39.075  32.061  10.693
32133W        W 4558  28.566  10.892   0.371
32134W        W 4559  31.070  39.335   1.542
32135W        W 4560   5.270  38.562  13.102
32136W        W 4561  36.707   6.849   4.066
32137W        W 4562  33.843  15.825   4.210
32138W        W 4563  39.058  15.604   2.680
32139W        W 4564  13.113   7.799   0.276
32140W        W 4565  12.602  31.866   2.766
32141W        W 4566  31.931  18.684   1.821
32142W        W 4567  43.491   3.759   2.943
32143W        W 4568  20.247  36.438  13.428
32144W        W 4569  43.716   7.206  14.464
32145W        W 4570  33.016  36.466  11.615
32146W        W 4571  30.139  32.176  14.396
32147W        W 4572  20.047  41.701   3.281
32148W        W 4573  42.260   1.019  12.850
32149W        W 4574  26.126  13.139  14.031
32150W        W 4575   6.776  21.699  14.089
32151W        W 4576   9.267  35.996  12.946
32152W        W 4577  20.303  33.935  11.950
32153W        W 4578  27.167  14.599  12.394
32154W        W 4579  43.822  18.055   1.483
32155W        W 4580  29.250   9.202  13.300
32156W        W 4581   0.188   0.052   2.263
32157W        W 4582  21.462  32.616   3.646
32158W        W 4583  39.953  11.611   2.338
32159W        W 4584   5.541  18.026  12.471
32160W        W 4585  25.213  34.495   4.407
32161W        W 4586  24.148  30.255   4.060
32162W        W 4587  20.000  39.836  13.054
32163W        W 4588  25.558   3.279   4.953
32164W        W 4589  36.515   9.948  14.935
32165W        W 4590   6.841  37.927  14.212
32166W        W 4591   4.849  44.781  13.564
32167W        W 4592  24.038  32.971  11.569
32168W        W 4593   3.978  16.568  14.935
32169W        W 4594   5.287  35.969   0.337
32170W        W 4595  29.369  21.022  11.549
32171W        W 4596  23.421   1.796  10.648
32172W        W 4597  34.410  22.481  11.330
32173W        W 4598  41.370  32.393   0.330
32174W        W 4599  19.063   0.497   2.769
32175W        W 4600   7.198  24.417   1.497
32176W        W 4601  26.498  28.382  12.024
32177W        W 4602   8.591   6.238   1.760
32178W        W 4603  37.016  33.152   0.286
32179W        W 4604  28.886  40.508   4.879
32180W        W 4605  11.248  29.808  12.953
32181W        W 4606  32.569  35.516   2.611
32182W        W 4607  14.268  44.267  12.076
32183W        W 4608  25.210  10.842  13.987
32184W        W 4609  31.639  11.214   0.702
32185W        W 4610  25.544  18.915   0.851
32186W        W 4611  13.695  15.228  14.840
32187W        W 4612  11.431  38.951  14.981
32188W        W 4613  42.276  19.725  12.189
32189W        W 4614  17.958  31.885   9.962
32190W        W 4615  15.719  28.691  12.075
32191W        W 4616  39.453  42.143  12.529
32192W        W 4617  40.798  27.143   2.339
32193W        W 4618  15.833  28.449   4.787
32194W        W 4619   3.168  40.078   1.437
32195W        W 4620  44.758  37.788   0.263
32196W        W 4621  36.308  20.485   3.251
32197W        W 4622  27.235  40.379  13.958
32198W        W 4623  43.604  28.276  12.169
32199W        W 4624  43.077  12.691  14.204
32200W        W 4625  30.748  12.197  14.066
32201W        W 4626  19.713  44.068   0.744
32202W        W 4627  23.502  30.098   2.487
32203W        W 4628  38.549  27.691  13.854
32204W        W 4629   6.031  25.178   0.901
32205W        W 4630  29.948  36.554   4.089
32206W        W 4631  15.599   9.175  11.480
32207W        W 4632  12.306   7.851  14.275
32208W        W 4633   0.444  19.296   1.379
32209W        W 4634  20.461  26.363   5.226
32210W        W 4635  35.980  29.046   0.697
32211W        W 4636  13.406  30.358  14.824
32212W        W 4637  44.406  26.800   4.122
32213W        W 4638  29.864  28.955  14.982
32214W        W 4639  30.931  37.009   3.685
32215W        W 4640  17.597  38.992  13.592
32216W        W 4641  40.067   6.188  14.926
32217W        W 4642  20.218  41.902   1.089
32218W        W 4643  42.289  27.414   3.710
32219W        W 4644  26.437   6.805  11.627
32220W        W 4645  11.717  13.291  12.389
32221W        W 4646  24.717  11.434   5.536
32222W        W 4647  29.397  28.758   1.920
32223W        W 4648  12.738  25.762   4.669
32224W        W 4649  11.423   1.978   1.729
32225W        W 4650  22.724   9.266   0.553
32226W        W 4651  26.416   4.208  12.504
32227W        W 4652  25.203  16.163  11.630
32228W        W 4653   7.412  24.735  12.986
32229W        W 4654  24.727  40.407   2.223
32230W        W 4655  36.910   3.225   3.598
32231W        W 4656  15.748  12.847  11.264
32232W        W 4657  24.404  25.123   3.856
32233W        W 4658  15.726  12.873   2.792
32234W        W 4659  24.529  22.241   2.039
32235W        W 4660   1.185  15.253   1.447
32236W        W 4661  10.289  42.538   3.644
32237W        W 4662  27.990   6.434  12.861
32238W        W 4663  22.378  14.476  12.224
32239W        W 4664  43.230  41.786   2.076
32240W        W 4665  12.104  24.508   2.827
32241W        W 4666   0.614   1.454   3.608
32242W        W 4667  33.896   6.002   4.195
32243W        W 4668   3.614  20.650   0.713
32244W        W 4669  19.994  27.063   1.338
32245W        W 4670  14.348  11.795   2.754
32246W        W 4671  19.146   0.841   5.427
32247W        W 4672  42.233  34.597  14.037
32248W        W 4673   1.217  29.963   2.272
32249W        W 4674  19.716  44.035  12.080
32250W        W 4675  44.837  19.418  14.842
32251W        W 4676  12.889   6.541   1.496
32252W        W 4677   2.954  30.442  14.352
32253W        W 4678  27.115  40.787   0.420
32254W        W 4679  35.345  23.272   5.499
32255W        W 4680  26.459  39.089   2.746
32256W        W 4681   4.168  25.688  10.900
32257W        W 4682  21.744  34.433   4.681
32258W        W 4683  34.833  29.415  12.469
32259W        W 4684   9.151  13.323   0.238
32260W        W 4685  42.290  38.857   4.174
32261W        W 4686  21.480  41.415   0.856
32262W        W 4687  27.424  26.002  11.857
32263W        W 4688  36.351  41.435   3.497
32264W        W 4689  11.592  34.749   1.412
32265W        W 4690   3.016  24.006   0.160
32266W        W 4691  43.431  19.489   5.041
32267W        W 4692   6.715  29.538  14.254
32268W        W 4693  19.181  29.926   1.717
32269W        W 4694  14.144  35.546   4.572
32270W        W 4695  31.155  20.497  12.401
32271W        W 4696  14.966   3.117   0.011
32272W        W 4697  27.035  17.290   3.069
32273W        W 4698   9.232  19.625  12.539
32274W        W 4699  23.085  29.918  11.039
32275W        W 4700  38.831  42.580  11.631
32276W        W 4701   4.301   2.324  11.171
32277W        W 4702  26.651  18.537   2.950
32278W        W 4703  19.680  19.547   4.846
32279W        W 4704  31.081  26.897   4.259
32280W        W 4705  39.064   4.795   4.678
32281W        W 4706  44.646  33.339  11.186
32282W        W 4707  16.224   8.411  10.829
32283W        W 4708  28.695  31.052   1.922
32284W        W 4709  29.787  30.524  14.933
32285W        W 4710  25.879  20.650   2.852
32286W        W 4711   5.438  17.278  12.408
32287W        W 4712   3.193  35.360  12.802
32288W        W 4713  35.162  36.101   3.754
32289W        W 4714  18.193  11.307   3.849
32290W        W 4715  38.202  23.513  14.489
32291W        W 4716  25.128  29.238  11.621
32292W        W 4717  13.586  21.195   0.435
32293W        W 4718  25.558  38.405  13.371
32294W        W 4719   3.895  37.991  12.524
32295W        W 4720  22.774   1.071  13.723
32296W        W 4721  29.394  23.069   1.788
32297W        W 4722  10.635   2.213  11.558
32298W        W 4723   3.511   6.572   2.206
32299W        W 4724  39.876  42.886   1.195
32300W        W 4725   6.483   5.240   0.722
32301W        W 4726   0.149  30.687   4.638
32302W        W 4727   3.956  28.130   4.659
32303W        W 4728  33.139  15.061  11.489
32304W        W 4729   3.656  15.677  14.462
32305W        W 4730  38.853   8.934   2.069
32306W        W 4731   9.576   8.085  11.576
32307W        W 4732  37.504  14.702  10.895
32308W        W 4733   4.907  19.878  13.722
32309W        W 4734  25.967  12.714  11.546
32310W        W 4735  26.034  29.695  14.581
32311W        W 4736  37.021  31.181  14.931
32312W        W 4737  41.052  44.957  11.409
32313W        W 4738  29.094  34.445  12.821
32314W        W 4739  33.057  43.623  14.393
32315W        W 4740  40.913  23.626   3.676
32316W        W 4741  44.768  15.320  10.624
32317W        W 4742  30.791  19.053  13.073
32318W        W 4743   4.427  20.233  12.870
32319W        W 4744  22.189   8.872  13.018
32320W        W 4745  34.033  24.441   0.903
32321W        W 4746  26.500  29.230  13.739
32322W        W 4747  23.337  12.152   2.459
32323W        W 4748   7.296   8.905  14.960
32324W        W 4749   5.402   1.314   2.798
32325W        W 4750  33.405  24.322   4.123
32326W        W 4751  23.977   5.836   4.271
32327W        W 4752  32.901  24.519   1.882
32328W        W 4753  39.428  32.220   2.730
32329W        W 4754   8.377  13.220   4.615
32330W        W 4755   4.869  32.905  13.750
32331W        W 4756  33.993  42.214  12.510
32332W        W 4757  20.569  44.352   1.425
32333W        W 4758  32.176   4.240   0.270
32334W        W 4759  28.944   0.347   0.846
32335W        W 4760   9.640  30.710  12.760
32336W        W 4761  36.406  32.978   4.636
32337W        W 4762  34.514  32.378  10.680
32338W        W 4763  16.580  28.182  10.655
32339W        W 4764  34.561   6.153   0.456
32340W        W 4765  25.182  14.112  12.455
32341W        W 4766   7.892  39.062  14.248
32342W        W 4767   0.577  18.691  12.129
32343W        W 4768  41.230  21.930   2.058
32344W        W 4769   2.955  31.239  14.985
32345W        W 4770  29.467  38.014   2.455
32346W        W 4771  11.384  24.429   2.183
32347W        W 4772  15.031  42.893   4.587
32348W        W 4773  39.093  14.197   0.955
32349W        W 4774  21.605  26.506  13.604
32350W        W 4775  20.502  37.528   9.841
32351W        W 4776  31.081  18.728   3.716
32352W        W 4777  34.010  29.157  13.041
32353W        W 4778  31.600  20.575   1.307
32354W        W 4779  10.583  24.110  13.801
32355W        W 4780   1.376  27.992  14.901
32356W        W 4781  43.460  26.961   2.793
32357W        W 4782  42.884   9.456   1.836
32358W        W 4783   0.830  32.379  13.764
32359W        W 4784  20.323   3.645  13.373
32360W        W 4785  27.019  34.238   0.373
32361W        W 4786  27.534  40.871   1.153
32362W        W 4787   0.610   2.501   2.456
32363W        W 4788   2.290  14.477   3.544
32364W        W 4789   7.865  13.489  11.231
32365W        W 4790  21.759   7.528  11.874
32366W        W 4791  34.420  29.971   1.289
32367W        W 4792  43.756  30.335  10.852
32368W        W 4793  39.503  28.465   0.891
32369W        W 4794  17.276  32.569   9.656
32370W        W 4795   7.802   9.162   2.233
32371W        W 4796  13.798  40.909   3.476
32372W        W 4797  31.056  42.297  11.176
32373W        W 4798  13.362  20.135  11.634
32374W        W 4799   2.849  33.006   1.306
32375W        W 4800  24.348  29.140   3.629
32376W        W 4801  42.341  13.340   4.648
32377W        W 4802  31.988  43.460  10.696
32378W        W 4803  19.022  16.066  10.467
32379W        W 4804  15.083  15.367  13.801
32380W        W 4805  44.854  12.268  13.897
32381W        W 4806   2.558  32.882  10.867
32382W        W 4807  26.086  21.974  14.337
32383W        W 4808  15.162  17.160  12.819
32384W        W 4809  20.879  44.868  13.303
32385W        W 4810  13.870  41.952   4.201
32386W        W 4811  37.338  38.113   0.394
32387W        W 4812  19.118  11.125  14.293
32388W        W 4813  14.581  26.526   0.449
32389W        W 4814  32.984   6.824   3.742
32390W        W 4815  40.336  18.807   3.209
32391W        W 4816  17.852   1.015   3.621
32392W        W 4817  24.923  19.268  14.043
32393W        W 4818  17.536  23.632  13.946
32394W        W 4819  28.599  32.993   2.299
32395W        W 4820  19.060  23.141   1.801
32396W        W 4821  40.813  31.914  12.078
32397W        W 4822  22.170  23.788   1.632
32398W        W 4823  10.022  32.456  14.884
32399W        W 4824  37.310  39.996   4.397
32400W        W 4825  44.482  13.915   2.062
32401W        W 4826  34.554   4.687  12.377
32402W        W 4827   3.352  43.811   2.872
32403W        W 4828  39.785  34.829  13.636
32404W        W 4829  44.439  14.822  10.698
32405W        W 4830   1.475  16.830  11.650
32406W        W 4831  37.930  18.590  11.585
32407W        W 4832  30.412  28.542   2.114
32408W        W 4833  37.371  27.122   3.177
32409W        W 4834   5.912   2.734   3.687
32410W        W 4835  13.269  39.811  11.128
32411W        W 4836   2.708   1.479   2.314
32412W        W 4837  31.004  41.072  13.098
32413W        W 4838   0.564  30.974  13.944
32414W        W 4839   1.424  13.321   3.668
32415W        W 4840  24.486  38.933  14.559
32416W        W 4841  17.611   8.242   4.642
32417W        W 4842  35.789  26.393  14.470
32418W        W 4843  33.995  39.005  12.561
32419W        W 4844  41.874  21.046  12.401
32420W        W 4845  34.584  23.935   0.376
32421W        W 4846  28.633  24.244  12.769
32422W        W 4847   5.204  15.330  11.523
32423W        W 4848  41.222  12.752  10.969
32424W        W 4849  37.089  20.820   4.660
32425W        W 4850  35.841  25.158   9.677
32426W        W 4851   5.439   9.440   2.784
32427W        W 4852  28.844  27.109  11.145
32428W        W 4853   5.972   4.796   3.151
32429W        W 4854  43.872   5.338   4.363
32430W        W 4855  39.068  39.064  10.950
32431W        W 4856   3.103  21.544  11.911
32432W        W 4857  24.186  12.298   3.596
32433W        W 4858  35.778  16.898  14.417
32434W        W 4859  20.109   2.331   3.729
32435W        W 4860  30.618  27.262  13.746
32436W        W 4861  15.263  36.914  10.944
32437W        W 4862  23.249   1.683  14.742
32438W        W 4863  17.111  38.363  11.975
32439W        W 4864  11.874  43.385  13.122
32440W        W 4865  17.704   7.408   0.780
32441W        W 4866  32.545  17.774   1.634
32442W        W 4867  19.446  18.266  11.649
32443W        W 4868  13.614   0.739   0.199
32444W        W 4869  23.812  28.939  12.005
32445W        W 4870  31.054  33.417  14.752
32446W        W 4871  28.571  11.300  12.734
32447W        W 4872  27.499  33.924  10.702
32448W        W 4873  18.781   6.663   0.402
32449W        W 4874  35.691   3.878   3.839
32450W        W 4875  42.165   0.263  11.176
32451W        W 4876  26.955   8.363  12.414
32452W        W 4877   2.281   2.650   3.162
32453W        W 4878   2.698  44.877   3.363
32454W        W 4879  29.806  17.783   0.001
32455W        W 4880  37.461  16.252   1.242
32456W        W 4881  40.352  18.555   4.063
32457W        W 4882  40.347  17.528   0.304
32458W        W 4883   7.300   5.246  12.634
32459W        W 4884   1.022  14.793   4.157
32460W        W 4885  24.897  39.521   2.354
32461W        W 4886  24.188  12.856  14.579
32462W        W 4887  13.297  40.426  14.499
32463W        W 4888  37.062  25.549   3.317
32464W        W 4889   7.769   0.731   0.056
32465W        W 4890  24.109  43.249   1.672
32466W        W 4891  19.612   9.978  11.508
32467W        W 4892  19.393  10.170   4.573
32468W        W 4893   6.312  30.180  14.327
32469W        W 4894  38.019  39.394   2.824
32470W        W 4895  37.324  41.917   0.423
32471W        W 4896  37.314  26.130  14.007
32472W        W 4897  32.583  14.636  13.524
32473W        W 4898   4.876  14.264  12.163
32474W        W 4899  33.139  35.487  10.665
32475W        W 4900  31.924   2.221  11.962
32476W        W 4901  39.073   1.870  12.746
32477W        W 4902  31.035  17.247   0.149
32478W        W 4903  28.712  34.209  14.138
32479W        W 4904  38.514  35.374   2.270
32480W        W 4905  22.265  17.195   1.638
32481W        W 4906  44.948  34.900  10.552
32482W        W 4907  43.352  17.006  14.447
32483W        W 4908  22.922  29.600   3.794
32484W        W 4909  36.000  15.940   0.914
32485W        W 4910  17.234  19.190  10.829
32486W        W 4911  41.337  22.120  11.299
32487W        W 4912  20.661  16.155  13.454
32488W        W 4913  29.177  34.001  14.848
32489W        W 4914  26.608   3.687   3.656
32490W        W 4915   2.775  42.967  12.143
32491W        W 4916  41.833  25.345   2.832
32492W        W 4917  15.238   7.764   3.413
32493W        W 4918   0.512   6.927   1.461
32494W        W 4919   0.915  37.505  11.698
32495W        W 4920   9.875  15.803  12.789
32496W        W 4921   6.169  26.772  13.936
32497W        W 4922  13.227  18.611  11.320
32498W        W 4923  30.732   0.441   2.882
32499W        W 4924  29.719  36.333   3.647
32500W        W 4925  18.238  25.445   3.746
32501W        W 4926   9.395  35.064  13.409
32502W        W 4927  33.037   6.273   1.468
32503W        W 4928   3.712  35.754  12.024
32504W        W 4929  19.741  18.280   1.848
32505W        W 4930  38.095  10.807   3.716
32506W        W 4931  40.415  32.687   1.461
32507W        W 4932  25.536  34.922   1.141
32508W        W 4933   8.131  42.285   0.891
32509W        W 4934  25.028  10.607   0.260
32510W        W 4935  15.188  27.526   4.410
32511W        W 4936  32.967  28.631  10.981
32512W        W 4937  22.089  39.430  13.335
32513W        W 4938  10.737  11.924   2.942
32514W        W 4939  18.908   2.757   2.346
32515W        W 4940  18.678  16.621  13.440
32516W        W 4941  18.001  38.333  12.100
32517W        W 4942   3.253  31.043  12.189
32518W        W 4943   1.998  18.684  13.706
32519W        W 4944  23.089   7.589  14.427
32520W        W 4945  21.574  22.209   3.224
32521W        W 4946   5.499  26.525   2.840
32522W        W 4947  14.944  16.399   2.946
32523W        W 4948  32.428  10.386   0.758
32524W        W 4949   1.267  30.596   4.688
32525W        W 4950  12.086  18.077  14.463
32526W        W 4951  28.700  17.628  10.799
32527W        W 4952  28.443  11.123  11.029
32528W        W 4953  11.425  17.267  13.763
32529W        W 4954  27.080  18.504   3.875
32530W        W 4955   3.300  43.842  12.507
32531W        W 4956  42.930  26.250  13.937
32532W        W 4957  32.107  36.038  14.638
32533W        W 4958  27.966  33.225  11.683
32534W        W 4959  32.804  43.746  13.001
32535W        W 4960   8.232   4.508  12.995
32536W        W 4961  15.339  24.586  13.785
32537W        W 4962   1.341  20.921  11.811
32538W        W 4963  13.773  35.122   3.609
32539W        W 4964  23.155  39.523  12.971
32540W        W 4965  13.125   2.406  11.931
32541W        W 4966  24.658  33.884   4.612
32542W        W 4967  22.145  41.363  12.420
32543W        W 4968  31.720   0.732   1.300
32544W        W 4969  43.870  18.655   4.704
32545W        W 4970  39.571  20.273   3.633
32546W        W 4971   7.211  26.090   4.635
32547W        W 4972   1.796   0.032   1.412
32548W        W 4973   9.189  25.656  14.554
32549W        W 4974  38.125   1.561  13.709
32550W        W 4975   3.892  20.581   4.697
32551W        W 4976  14.413  41.423  11.458
32552W        W 4977   4.091   7.890   0.918
32553W        W 4978  15.118  39.056   0.365
32554W        W 4979  41.797  27.420  13.261
32555W        W 4980  23.728  15.223   0.658
32556W        W 4981  19.190  43.988   3.147
32557W        W 4982  33.279  14.362   3.675
32558W        W 4983  35.620  34.561  14.873
32559W        W 4984  34.127  17.183  14.505
32560W        W 4985  19.903  30.124  10.118
32561W        W 4986  34.343   5.248  13.608
32562W        W 4987   2.933   5.762  13.824
32563W        W 4988  27.416   4.173   3.237
32564W        W 4989  34.110  16.989  11.902
32565W        W 4990   5.785  34.320   4.225
32566W        W 4991   7.956  34.467   2.670
32567W        W 4992  21.566  38.405   0.396
32568W        W 4993  14.133   6.622   0.812
32569W        W 4994  39.865  27.431   4.571
32570W        W 4995  30.787   5.409   2.414
32571W        W 4996   8.001  25.764   1.887
32572W        W 4997  26.485  15.214  14.806
32573W        W 4998   1.706  22.958  14.894
32574W        W 4999  40.808  38.339  14.938
32575W        W 5000  22.228  42.125   4.622
32576W        W 5001   2.931  17.653   2.005
32577W        W 5002   6.707  20.336  14.780
32578W        W 5003  15.138  22.067  12.878
32579W        W 5004   2.988  14.637  12.966
32580W        W 5005  31.130   6.241   3.829
32581W        W 5006  37.946  16.451   3.792
32582W        W 5007  39.265  12.053   4.126
32583W        W 5008  26.740  29.028   3.663
32584W        W 5009  14.196  28.941  13.063
32585W        W 5010  31.400  36.990  12.419
32586W        W 5011  21.670  12.210   1.135
32587W        W 5012  31.622  44.557   1.635
32588W        W 5013  11.637  25.718   3.287
32589W        W 5014  29.177  41.655  14.179
32590W        W 5015   2.832  32.752   2.829
32591W        W 5016  39.551  30.068  11.209
32592W        W 5017  37.878   4.441   4.130
32593W        W 5018  13.626  29.537   4.404
32594W        W 5019  39.602   7.644   1.289
32595W        W 5020  23.154   4.218   2.363
32596W        W 5021  14.528  37.161  13.510
32597W        W 5022   2.016  13.702  10.484
32598W        W 5023  34.413  28.354  13.080
32599W        W 5024  44.748   8.910   3.638
32600W        W 5025  34.499  36.532   0.539
32601W        W 5026  25.173  27.452   4.031
32602W        W 5027  16.209  30.084  10.944
32603W        W 5028   5.418  16.994   2.591
32604W        W 5029  27.085   9.603   0.681
32605W        W 5030   1.726   0.279  11.046
32606W        W 5031  22.765  11.721  13.495
32607W        W 5032  21.441  36.914  12.385
32608W        W 5033  33.636  37.647   0.317
32609W        W 5034  31.018   0.135   3.233
32610W        W 5035  41.168   7.153   4.090
32611W        W 5036   6.959  20.625   1.908
32612W        W 5037  44.484  21.220   2.645
32613W        W 5038  20.767   0.132  11.944
32614W        W 5039  43.351  31.571  12.023
32615W        W 5040  18.141  29.564   1.740
32616W        W 5041  32.476  18.125   5.527
32617W        W 5042  44.939  37.569  11.183
32618W        W 5043  17.093  22.147   2.415
32619W        W 5044   5.623  22.404  13.509
32620W        W 5045  10.093  18.997  14.999
32621W        W 5046  30.888  20.078  12.302
32622W        W 5047  32.261   5.685  12.293
32623W        W 5048  35.315  44.757   0.403
32624W        W 5049  27.482  19.787  12.529
32625W        W 5050  25.544   8.915   4.690
32626W        W 5051  12.357  36.894   3.282
32627W        W 5052  19.758  13.133   1.986
32628W        W 5053  24.648  34.094   2.702
32629W        W 5054  16.752  30.134  11.031
32630W        W 5055  20.505  29.168  13.854
32631W        W 5056   5.165  38.040  13.020
32632W        W 5057   4.470  23.334   2.726
32633W        W 5058  39.571   9.507  14.690
32634W        W 5059   8.342  36.983   4.858
32635W        W 5060  31.944   6.288   2.899
32636W        W 5061   1.988  16.723   3.160
32637W        W 5062  18.108  30.462   1.953
32638W        W 5063   3.115   8.232   0.890
32639W        W 5064  41.483   9.532   4.240
32640W        W 5065  15.250   6.685   2.623
32641W        W 5066   4.303  22.157   1.392
32642W        W 5067  40.394  26.149  10.758
32643W        W 5068  16.854  43.854   3.793
32644W        W 5069  39.858  31.453   1.238
32645W        W 5070  26.134  22.679  13.131
32646W        W 5071  23.644  36.953   3.625
32647W        W 5072  35.414   4.448   3.222
32648W        W 5073  28.965  14.332  14.161
32649W        W 5074  35.101  20.086   0.288
32650W        W 5075   7.247  13.902  13.538
32651W        W 5076   9.793  12.710   4.695
32652W        W 5077  43.315  38.879   3.312
32653W        W 5078  40.001   7.594  13.337
32654W        W 5079   7.167  17.581  13.519
32655W        W 5080  30.079  30.230   3.828
32656W        W 5081  35.440  26.410   3.262
32657W        W 5082  32.879  25.478   5.006
32658W        W 5083   0.413  21.706  13.516
32659W        W 5084  42.465  38.506   2.748
32660W        W 5085  22.526  13.657  14.364
32661W        W 5086  31.042  32.672  11.648
32662W        W 5087  30.827  25.722  14.498
32663W        W 5088  30.004   1.016   4.122
32664W        W 5089  23.158  24.707  11.527
32665W        W 5090   9.338  20.503   4.121
32666W        W 5091  36.830  33.429   2.009
32667W        W 5092  42.877  13.755   3.993
32668W        W 5093   5.325  32.138   3.827
32669W        W 5094  40.874  35.617   2.389
32670W        W 5095  15.194   2.869   1.429
32671W        W 5096  32.546  42.408  14.298
32672W        W 5097  15.003  13.780  12.055
32673W        W 5098  36.129   8.271  14.462
32674W        W 5099  10.967   7.988   4.192
32675W        W 5100  19.275  23.831   4.157
32676W        W 5101   8.634   0.805  13.531
32677W        W 5102   6.646  28.929   3.995
32678W        W 5103   1.215  17.780   2.863
32679W        W 5104   8.969  16.769  12.881
32680W        W 5105  11.818   1.032   1.463
32681W        W 5106  17.246   7.977  11.144
32682W        W 5107  33.184   8.761   0.760
32683W        W 5108  32.636   2.505   3.717
32684W        W 5109  41.289  42.257  11.086
32685W        W 5110   9.330  31.738  10.772
32686W        W 5111  20.746  27.879   2.864
32687W        W 5112  44.013   8.333  13.187
32688W        W 5113  38.768  25.235  13.441
32689W        W 5114  31.342   9.341  12.694
32690W        W 5115  15.589   2.311  13.969
32691W        W 5116  26.247  31.719   4.697
32692W        W 5117  41.039  41.846  12.954
32693W        W 5118  10.953  22.515  13.460
32694W        W 5119  21.669   8.826   1.303
32695W        W 5120  32.248  42.047   0.847
32696W        W 5121   4.501   3.133  12.949
32697W        W 5122  18.708  30.945  11.509
32698W        W 5123   9.080   3.734   3.231
32699W        W 5124  30.346  35.095   5.227
32700W        W 5125   7.723  12.905   0.320
32701W        W 5126  23.618   0.951  13.058
32702W        W 5127  41.908   6.483   3.273
32703W        W 5128  34.480   1.696   2.519
32704W        W 5129   0.292  23.395  13.913
32705W        W 5130   5.917  12.807  14.999
32706W        W 5131  25.199  23.076   3.558
32707W        W 5132  12.102  33.943   4.408
32708W        W 5133  35.084  35.832   1.166
32709W        W 5134  12.776  27.665   4.636
32710W        W 5135  18.223  30.653   2.955
32711W        W 5136  40.452  27.190  14.868
32712W        W 5137   4.728  32.577   4.750
32713W        W 5138  31.134   8.711   0.005
32714W        W 5139  18.218  39.348  14.433
32715W        W 5140  33.395   5.385   3.071
32716W        W 5141  18.359  33.162  12.565
32717W        W 5142  28.317  44.405   2.167
32718W        W 5143   0.081  37.031  13.818
32719W        W 5144  16.228  11.777   3.062
32720W        W 5145  22.315  41.421   3.701
32721W        W 5146  16.240   2.421   4.375
32722W        W 5147  28.950  43.228   0.721
32723W        W 5148   5.316  12.645   1.821
32724W        W 5149  41.456  19.744   1.002
32725W        W 5150  29.207  36.544   1.387
32726W        W 5151   4.044   1.809  12.971
32727W        W 5152  18.152  16.713  12.867
32728W        W 5153  20.471  25.447   4.380
32729W        W 5154  39.407  33.295   1.293
32730W        W 5155  29.632  28.222  13.772
32731W        W 5156  41.797  14.732  10.710
32732W        W 5157   3.830   6.765   5.016
32733W        W 5158   7.704  37.047   4.664
32734W        W 5159  35.570  19.367  12.889
32735W        W 5160  21.134  29.486  13.110
32736W        W 5161   8.895   6.761  11.610
32737W        W 5162  19.007  14.706  14.500
32738W        W 5163  27.674  17.192  13.834
32739W        W 5164   3.182  11.861   4.031
32740W        W 5165  12.653  27.632   2.675
32741W        W 5166   2.653   8.242  12.516
32742W        W 5167  11.888  43.843  10.054
32743W        W 5168  21.060  17.251  10.396
32744W        W 5169   1.736   7.668  12.529
32745W        W 5170  38.600  28.552  11.205
32746W        W 5171  33.054  30.632   3.473
32747W        W 5172   4.557  18.404  12.353
32748W        W 5173  20.466   2.296   0.839
32749W        W 5174  19.289  42.876  12.514
32750W        W 5175   4.423  14.086   3.367
32751W        W 5176  10.353  28.548   4.111
32752W        W 5177  27.945  42.346   0.355
32753W        W 5178  23.608  29.659   1.483
32754W        W 5179  14.298  42.448   4.469
32755W        W 5180  35.116  14.728  10.754
32756W        W 5181  15.013  42.254   2.766
32757W        W 5182  41.313  41.914   3.180
32758W        W 5183  42.316  44.402  13.446
32759W        W 5184  17.802  37.432   2.133
32760W        W 5185  24.156  12.128  13.382
32761W        W 5186  16.109  24.330  13.340
32762W        W 5187  39.297   5.394   0.464
32763W        W 5188  30.251  18.231   5.031
32764W        W 5189  29.019  25.373   3.196
32765W        W 5190   4.508  16.834  11.495
32766W        W 5191  26.150  27.616   3.315
32767W        W 5192  35.472  13.936   2.691
32768W        W 5193   9.344   3.300   0.616
32769W        W 5194  29.434  29.816   4.925
32770W        W 5195   2.433  19.253   3.279
32771W        W 5196  42.954  10.610   0.008
32772W        W 5197  20.646  11.114  11.991
32773W        W 5198  17.707  29.918  11.168
32774W        W 5199  40.955  21.258   0.364
32775W        W 5200  42.409   4.535  12.872
32776W        W 5201  20.647  30.077   2.916
32777W        W 5202  41.894  22.942   1.359
32778W        W 5203  25.570  22.207   1.862
32779W        W 5204  42.052  37.430  11.595
32780W        W 5205  10.430   0.075  14.197
32781W        W 5206  23.740  36.576  14.029
32782W        W 5207  42.807  25.534  14.439
32783W        W 5208  32.382  15.645   2.476
32784W        W 5209  43.271  26.526   1.419
32785W        W 5210  44.952  10.700  13.884
32786W        W 5211  26.757  30.919   1.179
32787W        W 5212  37.360  40.253  12.107
32788W        W 5213  29.666  40.579   0.247
32789W        W 5214  37.692  15.195  13.545
32790W        W 5215  23.432  20.686  11.834
32791W        W 5216  37.770  36.795   2.308
32792W        W 5217  41.515  13.770   4.678
32793W        W 5218  33.490   5.215  12.502
32794W        W 5219  28.395  39.070   0.038
32795W        W 5220  28.823  23.631  10.823
32796W        W 5221   5.845  22.146  13.929
32797W        W 5222  12.785  41.281  13.502
32798W        W 5223  27.293  26.034   1.752
32799W        W 5224   8.154  44.355   3.293
32800W        W 5225  10.856   6.775   2.184
32801W        W 5226  37.335  14.228  13.545
32802W        W 5227   1.521  16.091   0.910
32803W        W 5228  25.997   3.857   2.318
32804W        W 5229  20.080  12.263  13.737
32805W        W 5230  13.195   5.793  11.791
32806W        W 5231   4.215  14.126  13.831
32807W        W 5232  15.985   5.196  13.909
32808W        W 5233   6.540  32.073   3.730
32809W        W 5234  43.364  11.931  13.470
32810W        W 5235  11.880  15.076  12.433
32811W        W 5236   5.119  21.137   1.520
32812W        W 5237  27.404   8.450  11.173
32813W        W 5238  40.732  44.953  13.773
32814W        W 5239  40.861   8.428  14.903
32815W        W 5240  11.281  36.156  14.606
32816W        W 5241  38.911  19.068   2.434
32817W        W 5242  36.997  16.697   3.302
32818W        W 5243   3.787  13.645   0.744
32819W        W 5244  28.047   2.309   3.654
32820W        W 5245  36.109   0.717   0.155
32821W        W 5246   9.075  41.745   4.109
32822W        W 5247  34.011  17.641   3.766
32823W        W 5248  17.031  41.862  11.255
32824W        W 5249  12.248  20.631   1.259
32825W        W 5250  39.968   0.480   2.326
32826W        W 5251  19.285  27.632   3.717
32827W        W 5252   9.793  35.019  14.482
32828W        W 5253  30.438  26.674  10.703
32829W        W 5254  33.928   3.671   4.249
32830W        W 5255   4.914   2.880  14.582
32831W        W 5256  14.329  23.103  11.963
32832W        W 5257  38.895  33.293   2.098
32833W        W 5258   7.417   3.278  13.127
32834W        W 5259   4.252  20.790   4.078
32835W        W 5260  32.917  12.177  12.623
32836W        W 5261  28.435  28.805  14.480
32837W        W 5262  20.610  43.976   3.189
32838W        W 5263  42.980  32.528   1.693
32839W        W 5264   3.001  20.124  11.668
32840W        W 5265   3.252  35.120  13.228
32841W        W 5266  42.610   4.047   1.481
32842W        W 5267  41.135  24.150  12.403
32843W        W 5268  27.500  37.132  10.487
32844W        W 5269  37.076  27.937  12.501
32845W        W 5270  19.462  30.279  13.033
32846W        W 5271  41.903  27.575  11.777
32847W        W 5272   9.365  25.665   0.864
32848W        W 5273  12.355   3.828  14.312
32849W        W 5274  36.933   1.949  14.538
32850W        W 5275  23.004   1.365   0.286
32851W        W 5276  31.940  25.992  11.726
32852W        W 5277  36.512  17.149  11.587
32853W        W 5278  35.172  44.238   1.024
32854W        W 5279  21.658  11.778  12.447
32855W        W 5280  11.899  42.003  13.354
32856W        W 5281  27.068   3.417   3.630
32857W        W 5282  12.586  13.846   2.412
32858W        W 5283  36.607   2.922  11.140
32859W        W 5284  36.150  35.422  14.870
32860W        W 5285  14.346  38.199  11.682
32861W        W 5286  11.610  21.172  11.231
32862W        W 5287   7.317  19.260   0.442
32863W        W 5288  40.795  18.268  10.734
32864W        W 5289  35.913  11.464  14.704
32865W        W 5290   1.196  33.956   2.347
32866W        W 5291  29.839   4.172   1.693
32867W        W 5292   2.509  41.344  11.156
32868W        W 5293  40.267  11.184  11.460
32869W        W 5294  17.771  20.052   1.734
32870W        W 5295  37.503  10.165  13.289
32871W        W 5296  26.016  23.190  11.963
32872W        W 5297  13.023   0.192  12.470
32873W        W 5298  41.080  33.955  12.883
32874W        W 5299  34.497  16.681   0.056
32875W        W 5300  32.397   6.773  13.505
32876W        W 5301  19.302   8.263  12.441
32877W        W 5302  22.633  25.002  12.054
32878W        W 5303  26.115  44.061  12.351
32879W        W 5304  19.782  31.068  12.674
32880W        W 5305  12.909  44.749   0.217
32881W        W 5306   8.144  29.534  12.352
32882W        W 5307  20.064   7.196   1.013
32883W        W 5308  34.409  16.214   2.226
32884W        W 5309  10.065  42.017  13.879
32885W        W 5310   3.198   8.780   0.815
32886W        W 5311  23.091  23.724  14.082
32887W        W 5312  41.822  39.649  13.119
32888W        W 5313  15.817  42.359   2.350
32889W        W 5314  14.769  34.530  11.550
32890W        W 5315   9.709  21.804   1.278
32891W        W 5316  13.893  10.199   1.420
32892W        W 5317  38.400  27.466   1.220
32893W        W 5318  44.977  36.028   3.186
32894W        W 5319   5.779   6.236   0.845
32895W        W 5320  31.565   7.252   1.792
32896W        W 5321  22.970  12.878  10.404
32897W        W 5322  30.377  38.978  11.985
32898W        W 5323   9.276   1.778  10.699
32899W        W 5324  25.053  12.372   3.231
32900W        W 5325  33.806  15.172   2.437
32901W        W 5326  41.003  34.395  13.240
32902W        W 5327  35.053  12.080   2.789
32903W        W 5328  11.874   7.732  14.568
32904W        W 5329  22.616  35.508   0.343
32905W        W 5330   2.442  16.190  10.994
32906W        W 5331  27.238  12.751  12.941
32907W        W 5332  29.844  37.075  12.332
32908W        W 5333  39.111  43.503  10.547
32909W        W 5334   7.253  24.459  12.554
32910W        W 5335  31.001  10.140   2.470
32911W        W 5336   8.468  27.520  12.098
32912W        W 5337  27.505  35.463   1.891
32913W        W 5338  20.401  12.772  13.622
32914W        W 5339   4.199  20.644  13.943
32915W        W 5340  36.997   4.889   4.471
32916W        W 5341  10.670  40.003   1.821
32917W        W 5342  33.740   3.271  11.158
32918W        W 5343  29.447  21.133  13.659
32919W        W 5344  43.335  22.831  14.310
32920W        W 5345  40.361  17.860  13.141
32921W        W 5346  19.142  36.833   0.442
32922W        W 5347   2.666  20.071   1.708
32923W        W 5348  37.587  35.524  11.112
32924W        W 5349  36.616  20.135   0.297
32925W        W 5350   3.732  31.568   0.707
32926W        W 5351  15.144  15.719  11.647
32927W        W 5352  44.403  44.366  14.867
32928W        W 5353  17.015  22.006  11.019
32929W        W 5354  27.392  35.530  12.947
32930W        W 5355  17.066  38.599   1.036
32931W        W 5356   7.285  12.748   2.367
32932W        W 5357  13.935  33.768  10.533
32933W        W 5358  18.127  37.099  13.107
32934W        W 5359  36.506  33.307   0.307
32935W        W 5360  30.728  11.623  14.756
32936W        W 5361   2.764   6.923  11.120
32937W        W 5362   1.778   3.420  11.709
32938W        W 5363   9.378  24.116   0.513
32939W        W 5364  27.697  15.616   3.767
32940W        W 5365  29.678   4.752  13.474
32941W        W 5366  25.562  44.290   3.272
32942W        W 5367  36.863  22.262  12.556
32943W        W 5368  23.050  25.448  12.920
32944W        W 5369  30.088  10.740   3.796
32945W        W 5370  28.541  41.486  13.751
32946W        W 5371  22.005  21.198   0.886
32947W        W 5372  15.879   5.337  11.239
32948W        W 5373  16.885  28.648  13.327
32949W        W 5374  43.679   3.324  14.372
32950W        W 5375  26.727  37.062  11.523
32951W        W 5376  23.230  31.825   4.595
32952W        W 5377  28.389  19.828  10.804
32953W        W 5378  38.271   1.736  11.086
32954W        W 5379  21.243   0.340   1.763
32955W        W 5380  44.954   6.753  12.421
32956W        W 5381   6.082  35.544  11.212
32957W        W 5382  35.023  10.849  13.590
32958W        W 5383  25.862  22.069   1.424
32959W        W 5384  14.109  38.843   3.853
32960W        W 5385  35.996   5.562  11.498
32961W        W 5386   2.370  41.203   2.728
32962W        W 5387  27.910  36.805   3.213
32963W        W 5388   6.207  35.662  13.468
32964W        W 5389  41.029  15.648  13.674
32965W        W 5390  41.949   3.761   3.737
32966W        W 5391  20.934  44.780   3.176
32967W        W 5392  38.782  32.180   4.629
32968W        W 5393   5.869  13.654  13.848
32969W        W 5394  39.340  22.327   1.864
32970W        W 5395   1.000  41.019   3.617
32971W        W 5396  18.031  12.146  12.797
32972W        W 5397  11.756  41.113   9.880
32973W        W 5398  40.350   6.260   2.309
32974W        W 5399  11.585  18.615   2.768
32975W        W 5400  35.139   6.432  13.886
32976W        W 5401  34.086  24.622  14.932
32977W        W 5402   5.163  17.277  12.864
32978W        W 5403  29.603  32.058  11.510
32979W        W 5404  15.168   5.139  14.299
32980W        W 5405  16.729   9.467   3.209
32981W        W 5406  16.807  24.790  11.067
32982W        W 5407   1.981  42.388  14.533
32983W        W 5408  28.124  11.056   4.791
32984W        W 5409  10.299   4.262  11.126
32985W        W 5410  37.367  23.618  12.858
32986W        W 5411  17.156  16.311  11.051
32987W        W 5412  38.924  17.062   1.131
32988W        W 5413   5.845   2.499  12.641
32989W        W 5414  36.148   4.633  14.821
32990W        W 5415  35.278   4.840   2.293
32991W        W 5416   7.254  42.818   2.211
32992W        W 5417  36.015  22.709   1.915
32993W        W 5418  43.306  38.319   0.419
32994W        W 5419   3.349  13.346  12.971
32995W        W 5420  19.598  37.497   0.993
32996W        W 5421  30.910  24.668  13.716
32997W        W 5422   6.175  17.090  11.164
32998W        W 5423   0.407  30.229   1.813
32999W        W 5424  38.785  16.162   4.152
33000W        W 5425  30.106  30.515  14.531
33001W        W 5426  24.057  32.186  10.143
33002W        W 5427  13.220  34.509   3.883
33003W        W 5428  14.630  25.152  10.853
33004W        W 5429  12.548  32.705  11.607
33005W        W 5430  22.203  17.826  11.182
33006W        W 5431  15.584  35.109   2.613
33007W        W 5432   8.055   0.989   3.616
33008W        W 5433  24.051   7.622   1.826
33009W        W 5434  29.590  36.054   5.110
33010W        W 5435  24.745  15.783  10.521
33011W        W 5436  26.904  30.734  14.996
33012W        W 5437  12.367  14.327  14.014
33013W        W 5438  41.309  43.557   1.482
33014W        W 5439  14.900  44.029  12.401
33015W        W 5440   3.931   6.608  10.707
33016W        W 5441  39.417  22.694   4.920
33017W        W 5442  13.023  20.544  13.342
33018W        W 5443   4.456  32.469   4.284
33019W        W 5444  26.382   8.135  11.191
33020W        W 5445  27.656  20.826  12.454
33021W        W 5446   6.838   4.451   3.691
33022W        W 5447  26.589  41.462  13.586
33023W        W 5448  26.580   0.942  12.049
33024W        W 5449  17.350  15.846   4.057
33025W        W 5450  14.341  40.247   3.081
33026W        W 5451  13.691  19.598   3.186
33027W        W 5452  12.164  11.977   1.239
33028W        W 5453  14.570  24.976   4.415
33029W        W 5454  10.482  15.141   0.416
33030W        W 5455  36.845  24.608   3.180
33031W        W 5456   7.586  26.806  11.538
33032W        W 5457  13.234  20.275   0.139
33033W        W 5458  30.086  32.674   0.240
33034W        W 5459  21.033  43.270  12.838
33035W        W 5460  20.771  34.584  10.526
33036W        W 5461  37.820  20.165   4.651
33037W        W 5462  30.144  31.254   3.801
33038W        W 5463  22.186  27.470   4.254
33039W        W 5464  23.219  32.910   2.252
33040W        W 5465  29.032  14.152   4.150
33041W        W 5466  11.822  15.182  14.800
33042W        W 5467   2.156  34.091   2.550
33043W        W 5468  32.543  39.131  12.467
33044W        W 5469  12.051  26.551   0.438
33045W        W 5470   1.134  15.937   3.694
33046W        W 5471  20.252   0.434   0.864
33047W        W 5472  13.750  36.540   3.682
33048W        W 5473   5.492  43.794   0.799
33049W        W 5474  37.949  41.178  10.242
33050W        W 5475   8.187  29.465  14.383
33051W        W 5476  37.464  18.626   1.807
33052W        W 5477   2.830  31.616   4.620
33053W        W 5478   6.279  38.003  12.422
33054W        W 5479   1.818   2.428  12.820
33055W        W 5480  13.721  16.064  11.528
33056W        W 5481   8.993  26.248  12.588
33057W        W 5482  39.055  31.629  13.188
33058W        W 5483  34.615  11.170  13.709
33059W        W 5484   1.717   9.163  11.614
33060W        W 5485  16.398  17.707   1.814
33061W        W 5486  21.266   7.226  10.677
33062W        W 5487  10.871  38.784  10.993
33063W        W 5488  18.966  22.501   4.628
33064W        W 5489  10.720  34.266   0.939
33065W        W 5490  40.820  39.212  13.508
33066W        W 5491   5.803  13.852   3.250
33067W        W 5492  19.227  38.951   2.370
33068W        W 5493  16.223  32.576   1.783
33069W        W 5494   0.731  20.107   1.769
33070W        W 5495  14.512  23.010   2.908
33071W        W 5496  24.900  40.378  12.504
33072W        W 5497  28.058   7.736   4.653
33073W        W 5498   6.752  37.808  12.329
33074W        W 5499   8.369  31.661  10.753
33075W        W 5500  27.359   2.501   3.804
33076W        W 5501  28.309  24.133  14.430
33077W        W 5502  14.759  40.398   1.300
33078W        W 5503  37.771  31.381   3.798
33079W        W 5504  13.922  35.894   4.935
33080W        W 5505  39.322  17.836  11.959
33081W        W 5506  15.096  18.242   1.361
33082W        W 5507  11.662  10.736  14.068
33083W        W 5508  31.576  41.587  14.283
33084W        W 5509  31.547   1.668   4.648
33085W        W 5510   9.943  18.219   0.233
33086W        W 5511   9.247  39.415   3.241
33087W        W 5512  35.416  33.485   4.161
33088W        W 5513  27.614   1.570   0.214
33089W        W 5514  39.453   6.762  14.578
33090W        W 5515  11.104   6.775   3.683
33091W        W 5516  23.372  30.909   4.021
33092W        W 5517  10.731  15.076   1.746
33093W        W 5518  33.830   3.256   3.645
33094W        W 5519  32.380  42.005   1.661
33095W        W 5520  16.120   5.519  14.451
33096W        W 5521  27.604  27.986  12.504
33097W        W 5522  26.762  37.941   3.175
33098W        W 5523   4.981  33.587   1.753
33099W        W 5524  18.569  12.451  13.457
33100W        W 5525   0.701  44.646  12.609
33101W        W 5526   7.583  42.945  14.199
33102W        W 5527   2.281  28.736   3.427
33103W        W 5528   9.868   9.426   1.783
33104W        W 5529   9.817  18.712  14.543
33105W        W 5530   6.805  20.292  12.074
33106W        W 5531   2.804   7.163   0.211
33107W        W 5532  29.141  15.207  13.737
33108W        W 5533   3.142  15.260   3.720
33109W        W 5534   6.780  41.195  12.409
33110W        W 5535  22.111   7.713   4.515
33111W        W 5536  23.803  12.247  11.239
33112W        W 5537  33.712  39.580   2.787
33113W        W 5538  34.302  33.953   4.809
33114W        W 5539  13.427  19.532   0.651
33115W        W 5540  12.790  26.535   4.112
33116W        W 5541  27.363  32.398   1.393
33117W        W 5542  15.159  10.110   4.130
33118W        W 5543  36.121  34.938  14.547
33119W        W 5544  23.521  41.933   2.733
33120W        W 5545  22.008  17.134  13.276
33121W        W 5546  43.768  25.310   2.812
33122W        W 5547   7.089  16.849  12.150
33123W        W 5548  20.252   6.671  14.332
33124W        W 5549   2.388  26.754   1.942
33125W        W 5550   8.113  22.009   3.920
33126W        W 5551   3.468  34.876  12.828
33127W        W 5552  23.941  15.030  11.577
33128W        W 5553  35.227  38.411   1.780
33129W        W 5554   7.388  42.792  11.979
33130W        W 5555   9.409   8.138  14.338
33131W        W 5556  18.558  27.682   2.325
33132W        W 5557  33.977  36.930  14.877
33133W        W 5558  12.360  30.579  14.837
33134W        W 5559  22.681  29.162  12.071
33135W        W 5560  10.664  18.046  10.559
33136W        W 5561  12.206  12.470   1.111
33137W        W 5562  20.344  40.332  14.978
33138W        W 5563  30.076  30.590   1.348
33139W        W 5564  31.049  39.357   0.515
33140W        W 5565  20.097   9.965   2.407
33141W        W 5566  17.940   0.595   0.459
33142W        W 5567  40.433  44.954   1.645
33143W        W 5568  31.161  32.241   5.103
33144W        W 5569   9.558   2.137   0.217
33145W        W 5570   8.413  10.028   3.215
33146W        W 5571  16.830  35.778  13.815
33147W        W 5572  20.529   3.318   4.134
33148W        W 5573  43.286  43.389  12.959
33149W        W 5574   0.898  21.237  12.420
33150W        W 5575  17.425   6.757   2.553
33151W        W 5576  12.299  37.685  11.107
33152W        W 5577  39.415  18.309  11.144
33153W        W 5578   3.541  12.293  11.517
33154W        W 5579  35.462  36.574   0.425
33155W        W 5580  40.999  26.433   3.772
33156W        W 5581   4.220  39.021  14.415
33157W        W 5582   3.720   1.626   3.175
33158W        W 5583  39.346   2.626   2.364
33159W        W 5584  13.666  39.401  10.525
33160W        W 5585  12.806  20.601  14.314
33161W        W 5586   5.195  35.116   1.031
33162W        W 5587  24.959  11.537   1.154
33163W        W 5588  44.701  26.962   1.291
33164W        W 5589  42.192   0.813   3.210
33165W        W 5590  41.535  19.768  13.511
33166W        W 5591  18.632  17.710   3.901
33167W        W 5592  25.567  37.526  14.618
33168W        W 5593  36.929  24.449   1.338
33169W        W 5594  39.963  14.156  13.363
33170W        W 5595  32.366  19.012   1.682
33171W        W 5596  31.596   6.118  10.693
33172W        W 5597  15.782   8.151   3.963
33173W        W 5598  17.656  41.871   1.461
33174W        W 5599   3.405  29.628   1.402
33175W        W 5600  30.553  28.573  12.930
33176W        W 5601  11.800   5.766   2.915
33177W        W 5602  38.335  40.373   2.368
33178W        W 5603  20.997  35.867   3.641
33179W        W 5604  30.387  38.604  11.041
33180W        W 5605   5.467  20.524   2.583
33181W        W 5606  38.026  44.289  13.037
33182W        W 5607   2.464   7.118  11.566
33183W        W 5608  17.311  40.311  13.376
33184W        W 5609  37.404   7.298  13.868
33185W        W 5610   9.602  30.982  13.537
33186W        W 5611  17.726  18.610  12.992
33187W        W 5612  32.126  14.357  11.304
33188W        W 5613   6.120  12.043   0.838
33189W        W 5614  44.144   1.904  14.372
33190W        W 5615  22.240  37.418   1.610
33191W        W 5616   9.358  39.486   2.739
33192W        W 5617  38.362  43.891  14.286
33193W        W 5618  29.902   8.262   3.621
33194W        W 5619  33.407   8.131  10.713
33195W        W 5620  24.585  11.872   1.286
33196W        W 5621   6.172   4.711  12.325
33197W        W 5622  16.528   3.999   0.930
33198W        W 5623  41.309  40.458  11.622
33199W        W 5624  42.254  30.053   0.069
33200W        W 5625  38.126  26.464  10.801
33201W        W 5626   6.743   3.204   2.788
33202W        W 5627   0.995  27.006   0.262
33203W        W 5628  34.982  35.431  10.631
33204W        W 5629  34.631  13.852   1.769
33205W        W 5630   9.594  27.101  13.966
33206W        W 5631  11.391  24.138   1.732
33207W        W 5632  11.420  44.570   2.682
33208W        W 5633  20.193  27.069   2.213
33209W        W 5634  40.219  18.350   2.358
33210W        W 5635  15.208  28.070  10.618
33211W        W 5636  17.089  30.918  10.125
33212W        W 5637  26.530  38.878   1.882
33213W        W 5638  41.073   0.454  10.656
33214W        W 5639  32.090  42.087   4.669
33215W        W 5640  11.450   5.401  11.915
33216W        W 5641  23.131   3.402   1.004
33217W        W 5642  41.971  21.048   1.916
33218W        W 5643  24.179  22.055  14.537
33219W        W 5644  21.508  31.986   4.288
33220W        W 5645   6.843  21.622   4.157
33221W        W 5646  42.921  41.649   2.902
33222W        W 5647   5.021  20.235   4.114
33223W        W 5648   8.499  24.177  12.102
33224W        W 5649  36.634   2.296  13.135
33225W        W 5650   5.864   7.316   3.953
33226W        W 5651   0.197  15.139  14.272
33227W        W 5652   1.226  34.062   0.926
33228W        W 5653  24.270  40.406  13.069
33229W        W 5654  43.738  15.200   1.593
33230W        W 5655  19.018  22.469   2.415
33231W        W 5656  35.397  14.149  10.837
33232W        W 5657  27.581  43.905  13.918
33233W        W 5658  24.088  44.523   1.539
33234W        W 5659  37.367  34.093   1.977
33235W        W 5660  21.793   4.136   1.385
33236W        W 5661  43.372  14.159  11.145
33237W        W 5662  44.352  29.228   2.229
33238W        W 5663  19.852   5.383  12.039
33239W        W 5664  37.503  23.697   2.890
33240W        W 5665  26.786   6.770   0.359
33241W        W 5666   5.536  35.032  13.647
33242W        W 5667   1.877  30.843   1.848
33243W        W 5668   9.807  30.088  12.001
33244W        W 5669  27.766  42.722  11.491
33245W        W 5670  36.387   6.299   2.703
33246W        W 5671   9.220   4.822   1.346
33247W        W 5672  19.030  31.301   4.262
33248W        W 5673  22.158  43.242   3.735
33249W        W 5674  44.400  31.376   0.290
33250W        W 5675  39.902   8.209   2.505
33251W        W 5676  21.268  36.090   3.273
33252W        W 5677  15.156  21.779   4.661
33253W        W 5678   7.669  23.063  14.027
33254W        W 5679   3.065  32.007   0.461
33255W        W 5680  26.180   9.103  12.827
33256W        W 5681  41.193  42.944   0.758
33257W        W 5682  17.313  22.872   3.889
33258W        W 5683   3.242  26.448   1.859
33259W        W 5684  12.105  28.621   0.733
33260W        W 5685   3.789  12.616  13.747
33261W        W 5686  36.062  14.583   2.360
33262W        W 5687  22.283  14.480  12.941
33263W        W 5688  44.854  21.131   4.393
33264W        W 5689  12.842  30.051  14.349
33265W        W 5690  32.018  28.913   4.204
33266W        W 5691  29.422  13.905  10.376
33267W        W 5692  16.825   3.275  10.252
33268W        W 5693   2.491  19.533  11.140
33269W        W 5694  32.573  34.513   1.437
33270W        W 5695  35.997  17.134   0.157
33271W        W 5696  14.859   6.665   1.212
33272W        W 5697   5.297   1.887   1.847
33273W        W 5698  31.507  40.036   4.062
33274W        W 5699  10.146  36.015  11.471
33275W        W 5700  13.729  13.547   1.578
33276W        W 5701   6.223  41.552  11.378
33277W        W 5702  40.066  28.136   3.388
33278W        W 5703  18.339  44.761   0.751
33279W        W 5704  40.980  36.411  12.519
33280W        W 5705  11.241  35.700  10.987
33281W        W 5706  42.518  21.157  11.458
33282W        W 5707  39.093  27.979  11.482
33283W        W 5708  22.235  21.236  14.908
33284W        W 5709   1.496  35.113   2.746
33285W        W 5710  10.361  33.835   2.134
33286W        W 5711  22.793   6.477   4.800
33287W        W 5712  18.190   6.389   3.451
33288W        W 5713  43.856  23.787  10.575
33289W        W 5714   5.415   8.366  12.082
33290W        W 5715  18.285   0.741   3.812
33291W        W 5716  40.072  38.125   3.863
33292W        W 5717  24.542  36.062   2.715
33293W        W 5718   5.430   3.960  13.441
33294W        W 5719  29.839  29.020  14.476
33295W        W 5720   1.318   3.359   0.659
33296W        W 5721   2.276   0.114   2.280
33297W        W 5722  15.583   0.286   2.393
33298W        W 5723  37.620  26.147  14.449
33299W        W 5724  36.162  31.068   4.156
33300W        W 5725  26.002  36.403   1.753
33301W        W 5726  10.694  28.227   1.860
33302W        W 5727   7.691  40.806   4.476
33303W        W 5728   0.367  16.685  13.448
33304W        W 5729  11.045  21.250   1.252
33305W        W 5730  41.013  44.470  14.026
33306W        W 5731  44.478  25.730   3.251
33307W        W 5732  11.496  23.006   0.485
33308W        W 5733   7.383  41.692  13.900
33309W        W 5734  20.350  19.140   4.124
33310W        W 5735  40.104   4.469  14.328
33311W        W 5736  20.969  27.456   3.314
33312W        W 5737  31.639  26.455  14.817
33313W        W 5738  29.665  42.016   3.712
33314W        W 5739  38.498  23.993   1.733
33315W        W 5740  42.202  17.256   1.365
33316W        W 5741  37.444  28.417   2.276
33317W        W 5742  41.115  33.268   3.325
33318W        W 5743  19.279  44.942  11.369
33319W        W 5744  31.952  29.637   3.858
33320W        W 5745   1.390  22.087  13.154
33321W        W 5746   3.368  29.105   1.452
33322W        W 5747  41.286  34.648  14.178
33323W        W 5748   5.495   7.637  13.460
33324W        W 5749  41.413  22.220  13.577
33325W        W 5750  33.076  16.537  10.592
33326W        W 5751  25.638  10.235  11.076
33327W        W 5752  25.131  16.755  14.877
33328W        W 5753  11.431  10.087   1.440
33329W        W 5754  19.923  19.633  10.766
33330W        W 5755   9.095  25.405   1.313
33331W        W 5756  34.572  15.086  10.660
33332W        W 5757  43.593  12.254  14.765
33333W        W 5758   3.215  17.868   3.722
33334W        W 5759  35.818  29.183  14.372
33335W        W 5760  11.575  33.473  13.226
33336W        W 5761  11.771  11.037   2.415
33337W        W 5762  18.059  34.226   4.229
33338W        W 5763  27.877  42.791  12.445
33339W        W 5764   3.297   1.147  10.437
33340W        W 5765  11.347  27.519   3.421
33341W        W 5766  29.048  33.989  13.082
33342W        W 5767  41.788  21.516   4.761
33343W        W 5768   1.368  18.882  14.542
33344W        W 5769  40.264  35.032  12.962
33345W        W 5770   7.618  31.885  13.957
33346W        W 5771  42.086   5.451  14.886
33347W        W 5772  16.777   2.844   5.117
33348W        W 5773  36.488  23.971   1.933
33349W        W 5774  25.804  24.263  11.414
33350W        W 5775  42.052   4.359   4.598
33351W        W 5776   4.364  44.012   2.383
33352W        W 5777  44.299  38.853   1.347
33353W        W 5778  44.193  34.577   0.349
33354W        W 5779  18.155  14.005  13.907
33355W        W 5780  41.488   9.870   4.629
33356W        W 5781  34.876  28.553  12.357
33357W        W 5782   8.401  36.855  13.989
33358W        W 5783  16.938  25.175   2.712
33359W        W 5784  26.070   2.318  14.646
33360W        W 5785  39.078  24.005   0.850
33361W        W 5786  17.114   4.736  13.778
33362W        W 5787   8.216  18.093  11.475
33363W        W 5788  15.291   9.837  11.977
33364W        W 5789  17.038  14.333   4.114
33365W        W 5790   7.483  43.724   2.314
33366W        W 5791  40.013  28.259  11.164
33367W        W 5792  38.918  37.182  12.008
33368W        W 5793  16.329  12.159   0.334
33369W        W 5794  28.044  30.743   0.895
33370W        W 5795  34.454  35.509  10.321
33371W        W 5796  37.431  34.948  11.187
33372W        W 5797  15.844  14.326  14.057
33373W        W 5798   0.471  21.052   0.742
33374W        W 5799  43.320  12.247   2.806
33375W        W 5800  15.281  26.332   1.480
33376W        W 5801  26.665  28.392  14.672
33377W        W 5802   3.159  21.253   4.138
33378W        W 5803   2.681  44.462  13.446
33379W        W 5804  14.598   7.330   3.692
33380W        W 5805  16.078  40.410   2.722
33381W        W 5806  19.404  35.833  13.432
33382W        W 5807  27.818  34.492   3.351
33383W        W 5808  21.290  41.053   2.278
33384W        W 5809  33.088  39.845   4.639
33385W        W 5810   3.975  21.702   4.101
33386W        W 5811  31.611  16.228   2.795
33387W        W 5812  22.685  16.194  13.763
33388W        W 5813   6.658  14.189   4.535
33389W        W 5814  30.742  24.578  11.079
33390W        W 5815  28.141  20.676  12.518
33391W        W 5816  41.348   0.509  12.982
33392W        W 5817   1.485  42.933   1.360
33393W        W 5818  12.699   5.394  14.979
33394W        W 5819   1.686  39.621  11.103
33395W        W 5820  40.744  19.284   3.854
33396W        W 5821  33.628   4.156  13.452
33397W        W 5822   4.651  28.501  10.527
33398W        W 5823  29.705   2.275  11.110
33399W        W 5824  10.306  40.866  11.477
33400W        W 5825  38.142  42.442   4.611
33401W        W 5826   9.675  24.482  11.502
33402W        W 5827  15.516  21.664  11.485
33403W        W 5828  18.971  13.957   0.295
33404W        W 5829  27.086  37.409   2.603
33405W        W 5830   5.220  11.589   1.766
33406W        W 5831   9.135  25.791  12.882
33407W        W 5832  44.414  35.041   0.181
33408W        W 5833  20.355  42.997  10.624
33409W        W 5834  35.557  25.667   4.600
33410W        W 5835  36.542  38.799   2.743
33411W        W 5836  37.418  17.376   4.574
33412W        W 5837  32.886  41.916  14.919
33413W        W 5838  20.577   6.793  13.930
33414W        W 5839  39.352  30.446  14.398
33415W        W 5840  32.692   1.945   0.272
33416W        W 5841   6.208  22.090   0.819
33417W        W 5842   3.128  41.359   3.281
33418W        W 5843   8.219   0.531   2.393
33419W        W 5844  10.325  17.192   1.143
33420W        W 5845  38.879  42.450   4.141
33421W        W 5846  41.239  26.967   0.551
33422W        W 5847  38.583  20.295  10.779
33423W        W 5848  41.427   1.562   0.932
33424W        W 5849  37.308  30.627  11.925
33425W        W 5850  44.340  16.310   4.210
33426W        W 5851  38.443  26.712   2.832
33427W        W 5852  19.923  21.702  10.210
33428W        W 5853  12.169   0.201  12.998
33429W        W 5854  30.308  18.558  11.004
33430W        W 5855   0.284  22.663  14.530
33431W        W 5856  28.931   7.367   1.671
33432W        W 5857  22.186  13.817   1.746
33433W        W 5858  42.738   3.270  13.247
33434W        W 5859  28.955  38.542  13.487
33435W        W 5860  15.670  38.784   3.891
33436W        W 5861  35.077  26.875   0.671
33437W        W 5862  16.974  40.426  12.964
33438W        W 5863   5.900  37.084   3.613
33439W        W 5864  25.570   1.459   0.721
33440W        W 5865  20.569  19.516   1.780
33441W        W 5866   6.913   1.266  14.520
33442W        W 5867   3.674  15.808  10.034
33443W        W 5868   7.798  13.646   2.417
33444W        W 5869  37.475  22.845  10.433
33445W        W 5870  25.859  32.426  11.023
33446W        W 5871  39.859   8.177  12.623
33447W        W 5872  41.534  24.135  11.555
33448W        W 5873  14.473  43.304   4.123
33449W        W 5874  11.730   6.003   4.413
33450W        W 5875  32.033  29.979  14.399
33451W        W 5876  22.501  26.639  14.476
33452W        W 5877   6.596  31.050  12.969
33453W        W 5878  39.351  20.235   1.216
33454W        W 5879  36.989   7.532  14.086
33455W        W 5880  44.540   6.858  14.280
33456W        W 5881  19.892  11.736   2.400
33457W        W 5882  38.131   9.177  12.850
33458W        W 5883  11.755  44.528  11.358
33459W        W 5884   9.252  12.826  11.094
33460W        W 5885   3.914   5.624   3.189
33461W        W 5886  11.125   9.642  11.981
33462W        W 5887  10.576  43.841   1.989
33463W        W 5888  18.679  12.089  11.677
33464W        W 5889  32.176  33.092  12.473
33465W        W 5890   3.957  13.399   3.696
33466W        W 5891  23.244  24.955   2.762
33467W        W 5892  44.396  17.215  12.824
33468W        W 5893   8.923   7.203   1.855
33469W        W 5894  32.984  19.634  12.603
33470W        W 5895  44.464  13.535   1.708
33471W        W 5896  44.229  34.351  10.215
33472W        W 5897  36.887  38.006   1.305
33473W        W 5898  13.122   0.788  13.809
33474W        W 5899  17.399  12.597  11.553
33475W        W 5900  27.596  22.410  14.773
33476W        W 5901  35.133  27.405   4.088
33477W        W 5902  34.591  17.788   1.746
33478W        W 5903   5.463  19.745   4.183
33479W        W 5904  40.102  26.555   2.393
33480W        W 5905  12.697  44.240   4.930
33481W        W 5906  31.070   9.532   3.660
33482W        W 5907  34.462  38.052  13.376
33483W        W 5908  11.189   5.377   4.332
33484W        W 5909  29.211   8.844   1.273
33485W        W 5910  31.592  24.258   0.229
33486W        W 5911   6.663  17.037  14.299
33487W        W 5912  32.516  24.069  13.470
33488W        W 5913  33.995  42.996   3.147
33489W        W 5914  30.956   3.004  10.593
33490W        W 5915   4.752  24.612   2.413
33491W        W 5916   3.935  14.249  14.240
33492W        W 5917   7.965  16.601   3.685
33493W        W 5918   5.453   8.269   4.374
33494W        W 5919  32.138  37.932  14.414
33495W        W 5920  34.393  24.439  10.136
33496W        W 5921  40.471  20.549  13.950
33497W        W 5922  24.058  44.432   1.020
33498W        W 5923  25.609  15.189   1.336
33499W        W 5924  30.211   4.752  13.417
33500W        W 5925  41.837  12.093   2.127
33501W        W 5926   0.901  10.928  10.923
33502W        W 5927   8.333  15.860   0.332
33503W        W 5928  29.709   0.284   1.990
33504W        W 5929  39.108  24.565  11.648
33505W        W 5930  23.960  12.636   1.578
33506W        W 5931   4.514  10.863   2.267
33507W        W 5932  23.517  33.003   2.688
33508W        W 5933  40.995  12.861   2.891
33509W        W 5934  35.312   5.499   0.477
33510W        W 5935  27.009  11.859  14.307
33511W        W 5936  17.485  32.589   2.213
33512W        W 5937  28.082  27.896   1.749
33513W        W 5938  17.242  42.494   0.598
33514W        W 5939  27.542  31.185   4.542
33515W        W 5940  10.452  28.751  10.910
33516W        W 5941  37.085   1.163  12.968
33517W        W 5942  33.420  42.110  12.591
33518W        W 5943  40.021  38.608   2.296
33519W        W 5944  14.817  42.124  12.419
33520W        W 5945   9.274  42.124  13.741
33521W        W 5946  41.904  43.548  10.454
33522W        W 5947   8.913  16.265  14.138
33523W        W 5948  27.492   8.909  13.483
33524W        W 5949  42.608  33.447  13.329
33525W        W 5950  27.978  11.160   1.406
33526W        W 5951  33.803  12.830  12.786
33527W        W 5952   6.668  35.649  11.908
33528W        W 5953  42.278   8.920   3.356
33529W        W 5954  28.393  19.802  12.439
33530W        W 5955  39.879  26.882  11.484
33531W        W 5956  42.399   3.688  11.971
33532W        W 5957   2.211   9.512  11.567
33533W        W 5958  42.831   9.118   1.468
33534W        W 5959  34.860  37.071   3.828
33535W        W 5960  25.317  16.734  12.481
33536W        W 5961  23.691   7.219   2.545
33537W        W 5962  37.981  12.928   1.332
33538W        W 5963  41.618  39.619  11.986
33539W        W 5964  17.229  39.085  12.007
33540W        W 5965  15.726  15.763  14.881
33541W        W 5966  11.734  37.093   4.123
33542W        W 5967  22.672  25.505  13.884
33543W        W 5968  25.775  10.776   4.988
33544W        W 5969  29.105  31.574   3.209
33545W        W 5970  12.135  14.303   0.768
33546W        W 5971  37.347  32.986   9.807
33547W        W 5972  21.103  29.343   0.399
33548W        W 5973  26.452  20.204   0.146
33549W        W 5974   2.036   4.292   4.166
33550W        W 5975  33.619  20.154   2.439
33551W        W 5976   8.988  36.458  12.933
33552W        W 5977  39.876   8.114   3.800
33553W        W 5978   7.626   2.275  14.372
33554W        W 5979  14.111  24.757  10.190
33555W        W 5980  30.087  16.118   1.136
33556W        W 5981  29.309  17.896   0.133
33557W        W 5982   2.252  34.531   3.267
33558W        W 5983   9.252  40.556   2.745
33559W        W 5984  24.777  28.504   4.355
33560W        W 5985  36.875  38.795  11.923
33561W        W 5986  34.389  17.807  13.399
33562W        W 5987  43.245  23.197   3.526
33563W        W 5988  36.618  14.458   2.837
33564W        W 5989  12.774  34.934   3.438
33565W        W 5990   4.335   1.343   4.803
33566W        W 5991  19.572  44.546   2.651
33567W        W 5992  29.017  35.913  14.614
33568W        W 5993  33.608  43.049  12.335
33569W        W 5994   5.380  24.660   4.144
33570W        W 5995  41.905   6.709  14.061
33571W        W 5996   6.242   8.854  10.849
33572W        W 5997  20.239   0.901  13.972
33573W        W 5998  40.640  44.964  10.153
33574W        W 5999  43.458  19.110   4.148
33575W        W 6000  28.969  26.666   2.439
33576W        W 6001  42.436  31.902   4.832
33577W        W 6002  30.962   2.283   3.294
33578W        W 6003  32.567  22.136  12.052
33579W        W 6004   0.019  28.811   3.694
33580W        W 6005  28.163  17.229   1.382
33581W        W 6006  36.448   9.656  11.163
33582W        W 6007  42.344  21.820   3.375
33583W        W 6008  39.156  14.295  11.706
33584W        W 6009   0.447  11.834   3.242
33585W        W 6010  18.595  15.107   4.351
33586W        W 6011   5.178  19.244   3.224
33587W        W 6012  34.912  37.121  12.524
33588W        W 6013   1.779  44.230  12.993
33589W        W 6014  38.925  23.755   4.602
33590W        W 6015  13.593   2.509  13.072
33591W        W 6016  20.965  37.024  14.984
33592W        W 6017   9.094   1.165  11.012
33593W        W 6018  10.707  25.032  15.000
33594W        W 6019  24.272  22.436   0.459
33595W        W 6020   9.018  41.464  11.632
33596W        W 6021   7.161  39.064   1.774
33597W        W 6022  15.638  42.332  12.838
33598W        W 6023   3.821  19.021   4.538
33599W        W 6024  21.534  14.198   3.189
33600W        W 6025  18.106  10.263  12.898
33601W        W 6026  37.068  16.515   0.528
33602W        W 6027  33.715  23.704  13.501
33603W        W 6028  17.111  40.026   4.521
33604W        W 6029  31.801  28.442   1.622
33605W        W 6030  34.440  41.887   2.901
33606W        W 6031  31.221   2.198   1.245
33607W        W 6032  35.848   2.930   0.261
33608W        W 6033  22.688   5.589   1.658
33609W        W 6034  30.550   1.362  14.195
33610W        W 6035   6.082  32.048   5.153
33611W        W 6036  27.928  44.878  13.419
33612W        W 6037   6.006   9.248   0.394
33613W        W 6038  32.597  14.306   1.248
33614W        W 6039  11.809  26.673   5.153
33615W        W 6040  27.456   9.318   1.403
33616W        W 6041  15.722  38.618   3.131
33617W        W 6042  10.281  38.693  10.844
33618W        W 6043  10.661   6.471  11.491
33619W        W 6044  19.563  36.017  13.902
33620W        W 6045  42.366  22.058  11.541
33621W        W 6046  13.677  36.406   1.679
33622W        W 6047   4.811  30.297   1.052
33623W        W 6048  42.419  33.155  13.740
33624W        W 6049   1.182   1.247   1.710
33625W        W 6050   9.222   6.165   4.181
33626W        W 6051  20.282  16.353  11.558
33627W        W 6052  10.963  44.839  11.935
33628W        W 6053  44.998  41.369  11.214
33629W        W 6054   4.362  24.835   2.723
33630W        W 6055   8.289  31.792  13.586
33631W        W 6056   4.347  31.492  12.406
33632W        W 6057   4.728  13.256   1.696
33633W        W 6058  36.339  33.613  11.079
33634W        W 6059   5.906  38.272   4.235
33635W        W 6060  25.522  16.706   1.940
33636W        W 6061  21.189  20.787  11.624
33637W        W 6062  38.866  31.482   1.689
33638W        W 6063  40.924  26.001  11.553
33639W        W 6064  39.149  34.098   4.141
33640W        W 6065  14.750  16.389   1.266
33641W        W 6066   8.767  17.578   1.222
33642W        W 6067  36.467   7.217   2.347
33643W        W 6068  24.221  13.109  11.670
33644W        W 6069  11.073  40.508   0.089
33645W        W 6070  37.472   7.432   1.995
33646W        W 6071  23.650   9.272   1.992
33647W        W 6072  18.788  34.621   4.603
33648W        W 6073  14.234  41.083   2.741
33649W        W 6074  39.832   5.666  13.771
33650W        W 6075   3.066  39.673   3.679
33651W        W 6076   3.479  16.841  11.455
33652W        W 6077  20.741  10.648   2.357
33653W        W 6078  34.366  13.285  12.395
33654W        W 6079  24.632  16.287  10.575
33655W        W 6080   7.423  44.294  13.560
33656W        W 6081  40.069  36.044  13.734
33657W        W 6082  32.652   4.978   3.354
33658W        W 6083  15.030   0.331   2.354
33659W        W 6084  12.206  43.730  11.604
33660W        W 6085  16.601  21.794  12.179
33661W        W 6086  39.015  42.075  12.795
33662W        W 6087   1.668  43.872   0.771
33663W        W 6088  37.511  40.983   3.035
33664W        W 6089  39.981  43.947  12.343
33665W        W 6090   4.338  21.631  12.375
33666W        W 6091   9.042  30.690  10.280
33667W        W 6092  27.697  44.858  12.942
33668W        W 6093  39.613  22.559  13.376
33669W        W 6094  37.045  39.642  14.259
33670W        W 6095   6.875  17.247   3.762
33671W        W 6096  21.525  28.347  10.438
33672W        W 6097  25.116  26.680  12.550
33673W        W 6098  31.625   4.881  12.365
33674W        W 6099  31.836   4.969   4.924
33675W        W 6100  38.806   9.368   3.234
33676W        W 6101  10.381  26.403  13.068
33677W        W 6102  39.739   7.688  14.753
33678W        W 6103  34.335  18.313  13.365
33679W        W 6104   4.407  11.953   4.559
33680W        W 6105  25.712  15.843   2.087
33681W        W 6106  37.059  12.558  12.542
33682W        W 6107  23.192  22.642  11.279
33683W        W 6108  30.511  27.543   3.647
33684W        W 6109  30.895   4.762  14.309
33685W        W 6110  30.931  38.129  11.849
33686W        W 6111  23.065   0.249   1.768
33687W        W 6112  10.635  12.830  12.003
33688W        W 6113  28.107  38.517   2.867
33689W        W 6114  13.564  38.425  14.323
33690W        W 6115  11.524  25.164  12.947
33691W        W 6116  44.739  44.824   0.942
33692W        W 6117  17.745  25.539   3.915
33693W        W 6118   2.251  31.558   4.065
33694W        W 6119   9.665  10.780   1.361
33695W        W 6120  18.836  27.974   4.508
33696W        W 6121  43.432   0.375   2.731
33697W        W 6122  10.206  22.320  10.166
33698W        W 6123  40.436   6.865  14.086
33699W        W 6124  16.291  14.290  13.006
33700W        W 6125  11.249  19.782  12.148
33701W        W 6126  16.240  23.746   0.725
33702W        W 6127   2.778  29.994  11.007
33703W        W 6128  13.824  30.617   1.255
33704W        W 6129  33.152  32.506   4.607
33705W        W 6130  39.408  28.740   0.485
33706W        W 6131   7.765  43.474   0.717
33707W        W 6132  40.547  25.632  11.486
33708W        W 6133  39.051   5.804  13.004
33709W        W 6134  41.854  40.767   1.376
33710W        W 6135   0.071  40.934   1.838
33711W        W 6136  37.405  24.136  11.097
33712W        W 6137  24.737  30.553  12.404
33713W        W 6138  29.994   2.947   0.363
33714W        W 6139  36.210  35.943   2.681
33715W        W 6140  36.900  15.394  13.956
33716W        W 6141  34.384  18.294  12.499
33717W        W 6142  35.381  26.680   4.586
33718W        W 6143   3.732  13.730   2.713
33719W        W 6144   0.262   0.253   0.312
33720W        W 6145  28.670  24.612   2.456
33721W        W 6146  19.537  12.698  14.207
33722W        W 6147  36.555  13.867   0.360
33723W        W 6148  37.103  35.225  11.983
33724W        W 6149  11.351   2.080  11.051
33725W        W 6150  21.676  26.466   3.846
33726W        W 6151  34.390  38.792   1.628
33727W        W 6152  34.962  28.338  13.344
33728W        W 6153  21.533  11.361   3.723
33729W        W 6154  11.616  20.255   1.851
33730W        W 6155   0.524  31.173   4.149
33731W        W 6156   5.653  39.903   0.706
33732W        W 6157  25.436  29.138   2.784
33733W        W 6158  22.996  15.828   4.756
33734W        W 6159  27.961   9.237   1.392
33735W        W 6160  38.679   1.506  14.752
33736W        W 6161  33.361  26.999   1.393
33737W        W 6162  40.381  40.410  13.100
33738W        W 6163  15.878  24.130  14.320
33739W        W 6164   0.458  34.934  10.428
33740W        W 6165  22.954  20.643   1.394
33741W        W 6166   1.949  26.974  14.162
33742W        W 6167  12.314  37.312  12.083
33743W        W 6168   3.346  35.638   3.927
33744W        W 6169   5.827  20.506  11.713
33745W        W 6170   4.418   6.477  13.576
33746W        W 6171   4.692  38.798  14.446
33747W        W 6172  11.239  26.714   2.250
33748W        W 6173  40.360   2.972  13.483
33749W        W 6174  21.199  26.627  10.640
33750W        W 6175  13.102   1.746   0.877
33751W        W 6176   2.512   2.272  13.377
33752W        W 6177   2.188   8.864   3.645
33753W        W 6178  33.866  12.204   0.420
33754W        W 6179  25.820  10.137   3.272
33755W        W 6180  25.118  43.842  12.988
33756W        W 6181  13.745  11.451   0.957
33757W        W 6182  25.050  11.874   3.322
33758W        W 6183  27.546  32.955  10.343
33759W        W 6184  25.145  39.066  13.945
33760W        W 6185  33.404  30.677  11.463
33761W        W 6186  14.188  39.231  12.393
33762W        W 6187  40.159  19.229   1.926
33763W        W 6188  42.673  10.173  12.698
33764W        W 6189  36.501  24.181  13.137
33765W        W 6190  34.460   0.233   0.382
33766W        W 6191   8.038  14.598  13.323
33767W        W 6192  27.537  44.714  11.549
33768W        W 6193   0.196  40.418   4.174
33769W        W 6194  13.114  18.529  14.901
33770W        W 6195  22.981  43.479   3.190
33771W        W 6196  37.489   0.375   1.869
33772W        W 6197   2.458  42.991   3.974
33773W        W 6198   7.361  10.806   0.795
33774W        W 6199  31.028  40.446   4.143
33775W        W 6200  17.540  15.310   1.773
33776W        W 6201  32.891  23.724   3.027
33777W        W 6202  13.610  35.706  12.370
33778W        W 6203  10.498   6.957   3.383
33779W        W 6204   0.934  10.211  10.221
33780W        W 6205  40.411  16.624   2.726
33781W        W 6206  11.729   4.669   4.629
33782W        W 6207  31.784  20.566  11.681
33783W        W 6208  19.803  23.360  13.763
33784W        W 6209  11.211  10.148  12.086
33785W        W 6210   8.920  27.591   0.635
33786W        W 6211  15.811  20.075  10.924
33787W        W 6212  27.347  44.365  13.880
33788W        W 6213  19.195  40.382   4.614
33789W        W 6214   2.277  30.649   4.141
33790W        W 6215  31.477  29.090  11.132
33791W        W 6216  35.037  25.972   4.555
33792W        W 6217  20.481   0.897   3.738
33793W        W 6218  33.025  26.117  12.455
33794W        W 6219  41.959   6.575   0.871
33795W        W 6220  28.732   9.783   2.371
33796W        W 6221   8.367  43.917   3.119
33797W        W 6222  36.665  12.263  11.438
33798W        W 6223  41.038  21.504   3.026
33799W        W 6224  11.326  30.922  12.548
33800W        W 6225   5.775  15.612  13.970
33801W        W 6226  35.939  33.133  13.889
33802W        W 6227  33.568  30.037   2.924
33803W        W 6228  38.966  28.736  13.787
33804W        W 6229  16.066  42.508   0.917
33805W        W 6230  12.347   1.211   2.201
33806W        W 6231  29.925   4.284   3.387
33807W        W 6232  33.496   1.018  13.491
33808W        W 6233   2.435  41.000  10.754
33809W        W 6234   0.713   5.787   9.919
33810W        W 6235  28.494   3.919   0.544
33811W        W 6236  25.904   0.518  14.874
33812W        W 6237  29.354   5.633   2.806
33813W        W 6238  23.713   9.610  12.880
33814W        W 6239  33.133  23.053   4.151
33815W        W 6240   0.763  37.404   4.571
33816W        W 6241  28.445  32.496   5.468
33817W        W 6242  19.109  17.267  13.472
33818W        W 6243  33.473  23.337  12.835
33819W        W 6244  20.007  12.817   0.024
33820W        W 6245  10.217  11.781  12.573
33821W        W 6246  35.454  23.095  14.581
33822W        W 6247  42.950   7.415  14.693
33823W        W 6248  29.619  30.621   3.698
33824W        W 6249  24.240   1.993  13.290
33825W        W 6250  33.792  22.751   4.626
33826W        W 6251   4.235  32.690   3.870
33827W        W 6252   1.557   8.124   0.885
33828W        W 6253  34.405  34.631  11.854
33829W        W 6254   1.378  11.367   2.239
33830W        W 6255  29.626  44.730  12.128
33831W        W 6256  20.311   0.396  13.026
33832W        W 6257  44.276  10.811  14.446
33833W        W 6258  44.597  17.769  14.516
33834W        W 6259   9.006  37.884   9.380
33835W        W 6260  35.492  20.308  12.926
33836W        W 6261  41.855  26.192  12.447
33837W        W 6262  18.285  21.028  11.675
33838W        W 6263  38.827  39.912   1.734
33839W        W 6264  38.500  25.506   1.641
33840W        W 6265  13.526  30.845   0.898
33841W        W 6266   0.720  42.829  14.134
33842W        W 6267  26.225  12.333  10.588
33843W        W 6268  13.588  13.141  14.320
33844W        W 6269   3.187  43.012   3.282
33845W        W 6270   6.918  43.553   3.238
33846W        W 6271  16.075   1.500   5.036
33847W        W 6272  21.514  14.192   3.717
33848W        W 6273  39.661  14.739  10.663
33849W        W 6274  22.253  22.336   4.636
33850W        W 6275  30.140  21.251   1.799
33851W        W 6276  19.317  28.015  12.084
33852W        W 6277  36.529  26.742   3.649
33853W        W 6278   1.120  22.197  13.574
33854W        W 6279  37.435  16.874  11.509
33855W        W 6280   2.312  17.577   0.240
33856W        W 6281  44.476  37.811   2.053
33857W        W 6282  38.726   6.308  14.438
33858W        W 6283  24.819  17.303  11.404
33859W        W 6284  37.849   4.202  12.884
33860W        W 6285   4.128  31.122   1.315
33861W        W 6286  22.663  34.634  10.113
33862W        W 6287   5.776   2.252  13.545
33863W        W 6288  43.874  33.135   4.742
33864W        W 6289  18.166  40.471  14.498
33865W        W 6290  40.780  17.663   1.954
33866W        W 6291  26.394   8.755  10.414
33867W        W 6292  42.054  20.673   0.809
33868W        W 6293  36.454   3.186  12.424
33869W        W 6294  38.945  43.271   1.223
33870W        W 6295   1.791  10.476   2.693
33871W        W 6296  30.689  34.783  11.022
33872W        W 6297  30.041  34.133  13.897
33873W        W 6298  41.024  10.151  13.296
33874W        W 6299  40.502  23.204   1.410
33875W        W 6300   8.097   5.989  12.783
33876W        W 6301  33.575  16.367  14.434
33877W        W 6302  24.129  18.568  11.612
33878W        W 6303  14.658  17.119   1.459
33879W        W 6304  30.066  17.646   2.563
33880W        W 6305  26.900  39.612  12.787
33881W        W 6306  44.161  26.936  10.654
33882W        W 6307  16.461   5.030  14.018
33883W        W 6308  12.319   9.462   1.122
33884W        W 6309   4.357  42.948   1.448
33885W        W 6310  42.388  39.584   3.842
33886W        W 6311  20.300   6.211   1.918
33887W        W 6312  12.927   9.818  11.132
33888W        W 6313   4.643  42.282   1.033
33889W        W 6314  15.722  14.791   3.677
33890W        W 6315   6.168  15.280  13.205
33891W        W 6316  11.713  43.220   0.933
33892W        W 6317  42.743   4.922  11.552
33893W        W 6318  35.102   5.981   9.955
33894W        W 6319  13.755   2.294   4.090
33895W        W 6320  37.450  30.971   3.702
33896W        W 6321  28.278  19.558   2.870
33897W        W 6322   0.500  19.639   3.254
33898W        W 6323  14.985  23.162  10.091
33899W        W 6324  19.950  23.050   3.261
33900W        W 6325  13.358  22.202  10.225
33901W        W 6326  20.388   2.839  13.833
33902W        W 6327   2.934  15.987   4.677
33903W        W 6328  13.059  20.387  12.772
33904W        W 6329  43.948   5.366   2.856
33905W        W 6330  31.010  35.388   4.177
33906W        W 6331  15.132  29.947  11.174
33907W        W 6332   5.798  25.934  12.942
33908W        W 6333  44.447  21.134  14.142
33909W        W 6334   2.889  44.704   2.908
33910W        W 6335  43.462  43.470   3.626
33911W        W 6336  19.243  26.514   3.859
33912W        W 6337  17.788  22.070   1.660
33913W        W 6338  40.790  28.406   4.610
33914W        W 6339  37.356  44.276   3.643
33915W        W 6340  15.316  43.916   0.750
33916W        W 6341  15.147  21.705   0.945
33917W        W 6342  42.630  14.895   0.296
33918W        W 6343  28.202  18.504   2.995
33919W        W 6344  39.346  42.277   5.466
33920W        W 6345  32.437  14.601  10.654
33921W        W 6346  27.165  11.352  14.197
33922W        W 6347  15.841  20.210  14.857
33923W        W 6348  42.390  42.519   2.821
33924W        W 6349  28.840   8.448   4.969
33925W        W 6350   5.207   2.875   1.737
33926W        W 6351   8.979  36.338   5.018
33927W        W 6352  24.348  30.041  11.672
33928W        W 6353   3.083  10.976   1.484
33929W        W 6354  17.257  29.507   2.822
33930W        W 6355  25.891  22.760   4.986
33931W        W 6356  18.592  28.140  11.530
33932W        W 6357  14.910  40.388  10.734
33933W        W 6358  20.295   2.987   4.603
33934W        W 6359  15.292  32.091  12.855
33935W        W 6360  39.654  16.790  12.594
33936W        W 6361   4.855  10.627  11.025
33937W        W 6362  16.995  31.956   4.569
33938W        W 6363  27.624   0.336   4.801
33939W        W 6364  23.121  38.051  13.929
33940W        W 6365  18.631   2.396   9.972
33941W        W 6366  43.573  18.721  12.817
33942W        W 6367  30.949  38.296   4.977
33943W        W 6368   6.410  11.803  14.420
33944W        W 6369  40.429   6.701  12.450
33945W        W 6370  12.103  40.722   0.848
33946W        W 6371  41.977  29.573  12.488
33947W        W 6372  28.000  26.336   3.965
33948W        W 6373  14.598  29.817  11.139
33949W        W 6374  23.504  24.070  11.001
33950W        W 6375  11.760  35.711  12.610
33951W        W 6376  12.357   7.975  13.756
33952W        W 6377  14.247  21.347  14.852
33953W        W 6378   3.455  26.536   4.435
33954W        W 6379   3.176  28.719   0.233
33955W        W 6380  40.551  35.085  11.581
33956W        W 6381  22.631  40.917   1.817
33957W        W 6382  28.814   9.786  12.740
33958W        W 6383  31.467   2.887   4.443
33959W        W 6384  19.649  14.312  12.056
33960W        W 6385  12.223  25.143  14.367
33961W        W 6386   1.979   3.374  14.939
33962W        W 6387  37.665  44.640  10.562
33963W        W 6388  34.992  16.071   3.972
33964W        W 6389  41.701  27.144   0.427
33965W        W 6390   4.970  34.449   4.707
33966W        W 6391  26.425  22.128  13.117
33967W        W 6392  16.516  22.011  13.855
33968W        W 6393  40.420  42.402  10.276
33969W        W 6394  41.905  26.190   2.330
33970W        W 6395  38.854  43.725   1.441
33971W        W 6396   5.278  41.431   1.946
33972W        W 6397  38.333  27.572   2.546
33973W        W 6398  14.432  15.681   3.677
33974W        W 6399   6.588  21.977  11.181
33975W        W 6400  25.236  40.296   2.290
33976W        W 6401  25.705   2.787   4.612
33977W        W 6402   0.647   6.171   1.662
33978W        W 6403  40.871  10.172  10.788
33979W        W 6404  35.020  44.749   3.738
33980W        W 6405  12.369  43.315   4.179
33981W        W 6406  39.753  18.669  12.928
33982W        W 6407  37.915  12.566   3.142
33983W        W 6408  12.826  32.159  11.209
33984W        W 6409  35.417   8.423  11.604
33985W        W 6410  35.363  25.469   4.148
33986W        W 6411  43.434  24.496   1.799
33987W        W 6412  15.307  37.144   0.746
33988W        W 6413  31.588  15.751  11.040
33989W        W 6414  31.623  11.654  12.484
33990W        W 6415  40.726  23.209  13.726
33991W        W 6416  37.642  10.332  14.265
33992W        W 6417  30.448  34.763  11.661
33993W        W 6418  20.190   4.377   4.532
33994W        W 6419  21.664  21.610  13.211
33995W        W 6420  20.059   0.281   2.272
33996W        W 6421  37.842  29.176  12.896
33997W        W 6422  42.408  10.001  14.448
33998W        W 6423  27.527  35.805  12.499
33999W        W 6424  41.928  18.944  13.570
34000W        W 6425  25.463  41.534  13.885
34001W        W 6426  26.516  26.472   1.347
34002W        W 6427  41.146  31.560  13.092
34003W        W 6428  11.388  23.473   4.264
34004W        W 6429  27.768  23.708   0.675
34005W        W 6430   1.710  26.698   0.789
34006W        W 6431  11.330  15.648   0.379
34007W        W 6432  36.413  39.914  11.084
34008W        W 6433  38.763  21.033   1.915
34009W        W 6434  37.664  42.199  10.795
34010W        W 6435   4.873  30.571   1.495
34011W        W 6436  24.467  35.585   1.380
34012W        W 6437  16.605  23.108  14.842
34013W        W 6438   3.787   5.130   4.165
34014W        W 6439  25.569  44.335   4.663
34015W        W 6440  29.246   3.249  12.996
34016W        W 6441  24.603   2.832   3.798
34017W        W 6442  38.258  12.826   0.893
34018W        W 6443  16.686  43.392  12.779
34019W        W 6444  11.460   7.619  14.272
34020W        W 6445  18.761   6.179   0.225
34021W        W 6446   6.823  11.553  11.909
34022W        W 6447  41.876  40.579   5.312
34023W        W 6448  11.625  17.226   2.616
34024W        W 6449  38.764  21.581   0.311
34025W        W 6450  35.916  41.284  13.443
34026W        W 6451  34.721  17.395   4.175
34027W        W 6452  14.173  12.465  11.175
34028W        W 6453  29.294   8.721   4.909
34029W        W 6454  27.966  11.679  13.272
34030W        W 6455  37.785  28.023   4.909
34031W        W 6456  29.956  18.169  10.178
34032W        W 6457   4.658  32.150   2.218
34033W        W 6458  14.827  38.744  12.754
34034W        W 6459  39.940  31.677  13.463
34035W        W 6460  32.374  37.634  12.517
34036W        W 6461  42.808  26.540   1.639
34037W        W 6462  28.516  17.034   2.365
34038W        W 6463  40.045   6.618   3.605
34039W        W 6464  35.433   1.967  13.440
34040W        W 6465  11.789  13.821   4.347
34041W        W 6466  24.711  31.041   0.104
34042W        W 6467  27.568  44.418   1.692
34043W        W 6468  33.978   3.969  12.497
34044W        W 6469  42.916   8.527   3.754
34045W        W 6470  21.929  43.936   2.873
34046W        W 6471  32.382  32.385  10.693
34047W        W 6472  10.609  20.294   1.905
34048W        W 6473   4.834  16.200  11.005
34049W        W 6474   1.749  39.609   0.060
34050W        W 6475  31.168   8.188   0.256
34051W        W 6476  24.505  19.020  11.684
34052W        W 6477  12.300   4.723   2.432
34053W        W 6478  44.517  40.619  13.868
34054W        W 6479   7.261  22.790   3.860
34055W        W 6480  24.994  28.077  11.195
34056W        W 6481  26.713  27.982   2.157
34057W        W 6482  25.431   0.759   1.399
34058W        W 6483  10.924  15.037  12.482
34059W        W 6484  19.163  27.195  13.103
34060W        W 6485  43.912  22.105  13.820
34061W        W 6486  44.481   9.204   0.979
34062W        W 6487  36.394   6.395  11.472
34063W        W 6488   8.398  16.269   1.645
34064W        W 6489  25.932  26.081   0.964
34065W        W 6490  27.569  16.641  14.538
34066W        W 6491  43.282  34.556  10.666
34067W        W 6492  37.920  42.971   0.794
34068W        W 6493  13.312  23.031   4.600
34069W        W 6494  43.727  24.355  14.540
34070W        W 6495  30.136  28.528  13.843
34071W        W 6496  19.746  39.298  12.401
34072W        W 6497  15.744  44.503   4.731
34073W        W 6498  42.526   1.697  12.503
34074W        W 6499  26.902   7.368   2.856
34075W        W 6500  18.977  10.289   4.830
34076W        W 6501  18.097  16.530  14.749
34077W        W 6502  30.518  42.932   2.036
34078W        W 6503   6.793  22.108   3.312
34079W        W 6504  27.078  24.622  14.830
34080W        W 6505  40.511   1.649   1.935
34081W        W 6506  25.488  27.414   2.272
34082W        W 6507   2.518  35.981   4.414
34083W        W 6508  12.381  10.593  13.025
34084W        W 6509   4.530   6.333  11.545
34085W        W 6510  25.080  13.521   1.724
34086W        W 6511   8.435   2.413  13.867
34087W        W 6512  44.433  28.346  13.779
34088W        W 6513  43.284  31.417   1.714
34089W        W 6514   8.017   2.233   2.350
34090W        W 6515  13.944  10.860   2.830
34091W        W 6516  10.208  14.367  11.958
34092W        W 6517   8.706  21.519   1.251
34093W        W 6518  23.712   1.414   1.477
34094W        W 6519  36.070  29.182  12.862
34095W        W 6520  35.398  23.553  12.548
34096W        W 6521  38.915  21.247   0.759
34097W        W 6522  29.558  36.221  11.401
34098W        W 6523  18.392   7.361  10.793
34099W        W 6524  39.597   2.997  11.146
34100W        W 6525  43.402  27.021   0.624
34101W        W 6526  20.045  14.723   0.521
34102W        W 6527  12.266   1.544   0.797
34103W        W 6528  39.930  12.134   0.893
34104W        W 6529  36.432  26.088  13.406
34105W        W 6530  12.674  29.360   4.059
34106W        W 6531  41.995   2.903  11.586
34107W        W 6532  30.707  15.438   1.166
34108W        W 6533  19.023  43.014  14.805
34109W        W 6534  30.122  10.681  14.817
34110W        W 6535  38.308   1.458   4.007
34111W        W 6536  20.840  15.667  12.137
34112W        W 6537  21.637  25.283   4.156
34113W        W 6538  21.528  14.829  13.970
34114W        W 6539   8.920  43.415  11.757
34115W        W 6540  30.532  29.831   1.196
34116W        W 6541   3.827  19.207  10.736
34117W        W 6542  36.422  44.825   1.272
34118W        W 6543  24.290  10.340   0.339
34119W        W 6544  42.428   9.783  12.024
34120W        W 6545  37.823   3.383   0.494
34121W        W 6546  44.277  39.445   4.890
34122W        W 6547  42.109  22.528  11.553
34123W        W 6548  16.605  17.892   4.199
34124W        W 6549  14.850  31.150   3.632
34125W        W 6550  16.644   7.364  13.438
34126W        W 6551  40.557  12.219   2.590
34127W        W 6552  14.888   4.564  10.784
34128W        W 6553  11.776  36.449   0.733
34129W        W 6554  43.583  24.648  10.678
34130W        W 6555  44.180  12.842  11.678
34131W        W 6556  11.138  41.922   2.913
34132W        W 6557  34.275  15.756  13.321
34133W        W 6558  17.406  24.980   1.353
34134W        W 6559  25.606  26.991   1.314
34135W        W 6560  13.618  22.050  12.362
34136W        W 6561  16.757  18.357  10.810
34137W        W 6562  18.075   0.262  10.461
34138W        W 6563  26.454  31.613  11.184
34139W        W 6564  38.128  34.386   1.871
34140W        W 6565  15.129  32.529   3.327
34141W        W 6566  41.731  34.056  14.617
34142W        W 6567  20.502  23.001  11.232
34143W        W 6568  38.372  31.078  12.036
34144W        W 6569  20.538  39.272   3.053
34145W        W 6570  17.592  39.818  13.297
34146W        W 6571  38.958  31.979  10.133
34147W        W 6572  18.838  29.584  14.341
34148W        W 6573  30.919  12.839   2.712
34149W        W 6574  30.167  27.133  10.688
34150W        W 6575  16.594   1.815   2.368
34151W        W 6576   0.172  22.169  14.576
34152W        W 6577   8.494   0.532  13.035
34153W        W 6578   7.353  36.848  11.678
34154W        W 6579   8.216  17.939  13.700
34155W        W 6580  43.013  32.373   0.621
34156W        W 6581  18.466  36.619   2.880
34157W        W 6582  40.638  19.005   2.004
34158W        W 6583  29.989   1.196  14.808
34159W        W 6584  42.358  28.446  12.479
34160W        W 6585  35.375  24.872  12.593
34161W        W 6586  14.726   9.895  13.006
34162W        W 6587  31.641   9.410   2.301
34163W        W 6588  35.281   4.542   4.500
34164W        W 6589  36.993  40.892   3.115
34165W        W 6590  19.208  39.099  14.510
34166W        W 6591  20.084  30.421   1.789
34167W        W 6592   5.865  31.811  12.598
34168W        W 6593  12.066  42.006  14.779
34169W        W 6594  17.231   1.467  14.451
34170W        W 6595  12.260  24.264  14.332
34171W        W 6596  31.942  23.823  14.843
34172W        W 6597  27.988  28.902   1.745
34173W        W 6598  13.034  27.103  11.328
34174W        W 6599  24.668  15.021  11.200
34175W        W 6600   9.914  10.198   2.703
34176W        W 6601  27.556  22.086   3.912
34177W        W 6602  44.276  30.367   4.674
34178W        W 6603  11.833  32.988   2.432
34179W        W 6604  32.306   8.674   4.565
34180W        W 6605  15.928  25.547   1.748
34181W        W 6606  42.429  23.060   0.498
34182W        W 6607   0.714  16.573   3.170
34183W        W 6608  34.708  42.791   1.757
34184W        W 6609  10.890  17.157  13.574
34185W        W 6610  43.960  29.277   1.870
34186W        W 6611   7.595  12.604  14.899
34187W        W 6612  20.559   4.448  13.437
34188W        W 6613   6.177  15.754   3.206
34189W        W 6614  41.480  25.475  12.359
34190W        W 6615   5.709  39.290  10.752
34191W        W 6616   3.929  44.884  13.313
34192W        W 6617  12.625  44.304   1.737
34193W        W 6618   1.992  25.630   2.155
34194W        W 6619  12.466  43.958   3.825
34195W        W 6620  37.260   1.701  11.213
34196W        W 6621   2.411  14.831  10.414
34197W        W 6622   4.567  34.546   1.798
34198W        W 6623  15.349  40.387   0.215
34199W        W 6624  36.871  10.386   3.813
34200W        W 6625  25.564  20.519  13.049
34201W        W 6626  31.259   8.969  10.115
34202W        W 6627  17.668  33.580   2.799
34203W        W 6628  29.517  10.192  11.740
34204W        W 6629  13.773  25.603   1.607
34205W        W 6630  44.796   6.345   0.937
34206W        W 6631  35.868  36.479  10.699
34207W        W 6632  14.002  13.259   1.902
34208W        W 6633  24.756  16.132   1.884
34209W        W 6634   9.133  39.071   4.717
34210W        W 6635  30.457  26.458  11.172
34211W        W 6636  22.162  20.574  14.342
34212W        W 6637  25.124  39.966   4.206
34213W        W 6638  21.385  35.242  12.256
34214W        W 6639  19.159  24.263   2.784
34215W        W 6640   2.499   6.221  14.790
34216W        W 6641   7.633  39.418   1.440
34217W        W 6642   6.689   6.985  11.631
34218W        W 6643  18.999  17.075   2.233
34219W        W 6644  41.762  38.558  10.552
34220W        W 6645  41.826  44.621   4.590
34221W        W 6646  30.689  20.645  12.584
34222W        W 6647  31.642  28.186  11.009
34223W        W 6648  21.210  37.402   3.243
34224W        W 6649   6.914  16.875  12.631
34225W        W 6650  24.839  36.905   2.385
34226W        W 6651  14.901  37.423   1.731
34227W        W 6652  17.794  29.837   5.064
34228W        W 6653  44.842  20.525  14.032
34229W        W 6654  32.394  43.110  11.070
34230W        W 6655  36.932  14.208  11.419
34231W        W 6656  20.640  32.399  12.178
34232W        W 6657  44.042  43.907  13.033
34233W        W 6658  21.574  23.296  14.705
34234W        W 6659  12.684  42.579  14.485
34235W        W 6660   6.737   1.511   3.531
34236W        W 6661  44.768  41.817  14.406
34237W        W 6662  30.610  31.482   4.724
34238W        W 6663  41.276  27.149  14.563
34239W        W 6664  42.763   2.909   4.479
34240W        W 6665  32.530  37.126  11.188
34241W        W 6666   2.184   0.676  11.071
34242W        W 6667  35.608  20.625  11.483
34243W        W 6668  30.870  25.245  11.920
34244W        W 6669  42.980  26.030  14.455
34245W        W 6670  19.102  19.068  10.919
34246W        W 6671  15.484  27.687  13.950
34247W        W 6672  18.199  39.671  14.041
34248W        W 6673   0.029  25.236   3.640
34249W        W 6674  24.142   6.206  10.148
34250W        W 6675  25.494  21.290  11.555
34251W        W 6676   9.647  27.715   1.763
34252W        W 6677  33.710  40.624   2.864
34253W        W 6678  26.099  32.456   0.200
34254W        W 6679  22.482   9.743  13.767
34255W        W 6680  34.319  25.662   0.860
34256W        W 6681  32.418   9.282   1.686
34257W        W 6682  29.630  23.212   2.299
34258W        W 6683   6.776  34.150   1.644
34259W        W 6684   1.321  40.294  11.730
34260W        W 6685  36.522  21.878  10.641
34261W        W 6686  37.833  13.835   1.272
34262W        W 6687  40.003   3.501  12.864
34263W        W 6688  13.197   5.280   1.228
34264W        W 6689  18.199  21.796   1.910
34265W        W 6690  14.559  14.651   0.901
34266W        W 6691   6.231  25.927  13.612
34267W        W 6692  37.593  12.104  12.210
34268W        W 6693  29.897   9.129   3.737
34269W        W 6694  17.910   0.842  14.656
34270W        W 6695  10.385  11.786  14.713
34271W        W 6696  17.087  19.098  14.734
34272W        W 6697  13.562  27.124   4.644
34273W        W 6698   3.952  17.863  12.083
34274W        W 6699  19.261  32.095  13.477
34275W        W 6700   1.311  32.200  12.022
34276W        W 6701  23.331   4.988   2.792
34277W        W 6702  23.511  18.163   1.668
34278W        W 6703  43.473   4.188  11.767
34279W        W 6704  15.248  36.476   4.795
34280W        W 6705   1.587  26.077  11.917
34281W        W 6706  17.243  17.248  12.004
34282W        W 6707  24.796  11.283  12.028
34283W        W 6708  42.769   5.264  12.503
34284W        W 6709  31.885  44.060   0.352
34285W        W 6710  16.237  17.114  11.991
34286W        W 6711   9.756   3.810  11.688
34287W        W 6712   6.405  23.464  12.639
34288W        W 6713   0.518  41.349  11.318
34289W        W 6714   6.499  44.319   1.725
34290W        W 6715  11.183  11.096  13.550
34291W        W 6716  26.991   6.352  14.752
34292W        W 6717  40.442  26.044  11.770
34293W        W 6718  40.976  26.449   5.115
34294W        W 6719  23.513  22.932   3.129
34295W        W 6720  30.878  21.115  10.664
34296W        W 6721  16.130  18.688   1.190
34297W        W 6722   5.793   9.873   1.687
34298W        W 6723  32.468  43.847   1.277
34299W        W 6724  39.385   1.401   0.943
34300W        W 6725  24.916  37.041  11.573
34301W        W 6726   9.472  40.952  14.264
34302W        W 6727  32.765   3.434  11.056
34303W        W 6728  26.183  10.103  14.719
34304W        W 6729  22.044   2.852  12.449
34305W        W 6730  44.909   4.855  14.311
34306W        W 6731   9.667  25.485   2.126
34307W        W 6732  34.782  36.781   2.745
34308W        W 6733   4.006   9.936   3.644
34309W        W 6734   6.264  30.035   4.761
34310W        W 6735  43.272  27.921  14.299
34311W        W 6736   3.794   8.896   3.795
34312W        W 6737  32.887  13.323  10.876
34313W        W 6738  18.636  24.364   5.048
34314W        W 6739  12.801  30.454   1.414
34315W        W 6740  34.941  26.511   3.227
34316W        W 6741  38.876   7.476  11.370
34317W        W 6742  23.490   3.877  13.967
34318W        W 6743  32.812  38.359  11.590
34319W        W 6744  22.987  24.629  14.602
34320W        W 6745  41.040   0.304   3.195
34321W        W 6746  14.764  22.752   3.708
34322W        W 6747  29.936  37.845   2.839
34323W        W 6748  41.021  15.090  13.856
34324W        W 6749  24.626  21.262   1.762
34325W        W 6750   1.834   6.966  10.809
34326W        W 6751  33.966  43.819  10.669
34327W        W 6752  28.545  11.940   2.653
34328W        W 6753  30.822  14.934   0.502
34329W        W 6754   8.175  13.220   0.230
34330W        W 6755   9.897  15.167   1.451
34331W        W 6756  21.218   9.203  10.257
34332W        W 6757  20.502  11.270   2.273
34333W        W 6758  17.534  10.264  14.792
34334W        W 6759   6.331  14.524  12.022
34335W        W 6760  43.193   1.750  13.266
34336W        W 6761  31.619  10.162   4.153
34337W        W 6762  31.650  12.596  12.617
34338W        W 6763  41.014  24.204   0.969
34339W        W 6764  41.958  41.270  12.821
34340W        W 6765   2.256   3.837   4.305
34341W        W 6766  29.162  24.182   3.765
34342W        W 6767   5.710  41.954  13.956
34343W        W 6768   9.682   0.044   1.201
34344W        W 6769  21.158   3.103   4.592
34345W        W 6770  20.155  40.812   4.520
34346W        W 6771   7.847  26.843  10.630
34347W        W 6772  14.193  24.100  11.264
34348W        W 6773  12.845  14.572  11.888
34349W        W 6774  16.262   9.765   3.305
34350W        W 6775   7.387  41.496   0.047
34351W        W 6776  10.455   3.989   0.273
34352W        W 6777  28.179  12.451   0.884
34353W        W 6778   5.305  32.165  10.573
34354W        W 6779  38.875   3.184  12.024
34355W        W 6780  26.078  10.213   0.622
34356W        W 6781   2.375  21.796   2.245
34357W        W 6782  35.138  37.326   0.464
34358W        W 6783  30.562  18.289  14.890
34359W        W 6784  19.522   5.874   4.104
34360W        W 6785  11.888  29.081   0.953
34361W        W 6786  29.060  22.047  12.899
34362W        W 6787   4.250  38.368   3.581
34363W        W 6788  21.032  21.710   0.892
34364W        W 6789   8.956  11.780   2.210
34365W        W 6790  18.886  31.931  12.817
34366W        W 6791  33.098  36.509   0.333
34367W        W 6792   8.617  32.083   3.333
34368W        W 6793  35.508  19.546  11.993
34369W        W 6794  37.070  35.072   4.805
34370W        W 6795   3.701   0.734   3.697
34371W        W 6796  27.604  14.341  10.429
34372W        W 6797  43.863  20.726   3.713
34373W        W 6798  13.101  18.750  13.000
34374W        W 6799   3.727  34.684   3.184
34375W        W 6800  14.773   3.715  12.870
34376W        W 6801  27.483   9.372   4.207
34377W        W 6802  16.498  34.807  11.499
34378W        W 6803  37.562  29.659   1.984
34379W        W 6804  29.479  26.088  14.413
34380W        W 6805  10.436   7.495   1.770
34381W        W 6806  23.837  27.188  12.629
34382W        W 6807  32.031  28.254  12.946
34383W        W 6808  13.109  37.450  10.791
34384W        W 6809  42.803   9.255  11.066
34385W        W 6810  28.196  40.300   3.198
34386W        W 6811  30.123   6.247  12.252
34387W        W 6812   4.241  25.124   0.056
34388W        W 6813  26.198  17.607  14.011
34389W        W 6814  23.062   8.598   2.294
34390W        W 6815  31.206  41.991   4.457
34391W        W 6816   4.410  33.085  10.645
34392W        W 6817   2.785   5.759   4.551
34393W        W 6818  42.659   1.455  14.434
34394W        W 6819  32.473  32.145  13.058
34395W        W 6820  41.012  34.982  11.881
34396W        W 6821  26.688  20.038  12.906
34397W        W 6822  23.116   4.494  14.064
34398W        W 6823  33.161  21.696  13.275
34399W        W 6824  21.219  37.400  13.655
34400W        W 6825  27.681  25.976   3.738
34401W        W 6826  22.370  30.938  11.866
34402W        W 6827  22.831  23.819  12.619
34403W        W 6828  37.519  16.154  14.235
34404W        W 6829  25.644  42.288  11.589
34405W        W 6830  29.364  10.572  14.354
34406W        W 6831  10.595   2.972   2.733
34407W        W 6832   6.547   3.648  14.965
34408W        W 6833  18.284  20.675   3.488
34409W        W 6834   6.240  10.332  11.661
34410W        W 6835  38.439  37.504   2.184
34411W        W 6836   8.384  11.722   3.480
34412W        W 6837   9.823   3.422   0.787
34413W        W 6838  35.522  32.368   0.321
34414W        W 6839  30.674  10.311   4.497
34415W        W 6840   1.050  39.019  11.112
34416W        W 6841  21.037   8.904   0.913
34417W        W 6842   1.232   5.870   4.547
34418W        W 6843  40.346  36.796   4.336
34419W        W 6844  43.729  14.620   0.795
34420W        W 6845  39.253   4.688   2.261
34421W        W 6846   4.611  40.964  10.212
34422W        W 6847   8.036   0.900  11.970
34423W        W 6848   1.940  31.812   4.579
34424W        W 6849  26.484  37.741  14.266
34425W        W 6850  29.016  40.783  13.797
34426W        W 6851   6.590  30.700   3.679
34427W        W 6852   2.505  21.487  10.255
34428W        W 6853  35.117  43.661  14.878
34429W        W 6854  32.180  24.010   3.756
34430W        W 6855  28.169  25.024   5.018
34431W        W 6856   9.472  19.752  13.840
34432W        W 6857   9.417   3.309  12.968
34433W        W 6858  29.376  18.057  14.620
34434W        W 6859  14.694  38.855  14.746
34435W        W 6860  32.383  33.310  10.439
34436W        W 6861  44.498   2.900  14.400
34437W        W 6862  27.626  18.573  14.505
34438W        W 6863  24.188   8.911  12.419
34439W        W 6864  42.775   7.022   2.678
34440W        W 6865  34.421   3.161  12.580
34441W        W 6866  32.001   7.755  10.349
34442W        W 6867  39.969  12.176   4.675
34443W        W 6868   1.380  27.830   3.165
34444W        W 6869   3.912  31.805  12.482
34445W        W 6870  26.725   0.553   0.392
34446W        W 6871   8.357  17.847   2.770
34447W        W 6872   7.176  11.668  10.748
34448W        W 6873  42.544  42.775   4.725
34449W        W 6874  21.667  29.640  14.892
34450W        W 6875  27.740  30.131   1.848
34451W        W 6876  35.003  16.256   4.901
34452W        W 6877  21.446   6.491   4.548
34453W        W 6878  22.015  21.031  10.541
34454W        W 6879  35.368  38.950   0.930
34455W        W 6880   6.870  19.875  14.968
34456W        W 6881  32.568  11.720   2.240
34457W        W 6882  35.270  36.585   4.497
34458W        W 6883  28.300  16.262   1.520
34459W        W 6884   6.962  21.738   1.807
34460W        W 6885  13.740  27.176  14.449
34461W        W 6886  26.877  35.644  12.943
34462W        W 6887  25.586  39.384  14.758
34463W        W 6888  16.036  29.532   4.498
34464W        W 6889  28.283  24.694   0.399
34465W        W 6890  33.419  37.153   5.321
34466W        W 6891  38.519  40.773   2.700
34467W        W 6892  22.541  42.594  11.052
34468W        W 6893  38.443  24.929  10.948
34469W        W 6894  21.134   8.867   3.631
34470W        W 6895   3.671  29.928  12.935
34471W        W 6896   5.208  39.043   2.193
34472W        W 6897   9.872   4.845  12.522
34473W        W 6898  16.214   2.641   3.126
34474W        W 6899  29.953  22.661  10.716
34475W        W 6900   4.685   4.275   0.475
34476W        W 6901   8.408  38.334  11.525
34477W        W 6902  30.562  18.709  10.569
34478W        W 6903   2.191  14.410   1.931
34479W        W 6904  19.405  13.979   2.813
34480W        W 6905  32.212  33.926  13.054
34481W        W 6906  25.227  41.905  13.593
34482W        W 6907   1.934  15.588   4.768
34483W        W 6908  33.123  15.331   2.895
34484W        W 6909  37.171   1.936   0.389
34485W        W 6910  13.805  40.933   2.444
34486W        W 6911  28.691  25.997   0.538
34487W        W 6912  24.703  24.129  13.164
34488W        W 6913   9.180  22.257   4.536
34489W        W 6914   4.310  35.946  11.199
34490W        W 6915   7.132  23.484   1.515
34491W        W 6916  13.600  13.195   0.196
34492W        W 6917  38.892   4.210  13.069
34493W        W 6918  44.718   5.418   1.331
34494W        W 6919  24.647  27.690  12.812
34495W        W 6920  40.400  15.975  10.505
34496W        W 6921  14.991  31.666  12.969
34497W        W 6922  43.430  37.520  14.952
34498W        W 6923  11.595  12.375   0.113
34499W        W 6924   3.486  14.893   3.816
34500W        W 6925  30.620  29.839   1.709
34501W        W 6926  19.206  20.324   1.770
34502W        W 6927  36.422  34.126   1.832
34503W        W 6928  32.138  27.317  14.989
34504W        W 6929  21.607  13.303  14.293
34505W        W 6930  40.707   8.802  13.805
34506W        W 6931  11.813  25.397  12.483
34507W        W 6932   7.535  15.235  12.921
34508W        W 6933  27.654  10.383   1.827
34509W        W 6934  31.377  30.719   1.985
34510W        W 6935   4.950  19.726   4.195
34511W        W 6936  27.000   6.034   0.807
34512W        W 6937   5.658  21.415   9.622
34513W        W 6938  14.344  35.484  12.911
34514W        W 6939  23.274  33.669   4.632
34515W        W 6940   0.397   6.212   4.205
34516W        W 6941  10.142   8.951   1.387
34517W        W 6942  31.818  29.865   0.022
34518W        W 6943  15.420  37.438   1.712
34519W        W 6944  22.259  14.573   3.356
34520W        W 6945   9.816  38.569  11.351
34521W        W 6946  31.872  31.583   4.903
34522W        W 6947  13.364  36.310  14.262
34523W        W 6948   1.455  42.043  12.932
34524W        W 6949  18.348   7.206  11.646
34525W        W 6950   3.727  11.869  13.099
34526W        W 6951  20.566  15.103  11.465
34527W        W 6952  27.547  10.671  13.298
34528W        W 6953  29.595  13.395  13.367
34529W        W 6954  20.042  35.330  10.678
34530W        W 6955  37.893  11.400  13.534
34531W        W 6956  40.386  17.352  13.236
34532W        W 6957  44.737  29.553  13.542
34533W        W 6958   8.418  44.035  12.952
34534W        W 6959   2.479  23.134   2.826
34535W        W 6960  31.885  43.257  11.145
34536W        W 6961   5.558  29.150   1.871
34537W        W 6962   6.361  39.688   1.794
34538W        W 6963  43.005   3.880  10.623
34539W        W 6964  38.607   5.489   2.300
34540W        W 6965  23.462   4.453   2.022
34541W        W 6966  40.006  44.468   3.915
34542W        W 6967  40.285  18.703  12.872
34543W        W 6968   7.814   4.304  14.226
34544W        W 6969  19.230   0.919  12.554
34545W        W 6970  42.955   2.294  10.724
34546W        W 6971   9.119  12.725   4.191
34547W        W 6972  28.693  28.968  13.570
34548W        W 6973  29.274  37.333  10.406
34549W        W 6974   6.923  40.481   0.387
34550W        W 6975  44.023  17.274  10.809
34551W        W 6976  20.227  18.183   1.670
34552W        W 6977  24.259  11.658  14.968
34553W        W 6978   6.963  41.007  13.156
34554W        W 6979  37.052  24.970  11.906
34555W        W 6980   5.195   8.664   4.061
34556W        W 6981  23.693  33.284   0.430
34557W        W 6982  13.883  33.823  14.816
34558W        W 6983  10.624  41.294  13.077
34559W        W 6984  25.903  40.838  11.556
34560W        W 6985  13.863   7.381  11.583
34561W        W 6986  24.979   7.706  10.762
34562W        W 6987  44.883  22.783  11.111
34563W        W 6988  26.953   0.046   1.365
34564W        W 6989   0.930  29.500  11.125
34565W        W 6990  34.828  37.268   3.352
34566W        W 6991  44.325   3.344   2.432
34567W        W 6992  32.661  43.929   3.914
34568W        W 6993   3.484  33.830  11.069
34569W        W 6994  14.639  38.855   0.248
34570W        W 6995  29.537  30.889   4.561
34571W        W 6996   9.423  39.013  14.814
34572W        W 6997   5.256  32.956   4.773
34573W        W 6998  24.656   8.099  13.307
34574W        W 6999  26.870  28.854  13.874
34575W        W 7000  15.842  29.942   4.255
34576W        W 7001  35.647  44.796   3.127
34577W        W 7002  13.302   0.751  13.341
34578W        W 7003  11.353   7.213  13.342
34579W        W 7004   9.981  27.415  13.797
34580W        W 7005  28.933  31.892   2.793
34581W        W 7006   4.948  11.446   3.336
34582W        W 7007  42.650  26.655   3.986
34583W        W 7008  14.836   9.911   1.613
34584W        W 7009  27.563  34.041  11.231
34585W        W 7010  30.697  31.874  10.683
34586W        W 7011  21.191  42.411  12.469
34587W        W 7012  31.307   0.733  13.653
34588W        W 7013  42.820  39.474  13.039
34589W        W 7014  30.971  22.692  10.675
34590W        W 7015  40.389  33.585  13.065
34591W        W 7016  31.480  26.999  10.528
34592W        W 7017  32.395  34.787   1.862
34593W        W 7018  17.078  25.075  12.527
34594W        W 7019   4.222  31.882   2.203
34595W        W 7020  19.593  14.574  14.951
34596W        W 7021  30.753  41.367   1.381
34597W        W 7022  14.264  26.443  13.090
34598W        W 7023  29.098  15.650   4.626
34599W        W 7024  40.040  42.390  14.969
34600W        W 7025   1.270   6.097  11.722
34601W        W 7026  30.027  41.849   0.853
34602W        W 7027  13.146  11.811  11.417
34603W        W 7028  44.333  32.072  10.736
34604W        W 7029  18.315  28.956  12.031
34605W        W 7030   1.818   1.729  11.250
34606W        W 7031   5.444   8.212   3.872
34607W        W 7032   5.812  11.203   2.839
34608W        W 7033  32.145  15.337   0.304
34609W        W 7034  10.942  43.272   0.456
34610W        W 7035  13.243  35.613   2.353
34611W        W 7036  19.565  17.675   0.038
34612W        W 7037  18.690  29.527   2.778
34613W        W 7038   3.883   7.260   4.801
34614W        W 7039  13.901  39.848  14.058
34615W        W 7040   7.154   7.702   1.896
34616W        W 7041  31.081  41.570  12.912
34617W        W 7042  33.662  32.070  13.003
34618W        W 7043  39.998  18.047   0.899
34619W        W 7044   8.145   0.233  11.492
34620W        W 7045  16.491   2.395   2.696
34621W        W 7046  40.330   9.236  12.535
34622W        W 7047  21.148  38.035   2.743
34623W        W 7048  20.218  12.440  11.928
34624W        W 7049  39.745  14.497   2.347
34625W        W 7050  15.751  11.386   1.859
34626W        W 7051  27.103   7.325   3.883
34627W        W 7052  12.735   1.482  13.299
34628W        W 7053  27.376  29.663  13.427
34629W        W 7054   5.672  14.890  14.588
34630W        W 7055  27.598   1.903   1.633
34631W        W 7056  31.826  35.381  12.458
34632W        W 7057   4.419  12.728   1.374
34633W        W 7058  16.815   0.379  12.380
34634W        W 7059  44.902  42.797   2.440
34635W        W 7060  29.677  29.198   1.167
34636W        W 7061  43.985  20.270  11.744
34637W        W 7062  23.013  10.700   0.271
34638W        W 7063   3.207  19.772   1.019
34639W        W 7064  15.934  10.605   4.945
34640W        W 7065  31.050  11.818  13.889
34641W        W 7066  30.054  12.886   2.324
34642W        W 7067  35.158  23.048  12.522
34643W        W 7068   3.476  26.377   2.663
34644W        W 7069  35.644   2.012   3.665
34645W        W 7070  30.246  22.111  13.560
34646W        W 7071  15.569  18.850  12.408
34647W        W 7072   1.343  24.122  11.362
34648W        W 7073  32.818  19.061  14.826
34649W        W 7074   8.831  19.173  10.929
34650W        W 7075  20.646  26.716   2.029
34651W        W 7076  21.544  39.091   1.976
34652W        W 7077  25.622  23.473  13.993
34653W        W 7078   8.572  18.439   0.002
34654W        W 7079  39.120  41.133  12.990
34655W        W 7080   6.013  37.378   2.941
34656W        W 7081  26.438  26.730  13.850
34657W        W 7082  31.240  18.220   5.074
34658W        W 7083   0.458  14.565   4.553
34659W        W 7084  44.517  12.205   1.960
34660W        W 7085  44.924  29.173  10.524
34661W        W 7086  36.859   3.844   3.195
34662W        W 7087  30.368  44.745  11.519
34663W        W 7088  37.041   3.840   2.263
34664W        W 7089  23.739  21.001  13.819
34665W        W 7090  33.084  11.401  14.360
34666W        W 7091  29.193  20.767   2.677
34667W        W 7092  16.302   7.660   3.438
34668W        W 7093  14.553  31.914   0.878
34669W        W 7094  41.878  29.140   2.877
34670W        W 7095  18.050  22.988  12.278
34671W        W 7096  15.664  36.045  11.580
34672W        W 7097  35.761  22.417   4.641
34673W        W 7098  33.574  27.882   1.312
34674W        W 7099   6.739  11.432   1.679
34675W        W 7100  23.022  35.961   4.509
34676W        W 7101   0.898   4.066   0.452
34677W        W 7102   3.924  42.867  13.071
34678W        W 7103  28.506  34.946  13.206
34679W        W 7104  43.252  18.590  13.749
34680W        W 7105   5.727  35.430   1.865
34681W        W 7106  38.948  13.301   4.113
34682W        W 7107  38.784  29.607  11.251
34683W        W 7108  22.800   4.153  14.461
34684W        W 7109   0.322  28.393  14.965
34685W        W 7110   9.346  22.958  13.628
34686W        W 7111  26.239   2.475  12.898
34687W        W 7112  19.333  21.262   1.933
34688W        W 7113   4.089   9.576  10.644
34689W        W 7114  38.087  13.322   0.962
34690W        W 7115  25.946   7.470   4.177
34691W        W 7116  18.972  23.527  13.913
34692W        W 7117  26.978  15.207   0.003
34693W        W 7118  21.393  37.725  13.274
34694W        W 7119   5.748   6.809  11.922
34695W        W 7120  42.015  21.082   3.367
34696W        W 7121  39.382  19.232   2.631
34697W        W 7122   5.444  39.267   2.601
34698W        W 7123   5.788  20.438   2.138
34699W        W 7124  18.636  40.744   1.771
34700W        W 7125  43.189  19.692  10.809
34701W        W 7126   9.652  32.623   2.754
34702W        W 7127  35.007  26.915   1.547
34703W        W 7128  35.677  22.578   3.287
34704W        W 7129  16.976  28.884  13.855
34705W        W 7130  19.707  26.073  12.111
34706W        W 7131  23.719  24.464  12.330
34707W        W 7132   7.787   1.940   0.883
34708W        W 7133  17.063  17.142  12.565
34709W        W 7134  18.461  41.856  14.226
34710W        W 7135  26.542  17.296  14.479
34711W        W 7136   9.815   5.244   0.356
34712W        W 7137  15.057   8.316   4.759
34713W        W 7138  36.114  27.527   4.159
34714W        W 7139  19.845   7.069  13.357
34715W        W 7140  17.549   9.134   4.649
34716W        W 7141   2.007   5.913   0.503
34717W        W 7142   8.297  28.330  14.311
34718W        W 7143  42.409  24.562   0.444
34719W        W 7144   2.269  37.106   2.302
34720W        W 7145  28.120   2.206  10.752
34721W        W 7146  41.382  22.823   0.705
34722W        W 7147  32.863  40.934  13.463
34723W        W 7148   1.986  34.542   2.808
34724W        W 7149  33.630  12.341  13.822
34725W        W 7150  10.238  19.995   1.172
34726W        W 7151   0.470  22.595   1.661
34727W        W 7152   2.786  18.857  11.138
34728W        W 7153  36.394  29.078   3.708
34729W        W 7154  15.446  25.046   2.830
34730W        W 7155  42.157  29.246   3.323
34731W        W 7156  23.212  17.720  11.094
34732W        W 7157  31.894  39.821  10.379
34733W        W 7158  22.608   7.956  11.022
34734W        W 7159   9.634  33.941  14.817
34735W        W 7160  17.006  26.740   3.333
34736W        W 7161  18.769  22.892   2.155
34737W        W 7162  42.536   3.311   2.705
34738W        W 7163  27.553  21.145  13.926
34739W        W 7164  41.181  37.697   2.785
34740W        W 7165  36.315  44.383  14.915
34741W        W 7166  16.205  12.771   2.585
34742W        W 7167  30.384  24.403  10.737
34743W        W 7168  36.187  23.372  10.586
34744W        W 7169  36.032  32.823  14.310
34745W        W 7170   7.538  31.238   4.318
34746W        W 7171  26.955  20.639   3.791
34747W        W 7172  26.964  38.389   4.137
34748W        W 7173  22.135  36.904   1.362
34749W        W 7174  37.956  31.160  10.665
34750W        W 7175   2.424   3.186  14.706
34751W        W 7176  34.348  40.129  14.766
34752W        W 7177   0.795  28.766   4.186
34753W        W 7178  15.291  20.122  11.911
34754W        W 7179  22.177  28.417  12.041
34755W        W 7180  41.263  18.795  14.429
34756W        W 7181  13.484   1.412   0.998
34757W        W 7182  40.267  35.345  11.097
34758W        W 7183  24.594  16.038   3.720
34759W        W 7184  32.400  22.008   2.607
34760W        W 7185   1.103  26.160   1.242
34761W        W 7186  34.362  23.557  12.498
34762W        W 7187   6.405   0.859  10.673
34763W        W 7188  37.581  19.725   4.864
34764W        W 7189  31.694  42.384   3.772
34765W        W 7190   4.364  24.269   2.947
34766W        W 7191  18.992   9.256   3.755
34767W        W 7192   6.459  34.920   2.487
34768W        W 7193   4.161  39.546  14.479
34769W        W 7194  42.910  42.675   2.891
34770W        W 7195   3.268  37.116  14.214
34771W        W 7196  21.249   6.784  12.945
34772W        W 7197  36.544  10.912  11.689
34773W        W 7198  41.842  23.446   0.662
34774W        W 7199  12.783  39.095  11.094
34775W        W 7200  15.294  29.169  10.750
34776W        W 7201  23.186  31.416  11.183
34777W        W 7202   9.005  42.180   4.436
34778W        W 7203  25.150  42.399   3.646
34779W        W 7204  33.528  21.533   1.796
34780W        W 7205  27.209   1.371   3.836
34781W        W 7206  19.540  35.517  12.310
34782W        W 7207   5.240  26.476  11.180
34783W        W 7208  25.034  39.646  10.792
34784W        W 7209  35.357  36.494  12.951
34785W        W 7210  43.251   6.662   2.732
34786W        W 7211  17.635   8.278  11.241
34787W        W 7212  15.102  25.254  11.058
34788W        W 7213  27.170  39.898  13.715
34789W        W 7214  22.303  23.167   3.641
34790W        W 7215   7.922  39.467   4.296
34791W        W 7216  12.237   3.391  10.474
34792W        W 7217  37.358   4.668   3.054
34793W        W 7218  43.023  17.395   4.507
34794W        W 7219  23.902  24.286   1.928
34795W        W 7220   0.932  24.704  13.880
34796W        W 7221   4.010  22.028  14.991
34797W        W 7222  17.793   4.604   4.614
34798W        W 7223  18.698  11.201   1.916
34799W        W 7224   9.185  31.939  14.189
34800W        W 7225  12.486   5.350  12.020
34801W        W 7226  17.326  43.935   2.937
34802W        W 7227  27.735   9.376  14.481
34803W        W 7228  44.745  37.074  12.048
34804W        W 7229   2.592  10.111   4.817
34805W        W 7230  42.339  21.223   1.536
34806W        W 7231  16.922  31.084   1.501
34807W        W 7232  26.028  32.860  14.834
34808W        W 7233  30.593  25.635   0.007
34809W        W 7234  21.943  18.686   3.768
34810W        W 7235   4.921  40.754   1.423
34811W        W 7236   9.004  28.449   2.449
34812W        W 7237  42.502  43.951  13.857
34813W        W 7238  25.955  43.086  12.124
34814W        W 7239  40.300   1.782   4.699
34815W        W 7240  29.723   4.187   2.912
34816W        W 7241  23.073  41.574  14.979
34817W        W 7242  36.900  20.585   0.276
34818W        W 7243   6.013  39.957  12.047
34819W        W 7244  13.482  35.492   1.840
34820W        W 7245  34.771  11.989   5.064
34821W        W 7246  43.790  12.066  11.942
34822W        W 7247   6.404  39.565   1.305
34823W        W 7248  13.725  38.830   1.607
34824W        W 7249   3.703  25.985  10.714
34825W        W 7250  17.777  21.609   0.364
34826W        W 7251  22.581  40.733  12.387
34827W        W 7252  32.667  37.992  14.451
34828W        W 7253  21.618  23.258  12.546
34829W        W 7254   0.413  22.881  13.797
34830W        W 7255  20.097  44.267   0.470
34831W        W 7256  13.661  11.653   0.470
34832W        W 7257  12.817  37.108   1.677
34833W        W 7258  22.298   6.741   2.349
34834W        W 7259  10.487  41.888   0.866
34835W        W 7260  31.474  32.407  11.474
34836W        W 7261  14.779  33.111   3.344
34837W        W 7262  19.656   1.365   3.853
34838W        W 7263  10.987  36.876  10.804
34839W        W 7264  27.904  26.513   0.619
34840W        W 7265  20.774  10.290  12.449
34841W        W 7266  30.439   7.811  11.110
34842W        W 7267   0.423  37.071   0.784
34843W        W 7268  40.678  22.030   0.595
34844W        W 7269  11.598  33.712   0.808
34845W        W 7270  10.369  21.479   0.784
34846W        W 7271  24.064   0.202  11.068
34847W        W 7272   9.017   3.647   0.435
34848W        W 7273   5.958  21.180  12.913
34849W        W 7274  24.541  40.876  13.998
34850W        W 7275  29.194   5.858  11.568
34851W        W 7276   1.208   7.207  13.381
34852W        W 7277   7.462  12.419  14.373
34853W        W 7278   5.175  19.827   3.388
34854W        W 7279  23.476  43.021  13.998
34855W        W 7280  20.115  19.172   0.155
34856W        W 7281  20.199  13.155   3.340
34857W        W 7282  37.292  20.501  10.317
34858W        W 7283  33.394   1.849  10.712
34859W        W 7284  41.920  16.853  14.062
34860W        W 7285  18.155  40.876   1.755
34861W        W 7286  22.558   0.314  11.623
34862W        W 7287  25.527  32.250  10.671
34863W        W 7288   7.670  39.141   2.327
34864W        W 7289  20.087  40.218   2.340
34865W        W 7290  22.150  37.027   0.845
34866W        W 7291  14.115  22.346  14.720
34867W        W 7292  17.266  12.677   4.179
34868W        W 7293  13.658  40.603   1.398
34869W        W 7294  41.944   2.837  14.211
34870W        W 7295   7.692  40.572  14.858
34871W        W 7296  33.432  23.168   0.882
34872W        W 7297  39.043  41.992   3.896
34873W        W 7298  44.682  24.812   3.590
34874W        W 7299  10.844  41.642  14.273
34875W        W 7300  39.799   0.270  10.204
34876W        W 7301  19.210  41.568   1.794
34877W        W 7302  14.415   3.316  12.453
34878W        W 7303  26.212   1.733  11.852
34879W        W 7304  13.166  11.446  14.837
34880W        W 7305  35.686  19.747  11.543
34881W        W 7306  15.894  23.724  13.906
34882W        W 7307  38.346  38.991   1.789
34883W        W 7308  44.069  17.719   3.207
34884W        W 7309  15.196  26.131  14.904
34885W        W 7310  27.889  10.847  12.989
34886W        W 7311  42.528  27.083  10.868
34887W        W 7312  25.258   3.404   3.396
34888W        W 7313  31.559  31.393   2.723
34889W        W 7314  27.768  26.903   2.281
34890W        W 7315  20.790  33.653   4.622
34891W        W 7316  20.650  43.181   0.867
34892W        W 7317  21.346  43.051  11.938
34893W        W 7318  34.401  20.048   4.647
34894W        W 7319  16.334  16.240   2.655
34895W        W 7320  12.917  42.006   4.567
34896W        W 7321  18.462  18.100   5.185
34897W        W 7322  43.304   8.294  13.287
34898W        W 7323  36.509   6.306   9.918
34899W        W 7324  13.440  26.855  13.676
34900W        W 7325   0.494  11.277   3.942
34901W        W 7326   2.254  40.045  14.447
34902W        W 7327   8.246   4.036   1.634
34903W        W 7328  23.164  35.516  14.881
34904W        W 7329   8.346   8.668  12.090
34905W        W 7330   5.514   1.823   0.379
34906W        W 7331  44.345  10.760   2.433
34907W        W 7332  25.541  32.948   1.201
34908W        W 7333  15.228  30.714   4.140
34909W        W 7334  35.026  41.827  13.438
34910W        W 7335  13.138  14.193  12.044
34911W        W 7336  35.732   2.791   3.215
34912W        W 7337  44.208  32.383  11.166
34913W        W 7338  13.772  36.059  12.003
34914W        W 7339  28.616  26.321   0.970
34915W        W 7340  17.134  36.893   2.395
34916W        W 7341   1.254  29.607  10.709
34917W        W 7342  24.941  40.932  12.341
34918W        W 7343  39.085  15.606   1.231
34919W        W 7344  23.795  33.510  14.976
34920W        W 7345   5.927   8.607  11.179
34921W        W 7346  24.855  22.398   1.324
34922W        W 7347  40.564  40.097   0.732
34923W        W 7348  38.842  31.192  12.963
34924W        W 7349   8.741  10.809  12.616
34925W        W 7350  19.784  32.055   5.704
34926W        W 7351  38.413  11.255  13.564
34927W        W 7352  20.604  32.350  11.684
34928W        W 7353  13.592   6.317   4.780
34929W        W 7354  39.365  26.098   2.324
34930W        W 7355   6.896   6.793   1.612
34931W        W 7356  20.512  23.025   4.173
34932W        W 7357  19.685  19.993   2.940
34933W        W 7358  24.540   9.603  13.412
34934W        W 7359  17.438  39.919   2.754
34935W        W 7360   1.383  22.928   4.118
34936W        W 7361  37.652  20.705   1.903
34937W        W 7362   5.313   7.279   1.137
34938W        W 7363   9.615  11.830  10.722
34939W        W 7364  11.753  12.441   4.240
34940W        W 7365   4.758  18.986   2.237
34941W        W 7366  27.994  21.555   4.588
34942W        W 7367   2.418  17.129   0.998
34943W        W 7368  27.163  18.132   4.730
34944W        W 7369   8.928  20.253  10.902
34945W        W 7370  25.026  33.383  11.026
34946W        W 7371   1.487  40.501   2.321
34947W        W 7372  30.216  34.314  11.517
34948W        W 7373  34.480  16.828  12.364
34949W        W 7374  44.561  34.400   4.583
34950W        W 7375  36.396  31.374  13.501
34951W        W 7376  12.590   1.174   2.661
34952W        W 7377  38.940  14.737   2.029
34953W        W 7378  25.207  34.872  11.468
34954W        W 7379   7.653   9.180   4.698
34955W        W 7380   3.243  29.127  11.036
34956W        W 7381  41.399  41.906   2.193
34957W        W 7382  24.936   9.153   5.325
34958W        W 7383  44.775  23.690   4.491
34959W        W 7384   1.466  19.094  11.864
34960W        W 7385  10.732  17.936   2.420
34961W        W 7386  22.917  17.804   1.770
34962W        W 7387  16.532  18.914   2.318
34963W        W 7388  14.189  23.630   0.821
34964W        W 7389  44.264   9.410   2.753
34965W        W 7390  18.596  25.254   2.787
34966W        W 7391  23.146  34.691   3.702
34967W        W 7392  15.147  13.627   3.366
34968W        W 7393   0.553  22.038   0.486
34969W        W 7394  30.857   4.752   3.544
34970W        W 7395  23.685  31.258  14.965
34971W        W 7396  40.870  34.413   0.140
34972W        W 7397  10.847  40.801   4.687
34973W        W 7398  33.640  25.317  12.500
34974W        W 7399  34.020  39.945  12.158
34975W        W 7400  25.149  40.491   4.188
34976W        W 7401   8.261  24.443  11.640
34977W        W 7402  14.992  21.260  10.700
34978W        W 7403   6.219  42.739  10.553
34979W        W 7404   9.860  39.258   2.898
34980W        W 7405  25.149  33.814  14.933
34981W        W 7406  22.745  13.147   1.715
34982W        W 7407  36.194  15.641   1.767
34983W        W 7408  21.705  22.116  14.031
34984W        W 7409  16.602   7.158  12.944
34985W        W 7410  42.429  42.632   1.282
34986W        W 7411  11.466   7.857  13.034
34987W        W 7412  16.299  37.515  12.005
34988W        W 7413  40.424  35.559   1.180
34989W        W 7414  19.184   4.320   3.653
34990W        W 7415  27.983  12.444  11.160
34991W        W 7416  34.452  43.488   3.698
34992W        W 7417  43.243   8.881   4.627
34993W        W 7418  40.345  44.440  11.125
34994W        W 7419   9.720  16.829  11.206
34995W        W 7420  38.229  25.397   0.675
34996W        W 7421   4.909   0.611   1.312
34997W        W 7422  38.972   2.532   0.533
34998W        W 7423   3.413  11.303   1.174
34999W        W 7424  14.721   1.392   4.403
35000W        W 7425  11.640   2.740  13.340
35001W        W 7426  31.462  13.112   0.785
35002W        W 7427  30.072  22.068   4.110
35003W        W 7428   9.425  12.872   2.662
35004W        W 7429  29.420  21.296  10.700
35005W        W 7430  40.925  44.161  12.497
35006W        W 7431  17.607  38.307  10.984
35007W        W 7432  16.758  26.677  10.613
35008W        W 7433  36.471  23.720  10.816
35009W        W 7434  31.512  40.792  11.894
35010W        W 7435  24.138  14.794   2.688
35011W        W 7436   3.058  42.341  11.601
35012W        W 7437   6.314  41.524   4.633
35013W        W 7438  34.653  43.983  12.488
35014W        W 7439  42.197  38.564  11.469
35015W        W 7440  14.305  19.639  13.413
35016W        W 7441  37.334  24.600   4.393
35017W        W 7442  30.007   5.855  13.851
35018W        W 7443  20.589   9.631   4.128
35019W        W 7444  32.739  44.110   1.636
35020W        W 7445   3.208  41.627  12.128
35021W        W 7446  12.099  38.285  11.959
35022W        W 7447   9.403  38.385  13.508
35023W        W 7448  31.854  24.543  10.522
35024W        W 7449   5.995  16.841   1.514
35025W        W 7450  29.039  31.463  10.628
35026W        W 7451  28.992  40.999   1.322
35027W        W 7452   1.576   4.050   4.057
35028W        W 7453  31.055  19.821  14.403
35029W        W 7454  12.310  26.408   0.005
35030W        W 7455  35.357  12.603  13.794
35031W        W 7456  43.469  27.090  13.690
35032W        W 7457  29.334  27.439   1.475
35033W        W 7458  19.473   6.803   0.787
35034W        W 7459  28.074  26.635   2.602
35035W        W 7460  33.522  18.107   9.771
35036W        W 7461   2.473  31.185   3.248
35037W        W 7462  30.630   4.952   0.833
35038W        W 7463  35.394   0.427  12.965
35039W        W 7464   8.286  27.287  14.380
35040W        W 7465  31.346  24.165  12.337
35041W        W 7466  33.389  39.357   4.296
35042W        W 7467  13.659   3.472  14.306
35043W        W 7468  14.680  27.465  11.724
35044W        W 7469  26.533  36.058  12.321
35045W        W 7470  15.498  22.757   9.846
35046W        W 7471   8.974  37.768   5.197
35047W        W 7472  11.712   5.620   4.869
35048W        W 7473   7.248  12.805   3.771
35049W        W 7474  11.111  15.644   2.366
35050W        W 7475   2.280  37.022   1.224
35051W        W 7476  27.550  11.054  11.036
35052W        W 7477  26.097   6.929   3.314
35053W        W 7478   9.159   9.387  10.981
35054W        W 7479  44.147  23.552   0.084
35055W        W 7480   2.531  13.325  11.674
35056W        W 7481  31.022  28.736   1.332
35057W        W 7482   9.462  26.640   5.055
35058W        W 7483  43.107  23.668  14.478
35059W        W 7484   5.941  42.496  11.585
35060W        W 7485  12.871  11.423   4.103
35061W        W 7486  15.288   9.896  14.443
35062W        W 7487  42.387  27.057   1.269
35063W        W 7488  35.500  12.825  12.425
35064W        W 7489   9.230  36.455   4.581
35065W        W 7490  15.347  39.905   1.891
35066W        W 7491   8.675  27.506  13.611
35067W        W 7492  34.538  15.302   0.426
35068W        W 7493  39.970  13.601   2.269
35069W        W 7494  30.223  25.303  10.516
35070W        W 7495  21.186  43.829   2.361
35071W        W 7496  30.645  33.966  11.583
35072W        W 7497  23.571   7.190   4.793
35073W        W 7498  28.690  41.821  14.402
35074W        W 7499   4.467  38.875  10.975
35075W        W 7500   6.744   5.095   2.159
35076W        W 7501  11.890  36.425  11.156
35077W        W 7502   0.471  13.245   4.694
35078W        W 7503  27.023  44.523  12.545
35079W        W 7504   8.743  31.219  11.234
35080W        W 7505   1.702  43.371  12.982
35081W        W 7506  11.942  37.980   0.646
35082W        W 7507   4.833  41.269  10.663
35083W        W 7508  18.860   1.331   0.427
35084W        W 7509  21.790  31.742   0.352
35085W        W 7510  36.522  39.027  10.641
35086W        W 7511   9.830   6.660   2.928
35087W        W 7512  35.190  13.307  13.514
35088W        W 7513  40.837  43.302   4.576
35089W        W 7514  30.063   2.452  10.333
35090W        W 7515  13.675   2.724   2.706
35091W        W 7516   3.163   8.813  13.045
35092W        W 7517  29.025  14.942  14.585
35093W        W 7518   2.887  22.192   4.744
35094W        W 7519   2.720  11.240  10.700
35095W        W 7520  42.348  20.926  14.238
35096W        W 7521  18.370   6.161   2.705
35097W        W 7522  16.152  34.692   4.714
35098W        W 7523  42.814  25.687   1.685
35099W        W 7524  40.905  17.508   3.422
35100W        W 7525  13.327  42.018   0.756
35101W        W 7526  10.291   2.445   4.924
35102W        W 7527   8.429  17.611  11.339
35103W        W 7528  26.647  18.784   3.765
35104W        W 7529   9.177  42.895  14.452
35105W        W 7530  41.840  12.079   0.793
35106W        W 7531   3.924  30.996   2.306
35107W        W 7532   0.383  28.433   0.939
35108W        W 7533  19.218   4.531   2.175
35109W        W 7534  35.526  10.085  11.086
35110W        W 7535  42.235  44.413  10.910
35111W        W 7536  11.341   8.056   0.450
35112W        W 7537  29.041  37.132  13.970
35113W        W 7538  35.569  36.298  13.401
35114W        W 7539  35.355  26.155   3.686
35115W        W 7540  34.246  29.759  13.850
35116W        W 7541  17.348  26.008  13.293
35117W        W 7542  16.902  19.593   4.468
35118W        W 7543  21.706   7.810   0.332
35119W        W 7544   6.227  19.755   0.765
35120W        W 7545  40.080   6.673   1.196
35121W        W 7546  28.102  28.125   0.835
35122W        W 7547  19.246  34.753  13.304
35123W        W 7548   1.233   1.562  12.073
35124W        W 7549  12.691   1.844   0.076
35125W        W 7550  11.229  11.611  13.551
35126W        W 7551  11.991  31.919  11.519
35127W        W 7552   4.332  40.118   0.793
35128W        W 7553  33.941  17.107  12.862
35129W        W 7554  10.282  43.332  11.063
35130W        W 7555   3.701  10.642   0.014
35131W        W 7556  37.014  29.689  11.136
35132W        W 7557  20.501  18.824  11.658
35133W        W 7558  35.109  10.703  14.458
35134W        W 7559  40.114  35.416   1.820
35135W        W 7560   8.148   9.739   4.070
35136W        W 7561  40.407  42.290   0.682
35137W        W 7562  25.126  15.235   2.107
35138W        W 7563  16.992   6.335  14.050
35139W        W 7564  16.305  23.216   0.790
35140W        W 7565  33.797  37.061   2.789
35141W        W 7566  44.950  25.033  12.045
35142W        W 7567  43.511  15.593   1.315
35143W        W 7568  17.502  14.636   3.254
35144W        W 7569  10.578  29.730   4.695
35145W        W 7570  34.176  19.713   5.182
35146W        W 7571  13.380  42.030  10.292
35147W        W 7572   4.742  11.295   3.799
35148W        W 7573  33.366  10.120  10.904
35149W        W 7574  26.581  37.045   2.172
35150W        W 7575  36.811   4.511  14.471
35151W        W 7576  14.333   9.747  11.774
35152W        W 7577  42.520  22.592   0.767
35153W        W 7578  17.727  11.131  14.363
35154W        W 7579   9.237  24.163   3.343
35155W        W 7580   1.933  36.527   2.930
35156W        W 7581  37.397  33.495  12.061
35157W        W 7582  19.968  11.324  13.852
35158W        W 7583  41.289   5.759   1.475
35159W        W 7584   2.960  37.970   2.804
35160W        W 7585  34.546  17.792   4.407
35161W        W 7586  24.943  35.697   0.312
35162W        W 7587  19.357   5.112  10.723
35163W        W 7588  38.099   6.780  11.552
35164W        W 7589  14.200  40.543  11.385
35165W        W 7590  19.865  38.552  12.914
35166W        W 7591   0.026  21.227   0.982
35167W        W 7592  35.523  18.535  14.801
35168W        W 7593   8.853  14.347  12.029
35169W        W 7594  32.305  36.946  14.266
35170W        W 7595  10.847   0.877   0.440
35171W        W 7596  40.384  19.175  13.456
35172W        W 7597  33.838  25.112  14.529
35173W        W 7598  31.571  42.454  13.738
35174W        W 7599   2.502   6.125  13.035
35175W        W 7600   5.412  36.374   0.703
35176W        W 7601  33.070  20.119  12.292
35177W        W 7602   5.923   4.040  11.139
35178W        W 7603   4.667  29.942   3.624
35179W        W 7604   0.715   1.347   4.676
35180W        W 7605  26.129  27.155   1.759
35181W        W 7606  20.151  29.808   0.786
35182W        W 7607   7.892   5.475   1.901
35183W        W 7608  18.440  28.260  14.820
35184W        W 7609  31.887  13.872   0.403
35185W        W 7610  23.122  32.348  11.120
35186W        W 7611  13.633  29.246   1.489
35187W        W 7612  23.984  24.623  10.919
35188W        W 7613   3.165   5.275   1.753
35189W        W 7614  12.641  24.706   3.290
35190W        W 7615  20.618   2.714   3.311
35191W        W 7616  16.789   5.920   4.810
35192W        W 7617  30.010  41.683   2.657
35193W        W 7618  20.179  30.038   9.667
35194W        W 7619  30.132  26.207   0.438
35195W        W 7620  23.638  36.064  14.174
35196W        W 7621  36.026  11.118  11.697
35197W        W 7622  40.390   2.450  11.210
35198W        W 7623  25.538  30.358  13.015
35199W        W 7624  40.029   1.458   2.034
35200W        W 7625  28.448  25.435  11.028
35201W        W 7626   2.667   9.506  13.014
35202W        W 7627   9.790  39.774   2.810
35203W        W 7628  23.589  17.215  11.518
35204W        W 7629  42.727  26.572  10.024
35205W        W 7630   6.545  15.857   4.972
35206W        W 7631  25.208  13.659  12.008
35207W        W 7632  37.863  28.669  13.876
35208W        W 7633  37.063  36.993  12.580
35209W        W 7634  31.605   8.989  10.971
35210W        W 7635  18.554  19.008  14.984
35211W        W 7636  41.749  22.031  12.936
35212W        W 7637  36.460  21.259  12.108
35213W        W 7638  18.231  32.253   9.691
35214W        W 7639   0.532  18.814  11.131
35215W        W 7640  12.267  38.714  14.329
35216W        W 7641  15.780  13.570   4.543
35217W        W 7642  35.426  15.695   2.785
35218W        W 7643  27.066  40.790   0.950
35219W        W 7644  36.410   0.811   3.803
35220W        W 7645  40.369  33.295  13.513
35221W        W 7646  23.553   5.312  14.397
35222W        W 7647  18.680   3.289  13.541
35223W        W 7648  25.072  32.851  12.565
35224W        W 7649   5.633  44.163   0.455
35225W        W 7650  24.167  37.176  10.687
35226W        W 7651  32.080   6.141  12.514
35227W        W 7652   1.396  37.135  11.177
35228W        W 7653  43.348   0.044   0.378
35229W        W 7654   5.332  23.705   3.932
35230W        W 7655  36.320  14.308   3.256
35231W        W 7656  27.382   8.806   4.128
35232W        W 7657  20.068  33.852  11.507
35233W        W 7658  11.837   8.548   4.097
35234W        W 7659  23.979  26.711  11.389
35235W        W 7660   3.939  43.629  14.765
35236W        W 7661  13.084  13.088   2.704
35237W        W 7662  16.721  25.552   3.904
35238W        W 7663   1.765  41.639  11.770
35239W        W 7664  44.540   6.597  13.359
35240W        W 7665  21.111  43.190   3.172
35241W        W 7666   1.454  29.064   0.790
35242W        W 7667  13.027  39.373  14.502
35243W        W 7668  23.642  40.133  11.737
35244W        W 7669  14.924  24.247   0.379
35245W        W 7670  35.398   9.687   2.576
35246W        W 7671  14.094   6.938   0.396
35247W        W 7672   6.453   0.767   3.098
35248W        W 7673   9.571  34.334  12.809
35249W        W 7674  24.618  33.526   2.276
35250W        W 7675  12.082  34.661  13.348
35251W        W 7676  24.997  41.055  14.747
35252W        W 7677  44.446  43.532   3.728
35253W        W 7678  26.169  35.491   0.655
35254W        W 7679  31.381  24.122   1.405
35255W        W 7680   8.301  37.922  13.908
35256W        W 7681  31.864  42.000  13.404
35257W        W 7682  39.905  35.400  12.898
35258W        W 7683  16.337   5.668   2.419
35259W        W 7684   3.795  11.178  14.293
35260W        W 7685  12.464  42.027   4.919
35261W        W 7686   2.915  35.441   2.783
35262W        W 7687   0.976  32.111   4.190
35263W        W 7688  18.366  40.059   2.171
35264W        W 7689  24.099  16.609   1.677
35265W        W 7690  23.578  22.672  14.832
35266W        W 7691   7.796  24.778  13.392
35267W        W 7692  11.783  18.106  10.638
35268W        W 7693  40.314  34.513  13.036
35269W        W 7694  15.150  14.281  12.062
35270W        W 7695  40.936  34.159  12.345
35271W        W 7696   9.482  44.207  10.961
35272W        W 7697   0.989  35.883   1.124
35273W        W 7698  12.809  37.199  13.193
35274W        W 7699  29.313   9.931  12.606
35275W        W 7700  38.366   9.239  11.051
35276W        W 7701   1.265  38.300   4.419
35277W        W 7702  11.773   9.244   1.915
35278W        W 7703   4.990   5.280  12.032
35279W        W 7704  27.632  25.398   2.987
35280W        W 7705  21.754  41.883   0.856
35281W        W 7706  11.311  17.603  14.518
35282W        W 7707  34.924  24.604   1.381
35283W        W 7708  19.019  24.661   4.644
35284W        W 7709  18.565  28.480   0.367
35285W        W 7710  24.272  29.536   3.255
35286W        W 7711  37.570  12.207  11.609
35287W        W 7712  13.334  11.392  11.668
35288W        W 7713  23.170  22.237  10.648
35289W        W 7714   5.262  32.970  14.577
35290W        W 7715  16.599  22.240  11.947
35291W        W 7716  28.094  10.156  11.116
35292W        W 7717  38.817   9.570  14.400
35293W        W 7718  20.254  25.756   3.802
35294W        W 7719   6.805  28.641   3.565
35295W        W 7720  18.025  22.193  13.765
35296W        W 7721  32.488  27.209   4.354
35297W        W 7722   8.101   3.089   2.782
35298W        W 7723  11.858  27.564  12.350
35299W        W 7724   9.444  23.245  14.534
35300W        W 7725  24.456  11.317   3.930
35301W        W 7726  18.983  30.083  13.796
35302W        W 7727  41.885  12.662  10.735
35303W        W 7728   3.090  39.475   2.616
35304W        W 7729  19.998   8.770   0.808
35305W        W 7730   7.336  33.498   3.845
35306W        W 7731  20.175  36.291   1.817
35307W        W 7732  42.551  19.087  14.246
35308W        W 7733  35.756   4.428   1.421
35309W        W 7734  16.754   7.802  11.123
35310W        W 7735  20.679  33.178   3.883
35311W        W 7736  32.111  22.269  14.876
35312W        W 7737   4.761  40.201   4.103
35313W        W 7738  38.492  22.742  11.838
35314W        W 7739  31.588   5.120  12.820
35315W        W 7740  29.996   1.949   4.412
35316W        W 7741  44.973  13.477  12.851
35317W        W 7742  16.974  40.310   1.424
35318W        W 7743   7.341  32.385  11.968
35319W        W 7744  21.001   6.178   0.822
35320W        W 7745  36.664  32.511   4.645
35321W        W 7746  12.227  17.832  14.009
35322W        W 7747   3.776  41.926   4.533
35323W        W 7748  41.950  38.963   5.128
35324W        W 7749  16.092  22.595   1.104
35325W        W 7750  19.369  10.405  12.579
35326W        W 7751   2.578  36.199   2.135
35327W        W 7752  23.967   3.516  12.970
35328W        W 7753   5.805  13.123  12.874
35329W        W 7754  26.104  10.853  10.757
35330W        W 7755  13.250   0.334  14.053
35331W        W 7756  34.224   6.411   0.153
35332W        W 7757  24.908  36.841   5.185
35333W        W 7758  27.489  14.581   1.285
35334W        W 7759  42.402  40.478  11.608
35335W        W 7760  44.095  13.312   3.218
35336W        W 7761  19.302  39.874   4.554
35337W        W 7762   5.927  42.964   3.733
35338W        W 7763  13.733  22.658   0.703
35339W        W 7764  26.497  19.050  14.831
35340W        W 7765   4.014   1.921   0.294
35341W        W 7766   6.743   2.952  11.560
35342W        W 7767   2.833  23.536   2.111
35343W        W 7768   9.155  10.013   3.371
35344W        W 7769  20.039  31.467   5.092
35345W        W 7770  22.841  42.058  14.999
35346W        W 7771  12.024  25.603  12.032
35347W        W 7772  11.866   9.150   4.627
35348W        W 7773  39.415  20.211   4.522
35349W        W 7774   1.958  35.506  14.268
35350W        W 7775  17.100  29.233   0.335
35351W        W 7776  26.023  35.868   3.760
35352W        W 7777  41.012  34.961   0.939
35353W        W 7778  26.739  40.014  12.127
35354W        W 7779  33.722  31.978  14.961
35355W        W 7780  29.716  24.401  12.106
35356W        W 7781   1.362  10.589   1.832
35357W        W 7782   5.881   1.299  12.786
35358W        W 7783  13.028   9.934  14.825
35359W        W 7784  35.156  34.138   0.542
35360W        W 7785  16.230  29.347   1.286
35361W        W 7786   0.754  42.735  13.008
35362W        W 7787  17.227   7.365  12.400
35363W        W 7788  34.562  10.733  11.927
35364W        W 7789   9.851  30.191   2.798
35365W        W 7790  27.522  28.638   1.773
35366W        W 7791  30.093  20.611   1.177
35367W        W 7792  34.631   2.283   0.688
35368W        W 7793  29.590   3.244  12.140
35369W        W 7794  28.288  11.872  11.985
35370W        W 7795  36.837   9.759  13.424
35371W        W 7796  20.967   6.930  11.906
35372W        W 7797  14.958  31.865   0.558
35373W        W 7798   9.412  14.288   4.215
35374W        W 7799  18.561   3.494  12.140
35375W        W 7800  14.890  23.728   0.421
35376W        W 7801  22.557  34.143   2.609
35377W        W 7802  41.546  19.517  14.898
35378W        W 7803  28.481   0.084   0.767
35379W        W 7804   2.418  32.460   1.702
35380W        W 7805  10.374  16.761   1.963
35381W        W 7806  24.960  12.911  13.398
35382W        W 7807   1.688  31.796   3.672
35383W        W 7808  18.610  39.828   4.049
35384W        W 7809  15.029  41.053   0.501
35385W        W 7810  36.843  24.374   4.173
35386W        W 7811   5.859  43.409   0.594
35387W        W 7812  32.438   5.284   1.772
35388W        W 7813  24.318   2.892   4.516
35389W        W 7814  41.919   5.893   2.248
35390W        W 7815  38.047  36.088  13.588
35391W        W 7816  41.471  41.615  14.934
35392W        W 7817   6.399   5.148  13.557
35393W        W 7818   1.427   1.773  13.915
35394W        W 7819  15.805  42.408   0.444
35395W        W 7820   0.049  34.428   1.660
35396W        W 7821   7.675   8.357   3.020
35397W        W 7822  22.538  15.116  12.166
35398W        W 7823  13.344   2.086  12.253
35399W        W 7824   2.989  11.773  13.352
35400W        W 7825  20.673   6.628   0.821
35401W        W 7826  20.329  21.485  14.860
35402W        W 7827   7.408  33.850   0.423
35403W        W 7828  12.890  33.931   4.889
35404W        W 7829  23.550  39.323   0.918
35405W        W 7830   9.446  24.995  13.995
35406W        W 7831  20.689  21.768  13.966
35407W        W 7832  20.724  23.711  14.182
35408W        W 7833  32.302  25.264   2.856
35409W        W 7834   8.737   8.880  13.328
35410W        W 7835  18.625   3.023  14.004
35411W        W 7836   5.314   5.767   2.477
35412W        W 7837   6.350  44.412   4.047
35413W        W 7838  14.259   3.879   2.706
35414W        W 7839  14.347  33.861   3.700
35415W        W 7840  27.977   9.281  10.880
35416W        W 7841  32.428  13.593   0.469
35417W        W 7842  28.173  39.783   5.449
35418W        W 7843  31.037  26.093   2.969
35419W        W 7844  44.476  19.259  13.893
35420W        W 7845  34.510   8.684  13.562
35421W        W 7846   0.465  43.960  13.272
35422W        W 7847  10.667  10.711  13.800
35423W        W 7848  41.132  32.610  12.310
35424W        W 7849  38.870  42.119   4.974
35425W        W 7850  43.051   8.616   1.658
35426W        W 7851  13.399  44.773   2.272
35427W        W 7852  21.637  24.940   4.580
35428W        W 7853  19.025  16.222   3.266
35429W        W 7854  24.466  34.979  13.449
35430W        W 7855  27.105  33.197  10.230
35431W        W 7856  27.936   2.064  12.442
35432W        W 7857  22.597  10.151   0.737
35433W        W 7858   0.883  36.156  14.690
35434W        W 7859  26.765  17.145   0.308
35435W        W 7860  18.550  35.336  11.629
35436W        W 7861  31.177  29.724   4.153
35437W        W 7862   2.473  13.949  10.684
35438W        W 7863  35.637   8.195   3.716
35439W        W 7864  42.774  44.294  14.995
35440W        W 7865  30.858  14.535  11.982
35441W        W 7866  30.260  32.010   1.230
35442W        W 7867   7.749   7.754   0.063
35443W        W 7868   1.891  27.030  11.697
35444W        W 7869  23.011   0.878   2.887
35445W        W 7870  37.447   8.657  14.646
35446W        W 7871  13.160  18.242  13.090
35447W        W 7872   5.744  19.425   2.224
35448W        W 7873  16.863  25.600  14.326
35449W        W 7874  34.884  37.160  14.927
35450W        W 7875  25.596  22.537  13.930
35451W        W 7876  41.567  32.104   2.947
35452W        W 7877  44.541  15.177  11.063
35453W        W 7878  12.657  42.014  13.946
35454W        W 7879  12.146   4.341   0.709
35455W        W 7880  29.436  38.620  14.425
35456W        W 7881  35.935  38.892  14.482
35457W        W 7882  25.176  40.086  13.882
35458W        W 7883  30.094  36.090   0.710
35459W        W 7884  20.731  31.575  13.746
35460W        W 7885  21.689  23.114  13.065
35461W        W 7886  11.142  28.912   3.116
35462W        W 7887  32.451  25.531  14.291
35463W        W 7888  14.367  24.083   3.327
35464W        W 7889  42.970  44.191   2.289
35465W        W 7890  18.669   5.289   4.212
35466W        W 7891  38.412   1.229  11.090
35467W        W 7892  26.296   9.777   1.833
35468W        W 7893  19.137  14.887  12.588
35469W        W 7894  33.947  31.040   3.686
35470W        W 7895  21.977  24.815   1.927
35471W        W 7896  16.792   5.758   2.689
35472W        W 7897  16.988  28.140   1.803
35473W        W 7898  14.290  14.108   3.798
35474W        W 7899  34.386  39.856  11.804
35475W        W 7900  35.960  30.145   1.637
35476W        W 7901  18.937  35.863   0.262
35477W        W 7902  32.195  14.448   4.600
35478W        W 7903  22.445   1.978  10.256
35479W        W 7904  18.110  15.393  11.525
35480W        W 7905  17.535  17.979  13.825
35481W        W 7906  22.996  28.594   1.007
35482W        W 7907  13.725   1.884   1.462
35483W        W 7908  41.023   8.402   4.526
35484W        W 7909  44.809  35.623  14.606
35485W        W 7910   3.469   3.405   1.875
35486W        W 7911  35.853  26.180   3.833
35487W        W 7912  38.306  33.008  13.031
35488W        W 7913  17.209  10.176   4.761
35489W        W 7914  17.677   6.929  14.361
35490W        W 7915   5.373  41.605  11.592
35491W        W 7916  30.988  35.464   0.213
35492W        W 7917  44.996  19.110  11.609
35493W        W 7918  40.406   0.769   3.670
35494W        W 7919  39.340   7.866  14.451
35495W        W 7920   2.491  39.241   2.287
35496W        W 7921   3.928  36.358  13.192
35497W        W 7922  36.096  17.209   3.837
35498W        W 7923   8.877  36.161  12.204
35499W        W 7924  44.790  15.617   1.032
35500W        W 7925  25.166  42.105   1.305
35501W        W 7926  42.722  18.186   3.115
35502W        W 7927  35.363   8.288   1.172
35503W        W 7928   1.237  13.797   2.303
35504W        W 7929  40.497  37.396   2.680
35505W        W 7930  18.730  21.195  12.415
35506W        W 7931  29.664  44.779   4.037
35507W        W 7932  32.514   8.377   3.243
35508W        W 7933  32.985  40.343   4.191
35509W        W 7934   6.124  22.058   2.637
35510W        W 7935   0.061  28.060  11.368
35511W        W 7936  15.619  33.141  14.524
35512W        W 7937  41.857  14.108   0.719
35513W        W 7938  41.860   5.191   0.289
35514W        W 7939   7.924  43.706   4.239
35515W        W 7940   1.307   4.279  13.440
35516W        W 7941  21.607   8.203   4.582
35517W        W 7942  28.669  15.410   4.494
35518W        W 7943  24.720  10.700  14.049
35519W        W 7944   2.759  12.769  14.346
35520W        W 7945  11.706   6.636   0.995
35521W        W 7946   3.880  25.934  12.427
35522W        W 7947  19.174  10.068   9.941
35523W        W 7948  20.197  25.491   0.072
35524W        W 7949  18.201   6.815  14.298
35525W        W 7950  16.198   9.113   4.689
35526W        W 7951  34.436   7.255  11.355
35527W        W 7952  24.047  29.686   2.774
35528W        W 7953  17.853   7.709   2.634
35529W        W 7954  31.522  38.533  10.555
35530W        W 7955  34.821  30.814  10.217
35531W        W 7956  12.382  33.827  10.578
35532W        W 7957  23.422  16.104  14.809
35533W        W 7958  10.453  22.909   2.632
35534W        W 7959  41.513  39.885   2.209
35535W        W 7960   3.816  40.915   1.281
35536W        W 7961  16.757  32.450   9.711
35537W        W 7962  24.225  18.534  13.888
35538W        W 7963   2.760  13.614  13.845
35539W        W 7964  41.337   8.311  14.643
35540W        W 7965  18.773  41.793  11.961
35541W        W 7966  22.515  31.100   0.604
35542W        W 7967   4.916  25.513  14.485
35543W        W 7968   2.342  44.598  11.548
35544W        W 7969  21.140  17.116   4.745
35545W        W 7970  41.686  17.421  11.622
35546W        W 7971  37.346   5.564  13.059
35547W        W 7972  27.156  16.848  12.641
35548W        W 7973  44.825   3.678  12.918
35549W        W 7974  33.865  26.064  14.939
35550W        W 7975  23.040   9.095  14.460
35551W        W 7976  21.040   2.338  14.613
35552W        W 7977  42.158   1.864  10.862
35553W        W 7978   5.479   9.386  10.709
35554W        W 7979   5.887   7.531  12.938
35555W        W 7980  31.994   6.946  14.000
35556W        W 7981  33.947  43.070  14.001
35557W        W 7982  44.864  19.044   2.680
35558W        W 7983   2.783  11.224   3.341
35559W        W 7984  17.509   2.816   4.464
35560W        W 7985  16.313  10.155  14.381
35561W        W 7986   5.713  23.738   2.175
35562W        W 7987  38.145  10.769   1.339
35563W        W 7988   0.265   3.883   2.645
35564W        W 7989  15.160  31.964  11.106
35565W        W 7990  12.562  43.840   0.232
35566W        W 7991  17.068   8.889  12.126
35567W        W 7992  15.500  12.105  12.946
35568W        W 7993  24.567  16.349   3.177
35569W        W 7994   9.404  36.971   4.515
35570W        W 7995  24.730  14.301   1.040
35571W        W 7996  37.282  36.421   4.089
35572W        W 7997   0.303   8.686   4.870
35573W        W 7998  42.214  21.118  14.734
35574W        W 7999  17.133  14.510   1.260
35575W        W 8000  32.636  29.966   3.348
35576W        W 8001  37.066  37.844  11.113
35577W        W 8002   5.384  13.345   2.343
35578W        W 8003  44.288  19.364  11.226
35579W        W 8004   2.453  13.518   4.475
35580W        W 8005  10.847  32.393   0.303
35581W        W 8006  24.725  15.525  11.124
35582W        W 8007  13.774   8.366   3.712
35583W        W 8008  27.289  32.605  11.538
35584W        W 8009   5.325  19.584  13.624
35585W        W 8010  38.431  38.504   2.045
35586W        W 8011  27.475  33.070  13.788
35587W        W 8012  13.610  33.249   4.559
35588W        W 8013  44.398  37.051  14.778
35589W        W 8014  13.250  11.860  12.433
35590W        W 8015  11.600   7.303  10.107
35591W        W 8016  43.943  27.610  12.525
35592W        W 8017  31.985  40.770   4.148
35593W        W 8018  36.521  23.954   4.248
35594W        W 8019  43.280  16.920   2.430
35595W        W 8020  23.993  37.124  12.047
35596W        W 8021  37.316  12.564   3.442
35597W        W 8022   0.283  33.522  10.648
35598W        W 8023  16.203   1.353  11.006
35599W        W 8024  23.613  37.085   0.406
35600W        W 8025   1.729   3.315  12.707
35601W        W 8026  31.416  27.449  14.796
35602W        W 8027  43.237  27.135  14.727
35603W        W 8028  14.668  11.078  14.971
35604W        W 8029  29.776   8.346  11.261
35605W        W 8030  10.080  28.681   0.663
35606W        W 8031  16.794  26.020   3.304
35607W        W 8032  21.250  21.367   9.987
35608W        W 8033  36.986  27.608   2.111
35609W        W 8034  28.571   9.651   1.906
35610W        W 8035  35.146   0.439  12.417
35611W        W 8036  43.479  41.369  11.705
35612W        W 8037   3.808  12.329   2.649
35613W        W 8038  18.808  21.023  13.821
35614W        W 8039  31.990  19.991  11.464
35615W        W 8040  40.280  21.931   0.197
35616W        W 8041   8.397  27.512  11.142
35617W        W 8042  38.507  23.635  14.905
35618W        W 8043  13.631  30.635   4.594
35619W        W 8044  23.671  41.954   4.506
35620W        W 8045   4.913  30.275   4.430
35621W        W 8046  39.377   4.372   1.645
35622W        W 8047  43.469  43.027   0.235
35623W        W 8048  11.891  33.433  11.552
35624W        W 8049  26.643   3.197   3.818
35625W        W 8050  31.198  17.729   0.287
35626W        W 8051  27.912  44.397  10.970
35627W        W 8052  41.275  22.206   4.616
35628W        W 8053   8.683  21.530   0.380
35629W        W 8054  16.360  27.995   2.397
35630W        W 8055   9.648  17.714   0.452
35631W        W 8056  20.616  25.320  14.340
35632W        W 8057  20.549  17.661   3.127
35633W        W 8058  13.189  29.321   4.626
35634W        W 8059   7.384   1.249   1.284
35635W        W 8060   5.692  34.916  10.697
35636W        W 8061  42.286  10.317  12.379
35637W        W 8062  41.359  28.206   2.729
35638W        W 8063   9.131  19.599  14.790
35639W        W 8064  27.270  41.571  13.017
35640W        W 8065  42.157  15.234   4.186
35641W        W 8066  27.158  23.167  14.556
35642W        W 8067  33.943   4.979  12.658
35643W        W 8068  39.390  35.160   3.667
35644W        W 8069   7.719   0.718   0.570
35645W        W 8070   4.006  15.282  12.360
35646W        W 8071  18.897   4.999   0.725
35647W        W 8072   1.780  20.635  14.454
35648W        W 8073   1.369  42.742   0.396
35649W        W 8074   1.299   5.202  13.597
35650W        W 8075  37.041  40.570  14.114
35651W        W 8076  20.316  24.142   1.280
35652W        W 8077  12.067  20.116  14.290
35653W        W 8078  27.712  35.479   2.942
35654W        W 8079   1.613   3.913   3.151
35655W        W 8080  18.851  20.233   2.972
35656W        W 8081  17.322   7.922   1.332
35657W        W 8082  23.361  39.228  12.610
35658W        W 8083   9.606  12.355   0.853
35659W        W 8084  22.200  30.906  14.424
35660W        W 8085  40.833  40.586  12.495
35661W        W 8086   8.341  24.294   3.820
35662W        W 8087  40.026  36.362   4.209
35663W        W 8088  37.564  39.942  13.026
35664W        W 8089  14.034  27.338   4.007
35665W        W 8090  12.301  20.710   3.098
35666W        W 8091  30.572   4.956  14.968
35667W        W 8092  17.155  29.152  10.879
35668W        W 8093  20.224   7.532   1.373
35669W        W 8094  24.633  27.501  13.311
35670W        W 8095  35.663   2.278   0.399
35671W        W 8096  44.360   0.311   2.359
35672W        W 8097  18.988  40.919   2.703
35673W        W 8098  11.110  23.672   1.831
35674W        W 8099  17.584  24.465   4.562
35675W        W 8100  17.944  32.402  10.078
35676W        W 8101  29.639  17.786   0.533
35677W        W 8102   9.443  12.846   0.988
35678W        W 8103  34.002  41.348   2.448
35679W        W 8104  36.081  23.673   2.603
35680W        W 8105  33.863  14.397   0.888
35681W        W 8106   2.478  34.696   1.883
35682W        W 8107  44.693  14.577  11.093
35683W        W 8108   0.800   3.281   3.305
35684W        W 8109  15.573  39.409  11.197
35685W        W 8110  17.303  10.752  14.917
35686W        W 8111   1.606   4.274  13.012
35687W        W 8112  26.747  36.152   2.237
35688W        W 8113  37.809  32.082  14.401
35689W        W 8114   2.668  29.455   2.300
35690W        W 8115   6.417  43.370   3.241
35691W        W 8116  39.055  33.894   2.888
35692W        W 8117   0.684  26.653   0.053
35693W        W 8118  28.050  38.431  11.037
35694W        W 8119   2.739  11.739   3.278
35695W        W 8120   4.714   2.353   5.410
35696W        W 8121  43.969  10.499   0.775
35697W        W 8122  24.882  24.143  10.844
35698W        W 8123   4.304  13.000   3.654
35699W        W 8124   2.400  18.088   0.098
35700W        W 8125   0.934   5.469   4.717
35701W        W 8126   7.525  15.663   1.435
35702W        W 8127   0.673   9.093   9.940
35703W        W 8128  20.977  22.877  13.861
35704W        W 8129  33.097   0.321   0.918
35705W        W 8130  10.361   6.742   2.386
35706W        W 8131   6.416   3.190   4.501
35707W        W 8132  40.841   8.383   1.385
35708W        W 8133   1.453  36.808  14.825
35709W        W 8134  29.229  31.405   4.079
35710W        W 8135  11.617  32.859  11.487
35711W        W 8136   2.787  34.106  14.082
35712W        W 8137  20.797  20.250   3.316
35713W        W 8138   1.886   5.775  14.102
35714W        W 8139  28.007  13.631  10.607
35715W        W 8140   6.417  17.331   2.666
35716W        W 8141   0.864  27.734  14.013
35717W        W 8142   9.713  16.406   3.792
35718W        W 8143  20.451  17.109  13.511
35719W        W 8144  43.283  10.385  13.324
35720W        W 8145  40.334  13.329  13.474
35721W        W 8146  24.321   8.381  10.124
35722W        W 8147  34.027  40.352   0.592
35723W        W 8148   9.496  37.882  10.543
35724W        W 8149  41.225   8.184   0.729
35725W        W 8150  26.097  44.551  12.482
35726W        W 8151   6.257  18.735  12.729
35727W        W 8152  32.605   2.337  12.367
35728W        W 8153   0.593  26.614   3.522
35729W        W 8154   7.529  17.643  11.744
35730W        W 8155  18.325  13.656   3.725
35731W        W 8156   0.625  30.934   3.689
35732W        W 8157  32.478  39.190   2.013
35733W        W 8158  32.026   5.430   2.699
35734W        W 8159  23.286  16.656   3.788
35735W        W 8160  12.579  32.043   1.245
35736W        W 8161  39.509  43.580   4.307
35737W        W 8162  29.511  13.885  12.083
35738W        W 8163   7.798   4.757  12.819
35739W        W 8164   6.823  24.482   0.602
35740W        W 8165   0.614   0.947  11.818
35741W        W 8166  29.157   4.959   2.203
35742W        W 8167  27.368  10.316   1.382
35743W        W 8168  20.588   6.799   3.153
35744W        W 8169  28.472  38.518  13.155
35745W        W 8170  30.925  29.411   0.921
35746W        W 8171  26.398  10.632  12.520
35747W        W 8172  40.872  29.823   0.777
35748W        W 8173  23.059  25.299   4.087
35749W        W 8174  42.802  36.444  10.641
35750W        W 8175  18.684  36.844   1.570
35751W        W 8176   5.227   0.241   4.553
35752W        W 8177  18.614  24.155  12.670
35753W        W 8178  27.454  38.019  10.342
35754W        W 8179  11.904  35.504   3.295
35755W        W 8180  28.149  33.315   5.555
35756W        W 8181   0.545  27.818   3.362
35757W        W 8182  24.785  42.861   4.753
35758W        W 8183  25.737  17.347   2.768
35759W        W 8184  25.311   1.936   4.518
35760W        W 8185  38.521  21.996   0.495
35761W        W 8186  27.964  12.339   1.910
35762W        W 8187  12.863  37.929   4.244
35763W        W 8188   8.846  32.143   1.863
35764W        W 8189  33.348  25.823  14.058
35765W        W 8190  35.580  42.505  10.794
35766W        W 8191  35.294  41.571  10.591
35767W        W 8192  17.792  23.395  13.474
35768W        W 8193  30.620  24.094  10.402
35769W        W 8194  11.290  31.670   3.306
35770W        W 8195  36.363  43.384   4.882
35771W        W 8196  35.992  43.329  13.401
35772W        W 8197  22.578  19.497  11.263
35773W        W 8198  33.516  21.890  12.386
35774W        W 8199   9.084  24.640   3.115
35775W        W 8200  23.578  39.720  12.688
35776W        W 8201  31.508  40.303   4.819
35777W        W 8202   6.200   6.667  14.934
35778W        W 8203  31.428  14.806   4.655
35779W        W 8204   3.661  32.650   4.666
35780W        W 8205  28.548  29.219   2.635
35781W        W 8206  34.985  32.626  11.534
35782W        W 8207   5.342  33.933   4.064
35783W        W 8208  42.276   7.457  14.530
35784W        W 8209  35.797  37.513  10.702
35785W        W 8210   3.305  12.174  14.653
35786W        W 8211  10.646  13.752  14.259
35787W        W 8212   6.332  18.746  11.697
35788W        W 8213   9.997  44.686  14.854
35789W        W 8214  30.333  31.363   2.752
35790W        W 8215  26.728  42.370   1.899
35791W        W 8216  40.576  21.297  12.862
35792W        W 8217  28.687  40.318   3.448
35793W        W 8218  31.541  33.861   4.211
35794W        W 8219  21.490  26.013  12.963
35795W        W 8220   5.385  29.599  12.088
35796W        W 8221  32.045  21.352   9.950
35797W        W 8222  13.517  12.287   4.688
35798W        W 8223  37.138   0.356   0.353
35799W        W 8224  13.157  14.053   1.744
35800W        W 8225   8.850   3.013  13.526
35801W        W 8226  31.428  16.770   2.616
35802W        W 8227   5.285  36.135  10.889
35803W        W 8228  37.960  21.998   2.310
35804W        W 8229   3.339  31.465  10.829
35805W        W 8230  44.804  30.187   4.698
35806W        W 8231  44.415  37.461   1.180
35807W        W 8232  10.811  41.753   3.756
35808W        W 8233  30.439  39.776   1.684
35809W        W 8234  32.894  41.939   2.919
35810W        W 8235  17.727  15.254  11.847
35811W        W 8236  41.020   7.364  12.723
35812W        W 8237  11.715  21.355   4.592
35813W        W 8238  30.520   3.385  14.515
35814W        W 8239  25.980  16.115  12.311
35815W        W 8240   6.587  44.278  10.293
35816W        W 8241   3.348  41.737  12.828
35817W        W 8242  22.564  41.409   3.230
35818W        W 8243  43.960  38.313   0.860
35819W        W 8244  36.801  28.028   4.619
35820W        W 8245  25.007  40.163  10.775
35821W        W 8246  19.600  15.279   4.762
35822W        W 8247   9.764  39.637   1.969
35823W        W 8248  19.708  33.047   4.613
35824W        W 8249  16.834  24.959   3.168
35825W        W 8250  38.621  26.146   0.431
35826W        W 8251  15.298  32.261  14.656
35827W        W 8252  40.632  24.119   1.307
35828W        W 8253  35.317  13.227   4.192
35829W        W 8254  25.291  14.341   2.212
35830W        W 8255  23.962  16.566   2.167
35831W        W 8256  15.286  27.411   0.375
35832W        W 8257  40.344  10.496   3.373
35833W        W 8258  35.155  35.939  14.541
35834W        W 8259  43.743  13.770   3.765
35835W        W 8260   1.721  24.952  13.542
35836W        W 8261  42.045   8.212   0.404
35837W        W 8262  41.567  20.687  13.534
35838W        W 8263  12.787   7.447  14.941
35839W        W 8264  27.049  38.838   1.961
35840W        W 8265  10.648  28.205  14.410
35841W        W 8266  25.186  21.184  11.937
35842W        W 8267   4.319  44.038  14.957
35843W        W 8268  18.450   1.322  11.509
35844W        W 8269   1.446  39.839  14.597
35845W        W 8270  29.460  29.505   2.598
35846W        W 8271  16.597  12.582  11.897
35847W        W 8272  35.357  22.228   2.205
35848W        W 8273  43.797  40.922   4.772
35849W        W 8274  39.084  42.388  12.039
35850W        W 8275  32.618  43.482   0.360
35851W        W 8276  12.432  23.775   5.417
35852W        W 8277  17.651  43.455   2.556
35853W        W 8278  27.609  19.712   3.786
35854W        W 8279   4.954  13.842  12.781
35855W        W 8280  36.375  10.398  12.670
35856W        W 8281   1.019  18.084   4.162
35857W        W 8282   6.675  39.453  14.892
35858W        W 8283  35.075  11.776   2.340
35859W        W 8284  22.607  26.578  13.374
35860W        W 8285  26.408  20.471   3.678
35861W        W 8286  28.002  43.102  13.734
35862W        W 8287   7.897  26.912   3.685
35863W        W 8288  44.481  34.987  12.430
35864W        W 8289  36.701   9.217   4.564
35865W        W 8290  10.291   2.606  14.997
35866W        W 8291  20.153  10.756  10.605
35867W        W 8292  10.865  36.088   3.634
35868W        W 8293   6.032  14.722   4.414
35869W        W 8294  42.722   4.733   1.905
35870W        W 8295   4.260  38.420  11.081
35871W        W 8296  15.362   8.195   4.329
35872W        W 8297   2.067   3.764  10.569
35873W        W 8298  32.688  44.010  14.358
35874W        W 8299   3.762   4.244   3.340
35875W        W 8300  22.641  13.626  11.098
35876W        W 8301  10.323  16.863   2.969
35877W        W 8302   8.861   2.752   3.087
35878W        W 8303  42.755  12.833  10.546
35879W        W 8304   8.965  24.120  13.764
35880W        W 8305   5.568   5.303  14.028
35881W        W 8306   8.778  16.808   2.250
35882W        W 8307  18.826  29.193   0.233
35883W        W 8308  38.352  40.685  10.897
35884W        W 8309  23.962  33.946   4.104
35885W        W 8310  39.111   7.562   2.322
35886W        W 8311  14.565  36.596  12.510
35887W        W 8312  34.544   1.530   3.804
35888W        W 8313   7.339  30.728   1.786
35889W        W 8314   6.859  31.687   3.841
35890W        W 8315  29.939  22.777   4.585
35891W        W 8316  32.015  39.955   1.812
35892W        W 8317  44.638  21.708   0.372
35893W        W 8318   5.038  28.491  14.350
35894W        W 8319  33.438  22.665  11.003
35895W        W 8320  10.571   4.210  13.398
35896W        W 8321  44.886   2.867  12.581
35897W        W 8322  14.638  19.352  12.454
35898W        W 8323  26.593  42.553  13.903
35899W        W 8324  28.737  26.558  12.805
35900W        W 8325  39.634  13.719  13.213
35901W        W 8326  34.544   5.141  13.049
35902W        W 8327  10.063  22.189   3.117
35903W        W 8328  25.611   0.714  10.621
35904W        W 8329   6.745   3.520  12.431
35905W        W 8330  18.207  14.138   3.589
35906W        W 8331   0.029  30.687  13.139
35907W        W 8332  29.005  21.403  13.676
35908W        W 8333  41.922  33.013  13.596
35909W        W 8334  42.974  29.103   1.778
35910W        W 8335   4.017  18.053  10.233
35911W        W 8336  26.775  39.827   0.709
35912W        W 8337  41.493  30.051  10.643
35913W        W 8338  29.845  41.382  11.607
35914W        W 8339  20.987  31.268   0.768
35915W        W 8340   1.509  25.188   1.320
35916W        W 8341  16.905  28.930   0.885
35917W        W 8342  13.099  32.923   2.448
35918W        W 8343  22.875   4.887  13.813
35919W        W 8344  13.529  39.375  14.635
35920W        W 8345  21.379  15.308   4.196
35921W        W 8346  21.839  41.497   2.551
35922W        W 8347  35.052  33.651   3.236
35923W        W 8348   7.777  17.612  13.476
35924W        W 8349  30.658  26.183   0.393
35925W        W 8350  26.495  26.237   4.534
35926W        W 8351   0.293  17.638  10.912
35927W        W 8352  11.903  25.578   1.416
35928W        W 8353  43.829  37.076   4.166
35929W        W 8354  33.874  40.802   0.396
35930W        W 8355  37.371  15.337  14.919
35931W        W 8356  22.020  26.754  11.137
35932W        W 8357  14.167  11.381   4.648
35933W        W 8358  37.220  23.648   4.603
35934W        W 8359  36.970  14.103   4.555
35935W        W 8360  29.958  30.417   3.317
35936W        W 8361  31.478  21.990  13.010
35937W        W 8362  38.393  34.772  11.992
35938W        W 8363  24.926  10.387  14.391
35939W        W 8364  35.506  24.715   4.616
35940W        W 8365   6.347  34.298   1.960
35941W        W 8366  28.534  26.844   4.145
35942W        W 8367   4.225  32.149  12.068
35943W        W 8368  27.648  25.636   1.735
35944W        W 8369  35.655  44.917  12.438
35945W        W 8370  30.892  16.520   3.454
35946W        W 8371  32.420   7.127  10.419
35947W        W 8372  37.039  37.787   1.738
35948W        W 8373  30.075  37.084   4.122
35949W        W 8374   1.987  29.914  14.853
35950W        W 8375  13.053  37.072   2.156
35951W        W 8376  16.076  40.976   2.056
35952W        W 8377   5.633  29.324   0.939
35953W        W 8378  41.865  37.961  12.420
35954W        W 8379   4.709   6.381  10.705
35955W        W 8380  26.135  40.470  13.085
35956W        W 8381   1.745  11.410   0.920
35957W        W 8382  39.984  29.300  13.912
35958W        W 8383  24.180   1.431  14.388
35959W        W 8384  39.350  30.585   3.281
35960W        W 8385  18.889  14.055   0.815
35961W        W 8386  16.605  36.573   1.239
35962W        W 8387   3.350  14.351   2.944
35963W        W 8388   8.664  28.088  13.434
35964W        W 8389  13.099  37.385   4.140
35965W        W 8390  43.707  24.226   4.189
35966W        W 8391  12.257  24.297   1.197
35967W        W 8392  27.444  43.489  11.065
35968W        W 8393  40.808  40.928   3.103
35969W        W 8394  26.089  12.874  14.465
35970W        W 8395   6.841  23.587   4.800
35971W        W 8396   3.429  31.291  14.617
35972W        W 8397  27.884   7.645   0.918
35973W        W 8398  17.695   2.788   2.642
35974W        W 8399  40.045  42.485  11.676
35975W        W 8400  29.358  14.519  12.938
35976W        W 8401  17.725   3.243  12.665
35977W        W 8402   2.966  27.228   3.779
35978W        W 8403  21.983  31.432   1.272
35979W        W 8404   8.491  42.265   3.729
35980W        W 8405  28.011  25.687  12.493
35981W        W 8406  18.475  38.777  11.154
35982W        W 8407  25.271   3.956   0.388
35983W        W 8408  18.474   5.459   1.409
35984W        W 8409  23.932  14.900  14.971
35985W        W 8410  15.256  35.048   4.442
35986W        W 8411   6.811  18.013   0.197
35987W        W 8412  24.598   6.329  10.450
35988W        W 8413  33.430  33.120   3.528
35989W        W 8414   3.173   3.326  13.700
35990W        W 8415   5.201  19.441   3.722
35991W        W 8416  19.978  37.810   4.271
35992W        W 8417  44.915  27.693   4.147
35993W        W 8418  20.130  32.984   0.323
35994W        W 8419  43.795  21.041   1.778
35995W        W 8420  12.032   8.383   1.503
35996W        W 8421   7.647  14.481   3.631
35997W        W 8422  32.957  44.906  14.741
35998W        W 8423  39.021  30.461  11.992
35999W        W 8424  34.524  19.761  14.266
36000W        W 8425   2.531  40.503  10.955
36001W        W 8426  34.417   4.675   1.318
36002W        W 8427   2.790  35.581   1.243
36003W        W 8428  22.180  42.299   2.184
36004W        W 8429  30.077  24.048   2.730
36005W        W 8430  18.210  42.088   4.603
36006W        W 8431  39.734  16.192   0.089
36007W        W 8432  34.986  20.374  13.764
36008W        W 8433  40.018   4.882  11.650
36009W        W 8434  36.173  28.659   4.667
36010W        W 8435  32.897  16.769   5.655
36011W        W 8436  14.683  42.696  11.268
36012W        W 8437  35.106  32.409  14.899
36013W        W 8438  11.953  25.510  13.299
36014W        W 8439  31.120  38.570  13.361
36015W        W 8440  26.739  32.204  14.949
36016W        W 8441  24.684  17.177   1.757
36017W        W 8442  30.933  18.484   0.922
36018W        W 8443  27.646  14.128   2.463
36019W        W 8444  15.562   2.901   2.636
36020W        W 8445  25.193  26.963   4.128
36021W        W 8446  23.521  14.602   2.687
36022W        W 8447  43.841  13.124   1.361
36023W        W 8448  28.499  27.893   2.211
36024W        W 8449  43.112   6.828   1.408
36025W        W 8450  43.595   9.721  11.297
36026W        W 8451  43.524   7.294  12.614
36027W        W 8452  29.883   0.880   5.081
36028W        W 8453  44.293  20.858   0.353
36029W        W 8454   0.775  29.149   2.348
36030W        W 8455  21.809  43.518   4.179
36031W        W 8456  36.995   1.176  14.837
36032W        W 8457  41.009  34.042  10.460
36033W        W 8458  24.730  38.304  12.134
36034W        W 8459  38.072  36.670   3.161
36035W        W 8460  30.016  17.868  13.156
36036W        W 8461  18.168  26.817  13.044
36037W        W 8462   2.619  39.444   3.803
36038W        W 8463  42.884  43.051  12.902
36039W        W 8464  22.250  43.448  12.244
36040W        W 8465  38.933  26.522   3.083
36041W        W 8466  40.795   1.699  11.887
36042W        W 8467  11.262  44.845  14.265
36043W        W 8468  43.225   6.389  13.539
36044W        W 8469  18.660  12.216  13.922
36045W        W 8470  35.213  43.986   4.081
36046W        W 8471   4.270  39.515  10.722
36047W        W 8472  19.043  34.643  11.111
36048W        W 8473  10.163  22.532  14.032
36049W        W 8474  12.598  25.663  14.215
36050W        W 8475  40.842   8.654  10.743
36051W        W 8476  16.608  36.078  14.757
36052W        W 8477  44.030   2.428  12.366
36053W        W 8478   4.217  42.025   0.938
36054W        W 8479  15.132  18.116  12.412
36055W        W 8480   7.828  23.130  12.210
36056W        W 8481   5.730  41.332   2.196
36057W        W 8482  13.682  18.944  12.685
36058W        W 8483  24.287  27.228   3.604
36059W        W 8484  40.132  13.979   0.962
36060W        W 8485  31.669  19.924   0.783
36061W        W 8486  27.049  42.790   3.693
36062W        W 8487  10.433   1.886  14.831
36063W        W 8488  22.609   8.680   5.319
36064W        W 8489   3.292  20.435  12.034
36065W        W 8490  21.578   2.320  12.922
36066W        W 8491  17.596   6.305  10.629
36067W        W 8492  17.538  40.553  12.096
36068W        W 8493   7.149  21.063   3.099
36069W        W 8494  31.473  14.336  12.418
36070W        W 8495  24.710   7.224   1.172
36071W        W 8496  23.522  35.163   1.293
36072W        W 8497  16.626  32.913  12.828
36073W        W 8498  21.274  24.190  14.432
36074W        W 8499  43.155  17.507   1.285
36075W        W 8500  18.399  37.310  13.612
36076W        W 8501  41.827  35.928   2.295
36077W        W 8502  26.955  43.421   4.156
36078W        W 8503  40.122  20.561  13.375
36079W        W 8504  36.715   0.255   1.201
36080W        W 8505  36.157  24.124   0.366
36081W        W 8506   1.931  41.580  14.924
36082W        W 8507   8.861  39.558  10.424
36083W        W 8508   2.931  39.790  11.699
36084W        W 8509  36.370  30.292  12.291
36085W        W 8510   9.875  19.742   1.496
36086W        W 8511   4.324  15.112   4.795
36087W        W 8512   0.211  21.656   1.285
36088W        W 8513  24.997  23.231   1.141
36089W        W 8514   4.531  40.796   0.350
36090W        W 8515   3.882  34.925  14.495
36091W        W 8516   7.948  33.862  13.105
36092W        W 8517  31.647  13.614  12.792
36093W        W 8518  34.169  23.688  12.024
36094W        W 8519   6.861  35.038   4.610
36095W        W 8520  23.408  31.646  13.415
36096W        W 8521   3.254   1.703   2.849
36097W        W 8522  26.329   3.816  11.171
36098W        W 8523  20.936  10.393   1.867
36099W        W 8524  23.243  35.291  12.881
36100W        W 8525  44.486  23.637   3.204
36101W        W 8526  30.254   3.435   2.848
36102W        W 8527  22.208   7.532  14.509
36103W        W 8528   2.054   2.039  12.064
36104W        W 8529  30.512  15.591  13.659
36105W        W 8530   3.780  23.720  14.007
36106W        W 8531  12.709   6.202  14.052
36107W        W 8532  29.725   3.258  11.175
36108W        W 8533   5.375  18.860   2.712
36109W        W 8534   9.740   6.744   4.708
36110W        W 8535  43.757  21.138   1.255
36111W        W 8536  41.739  21.410  10.243
36112W        W 8537  16.546   7.696  10.640
36113W        W 8538  44.491   9.635   0.581
36114W        W 8539  26.588   7.185   4.769
36115W        W 8540  29.172  20.527  11.574
36116W        W 8541  10.240  39.334  13.823
36117W        W 8542   6.433   1.684  11.084
36118W        W 8543   2.689   6.286   3.279
36119W        W 8544   2.855   7.987  12.958
36120W        W 8545  33.085  41.950  10.962
36121W        W 8546  16.652  24.094   3.617
36122W        W 8547  16.208  27.610   1.777
36123W        W 8548   5.479  20.345  11.153
36124W        W 8549  20.979  41.818   2.577
36125W        W 8550   0.319  27.708  11.952
36126W        W 8551  13.785   0.711   3.886
36127W        W 8552  26.642  10.925  12.869
36128W        W 8553  23.635   9.299  10.547
36129W        W 8554   3.843  29.647  10.609
36130W        W 8555   5.471   3.717   3.521
36131W        W 8556   5.581  23.219  13.482
36132W        W 8557  11.644  11.757  14.295
36133W        W 8558  40.858  43.479  10.594
36134W        W 8559   6.604  44.315   3.592
36135W        W 8560  37.732  43.910  13.344
36136W        W 8561  19.505  33.857   4.149
36137W        W 8562   3.215  21.534  12.792
36138W        W 8563  33.057   1.245   3.993
36139W        W 8564   5.460  43.717   2.433
36140W        W 8565  30.761  33.135  14.421
36141W        W 8566  44.459  24.077  13.775
36142W        W 8567  21.472  39.637  11.985
36143W        W 8568  13.128   7.294   0.372
36144W        W 8569  21.755  20.212  11.102
36145W        W 8570  14.090  41.522   2.997
36146W        W 8571   1.421  37.554  12.873
36147W        W 8572  11.745  23.575   4.649
36148W        W 8573  26.512  29.925  14.716
36149W        W 8574  44.478  28.742  12.053
36150W        W 8575  26.077   4.649   4.866
36151W        W 8576  40.522  24.911   2.407
36152W        W 8577  34.534  25.751   0.409
36153W        W 8578  42.771  17.874   1.374
36154W        W 8579  42.343  37.518   0.534
36155W        W 8580   0.270  38.054  11.544
36156W        W 8581  10.229  35.463  13.765
36157W        W 8582  32.372  28.857  14.260
36158W        W 8583  27.888  33.467  12.976
36159W        W 8584  30.969  31.885  11.221
36160W        W 8585  17.068  11.690   0.372
36161W        W 8586   1.665  26.436   3.725
36162W        W 8587  14.781  36.355  12.080
36163W        W 8588   9.750  28.155   4.753
36164W        W 8589  26.784  38.809  10.460
36165W        W 8590   2.204  10.188  11.503
36166W        W 8591   7.838  43.937   0.242
36167W        W 8592   4.411  17.799   1.814
36168W        W 8593  25.744  31.955  14.407
36169W        W 8594  28.875  24.655   4.081
36170W        W 8595  31.481  39.792  13.012
36171W        W 8596  35.756  43.116   3.287
36172W        W 8597  40.936  31.484  10.535
36173W        W 8598  21.309  19.853   0.542
36174W        W 8599  31.947   5.999  12.022
36175W        W 8600  28.755  24.141  14.936
36176W        W 8601  16.296  29.625   0.857
36177W        W 8602  29.523  14.860  11.971
36178W        W 8603  29.686  30.988   0.211
36179W        W 8604  12.222  27.661  10.827
36180W        W 8605   5.146  22.710   0.805
36181W        W 8606   7.826  28.448  14.850
36182W        W 8607  36.924  29.006   1.588
36183W        W 8608  40.807  11.208   0.535
36184W        W 8609  25.630   5.701  12.008
36185W        W 8610  31.507  33.939   4.724
36186W        W 8611  10.897  13.525   0.412
36187W        W 8612  23.252  20.988  10.975
36188W        W 8613   7.324  36.342   2.688
36189W        W 8614  27.931  19.255   0.032
36190W        W 8615   9.195  44.270  12.324
36191W        W 8616  25.484  35.322  11.554
36192W        W 8617  40.912  12.149  13.747
36193W        W 8618  13.678  16.687   2.277
36194W        W 8619  21.195  16.760   2.858
36195W        W 8620  25.085  26.232   3.686
36196W        W 8621  33.438  31.145   2.784
36197W        W 8622  32.183  13.135  13.299
36198W        W 8623   3.431  28.086  11.117
36199W        W 8624   9.188  23.155   3.196
36200W        W 8625  31.349  43.356  12.428
36201W        W 8626  38.101  31.632   2.300
36202W        W 8627  20.979  19.293  12.434
36203W        W 8628  20.216  10.639   4.701
36204W        W 8629  20.685  34.495  14.353
36205W        W 8630  28.485  42.880   1.936
36206W        W 8631  27.431  38.050   4.846
36207W        W 8632  28.475  42.069   2.119
36208W        W 8633  28.591  40.454   3.952
36209W        W 8634  10.254  25.444   3.324
36210W        W 8635  24.601  18.841  10.762
36211W        W 8636  16.471  23.231   2.786
36212W        W 8637  26.522  24.608   0.417
36213W        W 8638  21.392  24.986   2.250
36214W        W 8639  22.816   5.180  11.164
36215W        W 8640  26.103   2.422   3.096
36216W        W 8641  11.136   8.811   0.203
36217W        W 8642  27.643  24.480  13.765
36218W        W 8643   7.329  39.083   2.708
36219W        W 8644  24.619  24.490   4.712
36220W        W 8645  38.585   9.684   1.246
36221W        W 8646  43.792   8.866   2.175
36222W        W 8647   0.389  13.322   0.271
36223W        W 8648  35.647  30.613   2.307
36224W        W 8649  44.380  41.383   0.273
36225W        W 8650  27.642  19.062   4.568
36226W        W 8651  20.636  21.027  12.392
36227W        W 8652  22.285  20.305   3.845
36228W        W 8653  20.249   3.151  14.256
36229W        W 8654  34.916  22.698  11.230
36230W        W 8655  32.133  28.119   1.384
36231W        W 8656  33.949  12.022   3.760
36232W        W 8657   6.251  30.536   4.598
36233W        W 8658  39.184  14.668  10.799
36234W        W 8659  14.869  11.738   2.699
36235W        W 8660   1.446  35.439   2.323
36236W        W 8661  44.957  20.060   2.409
36237W        W 8662  14.069  16.175   1.988
36238W        W 8663  41.996  22.882  10.696
36239W        W 8664  13.884  26.991  13.947
36240W        W 8665  32.534   2.488   2.240
36241W        W 8666  13.444  37.247  11.114
36242W        W 8667   8.115  25.158  13.585
36243W        W 8668  39.278  22.424   3.059
36244W        W 8669  15.714   9.589  14.420
36245W        W 8670  22.107  44.782   0.250
36246W        W 8671  25.695  23.088   3.693
36247W        W 8672  37.592  10.423   2.227
36248W        W 8673  26.217  18.292  13.476
36249W        W 8674  30.715   6.761  10.638
36250W        W 8675  24.510  40.510   3.218
36251W        W 8676   7.841   0.398  13.221
36252W        W 8677  12.502   9.001  11.888
36253W        W 8678  31.063   7.677  11.433
36254W        W 8679  35.909   8.746  14.851
36255W        W 8680  30.142  26.095  11.995
36256W        W 8681  18.064  30.178  10.900
36257W        W 8682   6.212  12.538  10.963
36258W        W 8683  15.256  40.057   4.276
36259W        W 8684   9.915  22.629   3.339
36260W        W 8685  26.121   4.050  14.986
36261W        W 8686  21.739  15.303  10.658
36262W        W 8687  20.959  36.038  14.996
36263W        W 8688  44.983  44.305  11.157
36264W        W 8689   0.981  41.005   0.403
36265W        W 8690  35.075  18.371   4.232
36266W        W 8691  17.931   5.285   4.901
36267W        W 8692  26.931  13.245  12.965
36268W        W 8693  17.853  26.153   0.269
36269W        W 8694  39.548   5.800   2.252
36270W        W 8695   1.955  43.857  13.301
36271W        W 8696  33.358  38.889  10.720
36272W        W 8697  18.104  42.963   2.129
36273W        W 8698  39.543  26.348  14.001
36274W        W 8699   5.559  13.656  14.861
36275W        W 8700  38.080   5.063  11.730
36276W        W 8701  18.657  27.708  14.309
36277W        W 8702  22.820  23.219   4.449
36278W        W 8703  15.133   9.586   4.102
36279W        W 8704  31.084  27.976   0.396
36280W        W 8705  16.839   1.219  13.810
36281W        W 8706  10.571  41.715  11.058
36282W        W 8707  42.458  33.902  13.519
36283W        W 8708   1.976  31.947   2.328
36284W        W 8709  40.992  43.332  13.076
36285W        W 8710  30.609   8.411  13.923
36286W        W 8711  15.328   1.753   4.966
36287W        W 8712   7.792   4.972  12.302
36288W        W 8713   1.882  37.122  12.599
36289W        W 8714  28.118  40.831  11.592
36290W        W 8715  16.650  24.026   1.566
36291W        W 8716   5.295  37.012   0.210
36292W        W 8717  32.141   3.829   2.821
36293W        W 8718  36.496  44.883  11.187
36294W        W 8719   2.441   9.409   3.284
36295W        W 8720  34.103  23.252  10.892
36296W        W 8721   4.051  39.603   3.199
36297W        W 8722  22.713   8.174  10.569
36298W        W 8723  14.893  13.753  12.905
36299W        W 8724  16.290  41.053   0.788
36300W        W 8725  17.577  10.813  13.037
36301W        W 8726  25.022  41.521  11.052
36302W        W 8727  11.943  44.962  13.515
36303W        W 8728  15.969   1.290   3.230
36304W        W 8729  32.538  17.346   1.986
36305W        W 8730  11.107   7.118   3.223
36306W        W 8731  11.756  20.744   1.685
36307W        W 8732  43.371  37.380   2.182
36308W        W 8733  24.555   2.356   0.200
36309W        W 8734  32.703  34.457   0.083
36310W        W 8735  36.155  39.976  13.903
36311W        W 8736  44.070  15.075  12.899
36312W        W 8737  36.972  13.261  10.648
36313W        W 8738  29.927  20.589  10.349
36314W        W 8739   6.655   9.894   4.169
36315W        W 8740  33.620   7.783  14.173
36316W        W 8741   4.716   9.752   3.530
36317W        W 8742  35.932  26.958   1.701
36318W        W 8743   7.822   4.434  12.407
36319W        W 8744  18.712  13.120   1.820
36320W        W 8745  10.514  37.328  13.398
36321W        W 8746   0.452  40.766  11.930
36322W        W 8747   0.978  42.804   0.053
36323W        W 8748  11.191  38.817  11.955
36324W        W 8749  34.375  11.726  12.423
36325W        W 8750  33.822   7.996  13.305
36326W        W 8751   2.965  36.587  12.824
36327W        W 8752  18.850   6.286  13.368
36328W        W 8753  12.395  42.041   1.730
36329W        W 8754   8.514  15.965  13.914
36330W        W 8755  11.635  19.852  11.292
36331W        W 8756  27.120  38.007   1.415
36332W        W 8757  21.196  27.937   0.007
36333W        W 8758  44.937  13.884  13.781
36334W        W 8759  19.479  13.824  12.093
36335W        W 8760   4.623  32.645   2.359
36336W        W 8761   2.301  10.384   1.370
36337W        W 8762  24.433  31.469   0.967
36338W        W 8763  35.986  19.302   0.188
36339W        W 8764  30.352  26.664  12.030
36340W        W 8765  23.967  29.994   3.191
36341W        W 8766  32.127  26.432  11.460
36342W        W 8767   4.078  25.268   1.856
36343W        W 8768   8.305  13.188  13.388
36344W        W 8769  17.520  18.596   2.800
36345W        W 8770   8.401  26.245   0.454
36346W        W 8771  15.944  32.362   0.393
36347W        W 8772  20.599  22.657   0.413
36348W        W 8773   3.319  36.582   2.842
36349W        W 8774   3.539  12.772  14.716
36350W        W 8775  39.812   8.615   0.692
36351W        W 8776  16.117  24.954  10.682
36352W        W 8777   0.753   9.657   2.329
36353W        W 8778  30.466  23.249  13.499
36354W        W 8779  25.736   3.943   1.734
36355W        W 8780  42.951  25.235   1.896
36356W        W 8781   8.953  38.882  11.252
36357W        W 8782  17.647  27.553  13.816
36358W        W 8783  14.872  28.139   0.033
36359W        W 8784  34.146  27.578  11.132
36360W        W 8785  29.412   1.330  14.045
36361W        W 8786  24.092  12.258  12.046
36362W        W 8787   2.224  11.352  10.667
36363W        W 8788  11.978  38.303  14.448
36364W        W 8789   8.452  37.016   3.982
36365W        W 8790  40.654  14.185  11.231
36366W        W 8791  13.294  29.808   3.613
36367W        W 8792  38.893  15.209  11.545
36368W        W 8793   7.342   6.800   4.987
36369W        W 8794  23.660  34.564  14.423
36370W        W 8795  40.849  17.605  11.508
36371W        W 8796  41.169   6.901   0.844
36372W        W 8797  12.561   6.278  11.482
36373W        W 8798   1.477  33.395   0.103
36374W        W 8799  42.611   6.945  12.353
36375W        W 8800  28.223  31.462  10.334
36376W        W 8801  22.768  29.946   1.204
36377W        W 8802  20.288  33.925   0.368
36378W        W 8803  23.102   2.867  13.281
36379W        W 8804   9.623   1.271   2.827
36380W        W 8805  12.387  25.506   1.691
36381W        W 8806  17.339  16.067  14.582
36382W        W 8807  22.618  37.887   2.685
36383W        W 8808  34.875  10.612  10.686
36384W        W 8809   7.941   2.189   0.450
36385W        W 8810  18.275  37.086   0.829
36386W        W 8811  30.038  15.366  13.427
36387W        W 8812  16.555  44.590  11.717
36388W        W 8813  14.191  38.532  14.407
36389W        W 8814  30.881  16.272   0.875
36390W        W 8815  20.055  17.812   4.263
36391W        W 8816  16.220  30.210   4.008
36392W        W 8817  39.568  26.426  12.124
36393W        W 8818   5.890  29.801  12.112
36394W        W 8819  18.071  19.282   3.332
36395W        W 8820  20.286  28.771  12.157
36396W        W 8821   3.675   8.930   0.884
36397W        W 8822   8.327  40.750  12.783
36398W        W 8823  32.195  20.649   0.175
36399W        W 8824  20.178   6.939   2.503
36400W        W 8825  31.192   1.711  11.118
36401W        W 8826  19.125  14.140  11.846
36402W        W 8827  43.278   3.685   0.425
36403W        W 8828  15.107  15.755   4.245
36404W        W 8829  26.084  29.118   1.714
36405W        W 8830  17.670  12.220  13.772
36406W        W 8831  12.325  17.058   0.437
36407W        W 8832  11.563  23.473   0.805
36408W        W 8833  18.584   2.966  11.009
36409W        W 8834  11.886  29.648   3.457
36410W        W 8835   0.435  35.207   2.219
36411W        W 8836  20.742  14.230   4.975
36412W        W 8837  40.052  31.404  14.977
36413W        W 8838  39.139  40.351  10.511
36414W        W 8839  42.274  32.352  11.074
36415W        W 8840  11.983  13.254   5.164
36416W        W 8841  27.511   4.855  12.366
36417W        W 8842  35.946   1.208   0.311
36418W        W 8843   4.922   0.251  13.344
36419W        W 8844   9.795  18.324  12.479
36420W        W 8845   5.865  28.455   4.556
36421W        W 8846  14.764  35.782  11.081
36422W        W 8847   1.493  14.447  11.423
36423W        W 8848  33.107  11.734  11.852
36424W        W 8849  15.348  37.788   0.348
36425W        W 8850  24.020  37.085   0.730
36426W        W 8851  24.611  44.248   2.260
36427W        W 8852  25.628  40.474   2.777
36428W        W 8853  32.160  28.241  12.121
36429W        W 8854  23.474  30.245   3.316
36430W        W 8855  23.281  10.764   0.920
36431W        W 8856  34.093  32.105  12.677
36432W        W 8857  11.416  33.453   3.893
36433W        W 8858   2.223  38.556   3.832
36434W        W 8859   7.321  34.458  12.878
36435W        W 8860  35.037   0.938   3.144
36436W        W 8861  35.143  31.585  12.924
36437W        W 8862  33.880  37.671  12.525
36438W        W 8863  11.168  35.575   2.825
36439W        W 8864  15.850  23.015   4.328
36440W        W 8865  36.910  13.659   3.567
36441W        W 8866  17.701  33.114   1.551
36442W        W 8867  38.152  24.582  10.628
36443W        W 8868  40.576  12.220   0.393
36444W        W 8869  30.221  21.072  13.948
36445W        W 8870   5.082  16.300   4.772
36446W        W 8871  20.166  33.018   3.099
36447W        W 8872   7.396   9.564  12.445
36448W        W 8873  36.515   0.745  12.124
36449W        W 8874   3.274  16.905  12.774
36450W        W 8875  16.520  10.179   2.148
36451W        W 8876  21.483  41.818   4.602
36452W        W 8877  28.231   4.794   3.325
36453W        W 8878  25.051   0.845   2.883
36454W        W 8879  42.943  39.743   4.161
36455W        W 8880   9.948  25.509  10.973
36456W        W 8881  41.941  28.400  11.527
36457W        W 8882  42.728  14.830  12.947
36458W        W 8883  34.998   4.473  10.902
36459W        W 8884  40.911  12.763  14.428
36460W        W 8885  16.397  16.792  14.648
36461W        W 8886  16.349  22.724   2.785
36462W        W 8887  19.791   2.220   3.289
36463W        W 8888  10.171  31.610  13.330
36464W        W 8889  41.374  16.093   3.203
36465W        W 8890  25.116  12.741  12.026
36466W        W 8891  29.154  26.691   0.897
36467W        W 8892  24.003   4.308  11.080
36468W        W 8893  21.193  38.736   2.248
36469W        W 8894  13.239  35.473  12.960
36470W        W 8895  39.568  35.340  12.490
36471W        W 8896  34.050  38.584   2.281
36472W        W 8897  42.002  11.398   1.380
36473W        W 8898  31.371   0.817  13.154
36474W        W 8899   4.015  40.340  13.112
36475W        W 8900  16.801  43.680  14.786
36476W        W 8901  17.376  17.397   1.731
36477W        W 8902  16.823  15.788   4.091
36478W        W 8903  40.588  19.780  14.979
36479W        W 8904  26.959  39.838   4.385
36480W        W 8905  10.377   1.567  11.988
36481W        W 8906  34.509  17.712  11.374
36482W        W 8907  31.584  37.937  14.459
36483W        W 8908  29.407  28.259   1.808
36484W        W 8909  44.709  26.747   0.809
36485W        W 8910  17.736  17.955   3.510
36486W        W 8911   7.736  35.177   3.146
36487W        W 8912  44.517  17.973  10.812
36488W        W 8913  29.119  31.548  13.077
36489W        W 8914  11.589  13.757  14.896
36490W        W 8915  34.564  21.575  13.309
36491W        W 8916  34.669  38.562  12.095
36492W        W 8917  33.060  10.865  10.737
36493W        W 8918  24.945  43.776   1.531
36494W        W 8919  44.708  42.449   1.659
36495W        W 8920   6.714   5.378  10.919
36496W        W 8921  16.226  28.211  14.368
36497W        W 8922  35.718  33.560  13.555
36498W        W 8923  41.304  39.492  11.591
36499W        W 8924  39.606   9.950   1.690
36500W        W 8925  14.565  22.016   4.724
36501W        W 8926   5.663  15.657   3.324
36502W        W 8927  21.581  39.046   0.049
36503W        W 8928   2.791   3.668   0.366
36504W        W 8929  33.148   2.969  12.374
36505W        W 8930  43.834   5.123  12.469
36506W        W 8931  14.163   4.901   4.509
36507W        W 8932   4.729  30.169   2.799
36508W        W 8933  29.403   7.379  13.928
36509W        W 8934  40.390  31.370  13.470
36510W        W 8935  35.089   3.383  14.361
36511W        W 8936  10.175  40.830  11.972
36512W        W 8937   7.395  21.117   3.654
36513W        W 8938  19.591  23.992   1.013
36514W        W 8939  12.109  12.556  12.993
36515W        W 8940  34.425  33.610   2.320
36516W        W 8941  19.026   6.031  13.792
36517W        W 8942  43.686   0.333  13.473
36518W        W 8943  31.000   7.705   0.207
36519W        W 8944   4.606  39.109   3.548
36520W        W 8945   4.708   6.144  13.876
36521W        W 8946   9.862  18.066  10.533
36522W        W 8947  33.159  41.913  12.154
36523W        W 8948  41.080  36.434   4.329
36524W        W 8949  22.993  32.449  13.765
36525W        W 8950  36.802   6.623   0.982
36526W        W 8951  39.974   5.404  11.579
36527W        W 8952  13.740   8.122  13.785
36528W        W 8953  16.696  33.646   1.776
36529W        W 8954  31.193  13.817  11.134
36530W        W 8955  11.829   1.217   4.344
36531W        W 8956  28.276  31.120  12.933
36532W        W 8957  25.186  21.604   3.345
36533W        W 8958  15.576  20.260   1.720
36534W        W 8959  42.916   0.337   0.320
36535W        W 8960  28.715  42.976   2.381
36536W        W 8961  25.037   1.704   1.735
36537W        W 8962  33.997  14.352  14.560
36538W        W 8963  31.444  26.127   0.733
36539W        W 8964  38.063   9.229  13.350
36540W        W 8965  25.488   1.474  14.771
36541W        W 8966  36.139   2.407  13.067
36542W        W 8967  26.027  27.606   1.506
36543W        W 8968   5.218   0.116  11.477
36544W        W 8969   6.950  21.185  14.286
36545W        W 8970  15.247  31.175  12.876
36546W        W 8971  12.605  32.445  13.835
36547W        W 8972  38.467  16.925  11.105
36548W        W 8973  22.167  22.049  14.291
36549W        W 8974  20.698  16.663  11.521
36550W        W 8975  11.084  38.869  13.958
36551W        W 8976  29.032  32.874   4.893
36552W        W 8977  18.490   0.356  11.385
36553W        W 8978  39.426  24.401   1.890
36554W        W 8979   2.698  24.249  12.340
36555W        W 8980  34.605  16.251   3.652
36556W        W 8981  10.227   9.673   4.637
36557W        W 8982   5.933  10.184   9.892
36558W        W 8983  38.036  40.934   0.996
36559W        W 8984  43.333   4.880  13.139
36560W        W 8985  23.008  24.270  14.092
36561W        W 8986  12.651  24.146  12.031
36562W        W 8987  26.911   6.351   3.879
36563W        W 8988  22.778  39.402  11.602
36564W        W 8989   6.529   6.168  11.692
36565W        W 8990  43.807  16.765   1.177
36566W        W 8991  35.063  28.852  13.117
36567W        W 8992  28.707  18.992   3.746
36568W        W 8993  13.150  42.130  12.628
36569W        W 8994  24.520  16.724   0.988
36570W        W 8995  17.315  24.884   0.485
36571W        W 8996  21.780  42.980  13.179
36572W        W 8997  27.552  15.810  11.438
36573W        W 8998  29.317  20.062   1.248
36574W        W 8999  27.600  40.038   2.298
36575W        W 9000  21.062   0.830   1.040
36576W        W 9001  26.549  17.799  14.400
36577W        W 9002  37.048  16.679   4.366
36578W        W 9003  36.012  18.774  12.039
36579W        W 9004  16.991  21.741  14.986
36580W        W 9005   1.736   9.086   5.046
36581W        W 9006  35.586  13.503   1.899
36582W        W 9007  36.772  34.976   2.300
36583W        W 9008  37.018  36.505   2.766
36584W        W 9009   1.151   5.119  14.603
36585W        W 9010  43.542   0.675  12.456
36586W        W 9011  20.638   8.819  12.796
36587W        W 9012  31.685  16.530  10.684
36588W        W 9013  24.552  16.168  13.775
36589W        W 9014  30.888  39.526  13.574
36590W        W 9015  13.899  44.788   2.388
36591W        W 9016  29.214  24.963  11.182
36592W        W 9017  11.670  32.498  13.110
36593W        W 9018  41.744  29.092  10.930
36594W        W 9019  18.151  21.719  13.915
36595W        W 9020  32.970   6.397  11.898
36596W        W 9021  34.301   7.171   2.244
36597W        W 9022  28.510   4.326   4.309
36598W        W 9023  37.569  42.755  11.848
36599W        W 9024  41.700  42.278   3.181
36600W        W 9025   3.859  33.998   0.946
36601W        W 9026   1.986  35.866  11.153
36602W        W 9027  33.910  32.615   1.275
36603W        W 9028  20.519  12.742   3.322
36604W        W 9029  20.265  23.975   2.892
36605W        W 9030  30.237  41.871  10.556
36606W        W 9031  14.681  19.238  13.425
36607W        W 9032   3.288  22.707   0.013
36608W        W 9033  17.343  10.437   1.850
36609W        W 9034  22.764  19.527  12.508
36610W        W 9035  11.121   3.469   0.669
36611W        W 9036   2.571  42.796   4.954
36612W        W 9037  44.738   8.374  11.128
36613W        W 9038  11.763  23.066  11.578
36614W        W 9039  29.013  18.229  12.946
36615W        W 9040   0.169  14.372  12.875
36616W        W 9041  28.207   5.456   1.670
36617W        W 9042  11.563   2.401   1.414
36618W        W 9043   8.623  20.589  12.925
36619W        W 9044   5.129  32.537  12.533
36620W        W 9045   4.639   9.261   4.997
36621W        W 9046  39.981  24.593  12.906
36622W        W 9047  19.639  33.918  10.333
36623W        W 9048   6.679  32.199   0.249
36624W        W 9049  33.740  14.033  12.491
36625W        W 9050   3.226  12.519  12.515
36626W        W 9051  44.972  18.312   3.700
36627W        W 9052  44.962  14.820  10.699
36628W        W 9053  44.808  19.326   3.751
36629W        W 9054  29.655  37.411  10.753
36630W        W 9055   0.642  23.047  12.478
36631W        W 9056   5.689  21.663  11.601
36632W        W 9057  12.702  26.624  14.725
36633W        W 9058  22.948  12.848   3.595
36634W        W 9059  43.431  31.692  10.686
36635W        W 9060  19.816  38.526  13.869
36636W        W 9061  30.636  10.311  11.151
36637W        W 9062  20.438  37.948   1.924
36638W        W 9063  20.940  33.504  13.277
36639W        W 9064  18.053  37.824  14.442
36640W        W 9065  42.993   0.277  10.775
36641W        W 9066  11.304  29.564  12.089
36642W        W 9067  42.540  36.209  13.089
36643W        W 9068  16.279  18.551  13.798
36644W        W 9069  31.213  37.433   4.925
36645W        W 9070  31.521   2.970   2.905
36646W        W 9071  38.173  21.168   4.784
36647W        W 9072  10.815  18.828   4.688
36648W        W 9073  21.041  14.722  14.127
36649W        W 9074  43.369  14.459  13.205
36650W        W 9075  20.651  30.673  12.824
36651W        W 9076  42.590  10.975   1.927
36652W        W 9077   1.731  13.707   2.181
36653W        W 9078  42.550  11.840  12.568
36654W        W 9079  43.376  21.706   0.834
36655W        W 9080  11.148  15.763   3.252
36656W        W 9081  39.186  20.978   2.887
36657W        W 9082  34.593  12.914   0.884
36658W        W 9083  10.870  16.323   1.333
36659W        W 9084  10.245   7.466  14.324
36660W        W 9085   8.273   5.288  11.154
36661W        W 9086  16.217  35.521   3.186
36662W        W 9087  39.938  32.382  10.701
36663W        W 9088   3.827  35.280  12.238
36664W        W 9089   4.197  26.586  11.709
36665W        W 9090   4.796  35.338  10.671
36666W        W 9091   9.895  41.892   1.838
36667W        W 9092  18.417  13.349  14.291
36668W        W 9093   1.561  33.329   1.525
36669W        W 9094   8.404  19.692   0.298
36670W        W 9095  21.957   2.274  13.736
36671W        W 9096  25.576  16.997   4.618
36672W        W 9097   7.262  32.018   2.459
36673W        W 9098  39.711   8.649   4.429
36674W        W 9099  11.088   9.914   5.008
36675W        W 9100  22.197   3.155  10.783
36676W        W 9101   4.991   2.699   1.320
36677W        W 9102  42.027  14.033  11.200
36678W        W 9103  19.388   1.089  10.837
36679W        W 9104  37.428  15.623  14.104
36680W        W 9105   6.365   7.349   0.734
36681W        W 9106   5.625  27.991  13.006
36682W        W 9107  30.064  11.916   2.806
36683W        W 9108   3.007   4.239  12.371
36684W        W 9109   6.096  18.721  10.802
36685W        W 9110  15.688  31.648  13.397
36686W        W 9111  36.656  11.783  11.267
36687W        W 9112  13.347  16.058   2.288
36688W        W 9113  44.080   2.884   1.003
36689W        W 9114  16.525  10.912  12.963
36690W        W 9115  41.939   8.548   3.071
36691W        W 9116  21.633  23.473  14.205
36692W        W 9117   7.851  38.555   2.241
36693W        W 9118  40.136   8.833   4.218
36694W        W 9119  34.014   2.161  13.592
36695W        W 9120  20.901  30.242  12.625
36696W        W 9121  15.527  18.290   5.146
36697W        W 9122  36.887   1.288   0.366
36698W        W 9123   5.644   0.446   0.855
36699W        W 9124  15.782  29.304   1.842
36700W        W 9125  14.222   9.596  14.470
36701W        W 9126   8.314   1.485  12.819
36702W        W 9127  38.142  25.031   9.626
36703W        W 9128  31.585  12.624   2.383
36704W        W 9129  19.054  23.254  10.735
36705W        W 9130   4.946  25.789  11.624
36706W        W 9131   1.682   2.487  10.596
36707W        W 9132   9.898  41.575   2.255
36708W        W 9133  27.071   5.226   4.585
36709W        W 9134   4.380  24.669  12.881
36710W        W 9135   2.403  38.589   1.752
36711W        W 9136  22.496  29.981   0.745
36712W        W 9137  28.024  40.653  12.398
36713W        W 9138   2.382  11.482   2.137
36714W        W 9139  14.795  44.766   0.276
36715W        W 9140  35.427  23.214  13.568
36716W        W 9141  14.375  11.207  13.137
36717W        W 9142  18.937  23.615   1.600
36718W        W 9143  26.162   4.393  10.942
36719W        W 9144  38.653  28.482   2.848
36720W        W 9145  20.063   4.222   1.403
36721W        W 9146   4.277   7.658  14.082
36722W        W 9147  31.673  28.854  11.563
36723W        W 9148  19.644   7.935   4.208
36724W        W 9149  17.814   9.917   0.987
36725W        W 9150  34.815   5.672   4.585
36726W        W 9151  40.576   1.041   0.938
36727W        W 9152  11.078  42.968  14.517
36728W        W 9153  15.862  37.419   1.980
36729W        W 9154  15.303  32.439   4.658
36730W        W 9155  40.413  29.941   3.674
36731W        W 9156  35.897  42.918   2.464
36732W        W 9157  13.723  37.128  12.962
36733W        W 9158  31.031  10.687  11.126
36734W        W 9159   4.450  20.631  14.394
36735W        W 9160  41.004  39.782  10.661
36736W        W 9161  32.400   1.245  13.876
36737W        W 9162  23.988  27.361  13.967
36738W        W 9163  30.028  35.424   4.031
36739W        W 9164  30.980  10.252  10.322
36740W        W 9165  44.527  19.326   0.261
36741W        W 9166   6.757  28.055   4.309
36742W        W 9167   4.789  22.852  13.754
36743W        W 9168  22.470  18.668  11.423
36744W        W 9169  24.747  10.647   5.059
36745W        W 9170  16.320   3.505   1.964
36746W        W 9171  18.303   1.778   3.671
36747W        W 9172  13.359   8.217   1.900
36748W        W 9173  27.986  44.223   2.552
36749W        W 9174  11.562  40.424   3.921
36750W        W 9175  19.245  26.125   4.684
36751W        W 9176  18.256  38.371  11.646
36752W        W 9177  20.470  16.376  12.467
36753W        W 9178  30.183  33.434   3.291
36754W        W 9179   6.693  20.669  13.071
36755W        W 9180  29.339  30.239  14.825
36756W        W 9181  34.370  14.641   4.043
36757W        W 9182  42.375  24.679   4.274
36758W        W 9183  43.487  29.987  12.158
36759W        W 9184  29.024   7.886  11.256
36760W        W 9185  24.595  10.083   5.007
36761W        W 9186  24.410  35.984  14.469
36762W        W 9187  19.046   8.724  12.420
36763W        W 9188  24.276  38.407  12.590
36764W        W 9189  24.224  28.174   0.373
36765W        W 9190  39.376   0.891   3.983
36766W        W 9191   3.742   0.804   4.783
36767W        W 9192  16.228  21.513  11.967
36768W        W 9193  39.038  42.769   2.581
36769W        W 9194  43.568  41.930   1.707
36770W        W 9195   9.846  37.090   2.307
36771W        W 9196  33.054  17.499  12.523
36772W        W 9197   5.771  20.701  13.117
36773W        W 9198  31.039  26.174  11.842
36774W        W 9199  43.238  11.817   1.717
36775W        W 9200  19.018  15.299   3.304
36776W        W 9201  14.801  17.772  14.322
36777W        W 9202  25.646  33.742  14.106
36778W        W 9203  36.774   5.661  11.776
36779W        W 9204  38.982  22.546  10.216
36780W        W 9205  22.670  18.316   2.214
36781W        W 9206   1.202  41.481   4.443
36782W        W 9207  24.188  18.697   1.672
36783W        W 9208  31.304   6.934  12.104
36784W        W 9209  25.609  22.441  13.057
36785W        W 9210  39.298  38.450   3.298
36786W        W 9211  43.410  26.932   1.131
36787W        W 9212  41.727  20.066   4.373
36788W        W 9213  26.537   1.468  12.146
36789W        W 9214  29.869   8.329   0.913
36790W        W 9215  10.062   2.830   3.935
36791W        W 9216  15.771  24.456   2.968
36792W        W 9217  41.953  43.960  10.871
36793W        W 9218  13.350  32.115  10.677
36794W        W 9219  43.423   8.812   2.594
36795W        W 9220  40.891  21.124   3.659
36796W        W 9221  23.540  28.539  12.176
36797W        W 9222  19.012  20.579  13.882
36798W        W 9223  32.515  39.058  14.823
36799W        W 9224  44.906  28.488  11.149
36800W        W 9225  26.517  12.182  10.964
36801W        W 9226  11.603  22.227   3.336
36802W        W 9227  34.385  35.990   1.339
36803W        W 9228  34.049   8.727   3.353
36804W        W 9229  25.719   4.484   1.716
36805W        W 9230  33.953  16.137   0.436
36806W        W 9231  36.155  20.029  11.384
36807W        W 9232  35.738   7.595   3.287
36808W        W 9233   3.815  41.354   0.425
36809W        W 9234  31.873  38.133   4.875
36810W        W 9235  44.812  30.027   2.488
36811W        W 9236   9.052  35.647  14.486
36812W        W 9237  34.179  23.520   1.235
36813W        W 9238  25.004  38.956  14.445
36814W        W 9239  23.547  44.080   4.196
36815W        W 9240   3.098  29.399  13.618
36816W        W 9241  14.758   6.637  12.775
36817W        W 9242  10.593   1.354  12.420
36818W        W 9243  31.184  31.162  14.302
36819W        W 9244  35.469   3.310   1.524
36820W        W 9245  35.505  35.530  12.906
36821W        W 9246  35.467  38.895  10.690
36822W        W 9247   0.880  11.778  12.412
36823W        W 9248  11.276  12.083   2.812
36824W        W 9249  33.311  34.305   4.401
36825W        W 9250  38.968  35.514   3.588
36826W        W 9251  30.701  34.967   4.633
36827W        W 9252   7.595  33.486   0.790
36828W        W 9253  41.991  25.167   3.777
36829W        W 9254  18.000   9.641   0.530
36830W        W 9255  16.985  36.111   5.270
36831W        W 9256  34.312  19.895   1.107
36832W        W 9257  22.300  15.239  10.682
36833W        W 9258  21.749  20.139   3.278
36834W        W 9259  29.157   7.634  11.694
36835W        W 9260  36.531  34.094  12.433
36836W        W 9261  12.746  35.582   0.392
36837W        W 9262  24.322  42.485   3.217
36838W        W 9263  38.076  31.692  11.962
36839W        W 9264  43.595  31.026  14.954
36840W        W 9265  28.006  38.762  10.656
36841W        W 9266  19.987  40.179   1.294
36842W        W 9267   1.586  11.378  13.320
36843W        W 9268  43.456  33.689  12.990
36844W        W 9269   9.806   3.809   4.049
36845W        W 9270  38.751   8.241  13.336
36846W        W 9271  40.099  12.290  10.612
36847W        W 9272   6.994  41.733   2.886
36848W        W 9273  25.691  29.876   4.851
36849W        W 9274  32.843   6.323  11.404
36850W        W 9275  30.476   0.278   3.294
36851W        W 9276  26.947  24.206   2.628
36852W        W 9277  28.715   0.272  13.393
36853W        W 9278   6.935  11.747   0.697
36854W        W 9279  38.067  21.971   1.361
36855W        W 9280   0.987   9.049   4.125
36856W        W 9281  20.043  37.753   5.076
36857W        W 9282  30.140  15.320  11.513
36858W        W 9283  34.031  33.976   2.416
36859W        W 9284   3.408  19.591  14.052
36860W        W 9285   2.712  23.949   1.767
36861W        W 9286  29.667   6.942  13.800
36862W        W 9287  23.075  34.080  12.547
36863W        W 9288  11.231  20.302  12.101
36864W        W 9289  18.609  18.154   3.081
36865W        W 9290  25.122   4.786   2.809
36866W        W 9291   7.124  15.745  11.123
36867W        W 9292  30.646  11.937  12.432
36868W        W 9293   1.939  22.706   2.054
36869W        W 9294  31.285  16.773   1.684
36870W        W 9295   7.695  29.197   1.815
36871W        W 9296  36.766  16.237   4.491
36872W        W 9297  10.268  20.224  13.411
36873W        W 9298  24.533  32.747  14.244
36874W        W 9299  25.229   9.360  12.074
36875W        W 9300  30.356   3.668  12.047
36876W        W 9301  21.661  32.425   0.820
36877W        W 9302  40.560   9.772   1.189
36878W        W 9303  37.192  34.352  14.892
36879W        W 9304  35.623  38.403  10.659
36880W        W 9305   4.872   7.694  12.656
36881W        W 9306  44.747   1.156   3.293
36882W        W 9307   0.931  20.905   2.220
36883W        W 9308   1.801  18.960   1.743
36884W        W 9309  32.039   4.945  12.073
36885W        W 9310   6.142  18.654   2.229
36886W        W 9311  36.537  24.634   0.285
36887W        W 9312  40.431  19.813   4.701
36888W        W 9313  26.172   5.335  10.673
36889W        W 9314   6.745  39.275  11.501
36890W        W 9315   8.728  33.659   1.663
36891W        W 9316  26.503   3.324  11.079
36892W        W 9317  36.457  28.428   1.266
36893W        W 9318  32.852   9.011  14.410
36894W        W 9319  28.698  23.245   0.440
36895W        W 9320  24.406   2.028   0.869
36896W        W 9321   9.070   4.475  13.757
36897W        W 9322   4.373  36.115  10.724
36898W        W 9323   9.913  41.800  12.525
36899W        W 9324  29.475  32.948  14.351
36900W        W 9325  15.280  12.666   0.463
36901W        W 9326  21.638   9.611  14.818
36902W        W 9327  25.967  41.417  13.972
36903W        W 9328  22.798  39.447  13.866
36904W        W 9329  44.230  27.372   1.406
36905W        W 9330  41.076  22.042   0.955
36906W        W 9331  42.512  19.141  10.584
36907W        W 9332  23.919  40.765  13.258
36908W        W 9333  19.629   4.956  13.491
36909W        W 9334  40.466  21.285  10.718
36910W        W 9335  16.591  43.457  13.291
36911W        W 9336   8.781   8.184  11.146
36912W        W 9337  25.042  17.128  10.578
36913W        W 9338  30.359   2.371   0.989
36914W        W 9339  17.796  12.153   4.060
36915W        W 9340  40.309  18.541  12.392
36916W        W 9341  28.120  44.876  10.849
36917W        W 9342  17.309  20.789   3.935
36918W        W 9343  27.480  20.998   0.640
36919W        W 9344   7.718   2.460   0.841
36920W        W 9345  21.207  21.135   3.583
36921W        W 9346  41.436  42.541   4.828
36922W        W 9347  10.390  41.427  14.433
36923W        W 9348  29.122  36.496  13.384
36924W        W 9349   3.433   4.769   0.463
36925W        W 9350   3.825  18.732   2.767
36926W        W 9351  43.424   1.333  14.453
36927W        W 9352  34.848  17.992  12.544
36928W        W 9353  44.141  23.047  12.436
36929W        W 9354  32.886  22.161   0.361
36930W        W 9355  39.864  13.067  11.218
36931W        W 9356   4.849  42.325  11.706
36932W        W 9357  42.589  35.404   2.372
36933W        W 9358  39.062  41.863  12.324
36934W        W 9359   9.458  35.443  12.627
36935W        W 9360  38.753  15.683   0.836
36936W        W 9361  41.647  42.231   0.773
36937W        W 9362  29.469  23.300   3.808
36938W        W 9363  27.598  39.526   1.003
36939W        W 9364  19.211  33.025   4.676
36940W        W 9365  30.920  41.921  13.610
36941W        W 9366   6.294  36.015  11.047
36942W        W 9367  21.553  25.986   2.392
36943W        W 9368  13.142  44.491  11.071
36944W        W 9369  16.596   8.869  14.012
36945W        W 9370  35.132   2.642  13.952
36946W        W 9371   6.695  30.237  13.487
36947W        W 9372  42.811  24.539  14.493
36948W        W 9373  32.563  30.997   4.356
36949W        W 9374  33.342   1.390  14.438
36950W        W 9375  33.026  34.329   3.594
36951W        W 9376  37.862  16.796   1.889
36952W        W 9377  34.967   6.419  13.005
36953W        W 9378  30.630  31.501  13.536
36954W        W 9379   1.762  15.289   2.166
36955W        W 9380  31.006  19.222   0.334
36956W        W 9381   0.434  28.595   2.828
36957W        W 9382   3.910  26.021   3.372
36958W        W 9383  12.162  27.255  10.495
36959W        W 9384  12.710  38.011   1.236
36960W        W 9385  13.466   8.662  11.853
36961W        W 9386  34.170  18.336   3.255
36962W        W 9387  38.371  18.372   1.159
36963W        W 9388  31.855  40.251  13.933
36964W        W 9389  24.435   9.843  12.024
36965W        W 9390  43.584  26.298  11.089
36966W        W 9391  34.417  21.140  14.144
36967W        W 9392   6.889  31.809  11.804
36968W        W 9393   8.826  40.380   4.545
36969W        W 9394  10.436  42.903  10.814
36970W        W 9395  31.398  33.063  14.944
36971W        W 9396  15.042   4.838   1.304
36972W        W 9397  16.338  23.003   1.326
36973W        W 9398   9.169  18.704  12.064
36974W        W 9399  38.054   3.827  12.046
36975W        W 9400  43.373  10.745   4.272
36976W        W 9401  20.291  37.715   2.648
36977W        W 9402  26.751  16.072   3.719
36978W        W 9403  40.013  35.019   3.045
36979W        W 9404  35.576  40.976  14.832
36980W        W 9405  21.583  20.731   4.799
36981W        W 9406  34.952  37.851  10.731
36982W        W 9407  18.686   3.545  14.003
36983W        W 9408   2.769  44.356   1.306
36984W        W 9409  34.442   2.340   3.392
36985W        W 9410  28.200  27.108  10.409
36986W        W 9411  23.843  15.731   0.524
36987W        W 9412  40.467   9.940   1.671
36988W        W 9413  20.246  30.215   1.086
36989W        W 9414  25.893  34.545   3.624
36990W        W 9415   3.915  18.701  10.662
36991W        W 9416  40.966  32.431  10.640
36992W        W 9417  33.410  39.042   0.328
36993W        W 9418  39.743  10.406   1.480
36994W        W 9419  13.280  39.391  12.509
36995W        W 9420  44.483  24.586  10.639
36996W        W 9421  29.910  15.151   4.251
36997W        W 9422  33.937  12.057  11.720
36998W        W 9423  19.167  35.031   3.831
36999W        W 9424   9.541   7.527  13.575
37000W        W 9425  11.176  43.209   2.312
37001W        W 9426   2.016  12.871  11.432
37002W        W 9427  41.651   1.830  10.647
37003W        W 9428  17.434   0.702   0.411
37004W        W 9429  19.689  39.851   0.915
37005W        W 9430  35.247  30.060  14.856
37006W        W 9431  33.754  15.170  12.078
37007W        W 9432  22.815  35.416   1.184
37008W        W 9433  42.562  21.979   2.052
37009W        W 9434   7.598  22.980   1.399
37010W        W 9435  14.085  32.313  13.834
37011W        W 9436   2.215  28.224   2.394
37012W        W 9437  32.865  11.253   1.399
37013W        W 9438  34.342  44.649   1.544
37014W        W 9439   5.742   8.327  11.627
37015W        W 9440  25.131  41.413  13.444
37016W        W 9441   3.166  44.289  13.430
37017W        W 9442  10.651   3.970   1.231
37018W        W 9443  28.209  26.180  12.453
37019W        W 9444  39.941   0.037   1.789
37020W        W 9445  20.848   7.921   3.868
37021W        W 9446  42.437  31.349  12.338
37022W        W 9447  13.314  20.809  13.736
37023W        W 9448   5.628  41.524  14.234
37024W        W 9449  40.548   1.358   0.144
37025W        W 9450  13.959  16.007   3.324
37026W        W 9451   3.887   2.856   4.390
37027W        W 9452  28.544   7.119  11.119
37028W        W 9453   7.941  20.230   3.767
37029W        W 9454  40.427  35.651  10.671
37030W        W 9455   5.267  33.209  12.085
37031W        W 9456  16.763  10.170  11.890
37032W        W 9457  12.574  39.878   4.626
37033W        W 9458   5.712  25.911  11.521
37034W        W 9459  40.486  25.071   1.906
37035W        W 9460   0.231  29.205  12.222
37036W        W 9461   4.490  35.964  14.715
37037W        W 9462  11.840   2.926   0.691
37038W        W 9463  32.061   4.662  11.588
37039W        W 9464  44.378  11.665  12.999
37040W        W 9465  17.314  38.385   1.436
37041W        W 9466  22.431  17.961  10.143
37042W        W 9467   9.037  32.315  13.276
37043W        W 9468  14.697  26.714  12.345
37044W        W 9469  41.282  14.793   2.297
37045W        W 9470   8.848  28.988   0.307
37046W        W 9471  14.720  26.435   1.751
37047W        W 9472   7.815  34.918  11.143
37048W        W 9473   5.209  35.943  13.687
37049W        W 9474   6.179  19.029  14.526
37050W        W 9475  43.278  37.955   3.443
37051W        W 9476   4.684  43.369  14.297
37052W        W 9477   1.405  32.205  11.075
37053W        W 9478   4.677  22.360   1.690
37054W        W 9479  31.679  17.068   1.864
37055W        W 9480   2.930  31.000  11.480
37056W        W 9481   2.674  12.116  13.105
37057W        W 9482  24.503   7.105  11.166
37058W        W 9483   2.351   9.781  14.386
37059W        W 9484   8.819  20.650   3.242
37060W        W 9485   5.402  31.142  12.565
37061W        W 9486   0.704   6.433   0.738
37062W        W 9487  31.014   7.560   4.910
37063W        W 9488  38.600  20.767  12.097
37064W        W 9489  41.304   6.419   0.233
37065W        W 9490   4.249  39.058   4.289
37066W        W 9491  28.496  34.014   5.724
37067W        W 9492  14.576   4.557  14.843
37068W        W 9493  33.608  18.019  11.101
37069W        W 9494  37.808  27.473  12.024
37070W        W 9495  29.891  11.439   2.776
37071W        W 9496  39.825  43.817  13.304
37072W        W 9497  35.337  14.209  12.414
37073W        W 9498  25.079   7.746   2.823
37074W        W 9499   7.073  11.116  13.953
37075W        W 9500  28.143  25.105  10.744
37076W        W 9501   9.925  20.711  14.955
37077W        W 9502  11.152   7.883   0.914
37078W        W 9503  21.242   0.398  14.465
37079W        W 9504  31.182  33.555  10.211
37080W        W 9505   3.472  23.047   1.764
37081W        W 9506  23.917  34.158  12.020
37082W        W 9507   9.603  19.064  12.010
37083W        W 9508  19.980  32.491   4.446
37084W        W 9509  15.855  18.260   3.270
37085W        W 9510  41.918  28.380   3.086
37086W        W 9511  39.072  32.476   3.682
37087W        W 9512  22.791  14.338  12.998
37088W        W 9513  22.094  29.938   1.856
37089W        W 9514  30.666   8.390   0.233
37090W        W 9515  18.017  31.826   1.918
37091W        W 9516  14.059  26.092   4.175
37092W        W 9517   9.773  26.424   4.667
37093W        W 9518  29.605  31.659   4.884
37094W        W 9519  20.220  23.387  11.659
37095W        W 9520  23.773  19.577   4.148
37096W        W 9521  30.998  41.001  14.075
37097W        W 9522   3.481  27.365  12.998
37098W        W 9523  12.644  20.572   4.840
37099W        W 9524  40.813  20.747   2.396
37100W        W 9525  32.374  11.399  13.832
37101W        W 9526  39.757  26.088   3.282
37102W        W 9527   7.250  29.395  14.247
37103W        W 9528  21.408  35.485   1.693
37104W        W 9529  31.506   3.692   2.304
37105W        W 9530  17.721  18.497   3.459
37106W        W 9531  16.912  21.594   4.720
37107W        W 9532  28.451  32.370  12.525
37108W        W 9533  10.814   1.364  11.052
37109W        W 9534  22.543  16.084   4.691
37110W        W 9535  12.701   1.747   0.570
37111W        W 9536  13.728  17.057  11.586
37112W        W 9537  10.200  17.620   1.382
37113W        W 9538  38.102  41.310  12.988
37114W        W 9539  43.236  11.865  14.868
37115W        W 9540  36.868   1.341  11.081
37116W        W 9541   5.283  28.476  14.824
37117W        W 9542  34.508  12.689   3.265
37118W        W 9543  30.531  40.550   4.676
37119W        W 9544   6.679  15.582   3.249
37120W        W 9545   5.408  37.585   0.574
37121W        W 9546  38.852  28.133  12.963
37122W        W 9547  24.449  12.127  14.150
37123W        W 9548   9.396  44.704  11.062
37124W        W 9549  13.874  44.326  13.376
37125W        W 9550  26.574  19.748  14.912
37126W        W 9551  38.415  41.781   0.971
37127W        W 9552  15.747   4.675   4.506
37128W        W 9553   9.645  12.760   4.191
37129W        W 9554  20.629  12.595  11.096
37130W        W 9555  25.693  29.424   1.490
37131W        W 9556  13.630   8.355  14.957
37132W        W 9557  34.996  33.378  13.095
37133W        W 9558  38.267  32.931  10.288
37134W        W 9559  14.385  41.080  13.886
37135W        W 9560  30.199  38.885  13.417
37136W        W 9561  25.721  35.466   2.592
37137W        W 9562  24.106  33.987  14.993
37138W        W 9563  36.101  27.198   0.672
37139W        W 9564  23.575  23.198  14.853
37140W        W 9565  11.348  11.839   0.953
37141W        W 9566  15.776  26.437  12.019
37142W        W 9567  37.905  17.657   1.084
37143W        W 9568  22.555  41.528  14.974
37144W        W 9569   8.334  41.546   3.433
37145W        W 9570  37.829  35.061   3.622
37146W        W 9571  19.391   8.437   2.310
37147W        W 9572  41.066  21.918  13.389
37148W        W 9573  34.054  44.296   0.458
37149W        W 9574  22.543  12.054   2.611
37150W        W 9575  39.786  34.937  13.133
37151W        W 9576   9.806  33.556   1.205
37152W        W 9577  39.751  12.741   1.852
37153W        W 9578  25.539  39.761   3.038
37154W        W 9579   7.782   3.152   1.616
37155W        W 9580  11.934   1.858  12.484
37156W        W 9581  29.555  19.956  12.541
37157W        W 9582  42.056  40.929   3.747
37158W        W 9583  10.723  17.389   1.405
37159W        W 9584  19.668   0.992   0.639
37160W        W 9585  40.492   5.930  10.335
37161W        W 9586   5.223  19.504   4.574
37162W        W 9587  22.238  11.660   0.861
37163W        W 9588  23.332  28.464   1.423
37164W        W 9589  18.720  25.934  12.988
37165W        W 9590  29.558  33.869   1.908
37166W        W 9591  20.213   1.842   0.949
37167W        W 9592   5.831  38.454  13.406
37168W        W 9593  30.692  16.768   4.241
37169W        W 9594  35.508  29.178   3.786
37170W        W 9595  38.348  20.145   0.009
37171W        W 9596  35.834  19.929  13.845
37172W        W 9597  13.214   3.624  11.000
37173W        W 9598   9.778  18.077   2.478
37174W        W 9599  14.233  15.163   0.360
37175W        W 9600  42.257   6.410  10.690
37176W        W 9601  30.637  36.894  14.390
37177W        W 9602  17.750  33.630  11.882
37178W        W 9603   7.996   5.756   1.496
37179W        W 9604  14.706  24.231   1.394
37180W        W 9605  35.385  20.167   1.963
37181W        W 9606  19.174  33.290  11.531
37182W        W 9607  16.814  25.361  11.982
37183W        W 9608  37.877   8.429  13.948
37184W        W 9609  12.238  31.590   1.840
37185W        W 9610  39.038   4.018  13.547
37186W        W 9611  34.435  36.343  10.708
37187W        W 9612   5.898  18.587   2.682
37188W        W 9613  10.808  16.795   0.007
37189W        W 9614  13.592  21.588  14.204
37190W        W 9615  21.194  42.531   4.590
37191W        W 9616   9.381  31.104   0.005
37192W        W 9617  18.740  12.313   3.151
37193W        W 9618  12.088  40.105   3.062
37194W        W 9619  31.745  35.537   0.946
37195W        W 9620  34.762  14.726  13.442
37196W        W 9621  44.877  38.312   4.389
37197W        W 9622   5.422  23.206  11.129
37198W        W 9623  39.551  31.209   4.046
37199W        W 9624  22.663  23.893  14.293
37200W        W 9625  37.531  22.927   2.333
37201W        W 9626  31.948  28.594   1.164
37202W        W 9627  18.610  15.030  11.865
37203W        W 9628  26.141  23.981  14.989
37204W        W 9629  12.788  34.524   0.785
37205W        W 9630   2.987   6.589  11.492
37206W        W 9631  30.444   4.679  14.551
37207W        W 9632  34.613   2.753  13.942
37208W        W 9633  30.843   3.774   4.514
37209W        W 9634  40.766   0.358   1.672
37210W        W 9635  21.278   3.283   1.398
37211W        W 9636  33.763   4.725  14.773
37212W        W 9637   8.277  30.627   2.351
37213W        W 9638  15.322  11.658   1.796
37214W        W 9639  19.993  30.240  12.391
37215W        W 9640   7.450  35.998   1.381
37216W        W 9641  33.089   3.259  12.829
37217W        W 9642  28.017  30.880   5.113
37218W        W 9643  29.743  43.850   3.939
37219W        W 9644  29.669  44.917   0.713
37220W        W 9645   6.486  10.381   3.590
37221W        W 9646  33.354  21.593   0.813
37222W        W 9647  31.212  37.402   0.978
37223W        W 9648   0.906  33.777  13.410
37224W        W 9649  42.853  29.986  10.937
37225W        W 9650  10.248   2.325  13.556
37226W        W 9651   5.220  27.666   0.368
37227W        W 9652   0.697  16.819  12.521
37228W        W 9653  18.821  44.487   0.937
37229W        W 9654   4.664  13.689   9.721
37230W        W 9655  33.114   5.957  11.666
37231W        W 9656  39.992  26.045   2.384
37232W        W 9657  13.981  37.968   1.883
37233W        W 9658  33.351  40.998   2.285
37234W        W 9659  14.676  23.249  14.235
37235W        W 9660  12.509  27.481   1.190
37236W        W 9661  41.347  21.262   2.711
37237W        W 9662  20.202  35.294  13.017
37238W        W 9663  40.503  33.683  12.192
37239W        W 9664  24.202  31.148   3.882
37240W        W 9665  35.638  23.131   1.506
37241W        W 9666  30.101  14.316  14.005
37242W        W 9667  18.729  20.009  10.461
37243W        W 9668  44.525   9.281  13.450
37244W        W 9669  38.115  24.442   3.127
37245W        W 9670  22.468   9.410  11.064
37246W        W 9671   5.636  36.177   1.149
37247W        W 9672   0.981  34.536   0.896
37248W        W 9673  26.457  37.019  13.043
37249W        W 9674  17.634  16.391   2.904
37250W        W 9675  20.092  33.705  13.509
37251W        W 9676  13.867  11.786  13.997
37252W        W 9677  31.525  39.196  14.856
37253W        W 9678   4.169  32.387   2.279
37254W        W 9679  17.102  28.138  10.555
37255W        W 9680  27.261  43.871  11.871
37256W        W 9681  37.940  38.464  14.724
37257W        W 9682  15.672   4.234  11.994
37258W        W 9683  14.095  29.172  11.514
37259W        W 9684   3.882  33.674  12.291
37260W        W 9685  12.758  30.167  13.390
37261W        W 9686   5.377  31.583   3.588
37262W        W 9687  15.298  30.660  12.775
37263W        W 9688  44.509  23.032  14.355
37264W        W 9689  23.111  21.684  10.779
37265W        W 9690  13.332   0.486   3.972
37266W        W 9691  27.211  15.386   3.801
37267W        W 9692  12.294  12.916  13.889
37268W        W 9693   0.449  33.591   0.870
37269W        W 9694   6.206  29.662  14.224
37270W        W 9695  32.083  39.515   3.655
37271W        W 9696  19.094  36.621   2.300
37272W        W 9697  19.768   0.810  12.544
37273W        W 9698  42.356  37.319   3.256
37274W        W 9699  26.072  14.937  14.383
37275W        W 9700  28.372  22.876   0.317
37276W        W 9701  37.590  31.999   3.816
37277W        W 9702  31.759   4.189   3.723
37278W        W 9703  22.003  25.676   1.884
37279W        W 9704  30.560  44.195   1.627
37280W        W 9705   2.178  12.777   2.864
37281W        W 9706  33.166  28.574   1.876
37282W        W 9707  22.571  37.836   2.179
37283W        W 9708   0.077   4.205  13.652
37284W        W 9709   1.946   4.897  14.290
37285W        W 9710  14.170  37.714   2.833
37286W        W 9711  44.975  20.115   4.390
37287W        W 9712  36.123  38.816  14.963
37288W        W 9713   8.271   2.178  11.599
37289W        W 9714  24.138  21.568   0.744
37290W        W 9715  40.473   8.465   0.425
37291W        W 9716  43.904  11.235   4.724
37292W        W 9717  40.360  32.764  11.898
37293W        W 9718  18.662  12.999   3.568
37294W        W 9719  38.581  25.528  10.230
37295W        W 9720  38.595  26.687   3.735
37296W        W 9721  35.572  26.045   0.498
37297W        W 9722  11.318   7.630   3.281
37298W        W 9723   5.023  18.554   4.838
37299W        W 9724  13.650  29.495   2.190
37300W        W 9725  43.438  29.872  11.617
37301W        W 9726   5.491  10.431  13.487
37302W        W 9727  30.570  21.543   1.717
37303W        W 9728  10.097   4.341  12.468
37304W        W 9729  18.552  10.703   3.173
37305W        W 9730  17.782  37.021   3.762
37306W        W 9731  37.939  27.738   3.670
37307W        W 9732   3.301   9.690   4.159
37308W        W 9733   6.146  31.556  14.855
37309W        W 9734  30.711  30.199  11.133
37310W        W 9735   8.672  36.154   2.705
37311W        W 9736  22.993  43.224  14.107
37312W        W 9737  19.008  22.933   0.867
37313W        W 9738   1.717  40.398   2.755
37314W        W 9739  28.414   9.378   3.626
37315W        W 9740  28.449  40.597   1.024
37316W        W 9741  42.936  28.705   2.697
37317W        W 9742  23.548  29.514  13.537
37318W        W 9743   6.929   7.393  13.505
37319W        W 9744   1.454  14.780  11.801
37320W        W 9745  15.270  15.770   1.749
37321W        W 9746  16.880  20.042  10.599
37322W        W 9747  19.890  30.642   2.504
37323W        W 9748  41.930  27.199   4.041
37324W        W 9749   5.204  25.521   1.185
37325W        W 9750  11.206  10.704   2.646
37326W        W 9751  42.329  33.431   1.432
37327W        W 9752   0.195   4.220  14.514
37328W        W 9753  43.542  35.957  12.182
37329W        W 9754  22.706  35.743  10.083
37330W        W 9755  25.687   3.067  11.130
37331W        W 9756  29.202  34.979  12.063
37332W        W 9757   6.168  34.843  11.554
37333W        W 9758  23.785   8.403  10.155
37334W        W 9759  14.278   2.792  14.997
37335W        W 9760  15.301   8.214  14.796
37336W        W 9761   6.338  28.979   0.059
37337W        W 9762   3.901  41.371   3.691
37338W        W 9763   9.136  35.931  10.610
37339W        W 9764  30.284  36.802  12.494
37340W        W 9765  32.340  10.703   4.415
37341W        W 9766  30.572  37.951  14.498
37342W        W 9767   8.103   5.290   4.188
37343W        W 9768  39.501  30.300   1.786
37344W        W 9769   1.040  21.895   4.063
37345W        W 9770   7.312  17.324   2.283
37346W        W 9771   7.517  40.850  11.170
37347W        W 9772  14.854   8.910  10.712
37348W        W 9773  22.549  33.131   3.028
37349W        W 9774  41.553   8.396  10.996
37350W        W 9775  20.091  31.989   4.326
37351W        W 9776   2.805  14.585  11.695
37352W        W 9777  18.684  43.697   2.873
37353W        W 9778  31.755  43.588   0.058
37354W        W 9779  12.218  34.958   4.696
37355W        W 9780   1.948  21.404   2.133
37356W        W 9781  20.470   9.583  13.069
37357W        W 9782  36.333  20.767   1.426
37358W        W 9783  44.166  29.982   3.316
37359W        W 9784  38.872  30.929  13.405
37360W        W 9785  40.094  25.154   0.302
37361W        W 9786   4.012   8.401   3.458
37362W        W 9787   7.017  39.556  13.928
37363W        W 9788  38.848  35.089   4.989
37364W        W 9789  18.779  34.331  10.782
37365W        W 9790  34.580  10.766   3.667
37366W        W 9791  35.639  18.214   0.936
37367W        W 9792   4.920  26.348   1.529
37368W        W 9793  40.963  31.461  13.989
37369W        W 9794   9.929  27.691   0.463
37370W        W 9795  39.727  11.406   3.686
37371W        W 9796  36.812  41.941   4.605
37372W        W 9797  41.032  13.416  12.840
37373W        W 9798   4.209  34.207  13.951
37374W        W 9799  25.488  37.502   1.829
37375W        W 9800  10.028  11.887  13.783
37376W        W 9801   6.446  31.897  11.487
37377W        W 9802  37.321  21.779   0.203
37378W        W 9803  22.824   3.387   3.679
37379W        W 9804  17.623  33.945   4.115
37380W        W 9805  44.007  13.142   4.680
37381W        W 9806  40.479   3.299  12.885
37382W        W 9807  43.744  41.749   2.220
37383W        W 9808  26.628  11.323   4.356
37384W        W 9809   3.245  37.463  13.401
37385W        W 9810  35.516  37.312   0.859
37386W        W 9811  44.969  24.573   4.064
37387W        W 9812  17.071  38.130   1.882
37388W        W 9813  10.093   7.293   0.370
37389W        W 9814  39.607  34.125  11.583
37390W        W 9815  24.154  29.389  12.442
37391W        W 9816  34.725  19.574   2.827
37392W        W 9817  43.727   9.846   2.223
37393W        W 9818  35.051  19.808  14.493
37394W        W 9819  33.571  13.516   1.788
37395W        W 9820  27.483   2.267  11.579
37396W        W 9821  10.371   6.157   4.637
37397W        W 9822  28.199  29.123   4.371
37398W        W 9823  20.599  23.423  12.497
37399W        W 9824  29.239  32.466   0.249
37400W        W 9825   6.280  42.459  14.406
37401W        W 9826   7.698   9.954  11.101
37402W        W 9827  29.404  41.946   2.084
37403W        W 9828  39.132  17.660  12.663
37404W        W 9829  37.305  42.474   2.389
37405W        W 9830  26.858  13.860   2.339
37406W        W 9831  34.836  36.629  10.931
37407W        W 9832   9.959  11.272   1.956
37408W        W 9833  42.443  14.028  10.894
37409W        W 9834  22.076  44.464  14.834
37410W        W 9835  25.694   1.623   1.377
37411W        W 9836  18.589  27.144   1.144
37412W        W 9837   5.474  38.462   0.390
37413W        W 9838  19.060  16.592   1.386
37414W        W 9839  40.792  12.710   1.854
37415W        W 9840  30.110  19.997   2.246
37416W        W 9841  39.815  17.660  11.840
37417W        W 9842  40.794   0.158   0.708
37418W        W 9843  40.054  21.309  12.861
37419W        W 9844   1.369  30.711   1.775
37420W        W 9845  31.099   5.962   0.128
37421W        W 9846  33.170  32.471   0.528
37422W        W 9847  27.448  24.164   0.274
37423W        W 9848  17.124  30.725   3.215
37424W        W 9849  16.228  20.175   4.366
37425W        W 9850  41.643  25.186  10.434
37426W        W 9851  13.144   0.482   0.554
37427W        W 9852  19.166  41.899   3.234
37428W        W 9853  15.715   1.957  13.584
37429W        W 9854  17.737  23.297  12.586
37430W        W 9855  42.601  29.069   3.581
37431W        W 9856  40.823  27.256   0.634
37432W        W 9857  26.583  22.530  14.972
37433W        W 9858  16.225  37.319   0.335
37434W        W 9859  43.044   1.771  13.759
37435W        W 9860  11.859  13.416   0.246
37436W        W 9861  37.447  24.673  13.939
37437W        W 9862   1.512  36.522   1.741
37438W        W 9863  27.654  20.584  10.654
37439W        W 9864  33.096  33.924   0.767
37440W        W 9865  38.801  21.062  13.546
37441W        W 9866  33.166  24.683   1.271
37442W        W 9867  44.356  36.552   4.670
37443W        W 9868  18.587   4.022  13.078
37444W        W 9869  25.291  23.146   1.652
37445W        W 9870  27.895  28.684   3.283
37446W        W 9871  38.807  39.584   1.289
37447W        W 9872  35.645  31.115   2.518
37448W        W 9873  39.374  27.818   3.735
37449W        W 9874  16.622  16.578  12.030
37450W        W 9875  31.147   6.973  14.056
37451W        W 9876   2.320  12.944  10.720
37452W        W 9877  13.996  31.026   0.731
37453W        W 9878  13.650  12.330   2.640
37454W        W 9879   8.858  44.601  14.808
37455W        W 9880   5.360  35.498  12.402
37456W        W 9881  13.523   6.416  11.584
37457W        W 9882  27.503   5.425  11.851
37458W        W 9883  31.374  24.601   1.849
37459W        W 9884  23.983   7.934   3.780
37460W        W 9885  18.165  27.137  12.164
37461W        W 9886  25.606  32.011   1.375
37462W        W 9887  12.198   4.264  11.357
37463W        W 9888  21.585   6.905   4.172
37464W        W 9889  27.515   1.412   1.788
37465W        W 9890  25.222  27.019  14.887
37466W        W 9891  37.077   8.435   0.325
37467W        W 9892  36.157   1.287   4.113
37468W        W 9893  11.704  23.178  11.076
37469W        W 9894  41.696  13.920   0.273
37470W        W 9895   2.820  42.820  12.649
37471W        W 9896  16.274  28.615  10.594
37472W        W 9897  28.710  31.426   4.128
37473W        W 9898  26.181  39.333   4.140
37474W        W 9899  26.755  18.712  13.113
37475W        W 9900  27.769   7.269  11.586
37476W        W 9901   7.386   1.854  13.422
37477W        W 9902  37.948  30.948   3.583
37478W        W 9903   1.132   9.582  14.809
37479W        W 9904  30.683  13.094  11.545
37480W        W 9905   5.233   7.608  11.769
37481W        W 9906  26.205  34.599  14.410
37482W        W 9907   6.832   8.178   4.058
37483W        W 9908  29.871  22.132   1.903
37484W        W 9909  23.579  17.644  14.449
37485W        W 9910  12.227   7.814   0.394
37486W        W 9911  41.465   5.821  13.476
37487W        W 9912   5.201  11.174   1.127
37488W        W 9913  28.208  16.840  11.127
37489W        W 9914  10.239  23.850  13.486
37490W        W 9915  20.631   7.122   2.232
37491W        W 9916  11.584  44.069   2.308
37492W        W 9917   9.654  15.257   4.103
37493W        W 9918  21.294  13.802  10.688
37494W        W 9919  33.657  14.717   1.315
37495W        W 9920   4.365   7.420  11.950
37496W        W 9921  35.826  30.680   2.838
37497W        W 9922  38.820  14.233  12.581
37498W        W 9923  39.071  23.155   1.482
37499W        W 9924  18.742   0.867   0.213
37500W        W 9925  19.644  38.528   4.579
37501W        W 9926   3.965   6.458   2.965
37502W        W 9927  38.620  27.969  13.402
37503W        W 9928  27.445  44.287  10.637
37504W        W 9929  32.778  29.962   1.244
37505W        W 9930  27.465  36.043  10.539
37506W        W 9931  25.079  23.488   4.308
37507W        W 9932  12.399   3.779   3.230
37508W        W 9933  13.184  16.511  12.592
37509W        W 9934  15.004  43.067   4.097
37510W        W 9935  35.964  29.503  10.715
37511W        W 9936   9.056  12.779   1.894
37512W        W 9937  16.998  34.551  14.325
37513W        W 9938   5.315   6.218   1.703
37514W        W 9939   4.883  16.385  12.423
37515W        W 9940  32.957  14.252   2.697
37516W        W 9941  39.029  14.912   2.762
37517W        W 9942  25.458  12.160   1.774
37518W        W 9943   2.576  36.934  11.623
37519W        W 9944  22.179  24.398  14.991
37520W        W 9945  40.341  15.306   4.591
37521W        W 9946   2.013  31.065  12.784
37522W        W 9947  37.382  41.958  11.973
37523W        W 9948  24.156  30.935   3.358
37524W        W 9949   8.091  19.337   1.219
37525W        W 9950  28.060   0.914   9.944
37526W        W 9951  35.968   6.438  11.194
37527W        W 9952  15.213  23.855   5.466
37528W        W 9953  12.408  40.968  13.617
37529W        W 9954  38.898  19.472  14.392
37530W        W 9955  44.740  10.225  12.992
37531W        W 9956  29.605   9.675  14.970
37532W        W 9957  31.048   1.791   3.410
37533W        W 9958  32.316  25.161  12.067
37534W        W 9959  41.523  28.029  14.784
37535W        W 9960  20.275  15.057   0.194
37536W        W 9961  24.644  14.071   2.928
37537W        W 9962   1.474  25.445  13.865
37538W        W 9963   7.665  15.487   2.413
37539W        W 9964  26.155  11.247  12.046
37540W        W 9965   4.416   8.841  14.789
37541W        W 9966  28.988   2.735   0.702
37542W        W 9967  12.013  12.395  14.803
37543W        W 9968  35.816   8.597  13.550
37544W        W 9969  23.569  12.845  13.390
37545W        W 9970  34.383  16.557   1.250
37546W        W 9971  24.061  13.662  10.390
37547W        W 9972  16.773  32.530   0.947
37548W        W 9973  18.716  27.889   0.694
37549W        W 9974  17.499  27.475  11.890
37550W        W 9975  37.472  41.061  10.593
37551W        W 9976  22.046   7.872   1.743
37552W        W 9977  25.150  38.761   3.640
37553W        W 9978  18.558  30.483  11.323
37554W        W 9979   8.934  13.613   3.787
37555W        W 9980  20.549  13.344   2.981
37556W        W 9981  10.899  44.408  10.619
37557W        W 9982  43.907  16.355  10.597
37558W        W 9983  36.297  11.753   0.427
37559W        W 9984   4.481  22.529   3.281
37560W        W 9985  40.504   1.200  13.242
37561W        W 9986  15.801  30.972  10.614
37562W        W 9987  16.157  32.874  11.124
37563W        W 9988  40.515  34.716   2.367
37564W        W 9989  42.839  25.725  13.077
37565W        W 9990  30.359  13.298  14.459
37566W        W 9991  21.159  23.635   0.329
37567W        W 9992   3.731   4.837  11.066
37568W        W 9993   0.055  20.110   0.266
37569W        W 9994   6.268   3.668   4.617
37570W        W 9995  35.333  32.513   1.345
37571W        W 9996  24.737  37.551  12.342
37572W        W 9997  20.126   9.981  14.541
37573W        W 9998   5.664  21.843   2.506
37574W        W 9999  16.188  19.134   0.839
37575W        W10000  22.100  10.252  11.039
37576W        W10001  36.672  43.762  11.599
37577W        W10002  13.125  31.641  14.192
37578W        W10003  43.264  19.193   2.686
37579W        W10004  35.274  15.785   1.290
37580W        W10005  32.927  33.842  11.099
37581W        W10006  28.876  35.659   1.965
37582W        W10007  23.568  18.881   1.433
37583W        W10008   9.470   7.318  11.186
37584W        W10009  39.817  18.302   3.177
37585W        W10010  13.125   4.413  11.522
37586W        W10011   4.859   8.302   3.258
37587W        W10012  44.904  22.213   3.788
37588W        W10013  22.059  38.639  12.361
37589W        W10014  17.698  13.356   2.620
37590W        W10015   5.992  43.949   0.789
37591W        W10016  36.047  18.103   4.438
37592W        W10017  41.089  13.111  12.438
37593W        W10018   9.626  34.394   1.805
37594W        W10019  31.695  20.313   2.785
37595W        W10020  38.858  15.813  10.250
37596W        W10021  25.694  29.785  11.562
37597W        W10022   2.900  11.556   4.378
37598W        W10023  38.517  34.428  12.848
37599W        W10024  22.050   3.177   4.629
37600W        W10025  42.050  16.147  12.803
37601W        W10026  36.297  41.347   9.818
37602W        W10027  10.313  12.521   1.618
37603W        W10028  42.336  43.450  13.019
37604W        W10029  19.649  40.522   2.139
37605W        W10030   1.363  20.529  12.175
37606W        W10031  14.991   3.419   3.603
37607W        W10032  32.930   6.887  12.067
37608W        W10033  16.919  12.179   3.415
37609W        W10034  30.572  44.369  13.324
37610W        W10035  41.374  18.834   1.704
37611W        W10036  32.865  39.368  12.002
37612W        W10037  29.934  14.147  12.002
37613W        W10038  37.423   7.934  13.444
37614W        W10039  18.264   9.091   3.220
37615W        W10040  42.514  16.177  13.063
37616W        W10041   6.701  29.755   4.526
37617W        W10042  20.073   2.705   0.962
37618W        W10043  11.730   2.390   0.920
37619W        W10044  30.055   2.418  11.887
37620W        W10045  44.575  18.829   2.229
37621W        W10046   6.805   2.537  12.499
37622W        W10047  44.353  28.447   2.746
37623W        W10048  36.907  32.508   4.159
37624W        W10049  38.322  43.365   3.529
37625W        W10050  37.413  11.219  13.381
37626W        W10051  35.871  37.280  14.935
37627W        W10052   3.711  11.317   4.751
37628W        W10053  26.897  27.393  11.891
37629W        W10054  36.330  21.205  11.621
37630W        W10055  41.896  32.242   2.571
37631W        W10056  24.138  23.113  13.588
37632W        W10057  19.596  35.349  14.737
37633W        W10058   1.368  37.010   1.859
37634W        W10059  13.106   6.789   0.226
37635W        W10060  20.783  34.455  11.567
37636W        W10061  35.148   2.747   1.872
37637W        W10062  31.676  31.579  11.488
37638W        W10063  25.935  32.279   2.597
37639W        W10064  28.171   9.960  10.256
37640W        W10065   8.555   8.637  10.994
37641W        W10066  38.073  23.949  12.836
37642W        W10067  18.180  21.195  14.063
37643W        W10068  20.160  28.775   0.852
37644W        W10069  31.285  33.109  12.012
37645W        W10070  33.977  23.616  11.565
37646W        W10071  11.305  30.708   2.320
37647W        W10072  23.561  38.810   0.919
37648W        W10073  42.337  23.023   1.012
37649W        W10074  14.632  17.392   4.897
37650W        W10075   1.414  21.939   3.700
37651W        W10076  36.353  39.246  13.838
37652W        W10077  20.592  24.937   2.622
37653W        W10078   5.319  12.620  12.511
37654W        W10079  24.654  23.589   0.751
37655W        W10080  23.677  12.697  13.882
37656W        W10081  29.579   5.850   0.710
37657W        W10082  12.671  15.713  11.090
37658W        W10083  38.068  25.279  10.194
37659W        W10084  33.926  21.913  10.706
37660W        W10085   8.703  42.470  13.952
37661W        W10086  29.454  14.230  11.714
37662W        W10087  22.488  24.998  14.575
37663W        W10088  19.075  12.694   3.620
37664W        W10089  13.810  15.744  12.049
37665W        W10090  14.212  43.783   4.144
37666W        W10091  42.532  27.192  11.363
37667W        W10092   3.959   6.444   1.909
37668W        W10093   3.003   2.831  10.670
37669W        W10094  14.517  11.278  12.598
37670W        W10095  24.581   5.159   3.250
37671W        W10096  24.633   5.462   3.692
37672W        W10097  28.681  42.683  11.403
37673W        W10098  29.934  27.011   3.618
37674W        W10099  15.301  27.677   1.316
37675W        W10100  31.184  42.323   3.690
37676W        W10101  34.012  31.654   0.882
37677W        W10102  34.824  28.375  10.684
37678W        W10103  14.301  13.482   5.092
37679W        W10104  22.346  12.696  14.299
37680W        W10105  32.167  13.801  11.113
37681W        W10106  37.853  11.662   3.629
37682W        W10107  10.569  21.070  14.415
37683W        W10108   7.141   2.871  13.965
37684W        W10109  21.190   9.048   4.648
37685W        W10110  17.175   6.809  14.512
37686W        W10111  44.019  43.529  14.821
37687W        W10112  28.589  23.190  10.611
37688W        W10113  31.151  42.844   0.749
37689W        W10114  25.147  40.450   1.263
37690W        W10115  20.631  34.105   3.608
37691W        W10116  19.528  31.527  11.650
37692W        W10117  43.386  42.840   1.720
37693W        W10118  26.654  18.081  12.091
37694W        W10119  29.190   2.458   0.253
37695W        W10120  26.695   6.530  13.814
37696W        W10121  40.408  38.027  11.636
37697W        W10122   0.436  28.452   1.458
37698W        W10123   0.091   3.625  10.147
37699W        W10124  14.733  12.707   3.690
37700W        W10125   0.307  38.862   1.557
37701W        W10126  25.830  19.762  14.446
37702W        W10127   3.829  32.954   0.794
37703W        W10128  17.538   1.736   3.221
37704W        W10129  28.204  39.939   2.794
37705W        W10130  24.517  39.514  12.787
37706W        W10131  12.424   1.754  12.374
37707W        W10132  33.146  14.787  14.400
37708W        W10133  35.273  14.749  13.534
37709W        W10134   6.440   3.462  14.168
37710W        W10135   2.549  12.033  13.592
37711W        W10136  15.948  26.794  12.875
37712W        W10137  28.916  18.140  13.878
37713W        W10138   9.971  44.935  14.353
37714W        W10139  12.639  12.186   1.022
37715W        W10140  33.956  37.266   1.749
37716W        W10141   1.957  15.382   0.264
37717W        W10142  29.650  34.134   4.264
37718W        W10143  19.147  27.135   0.446
37719W        W10144  32.073  19.284   4.575
37720W        W10145   9.775  24.661  14.656
37721W        W10146  37.882  13.356  13.789
37722W        W10147  14.692  40.382   4.385
37723W        W10148  10.663  30.203  10.625
37724W        W10149  20.333   4.892  14.750
37725W        W10150  40.384  23.625  11.465
37726W        W10151  26.059   2.229   0.639
37727W        W10152  16.408  44.923   1.904
37728W        W10153  21.674   0.282   2.874
37729W        W10154  27.082  19.036   5.020
37730W        W10155  17.180  24.923   3.543
37731W        W10156  31.114   6.785   3.763
37732W        W10157  20.295  43.755  10.891
37733W        W10158  22.088  12.647   2.568
37734W        W10159  20.981  12.596   0.838
37735W        W10160  17.748  44.528  14.019
37736W        W10161  33.674   8.304   0.317
37737W        W10162  21.882  40.331  13.865
37738W        W10163   6.002  34.636   4.823
37739W        W10164  14.287   0.352  14.803
37740W        W10165  13.443  10.956  11.428
37741W        W10166   5.413  16.356   2.835
37742W        W10167   0.198  15.196   3.251
37743W        W10168  32.581  21.235   1.793
37744W        W10169  19.153  42.811   2.254
37745W        W10170  37.944  42.036   3.665
37746W        W10171  11.549  29.950   3.676
37747W        W10172  31.908   2.673  11.722
37748W        W10173   2.714   1.312   1.446
37749W        W10174   2.468  23.070  11.950
37750W        W10175  25.515  42.055   1.715
37751W        W10176  12.634  15.074   1.929
37752W        W10177  36.104  26.023  11.731
37753W        W10178  16.128  13.248   3.690
37754W        W10179  19.249  32.209   1.331
37755W        W10180  28.051  32.023  12.558
37756W        W10181  16.222  23.251  12.955
37757W        W10182   3.407  32.417  12.059
37758W        W10183  38.843  30.490   3.359
37759W        W10184   1.230  14.540   1.821
37760W        W10185  28.512   5.197   2.627
37761W        W10186  13.165  40.297  12.980
37762W        W10187  38.425  43.238  14.902
37763W        W10188  26.673   2.039  14.442
37764W        W10189   1.271  33.960  14.540
37765W        W10190  31.749   9.734  10.052
37766W        W10191  16.874  25.584   0.809
37767W        W10192   0.950   4.741   3.241
37768W        W10193   1.231   7.896   0.378
37769W        W10194  15.168  22.148  11.433
37770W        W10195  18.534  37.540   0.741
37771W        W10196  30.876   0.622   0.429
37772W        W10197  30.194  16.616   0.976
37773W        W10198  39.321  12.442   2.304
37774W        W10199  37.495  20.725   2.847
37775W        W10200   5.781  27.697   0.949
37776W        W10201  36.583  34.556   9.751
37777W        W10202   5.963  11.261  14.909
37778W        W10203  35.384  36.125  12.057
37779W        W10204  23.155  31.847   1.277
37780W        W10205  27.153  13.045   2.785
37781W        W10206  21.570  17.462   3.321
37782W        W10207  16.710  13.619  13.343
37783W        W10208   8.266  32.937  14.590
37784W        W10209  14.765  32.392  12.282
37785W        W10210  35.876  31.007  12.835
37786W        W10211   4.268  13.177   0.617
37787W        W10212  20.497  33.439  12.157
37788W        W10213  28.192   5.982   1.700
37789W        W10214  43.878  31.523  11.276
37790W        W10215   1.786   8.207   1.377
37791W        W10216  14.296  33.238  11.346
37792W        W10217  23.241  25.410  10.929
37793W        W10218   9.209   1.783  11.664
37794W        W10219   4.143  42.985   4.096
37795W        W10220  38.573  44.551   1.386
37796W        W10221  11.583  25.949   0.600
37797W        W10222  40.892  34.373   4.096
37798W        W10223  24.330  15.544  10.282
37799W        W10224  31.659   9.377  14.118
37800W        W10225  19.971  23.762   1.348
37801W        W10226  22.282   0.498  14.831
37802W        W10227   1.050  11.072   3.242
37803W        W10228  35.839  21.092   1.634
37804W        W10229  20.029   8.064  13.594
37805W        W10230  19.241  16.330   0.801
37806W        W10231  20.171  27.762  14.934
37807W        W10232  37.971   7.848   0.406
37808W        W10233  42.904   3.761  12.032
37809W        W10234   2.551  15.291  14.128
37810W        W10235  37.782   6.962   4.185
37811W        W10236  36.411  19.121   2.769
37812W        W10237  39.448  33.566  13.241
37813W        W10238  42.814  33.715  12.428
37814W        W10239  18.344  26.138   4.844
37815W        W10240  32.403   4.856  13.419
37816W        W10241  11.649  14.569  11.628
37817W        W10242  40.297   7.990  10.467
37818W        W10243   8.045  13.327   3.726
37819W        W10244  17.067  18.600  13.432
37820W        W10245  42.416  14.163  14.007
37821W        W10246   3.373   8.314   2.624
37822W        W10247  28.922   1.202  11.138
37823W        W10248  22.692  15.803  10.090
37824W        W10249  27.175   1.496   2.391
37825W        W10250  14.559  19.664  13.863
37826W        W10251  42.026   6.879   1.293
37827W        W10252  10.063   5.698  10.768
37828W        W10253  11.422   2.482  10.703
37829W        W10254   6.207   4.341   3.158
37830W        W10255  44.111  41.932   4.566
37831W        W10256  31.958   0.704  13.664
37832W        W10257  11.171  13.607   2.812
37833W        W10258  39.017  13.257   0.709
37834W        W10259  41.479  30.394   3.528
37835W        W10260  43.062  41.630  11.086
37836W        W10261  37.822  16.178   0.277
37837W        W10262  30.098  29.115   4.592
37838W        W10263   9.135  28.558  10.664
37839W        W10264  32.073   2.515  14.801
37840W        W10265  19.555  40.147  11.730
37841W        W10266   7.928  12.785   3.628
37842W        W10267  38.913  29.506  14.310
37843W        W10268  25.771  33.313   2.275
37844W        W10269  40.114  26.367  13.355
37845W        W10270   2.017  26.884   3.672
37846W        W10271  28.310  38.285  12.300
37847W        W10272   0.156  34.290   0.312
37848W        W10273  10.132  41.559  11.570
37849W        W10274  32.838   7.799  11.549
37850W        W10275  20.721  11.077   0.001
37851W        W10276  26.466   2.707   1.871
37852W        W10277   2.358  33.666   0.488
37853W        W10278  17.297  11.313   3.374
37854W        W10279   3.354  24.653   4.134
37855W        W10280  15.212  26.114   2.778
37856W        W10281   8.194  31.301   0.957
37857W        W10282  17.073  12.668  13.361
37858W        W10283  44.794  31.123   3.763
37859W        W10284   8.267  35.887  10.631
37860W        W10285  18.801  17.776  12.729
37861W        W10286   4.849   8.662   0.058
37862W        W10287  35.926  29.079   4.507
37863W        W10288  10.603  41.360  11.868
37864W        W10289  14.776  38.363  14.668
37865W        W10290  25.268   5.671   0.567
37866W        W10291  30.655  34.032   1.080
37867W        W10292   1.621  22.660   0.768
37868W        W10293  34.808  21.252   4.135
37869W        W10294  42.906  35.433   1.708
37870W        W10295  33.324  34.915  11.217
37871W        W10296  20.130  32.319  11.471
37872W        W10297   0.424  18.063   3.718
37873W        W10298  44.305  15.860   0.966
37874W        W10299  38.065  23.047   3.248
37875W        W10300  14.146  35.853  12.607
37876W        W10301   9.394   6.015   2.318
37877W        W10302  22.010   6.673   3.706
37878W        W10303  23.825  19.313  13.080
37879W        W10304  36.981  31.577  10.638
37880W        W10305  29.654  38.587   0.768
37881W        W10306   3.354  10.384  12.057
37882W        W10307  41.365  26.313  14.086
37883W        W10308   9.649  26.101   3.994
37884W        W10309   5.389  21.181   3.821
37885W        W10310  11.411  17.446  13.087
37886W        W10311  28.865  43.883  13.868
37887W        W10312  39.617   7.354  12.596
37888W        W10313  20.245  38.632   2.343
37889W        W10314  42.544  11.073   2.766
37890W        W10315  44.599  42.000   1.413
37891W        W10316  38.437  32.481  11.124
37892W        W10317  12.601   9.388   3.101
37893W        W10318  25.999  36.253   5.042
37894W        W10319   6.650  42.478  10.444
37895W        W10320  23.801   4.756   1.761
37896W        W10321  18.078   4.745  12.863
37897W        W10322  28.032  21.339  13.962
37898W        W10323  18.745  32.376  13.088
37899W        W10324  15.880  44.992   2.723
37900W        W10325   0.544  16.682   0.780
37901W        W10326   5.279   7.875  13.887
37902W        W10327  36.334  27.938  13.804
37903W        W10328  32.056   3.988   0.730
37904W        W10329   8.299  28.088   0.012
37905W        W10330  18.177  31.183  13.551
37906W        W10331  26.629  37.998  13.278
37907W        W10332  33.857  15.369  14.480
37908W        W10333   2.090  24.664   0.235
37909W        W10334   2.212  12.306   3.624
37910W        W10335  22.176  14.833   3.984
37911W        W10336  28.235   6.339   3.378
37912W        W10337   6.467  43.764   0.916
37913W        W10338  24.412  26.948   4.585
37914W        W10339  44.896   5.313  14.850
37915W        W10340  27.848  30.402  11.888
37916W        W10341   8.310   8.877   1.335
37917W        W10342   2.569  43.701  11.185
37918W        W10343  11.249  11.592   1.400
37919W        W10344  13.219  30.739  13.845
37920W        W10345  41.716  43.466  10.925
37921W        W10346  21.174  14.028   4.749
37922W        W10347  17.541  12.847  10.712
37923W        W10348  42.774  35.911  10.706
37924W        W10349  33.592  26.199  12.043
37925W        W10350  34.119  32.117   1.735
37926W        W10351   4.741  21.652  10.690
37927W        W10352  19.752  36.122   3.201
37928W        W10353   0.054  12.228   1.252
37929W        W10354  37.968  38.373   3.887
37930W        W10355  35.341  10.852  11.720
37931W        W10356  39.918  41.027  11.496
37932W        W10357  41.572  36.448   3.777
37933W        W10358  35.967  16.417   0.738
37934W        W10359  24.595  32.119  14.939
37935W        W10360  22.459  11.806   4.395
37936W        W10361  15.593   6.152  13.934
37937W        W10362  33.617  10.134   5.191
37938W        W10363  44.711  14.089  14.692
37939W        W10364  30.070  25.721  11.022
37940W        W10365  18.123  34.332   3.226
37941W        W10366  24.151   5.151   1.710
37942W        W10367  44.814   4.841  12.460
37943W        W10368   7.866   0.874   2.514
37944W        W10369  13.022   1.786  10.141
37945W        W10370   9.462   2.693  10.818
37946W        W10371  13.630   3.295   0.983
37947W        W10372  43.919  31.567   1.866
37948W        W10373  32.827  42.831  13.056
37949W        W10374   3.471  29.465  12.819
37950W        W10375  28.382  32.720  13.368
37951W        W10376  23.526   0.737   0.776
37952W        W10377  31.971  28.705   3.618
37953W        W10378   8.964  20.688  14.751
37954W        W10379  19.170  12.774   4.125
37955W        W10380   1.433   1.049  11.470
37956W        W10381  37.568   4.025   1.395
37957W        W10382  32.547   6.233   3.690
37958W        W10383  28.860  34.168  13.544
37959W        W10384  39.037  32.929  11.956
37960W        W10385  42.285  41.871  14.426
37961W        W10386  16.855   2.455  11.485
37962W        W10387   2.377  29.933  11.799
37963W        W10388  40.441   5.955  13.015
37964W        W10389   8.821  37.454   0.874
37965W        W10390  11.739   0.992  12.948
37966W        W10391   2.821  32.959   2.354
37967W        W10392   6.423  37.469  12.579
37968W        W10393  35.294  12.604  12.899
37969W        W10394   1.510   1.292   2.633
37970W        W10395  24.161  28.421   3.200
37971W        W10396  41.885  43.680   0.606
37972W        W10397  41.416   8.449  11.474
37973W        W10398  17.082  19.400  12.873
37974W        W10399   2.443  19.777   3.252
37975W        W10400  18.140   9.796  12.067
37976W        W10401  16.125  21.547   0.022
37977W        W10402  24.663  30.978  12.131
37978W        W10403  35.337  23.498   3.695
37979W        W10404   7.411  22.767   3.367
37980W        W10405   4.333  10.022   4.297
37981W        W10406  15.817  27.501  10.868
37982W        W10407  42.702   7.650   3.620
37983W        W10408  21.668  24.838   3.242
37984W        W10409  22.776   8.382  13.010
37985W        W10410  38.150  28.137   3.379
37986W        W10411   5.745   6.743  13.758
37987W        W10412  24.796  41.800   3.070
37988W        W10413   3.712   9.311   4.114
37989W        W10414  18.781  11.218   4.948
37990W        W10415   2.646  30.343  14.758
37991W        W10416  11.807  24.512   4.649
37992W        W10417  10.323  12.859   2.153
37993W        W10418  44.437  39.777  13.602
37994W        W10419  11.813  12.666  10.788
37995W        W10420   2.856  42.314  11.138
37996W        W10421   6.523   9.313   0.512
37997W        W10422   2.449  35.893   0.350
37998W        W10423  30.468  25.033   3.992
37999W        W10424  23.388   5.474   3.049
38000W        W10425  39.931  32.603   1.679
38001W        W10426  25.203   8.287  11.677
38002W        W10427  35.210  33.855   1.463
38003W        W10428  28.620  30.738   3.274
38004W        W10429  43.949  30.814  13.490
38005W        W10430  22.475   3.472   4.563
38006W        W10431  16.643  17.265   3.778
38007W        W10432  22.151  35.351   4.483
38008W        W10433   3.930  31.929  11.543
38009W        W10434  30.870  36.364  11.296
38010W        W10435   2.339   0.417   1.851
38011W        W10436  20.617  14.906  12.326
38012W        W10437  31.181   3.799  13.419
38013W        W10438  24.254   1.292   2.849
38014W        W10439  43.510  38.028   0.857
38015W        W10440   9.997  26.773  11.002
38016W        W10441  42.930  11.439   4.849
38017W        W10442  28.597  39.581  10.736
38018W        W10443  35.371  26.869   0.246
38019W        W10444   6.912   3.274  10.718
38020W        W10445   5.799  27.965   1.431
38021W        W10446  40.769  28.019  12.940
38022W        W10447  26.971  29.467   3.812
38023W        W10448  37.286  12.160  14.817
38024W        W10449  39.989  41.942  13.309
38025W        W10450   3.687  17.901  13.362
38026W        W10451  37.376   7.369  12.520
38027W        W10452   0.999   3.422   1.971
38028W        W10453  25.438  44.435   2.766
38029W        W10454  41.311  38.908   0.498
38030W        W10455  39.357   2.409  11.984
38031W        W10456  31.173   3.496  10.576
38032W        W10457  44.525   8.735   0.251
38033W        W10458  31.014  12.441  11.060
38034W        W10459  43.590  23.454   0.914
38035W        W10460   3.394   7.228   2.865
38036W        W10461  10.682  34.236   2.858
38037W        W10462  23.191  35.534  13.513
38038W        W10463  34.130  15.806   2.109
38039W        W10464  23.434  28.656  13.675
38040W        W10465  29.615  31.101   1.638
38041W        W10466  22.165  18.233  11.955
38042W        W10467  40.019  28.774  11.029
38043W        W10468  19.231  44.465  14.806
38044W        W10469  34.375  17.689  14.482
38045W        W10470  37.146  24.971   1.298
38046W        W10471  23.555  38.397   3.726
38047W        W10472  11.742  34.369  10.268
38048W        W10473  11.471  24.980  10.537
38049W        W10474   5.478  41.858  12.318
38050W        W10475  15.730  13.007  14.391
38051W        W10476  40.839  41.601   0.268
38052W        W10477  12.214   1.675   2.328
38053W        W10478  41.256  25.698  14.785
38054W        W10479  42.085  27.147  11.125
38055W        W10480   7.683   4.707   9.884
38056W        W10481  27.738  31.022   2.234
38057W        W10482   6.255  35.936   0.551
38058W        W10483  32.004   9.309   0.375
38059W        W10484  39.176  44.919  13.940
38060W        W10485   5.542  12.785  11.563
38061W        W10486   0.962   5.683   2.353
38062W        W10487  44.667  44.699  11.263
38063W        W10488  16.376   1.510  11.484
38064W        W10489  30.502  12.586   0.043
38065W        W10490  34.366  21.066   1.662
38066W        W10491  12.577  12.486   2.401
38067W        W10492  21.155  34.006   2.812
38068W        W10493  31.599  22.338  11.435
38069W        W10494  31.063  13.161  13.806
38070W        W10495  32.169  16.986   2.015
38071W        W10496  41.595  14.876  11.157
38072W        W10497  39.237  36.960   0.876
38073W        W10498  29.493  19.509   4.602
38074W        W10499   0.736   5.033  10.959
38075W        W10500   6.870  14.059   2.478
38076W        W10501  15.158  26.651   5.036
38077W        W10502  15.780  33.063  10.778
38078W        W10503  13.162  36.823  12.426
38079W        W10504  44.272  10.060  12.958
38080W        W10505   2.292   0.425  12.880
38081W        W10506   2.850  44.970   3.884
38082W        W10507  41.885  15.699  12.582
38083W        W10508  12.889  30.863   3.662
38084W        W10509  17.023  21.800   0.898
38085W        W10510  28.458  40.525   4.489
38086W        W10511  30.307  42.053  11.025
38087W        W10512  16.725  29.794  11.888
38088W        W10513  41.470  43.248   3.727
38089W        W10514  37.588  25.062   4.210
38090W        W10515  17.311   4.778   0.789
38091W        W10516  38.040  34.118   0.023
38092W        W10517  14.434  18.957  13.861
38093W        W10518   9.791  30.805   4.814
38094W        W10519   2.785   4.686  12.566
38095W        W10520  38.925   0.465  14.800
38096W        W10521  33.937   5.489   4.244
38097W        W10522  38.036  21.243   0.673
38098W        W10523  28.249  25.773  12.941
38099W        W10524  28.592  34.537   4.030
38100W        W10525  20.290   5.399   3.718
38101W        W10526  44.368   1.844   4.183
38102W        W10527   5.970   5.284   0.912
38103W        W10528  32.710  24.217  11.659
38104W        W10529  18.328  42.903   0.735
38105W        W10530  28.440   0.731   2.231
38106W        W10531  15.695   0.985   2.050
38107W        W10532   7.272  36.059  14.961
38108W        W10533  17.619  34.503   4.383
38109W        W10534  27.439  25.120   4.340
38110W        W10535   8.191  27.477  10.638
38111W        W10536  37.761  21.044  12.071
38112W        W10537  36.740   9.082   0.788
38113W        W10538   3.485  33.510  12.603
38114W        W10539  14.228  30.715   2.372
38115W        W10540  18.517  35.883  12.508
38116W        W10541  22.769   8.264   0.644
38117W        W10542  41.391   1.899  14.962
38118W        W10543   4.257   0.699   0.753
38119W        W10544  42.275  17.745   1.262
38120W        W10545  41.365   8.747  10.645
38121W        W10546  12.786  10.701   4.535
38122W        W10547  10.693   8.412   2.793
38123W        W10548  40.181  35.082  13.888
38124W        W10549  21.754   8.443  13.926
38125W        W10550  16.165  42.491   3.343
38126W        W10551  14.767  17.614   1.334
38127W        W10552   2.530  14.831   2.140
38128W        W10553  30.637  44.012   0.748
38129W        W10554   8.712  38.061   3.326
38130W        W10555  26.110  39.367  11.936
38131W        W10556  26.145  30.259  12.088
38132W        W10557  27.997  10.175   1.425
38133W        W10558  44.935  11.384  14.990
38134W        W10559  17.078  36.752   4.732
38135W        W10560   4.760  34.362  13.199
38136W        W10561   1.882  36.595  11.401
38137W        W10562  31.103  26.011  12.350
38138W        W10563  40.579  17.289   4.591
38139W        W10564  32.575  43.119   1.794
38140W        W10565  19.519  14.702   4.620
38141W        W10566   6.670  18.964  12.501
38142W        W10567  42.293  20.062  10.535
38143W        W10568  41.120  39.293   3.626
38144W        W10569  28.509  24.278   4.388
38145W        W10570   2.036  18.630   2.370
38146W        W10571  20.589   6.302  14.498
38147W        W10572  16.078  33.465  12.535
38148W        W10573  42.407  18.064  10.726
38149W        W10574  22.682  16.815   1.486
38150W        W10575  24.618  39.303  13.716
38151W        W10576  28.504   5.683   2.900
38152W        W10577  16.576  35.425  14.480
38153W        W10578  18.316   3.626  13.390
38154W        W10579   6.166  15.592   4.700
38155W        W10580   2.965   2.353   0.980
38156W        W10581  33.468  35.868  14.404
38157W        W10582  17.850   1.400  14.332
38158W        W10583  28.364  38.814   0.885
38159W        W10584   4.224  27.473  14.960
38160W        W10585  33.492  44.161  11.115
38161W        W10586  10.318  36.319   3.289
38162W        W10587  12.338  32.687   2.746
38163W        W10588  21.594  39.741   4.722
38164W        W10589  33.159   0.955   1.357
38165W        W10590   5.855  20.010  10.450
38166W        W10591  31.796  10.153   5.414
38167W        W10592  35.951   9.726  11.836
38168W        W10593  15.135  27.177   1.205
38169W        W10594  33.622  38.759  11.602
38170W        W10595  11.251   6.750   9.609
38171W        W10596  36.900  11.267   0.591
38172W        W10597  34.650  12.589  10.681
38173W        W10598  27.636  18.881   2.755
38174W        W10599  23.216   5.618   1.352
38175W        W10600  16.996   5.681  10.628
38176W        W10601   5.872   8.661   4.647
38177W        W10602  14.130   7.405  13.948
38178W        W10603  37.307  41.086  13.353
38179W        W10604  37.440  37.498  11.246
38180W        W10605  16.871  40.696  11.689
38181W        W10606   8.789  36.999  11.081
38182W        W10607  27.018  33.887  13.544
38183W        W10608  23.576  39.977  14.192
38184W        W10609  27.050  38.382   1.742
38185W        W10610   4.727  17.084   1.423
38186W        W10611  22.054  38.628   0.282
38187W        W10612  25.726   3.919   0.626
38188W        W10613  36.830  22.539  11.878
38189W        W10614   1.340   9.332   2.932
38190W        W10615  34.538   3.399   1.944
38191W        W10616  29.408  19.264   1.637
38192W        W10617  12.310  44.360  10.841
38193W        W10618  20.760  12.229   3.342
38194W        W10619  18.748  18.008  14.840
38195W        W10620   6.077  29.399   3.202
38196W        W10621  32.989  15.873   3.716
38197W        W10622  35.189  18.147  14.931
38198W        W10623   4.208  44.434   1.486
38199W        W10624  12.696   7.415   3.867
38200W        W10625  11.400  14.714  13.406
38201W        W10626   4.821  12.349   2.647
38202W        W10627  12.141   2.201  13.772
38203W        W10628  19.119  21.703   1.750
38204W        W10629   6.257  33.416  13.507
38205W        W10630  17.715  41.845   0.426
38206W        W10631  26.831  44.592   3.973
38207W        W10632  11.393  44.719   2.179
38208W        W10633   1.418  12.471   3.101
38209W        W10634   2.507  35.879  11.059
38210W        W10635  15.128  18.371  14.570
38211W        W10636  15.258  25.217   0.468
38212W        W10637  26.475  18.296  13.027
38213W        W10638   5.196  22.768   3.731
38214W        W10639   4.926  39.626  11.157
38215W        W10640  31.565  35.944   3.557
38216W        W10641   3.626  10.261   3.524
38217W        W10642  16.773  40.271  13.416
38218W        W10643  40.024  38.294  12.321
38219W        W10644  41.234  20.824  11.571
38220W        W10645  42.429  15.694  14.554
38221W        W10646  18.705   4.379   3.448
38222W        W10647  20.560  27.501   2.503
38223W        W10648   9.069  10.190   5.122
38224W        W10649  16.611   6.375   4.598
38225W        W10650   3.612  30.975   0.341
38226W        W10651  33.073  44.251   3.746
38227W        W10652  37.982  24.734   4.206
38228W        W10653   6.169   7.251   1.718
38229W        W10654   6.668  39.935   0.287
38230W        W10655  30.375  11.892   2.194
38231W        W10656  37.408  10.158   1.278
38232W        W10657  31.677  37.577  11.802
38233W        W10658  44.490  37.827  10.917
38234W        W10659  37.363  12.080   1.975
38235W        W10660   2.485   1.888  10.696
38236W        W10661  30.311   5.221   2.522
38237W        W10662  43.024  34.961   3.245
38238W        W10663  25.949  33.215   1.334
38239W        W10664   6.207  17.996  11.184
38240W        W10665   7.184  27.053   2.656
38241W        W10666   4.807  41.839  12.831
38242W        W10667  19.821  35.623  12.719
38243W        W10668  26.750  20.656   3.327
38244W        W10669  19.128  43.505  13.519
38245W        W10670  27.025  22.772   3.708
38246W        W10671  13.383  31.607  10.754
38247W        W10672  30.417  28.144   0.813
38248W        W10673  35.674  16.787  11.535
38249W        W10674   5.572  10.600   0.348
38250W        W10675  10.638   5.413  11.470
38251W        W10676  32.396  38.605   2.114
38252W        W10677   8.191  34.251  12.850
38253W        W10678   6.333   4.119   3.611
38254W        W10679  19.732  43.520  12.960
38255W        W10680  37.519  22.385   3.234
38256W        W10681   1.214  29.557  13.975
38257W        W10682  24.637   4.715  11.083
38258W        W10683   0.827  11.202  13.803
38259W        W10684   8.902  10.802   4.384
38260W        W10685  37.676  18.539   1.288
38261W        W10686  22.580   5.847   4.146
38262W        W10687  25.642  39.839   4.084
38263W        W10688  34.343  39.967   0.837
38264W        W10689  44.335  41.154   0.784
38265W        W10690  22.142   5.882   3.230
38266W        W10691  19.983  36.910  13.480
38267W        W10692  22.097  34.073  13.445
38268W        W10693  35.982   0.007   4.471
38269W        W10694   4.413  35.646   2.343
38270W        W10695  26.880  19.638  10.527
38271W        W10696  34.095   2.553   2.698
38272W        W10697  33.973  36.888  13.860
38273W        W10698   9.228  12.995  13.768
38274W        W10699  21.702  40.057   2.069
38275W        W10700  32.935   0.919   1.828
38276W        W10701   2.995  20.234  13.928
38277W        W10702  14.687  19.070   3.331
38278W        W10703  23.280  20.238   0.494
38279W        W10704   2.194   3.701   1.413
38280W        W10705  34.860  22.491  14.347
38281W        W10706   0.397  39.315  11.870
38282W        W10707  35.779  17.259   0.930
38283W        W10708  26.606  28.939  14.728
38284W        W10709  42.539   2.399   0.397
38285W        W10710  16.626  18.873  13.423
38286W        W10711  23.238  28.108  10.741
38287W        W10712   4.405  17.568  11.945
38288W        W10713   1.216  33.456   1.176
38289W        W10714  14.211  18.217   0.448
38290W        W10715  31.577   6.676  13.855
38291W        W10716  27.718  20.989   1.148
38292W        W10717  17.669   6.722  13.008
38293W        W10718  42.520  28.265   4.170
38294W        W10719  27.698  23.516  12.056
38295W        W10720   0.252   0.969  14.760
38296W        W10721  31.977  43.093   0.095
38297W        W10722  37.057   9.223   2.251
38298W        W10723  32.454  32.290   1.285
38299W        W10724  29.560  20.130  14.533
38300W        W10725  22.758  16.833  13.935
38301W        W10726  23.198  36.806   0.229
38302W        W10727  35.683  11.520   0.741
38303W        W10728  34.087  12.199  14.034
38304W        W10729  27.496  22.784  13.004
38305W        W10730  20.666  27.497  10.500
38306W        W10731  16.833  27.953  14.060
38307W        W10732   1.813  39.851  14.240
38308W        W10733  27.929  37.737  10.460
38309W        W10734  25.746  30.873   2.117
38310W        W10735  30.213  19.866  14.785
38311W        W10736   8.164   8.346   3.213
38312W        W10737  37.055  42.055   0.839
38313W        W10738  11.278  17.942  13.119
38314W        W10739  36.762  11.270   3.865
38315W        W10740  34.839  42.467   3.505
38316W        W10741  13.779  17.933  14.706
38317W        W10742   1.949  18.006   0.877
38318W        W10743  16.253  36.311   3.882
38319W        W10744  40.832  22.490   4.546
38320W        W10745   8.383   6.858   0.239
38321W        W10746  34.134  24.100   4.747
38322W        W10747   4.210  22.713  12.561
38323W        W10748  22.529  29.486   1.209
38324W        W10749   1.000  15.192  13.894
38325W        W10750  19.316  16.012   1.889
38326W        W10751  23.603   2.198   1.769
38327W        W10752  43.938  31.380   2.358
38328W        W10753  12.218  26.475   1.933
38329W        W10754  13.839  15.154   0.931
38330W        W10755   4.784  38.303  14.319
38331W        W10756  30.503  38.179   0.844
38332W        W10757  42.343  29.675  11.594
38333W        W10758   3.579  40.080   9.998
38334W        W10759   0.890  30.412  11.149
38335W        W10760  26.602  34.815  10.855
38336W        W10761  12.304  18.482  12.625
38337W        W10762  28.912  20.917  11.341
38338W        W10763  17.204  30.717   4.114
38339W        W10764  28.901  13.669  12.615
38340W        W10765  19.707  20.951   0.393
38341W        W10766  38.022  23.149  10.139
38342W        W10767  21.522  27.941  11.948
38343W        W10768  23.969  29.069   0.292
38344W        W10769  36.864   1.486  11.997
38345W        W10770  39.048  43.832   0.988
38346W        W10771  38.315  40.933   1.743
38347W        W10772   3.842   6.473   4.494
38348W        W10773  25.605  38.540   3.271
38349W        W10774  17.383  41.748   2.790
38350W        W10775  27.670  16.841   2.763
38351W        W10776  35.994  21.655  14.486
38352W        W10777  12.071   2.709   1.335
38353W        W10778   6.436  35.087   0.338
38354W        W10779  29.388  31.109  13.050
38355W        W10780   8.932  26.569  11.997
38356W        W10781   7.370  41.609   1.428
38357W        W10782  32.822  20.631  12.899
38358W        W10783  15.381  22.264   9.902
38359W        W10784  20.014  42.315   3.184
38360W        W10785  24.578   6.236  10.967
38361W        W10786  10.133  35.830  10.545
38362W        W10787  27.903  20.086   0.660
38363W        W10788  42.489  22.464   3.682
38364W        W10789  43.186   1.177  13.785
38365W        W10790  14.346  20.227  11.854
38366W        W10791  36.787   4.322  11.872
38367W        W10792  16.533   8.862   3.688
38368W        W10793  43.868  28.869  11.121
38369W        W10794  25.185  18.638   5.100
38370W        W10795  26.050  25.575   4.050
38371W        W10796   6.357  13.630   1.478
38372W        W10797  15.204  25.790  13.014
38373W        W10798  24.986  36.701   1.913
38374W        W10799  25.842   7.539   1.580
38375W        W10800  24.774   5.626   3.089
38376W        W10801  20.471   9.864   5.427
38377W        W10802  34.614  35.976  11.502
38378W        W10803  24.645  33.421   4.842
38379W        W10804   3.688   6.002  14.270
38380W        W10805   0.987  11.690   0.299
38381W        W10806  18.162  10.225   4.322
38382W        W10807   1.201  42.093   1.044
38383W        W10808  42.611  22.071   2.764
38384W        W10809   3.795   8.356   2.972
38385W        W10810  11.106  37.065  14.864
38386W        W10811   5.382  14.436   3.320
38387W        W10812  33.541  29.423  14.279
38388W        W10813   0.261  10.861   2.292
38389W        W10814   4.189  38.248   4.076
38390W        W10815   8.509  43.076   1.804
38391W        W10816   3.715  29.739  11.994
38392W        W10817  19.534  26.537  10.774
38393W        W10818   7.873  28.491  12.528
38394W        W10819  10.509  40.059  10.811
38395W        W10820  25.045  37.409  14.704
38396W        W10821  41.537  35.972   0.038
38397W        W10822  18.197  24.143  11.053
38398W        W10823   3.370  42.710   4.645
38399W        W10824  42.419   0.430   1.525
38400W        W10825  22.478   2.530  12.498
38401W        W10826  34.381  38.340   4.370
38402W        W10827   7.349  36.055   3.426
38403W        W10828  13.771  35.887   1.687
38404W        W10829  36.424  17.654  14.603
38405W        W10830  39.251   2.911  12.844
38406W        W10831  25.180  37.588   0.923
38407W        W10832   1.048  25.567   4.101
38408W        W10833  34.139  21.813  14.833
38409W        W10834   5.716  11.699  13.950
38410W        W10835  10.254  10.831  12.455
38411W        W10836  25.695  12.720   0.022
38412W        W10837  31.263  32.909  11.164
38413W        W10838  30.873  21.997  13.881
38414W        W10839  23.800  23.127  11.431
38415W        W10840  28.691  21.171  13.014
38416W        W10841  10.790  36.559   3.391
38417W        W10842  28.440  35.923  13.512
38418W        W10843   8.752  15.221  13.377
38419W        W10844  38.290  23.011  13.202
38420W        W10845  24.439  29.986   2.967
38421W        W10846  34.651  26.209   4.853
38422W        W10847  22.572   8.903   3.393
38423W        W10848  16.835  32.857   2.221
38424W        W10849   5.670   1.399   0.109
38425W        W10850  40.494  16.130   9.903
38426W        W10851  17.400  15.885  13.805
38427W        W10852  26.050  19.109   3.189
38428W        W10853  41.190   1.918   4.841
38429W        W10854   5.879   8.619  12.051
38430W        W10855   6.434  34.820   3.689
38431W        W10856  16.501  41.753  13.499
38432W        W10857  32.139  35.931  10.688
38433W        W10858  44.009  18.953  13.026
38434W        W10859  25.714  44.795  14.258
38435W        W10860  19.642  11.617   1.635
38436W        W10861  26.584   7.576   3.307
38437W        W10862  26.150  23.965   2.109
38438W        W10863  25.285  22.769   1.297
38439W        W10864  35.562  24.490  13.979
38440W        W10865  13.169  17.821   1.919
38441W        W10866   1.879  15.673   9.954
38442W        W10867  25.034  42.770   1.408
38443W        W10868   0.786  26.263   3.862
38444W        W10869  38.387  27.257  11.468
38445W        W10870  42.541  29.232   0.390
38446W        W10871  40.546  13.717   3.663
38447W        W10872  30.642   2.920  13.460
38448W        W10873   1.403  25.664   4.881
38449W        W10874  44.970   5.629  10.688
38450W        W10875  30.159  16.782  14.883
38451W        W10876   0.019  13.269   1.008
38452W        W10877  40.914  30.995   4.598
38453W        W10878  42.161  15.778  11.553
38454W        W10879  42.368  23.792  14.838
38455W        W10880  27.308  33.203   1.190
38456W        W10881  34.682  32.985  12.886
38457W        W10882  22.464  15.535   1.987
38458W        W10883   9.238  21.601   1.249
38459W        W10884  33.556  22.256  11.852
38460W        W10885  25.139  41.454  10.134
38461W        W10886  41.271  29.142  12.972
38462W        W10887   4.878  26.534  12.165
38463W        W10888   5.700  35.000  14.147
38464W        W10889  10.575  40.847   3.391
38465W        W10890  43.516  19.520   3.393
38466W        W10891  38.095  13.213  10.954
38467W        W10892  24.128  44.285   2.045
38468W        W10893  17.572  22.286  12.365
38469W        W10894  38.280  28.943  11.124
38470W        W10895  42.671  22.682   1.240
38471W        W10896   2.443  35.709  13.526
38472W        W10897  30.587   8.819   1.496
38473W        W10898  39.842  20.094  12.584
38474W        W10899  41.935  16.772   3.087
38475W        W10900   8.176   3.004  12.500
38476W        W10901  16.198  18.556   1.691
38477W        W10902  20.560  10.457  13.263
38478W        W10903  40.891  14.792  14.316
38479W        W10904   8.598  10.633  10.347
38480W        W10905  39.489  23.938   2.755
38481W        W10906   8.972  38.665  10.260
38482W        W10907  14.731   3.727  12.359
38483W        W10908  36.352   7.114  14.197
38484W        W10909  36.253   4.948   2.207
38485W        W10910  28.721  35.033   4.097
38486W        W10911  40.498  25.997   1.694
38487W        W10912  41.762  14.649  12.038
38488W        W10913  28.058   5.694   2.102
38489W        W10914  10.801  25.046   1.914
38490W        W10915  29.280  34.049   9.999
38491W        W10916  22.088   7.440  12.255
38492W        W10917  13.511  13.368   2.747
38493W        W10918  44.110  37.001   4.604
38494W        W10919  30.949  11.075   0.913
38495W        W10920  21.294  28.937  12.174
38496W        W10921  35.579  23.578  14.975
38497W        W10922  11.066  13.847   3.276
38498W        W10923   6.787  26.010   1.973
38499W        W10924  24.580  21.241  13.531
38500W        W10925  26.535  14.891   2.204
38501W        W10926  29.246  21.694   3.277
38502W        W10927  38.068  12.237  12.437
38503W        W10928  36.002  33.181   3.304
38504W        W10929  33.245  37.997   1.826
38505W        W10930  33.443  10.717   0.401
38506W        W10931  39.294  21.664  13.847
38507W        W10932  18.662  17.725   3.345
38508W        W10933  34.619  14.293   4.693
38509W        W10934  35.600   6.815   4.802
38510W        W10935   7.869  14.180  11.990
38511W        W10936   3.923  11.681  14.396
38512W        W10937  33.006  35.655  14.280
38513W        W10938  15.599  39.825   0.228
38514W        W10939  40.223  10.141   3.719
38515W        W10940  13.350  41.410  14.930
38516W        W10941  10.809  16.375   2.263
38517W        W10942  19.047  28.033  13.467
38518W        W10943  29.981   8.691  11.649
38519W        W10944  44.828   8.761  11.436
38520W        W10945  12.866  25.740  10.619
38521W        W10946   4.274  44.542   2.399
38522W        W10947  37.502  25.609   3.009
38523W        W10948  25.053   9.261  10.695
38524W        W10949  19.060  40.111   4.146
38525W        W10950  20.976  44.723  14.869
38526W        W10951  15.271  26.079  12.578
38527W        W10952   0.810   5.949  13.379
38528W        W10953  37.069   8.408  12.152
38529W        W10954  10.179  12.299   0.610
38530W        W10955  43.529   4.596  13.929
38531W        W10956  19.040   2.380  10.267
38532W        W10957  25.943  43.702   1.194
38533W        W10958   8.222  30.551   4.397
38534W        W10959  22.481   5.343   0.956
38535W        W10960  26.792  14.744  14.843
38536W        W10961  30.024   9.360   0.310
38537W        W10962  38.977  31.581  10.951
38538W        W10963  12.995  12.861  10.620
38539W        W10964  25.516  23.062   2.128
38540W        W10965  36.574  25.387   2.359
38541W        W10966  28.704  27.995  10.353
38542W        W10967   1.076  28.325  12.538
38543W        W10968  37.458   7.887  12.492
38544W        W10969   4.643  33.920  12.926
38545W        W10970  23.966  28.929  11.150
38546W        W10971  40.579   7.177  10.706
38547W        W10972  25.438   7.208  14.717
38548W        W10973  29.535  17.601  14.445
38549W        W10974  24.306   0.408  12.862
38550W        W10975   3.247  43.820   0.929
38551W        W10976   1.023   4.754  11.890
38552W        W10977  27.078  35.065  13.580
38553W        W10978   9.493  34.813  14.990
38554W        W10979  23.528  36.469  14.497
38555W        W10980  12.129  14.848   4.262
38556W        W10981  19.223   8.481   4.600
38557W        W10982  29.608  13.379   4.258
38558W        W10983  21.361  42.131   3.291
38559W        W10984  35.032  32.356   3.605
38560W        W10985   7.371  20.107   2.695
38561W        W10986  33.128  18.515   4.113
38562W        W10987  25.693  18.032  14.751
38563W        W10988  32.083   7.551   3.339
38564W        W10989  21.615   8.851  10.269
38565W        W10990  18.294  44.484   4.328
38566W        W10991  26.574  30.268  12.379
38567W        W10992  32.686   0.458  10.704
38568W        W10993  42.770  12.222  12.921
38569W        W10994   5.405  24.885   3.681
38570W        W10995  32.802  25.362  12.032
38571W        W10996  11.246  22.122   4.635
38572W        W10997   7.784  39.562  14.221
38573W        W10998  40.386   0.201  14.466
38574W        W10999   5.391  44.243   4.161
38575W        W11000  37.983  39.823  12.683
38576W        W11001  29.068  17.262  10.683
38577W        W11002  27.404  35.909   2.778
38578W        W11003  19.814   5.339  10.722
38579W        W11004  44.016   4.372   1.363
38580W        W11005   7.460  13.741   4.739
38581W        W11006  43.753   7.891  11.485
38582W        W11007  20.108   4.712   2.672
38583W        W11008  43.334  42.768  14.770
38584W        W11009  38.411   2.483  14.999
38585W        W11010  22.131   4.176   0.673
38586W        W11011  25.330  25.253   3.649
38587W        W11012  28.538  16.672   1.770
38588W        W11013  14.679  13.645   3.150
38589W        W11014  18.079   2.629  12.100
38590W        W11015  31.426  19.198  12.451
38591W        W11016  39.275  24.972  13.427
38592W        W11017   7.325  28.703  12.922
38593W        W11018  16.839  19.688   1.811
38594W        W11019   7.183  17.701   1.838
38595W        W11020  27.236  22.051  14.389
38596W        W11021   2.699  28.153  14.407
38597W        W11022   2.401  14.613   1.283
38598W        W11023  44.933  11.879  14.262
38599W        W11024  19.092   6.644  11.554
38600W        W11025  29.533  43.252   3.310
38601W        W11026  41.572  15.793  14.915
38602W        W11027  10.054  23.461   3.772
38603W        W11028  11.818  22.426   2.913
38604W        W11029  19.035  37.848   1.902
38605W        W11030   1.197  42.311   3.996
38606W        W11031  34.890  25.470  12.235
38607W        W11032  17.342   4.692  11.483
38608W        W11033   3.605  11.095   0.266
38609W        W11034  43.489  11.425   0.795
38610W        W11035  30.894  12.584  14.363
38611W        W11036  24.145   6.277  14.052
38612W        W11037   7.714   4.782  14.425
38613W        W11038  29.065  29.136   0.546
38614W        W11039  35.351  36.462  10.749
38615W        W11040  40.807  33.534  10.501
38616W        W11041  26.170   2.082  11.492
38617W        W11042   4.216   0.815   3.676
38618W        W11043  41.581  38.490  13.345
38619W        W11044  11.887  31.564   1.457
38620W        W11045  30.587  19.277  10.546
38621W        W11046  38.467  28.621   2.380
38622W        W11047  43.397  35.407   4.531
38623W        W11048  40.989  13.182   2.241
38624W        W11049  12.711  24.869  13.583
38625W        W11050   6.904  42.724   2.643
38626W        W11051  22.533  22.267  12.540
38627W        W11052  40.692  30.520   4.721
38628W        W11053  38.871   0.961  11.069
38629W        W11054  28.567  19.163  12.937
38630W        W11055  24.004  19.538   3.661
38631W        W11056  27.489  27.145   3.852
38632W        W11057  34.823  34.374  13.773
38633W        W11058   1.747   4.965   0.678
38634W        W11059   0.814   5.537   2.849
38635W        W11060  17.579  36.287   4.502
38636W        W11061   0.808   2.872   3.690
38637W        W11062  14.727  44.228  12.882
38638W        W11063   0.906  40.736   4.566
38639W        W11064  40.072  37.662  11.456
38640W        W11065  27.905  14.065   0.509
38641W        W11066  21.204  10.304   4.213
38642W        W11067   2.254   7.759   4.612
38643W        W11068   2.724  34.424  11.611
38644W        W11069  33.383  38.595  12.040
38645W        W11070  43.790  18.149  11.069
38646W        W11071   8.748  24.987   2.879
38647W        W11072   4.883  12.007  13.594
38648W        W11073  41.452  38.163   2.771
38649W        W11074   9.721  23.719  14.669
38650W        W11075   4.179  29.581  11.841
38651W        W11076  32.028   1.638  14.517
38652W        W11077  19.988   9.646   2.804
38653W        W11078  22.974  33.612  13.422
38654W        W11079  22.286  26.204  13.508
38655W        W11080  17.200  24.677  14.518
38656W        W11081  40.530  41.983   1.631
38657W        W11082  20.049  11.938  11.178
38658W        W11083  41.517  23.423  12.177
38659W        W11084  10.862  25.685  10.606
38660W        W11085  38.059   7.904  10.764
38661W        W11086  10.638   7.290   0.278
38662W        W11087  32.626  21.016  13.889
38663W        W11088  25.694  22.941  12.952
38664W        W11089  26.080  12.837  10.487
38665W        W11090  16.624   9.227   1.891
38666W        W11091  20.664   2.770  12.957
38667W        W11092  13.714  25.145   2.447
38668W        W11093  14.563  34.424  14.484
38669W        W11094  38.434  33.598  13.999
38670W        W11095   4.975   1.695   4.307
38671W        W11096  25.785  35.515  11.915
38672W        W11097  14.226  34.347   5.089
38673W        W11098  14.005  41.053   4.371
38674W        W11099   9.925  24.310   2.837
38675W        W11100  13.617  15.489  14.386
38676W        W11101  41.717  26.679  12.627
38677W        W11102  30.651  38.186  12.295
38678W        W11103  36.846  42.360  11.970
38679W        W11104  44.901  11.087  11.091
38680W        W11105  21.502  31.636  10.656
38681W        W11106  23.471  33.825  12.942
38682W        W11107  29.523  33.412   2.272
38683W        W11108   9.157   1.479   2.938
38684W        W11109  17.802  21.443   2.644
38685W        W11110  39.980  38.567   0.376
38686W        W11111   3.337  19.625   1.499
38687W        W11112  43.858  11.615  14.451
38688W        W11113  44.410  31.900  11.237
38689W        W11114  33.002   4.759  11.895
38690W        W11115  20.589  15.457   4.603
38691W        W11116   5.272  40.025   4.998
38692W        W11117   8.740  12.330   4.176
38693W        W11118  25.201   8.727   1.385
38694W        W11119   1.351   0.356  14.790
38695W        W11120  13.799  41.490   2.243
38696W        W11121  13.511  18.026  12.355
38697W        W11122  13.804  18.681  14.320
38698W        W11123   2.520  28.956  11.601
38699W        W11124  34.905  23.808  14.474
38700W        W11125   8.622  34.423  14.908
38701W        W11126   1.370  26.639   0.365
38702W        W11127  39.830  38.094  12.764
38703W        W11128  28.860  24.548  14.591
38704W        W11129  41.954  18.117   1.448
38705W        W11130  20.323   0.632  13.524
38706W        W11131  22.154  13.619   4.758
38707W        W11132  26.982  17.665  12.144
38708W        W11133   4.941  24.049   0.290
38709W        W11134  28.851  10.620  14.401
38710W        W11135  13.104  37.941  11.498
38711W        W11136  14.829  17.713   2.208
38712W        W11137  23.527  20.036   4.188
38713W        W11138  32.213  20.147  14.977
38714W        W11139  37.856   6.413  14.826
38715W        W11140   2.426   9.292   0.446
38716W        W11141  37.381  15.416  12.648
38717W        W11142  23.221  39.808  10.520
38718W        W11143  11.578  17.012   4.566
38719W        W11144   8.403  36.490   0.977
38720W        W11145   9.718   0.303   2.143
38721W        W11146  43.338   6.241  11.434
38722W        W11147  12.120  10.255   3.715
38723W        W11148  44.100  43.290  14.360
38724W        W11149   0.541   2.335  11.496
38725W        W11150   4.461  12.327  11.165
38726W        W11151   5.459  41.506   1.454
38727W        W11152  37.743  21.197   2.843
38728W        W11153  35.103  41.021   1.698
38729W        W11154  43.696  25.146  10.676
38730W        W11155  35.045  12.086  14.809
38731W        W11156  44.537  44.530   3.670
38732W        W11157   9.323  40.819  11.166
38733W        W11158  27.854  11.768  12.747
38734W        W11159  43.911  43.502  11.866
38735W        W11160  25.073  12.076  12.984
38736W        W11161  36.017  28.680   0.304
38737W        W11162  19.533  34.245   0.483
38738W        W11163   0.269  42.258  13.962
38739W        W11164  27.015   9.593   3.160
38740W        W11165  30.207  16.267  12.404
38741W        W11166  34.916  37.079  11.149
38742W        W11167  34.626   6.562  10.760
38743W        W11168  41.398  29.188  13.835
38744W        W11169  35.874  27.108   3.290
38745W        W11170   4.393  31.154   3.605
38746W        W11171  26.514  31.091   1.700
38747W        W11172  32.602  15.110  10.618
38748W        W11173  23.015  14.242   3.623
38749W        W11174   5.772   4.134  14.355
38750W        W11175   1.665  11.348  12.390
38751W        W11176  29.586  33.983  13.223
38752W        W11177   1.463  29.508  11.161
38753W        W11178  17.563  25.716   0.310
38754W        W11179  34.472  35.888   3.227
38755W        W11180  19.278  28.089  11.150
38756W        W11181  10.334  17.370   3.103
38757W        W11182  24.445  20.581   2.856
38758W        W11183  31.042   7.828  14.668
38759W        W11184  16.662  14.514   3.144
38760W        W11185  32.556  16.700  11.217
38761W        W11186  26.066  32.318   1.527
38762W        W11187   3.002  24.456   1.807
38763W        W11188  21.736   7.317  14.510
38764W        W11189  44.916  20.635   3.706
38765W        W11190  41.104  29.042   0.263
38766W        W11191  44.713   4.648   1.786
38767W        W11192  35.598   6.147   2.173
38768W        W11193  35.376  42.060  12.441
38769W        W11194  40.528  33.123  14.978
38770W        W11195  37.104  13.247   2.668
38771W        W11196   4.011   5.248  10.759
38772W        W11197  28.497  10.222   1.171
38773W        W11198  25.583  17.799  11.946
38774W        W11199  30.658  11.171  11.791
38775W        W11200  33.553   4.985  12.046
38776W        W11201  31.405  40.526   2.816
38777W        W11202  11.371   6.332  13.473
38778W        W11203  15.088  40.230   3.827
38779W        W11204  23.504  37.386  13.008
38780W        W11205  17.579  29.550   1.956
38781W        W11206  24.684   1.815   1.351
38782W        W11207  44.822  31.361  14.402
38783W        W11208  14.664  25.001   3.414
38784W        W11209  20.129  32.721   4.012
38785W        W11210  42.962  37.796  10.627
38786W        W11211  32.211  16.414   0.627
38787W        W11212  35.818  42.918  14.801
38788W        W11213  38.351  30.513   4.281
38789W        W11214  14.308  30.407   0.974
38790W        W11215  37.017  40.074  13.949
38791W        W11216  37.226  26.699  14.902
38792W        W11217  27.448  36.931  14.852
38793W        W11218  24.232   8.578   0.021
38794W        W11219  43.489  39.030  11.027
38795W        W11220  13.559  12.705   4.059
38796W        W11221  34.533  33.422  11.554
38797W        W11222   8.738  41.968   0.487
38798W        W11223  35.031  19.790  12.030
38799W        W11224  13.182   1.351  10.396
38800W        W11225  17.247   8.807  14.836
38801W        W11226  29.361  16.983   0.313
38802W        W11227  23.160   6.580  14.458
38803W        W11228  36.054  16.918   0.653
38804W        W11229  41.030   7.587  11.470
38805W        W11230   4.797  26.958   4.362
38806W        W11231  10.162  28.418  14.385
38807W        W11232  16.557  35.407   4.396
38808W        W11233  23.588  16.542  13.440
38809W        W11234  21.149  22.615   3.557
38810W        W11235  40.411  28.087  14.357
38811W        W11236  31.231  29.616  14.413
38812W        W11237  22.271   5.661   4.528
38813W        W11238   0.990  28.917   2.770
38814W        W11239  13.821   5.757  13.410
38815W        W11240  35.263  11.191  12.371
38816W        W11241  37.051  32.928   3.223
38817W        W11242  39.747  14.306  10.988
38818W        W11243   7.611  21.989  13.377
38819W        W11244  15.090  30.164  12.563
38820W        W11245  16.060  32.681   4.164
38821W        W11246  33.130  26.253  11.544
38822W        W11247  44.315   0.964  14.037
38823W        W11248  29.677  39.910   2.168
38824W        W11249  10.896   2.978  12.045
38825W        W11250   5.772  20.530   1.283
38826W        W11251  27.155  28.269  14.750
38827W        W11252  34.847  23.182  12.948
38828W        W11253   4.985  37.917  12.074
38829W        W11254  23.041   9.196   3.554
38830W        W11255  23.096  18.767   3.633
38831W        W11256   9.538  33.440  12.975
38832W        W11257  19.093  44.767  13.037
38833W        W11258  44.283  11.179  13.854
38834W        W11259  17.661  19.790   2.256
38835W        W11260  17.629  42.928   1.857
38836W        W11261   2.964  28.973  14.823
38837W        W11262  15.247  41.649  13.488
38838W        W11263  19.630  44.249   3.078
38839W        W11264  44.924  43.460  12.118
38840W        W11265  31.890  22.037  13.296
38841W        W11266   2.429  16.958   3.788
38842W        W11267  38.889   7.873   0.000
38843W        W11268  13.325  44.336  10.615
38844W        W11269  31.718  23.310   0.443
38845W        W11270  39.991  27.250   0.916
38846W        W11271  25.554  10.837  11.482
38847W        W11272   6.354  21.600   2.800
38848W        W11273  30.947  33.464   1.732
38849W        W11274   2.917  19.356  14.356
38850W        W11275  22.951  27.075   4.457
38851W        W11276   4.339  24.601   0.861
38852W        W11277  12.728   1.233   1.854
38853W        W11278  11.628  10.157   1.954
38854W        W11279  18.761   9.334  11.074
38855W        W11280  44.391  35.874   4.657
38856W        W11281  19.191  26.920   2.274
38857W        W11282  41.195   9.732  14.837
38858W        W11283  31.396  27.677  13.366
38859W        W11284   5.696  37.570  13.846
38860W        W11285  10.821  16.492   3.710
38861W        W11286  37.977  13.813   2.462
38862W        W11287   4.019  27.574  14.462
38863W        W11288   6.226  42.833   3.337
38864W        W11289   1.441  22.563  13.383
38865W        W11290  31.742   1.266  11.615
38866W        W11291  42.506  12.183  11.591
38867W        W11292  20.224   6.463  10.566
38868W        W11293  15.957   9.880   1.733
38869W        W11294  34.488  36.892  14.738
38870W        W11295  10.558  39.457   4.905
38871W        W11296  21.821   4.804   0.124
38872W        W11297  21.628  38.070  13.572
38873W        W11298  42.660  28.546  12.076
38874W        W11299  38.842  39.031   3.622
38875W        W11300  17.871  26.970  11.268
38876W        W11301  19.707  31.846   2.594
38877W        W11302  39.254   5.766   0.831
38878W        W11303  41.360  38.490   0.155
38879W        W11304  24.741  11.536  13.473
38880W        W11305  26.408   1.136   2.828
38881W        W11306  27.674  30.671   3.177
38882W        W11307   1.218   8.203   3.259
38883W        W11308  14.046  15.517  10.799
38884W        W11309  31.801   9.298   4.104
38885W        W11310   9.803   9.328   3.226
38886W        W11311  22.482  15.056   3.201
38887W        W11312  35.385   6.687   3.464
38888W        W11313   9.873  44.981   1.695
38889W        W11314   3.353   0.660  14.453
38890W        W11315  19.209  22.943   2.452
38891W        W11316  21.131  10.184   5.156
38892W        W11317  23.154  26.620   3.417
38893W        W11318  25.553   6.393   4.579
38894W        W11319  20.095  29.460   3.964
38895W        W11320  40.207   0.402   3.935
38896W        W11321  16.702  31.526   2.119
38897W        W11322  34.823  25.813   0.896
38898W        W11323  23.995  13.775  14.009
38899W        W11324  40.579  32.200   4.236
38900W        W11325  28.002  23.757   3.157
38901W        W11326  42.939  11.660  12.166
38902W        W11327  28.459  35.571   0.735
38903W        W11328  35.621  15.677  11.919
38904W        W11329  14.525  18.199  11.874
38905W        W11330  28.989  16.051  12.001
38906W        W11331   4.154  42.887  14.481
38907W        W11332  36.420  23.078   3.141
38908W        W11333  27.445   6.275   4.166
38909W        W11334  29.941  33.596  11.979
38910W        W11335  20.945  24.170  14.041
38911W        W11336  37.536   4.844  10.490
38912W        W11337   2.802  37.876   1.376
38913W        W11338  33.185  36.273  14.840
38914W        W11339  37.928  33.171   4.581
38915W        W11340   1.954  30.894  14.940
38916W        W11341  21.576   8.156   1.731
38917W        W11342  26.757  39.794  14.481
38918W        W11343   1.852  24.223  12.145
38919W        W11344  11.528  39.914   1.552
38920W        W11345  21.203   8.103   4.931
38921W        W11346   8.311   6.408   4.943
38922W        W11347   7.711  43.431   0.195
38923W        W11348  21.955  35.880   2.747
38924W        W11349   4.658  19.657   0.986
38925W        W11350  29.462  33.041  10.666
38926W        W11351   7.654  20.669   3.777
38927W        W11352  40.880  14.363   3.447
38928W        W11353  39.987  27.655  12.913
38929W        W11354  36.155  17.417   0.557
38930W        W11355  15.581  16.634   2.308
38931W        W11356  24.728  34.664  13.090
38932W        W11357  20.153  39.661   2.338
38933W        W11358  42.434   1.196  11.203
38934W        W11359  18.545  23.597   1.275
38935W        W11360  37.604  29.717  10.759
38936W        W11361   6.170  27.823  14.351
38937W        W11362  21.713  23.781  14.619
38938W        W11363  37.322  28.153   3.146
38939W        W11364  11.487  44.920  13.323
38940W        W11365  19.507  25.936  13.092
38941W        W11366  35.876  42.008   2.216
38942W        W11367  37.737  40.872  13.562
38943W        W11368  12.601  20.003  13.557
38944W        W11369  28.000  41.287   9.981
38945W        W11370  20.073   3.327  11.521
38946W        W11371   0.787  43.697  10.740
38947W        W11372  24.689  12.394   1.268
38948W        W11373   7.369  32.940  12.945
38949W        W11374  16.348   4.852  11.561
38950W        W11375  37.871  38.915   3.773
38951W        W11376  31.342  28.682  11.934
38952W        W11377  16.310  43.811   0.701
38953W        W11378  36.171  22.146  13.355
38954W        W11379  11.663  10.449  14.966
38955W        W11380  12.179  40.682  11.136
38956W        W11381  21.009  14.573   2.304
38957W        W11382  13.661  24.305  10.738
38958W        W11383  10.345  31.632   3.658
38959W        W11384  33.667  29.017   2.123
38960W        W11385  36.773   2.767  11.591
38961W        W11386  30.923  27.971   1.832
38962W        W11387  21.009   5.885  11.678
38963W        W11388  13.663   7.803  13.363
38964W        W11389  37.970  42.525  13.895
38965W        W11390  30.111   5.809  14.801
38966W        W11391  42.521  12.289   4.367
38967W        W11392   3.642  36.145  12.452
38968W        W11393  14.235   9.672  12.267
38969W        W11394  37.601   2.974   1.257
38970W        W11395   5.648  24.431  11.559
38971W        W11396  36.174  34.174   3.185
38972W        W11397   2.983  13.063  11.663
38973W        W11398  10.478  22.465   4.077
38974W        W11399  37.200   5.403   2.241
38975W        W11400  21.488  36.124  13.925
38976W        W11401  10.821  40.324   2.710
38977W        W11402  20.556  25.434  10.666
38978W        W11403   9.410   3.433   1.109
38979W        W11404  41.753   4.765  11.746
38980W        W11405  17.059  41.800   3.207
38981W        W11406   1.613  20.242   2.768
38982W        W11407  17.698  40.270  14.447
38983W        W11408  25.566  44.947   0.982
38984W        W11409   3.034  24.559  12.599
38985W        W11410  36.936  40.784   1.400
38986W        W11411  17.053  38.300   4.574
38987W        W11412  35.172  44.340  12.924
38988W        W11413  15.775  17.643   1.372
38989W        W11414  18.094  28.865   3.157
38990W        W11415  26.509   5.145   2.248
38991W        W11416  17.219  41.900  11.729
38992W        W11417  38.883  14.887   4.192
38993W        W11418  24.660  19.082  14.491
38994W        W11419  14.295  28.253   2.338
38995W        W11420  34.783  35.046   4.554
38996W        W11421  20.904  22.626   5.057
38997W        W11422  14.074   3.972   2.232
38998W        W11423   8.795  31.444   1.490
38999W        W11424  27.626   1.716   3.538
39000W        W11425   2.394   5.606  13.115
39001W        W11426  41.299  29.965   3.259
39002W        W11427  13.279   1.141   3.368
39003W        W11428   7.970   8.682   2.198
39004W        W11429   2.242  38.440  13.852
39005W        W11430   2.429   4.048   2.750
39006W        W11431  37.444  15.768  14.582
39007W        W11432  42.233  15.143   3.293
39008W        W11433  14.804  44.532  14.273
39009W        W11434  33.417  26.559   0.443
39010W        W11435  18.559  22.716   0.199
39011W        W11436  16.738  29.558  13.125
39012W        W11437  41.456  19.300  12.597
39013W        W11438   9.272  33.431  10.349
39014W        W11439  28.700  13.097   1.202
39015W        W11440   7.432   6.651  14.430
39016W        W11441  13.719  12.241  13.739
39017W        W11442   1.634  37.360   4.122
39018W        W11443  39.893   2.404  14.327
39019W        W11444  42.322  41.493  12.512
39020W        W11445  25.129  19.607  12.839
39021W        W11446   6.214  35.034   0.801
39022W        W11447  38.941  15.202  13.784
39023W        W11448  24.367  28.584  11.161
39024W        W11449  36.743   6.444  14.318
39025W        W11450  12.604  15.979   1.941
39026W        W11451  41.820  22.077  10.372
39027W        W11452  15.410  33.880   2.606
39028W        W11453  38.587   1.482  12.870
39029W        W11454  16.100   7.978  13.914
39030W        W11455  13.153  43.141   2.601
39031W        W11456  16.770   4.348  13.466
39032W        W11457   2.300  14.970   2.822
39033W        W11458  43.128   7.105  14.305
39034W        W11459  31.959  28.783  12.951
39035W        W11460   9.727  29.728   3.824
39036W        W11461  25.565  14.468  12.430
39037W        W11462  10.899  20.262   3.729
39038W        W11463  15.771  33.062   4.963
39039W        W11464  12.695  42.105  11.216
39040W        W11465   5.207   7.421  12.391
39041W        W11466  37.904   0.196   3.809
39042W        W11467   9.219  15.151   3.231
39043W        W11468  16.914  21.078  12.547
39044W        W11469  41.530  20.144  11.979
39045W        W11470  20.032  24.956  11.347
39046W        W11471  31.662   3.941  14.818
39047W        W11472  32.686   5.377   1.344
39048W        W11473   9.165  16.697   3.195
39049W        W11474  31.966  44.334  12.802
39050W        W11475  34.764  13.834   4.361
39051W        W11476   0.840  32.528  12.868
39052W        W11477   1.954  12.226   1.302
39053W        W11478   0.455   9.111   0.738
39054W        W11479   3.771  23.541   2.680
39055W        W11480  44.931  31.073   1.490
39056W        W11481   8.983  10.808  11.256
39057W        W11482  38.503  23.037  12.271
39058W        W11483  29.358  22.153   1.933
39059W        W11484  28.429  19.264   4.602
39060W        W11485   4.255  19.369   4.737
39061W        W11486  44.498   1.803  13.979
39062W        W11487  21.092  26.415   1.288
39063W        W11488  32.121  39.330   0.506
39064W        W11489  16.255   8.228  14.336
39065W        W11490   3.442  34.564  10.634
39066W        W11491   3.510   4.195  13.696
39067W        W11492  41.952  33.932  11.517
39068W        W11493  40.451   2.989   4.810
39069W        W11494  23.247  23.595  10.890
39070W        W11495   3.598  44.635   5.093
39071W        W11496   4.666  31.653   4.864
39072W        W11497  19.685  26.588   4.546
39073W        W11498  20.285  30.796  10.760
39074W        W11499   1.950  44.397   0.036
39075W        W11500   3.965  24.185  14.348
39076W        W11501   1.755  17.818  13.449
39077W        W11502  43.033  44.888   3.694
39078W        W11503  10.287  32.499   1.466
39079W        W11504  38.233  15.060  12.424
39080W        W11505  44.147  26.891   1.271
39081W        W11506  19.735  27.488   1.027
39082W        W11507  12.533  21.003  14.509
39083W        W11508  27.039  17.290  10.213
39084W        W11509  10.223  38.866  11.566
39085W        W11510  32.064  40.497  13.515
39086W        W11511   8.868  29.106   4.930
39087W        W11512   9.284  36.791  12.384
39088W        W11513  35.985  20.405  13.712
39089W        W11514   1.940   3.019  14.542
39090W        W11515   1.830  18.659   5.049
39091W        W11516  12.411  35.930   1.197
39092W        W11517  37.996  31.123   2.241
39093W        W11518   5.193  43.007  14.582
39094W        W11519  35.513  24.920   1.836
39095W        W11520   9.622  28.001   3.253
39096W        W11521  21.556  28.157  10.927
39097W        W11522  32.149  37.427  14.327
39098W        W11523  36.880   5.766  13.195
39099W        W11524  26.929  24.153  12.087
39100W        W11525  27.958  16.018   0.412
39101W        W11526   5.274  23.788  14.975
39102W        W11527  24.504  37.246  13.914
39103W        W11528  32.389   9.346  11.438
39104W        W11529  25.269  42.080   3.222
39105W        W11530  27.720  32.652   2.357
39106W        W11531   9.073  18.401   1.222
39107W        W11532   1.738   8.164   3.299
39108W        W11533   1.430   6.305   0.708
39109W        W11534  44.388  42.989  13.535
39110W        W11535  31.170  39.310   4.163
39111W        W11536  33.888  14.198   1.898
39112W        W11537  38.598  15.162   0.918
39113W        W11538  38.547   9.463  12.944
39114W        W11539  27.499  18.777  12.504
39115W        W11540  43.337   6.648   1.873
39116W        W11541  11.301  12.555   4.044
39117W        W11542  36.844   0.281  14.924
39118W        W11543  41.834  18.957  11.129
39119W        W11544  18.519  36.526   3.582
39120W        W11545   5.233  23.516   0.461
39121W        W11546  42.760  28.905   3.137
39122W        W11547   9.459  15.105   0.770
39123W        W11548  24.418  34.122  12.138
39124W        W11549   8.902  30.656  14.216
39125W        W11550  24.553   6.729  10.810
39126W        W11551  44.464   9.749   0.077
39127W        W11552   0.128   0.938   0.937
39128W        W11553  22.509  10.863   4.200
39129W        W11554  16.609  21.305   4.418
39130W        W11555   3.341  13.321  11.421
39131W        W11556   5.752  17.814   1.141
39132W        W11557  42.024  16.475   2.651
39133W        W11558  20.583  27.975   0.746
39134W        W11559   3.194  43.982  11.612
39135W        W11560   2.519  26.779  12.969
39136W        W11561  36.559  23.058   4.579
39137W        W11562   0.347   3.045  12.291
39138W        W11563   9.702  44.129  14.075
39139W        W11564   6.346  43.212  10.693
39140W        W11565  16.159   9.375   4.231
39141W        W11566  14.195  39.339   3.083
39142W        W11567   0.305  16.521   4.662
39143W        W11568  22.737  20.441   4.561
39144W        W11569  18.244  20.282   1.805
39145W        W11570  36.346  32.481   2.327
39146W        W11571  21.523   9.375   3.718
39147W        W11572   0.020  40.471  11.963
39148W        W11573   9.786   0.399  13.452
39149W        W11574  15.739  13.750  11.715
39150W        W11575  18.245  38.606  12.489
39151W        W11576  28.650  34.326   3.562
39152W        W11577  18.040   7.461  13.438
39153W        W11578  29.638  22.501   3.287
39154W        W11579  38.623  22.568  14.860
39155W        W11580  35.197   6.602  14.470
39156W        W11581  13.176  30.147   1.781
39157W        W11582  41.457  10.882  11.904
39158W        W11583  37.962   0.992  11.075
39159W        W11584   0.742   6.190   0.283
39160W        W11585  16.304  13.576   4.611
39161W        W11586   3.352  42.133   5.133
39162W        W11587  28.914  34.689  14.886
39163W        W11588   6.667  15.074  12.018
39164W        W11589  12.278  13.795   0.719
39165W        W11590   7.474  38.044   9.786
39166W        W11591   1.472   2.637   3.140
39167W        W11592  33.679  26.898   2.797
39168W        W11593  12.076   9.278  10.944
39169W        W11594  21.854  33.581   2.729
39170W        W11595  26.389  43.425  10.945
39171W        W11596   5.218  37.254  14.140
39172W        W11597  22.185  42.883  10.784
39173W        W11598  28.096  29.141  12.616
39174W        W11599  12.467   4.587  13.923
39175W        W11600  21.986  15.787  13.200
39176W        W11601  44.228  32.044   3.214
39177W        W11602  44.786  36.609   4.377
39178W        W11603  39.362   9.616  13.396
39179W        W11604  15.562  37.986  13.640
39180W        W11605  32.879  16.079   3.260
39181W        W11606  28.941  40.427   4.357
39182W        W11607  22.606  20.597  14.046
39183W        W11608  14.677   7.142   1.234
39184W        W11609  44.888  38.390   3.360
39185W        W11610  27.041  35.629  12.033
39186W        W11611  16.068  41.825   4.735
39187W        W11612  13.312  18.205   5.014
39188W        W11613  26.891  15.866  13.254
39189W        W11614   2.466  42.914   1.500
39190W        W11615  38.544   3.001  10.419
39191W        W11616   8.221  32.398  11.850
39192W        W11617   2.764  32.564  11.280
39193W        W11618  15.918   2.868   0.222
39194W        W11619  31.699  44.998   3.741
39195W        W11620  28.378  13.917   0.333
39196W        W11621  21.417  40.637  11.089
39197W        W11622   3.928  30.106   3.172
39198W        W11623  16.971  11.911  10.306
39199W        W11624  21.531  33.859   4.082
39200W        W11625  21.328  39.956  10.058
39201W        W11626  44.878  18.622   3.307
39202W        W11627  10.703  14.115   4.701
39203W        W11628  32.774   2.374   2.702
39204W        W11629  43.836  20.213  10.984
39205W        W11630  26.671  27.130  10.572
39206W        W11631   1.994  10.064   0.283
39207W        W11632  22.651  43.796  14.603
39208W        W11633   0.715  40.427   4.167
39209W        W11634  13.101  37.529  14.085
39210W        W11635  32.677  30.022   4.727
39211W        W11636  30.188  30.086  12.471
39212W        W11637  12.339  37.190   5.153
39213W        W11638  18.761   8.962   1.418
39214W        W11639  26.923  30.517  10.760
39215W        W11640  33.703  21.670  14.545
39216W        W11641  27.218  30.113   1.892
39217W        W11642  18.865   7.544  13.000
39218W        W11643   7.184  10.914   4.743
39219W        W11644  44.728  43.892   2.301
39220W        W11645  30.816  29.700  11.109
39221W        W11646  27.248   8.847   1.166
39222W        W11647  17.123   0.795  13.973
39223W        W11648  25.802  24.693   0.872
39224W        W11649  32.065  42.073  11.533
39225W        W11650  18.840  20.633   0.418
39226W        W11651  27.035  34.474  11.443
39227W        W11652  36.072  11.643  14.234
39228W        W11653  26.234  36.787  11.973
39229W        W11654  21.600   1.063  10.355
39230W        W11655  42.781  34.882  11.859
39231W        W11656  44.783  32.024   0.614
39232W        W11657  39.520  41.478   0.191
39233W        W11658  19.320  20.462  12.482
39234W        W11659  44.880  14.254  12.402
39235W        W11660  12.725  17.426   3.941
39236W        W11661  31.193  15.771   1.830
39237W        W11662  12.823   2.172   2.839
39238W        W11663  18.537   4.816   0.270
39239W        W11664  42.327  32.500  13.729
39240W        W11665   2.011   5.137  12.269
39241W        W11666  14.341  22.197   1.205
39242W        W11667   8.214  14.203   0.208
39243W        W11668  39.294  28.608   4.922
39244W        W11669  34.070  41.336  14.855
39245W        W11670  31.138  10.695  10.601
39246W        W11671   1.548  18.071   4.180
39247W        W11672  30.705  44.326  11.421
39248W        W11673   0.302  26.388   1.356
39249W        W11674  21.435  25.265  14.252
39250W        W11675  23.975  34.419   2.241
39251W        W11676  37.527  27.104   2.171
39252W        W11677  19.624   0.293   0.017
39253W        W11678   6.338  34.812   1.980
39254W        W11679  22.684   7.930  11.916
39255W        W11680  10.836   3.909   3.274
39256W        W11681  13.203  16.349  14.470
39257W        W11682  21.244  28.865   1.775
39258W        W11683  26.682   5.312  10.807
39259W        W11684  14.498  18.663  12.935
39260W        W11685  38.614  41.923  10.517
39261W        W11686   4.215  19.659   3.847
39262W        W11687  32.131  16.260  13.090
39263W        W11688  15.768   6.815   3.824
39264W        W11689   7.944  25.980   4.734
39265W        W11690  22.679  42.698  12.403
39266W        W11691  41.495  34.009   4.330
39267W        W11692  38.343  21.756  12.036
39268W        W11693  35.110  25.003  12.066
39269W        W11694   9.305  34.571   2.265
39270W        W11695  22.077  12.593   3.108
39271W        W11696  43.976  19.421   2.551
39272W        W11697  37.319  39.950   3.884
39273W        W11698   2.145  38.564  14.405
39274W        W11699   5.094  37.483  11.030
39275W        W11700  27.490  38.449  11.964
39276W        W11701  40.713  37.458   4.023
39277W        W11702  20.827  38.324  13.072
39278W        W11703   8.766   8.718   1.544
39279W        W11704  17.935   1.793   9.725
39280W        W11705   9.831  14.077   1.942
39281W        W11706  40.081   8.873  14.207
39282W        W11707  29.584  16.636  12.558
39283W        W11708  16.240  36.097   2.977
39284W        W11709  12.897  30.746   0.965
39285W        W11710  36.572  42.252  14.823
39286W        W11711  38.876   7.722   1.885
39287W        W11712  24.221  22.246   4.247
39288W        W11713  42.597  10.697   2.396
39289W        W11714  30.432  21.827   2.638
39290W        W11715  32.647   0.416  12.515
39291W        W11716  19.970  18.700   4.761
39292W        W11717  40.226  10.828  13.858
39293W        W11718  18.522  25.922   1.314
39294W        W11719   2.389  30.594   0.417
39295W        W11720   3.371  14.652  11.146
39296W        W11721   3.276  35.658   2.457
39297W        W11722  29.466  13.252   0.171
39298W        W11723   1.174   5.179   3.387
39299W        W11724  38.890  24.720   5.734
39300W        W11725  11.822   8.417   3.274
39301W        W11726  22.884  44.233  12.536
39302W        W11727  42.125  36.694  11.088
39303W        W11728   8.905  38.392  11.461
39304W        W11729  34.288  21.107   1.150
39305W        W11730  17.185  40.963  12.017
39306W        W11731  44.247  43.765   0.701
39307W        W11732  16.216  36.097   2.421
39308W        W11733   9.654  44.769  13.923
39309W        W11734   1.294  37.061  12.766
39310W        W11735   7.483  26.510   4.364
39311W        W11736  10.771   9.405   5.597
39312W        W11737  25.249  22.588  14.322
39313W        W11738  13.878  30.925  10.587
39314W        W11739  36.973   7.411   0.441
39315W        W11740   0.225  23.109   0.303
39316W        W11741   6.728   6.609   1.106
39317W        W11742  44.281  17.302   5.104
39318W        W11743  42.004   1.723  10.259
39319W        W11744  20.866   6.432   0.410
39320W        W11745   4.323  21.965  10.853
39321W        W11746  14.167   7.414  11.994
39322W        W11747  27.968   1.592  12.688
39323W        W11748  27.955  30.961  13.359
39324W        W11749   6.899  21.093   4.570
39325W        W11750  22.000  34.584  13.311
39326W        W11751  41.803   5.659  11.740
39327W        W11752  18.779  15.946  12.910
39328W        W11753  30.469  31.906  12.009
39329W        W11754   9.843  34.472  11.818
39330W        W11755  23.145  16.138  12.993
39331W        W11756  31.006   3.542  11.442
39332W        W11757  13.317   2.948  13.057
39333W        W11758  38.480  23.605   0.441
39334W        W11759  19.238  27.114   3.620
39335W        W11760  36.347   3.599  13.369
39336W        W11761  32.540  10.258   2.107
39337W        W11762  26.006  36.960  12.420
39338W        W11763  40.522   2.315  12.908
39339W        W11764  21.104   5.755  11.194
39340W        W11765  44.198  37.927   3.040
39341W        W11766  38.346  18.500   3.837
39342W        W11767  39.725  15.734  13.767
39343W        W11768  28.072  25.069  13.060
39344W        W11769   3.387   6.237  10.642
39345W        W11770  34.418  33.584   3.725
39346W        W11771  23.878   9.646   0.811
39347W        W11772  38.077  20.231  10.625
39348W        W11773  12.591   3.131  12.652
39349W        W11774  28.441  41.734   2.945
39350W        W11775   6.829  16.690   2.131
39351W        W11776  31.358  21.752  11.172
39352W        W11777  42.025  39.114  11.109
39353W        W11778   6.895  23.040  10.497
39354W        W11779  27.714   4.268  13.869
39355W        W11780  21.508  14.212   1.290
39356W        W11781   9.015  20.387   3.666
39357W        W11782  24.693  21.993   2.858
39358W        W11783   6.855  38.972   2.921
39359W        W11784  38.885   4.340   0.713
39360W        W11785  33.885  32.006  14.020
39361W        W11786  30.948  40.816  11.195
39362W        W11787   5.928  21.075  14.423
39363W        W11788   1.165  42.982  11.165
39364W        W11789  18.256  34.176  12.356
39365W        W11790  30.850  15.255   3.126
39366W        W11791  12.965  31.522   2.631
39367W        W11792  34.601  22.751   2.316
39368W        W11793  11.099  33.473  14.134
39369W        W11794  12.728   0.880  14.944
39370W        W11795  38.994   3.542   2.675
39371W        W11796  44.701  16.531   3.298
39372W        W11797  26.303   5.731  13.285
39373W        W11798   2.874  44.418   0.262
39374W        W11799  11.754   6.218   0.684
39375W        W11800  27.403  28.382  11.166
39376W        W11801  42.345  33.461  12.400
39377W        W11802  25.897  29.229  12.876
39378W        W11803  32.042  28.500  10.822
39379W        W11804   1.742  20.636  14.992
39380W        W11805  40.837   5.660  13.139
39381W        W11806  31.007  21.201   1.854
39382W        W11807   6.646  32.992  12.376
39383W        W11808   9.527  26.784   0.377
39384W        W11809  34.366  39.034  11.985
39385W        W11810   7.677   3.203  11.100
39386W        W11811  30.918   8.304  14.786
39387W        W11812  22.170  26.501  10.702
39388W        W11813  43.841  12.684  12.563
39389W        W11814  25.318  38.320  11.125
39390W        W11815  23.133  23.454  11.948
39391W        W11816  28.903  37.854   2.804
39392W        W11817  32.187  15.490  11.977
39393W        W11818  28.538  42.009   4.933
39394W        W11819  38.938  28.917   0.688
39395W        W11820   5.037  10.838   2.489
39396W        W11821   5.329  38.382   3.667
39397W        W11822  40.681  24.013   3.439
39398W        W11823  32.690  23.775   1.170
39399W        W11824  32.050  32.014   4.658
39400W        W11825  12.719   8.225   1.040
39401W        W11826  43.693   4.772   1.703
39402W        W11827  10.938  32.005   3.562
39403W        W11828   6.046  35.026  13.580
39404W        W11829  11.261  25.584   0.403
39405W        W11830  15.088  31.275   2.408
39406W        W11831  21.730  37.172   0.297
39407W        W11832  30.689  15.722  14.994
39408W        W11833  17.665  42.728   0.381
39409W        W11834   0.528  25.719   0.792
39410W        W11835  20.507  10.075  12.886
39411W        W11836  28.022  10.307   3.747
39412W        W11837  28.546  14.110  11.217
39413W        W11838  32.076  24.437   2.310
39414W        W11839  37.780  12.816  10.797
39415W        W11840  39.345   6.266  13.320
39416W        W11841   1.523  15.085  13.057
39417W        W11842  25.100  24.402   4.545
39418W        W11843   8.346   2.636   2.954
39419W        W11844  15.715   5.839   0.369
39420W        W11845   9.362  12.427   4.590
39421W        W11846  12.827  17.116   2.492
39422W        W11847  11.883  44.429  10.520
39423W        W11848  23.464   3.744  13.465
39424W        W11849  13.357  36.418  13.136
39425W        W11850  30.949  20.727   2.945
39426W        W11851  16.205   8.454  14.830
39427W        W11852  43.066   9.110   2.322
39428W        W11853  40.938  30.500  14.487
39429W        W11854  28.928  44.219   4.034
39430W        W11855   8.207   2.781  12.969
39431W        W11856  10.641   8.752  13.538
39432W        W11857  21.631  20.521  14.312
39433W        W11858   4.777  30.556  14.235
39434W        W11859  37.961  33.126   1.359
39435W        W11860  16.390   3.194  14.475
39436W        W11861   9.299  40.501  14.059
39437W        W11862  33.386   8.975   4.070
39438W        W11863   9.162   4.353   0.801
39439W        W11864   7.910  25.994  13.950
39440W        W11865  14.281  40.953   4.827
39441W        W11866  23.578   0.230   1.537
39442W        W11867   0.730   8.046   3.247
39443W        W11868  11.871  23.596   4.121
39444W        W11869  11.799  25.707  10.318
39445W        W11870   0.291  15.284  13.345
39446W        W11871   4.444   7.238  14.874
39447W        W11872  38.504  19.085  12.916
39448W        W11873  10.544   2.171   3.163
39449W        W11874   9.675  30.635   4.287
39450W        W11875   4.522  21.151  12.276
39451W        W11876  40.468  37.836  14.489
39452W        W11877  20.485   4.548   1.544
39453W        W11878  36.551  37.348   0.631
39454W        W11879  32.033  42.930  13.764
39455W        W11880  15.364  35.639   2.645
39456W        W11881  21.766  25.468   4.626
39457W        W11882  34.537  25.190   4.289
39458W        W11883  26.556  20.713   2.207
39459W        W11884   6.117  11.292  13.041
39460W        W11885  36.424  34.319  14.424
39461W        W11886  26.935  33.041  12.430
39462W        W11887  44.018   9.359  13.409
39463W        W11888  44.071  24.764  13.080
39464W        W11889  43.821   4.716  13.406
39465W        W11890  26.176   7.929   2.395
39466W        W11891   7.241  22.149   0.757
39467W        W11892  26.305  41.384  10.402
39468W        W11893  25.779  34.959   3.908
39469W        W11894  14.474  29.475  14.999
39470W        W11895  25.486  21.322   3.060
39471W        W11896  35.360   5.860   1.358
39472W        W11897  43.204   7.290   1.120
39473W        W11898  24.666  28.075   2.270
39474W        W11899  24.701   0.517  12.539
39475W        W11900  28.628   8.776   0.120
39476W        W11901  17.217  17.838  11.161
39477W        W11902  19.502  21.832  14.490
39478W        W11903  42.498   7.247   3.863
39479W        W11904  34.296  39.270   1.763
39480W        W11905  44.538   7.915  14.869
39481W        W11906  44.719  35.009   4.170
39482W        W11907   4.487  44.464  11.552
39483W        W11908  21.226  32.479  10.484
39484W        W11909   3.967  28.097  10.403
39485W        W11910   9.232  43.338  14.787
39486W        W11911  14.169   5.664   0.459
39487W        W11912   5.746  43.033   4.543
39488W        W11913  43.763   9.022  13.766
39489W        W11914   0.864  16.369  13.396
39490W        W11915  37.461  18.338  11.022
39491W        W11916  40.952  26.235   2.479
39492W        W11917  33.384  38.893  12.981
39493W        W11918   6.768   5.436  13.337
39494W        W11919  42.583  24.769  12.854
39495W        W11920  33.430  40.051  13.196
39496W        W11921  31.670   1.818   0.038
39497W        W11922   6.891  17.153   2.848
39498W        W11923   6.354   3.043   0.578
39499W        W11924  40.793  40.051  14.267
39500W        W11925   3.296  25.052  10.606
39501W        W11926  37.984  35.955  12.868
39502W        W11927   1.856  41.324  14.478
39503W        W11928  31.529  34.438  11.639
39504W        W11929  20.224  32.022  11.900
39505W        W11930   3.818  11.490   2.470
39506W        W11931  17.341  11.861  12.002
39507W        W11932  14.971   8.109  11.890
39508W        W11933  41.750   9.065  10.468
39509W        W11934   9.713  44.544  11.449
39510W        W11935  12.320   2.311  13.290
39511W        W11936  40.067   4.023   0.368
39512W        W11937  43.287  12.251   1.419
39513W        W11938  14.118  42.193   3.726
39514W        W11939  41.962  37.632   1.637
39515W        W11940  17.828   4.501   1.404
39516W        W11941  39.838  35.346   3.389
39517W        W11942  30.515  16.819   3.084
39518W        W11943  12.215  16.232   0.806
39519W        W11944  41.909  14.353   1.179
39520W        W11945  17.717   5.731   2.426
39521W        W11946  14.295   3.789  12.639
39522W        W11947  30.642  29.366   1.471
39523W        W11948  42.048  42.313  14.900
39524W        W11949   5.171   1.304   3.684
39525W        W11950  12.212  42.350  10.544
39526W        W11951  34.637   5.951  11.586
39527W        W11952  39.416  28.021   2.853
39528W        W11953  44.501   8.951  13.920
39529W        W11954  43.485  11.785   0.372
39530W        W11955  31.174  21.465   2.280
39531W        W11956  22.168  14.207   0.974
39532W        W11957  17.694  36.977   0.914
39533W        W11958   3.376   9.915   1.790
39534W        W11959   8.420  27.897   4.472
39535W        W11960   1.284  10.645  14.390
39536W        W11961  35.554  23.302  11.109
39537W        W11962   6.277  11.658  14.916
39538W        W11963  12.114  29.349   1.797
39539W        W11964   5.183  30.122   1.880
39540W        W11965  23.177  31.324   1.349
39541W        W11966  13.044  13.903   3.252
39542W        W11967   4.196   3.243   2.502
39543W        W11968  13.989  25.560  13.516
39544W        W11969  30.529   8.735  12.811
39545W        W11970   3.133  17.742  11.849
39546W        W11971   1.301  20.569  14.738
39547W        W11972   8.142  20.267  13.726
39548W        W11973  19.271  12.897   1.919
39549W        W11974   9.288  30.418  13.011
39550W        W11975  43.937  22.852  13.435
39551W        W11976  10.713   4.424  10.624
39552W        W11977  35.132   1.368  12.618
39553W        W11978  26.027  38.739   1.944
39554W        W11979  13.100  35.646  12.490
39555W        W11980  43.907  33.677   4.731
39556W        W11981  10.828  18.717  13.307
39557W        W11982  39.964  17.154  13.444
39558W        W11983  14.211   5.462  13.263
39559W        W11984  29.193   6.866  13.956
39560W        W11985  34.610  40.719   4.252
39561W        W11986  28.475   3.715   1.515
39562W        W11987  10.224   2.552  10.124
39563W        W11988  24.090  34.873  14.536
39564W        W11989  28.440  17.639  14.982
39565W        W11990  26.924   4.249  12.471
39566W        W11991   1.469  23.273  12.163
39567W        W11992  40.017  13.869  11.589
39568W        W11993   6.732  37.109  12.886
39569W        W11994  35.160  29.873   0.322
39570W        W11995  21.983   1.716   1.424
39571W        W11996  26.924  12.735   1.374
39572W        W11997  33.971  29.033  10.720
39573W        W11998  15.360  29.766  14.923
39574W        W11999  22.409  44.800  13.102
39575W        W12000  30.545   2.382  12.613
39576W        W12001  14.592  12.831   0.370
39577W        W12002  37.466  14.805   3.339
39578W        W12003   1.479  28.623  11.232
39579W        W12004   8.940  29.917   1.279
39580W        W12005  23.486  13.822   0.468
39581W        W12006  22.569  39.310   1.792
39582W        W12007   2.042  42.688   4.023
39583W        W12008  37.304   6.306  14.237
39584W        W12009  16.579  20.484  11.574
39585W        W12010  19.049  14.737   2.538
39586W        W12011  43.582  12.675   1.254
39587W        W12012  20.240  38.947   0.446
39588W        W12013   8.885  16.222  13.614
39589W        W12014   5.100  26.058  12.091
39590W        W12015  28.289  30.656  10.941
39591W        W12016  42.389  26.466   0.746
39592W        W12017  27.032  35.431   4.131
39593W        W12018  33.007  25.775  13.425
39594W        W12019  29.119  39.300   3.526
39595W        W12020  36.573  20.906  10.833
39596W        W12021  19.196   6.346   0.554
39597W        W12022  23.507  43.403   3.270
39598W        W12023   9.342  31.887   0.168
39599W        W12024  15.745  39.699  14.331
39600W        W12025  31.527  35.810   3.063
39601W        W12026   8.326  25.024   2.515
39602W        W12027  40.297  13.148   2.983
39603W        W12028   6.659   7.240   3.343
39604W        W12029   0.716  43.867   0.634
39605W        W12030   7.434  19.229   1.889
39606W        W12031   7.317  14.808   1.795
39607W        W12032  14.664  16.134  13.325
39608W        W12033  40.537  38.852   3.624
39609W        W12034  28.522  31.588   4.726
39610W        W12035  37.955  11.869  10.763
39611W        W12036  23.605  32.030   1.039
39612W        W12037   6.471  44.430  12.644
39613W        W12038  34.984  42.327  13.565
39614W        W12039  22.717  19.029  11.707
39615W        W12040  32.650  34.526  11.610
39616W        W12041   5.985  30.714  11.951
39617W        W12042  22.661  15.163   2.324
39618W        W12043  39.780  26.049   3.800
39619W        W12044  29.625   4.943  11.177
39620W        W12045  26.831  29.114   2.764
39621W        W12046  34.070  37.392  12.971
39622W        W12047  19.700  11.377   4.321
39623W        W12048  43.326  41.323   2.882
39624W        W12049  36.014  44.239  11.113
39625W        W12050   6.654  28.993  13.809
39626W        W12051  33.114  39.984   1.175
39627W        W12052  35.911  20.601  11.087
39628W        W12053  24.718  33.413   4.324
39629W        W12054   2.829  21.300   0.430
39630W        W12055  30.620   6.376   5.128
39631W        W12056  26.478  32.866  11.469
39632W        W12057   0.400  22.059  11.594
39633W        W12058   2.347  19.711  12.631
39634W        W12059  25.161   3.699   1.772
39635W        W12060   6.900  39.330  14.379
39636W        W12061  27.641   4.331   4.040
39637W        W12062  33.463  16.607  13.951
39638W        W12063  27.022  42.540  14.941
39639W        W12064   5.388  13.649   1.762
39640W        W12065  35.718  38.440   1.737
39641W        W12066  25.739  13.211   0.323
39642W        W12067  40.839  43.960  10.371
39643W        W12068  40.040  44.445  12.505
39644W        W12069  36.450   6.988   4.486
39645W        W12070  37.073  19.910   3.654
39646W        W12071  30.245  22.828   3.813
39647W        W12072  31.494   1.375   4.191
39648W        W12073  19.264   0.174   1.424
39649W        W12074   2.006  10.877  13.085
39650W        W12075  13.950  40.929  12.974
39651W        W12076   6.201  34.274   3.289
39652W        W12077  18.677  18.707   2.348
39653W        W12078   1.702  13.119   1.633
39654W        W12079  14.585  40.869   0.281
39655W        W12080  39.086  41.563   1.898
39656W        W12081   9.011   7.777   0.589
39657W        W12082  16.232  37.869  11.594
39658W        W12083  28.124  15.923   0.915
39659W        W12084  21.388   6.156   4.128
39660W        W12085  38.935   5.136   3.637
39661W        W12086  35.848   7.829  11.490
39662W        W12087  43.426  24.976   3.751
39663W        W12088  39.332  11.763   4.552
39664W        W12089   9.551   3.220   1.622
39665W        W12090  20.764   9.905  11.657
39666W        W12091  18.052  44.547  14.459
39667W        W12092  41.379   2.402  14.850
39668W        W12093   2.907   0.339  10.649
39669W        W12094  10.196  29.924   1.525
39670W        W12095  16.729  17.098  12.130
39671W        W12096   0.251  39.448  14.374
39672W        W12097   1.764  35.962  14.396
39673W        W12098  38.753  43.357   3.812
39674W        W12099   2.894  40.521   3.197
39675W        W12100   7.770  11.962  12.009
39676W        W12101  31.429  12.631   3.802
39677W        W12102  10.312   7.524  12.292
39678W        W12103  27.770  21.629  12.997
39679W        W12104  29.487  37.552   1.322
39680W        W12105  42.105  10.671   4.756
39681W        W12106  32.471  31.436   3.672
39682W        W12107  40.015  40.910   4.579
39683W        W12108  14.696  36.628   3.534
39684W        W12109  17.587  14.779  10.426
39685W        W12110  25.618   4.260  12.948
39686W        W12111  21.969   9.667   3.198
39687W        W12112  15.339  36.411  11.192
39688W        W12113  10.828  18.031  13.865
39689W        W12114   0.008  16.195  10.656
39690W        W12115  17.537  18.384   1.110
39691W        W12116  37.128  21.620   1.907
39692W        W12117   2.752  35.136  13.076
39693W        W12118  21.817  10.827  11.172
39694W        W12119  19.929  30.527  11.036
39695W        W12120  20.458  12.374   3.748
39696W        W12121  41.502  35.412   2.191
39697W        W12122  17.267  17.566  14.914
39698W        W12123  26.935  12.453  11.126
39699W        W12124  12.712  37.853  14.779
39700W        W12125   8.778  33.356   3.723
39701W        W12126  12.370  23.308   4.719
39702W        W12127  20.275  43.835  12.393
39703W        W12128   8.462  26.169  14.938
39704W        W12129  39.525  20.671  11.656
39705W        W12130   2.124  31.472  11.522
39706W        W12131   4.851   9.285   3.377
39707W        W12132  37.402  29.365   2.384
39708W        W12133  15.107  11.689   1.332
39709W        W12134  34.589  33.515   4.864
39710W        W12135   4.749  32.555   3.784
39711W        W12136   1.482  13.319  13.783
39712W        W12137   5.785  20.589  14.026
39713W        W12138   5.658  14.179  11.425
39714W        W12139  40.848  42.931  12.128
39715W        W12140  34.115   0.854   4.524
39716W        W12141  14.241  20.450   4.109
39717W        W12142  13.832  38.580   2.510
39718W        W12143   1.672  24.193   2.103
39719W        W12144   5.713   3.811   1.424
39720W        W12145  38.721  44.477  11.231
39721W        W12146  41.770  35.956  13.448
39722W        W12147  16.564  39.372   2.132
39723W        W12148  29.833  16.114   1.614
39724W        W12149  17.550  37.409   1.134
39725W        W12150  18.092  11.388   1.276
39726W        W12151  10.244  12.435  11.199
39727W        W12152  24.175  43.226  14.626
39728W        W12153  38.468  18.775   3.418
39729W        W12154  15.004  43.565   0.968
39730W        W12155  28.872  33.634   2.745
39731W        W12156   5.511  24.165   4.111
39732W        W12157  21.374  44.549  14.579
39733W        W12158  27.452   6.946   4.972
39734W        W12159   3.320  40.941   1.114
39735W        W12160  16.696  19.694  14.667
39736W        W12161  33.939   9.303  11.142
39737W        W12162   7.282  28.908   4.666
39738W        W12163   2.372  25.571   1.310
39739W        W12164   3.818  12.920  13.313
39740W        W12165  23.643  44.553  12.806
39741W        W12166  30.463  18.129  13.066
39742W        W12167  23.311  29.609  14.010
39743W        W12168  32.413  21.639   0.874
39744W        W12169   2.491   6.612  11.578
39745W        W12170  31.511  32.926  10.697
39746W        W12171  38.531  36.149   4.354
39747W        W12172  16.192  12.303  12.061
39748W        W12173  36.962  30.393  12.971
39749W        W12174  20.981   0.318  14.025
39750W        W12175  29.138  24.884   3.298
39751W        W12176  37.420  28.917  13.951
39752W        W12177  43.776   0.459   4.594
39753W        W12178  34.911  30.302   4.869
39754W        W12179  18.323   2.779  12.990
39755W        W12180  30.094  32.880   2.741
39756W        W12181   0.761  34.958   1.182
39757W        W12182  35.455  38.672   1.369
39758W        W12183   8.521  37.952   2.838
39759W        W12184  34.489  44.926   1.967
39760W        W12185  21.220  32.330   2.586
39761W        W12186   8.509  12.319  12.918
39762W        W12187  39.160   4.519  13.420
39763W        W12188   2.934  23.921  11.957
39764W        W12189  24.605   5.886   3.999
39765W        W12190  25.684  43.647   4.102
39766W        W12191   0.647   0.991   0.926
39767W        W12192  37.791  23.896   1.301
39768W        W12193  28.112  24.485  11.886
39769W        W12194  39.442  18.513  13.883
39770W        W12195   8.319   1.376   0.503
39771W        W12196  16.947  34.115  11.963
39772W        W12197   1.834  21.086  13.442
39773W        W12198  17.367   1.889  11.128
39774W        W12199   6.636   4.964  13.100
39775W        W12200  13.082  39.823  12.849
39776W        W12201   6.164  35.521  14.310
39777W        W12202  15.059   6.736   0.360
39778W        W12203  12.721  13.687  11.418
39779W        W12204  42.019  32.112  13.424
39780W        W12205  22.112   9.711   0.058
39781W        W12206  11.862  43.769  13.986
39782W        W12207  17.613   3.776   1.707
39783W        W12208   6.232  20.745  10.719
39784W        W12209  10.192  15.867   1.285
39785W        W12210  41.770   2.943   4.794
39786W        W12211  30.564  23.081  12.072
39787W        W12212  40.320   6.220   0.396
39788W        W12213   8.594  44.813  10.796
39789W        W12214  31.639   6.731   3.655
39790W        W12215  23.787  27.192   3.568
39791W        W12216  10.191  38.256   0.810
39792W        W12217  44.270  44.951   4.169
39793W        W12218  10.744  19.067  10.541
39794W        W12219   3.795  25.451  12.049
39795W        W12220  18.553  19.325   3.150
39796W        W12221  13.238  20.147   1.616
39797W        W12222  26.646  35.321  10.963
39798W        W12223   3.550  27.293  12.092
39799W        W12224  21.267  23.120   3.760
39800W        W12225   3.785   9.208   1.749
39801W        W12226   3.354  30.870   1.731
39802W        W12227  25.950  12.233   1.621
39803W        W12228  34.814  37.395  11.588
39804W        W12229   5.834  26.565   0.232
39805W        W12230   0.704   1.356  14.114
39806W        W12231  33.975  34.935  13.869
39807W        W12232  16.258  10.234  12.580
39808W        W12233   6.600  15.868  14.144
39809W        W12234  22.300  12.801   4.963
39810W        W12235  32.924  33.420   4.642
39811W        W12236  38.328  10.115  11.391
39812W        W12237   6.096  24.245   3.331
39813W        W12238  11.858   3.020  10.430
39814W        W12239  17.471  36.667  14.835
39815W        W12240  17.775  15.908   2.748
39816W        W12241  23.636  43.765  14.398
39817W        W12242  40.876  41.615  11.597
39818W        W12243  25.798  27.074   3.605
39819W        W12244  21.764   6.941  12.913
39820W        W12245  13.701  29.153  14.570
39821W        W12246   0.236  26.538  11.146
39822W        W12247  30.957  33.909   2.962
39823W        W12248  26.254  37.428   3.141
39824W        W12249  24.173  26.519   1.906
39825W        W12250   8.485  10.349  13.266
39826W        W12251  35.062  21.549   1.822
39827W        W12252  14.743   5.987  10.462
39828W        W12253  17.008   5.684   9.543
39829W        W12254  24.230  17.118   0.771
39830W        W12255   0.964  15.100  13.066
39831W        W12256  25.130  35.181  14.845
39832W        W12257   8.362  16.827   2.839
39833W        W12258  21.303  22.672   1.186
39834W        W12259  34.078   1.987   2.754
39835W        W12260  10.153  11.995   5.101
39836W        W12261  14.103   5.820  11.647
39837W        W12262  26.627  18.120  10.678
39838W        W12263   9.259   2.825  12.811
39839W        W12264  29.608  33.699  14.014
39840W        W12265   4.123  38.060  12.997
39841W        W12266  12.560   2.409  11.075
39842W        W12267  37.913  22.244  12.394
39843W        W12268   1.953  19.158  12.103
39844W        W12269   5.353  40.826   2.221
39845W        W12270  30.076  13.320  12.626
39846W        W12271  19.999   0.893   3.564
39847W        W12272   7.272   6.272   1.822
39848W        W12273  23.295   9.162   3.099
39849W        W12274  34.865  11.072  14.201
39850W        W12275   5.831  43.339   2.427
39851W        W12276   7.429   4.170   1.744
39852W        W12277  23.581  13.707   1.984
39853W        W12278  33.846  11.200  12.054
39854W        W12279  29.642  22.398  14.845
39855W        W12280  41.579  37.193   5.420
39856W        W12281  24.966   1.496  14.815
39857W        W12282  16.040   2.873   0.838
39858W        W12283  35.384   4.508   0.379
39859W        W12284   0.394  15.423   1.762
39860W        W12285  43.559  15.592   2.374
39861W        W12286  37.075  41.583  11.035
39862W        W12287   0.024   2.854  14.406
39863W        W12288  21.605  33.034   4.836
39864W        W12289  22.486  38.815   1.438
39865W        W12290  44.081  27.204  11.088
39866W        W12291  23.035  33.844   3.266
39867W        W12292  18.391  17.266  12.068
39868W        W12293  38.687  28.048   0.812
39869W        W12294  27.476  12.730  14.262
39870W        W12295   6.723  32.471   1.367
39871W        W12296  16.535   0.824   1.376
39872W        W12297   0.427   6.268  14.890
39873W        W12298  13.392  30.369  12.937
39874W        W12299   4.162   5.904  12.224
39875W        W12300  35.415   7.195  14.934
39876W        W12301  26.578  40.344  10.599
39877W        W12302  32.663  17.181   3.668
39878W        W12303  30.679  36.385  14.330
39879W        W12304  36.239  29.871  12.645
39880W        W12305  12.069  31.629  10.954
39881W        W12306  36.897  26.860   3.298
39882W        W12307  18.477   1.954  13.804
39883W        W12308  35.141  26.405   1.936
39884W        W12309  27.106  44.913   0.429
39885W        W12310  15.260   8.917   0.932
39886W        W12311  10.350  34.477   3.218
39887W        W12312  21.697   6.012   4.517
39888W        W12313  32.592  35.248  12.980
39889W        W12314  33.223  42.911  10.490
39890W        W12315   9.271  33.570  12.534
39891W        W12316   6.858   5.697  10.510
39892W        W12317   1.370  16.138  12.042
39893W        W12318  30.202  11.061  10.796
39894W        W12319  40.273  12.930   2.431
39895W        W12320  19.350  34.881   3.363
39896W        W12321  29.016   9.300  12.853
39897W        W12322  18.230   4.041   4.161
39898W        W12323  28.139  15.054   0.361
39899W        W12324   2.948  38.791  11.478
39900W        W12325  10.636  39.010  13.725
39901W        W12326  27.373   0.311  12.241
39902W        W12327   0.488  11.802   0.169
39903W        W12328   4.010   5.438   3.669
39904W        W12329  41.987  38.892  14.227
39905W        W12330  19.115  43.055   0.358
39906W        W12331  10.058  20.996   4.357
39907W        W12332  23.119   5.722  13.288
39908W        W12333  14.370   5.689  10.266
39909W        W12334  40.873   0.869  11.844
39910W        W12335  25.312  24.003   0.549
39911W        W12336   9.451  31.629   2.876
39912W        W12337  28.437  32.921  14.230
39913W        W12338  10.398  39.946  13.988
39914W        W12339   0.720  19.748   1.368
39915W        W12340  10.209  36.879   2.642
39916W        W12341  12.296   0.177  14.962
39917W        W12342  30.113  19.730   0.709
39918W        W12343   5.333  41.080  11.499
39919W        W12344   7.169  33.193   3.002
39920W        W12345  16.374   7.742   2.941
39921W        W12346  29.459  39.593   2.511
39922W        W12347  41.390  32.063  13.072
39923W        W12348   1.964   1.807  13.958
39924W        W12349   0.770  12.776  13.940
39925W        W12350  12.851   1.385  14.918
39926W        W12351  15.284   6.177   2.665
39927W        W12352  29.376  20.291   2.673
39928W        W12353  25.702  12.115   3.887
39929W        W12354  36.287  15.654  12.541
39930W        W12355  41.834   2.160  14.903
39931W        W12356  26.445  19.826   2.878
39932W        W12357   3.555  31.869   0.222
39933W        W12358  38.435  37.525  10.737
39934W        W12359  12.417   6.403   1.343
39935W        W12360  36.517  36.390   4.934
39936W        W12361   2.896  36.279   0.796
39937W        W12362  41.827  38.904  11.544
39938W        W12363   2.014  35.151   2.774
39939W        W12364  44.516   8.902   4.182
39940W        W12365  20.513  33.086  13.854
39941W        W12366  33.174  27.113  14.860
39942W        W12367  17.278  29.967   4.740
39943W        W12368  41.097  40.511  12.078
39944W        W12369  27.710  28.064   2.717
39945W        W12370  30.831   6.411   1.817
39946W        W12371  33.222  17.637   5.207
39947W        W12372  32.791  13.388   2.201
39948W        W12373  18.694   8.125  13.446
39949W        W12374  38.955  37.193  14.238
39950W        W12375  33.808   6.495  14.310
39951W        W12376  14.878   1.330   0.881
39952W        W12377  19.137  10.322   2.508
39953W        W12378   8.881  14.060   2.946
39954W        W12379  20.486  19.454  12.370
39955W        W12380  27.119  18.747   2.642
39956W        W12381   9.322   1.151  11.964
39957W        W12382  41.769  12.883  10.268
39958W        W12383   9.227  11.929   3.745
39959W        W12384  28.025   9.476   2.262
39960W        W12385  27.429  18.123   1.302
39961W        W12386  39.460  11.712   1.351
39962W        W12387  31.112  27.328  13.100
39963W        W12388  41.100  34.953   4.531
39964W        W12389  10.813  15.557   3.799
39965W        W12390  11.698  40.397   4.425
39966W        W12391  42.511  24.246   3.338
39967W        W12392  10.802  16.783  14.484
39968W        W12393  43.464  33.743  12.128
39969W        W12394  43.280  37.861   2.924
39970W        W12395  25.981   2.363   1.123
39971W        W12396  25.275  41.370   2.238
39972W        W12397  15.430  12.603   1.369
39973W        W12398   5.692  15.102   4.275
39974W        W12399  12.573  27.785   0.426
39975W        W12400  34.488  15.221  12.601
39976W        W12401  28.052  31.430   2.976
39977W        W12402  28.469  44.072  10.552
39978W        W12403  35.593   6.902  14.564
39979W        W12404  13.938  28.583   1.906
39980W        W12405  19.449  19.943  14.895
39981W        W12406  16.542  41.508  12.416
39982W        W12407  40.610   5.818   2.145
39983W        W12408  19.719  22.167  13.950
39984W        W12409  40.508  21.013   1.785
39985W        W12410  26.931  14.386  14.049
39986W        W12411  35.542   7.975  14.449
39987W        W12412   2.698  41.041   3.277
39988W        W12413  11.809   4.970  13.341
39989W        W12414   3.929   7.441   4.203
39990W        W12415  42.041  40.748   2.302
39991W        W12416  43.880  40.569   2.814
39992W        W12417  15.227   4.633   3.120
39993W        W12418  16.626  40.850  12.110
39994W        W12419  13.250  34.540  10.628
39995W        W12420  22.453  34.104   4.069
39996W        W12421  12.287   4.020   1.830
39997W        W12422  34.402  42.723   4.375
39998W        W12423   2.366  38.016   4.008
39999W        W12424  38.477  44.705  10.194
40000W        W12425  30.084  17.104  14.470
40001W        W12426  21.686  29.993   3.242
40002W        W12427   5.927  22.581  14.196
40003W        W12428  16.556   3.022   5.889
40004W        W12429  39.879   5.920  10.684
40005W        W12430   3.866   2.645   4.871
40006W        W12431  40.279   8.667   0.887
40007W        W12432   2.220  21.574   3.725
40008W        W12433   9.961  12.118   1.780
40009W        W12434  37.539  29.933   0.579
40010W        W12435  27.066  40.378  11.951
40011W        W12436  13.265  21.170  12.806
40012W        W12437  30.987  12.392   3.674
40013W        W12438  20.215   8.531   3.792
40014W        W12439  18.263  19.154   1.412
40015W        W12440  15.537  44.604   2.721
40016W        W12441  36.332  15.809  11.268
40017W        W12442  40.378  22.115  12.589
40018W        W12443  17.448   7.766   4.763
40019W        W12444  40.989  14.078   0.775
40020W        W12445   0.408  40.949  14.937
40021W        W12446   6.795  29.166   3.567
40022W        W12447  25.242  41.940   0.740
40023W        W12448  11.654   3.558  12.194
40024W        W12449  26.473  11.390   1.291
40025W        W12450  40.948  37.728  12.901
40026W        W12451   2.639  33.171  12.983
40027W        W12452  16.070  29.913  13.531
40028W        W12453  13.084   8.965  11.040
40029W        W12454  11.125  23.868   1.351
40030W        W12455  19.329  25.435   0.907
40031W        W12456  25.448  43.479  12.808
40032W        W12457  34.986  27.106  10.959
40033W        W12458  10.785  19.444   4.064
40034W        W12459  32.201  40.509   5.090
40035W        W12460   4.899  41.366  13.045
40036W        W12461  36.619   7.865   1.366
40037W        W12462  12.831  24.705   9.705
40038W        W12463  15.175  44.698   3.108
40039W        W12464  15.242  42.116   4.234
40040W        W12465   5.747  13.208   2.959
40041W        W12466  21.448  37.551   4.205
40042W        W12467  12.382  14.046  13.162
40043W        W12468  12.150  10.912  13.386
40044W        W12469  25.585  40.917  10.609
40045W        W12470   4.094  19.615   1.969
40046W        W12471  29.059  43.508   3.340
40047W        W12472  44.507  24.793   4.090
40048W        W12473  34.939  30.592   0.923
40049W        W12474  25.049  29.597  10.759
40050W        W12475   5.577  14.763   2.129
40051W        W12476  21.546   8.694   1.793
40052W        W12477   0.384  11.548   0.655
40053W        W12478  36.022  33.343  14.447
40054W        W12479   1.086  17.697   1.938
40055W        W12480  21.568   0.251  13.991
40056W        W12481  25.954   1.763   4.508
40057W        W12482  27.244  31.348  11.733
40058W        W12483   6.660  18.078   3.194
40059W        W12484  21.629  21.142   4.489
40060W        W12485   1.929   1.227  11.068
40061W        W12486  27.494  30.739   2.637
40062W        W12487   6.322  17.674  13.781
40063W        W12488  42.534  37.895   0.858
40064W        W12489  28.203   5.593  14.960
40065W        W12490  31.072  23.751  12.465
40066W        W12491  18.234   6.354   0.420
40067W        W12492   3.886  21.610  11.557
40068W        W12493  36.053  13.325  14.572
40069W        W12494  36.613  25.181   0.306
40070W        W12495  38.573   7.347   4.227
40071W        W12496  19.020  10.896   3.220
40072W        W12497  25.707  10.433   2.862
40073W        W12498   8.252  38.592   0.155
40074W        W12499  11.159   8.737  14.703
40075W        W12500   2.763  43.283  12.853
40076W        W12501   2.752  18.227   3.803
40077W        W12502  14.346  25.942   0.872
40078W        W12503  43.313  17.703  13.166
40079W        W12504  25.489  15.125   3.276
40080W        W12505  17.599   5.992   3.812
40081W        W12506  12.776  21.115   1.842
40082W        W12507  32.115  20.675  13.411
40083W        W12508  28.117  25.643   2.188
40084W        W12509  14.207   4.285  12.923
40085W        W12510  18.540   4.081  14.917
40086W        W12511   9.329  27.266  13.091
40087W        W12512   5.442  22.118  12.762
40088W        W12513  31.770  39.087  13.593
40089W        W12514  28.401  29.974   5.100
40090W        W12515  23.561  11.642   1.336
40091W        W12516   2.030  12.607   4.191
40092W        W12517  34.603  10.669  14.488
40093W        W12518  36.806  36.924   1.311
40094W        W12519  16.773  31.169  12.067
40095W        W12520  24.545  40.015   4.887
40096W        W12521  33.481  35.061  13.905
40097W        W12522   2.641  27.177   4.208
40098W        W12523   3.284   1.827  13.502
40099W        W12524   0.397   1.138   1.370
40100W        W12525  16.810  23.265   0.926
40101W        W12526  41.112  25.937   2.865
40102W        W12527  40.406  35.332   0.164
40103W        W12528   9.758  12.264   4.294
40104W        W12529   6.503   9.956   1.444
40105W        W12530  19.983  36.932  12.555
40106W        W12531   1.077  27.683   5.071
40107W        W12532  33.955  29.531  10.958
40108W        W12533  28.638  20.831  12.435
40109W        W12534  15.727   1.427   1.384
40110W        W12535  41.557  34.459   1.784
40111W        W12536   0.499   6.275   4.721
40112W        W12537  19.777  37.129   1.873
40113W        W12538  15.640  42.081   4.863
40114W        W12539  33.466  38.549   1.274
40115W        W12540  12.302  16.969  12.928
40116W        W12541  16.287  26.929   2.819
40117W        W12542  19.721  19.897   0.335
40118W        W12543  24.206  37.061   4.138
40119W        W12544   6.911   8.228  12.181
40120W        W12545  22.095  17.468  12.109
40121W        W12546  36.491  16.371   3.181
40122W        W12547  25.586  28.046  12.569
40123W        W12548  20.213  15.033   1.821
40124W        W12549  12.467  10.805  11.737
40125W        W12550  41.100  35.799   3.618
40126W        W12551   7.720  26.349  10.741
40127W        W12552   5.308   7.770   1.226
40128W        W12553  35.321  30.909  10.975
40129W        W12554  14.567  17.564  10.750
40130W        W12555  35.087  35.276   1.323
40131W        W12556   0.680  37.556  12.155
40132W        W12557  14.632   2.793   1.454
40133W        W12558   8.619   1.393  11.630
40134W        W12559  29.478  17.370   4.439
40135W        W12560  32.927   8.683  14.829
40136W        W12561  43.796  36.700   0.651
40137W        W12562  44.255  43.797   4.135
40138W        W12563  15.795  40.734  14.344
40139W        W12564  33.148  28.653   0.918
40140W        W12565  11.276  44.278  14.934
40141W        W12566   2.926  30.878   4.273
40142W        W12567  22.264  43.055   4.737
40143W        W12568  40.732  42.722   5.100
40144W        W12569  23.131   1.986   3.710
40145W        W12570  22.723  26.683   4.215
40146W        W12571  38.063   3.098  10.946
40147W        W12572   7.198  27.954  12.003
40148W        W12573  19.128  25.606   1.898
40149W        W12574  36.601   9.733  14.312
40150W        W12575  41.395  12.221   2.402
40151W        W12576  36.481   2.043   5.038
40152W        W12577  27.294  13.224   4.594
40153W        W12578  40.181  37.349  14.036
40154W        W12579  11.434  36.136  13.151
40155W        W12580   1.361  33.432   2.234
40156W        W12581   3.347  25.131  14.728
40157W        W12582   1.303   2.511   0.268
40158W        W12583  37.943   0.458  11.016
40159W        W12584  26.216  34.874  13.077
40160W        W12585  32.105  27.708  10.251
40161W        W12586  22.756  43.533  12.887
40162W        W12587  28.153   5.893   4.608
40163W        W12588  31.711  35.370  11.570
40164W        W12589   4.170   5.426  12.415
40165W        W12590  35.254  17.144   1.081
40166W        W12591  29.427  43.020   2.874
40167W        W12592  32.449  34.344   0.957
40168W        W12593  11.930  23.661  10.224
40169W        W12594  23.046  14.876   2.774
40170W        W12595  17.529   7.913   0.784
40171W        W12596  25.454  12.848   2.406
40172W        W12597  23.752   0.897  10.655
40173W        W12598  32.617  20.062   4.162
40174W        W12599  27.951  37.363   3.818
40175W        W12600  22.909  37.502   0.894
40176W        W12601   9.288  31.937   1.632
40177W        W12602  17.549   1.973   2.351
40178W        W12603  32.361  12.213  10.828
40179W        W12604  19.560  30.084  14.485
40180W        W12605  32.190  16.235   4.566
40181W        W12606   6.669  44.935  12.495
40182W        W12607  13.542  14.706   0.878
40183W        W12608   3.349  29.615   3.598
40184W        W12609  24.029  27.391   0.304
40185W        W12610  16.270  34.154  10.350
40186W        W12611  30.548  41.612  12.835
40187W        W12612   1.690  20.112  12.065
40188W        W12613  38.975  34.291  13.025
40189W        W12614  30.869  33.717  12.994
40190W        W12615   5.232  29.425  13.436
40191W        W12616   6.406  34.064   0.334
40192W        W12617  11.713  10.822   1.354
40193W        W12618   1.027   1.721  10.984
40194W        W12619  18.058   9.866  14.021
40195W        W12620  27.164  19.684   0.964
40196W        W12621  41.914   3.588  14.686
40197W        W12622  24.714  27.213   0.803
40198W        W12623  33.906   2.709   0.825
40199W        W12624  18.528  19.587   0.704
40200W        W12625  40.579  22.051  13.374
40201W        W12626  44.946  32.035   2.696
40202W        W12627  33.884   4.830   1.997
40203W        W12628  36.226  36.245   1.851
40204W        W12629   4.519  20.345  11.653
40205W        W12630   5.681  14.303   3.742
40206W        W12631   3.331  44.325   4.652
40207W        W12632  13.249   5.835   2.430
40208W        W12633  12.237   7.666  10.466
40209W        W12634  40.509  11.105   2.673
40210W        W12635   2.729  41.813  11.121
40211W        W12636  28.586  38.886  14.452
40212W        W12637  33.070  19.169   4.863
40213W        W12638  17.196  12.822  11.138
40214W        W12639  26.753  22.496   2.249
40215W        W12640   7.840  41.529   1.225
40216W        W12641  38.610  20.163   2.773
40217W        W12642  40.246  26.958   1.461
40218W        W12643   0.625  30.436  14.873
40219W        W12644  42.760  13.530  12.119
40220W        W12645  25.931  26.109   4.239
40221W        W12646   8.889  14.300   4.222
40222W        W12647  30.939   1.627   4.759
40223W        W12648  22.196  43.255  10.374
40224W        W12649  14.836  42.636  13.421
40225W        W12650  11.623  42.275   0.323
40226W        W12651   9.238  35.447   5.138
40227W        W12652  24.110  25.445   0.900
40228W        W12653  33.518   0.053   2.157
40229W        W12654  31.537   4.629   2.226
40230W        W12655  31.453  29.366  11.565
40231W        W12656  37.180  18.242   2.368
40232W        W12657  21.196  21.954  13.880
40233W        W12658  35.449  14.211   3.205
40234W        W12659  43.964  40.273  12.114
40235W        W12660   5.560  35.415  12.874
40236W        W12661   4.285   6.129   3.192
40237W        W12662  27.750   8.449  13.477
40238W        W12663   1.614  16.689  11.122
40239W        W12664  26.881  37.907   2.685
40240W        W12665  35.800  36.351   4.565
40241W        W12666  39.861  12.241  13.498
40242W        W12667  36.039   1.566   3.614
40243W        W12668  15.674   8.806   0.316
40244W        W12669  35.086  42.828  13.379
40245W        W12670  28.627  26.714  11.445
40246W        W12671  22.026   9.734   0.585
40247W        W12672  38.614  17.908  11.365
40248W        W12673  17.546  19.591  12.988
40249W        W12674  31.408  37.166  13.951
40250W        W12675  35.865  17.023  10.755
40251W        W12676  19.170  39.128   4.199
40252W        W12677  22.256  36.049   1.783
40253W        W12678   8.351  42.749  14.712
40254W        W12679   4.824  41.268   1.339
40255W        W12680  44.681  31.775   3.185
40256W        W12681   2.328  22.191   1.841
40257W        W12682  11.280  24.719   1.320
40258W        W12683  36.809  44.378   0.123
40259W        W12684  10.911  23.241  10.982
40260W        W12685  33.128  38.915   2.993
40261W        W12686  16.900  38.481   0.375
40262W        W12687   7.199  29.702  11.486
40263W        W12688  43.814  27.243   0.944
40264W        W12689  20.609  38.800   1.347
40265W        W12690  20.708  30.502  14.735
40266W        W12691  36.118  25.102  13.421
40267W        W12692   3.749  24.507  12.078
40268W        W12693  31.008   6.790   1.513
40269W        W12694   8.735  41.305   1.780
40270W        W12695   5.356  32.978  13.097
40271W        W12696  11.164  10.662   3.186
40272W        W12697  30.932  19.642   1.964
40273W        W12698  10.571  18.127   1.942
40274W        W12699  30.518  38.520   4.764
40275W        W12700  15.603   8.612   3.656
40276W        W12701  32.470  42.537  13.802
40277W        W12702  30.622  27.041   1.668
40278W        W12703   5.181  40.013   0.481
40279W        W12704   4.593  42.764   4.214
40280W        W12705  43.803  36.491   1.950
40281W        W12706  36.484  13.633  11.735
40282W        W12707  38.057  43.752   2.311
40283W        W12708  33.671  26.568   3.195
40284W        W12709  16.695  30.432   1.435
40285W        W12710  26.115  30.628   2.369
40286W        W12711  32.901  42.285   3.305
40287W        W12712   5.247   7.313  10.392
40288W        W12713  33.878  38.989  11.100
40289W        W12714  13.911   4.418   4.571
40290W        W12715  34.782  29.548   0.066
40291W        W12716  38.084  13.581   3.325
40292W        W12717  15.359  18.087  14.941
40293W        W12718  27.451  42.006   3.800
40294W        W12719  23.478  22.179  12.411
40295W        W12720  11.743  16.271  13.047
40296W        W12721  22.292  24.246   2.744
40297W        W12722  41.075  29.170  12.495
40298W        W12723  32.504   9.371   3.605
40299W        W12724  10.722   2.509   1.204
40300W        W12725  33.577  19.777  14.337
40301W        W12726   3.555  26.297   0.993
40302W        W12727  18.669  16.116  13.397
40303W        W12728   1.924   5.903  10.688
40304W        W12729   6.776  40.690   4.913
40305W        W12730  18.214  17.762  12.112
40306W        W12731  43.069  30.115   2.859
40307W        W12732   7.202  34.976  12.890
40308W        W12733   4.816   1.741   2.399
40309W        W12734  39.495   3.857  12.121
40310W        W12735  33.163  18.159  14.735
40311W        W12736  42.408  16.370   1.408
40312W        W12737  24.208  40.455   1.293
40313W        W12738   2.452  43.500   0.372
40314W        W12739   7.271   3.526  11.089
40315W        W12740  24.221   0.002  14.349
40316W        W12741  41.244   2.001   1.705
40317W        W12742  33.120  40.237   1.672
40318W        W12743  36.422   8.661  10.780
40319W        W12744  27.676  24.154  13.357
40320W        W12745  32.972  23.515  12.982
40321W        W12746  32.434   4.468   2.698
40322W        W12747  28.687  41.908   4.423
40323W        W12748  20.432  35.672   0.658
40324W        W12749  37.615   9.909  11.730
40325W        W12750   9.208  25.000  12.391
40326W        W12751  17.306  36.698   0.661
40327W        W12752  22.118  25.643  12.603
40328W        W12753  22.685   1.958  13.500
40329W        W12754   8.628  19.292   1.402
40330W        W12755  23.992  35.937  13.577
40331W        W12756   4.403  19.174   3.875
40332W        W12757  25.227  30.131   4.748
40333W        W12758   2.767  30.559  12.179
40334W        W12759  21.105  16.427   3.235
40335W        W12760  19.626  26.055  12.615
40336W        W12761   5.250  23.098  14.527
40337W        W12762  21.088  29.528  10.539
40338W        W12763  25.013  26.113   4.675
40339W        W12764  10.063  35.304   2.263
40340W        W12765  39.419  27.241   0.314
40341W        W12766   3.981  42.315   2.627
40342W        W12767  21.264  17.459   0.332
40343W        W12768  10.241  25.908  13.010
40344W        W12769  15.112  32.068   3.859
40345W        W12770  12.076   7.727  13.392
40346W        W12771  44.531  27.491   1.817
40347W        W12772  25.667  38.036   2.375
40348W        W12773  42.330  31.365   1.029
40349W        W12774  25.513  18.097   3.349
40350W        W12775  44.278  18.062   2.873
40351W        W12776   8.181  34.520   0.231
40352W        W12777  15.330  37.525  13.575
40353W        W12778  20.381  21.736  11.976
40354W        W12779  22.471   9.301   2.722
40355W        W12780  13.589   4.752  10.870
40356W        W12781  22.940  32.165  14.649
40357W        W12782  44.407   5.232   4.052
40358W        W12783  43.647  21.549   4.602
40359W        W12784  14.305   9.602   2.801
40360W        W12785  43.763   9.197   1.767
40361W        W12786   7.997  34.848   5.354
40362W        W12787  31.180   6.283   0.876
40363W        W12788  33.406  28.936   3.571
40364W        W12789  15.126   8.591  10.997
40365W        W12790  39.441  27.689  14.390
40366W        W12791  14.086  44.004  10.733
40367W        W12792  36.281  38.120  12.677
40368W        W12793  13.069  22.681  11.896
40369W        W12794  16.592  24.019  10.625
40370W        W12795  17.554  24.810  12.900
40371W        W12796   8.614  20.462   4.562
40372W        W12797  18.466  11.658   4.936
40373W        W12798  23.106  43.480   1.643
40374W        W12799  16.021  34.703   1.866
40375W        W12800  36.321   4.301   2.812
40376W        W12801  38.636  11.079  14.586
40377W        W12802  29.555  29.159  10.726
40378W        W12803  42.052  26.898  12.108
40379W        W12804   9.444  31.575   4.605
40380W        W12805  25.561  39.530  10.736
40381W        W12806  26.576  20.965  13.876
40382W        W12807  20.047  27.920  10.528
40383W        W12808  14.232  12.377   2.019
40384W        W12809   2.220   6.811   4.651
40385W        W12810  22.703  15.205  14.064
40386W        W12811  34.487  25.343  12.519
40387W        W12812  22.099  18.376   0.956
40388W        W12813   5.836   2.638   2.675
40389W        W12814  43.023  14.055   3.140
40390W        W12815   0.736  19.748  14.779
40391W        W12816  30.391  35.864   1.145
40392W        W12817  24.671   9.108  12.440
40393W        W12818   4.741   5.856   3.734
40394W        W12819  33.449  21.180   4.325
40395W        W12820  37.496  15.829  12.345
40396W        W12821  27.527  33.629   2.362
40397W        W12822  30.159   4.768  11.491
40398W        W12823  26.447  15.590   0.612
40399W        W12824  13.745  19.731   4.599
40400W        W12825  32.503  18.685  14.270
40401W        W12826  42.807   1.751   2.295
40402W        W12827   6.200  42.322  13.899
40403W        W12828  11.730   0.304   0.769
40404W        W12829  28.823  30.498  10.813
40405W        W12830   2.426  43.607  12.569
40406W        W12831   6.301  16.142   0.877
40407W        W12832  17.575   7.960   1.807
40408W        W12833  19.283   0.292  14.549
40409W        W12834  18.061  13.335   1.524
40410W        W12835  21.081  19.774  13.089
40411W        W12836  31.759  15.279  12.277
40412W        W12837  11.742  36.593   1.770
40413W        W12838  25.974  17.508  12.628
40414W        W12839  34.143  37.409  12.077
40415W        W12840   5.979   6.824  10.593
40416W        W12841  14.278   4.621  13.824
40417W        W12842   4.569  41.557  11.024
40418W        W12843  31.401  42.306   1.218
40419W        W12844   1.703  24.017  13.430
40420W        W12845   9.288  25.514  12.399
40421W        W12846  21.567  40.459  11.924
40422W        W12847  29.870  10.963  14.424
40423W        W12848   3.321  18.794  11.461
40424W        W12849  14.780  15.733  10.165
40425W        W12850  44.252  24.449   3.627
40426W        W12851  37.638  13.391   3.519
40427W        W12852   9.724  41.540   3.115
40428W        W12853  42.963  38.513  13.353
40429W        W12854  36.037  11.526  12.005
40430W        W12855   5.359  42.357   4.125
40431W        W12856  33.577  10.627   3.527
40432W        W12857   9.413  22.645   3.263
40433W        W12858   2.378  29.452   2.760
40434W        W12859  28.382   6.104   2.182
40435W        W12860  24.059   8.314  11.487
40436W        W12861   1.426   0.885   0.793
40437W        W12862   1.900  35.384   4.815
40438W        W12863  32.553   4.751  12.915
40439W        W12864  30.022  28.918   1.440
40440W        W12865  27.593  21.434   0.895
40441W        W12866  30.413   1.774   2.630
40442W        W12867   2.697   8.069  14.770
40443W        W12868  33.789  13.045  11.031
40444W        W12869  17.706   0.562   3.819
40445W        W12870  29.895  26.153   1.437
40446W        W12871  42.012   9.572   1.644
40447W        W12872  19.762  36.276  14.367
40448W        W12873   1.619  24.044   4.158
40449W        W12874   2.029   4.793   3.141
40450W        W12875  26.604  22.396  10.990
40451W        W12876  40.259  37.612   3.088
40452W        W12877   9.730  10.871  12.443
40453W        W12878  10.106  10.890   0.770
40454W        W12879   4.389  21.325   4.872
40455W        W12880  35.415  17.767   3.577
40456W        W12881  36.357  31.375   0.360
40457W        W12882  36.922  20.045   2.577
40458W        W12883  20.817  26.234   2.006
40459W        W12884   6.066  36.468   4.627
40460W        W12885   7.500   3.329  12.590
40461W        W12886   8.707  21.333   3.347
40462W        W12887  10.314  31.342  12.888
40463W        W12888   7.195  26.506  10.750
40464W        W12889  21.407   1.721  11.093
40465W        W12890   4.929  21.139   4.097
40466W        W12891   5.502  31.380  10.918
40467W        W12892  27.281  22.469   4.126
40468W        W12893  33.138   6.356  13.307
40469W        W12894   1.839  32.009   3.206
40470W        W12895   4.045  17.272  14.950
40471W        W12896   3.373  39.950   4.322
40472W        W12897  11.770  30.113  12.392
40473W        W12898  42.391  43.718   4.375
40474W        W12899  31.864  19.576  10.656
40475W        W12900  43.129  38.421   1.308
40476W        W12901  10.131  44.082  14.444
40477W        W12902   5.756  33.050  10.557
40478W        W12903  44.260   9.128  10.103
40479W        W12904  11.759  31.334   1.894
40480W        W12905  11.643   8.692   4.552
40481W        W12906   5.898  29.926  10.746
40482W        W12907   2.212  21.612   4.588
40483W        W12908  26.455   9.301  13.879
40484W        W12909  11.368  15.792  14.264
40485W        W12910  17.228  15.113  12.667
40486W        W12911  38.482  38.557  12.493
40487W        W12912  11.560  28.743   0.727
40488W        W12913  10.802  24.760   3.925
40489W        W12914  13.199  33.773   0.330
40490W        W12915  36.232   6.261  14.356
40491W        W12916  15.963  31.163  11.609
40492W        W12917  34.068   4.773   3.526
40493W        W12918   5.342   8.932   2.746
40494W        W12919  26.567  37.939   4.728
40495W        W12920  16.096  40.776  10.696
40496W        W12921  20.262   3.491   3.229
40497W        W12922  31.920   2.941   1.223
40498W        W12923  15.241   1.169   0.045
40499W        W12924  39.427  35.432  11.632
40500W        W12925  39.827   7.553   0.822
40501W        W12926   5.083  38.858   1.254
40502W        W12927  13.549  14.666  12.522
40503W        W12928  11.198  38.297  12.050
40504W        W12929  30.921  20.697   1.954
40505W        W12930   8.387  17.598   0.862
40506W        W12931  13.759  35.473   4.171
40507W        W12932  35.495  41.959   1.463
40508W        W12933  44.409  11.075   3.914
40509W        W12934  14.839  30.100  14.560
40510W        W12935   9.724   9.852  12.147
40511W        W12936  35.677  18.231   3.262
40512W        W12937  41.455  33.860  11.627
40513W        W12938  10.808  11.914  13.278
40514W        W12939  17.715  30.618   2.313
40515W        W12940  39.447  18.514   1.837
40516W        W12941  16.566  37.567   0.750
40517W        W12942  22.818   5.796  12.885
40518W        W12943  17.600  32.916  11.173
40519W        W12944  22.658  14.751  11.423
40520W        W12945  25.207  36.996   3.711
40521W        W12946  35.817  22.795   3.754
40522W        W12947   8.644  26.610   0.737
40523W        W12948  23.555  23.311   0.375
40524W        W12949  29.587  41.859   0.532
40525W        W12950  21.583  40.377  10.662
40526W        W12951  20.688  25.581  14.827
40527W        W12952  14.256   4.441   1.001
40528W        W12953  10.887  22.472  11.867
40529W        W12954   9.457   4.731   4.048
40530W        W12955  17.685   1.019  10.139
40531W        W12956   1.264  25.679  14.800
40532W        W12957  12.791   6.997  12.192
40533W        W12958  35.955  26.204   0.859
40534W        W12959  44.706   3.295   3.235
40535W        W12960   5.738   7.376   2.912
40536W        W12961   0.370  28.217  12.013
40537W        W12962   8.773   2.414  11.951
40538W        W12963  21.698  19.792   1.361
40539W        W12964  20.329   0.762   4.216
40540W        W12965  36.504  44.306   2.015
40541W        W12966  37.118  28.177   0.872
40542W        W12967   5.166  15.755   4.620
40543W        W12968  31.994  26.837  14.794
40544W        W12969  44.347  15.217   3.632
40545W        W12970  44.396  27.678   2.282
40546W        W12971   5.266  14.371  12.564
40547W        W12972  25.760  32.636   2.912
40548W        W12973  27.099  28.235   1.188
40549W        W12974  23.008  44.468   4.868
40550W        W12975  18.740  38.304   1.986
40551W        W12976  26.442  14.931   1.267
40552W        W12977  29.561   8.589  10.229
40553W        W12978  34.415  30.199   4.221
40554W        W12979  19.029   4.336  14.234
40555W        W12980  14.893  37.989   5.156
40556W        W12981  22.635  16.054  11.148
40557W        W12982  30.867  38.402   3.512
40558W        W12983  10.779  21.662  11.148
40559W        W12984  29.567  18.769   1.434
40560W        W12985  14.061  27.878  11.077
40561W        W12986  33.475  18.522   3.609
40562W        W12987  21.206  29.929  10.883
40563W        W12988  41.955  18.138   1.963
40564W        W12989  29.914  31.347  10.882
40565W        W12990  13.855  40.075  11.701
40566W        W12991  22.448  44.387  11.584
40567W        W12992  32.563  15.838  14.450
40568W        W12993  33.952  15.709   0.791
40569W        W12994  39.233  17.088  12.639
40570W        W12995  13.289  10.418  12.401
40571W        W12996  44.990  16.370  14.423
40572W        W12997  44.509  44.382   2.294
40573W        W12998  19.687  14.063  12.553
40574W        W12999  32.899  38.714  13.118
40575W        W13000  31.939  19.248   3.698
40576W        W13001  25.230  42.459   1.853
40577W        W13002   8.245   0.760  14.340
40578W        W13003   6.780  17.376  14.667
40579W        W13004  18.238  10.063   0.739
40580W        W13005   4.286  16.743   3.625
40581W        W13006  35.341  15.177  14.164
40582W        W13007  12.289  22.353  14.522
40583W        W13008   5.652   7.830  11.539
40584W        W13009  40.383  15.793   2.299
40585W        W13010  20.297  37.682  13.760
40586W        W13011  25.237   5.791  13.483
40587W        W13012  39.913  14.242   1.917
40588W        W13013  16.044  18.066   4.563
40589W        W13014   2.620  37.814  11.639
40590W        W13015  25.962   8.408  11.138
40591W        W13016  39.288  11.167   0.275
40592W        W13017  38.432  30.278   2.079
40593W        W13018  26.091  36.929  14.379
40594W        W13019   8.207  27.004   4.114
40595W        W13020  31.653   7.395   4.143
40596W        W13021  28.649  18.637   1.457
40597W        W13022   2.340  42.225  11.099
40598W        W13023  16.792  28.614  10.469
40599W        W13024  36.385  40.077   1.266
40600W        W13025  26.527   2.239   3.329
40601W        W13026  21.958   5.661  11.155
40602W        W13027  28.073  27.751  12.602
40603W        W13028  14.094  29.019   2.823
40604W        W13029  14.671   6.258  13.966
40605W        W13030  32.969   9.218   3.414
40606W        W13031   0.234  16.303   2.013
40607W        W13032  40.902  20.115   1.840
40608W        W13033  43.486  44.255   0.672
40609W        W13034  33.590  12.016  10.902
40610W        W13035  36.502   6.200  13.901
40611W        W13036  13.246  25.961  13.571
40612W        W13037  27.540  26.503   3.730
40613W        W13038  33.727  35.519  11.726
40614W        W13039   7.161  29.980   4.607
40615W        W13040  18.781  24.757   4.185
40616W        W13041  38.370  24.651  14.818
40617W        W13042   2.886  42.393  12.387
40618W        W13043  28.270  25.458  12.119
40619W        W13044  11.567   1.917   3.125
40620W        W13045   5.145  35.171  12.047
40621W        W13046  32.528  28.009  11.390
40622W        W13047  24.142  27.462   2.055
40623W        W13048   8.554   5.727   3.372
40624W        W13049  20.719  24.639  13.902
40625W        W13050   1.376  19.778  14.090
40626W        W13051  41.461  18.355   1.983
40627W        W13052   9.407   9.618  13.534
40628W        W13053  22.616  34.404  14.922
40629W        W13054  18.785  39.936   1.142
40630W        W13055  31.159  29.042   3.725
40631W        W13056  20.969  16.732  12.853
40632W        W13057  23.835   7.282   3.043
40633W        W13058  43.437  13.791  11.527
40634W        W13059   3.517  34.954   4.187
40635W        W13060   2.239  35.867   2.359
40636W        W13061  34.992  26.310   0.831
40637W        W13062  17.549  28.677  11.867
40638W        W13063  22.057  43.688  13.685
40639W        W13064  16.766  18.997  12.914
40640W        W13065  26.415  44.581   0.352
40641W        W13066  44.409  30.064  13.070
40642W        W13067  22.464  40.319  11.074
40643W        W13068  13.213   6.847  11.934
40644W        W13069  23.410   2.278  13.352
40645W        W13070  44.426  13.213   2.819
40646W        W13071  19.553  23.616   0.577
40647W        W13072  37.017  13.839   4.085
40648W        W13073   2.669  28.951   4.131
40649W        W13074  10.822  10.886  13.250
40650W        W13075  25.575   7.134  13.398
40651W        W13076  29.764  34.374  12.443
40652W        W13077  18.593  25.854  11.436
40653W        W13078  10.855   4.878   1.220
40654W        W13079  18.956  13.342  14.375
40655W        W13080  12.897  15.347   4.287
40656W        W13081  25.032  32.863  11.108
40657W        W13082  13.619  24.765   4.600
40658W        W13083  39.580   2.886   3.776
40659W        W13084  19.500   3.724   4.598
40660W        W13085  24.968  28.430  12.014
40661W        W13086  23.615   3.869   3.690
40662W        W13087  16.861  11.910   1.180
40663W        W13088   8.256  39.750   1.535
40664W        W13089  12.187   4.728   4.408
40665W        W13090  29.899  40.337   2.968
40666W        W13091  29.809  13.321   2.129
40667W        W13092  33.830  36.002  14.016
40668W        W13093   8.133  23.178  14.555
40669W        W13094  34.514  38.696  13.959
40670W        W13095   4.219  39.392  13.619
40671W        W13096   0.028  10.669   3.245
40672W        W13097   2.479   6.638  12.938
40673W        W13098  24.573  27.719   1.814
40674W        W13099  24.378  36.634  12.861
40675W        W13100  24.800  19.196  12.111
40676W        W13101  16.979  21.574  10.549
40677W        W13102   3.413  33.896   0.714
40678W        W13103  32.380  36.750  13.793
40679W        W13104  29.578   0.164  11.834
40680W        W13105   6.282  39.922  12.498
40681W        W13106  29.122   8.313  13.017
40682W        W13107  16.774   2.467  14.834
40683W        W13108  28.120  30.878  12.480
40684W        W13109  27.727  40.430  14.158
40685W        W13110  19.048  39.888   2.986
40686W        W13111  19.478  40.202   1.219
40687W        W13112  26.016  16.663  13.916
40688W        W13113  11.211  32.224  11.907
40689W        W13114   6.472  41.378   1.642
40690W        W13115  38.584   1.446  11.536
40691W        W13116  16.140   8.691  13.430
40692W        W13117  42.754   4.222   0.958
40693W        W13118  10.735  20.817   4.564
40694W        W13119   4.703  23.390   1.459
40695W        W13120   4.976  29.407  12.991
40696W        W13121  10.324  28.278  11.075
40697W        W13122  39.016   2.201   2.337
40698W        W13123   3.899  22.117   2.899
40699W        W13124   3.691  42.284   0.150
40700W        W13125  34.395  16.568   2.616
40701W        W13126  15.158  20.019   1.189
40702W        W13127  32.523  34.893   4.110
40703W        W13128  33.164  24.353  13.728
40704W        W13129  34.620  26.461  13.803
40705W        W13130  24.537  22.645  11.173
40706W        W13131   0.375   9.896  10.578
40707W        W13132  41.913  44.862  11.516
40708W        W13133   2.414  36.423   3.090
40709W        W13134  15.526  39.032   3.369
40710W        W13135  10.620  15.738  14.891
40711W        W13136  28.026  41.116  14.923
40712W        W13137  19.042  25.114  14.496
40713W        W13138  23.121  26.165  11.873
40714W        W13139   6.558   6.468  13.483
40715W        W13140  38.384   5.774   3.299
40716W        W13141  39.751  24.194  12.100
40717W        W13142  40.307  16.570  14.455
40718W        W13143  33.271  20.613   1.796
40719W        W13144  43.327  34.847   3.680
40720W        W13145   4.929  26.189  14.868
40721W        W13146  19.303  34.383  11.528
40722W        W13147  25.552  27.509  12.413
40723W        W13148   7.711   6.397  11.869
40724W        W13149   2.961  25.458   0.463
40725W        W13150  12.853  25.639  11.503
40726W        W13151  36.229  31.805  12.198
40727W        W13152  12.117   4.096  13.450
40728W        W13153   3.171   0.407   0.422
40729W        W13154  12.162  34.192  14.250
40730W        W13155  21.771   4.828  14.614
40731W        W13156   6.691  28.224  11.930
40732W        W13157  37.638  25.020  10.065
40733W        W13158  20.751  42.711  10.803
40734W        W13159  41.840  11.890  10.644
40735W        W13160  33.831  23.003   0.602
40736W        W13161  32.902  30.459   2.151
40737W        W13162  15.268  38.413  14.532
40738W        W13163  21.115  44.804   4.112
40739W        W13164   0.768  25.286   0.237
40740W        W13165  18.613  31.868   5.499
40741W        W13166  35.112  28.243   0.550
40742W        W13167  22.197  35.864  13.555
40743W        W13168  33.980  24.071   2.263
40744W        W13169   0.961  18.121  13.783
40745W        W13170   4.504  29.934  11.331
40746W        W13171   5.406  27.898   4.848
40747W        W13172   2.967  14.763   2.390
40748W        W13173   1.171  11.791   3.740
40749W        W13174   4.462   7.441  12.862
40750W        W13175   7.425  18.135   2.723
40751W        W13176   7.056  26.578   4.694
40752W        W13177   9.380  16.673   4.725
40753W        W13178  20.068  13.165   0.668
40754W        W13179  33.368  43.848  12.000
40755W        W13180  15.650  15.818  10.616
40756W        W13181  19.170  33.944  13.945
40757W        W13182  23.452  38.830   1.820
40758W        W13183  37.330  22.561   5.606
40759W        W13184  16.543  10.370   3.443
40760W        W13185  30.932  28.517   3.785
40761W        W13186  39.543  44.432   3.684
40762W        W13187  21.310  15.613  11.941
40763W        W13188  28.704   3.194   4.124
40764W        W13189  23.472   3.915   2.690
40765W        W13190  39.631  14.763   4.725
40766W        W13191   4.729  39.786  10.716
40767W        W13192   8.015  43.269  11.349
40768W        W13193   6.057  11.654   2.872
40769W        W13194  25.956  31.546  11.076
40770W        W13195   4.856   9.347  14.334
40771W        W13196  21.119  30.010   3.170
40772W        W13197  10.273   6.186   3.754
40773W        W13198  20.685  16.681  13.303
40774W        W13199   4.911   0.268   4.130
40775W        W13200  15.771  10.782   2.709
40776W        W13201  27.134  40.549   2.241
40777W        W13202  44.534  33.939  10.397
40778W        W13203   4.647  44.563  10.824
40779W        W13204  28.299  23.805   3.605
40780W        W13205  22.933  25.528  12.115
40781W        W13206  35.829  15.522  12.363
40782W        W13207  34.632   9.106  12.780
40783W        W13208  22.509   6.997  12.345
40784W        W13209  15.577  27.019  10.902
40785W        W13210  22.504  42.276   2.659
40786W        W13211  12.093  25.176   3.820
40787W        W13212  26.027  19.191   1.389
40788W        W13213  41.858  25.589   1.291
40789W        W13214  39.513  41.948  12.029
40790W        W13215   0.849  31.927   3.720
40791W        W13216  36.896  35.086   3.763
40792W        W13217  35.900  21.705  13.483
40793W        W13218  23.239  17.129   4.084
40794W        W13219   7.253  10.381  13.117
40795W        W13220  11.064  18.678   2.796
40796W        W13221   1.464  11.910  14.579
40797W        W13222  40.619  36.909  13.305
40798W        W13223  11.819   4.400  11.037
40799W        W13224  30.215  12.847  11.573
40800W        W13225  32.670  11.617  11.556
40801W        W13226   1.314  37.275   3.720
40802W        W13227  22.968   0.369   2.921
40803W        W13228  35.342   7.862  11.582
40804W        W13229  15.642  29.184  13.796
40805W        W13230   3.857  23.700  10.741
40806W        W13231  24.679  11.561   2.161
40807W        W13232   7.171  33.954   4.960
40808W        W13233  20.819   3.149  13.919
40809W        W13234   5.555  34.431   4.681
40810W        W13235   3.521   7.985   0.028
40811W        W13236  41.141  10.679   4.445
40812W        W13237  29.922   0.521   0.480
40813W        W13238  12.507  36.897   4.388
40814W        W13239  35.642   4.693   0.816
40815W        W13240  14.711  32.087  10.808
40816W        W13241  13.731  44.320   2.161
40817W        W13242   7.942   7.322   0.932
40818W        W13243  31.678   0.035  11.115
40819W        W13244  10.707   2.541   4.613
40820W        W13245  18.806  18.603  10.717
40821W        W13246   1.157   4.680  13.767
40822W        W13247  12.726  43.945   2.619
40823W        W13248  16.586  31.035   5.429
40824W        W13249  31.945  24.789  12.951
40825W        W13250  38.042   9.932  13.833
40826W        W13251  23.435   1.249  14.039
40827W        W13252  19.607  37.397   2.254
40828W        W13253  15.053  24.588   4.139
40829W        W13254  44.738  42.313   0.468
40830W        W13255   0.716  36.028   3.907
40831W        W13256  27.900  13.321   4.176
40832W        W13257  32.058  27.942  11.188
40833W        W13258  22.544   5.242  13.031
40834W        W13259  34.082  18.895   1.699
40835W        W13260   7.741  16.505   2.183
40836W        W13261  21.292  10.062   2.743
40837W        W13262  29.524  38.321  11.443
40838W        W13263  21.053  39.817  11.069
40839W        W13264  21.763  32.899   1.132
40840W        W13265  43.317  10.570  11.569
40841W        W13266  38.277   6.160   4.535
40842W        W13267   1.423  38.023   0.983
40843W        W13268  26.466  13.679   2.643
40844W        W13269   2.436  43.353  13.799
40845W        W13270  41.331  29.411  12.127
40846W        W13271  21.641  41.746  12.887
40847W        W13272  10.435   3.668  14.822
40848W        W13273   8.370  39.503   1.093
40849W        W13274  31.812  16.670   9.816
40850W        W13275  14.206  26.624   1.829
40851W        W13276  27.303   3.796   2.854
40852W        W13277   0.332  39.731   3.642
40853W        W13278  22.943  18.691   2.698
40854W        W13279  40.419  17.691  13.617
40855W        W13280  27.961  42.849  14.523
40856W        W13281  31.282  35.668   4.927
40857W        W13282  16.054  37.158   2.678
40858W        W13283  16.647   1.091  10.971
40859W        W13284  18.021  39.887  10.628
40860W        W13285  26.529  33.682  14.040
40861W        W13286  36.960  12.309   1.688
40862W        W13287   7.412  11.923  13.539
40863W        W13288  30.551  25.455  11.007
40864W        W13289  15.078   5.257   2.911
40865W        W13290  14.518  29.051  12.355
40866W        W13291   8.019  33.577  14.789
40867W        W13292  18.244  37.712  11.351
40868W        W13293  26.421  12.835   1.415
40869W        W13294  21.217  19.656  14.505
40870W        W13295  26.929  29.606  12.067
40871W        W13296   1.681  17.734   4.582
40872W        W13297  28.676   6.466   3.101
40873W        W13298  14.639   6.887  14.648
40874W        W13299   9.948   7.644  11.467
40875W        W13300   9.974  11.321  12.507
40876W        W13301  10.228  23.031   0.829
40877W        W13302  37.577   6.505   1.586
40878W        W13303  38.797  20.171   4.610
40879W        W13304  18.782  26.001  10.629
40880W        W13305   2.985  34.677  11.221
40881W        W13306  14.627  33.406  13.018
40882W        W13307  28.907  43.044   1.222
40883W        W13308  21.510  37.771  11.145
40884W        W13309   5.877  17.182  10.715
40885W        W13310  13.163  25.652  13.974
40886W        W13311  12.172  15.735   0.944
40887W        W13312  29.653  44.368   1.850
40888W        W13313   7.167  25.907  13.405
40889W        W13314  29.796  34.326   1.743
40890W        W13315  27.512  12.770   4.785
40891W        W13316   6.252   0.537  12.372
40892W        W13317  35.052  13.920   3.409
40893W        W13318   9.307  37.193  10.104
40894W        W13319  32.457  37.115  12.501
40895W        W13320   9.945  35.957   3.277
40896W        W13321  13.541  14.409   1.717
40897W        W13322   2.920  13.351   4.686
40898W        W13323  11.855  15.577  11.574
40899W        W13324  22.041  17.195   2.646
40900W        W13325  25.188  20.115   0.462
40901W        W13326  28.420  44.846  14.360
40902W        W13327  14.046   7.124  12.449
40903W        W13328  33.634  34.016  14.862
40904W        W13329  36.545  44.450  10.351
40905W        W13330  42.366   0.942   2.246
40906W        W13331  20.767  30.064  11.172
40907W        W13332  44.135  20.762   1.230
40908W        W13333  33.519  28.155  10.617
40909W        W13334   3.506  19.218   4.128
40910W        W13335  21.142  31.176   4.867
40911W        W13336  27.626   3.588  11.846
40912W        W13337  43.767  17.789   0.187
40913W        W13338   6.022  32.606  13.097
40914W        W13339  36.481  32.461   3.763
40915W        W13340  44.068  44.802   3.717
40916W        W13341   4.535  20.833   3.077
40917W        W13342  17.342   6.128   0.024
40918W        W13343  35.331  29.020  14.287
40919W        W13344  35.766  19.815   1.935
40920W        W13345   8.227  40.224   3.777
40921W        W13346  14.894  24.091   3.414
40922W        W13347   4.493   5.753   1.333
40923W        W13348  26.011  10.030   2.753
40924W        W13349   2.781   6.413  13.370
40925W        W13350   8.579  29.122  13.712
40926W        W13351  21.271  31.641   4.611
40927W        W13352  40.045  41.497  13.988
40928W        W13353  44.668  10.070  11.540
40929W        W13354  17.337  21.129   3.250
40930W        W13355   9.665  28.103   0.292
40931W        W13356   5.388  30.014  11.499
40932W        W13357  10.558  37.510  14.319
40933W        W13358  31.841   2.874   0.724
40934W        W13359  19.058  39.714  13.872
40935W        W13360  31.706  44.691  14.525
40936W        W13361  16.649   4.421  10.382
40937W        W13362   2.141  22.519   3.585
40938W        W13363  27.645  22.491  11.212
40939W        W13364  23.760  10.550   5.016
40940W        W13365  35.523  13.636  10.827
40941W        W13366  31.019  37.969   1.833
40942W        W13367  44.955   5.486   0.353
40943W        W13368  10.430  40.368   3.188
40944W        W13369  37.121  27.665   0.216
40945W        W13370  41.550  23.163   2.789
40946W        W13371  33.032  29.289   3.772
40947W        W13372  29.471  44.719  11.604
40948W        W13373  38.542  40.840   1.236
40949W        W13374   8.231  44.742   0.250
40950W        W13375  21.282  13.761   1.928
40951W        W13376   6.858  31.649  12.290
40952W        W13377  15.112  32.194  11.556
40953W        W13378  30.596  28.887   0.355
40954W        W13379  42.854   0.916   1.867
40955W        W13380  44.923  19.571   4.503
40956W        W13381  31.810  11.830   4.153
40957W        W13382  42.757  26.404  10.715
40958W        W13383  25.739  19.244   1.824
40959W        W13384   9.539  42.725   2.913
40960W        W13385   0.241  33.557  13.934
40961W        W13386  19.632  10.237   2.368
40962W        W13387  42.589  37.080  12.910
40963W        W13388  11.717   1.692   5.030
40964W        W13389  30.806  41.013  14.560
40965W        W13390  19.769  10.538   3.179
40966W        W13391  38.352  25.896   0.874
40967W        W13392  10.174  26.859  11.468
40968W        W13393  36.967  21.159  13.858
40969W        W13394  18.004   1.319  14.821
40970W        W13395  23.933  18.393  12.072
40971W        W13396  40.245  37.348   3.565
40972W        W13397   4.993   3.854  14.905
40973W        W13398  24.223   6.014  10.635
40974W        W13399  31.474  26.923  14.700
40975W        W13400  12.296  30.168   0.179
40976W        W13401  38.064  40.716  14.765
40977W        W13402  37.707  42.408   2.749
40978W        W13403   9.140  38.817  10.766
40979W        W13404  34.480  18.341   1.309
40980W        W13405   4.789  33.079   4.585
40981W        W13406  38.416  10.381  12.867
40982W        W13407   7.406  36.377   4.104
40983W        W13408  20.752  22.196   2.344
40984W        W13409  36.468   6.798  14.591
40985W        W13410  20.280  12.300   4.539
40986W        W13411   5.693  27.018   2.991
40987W        W13412  17.654  37.418  14.041
40988W        W13413  27.812   2.967   2.286
40989W        W13414  18.254  29.188  11.554
40990W        W13415  31.077  35.862  10.326
40991W        W13416  27.026  35.357   1.714
40992W        W13417   1.034  35.820   0.109
40993W        W13418  23.044   7.104   0.329
40994W        W13419   4.686  33.881   1.472
40995W        W13420  20.316  28.907  10.766
40996W        W13421   9.892  41.021   1.280
40997W        W13422   2.667  30.115   3.801
40998W        W13423  10.055  42.885   2.371
40999W        W13424  20.757  17.750  14.790
41000W        W13425   7.608  35.534   1.828
41001W        W13426  16.299  30.140   0.822
41002W        W13427  13.675  35.284  10.493
41003W        W13428   0.391  25.773  13.499
41004W        W13429  44.455  11.815   2.567
41005W        W13430  23.072  25.243   0.398
41006W        W13431  10.460  44.251  11.381
41007W        W13432  29.594  12.874  13.377
41008W        W13433   4.696   0.802   2.841
41009W        W13434   6.734  26.721  10.897
41010W        W13435  12.813  36.956  14.704
41011W        W13436  16.363  31.388   1.170
41012W        W13437  10.474   6.294  11.039
41013W        W13438  34.197  15.564  13.791
41014W        W13439  30.742  18.341   5.016
41015W        W13440   9.703  16.275  12.880
41016W        W13441  25.067  44.293   0.518
41017W        W13442  25.106  36.841  14.558
41018W        W13443  37.879   7.949   0.891
41019W        W13444  16.641   2.846   1.581
41020W        W13445  42.501  23.234  10.445
41021W        W13446  27.690  19.673   1.019
41022W        W13447  28.985  13.045  13.519
41023W        W13448   0.307  35.304  13.859
41024W        W13449   3.386  38.977   2.870
41025W        W13450  35.869  38.290  11.609
41026W        W13451  27.630  42.754  14.892
41027W        W13452   5.294  31.443  11.389
41028W        W13453  18.754  11.347   3.414
41029W        W13454  18.543   2.578  14.861
41030W        W13455  18.654  15.105  10.994
41031W        W13456  20.652  33.559  10.637
41032W        W13457  18.693  41.420   3.324
41033W        W13458  32.792   5.807  12.074
41034W        W13459  28.377   4.297  14.780
41035W        W13460   4.243  19.708   1.463
41036W        W13461  33.943  27.849  10.713
41037W        W13462  27.927  44.657  14.445
41038W        W13463  38.818   0.198   2.271
41039W        W13464  42.265  29.711   5.273
41040W        W13465  40.005   6.731  14.876
41041W        W13466  26.355   5.872  11.420
41042W        W13467  19.257  20.117   0.352
41043W        W13468  24.600  16.283   1.257
41044W        W13469  12.854  21.116   3.807
41045W        W13470  44.807   6.983   4.824
41046W        W13471   4.896  34.350  12.669
41047W        W13472  36.621  35.947   0.311
41048W        W13473  28.575  14.395   0.200
41049W        W13474  31.650  30.576  12.009
41050W        W13475  30.211  23.070  11.679
41051W        W13476   0.769  34.729   3.061
41052W        W13477   4.782   2.342  11.971
41053W        W13478   1.377   5.113  12.072
41054W        W13479  28.218   9.459  11.655
41055W        W13480  43.411  42.022  11.083
41056W        W13481  33.054  20.019  11.267
41057W        W13482  23.049   5.274  13.005
41058W        W13483   0.877  28.220  13.846
41059W        W13484   4.404  44.369   4.137
41060W        W13485  43.043   1.335   4.732
41061W        W13486  36.375   1.525  11.048
41062W        W13487  12.085   3.372  13.943
41063W        W13488  22.143  34.527   3.980
41064W        W13489  14.380  42.028   4.200
41065W        W13490  40.820  37.345  10.259
41066W        W13491  35.551  41.357  11.026
41067W        W13492  16.574   3.674   2.390
41068W        W13493   2.883   0.083  11.108
41069W        W13494  22.495   7.946   2.649
41070W        W13495   8.676   6.435   3.925
41071W        W13496  41.392  26.215  14.627
41072W        W13497   0.381  40.100  13.460
41073W        W13498  19.914   0.040  13.136
41074W        W13499  29.197   7.135   1.282
41075W        W13500  17.487  23.538  10.836
41076W        W13501  43.341  39.915   1.147
41077W        W13502  35.410   5.292  12.769
41078W        W13503  18.449  25.674   3.085
41079W        W13504  35.522  32.378   3.304
41080W        W13505   8.745  28.087   1.332
41081W        W13506  11.151  18.061   1.245
41082W        W13507  41.493  31.874  11.041
41083W        W13508  34.106  20.543  13.596
41084W        W13509  38.648  31.114   0.406
41085W        W13510  29.847   1.389   1.622
41086W        W13511  43.294  12.779   5.092
41087W        W13512   8.737   1.195   2.913
41088W        W13513  18.269  27.039   2.426
41089W        W13514  39.070  42.542  12.535
41090W        W13515  16.866  42.383   0.268
41091W        W13516  13.552  15.633  12.495
41092W        W13517  15.613   3.186   0.692
41093W        W13518  31.436  12.267  11.297
41094W        W13519  23.604  32.557   2.188
41095W        W13520   6.313  23.341  14.030
41096W        W13521  24.160   6.897   0.868
41097W        W13522  26.200   3.700   0.422
41098W        W13523   7.265  10.730   1.848
41099W        W13524  40.509  27.200  10.358
41100W        W13525  40.390  30.889  11.526
41101W        W13526  44.392  15.956  11.827
41102W        W13527  27.850  23.695  12.509
41103W        W13528   1.285  12.185   4.061
41104W        W13529   5.779  42.423  14.191
41105W        W13530  10.651  31.414  13.305
41106W        W13531  15.228   3.903   0.196
41107W        W13532   3.745  37.417   3.602
41108W        W13533  42.215   3.390  13.377
41109W        W13534  16.314   2.374  10.520
41110W        W13535  24.484  38.445   2.691
41111W        W13536  12.878  15.140  12.481
41112W        W13537  15.609  26.815  14.128
41113W        W13538  42.372  41.935   0.080
41114W        W13539  18.684  41.024  14.267
41115W        W13540  39.212   6.672   9.997
41116W        W13541  32.013  40.865   0.310
41117W        W13542  11.594   9.755  13.990
41118W        W13543   7.781  20.202  11.575
41119W        W13544  10.711  13.379   2.673
41120W        W13545  20.776  20.297  10.746
41121W        W13546   5.163  35.027  14.018
41122W        W13547  17.296  23.484  14.801
41123W        W13548  44.916  35.901  12.925
41124W        W13549  26.106  12.754   4.175
41125W        W13550  28.666  34.683  14.435
41126W        W13551   4.701  37.544  11.371
41127W        W13552  32.126  38.265   4.055
41128W        W13553  16.910  14.765  11.547
41129W        W13554   2.316  15.936   2.007
41130W        W13555  31.202   4.777  12.669
41131W        W13556   5.696  20.846   4.745
41132W        W13557  26.382  10.419  10.583
41133W        W13558  26.753  39.834   0.201
41134W        W13559  27.066  35.172  10.716
41135W        W13560  44.991  20.472   2.695
41136W        W13561   7.671  32.697  12.263
41137W        W13562   9.503  18.293   3.713
41138W        W13563   5.819  15.800   1.671
41139W        W13564  26.669   4.363  12.920
41140W        W13565  44.838  11.145   3.138
41141W        W13566   2.738  34.183  12.995
41142W        W13567  37.474  41.091   0.274
41143W        W13568   1.513  44.312  14.725
41144W        W13569  34.684  28.674  11.097
41145W        W13570  10.868   2.278  12.454
41146W        W13571  25.623  40.590  13.046
41147W        W13572  17.507  21.677  14.494
41148W        W13573  21.609  26.113  14.877
41149W        W13574  14.918   8.176   0.170
41150W        W13575  25.096  16.903   4.796
41151W        W13576  18.623  10.731  10.662
41152W        W13577   9.692  27.888   2.247
41153W        W13578   6.218  39.579  14.599
41154W        W13579  41.499  17.860   3.671
41155W        W13580  38.309  25.232   2.843
41156W        W13581   4.511  20.146  11.141
41157W        W13582  40.434  43.007   3.281
41158W        W13583  37.852   5.823  11.410
41159W        W13584   8.803  34.386  13.538
41160W        W13585   7.206  37.459  11.985
41161W        W13586   3.545   7.994  12.202
41162W        W13587  20.483  12.026  10.913
41163W        W13588  24.390  16.375   4.520
41164W        W13589  15.710   1.009   1.042
41165W        W13590  22.685  23.968  11.749
41166W        W13591  39.567  30.081   0.684
41167W        W13592   2.976  14.597  13.852
41168W        W13593  23.671  21.770   3.698
41169W        W13594  12.335  17.314  11.619
41170W        W13595   9.624  19.198  13.787
41171W        W13596  19.550  44.374  10.820
41172W        W13597  16.848  44.290  11.396
41173W        W13598   5.882  39.551  11.167
41174W        W13599  39.060  38.572   2.398
41175W        W13600  12.706  23.786  11.674
41176W        W13601  13.078  24.595  10.166
41177W        W13602  24.585  42.625   2.367
41178W        W13603  29.236  23.531  12.077
41179W        W13604   1.854  27.112   4.423
41180W        W13605  28.356  10.463  14.476
41181W        W13606  36.355  21.740  11.111
41182W        W13607  42.853  14.035   1.345
41183W        W13608   9.207  38.534  13.024
41184W        W13609  39.306  41.675  11.102
41185W        W13610  16.906  38.371  11.511
41186W        W13611  39.020  20.232   0.350
41187W        W13612  16.614  14.125  12.090
41188W        W13613  30.806   9.135  10.575
41189W        W13614   3.701  21.678   2.656
41190W        W13615  37.901  36.201  14.078
41191W        W13616  26.586  31.014   4.895
41192W        W13617  39.956  15.287  14.383
41193W        W13618   9.819  20.485  10.959
41194W        W13619   3.782  38.855   1.702
41195W        W13620  40.584  36.303   0.502
41196W        W13621  29.378  44.973   3.659
41197W        W13622   2.883  20.759  14.076
41198W        W13623  22.146   8.777   4.617
41199W        W13624   3.501  26.503  10.721
41200W        W13625  11.348   0.485   3.985
41201W        W13626  22.020  42.075  13.013
41202W        W13627  16.366   7.278   4.116
41203W        W13628   4.183  18.934  12.897
41204W        W13629  21.566   7.811  12.828
41205W        W13630   6.347  37.052   4.490
41206W        W13631  41.621  39.090   2.829
41207W        W13632   2.746  26.444  13.351
41208W        W13633  23.722  25.262   1.221
41209W        W13634   4.905  18.057   1.804
41210W        W13635   3.961   0.480   4.438
41211W        W13636  43.543   3.806  11.326
41212W        W13637   7.922  38.523  11.590
41213W        W13638  35.411  13.146  11.056
41214W        W13639  22.733   4.518   2.307
41215W        W13640  32.309  38.753   4.810
41216W        W13641  42.995  43.105  11.267
41217W        W13642  22.478  41.182  13.115
41218W        W13643   0.037  20.241  14.431
41219W        W13644  25.676   5.493  10.661
41220W        W13645   7.417  26.155  13.919
41221W        W13646  34.461  15.839   1.717
41222W        W13647  25.886  16.843   2.846
41223W        W13648  34.321  44.425   3.195
41224W        W13649  43.510  28.221   2.315
41225W        W13650   6.786  10.734   3.822
41226W        W13651   3.701   8.388  12.499
41227W        W13652  43.897   5.122   2.376
41228W        W13653   0.094   1.433  10.749
41229W        W13654  15.699  11.828   3.139
41230W        W13655  33.608  11.681  11.619
41231W        W13656  26.042  29.927   4.161
41232W        W13657  36.603  25.768   4.621
41233W        W13658  21.705   3.526  12.499
41234W        W13659  14.835  13.218  13.037
41235W        W13660  35.967  31.207   2.926
41236W        W13661  44.472  20.204   2.275
41237W        W13662   1.916  14.893   0.410
41238W        W13663  43.981  14.339  13.834
41239W        W13664  44.519  35.445   0.567
41240W        W13665  37.584   6.836   1.188
41241W        W13666  26.617  18.864   0.437
41242W        W13667  13.592  28.012   3.443
41243W        W13668  12.650  26.128   3.843
41244W        W13669  32.077   9.979   3.575
41245W        W13670  27.636  25.596   0.918
41246W        W13671  18.812  37.078   4.621
41247W        W13672  20.509   7.208  14.927
41248W        W13673  43.962   5.766  14.993
41249W        W13674  24.888  24.954  11.782
41250W        W13675  30.693  37.317  10.713
41251W        W13676  30.870  24.121   4.128
41252W        W13677  13.271  14.760   3.288
41253W        W13678   1.500  21.762  14.525
41254W        W13679  44.757   1.232  12.093
41255W        W13680  22.480  21.625   2.811
41256W        W13681  19.724  16.106  12.600
41257W        W13682  12.694  21.985  13.810
41258W        W13683  24.376   2.927  10.684
41259W        W13684  29.054  43.006   3.287
41260W        W13685  35.897  22.121  14.695
41261W        W13686   1.450  18.376  13.079
41262W        W13687  20.615  14.379  12.194
41263W        W13688  17.108   8.760   0.801
41264W        W13689  36.535  40.393  11.003
41265W        W13690  18.021  13.157  13.461
41266W        W13691  32.014   6.576  11.476
41267W        W13692  41.317  19.164   1.200
41268W        W13693  26.645  42.407   4.185
41269W        W13694   2.481  21.642   3.159
41270W        W13695   6.357  30.961  11.606
41271W        W13696   5.974   1.772  10.293
41272W        W13697  19.623  34.954  11.597
41273W        W13698   8.858  16.515   3.656
41274W        W13699  43.224  12.421   0.929
41275W        W13700  32.951  27.056   1.724
41276W        W13701  36.346   8.147   0.901
41277W        W13702  29.569  27.106   0.233
41278W        W13703   3.013   7.916  11.309
41279W        W13704  28.436  30.933  11.584
41280W        W13705  34.657  41.017   2.671
41281W        W13706  18.274  13.298   3.336
41282W        W13707  27.107  41.307  13.470
41283W        W13708  36.993  36.873  13.465
41284W        W13709  28.423   3.799  12.407
41285W        W13710  11.451  22.645  10.646
41286W        W13711  21.807  19.277   4.392
41287W        W13712  23.675   1.325   4.592
41288W        W13713   3.893  27.250  11.634
41289W        W13714  28.428   8.339   2.767
41290W        W13715  37.952  30.025   2.141
41291W        W13716  27.040   9.277  12.550
41292W        W13717  22.526  28.126  11.110
41293W        W13718   4.515   6.154  14.360
41294W        W13719  43.061  36.125  12.176
41295W        W13720  25.294  23.046  11.615
41296W        W13721  28.979  23.541  13.029
41297W        W13722  22.656  22.555  11.270
41298W        W13723   6.602   2.387   2.204
41299W        W13724   4.181   4.824   2.806
41300W        W13725   4.983  28.097  12.410
41301W        W13726  38.687  10.436  13.322
41302W        W13727  17.802  41.554   2.256
41303W        W13728  26.383  28.976   1.290
41304W        W13729  34.909   3.727   4.287
41305W        W13730  14.047  22.064   2.201
41306W        W13731  13.371   0.956   0.600
41307W        W13732  37.818  13.283  12.489
41308W        W13733  21.250  12.157  14.391
41309W        W13734   2.955  16.619   4.614
41310W        W13735  14.267  36.962   1.525
41311W        W13736  43.196  25.004  10.653
41312W        W13737  30.535  41.603  10.892
41313W        W13738   9.541  42.878   2.031
41314W        W13739  19.305  27.661   1.241
41315W        W13740  24.796  10.712   3.763
41316W        W13741  34.516   5.087   0.347
41317W        W13742  26.453  44.949   1.471
41318W        W13743  44.303  38.851   0.358
41319W        W13744  38.574  42.043   4.209
41320W        W13745   1.520  38.583  13.648
41321W        W13746  40.511   2.795  12.525
41322W        W13747   0.625  35.420  11.943
41323W        W13748  27.191  37.013   1.673
41324W        W13749  30.777  42.583  11.534
41325W        W13750   9.261  16.214   3.415
41326W        W13751  34.678  27.127  12.435
41327W        W13752  10.171  22.526   0.830
41328W        W13753   2.041  43.244   3.851
41329W        W13754  44.565  26.432   2.845
41330W        W13755   3.483  24.110   4.134
41331W        W13756   3.668  40.812   3.637
41332W        W13757  29.628  29.417   0.295
41333W        W13758  33.477   5.509   1.734
41334W        W13759  29.037   8.382  11.398
41335W        W13760  25.429  21.000  12.851
41336W        W13761   6.880  31.585   5.141
41337W        W13762  25.647  34.360  13.135
41338W        W13763  12.365  40.385   1.855
41339W        W13764  15.934  44.987   4.981
41340W        W13765  35.604   5.234  11.340
41341W        W13766  17.314  17.287   3.123
41342W        W13767  29.595  41.858  11.684
41343W        W13768  43.338  37.431  12.945
41344W        W13769   7.565  28.693  12.167
41345W        W13770  15.401   9.121  14.943
41346W        W13771  29.149   1.909   4.894
41347W        W13772  36.800  39.569  12.514
41348W        W13773  44.546  19.268  10.587
41349W        W13774   7.582   7.427   1.789
41350W        W13775  16.148  21.058  12.382
41351W        W13776   2.668  24.324   1.423
41352W        W13777  35.710  29.369  11.577
41353W        W13778  10.111  30.545  12.932
41354W        W13779  43.340   0.879  14.197
41355W        W13780  34.492  28.032  13.457
41356W        W13781  42.888  20.750   2.704
41357W        W13782  36.487  11.809   4.021
41358W        W13783   8.560  26.897   5.373
41359W        W13784  27.861  28.655  13.608
41360W        W13785  28.716   1.874  13.915
41361W        W13786  40.523  42.323   2.688
41362W        W13787  40.398   2.482  13.369
41363W        W13788   8.003  28.806  10.446
41364W        W13789   3.716  42.421  12.942
41365W        W13790  34.783  36.458   4.667
41366W        W13791  20.165  16.220  12.848
41367W        W13792  15.621  12.968  11.801
41368W        W13793  29.328   0.060   1.123
41369W        W13794   4.898  42.988   1.746
41370W        W13795  26.462   9.061   0.257
41371W        W13796  20.006  17.183   2.660
41372W        W13797  27.132  21.573   3.191
41373W        W13798  15.107   4.948  11.060
41374W        W13799  18.073  37.892   4.272
41375W        W13800   7.365  19.123  14.899
41376W        W13801  39.406  20.826  10.095
41377W        W13802  17.740  18.661   3.971
41378W        W13803  43.722  16.135   4.592
41379W        W13804   2.617  33.022   3.317
41380W        W13805  24.115  18.156   4.075
41381W        W13806  39.907  20.116  13.521
41382W        W13807  43.401  43.586  10.668
41383W        W13808  42.814   3.688   0.707
41384W        W13809   1.164  35.046  11.154
41385W        W13810  25.103  27.925  12.056
41386W        W13811  37.848  43.764  14.365
41387W        W13812  31.960  13.956  11.578
41388W        W13813  40.995   1.282  12.089
41389W        W13814   8.784  12.184   0.551
41390W        W13815  19.660  38.787  10.977
41391W        W13816   1.942   9.971  11.919
41392W        W13817  36.610   2.838   4.801
41393W        W13818  25.931  23.567   1.207
41394W        W13819   9.794  28.833   2.273
41395W        W13820  37.818  44.896  14.313
41396W        W13821   8.343  16.467  11.077
41397W        W13822   4.109  25.195  11.072
41398W        W13823   3.654  22.999   2.283
41399W        W13824  38.496  13.257   2.116
41400W        W13825  37.417  12.166   1.471
41401W        W13826   5.929  28.841  14.264
41402W        W13827  44.293  10.389  11.702
41403W        W13828  23.254  12.028  13.371
41404W        W13829  13.083  20.827   2.276
41405W        W13830  35.194   3.436  10.822
41406W        W13831  26.680  28.151  11.497
41407W        W13832   5.642  14.071   1.533
41408W        W13833  31.568   4.155  11.944
41409W        W13834  19.226  23.102  14.269
41410W        W13835  42.288  24.036   4.201
41411W        W13836   7.677  21.241   4.092
41412W        W13837   0.091   5.007  11.520
41413W        W13838  14.595   3.290   4.526
41414W        W13839  40.907  14.455  14.732
41415W        W13840  44.919  42.300  13.098
41416W        W13841   2.923   0.761  11.890
41417W        W13842   9.624  21.053   4.079
41418W        W13843  20.506   5.318   3.253
41419W        W13844  31.644  15.562   3.337
41420W        W13845  15.728  42.098  10.546
41421W        W13846  16.987   0.375  12.857
41422W        W13847  13.735   4.720   0.875
41423W        W13848   8.349  31.643   1.345
41424W        W13849  43.946   5.054  10.689
41425W        W13850   3.356  19.993   2.856
41426W        W13851  13.701  10.694   1.451
41427W        W13852  17.684  14.627   2.386
41428W        W13853  34.968   5.407  12.986
41429W        W13854   5.873  43.202   5.029
41430W        W13855  24.143  21.976  10.682
41431W        W13856  17.365  42.708  11.256
41432W        W13857  37.753  43.244  12.138
41433W        W13858  38.419   7.436   1.919
41434W        W13859  27.305  41.803  10.724
41435W        W13860  21.900  28.797  14.060
41436W        W13861  42.790  31.151   2.524
41437W        W13862  31.800   5.063   2.363
41438W        W13863  21.285  10.140  12.426
41439W        W13864  16.567  39.666  12.542
41440W        W13865  12.727   4.471  14.429
41441W        W13866  25.701  41.801   3.227
41442W        W13867  12.790   6.050   1.365
41443W        W13868  22.702  32.111   1.331
41444W        W13869  17.134   4.412   3.823
41445W        W13870  44.202  42.872  14.636
41446W        W13871  17.380  43.559   4.925
41447W        W13872  43.445  21.346  12.334
41448W        W13873  27.573  34.890  10.997
41449W        W13874  44.512   6.792  11.507
41450W        W13875  34.657  30.171   0.885
41451W        W13876  26.643  42.300   3.277
41452W        W13877  20.508  16.151   1.263
41453W        W13878  22.498  12.193  13.349
41454W        W13879   6.789  20.757   2.732
41455W        W13880  40.873  38.071   2.286
41456W        W13881   6.989   9.968   4.553
41457W        W13882  43.474  24.940  13.802
41458W        W13883  32.482   9.837   3.888
41459W        W13884  16.596  37.935   2.028
41460W        W13885   5.812   1.825   3.295
41461W        W13886  44.280  11.325  14.348
41462W        W13887  37.276  25.503  10.648
41463W        W13888   4.652  14.533   1.965
41464W        W13889  42.061  12.297  10.424
41465W        W13890  29.123  30.188   4.679
41466W        W13891  32.456  42.330   1.230
41467W        W13892   3.175  35.844   0.820
41468W        W13893  40.770  11.163  11.568
41469W        W13894  40.575  39.814   1.201
41470W        W13895  10.705  16.519  13.819
41471W        W13896  41.895  10.033   1.805
41472W        W13897  22.611  43.334   1.425
41473W        W13898  36.607   9.289  13.348
41474W        W13899  44.226  37.372  13.891
41475W        W13900  24.239  27.724  10.715
41476W        W13901   3.746  36.346  14.529
41477W        W13902  34.619  30.802   3.163
41478W        W13903  19.034  44.279  12.125
41479W        W13904  35.558  43.786  12.885
41480W        W13905  27.036  28.008  11.103
41481W        W13906  40.164  42.754   4.308
41482W        W13907   5.498  26.691  10.784
41483W        W13908  28.380   3.951   4.706
41484W        W13909  36.115  20.563   4.653
41485W        W13910   4.125  27.113   1.311
41486W        W13911  36.887  33.586  12.153
41487W        W13912   3.465  38.696  12.502
41488W        W13913   2.310  33.311   0.120
41489W        W13914  40.081   9.850   4.129
41490W        W13915  44.917  26.486  11.634
41491W        W13916  41.358  18.672  12.964
41492W        W13917   0.796  27.353  14.358
41493W        W13918  10.418   1.739   4.250
41494W        W13919  37.643  22.695  13.617
41495W        W13920  10.775  21.221   1.724
41496W        W13921   9.879  23.116  12.381
41497W        W13922  30.011  15.310  14.461
41498W        W13923  38.664  14.390  12.058
41499W        W13924  42.016  21.903  13.353
41500W        W13925  12.337  33.433   4.349
41501W        W13926  18.289   0.811  11.493
41502W        W13927  19.162   4.877  11.162
41503W        W13928  36.328  42.935  14.890
41504W        W13929  13.256  39.422  13.605
41505W        W13930  33.640   7.413  13.802
41506W        W13931  23.829  17.244  14.102
41507W        W13932  38.842   9.264  12.529
41508W        W13933  19.491   5.499   3.288
41509W        W13934  29.360  17.985   2.768
41510W        W13935   2.799  21.745  10.974
41511W        W13936  41.781   8.123  11.603
41512W        W13937  41.691  13.157  13.475
41513W        W13938  15.855  10.169  11.576
41514W        W13939  11.356  21.625   4.256
41515W        W13940  42.030  13.236   3.124
41516W        W13941  13.603  34.054  14.427
41517W        W13942  25.661   1.896   4.894
41518W        W13943  24.637  16.514   4.061
41519W        W13944  41.714  15.229   3.255
41520W        W13945  20.854  28.643  12.024
41521W        W13946  31.413  30.434  14.659
41522W        W13947  41.806   9.928  12.447
41523W        W13948  43.244   1.500  12.030
41524W        W13949  43.860  15.697  14.489
41525W        W13950   4.736  12.414  12.092
41526W        W13951  19.866  40.799   3.657
41527W        W13952  23.624   5.624  11.369
41528W        W13953  16.134   1.298   4.577
41529W        W13954  24.689  11.680  13.970
41530W        W13955  15.460  32.930   4.581
41531W        W13956  34.626   1.692   4.668
41532W        W13957  26.978  26.092  11.508
41533W        W13958  41.413  24.173   0.647
41534W        W13959  25.470  21.721   1.367
41535W        W13960  17.696  11.728   1.229
41536W        W13961  16.832  11.219   4.155
41537W        W13962  30.893  21.130   2.619
41538W        W13963  18.644  43.235  11.459
41539W        W13964  35.963   5.504   3.727
41540W        W13965  30.313  11.750  12.110
41541W        W13966  11.852  12.251  13.390
41542W        W13967  37.947   4.613  11.473
41543W        W13968  24.095  33.020  14.305
41544W        W13969   6.787  16.046   4.046
41545W        W13970  17.420  44.209  12.762
41546W        W13971  19.136  12.245   3.906
41547W        W13972   9.098  23.108   4.124
41548W        W13973  24.086   7.840   0.524
41549W        W13974  40.964  28.520  12.057
41550W        W13975   9.385  18.298   2.744
41551W        W13976  13.300  32.084  13.421
41552W        W13977  27.665  41.509  13.385
41553W        W13978  44.946   1.904   2.267
41554W        W13979  40.838  43.407  14.081
41555W        W13980  42.270   5.174  11.151
41556W        W13981  26.157  40.331   4.017
41557W        W13982   8.122  37.124  11.033
41558W        W13983   7.693   8.257   0.337
41559W        W13984  31.419  13.570  14.680
41560W        W13985   8.930  38.186   1.042
41561W        W13986  20.976  26.073  13.067
41562W        W13987   3.453  38.348   1.724
41563W        W13988  39.394  26.435   1.535
41564W        W13989  41.503  23.634   1.453
41565W        W13990  37.945   4.747   2.331
41566W        W13991   8.656  25.420   2.592
41567W        W13992  31.836  38.101   3.591
41568W        W13993  44.492   5.800  13.308
41569W        W13994  38.833  32.398   0.891
41570W        W13995  41.375  20.471  14.566
41571W        W13996  40.499  30.136   0.484
41572W        W13997  38.876  34.923  12.039
41573W        W13998   8.242  27.073   0.797
41574W        W13999  32.500  23.745  11.624
41575W        W14000  21.223  28.969  11.250
41576W        W14001  28.761  29.020  12.034
41577W        W14002   2.119  23.141   0.160
41578W        W14003  41.376  28.438  10.481
41579W        W14004  38.946  18.980   1.919
41580W        W14005  41.546   4.732  13.950
41581W        W14006  13.564  36.487  11.564
41582W        W14007  34.961  14.407   3.241
41583W        W14008   5.689  30.513   2.321
41584W        W14009  38.770   3.267  13.075
41585W        W14010  44.534   5.377  13.022
41586W        W14011  36.905  17.169   4.523
41587W        W14012  26.498   2.460   4.974
41588W        W14013  27.684   6.209  10.753
41589W        W14014   0.446  28.100  12.909
41590W        W14015  25.124   7.437   3.236
41591W        W14016  11.229  19.565  11.431
41592W        W14017  28.219  12.100  12.507
41593W        W14018  44.139  24.304  14.850
41594W        W14019  23.250  29.033   0.809
41595W        W14020  19.258  32.769  11.497
41596W        W14021   9.732  36.479   0.384
41597W        W14022   6.892  12.415   1.446
41598W        W14023   2.002  14.947   1.241
41599W        W14024  27.235   2.907  10.630
41600W        W14025  44.411  17.876   4.289
41601W        W14026   6.446   3.023  13.436
41602W        W14027   8.186  18.058  12.389
41603W        W14028  31.165  15.669   3.144
41604W        W14029   6.475  18.220  13.883
41605W        W14030  38.252  26.478   2.327
41606W        W14031  11.067  31.608  14.857
41607W        W14032  36.913  32.385   1.856
41608W        W14033  22.043  16.126  14.474
41609W        W14034  13.237   6.638  14.759
41610W        W14035  36.711  37.112   2.184
41611W        W14036  33.218  15.660  14.048
41612W        W14037  33.033  34.931  13.710
41613W        W14038  20.218  37.618   1.260
41614W        W14039  41.094  16.690   4.396
41615W        W14040  44.268  20.135   3.634
41616W        W14041  34.329  32.943   1.266
41617W        W14042  30.587   1.385  12.614
41618W        W14043   4.323  11.788  12.460
41619W        W14044  22.393  20.137  10.427
41620W        W14045  32.313  39.529  14.857
41621W        W14046  35.024   4.384   2.589
41622W        W14047  19.787  28.125   2.546
41623W        W14048  28.106  11.733  13.782
41624W        W14049   6.823  12.653   3.996
41625W        W14050  24.763  26.956  12.329
41626W        W14051  36.570  40.929  12.448
41627W        W14052  40.838  20.385   1.375
41628W        W14053   3.844  13.069   1.933
41629W        W14054  28.506  15.628  13.938
41630W        W14055  31.609  36.297   4.518
41631W        W14056   0.298  31.443   1.469
41632W        W14057  34.492  39.401  11.575
41633W        W14058   7.690  27.141   4.113
41634W        W14059  39.781  38.866  14.970
41635W        W14060  12.515  44.005   2.171
41636W        W14061  16.275  17.526   1.294
41637W        W14062   5.987  20.603   0.428
41638W        W14063   8.028  41.617  11.742
41639W        W14064  12.266  44.310   3.086
41640W        W14065  24.463   6.621  11.320
41641W        W14066   2.913  18.195  12.021
41642W        W14067  31.715  17.315  11.098
41643W        W14068  32.347  40.913   4.797
41644W        W14069   8.307  30.939   3.169
41645W        W14070  30.485  16.153   3.191
41646W        W14071   7.827  44.495  12.689
41647W        W14072  39.218   0.321   5.052
41648W        W14073  14.935  17.933  10.868
41649W        W14074   1.879  24.166  14.364
41650W        W14075  14.297  23.229  12.718
41651W        W14076  22.251  20.416  13.412
41652W        W14077  39.379   8.458   1.738
41653W        W14078   7.595  22.484   0.110
41654W        W14079  12.345  25.256   2.389
41655W        W14080  35.715  37.436   3.571
41656W        W14081  25.205  19.493   4.087
41657W        W14082   1.744  29.479   0.073
41658W        W14083  42.019  29.185  10.001
41659W        W14084   9.344  19.769  11.543
41660W        W14085  43.114  15.140  12.029
41661W        W14086  23.097  43.962   1.335
41662W        W14087  11.228  13.122   0.524
41663W        W14088  23.065   6.599   0.329
41664W        W14089  31.159   4.426   3.245
41665W        W14090   8.441  36.380   1.492
41666W        W14091  36.257  40.443   2.338
41667W        W14092   7.485  21.114   4.585
41668W        W14093  41.556  16.846  12.333
41669W        W14094   3.874   9.794   0.429
41670W        W14095  21.746  21.595   4.691
41671W        W14096  41.564   4.432   4.413
41672W        W14097   8.664  29.143  13.200
41673W        W14098   3.330  31.429   0.324
41674W        W14099  13.385   2.429   1.278
41675W        W14100  17.754  19.252   4.603
41676W        W14101  32.117  17.603  13.372
41677W        W14102  18.491  42.366   2.353
41678W        W14103  30.479   6.005   1.243
41679W        W14104  17.507  28.346  11.024
41680W        W14105  40.229  43.269   0.925
41681W        W14106  25.703  17.608   3.399
41682W        W14107  40.399   2.591   2.545
41683W        W14108  38.954   6.782   0.097
41684W        W14109  29.925  31.333  14.107
41685W        W14110  26.718  36.100  12.792
41686W        W14111  13.704  23.197  14.146
41687W        W14112  42.664  18.793  11.535
41688W        W14113  38.450  44.626  12.966
41689W        W14114   0.426  14.633  11.785
41690W        W14115  38.575   3.286   4.798
41691W        W14116  29.816  33.330  14.283
41692W        W14117  30.906   7.343   2.065
41693W        W14118  37.531  41.319   0.739
41694W        W14119  28.923  13.580  14.834
41695W        W14120  30.211  39.341  13.206
41696W        W14121   7.590  35.867  11.483
41697W        W14122  40.833   7.298  14.936
41698W        W14123  10.027  14.855   5.005
41699W        W14124  14.580   4.815   9.519
41700W        W14125  42.363   0.945  13.872
41701W        W14126  24.948  14.072  11.287
41702W        W14127  20.522   4.709   0.207
41703W        W14128  34.966  42.825   2.205
41704W        W14129   2.693   0.568  11.103
41705W        W14130  30.060  25.689   4.163
41706W        W14131  26.446  20.612  10.675
41707W        W14132   0.859  29.143   3.229
41708W        W14133  15.313  37.889  14.527
41709W        W14134  28.489   7.324  13.804
41710W        W14135   8.749  37.070  12.662
41711W        W14136  30.219  25.208   2.151
41712W        W14137  23.602  31.494   4.737
41713W        W14138   7.399  16.022  13.416
41714W        W14139  12.133  37.519  10.628
41715W        W14140  14.277  11.170  13.985
41716W        W14141   0.454  12.648   2.011
41717W        W14142  17.252  43.170   3.865
41718W        W14143  14.323  18.675   4.637
41719W        W14144  27.275  12.053   0.742
41720W        W14145  13.138  33.298   0.472
41721W        W14146  36.262   1.995   9.903
41722W        W14147  35.426  41.482  14.724
41723W        W14148  39.694  33.890  12.407
41724W        W14149  38.327  44.358   2.646
41725W        W14150   9.168  12.065  10.534
41726W        W14151   7.970   1.139   2.996
41727W        W14152  17.318  19.846   1.835
41728W        W14153  39.617  13.983   2.263
41729W        W14154  37.174   7.049  10.846
41730W        W14155  19.114  43.162  11.688
41731W        W14156   0.185  11.967  12.954
41732W        W14157  20.748  35.597  10.597
41733W        W14158  10.556  37.484   3.715
41734W        W14159   2.523  38.794   0.649
41735W        W14160  34.925   2.707  13.472
41736W        W14161   0.945  12.006   1.938
41737W        W14162   1.170   1.262   3.017
41738W        W14163  39.623  29.816  13.350
41739W        W14164  11.209   5.651  12.813
41740W        W14165  37.970  40.013  14.091
41741W        W14166  39.763  14.806   4.233
41742W        W14167  42.426   1.643  14.890
41743W        W14168  13.927  16.343  11.054
41744W        W14169   6.241  34.572   4.267
41745W        W14170  10.232  16.790   3.468
41746W        W14171  30.436  26.917   3.790
41747W        W14172  34.350  15.180  14.480
41748W        W14173  21.635  36.459  13.151
41749W        W14174  26.148  26.220  13.845
41750W        W14175  13.676  19.755  13.098
41751W        W14176  28.856  19.169   1.005
41752W        W14177  36.460  20.241  13.573
41753W        W14178   0.941  28.551  13.431
41754W        W14179  15.397  33.890  11.074
41755W        W14180  31.590  34.068  10.665
41756W        W14181  20.782  43.407  13.862
41757W        W14182  26.940  43.943   3.291
41758W        W14183  41.446  23.600  13.077
41759W        W14184   6.034   4.731  11.026
41760W        W14185  28.646  32.899   0.721
41761W        W14186  42.472  11.320  13.948
41762W        W14187   6.738  44.723  12.979
41763W        W14188  25.651  38.326   2.805
41764W        W14189  21.709   7.120   5.107
41765W        W14190  12.631  33.992   4.397
41766W        W14191   6.972  31.642  10.652
41767W        W14192  21.567   1.475   3.213
41768W        W14193  36.380  13.063  14.930
41769W        W14194  36.064   1.123  14.803
41770W        W14195   2.710  16.737  11.045
41771W        W14196  23.427  28.852  11.626
41772W        W14197   6.791  27.474  13.108
41773W        W14198  22.223  16.283   1.784
41774W        W14199  30.639  34.350  11.904
41775W        W14200  38.122  40.300   3.873
41776W        W14201  34.531   3.730   1.250
41777W        W14202  15.530   5.877  12.540
41778W        W14203   4.203  42.565   0.963
41779W        W14204  25.262  10.713   0.694
41780W        W14205  22.723   1.688   1.873
41781W        W14206  39.524  19.369  10.824
41782W        W14207   1.490   5.731   0.476
41783W        W14208  43.501   6.434  12.295
41784W        W14209  16.340  37.821   0.275
41785W        W14210  26.313   2.750  12.468
41786W        W14211  39.513  34.072  10.344
41787W        W14212  22.608  26.671   3.135
41788W        W14213  14.307  33.615  11.707
41789W        W14214  44.965   2.348   3.914
41790W        W14215  39.295  15.192   3.608
41791W        W14216  30.684  23.178  10.759
41792W        W14217  18.128  13.497  13.874
41793W        W14218  22.240  16.272   2.679
41794W        W14219  15.616  17.596   2.641
41795W        W14220  20.428  36.492   0.938
41796W        W14221  18.075  28.804  13.891
41797W        W14222  43.823   0.902  14.341
41798W        W14223  16.862   7.472   4.191
41799W        W14224  11.569  28.055   5.020
41800W        W14225  16.528  16.821  14.038
41801W        W14226  23.120  31.318   3.300
41802W        W14227   6.711  26.749   0.936
41803W        W14228   9.222   5.698  13.419
41804W        W14229  27.112  25.273   2.282
41805W        W14230  31.357  38.486  14.319
41806W        W14231  22.536   5.624  14.310
41807W        W14232  44.529  27.138  12.415
41808W        W14233  17.051   9.662   0.792
41809W        W14234  10.932   6.177   1.042
41810W        W14235  20.696  24.526   1.244
41811W        W14236   8.937   3.418  11.916
41812W        W14237   2.310  34.080   4.409
41813W        W14238  39.715  32.602  12.953
41814W        W14239  28.958  32.351   4.610
41815W        W14240  15.627  26.958   4.610
41816W        W14241   9.044  10.401  10.950
41817W        W14242   7.970  25.566   3.221
41818W        W14243  40.804  23.272  12.523
41819W        W14244  23.578  35.723  13.801
41820W        W14245  33.420  20.058   4.592
41821W        W14246   9.189  25.129   4.685
41822W        W14247  23.767  32.785   0.284
41823W        W14248   5.862   2.790   1.317
41824W        W14249  38.327  17.201  11.812
41825W        W14250  23.727  11.637  12.518
41826W        W14251  17.328  19.937   2.715
41827W        W14252  17.158   8.384   3.887
41828W        W14253   6.644  34.778  14.351
41829W        W14254  44.404  44.795   1.933
41830W        W14255  36.585  25.292  10.031
41831W        W14256   0.978  33.896   1.330
41832W        W14257  14.579  36.178  14.769
41833W        W14258  33.606   2.768  11.093
41834W        W14259   7.415  14.322  12.893
41835W        W14260  24.047  11.819   2.849
41836W        W14261  27.355   7.889   3.986
41837W        W14262  19.746  30.496   9.801
41838W        W14263  22.427  16.903  13.099
41839W        W14264  37.723  16.593  13.990
41840W        W14265  33.864   0.025  14.239
41841W        W14266   3.122  24.756  11.003
41842W        W14267  44.865  26.154   3.920
41843W        W14268  30.982  37.029   3.167
41844W        W14269  16.214  11.565   1.712
41845W        W14270  14.205  13.614   1.389
41846W        W14271  32.809   2.958   3.367
41847W        W14272  30.357  24.269  11.962
41848W        W14273   4.891  23.758  13.483
41849W        W14274  18.057  26.736   1.779
41850W        W14275  10.714  44.595   2.201
41851W        W14276  34.143   4.214  13.965
41852W        W14277  29.414  35.960   0.906
41853W        W14278  11.679  19.497   0.389
41854W        W14279  21.818  39.016  13.113
41855W        W14280  21.862  22.440  10.208
41856W        W14281   2.729  11.681   1.824
41857W        W14282  35.416  22.975  10.743
41858W        W14283  28.681  29.860  13.283
41859W        W14284  18.584   1.268   4.488
41860W        W14285  12.874  30.002   3.405
41861W        W14286  13.648  29.893  14.929
41862W        W14287  44.823  19.123  12.137
41863W        W14288   0.042  22.323  11.874
41864W        W14289  38.589   1.726   0.687
41865W        W14290   0.329   9.462   1.952
41866W        W14291  18.458  39.432   0.656
41867W        W14292  35.966  42.980   0.297
41868W        W14293  44.906   9.647  14.311
41869W        W14294  14.932   4.343  14.528
41870W        W14295   3.421  18.067  11.022
41871W        W14296  28.222   2.588   5.004
41872W        W14297  33.641   6.655   0.885
41873W        W14298  27.154   6.000  13.337
41874W        W14299  15.537  28.435  12.474
41875W        W14300  25.470  39.846  14.535
41876W        W14301  17.576   3.894  12.086
41877W        W14302  12.743  17.292  13.577
41878W        W14303  24.073   3.753   4.834
41879W        W14304  44.240   4.445  13.282
41880W        W14305  25.132  18.140   0.858
41881W        W14306  13.963  25.147  14.830
41882W        W14307  32.920  22.612   3.537
41883W        W14308  35.397   2.997  13.579
41884W        W14309  15.641   9.327  13.961
41885W        W14310  14.244  41.519  14.568
41886W        W14311  10.784  18.125  13.011
41887W        W14312  42.454  14.798  12.487
41888W        W14313  35.811   9.299  12.856
41889W        W14314  10.373  44.217  13.486
41890W        W14315  44.459  12.852   0.580
41891W        W14316  35.359  33.187  14.785
41892W        W14317  44.848  38.158  12.056
41893W        W14318  31.154  10.839  14.940
41894W        W14319  23.671  29.518  12.599
41895W        W14320   9.879   7.951   5.218
41896W        W14321  32.867  20.069  13.762
41897W        W14322  35.826  31.365   0.304
41898W        W14323  30.081  18.933  10.688
41899W        W14324  16.658  36.665   3.833
41900W        W14325   8.256  43.275   4.948
41901W        W14326  17.721  17.307   4.690
41902W        W14327  16.522  14.606  14.917
41903W        W14328  38.137  27.152  14.300
41904W        W14329  34.698   9.392  14.700
41905W        W14330  40.338   2.223  14.133
41906W        W14331  16.622  44.515   2.671
41907W        W14332  12.297  24.639   4.525
41908W        W14333  41.776  14.620   0.752
41909W        W14334  35.846  27.665   3.062
41910W        W14335  34.579  41.035  14.805
41911W        W14336  18.423  33.005   5.059
41912W        W14337  30.546   0.609  14.033
41913W        W14338  40.252  41.590   1.417
41914W        W14339  39.113   9.143  11.568
41915W        W14340  33.569  19.735   3.744
41916W        W14341  30.375   4.789   1.270
41917W        W14342  25.898   5.157   0.280
41918W        W14343   6.508  44.932  14.432
41919W        W14344  39.469  39.101   0.308
41920W        W14345  21.815  35.066  12.014
41921W        W14346  26.325   8.849   4.221
41922W        W14347  12.353  26.013  12.069
41923W        W14348   5.459   5.705  10.611
41924W        W14349  41.327   6.156  12.542
41925W        W14350  20.982  29.727   4.507
41926W        W14351  24.771  14.209   4.195
41927W        W14352   0.417  23.681  12.496
41928W        W14353  19.038  32.453  10.615
41929W        W14354  38.854  14.876   3.250
41930W        W14355  14.161  20.329   3.120
41931W        W14356  21.033  13.634   0.980
41932W        W14357  13.277  19.887   3.454
41933W        W14358  17.815   4.880  14.857
41934W        W14359   6.388   2.780  12.113
41935W        W14360  30.956  38.827   3.778
41936W        W14361  15.493   5.411   4.159
41937W        W14362  42.976  11.869   2.730
41938W        W14363  17.195  18.094  13.441
41939W        W14364  13.164  22.504   2.699
41940W        W14365  25.434  38.893  11.618
41941W        W14366  43.778   3.537  10.527
41942W        W14367  26.561   1.294  11.648
41943W        W14368  44.980   4.686   4.242
41944W        W14369  35.851  32.445  12.931
41945W        W14370  42.311  17.562  12.025
41946W        W14371   1.044  19.055   3.137
41947W        W14372  21.529  15.420   0.990
41948W        W14373  35.326  35.361  11.026
41949W        W14374   9.306  30.022  14.314
41950W        W14375  39.541  32.052  12.485
41951W        W14376  16.883  32.736   3.804
41952W        W14377  44.883  37.106   4.152
41953W        W14378  24.977  27.732   3.655
41954W        W14379   8.229   6.385   2.106
41955W        W14380   5.675   1.687  14.448
41956W        W14381  39.790   6.695  12.111
41957W        W14382  16.647  13.229  14.727
41958W        W14383  28.245  30.147   1.879
41959W        W14384   1.854   4.894   1.231
41960W        W14385  41.473  30.671  13.029
41961W        W14386  10.794  35.096   3.924
41962W        W14387  19.168  31.445   2.330
41963W        W14388  44.540  36.178  13.102
41964W        W14389  17.772  32.027  11.896
41965W        W14390  25.451  37.048  11.546
41966W        W14391  43.392  14.288  14.108
41967W        W14392  22.690   4.235  13.959
41968W        W14393   8.763  12.454  14.260
41969W        W14394  40.299  37.573  14.933
41970W        W14395   2.125  39.394   3.989
41971W        W14396  23.458  26.016   4.643
41972W        W14397  25.555  20.226  13.747
41973W        W14398   0.441  16.817   2.260
41974W        W14399  18.994  32.381   2.377
41975W        W14400   6.651  30.336  12.972
41976W        W14401  15.990  18.219  14.081
41977W        W14402  19.259  31.382   0.835
41978W        W14403  44.793  33.471   1.278
41979W        W14404  42.279  40.420  10.682
41980W        W14405  30.513  38.994   2.363
41981W        W14406  17.167  37.609   1.862
41982W        W14407  41.903  20.662   3.690
41983W        W14408   6.138  33.927  14.875
41984W        W14409  31.318  11.642  12.903
41985W        W14410   0.771  34.502  10.462
41986W        W14411  12.950  36.135  13.999
41987W        W14412  23.131  20.294  13.828
41988W        W14413  28.125  17.089   2.775
41989W        W14414  29.001  33.507   3.653
41990W        W14415   2.771  33.367   0.366
41991W        W14416  39.963  43.320  10.705
41992W        W14417   8.898  27.569   2.681
41993W        W14418  29.319  28.958  14.340
41994W        W14419  22.118  23.514  11.116
41995W        W14420  14.287  33.588   0.111
41996W        W14421  18.531  18.147  10.672
41997W        W14422  15.542  23.652  12.005
41998W        W14423  10.794   7.297   2.075
41999W        W14424   6.661  41.377  10.504
42000W        W14425  22.039  34.517   2.597
42001W        W14426  42.609  25.038   3.187
42002W        W14427  11.605   6.663  11.405
42003W        W14428   9.914  35.135   0.044
42004W        W14429  34.072  17.107   0.557
42005W        W14430   3.139  17.226  11.521
42006W        W14431  34.918  29.006  12.100
42007W        W14432  20.630  35.555   4.755
42008W        W14433  38.019  31.120  14.074
42009W        W14434  43.890  23.799   1.859
42010W        W14435  37.867  22.811   9.782
42011W        W14436  28.176  28.273   4.097
42012W        W14437  25.651  33.583  12.622
42013W        W14438  43.105   3.911  11.569
42014W        W14439  37.982   5.372  13.744
42015W        W14440  13.122  38.121   3.713
42016W        W14441  11.649   5.893  13.448
42017W        W14442   4.941  26.063   3.199
42018W        W14443  43.462  19.693   1.728
42019W        W14444  35.231  34.175   0.029
42020W        W14445  10.367   1.813  12.458
42021W        W14446  40.889  27.507   2.721
42022W        W14447  26.523  43.764  14.895
42023W        W14448  38.172   1.753   2.163
42024W        W14449   6.700   3.722   1.313
42025W        W14450  33.019  30.577   0.309
42026W        W14451  23.644   2.317   0.389
42027W        W14452  37.444  10.957   0.821
42028W        W14453  41.895  32.902  12.917
42029W        W14454   9.732   8.768  12.443
42030W        W14455  13.682  15.570  11.569
42031W        W14456   1.236   3.792  10.957
42032W        W14457  44.912   6.335  14.945
42033W        W14458  16.185  41.816   3.217
42034W        W14459  39.064  35.132   4.095
42035W        W14460  30.052  17.627  14.549
42036W        W14461  39.578  36.065  13.538
42037W        W14462  40.037  12.703  13.323
42038W        W14463   6.797  39.919   1.218
42039W        W14464  29.909   0.027   4.855
42040W        W14465  40.302  17.115  10.474
42041W        W14466  28.556   7.966  12.454
42042W        W14467  32.155   7.804   4.148
42043W        W14468  41.520  44.435  13.883
42044W        W14469  23.331  38.527  11.062
42045W        W14470  28.988   3.724  11.611
42046W        W14471  12.168  15.536  14.932
42047W        W14472  42.591   9.289   2.242
42048W        W14473  19.631   9.247   2.666
42049W        W14474  18.785  25.143   4.572
42050W        W14475  27.732   7.886   0.337
42051W        W14476  33.116   1.961  13.935
42052W        W14477  31.008  20.205   3.340
42053W        W14478   5.263  29.964  13.381
42054W        W14479  41.540  39.574   1.720
42055W        W14480  41.932  26.954  13.015
42056W        W14481  29.148  24.215  13.503
42057W        W14482  11.337   8.172  13.417
42058W        W14483  13.118   4.784   2.021
42059W        W14484  35.479  24.764   0.825
42060W        W14485  10.640   0.468   1.252
42061W        W14486  22.654  16.317  12.508
42062W        W14487  12.713  20.289  12.408
42063W        W14488   1.305   4.330   0.256
42064W        W14489  43.341  14.952  13.321
42065W        W14490   4.997   3.355   4.221
42066W        W14491  14.316  34.066  13.349
42067W        W14492  37.048  13.069  14.278
42068W        W14493   5.190  21.492   4.710
42069W        W14494  36.420  35.832  12.873
42070W        W14495  39.642   4.900  10.777
42071W        W14496   8.686  17.040   5.020
42072W        W14497  12.785  20.120  14.935
42073W        W14498   4.834   2.418   3.179
42074W        W14499  25.563  17.201  10.777
42075W        W14500  36.918  17.597   3.606
42076W        W14501  44.605  30.503  12.880
42077W        W14502  24.638  37.391  10.659
42078W        W14503   4.018  35.974   1.064
42079W        W14504  17.681  24.014  10.715
42080W        W14505  27.267   4.061  11.173
42081W        W14506  37.616   4.222   3.093
42082W        W14507   3.013  28.070   1.738
42083W        W14508  28.936  16.250  12.884
42084W        W14509  20.761   0.447  12.380
42085W        W14510  41.928  31.153  12.429
42086W        W14511  44.613  34.139  13.547
42087W        W14512   3.873  16.260  11.333
42088W        W14513  40.776  16.046   1.362
42089W        W14514   1.234  21.716   2.797
42090W        W14515  30.606  30.081   3.600
42091W        W14516  40.787   5.995  13.544
42092W        W14517  38.090   4.267   3.262
42093W        W14518  43.019  41.567  11.922
42094W        W14519  11.817  26.123  12.035
42095W        W14520   5.752  39.045   2.197
42096W        W14521  16.111  11.862  10.923
42097W        W14522  35.448  21.891  13.762
42098W        W14523   5.005   9.570   2.507
42099W        W14524  39.201  32.887   2.094
42100W        W14525  39.645  40.294  14.380
42101W        W14526  30.506  39.517  14.571
42102W        W14527  40.395  42.254  12.424
42103W        W14528  31.966  11.228  12.524
42104W        W14529  28.931  34.653   4.421
42105W        W14530  23.862  14.781   2.255
42106W        W14531  19.769  41.366   2.950
42107W        W14532  14.673  10.994  12.178
42108W        W14533  24.916  29.856   1.763
42109W        W14534  18.581  41.762   4.116
42110W        W14535   3.182   0.537  12.344
42111W        W14536  27.402   8.184   3.545
42112W        W14537  23.183   4.220   1.450
42113W        W14538   3.982  35.601  11.482
42114W        W14539  33.299  36.526   4.750
42115W        W14540  29.893  37.567   4.082
42116W        W14541  37.539  12.652   1.306
42117W        W14542  30.391  38.032  13.736
42118W        W14543   0.351  18.714   3.545
42119W        W14544  12.859  33.871   2.244
42120W        W14545  33.172  36.957  13.120
42121W        W14546  32.128  26.650   1.809
42122W        W14547   1.036  38.602   3.197
42123W        W14548  36.105   6.971   4.876
42124W        W14549  28.008  23.465  11.146
42125W        W14550  40.406   1.312  14.640
42126W        W14551  27.511  10.723  14.229
42127W        W14552   8.344  42.756   0.797
42128W        W14553  40.978  38.086  14.477
42129W        W14554   6.886  19.270  12.126
42130W        W14555  17.620  15.165   4.203
42131W        W14556  24.608  20.225   1.786
42132W        W14557   4.864  27.921   3.827
42133W        W14558  35.920  37.781   0.050
42134W        W14559  39.264  15.929  12.078
42135W        W14560  38.282   7.969   3.657
42136W        W14561  21.573  25.944  11.189
42137W        W14562  32.467  44.360  13.561
42138W        W14563  37.054   2.458   2.147
42139W        W14564   6.304  10.736   1.756
42140W        W14565  23.679   6.120  11.245
42141W        W14566  43.807  25.357   3.733
42142W        W14567  13.061  41.920  11.548
42143W        W14568  20.776  28.378   2.733
42144W        W14569  36.721  22.048   1.262
42145W        W14570  27.961  21.125  10.326
42146W        W14571  17.281  21.274  14.192
42147W        W14572  42.232  20.161   1.422
42148W        W14573   9.255   0.437  10.610
42149W        W14574  27.914  44.562  10.478
42150W        W14575  21.719  29.824   3.743
42151W        W14576  22.617  43.241   4.389
42152W        W14577  15.277  39.963  14.437
42153W        W14578  33.015  14.644  12.695
42154W        W14579   3.988  16.648   0.964
42155W        W14580  16.619  22.840  13.519
42156W        W14581   6.020  37.387  12.912
42157W        W14582  22.324   3.368   3.702
42158W        W14583  29.347  21.563   4.073
42159W        W14584  31.111  44.257   0.751
42160W        W14585  23.786  22.208  11.415
42161W        W14586   5.712  12.590  12.920
42162W        W14587  23.601  33.611   1.408
42163W        W14588  23.291  31.607   2.622
42164W        W14589   0.461   0.517   3.194
42165W        W14590  22.482  42.881   5.149
42166W        W14591  30.471   5.763  10.630
42167W        W14592  20.075  13.998  13.325
42168W        W14593  41.896  34.880  14.718
42169W        W14594  33.046  22.726   4.560
42170W        W14595  38.960  27.044   0.439
42171W        W14596  34.988  17.416  13.970
42172W        W14597  10.298  23.514  10.695
42173W        W14598  26.206  41.741  10.744
42174W        W14599   0.954  44.471   3.769
42175W        W14600   8.974  25.728   1.735
42176W        W14601   1.407  38.810   4.574
42177W        W14602   7.512  35.081   5.409
42178W        W14603   0.401  29.987  13.102
42179W        W14604  26.687   1.409   3.663
42180W        W14605  27.035  27.727  13.206
42181W        W14606  17.359  23.254  11.626
42182W        W14607   0.089  39.695  11.975
42183W        W14608   0.527  12.136  10.803
42184W        W14609  24.945  13.426  13.386
42185W        W14610  11.581  23.198  12.559
42186W        W14611  43.221  34.600  11.614
42187W        W14612  41.000  10.417   0.849
42188W        W14613   0.761  19.394  14.334
42189W        W14614  39.797  32.913   2.166
42190W        W14615  32.665  38.037  12.626
42191W        W14616  18.353  22.269   0.429
42192W        W14617  30.820  23.657  10.597
42193W        W14618   6.962   6.771   0.257
42194W        W14619  18.316   3.875  11.537
42195W        W14620   0.989  20.490   1.009
42196W        W14621   9.394   9.610  14.436
42197W        W14622  26.886  44.321  14.078
42198W        W14623   1.616  21.112  11.123
42199W        W14624  12.672  17.000   0.914
42200W        W14625  19.959  20.334  11.060
42201W        W14626  35.345   9.048   1.767
42202W        W14627  13.202  14.696  10.696
42203W        W14628  15.064   4.362   1.050
42204W        W14629   6.384  11.587  13.506
42205W        W14630  15.833  42.352  13.958
42206W        W14631  44.962  24.777  13.924
42207W        W14632   0.903  43.490   2.784
42208W        W14633  32.009  14.846   0.310
42209W        W14634  19.447  41.993   4.282
42210W        W14635  29.972  28.374   4.376
42211W        W14636  27.584  13.077  11.555
42212W        W14637  33.537  34.653  13.081
42213W        W14638  14.169  12.631   1.313
42214W        W14639   6.246  31.033   4.422
42215W        W14640   2.306  20.781   3.746
42216W        W14641  16.213  42.321   2.007
42217W        W14642  40.864  20.259   2.325
42218W        W14643  18.602  11.634   2.183
42219W        W14644   9.151  11.960  14.034
42220W        W14645   3.805  12.227   4.645
42221W        W14646  21.211   2.433   0.379
42222W        W14647   1.754  19.640  14.457
42223W        W14648  19.615  32.487   5.433
42224W        W14649   3.466  33.831   3.391
42225W        W14650  18.007   5.152   3.562
42226W        W14651   1.316  10.219  14.056
42227W        W14652   7.436   4.753   3.079
42228W        W14653  32.154  42.059   3.755
42229W        W14654  24.222   6.258  12.005
42230W        W14655  12.304   6.507  13.934
42231W        W14656   7.289  23.941   1.707
42232W        W14657  30.520  27.598   3.124
42233W        W14658  38.630  40.905   2.182
42234W        W14659  11.728   4.020  11.986
42235W        W14660  10.683  43.356   1.301
42236W        W14661   9.332  36.446   1.000
42237W        W14662  29.503  22.546  13.810
42238W        W14663  26.636   1.009  13.934
42239W        W14664  11.150  34.390   0.183
42240W        W14665  34.078  43.869  13.497
42241W        W14666  10.398  19.755   4.215
42242W        W14667   0.964  13.835  11.946
42243W        W14668  43.281   1.007   2.157
42244W        W14669  44.894   2.860  12.075
42245W        W14670  33.598  13.550   2.628
42246W        W14671  44.396  10.881  10.483
42247W        W14672  41.366  37.444  12.969
42248W        W14673  11.788  28.446  10.968
42249W        W14674  17.251  12.191  12.393
42250W        W14675  42.458  29.896   2.001
42251W        W14676  36.701  32.919  13.783
42252W        W14677  33.701  34.738  14.275
42253W        W14678  10.272  18.475  11.641
42254W        W14679  23.990  22.436   0.031
42255W        W14680   3.372  26.988  14.880
42256W        W14681  37.415  37.871   0.854
42257W        W14682  42.913   2.589   2.664
42258W        W14683   6.475  43.926  11.953
42259W        W14684   3.455  23.026   4.682
42260W        W14685  43.034  29.866  13.768
42261W        W14686   0.862   2.656  12.333
42262W        W14687  13.219  12.197  12.844
42263W        W14688  15.987  30.649   3.830
42264W        W14689  42.720   2.289   0.875
42265W        W14690  19.561  19.170   3.065
42266W        W14691  44.637  36.391   2.392
42267W        W14692  29.287  18.031  13.535
42268W        W14693  15.621  35.564   4.927
42269W        W14694  39.464  43.320   1.305
42270W        W14695  33.160  31.124   3.327
42271W        W14696  32.533  12.064  14.284
42272W        W14697   4.260   7.242   2.984
42273W        W14698  40.975  22.449  13.407
42274W        W14699   9.559  39.988  12.965
42275W        W14700  43.083   9.793   4.092
42276W        W14701   8.311   8.891  14.024
42277W        W14702   4.000  16.806  11.540
42278W        W14703  20.586  15.711   2.870
42279W        W14704  26.659  25.513  12.079
42280W        W14705  31.597  20.501  13.613
42281W        W14706  41.255  11.294   2.363
42282W        W14707  12.384  42.992   2.013
42283W        W14708  37.914  22.644  13.165
42284W        W14709  12.980  26.250   2.805
42285W        W14710  31.077  42.629  13.891
42286W        W14711  43.738  30.084   2.163
42287W        W14712  29.054  44.022   3.233
42288W        W14713   8.256  25.595   4.529
42289W        W14714   7.207  34.729  12.430
42290W        W14715  11.913  44.372  10.003
42291W        W14716  44.292   0.305  11.889
42292W        W14717  14.927   4.870   3.919
42293W        W14718  19.191  12.329   4.432
42294W        W14719  14.843   8.580   2.890
42295W        W14720  24.119  13.756  12.064
42296W        W14721  27.825  44.380   4.986
42297W        W14722   7.442  26.475  11.184
42298W        W14723  18.881  20.219   3.491
42299W        W14724  28.276  14.993  12.826
42300W        W14725  35.343  43.216  11.580
42301W        W14726  22.048  21.065  11.087
42302W        W14727  35.594  25.570  13.857
42303W        W14728  32.848  30.392  13.304
42304W        W14729  25.639  20.593  12.538
42305W        W14730  27.715  17.522   1.371
42306W        W14731  40.918  19.831   0.363
42307W        W14732  30.399  19.152   1.450
42308W        W14733  20.815   5.908   0.317
42309W        W14734  38.407  43.873   2.818
42310W        W14735   2.365  31.028   1.820
42311W        W14736  30.486  41.792  13.915
42312W        W14737  25.065   7.868  13.543
42313W        W14738  15.884  39.414  10.777
42314W        W14739  34.923  42.392   2.481
42315W        W14740  11.880   4.788  14.274
42316W        W14741  10.768   8.389   5.668
42317W        W14742  30.939  16.150  14.861
42318W        W14743  25.642  12.928  11.188
42319W        W14744  19.261  13.197  11.604
42320W        W14745  12.886  13.723   4.556
42321W        W14746   7.749  34.828   0.983
42322W        W14747  19.265  37.579  14.685
42323W        W14748  43.852   7.361   2.802
42324W        W14749  21.919   4.465   2.748
42325W        W14750  21.145  19.205  14.762
42326W        W14751  31.519  10.721  14.283
42327W        W14752  29.934  22.294  14.001
42328W        W14753   5.225  17.100  11.391
42329W        W14754   8.613  37.463   2.838
42330W        W14755  32.547  11.575  13.397
42331W        W14756  21.236  16.837  10.657
42332W        W14757  31.931   2.747  13.901
42333W        W14758   5.207   9.536   3.816
42334W        W14759  31.673  27.135   0.114
42335W        W14760   6.395  35.936  14.504
42336W        W14761  25.219  33.670  13.413
42337W        W14762  34.505  10.053   4.809
42338W        W14763  17.516  19.605  10.003
42339W        W14764   9.223  23.570  14.901
42340W        W14765  15.074  37.408  11.124
42341W        W14766   6.841  34.605   0.884
42342W        W14767  11.985  19.717   0.774
42343W        W14768  41.657  42.001  11.988
42344W        W14769  43.907  31.713   0.557
42345W        W14770  12.857  24.058   0.888
42346W        W14771  23.767  20.091   0.596
42347W        W14772  34.123  24.399   1.478
42348W        W14773  41.250  17.279  10.646
42349W        W14774  18.880  24.002   1.218
42350W        W14775  24.116  21.871  13.923
42351W        W14776  13.339  20.726   0.400
42352W        W14777  41.367   3.345   1.232
42353W        W14778  20.610  28.424   1.447
42354W        W14779  42.801   0.947  11.461
42355W        W14780  41.985  12.982  14.359
42356W        W14781  33.640  24.506   1.345
42357W        W14782   8.582  21.300   4.237
42358W        W14783  15.734  26.551   4.174
42359W        W14784  33.980  28.390  14.356
42360W        W14785  19.585  17.132  13.603
42361W        W14786  23.717   9.446   2.958
42362W        W14787  41.027  31.536   3.292
42363W        W14788  11.059  32.589  10.651
42364W        W14789  18.307   2.044   4.690
42365W        W14790  17.263  44.113   4.215
42366W        W14791   3.514  21.657   1.725
42367W        W14792  43.241  18.104  11.000
42368W        W14793  27.984  40.550   3.596
42369W        W14794  38.098  31.479  12.838
42370W        W14795  36.187   6.819   1.923
42371W        W14796  24.967   4.310  12.360
42372W        W14797   0.315  41.455  10.823
42373W        W14798  18.708  24.969   2.283
42374W        W14799  16.240  23.416  11.702
42375W        W14800  17.663  28.171   0.867
42376W        W14801   8.872  16.739   4.619
42377W        W14802  36.508  19.823  11.685
42378W        W14803   8.976  33.122   3.309
42379W        W14804  11.659  28.770   3.295
42380W        W14805   4.710  43.236  12.588
42381W        W14806  11.203  27.056   1.193
42382W        W14807  22.952  19.119  13.078
42383W        W14808   8.743   7.567  14.575
42384W        W14809  34.472  16.379  10.643
42385W        W14810  18.124  38.908  13.389
42386W        W14811   5.215   2.009  11.637
42387W        W14812  15.334  11.389   0.059
42388W        W14813  23.970  13.278   2.314
42389W        W14814   1.950  16.671  11.524
42390W        W14815   1.446  38.636  11.130
42391W        W14816   0.878  30.574  13.381
42392W        W14817  31.982  26.724   2.329
42393W        W14818  38.023  14.337  13.998
42394W        W14819  38.992  24.981   0.740
42395W        W14820  33.379  38.029   0.036
42396W        W14821  15.995   3.064   2.835
42397W        W14822  43.636  19.984  11.472
42398W        W14823  25.261  31.703   2.707
42399W        W14824  28.456   8.871  10.589
42400W        W14825  27.654   0.286  13.246
42401W        W14826  22.030  10.234   1.514
42402W        W14827  21.004  39.053  10.380
42403W        W14828  41.299   5.859  12.964
42404W        W14829  17.764   3.268   4.351
42405W        W14830  34.145  43.541  11.872
42406W        W14831  43.456  39.603  14.040
42407W        W14832  32.714  32.039   1.916
42408W        W14833  20.255  35.044   2.385
42409W        W14834  26.116  14.219   3.644
42410W        W14835  26.415  15.920   4.101
42411W        W14836  20.302  24.762   0.929
42412W        W14837   5.024   6.223   5.100
42413W        W14838   0.914   6.831  14.509
42414W        W14839  43.951  13.674   1.812
42415W        W14840  10.359  15.241  10.714
42416W        W14841  41.579  23.511  10.561
42417W        W14842  17.402  26.081  12.144
42418W        W14843  11.109   8.405  13.824
42419W        W14844  37.617  14.553  14.782
42420W        W14845  36.433  10.873  10.801
42421W        W14846  18.191  13.171   1.012
42422W        W14847   0.261  30.256  13.499
42423W        W14848  42.862  39.146   3.417
42424W        W14849  26.898  34.590  13.399
42425W        W14850  33.577   4.427   2.790
42426W        W14851  35.012  34.160   3.233
42427W        W14852  13.862  30.126  10.717
42428W        W14853  12.184  28.949  12.353
42429W        W14854  28.190   3.972  13.421
42430W        W14855  41.276   4.193  11.051
42431W        W14856   6.981  41.405   1.693
42432W        W14857  26.711   4.324  11.992
42433W        W14858  37.087  22.703   4.261
42434W        W14859  22.155  30.185   3.417
42435W        W14860   4.241  34.681   2.381
42436W        W14861   4.701  12.871  13.983
42437W        W14862  44.793  11.751  10.843
42438W        W14863   6.969  39.508   3.931
42439W        W14864  18.828  39.013  10.827
42440W        W14865  19.630  43.707   3.108
42441W        W14866  11.504  15.673  13.253
42442W        W14867  29.222  20.271  12.336
42443W        W14868  38.408   9.664   3.343
42444W        W14869   6.394  43.492  12.918
42445W        W14870  37.546  37.412  14.889
42446W        W14871  33.116   9.181  14.884
42447W        W14872  13.708  22.562   4.527
42448W        W14873  36.526  12.497   1.898
42449W        W14874  13.240   5.810   1.243
42450W        W14875   7.139  41.778   2.322
42451W        W14876  15.367   9.268   1.309
42452W        W14877  44.207  25.549   0.329
42453W        W14878  24.148  20.244  14.421
42454W        W14879  16.402  34.913  13.384
42455W        W14880  30.128   9.924   2.659
42456W        W14881  25.091  13.210  11.241
42457W        W14882  16.308  30.693   4.217
42458W        W14883  38.837   0.464  11.075
42459W        W14884   1.420  17.890  14.558
42460W        W14885  40.419  39.542  10.480
42461W        W14886  39.111  34.418  14.899
42462W        W14887  22.718  30.132  11.978
42463W        W14888  37.573  12.945   3.214
42464W        W14889   9.319  19.066   0.522
42465W        W14890   1.454  10.218  14.603
42466W        W14891  34.195  14.029   3.840
42467W        W14892   4.059  15.352  11.362
42468W        W14893  28.548  24.315  13.286
42469W        W14894  34.256  44.499  11.676
42470W        W14895  39.770  29.072   3.584
42471W        W14896  15.312  38.220  10.808
42472W        W14897  36.025  14.100   4.598
42473W        W14898  31.465  43.052   1.838
42474W        W14899   4.802  41.545   3.665
42475W        W14900  14.221   7.785  14.438
42476W        W14901  10.186  20.525   4.583
42477W        W14902  15.919  26.656   3.049
42478W        W14903  32.920   0.254   0.447
42479W        W14904  16.298  27.218  12.863
42480W        W14905  28.251  11.935   1.893
42481W        W14906  22.757  27.784  13.104
42482W        W14907  14.288   0.304  11.446
42483W        W14908  44.675  14.210   0.649
42484W        W14909  38.642  14.171  14.756
42485W        W14910  14.026   7.417   1.880
42486W        W14911  17.074  15.588   1.784
42487W        W14912  12.330  36.944   0.380
42488W        W14913  24.522   1.784  12.909
42489W        W14914  18.702  11.878  14.304
42490W        W14915  15.120  36.425  10.721
42491W        W14916   5.648  37.472   3.890
42492W        W14917  42.003  22.116   0.780
42493W        W14918  32.129   6.785   1.870
42494W        W14919  33.333   3.123   2.649
42495W        W14920  16.761  23.650   2.849
42496W        W14921  20.091  27.225  14.921
42497W        W14922   6.010  31.434   1.267
42498W        W14923   4.839   6.275   1.927
42499W        W14924  24.025  26.949  10.576
42500W        W14925  15.217   0.004  11.553
42501W        W14926  34.867  30.643  13.492
42502W        W14927  15.037  27.368  12.065
42503W        W14928  18.622   1.008  13.810
42504W        W14929   8.757   9.854   4.880
42505W        W14930  41.936  36.858  13.367
42506W        W14931  17.510   7.797  14.538
42507W        W14932  38.358  32.040  14.513
42508W        W14933  30.928   3.175   0.048
42509W        W14934  13.760  39.552  12.421
42510W        W14935  14.604   1.257  11.529
42511W        W14936  12.174  18.721  11.953
42512W        W14937  21.043  22.235   3.215
42513W        W14938  18.511  42.700   2.749
42514W        W14939   2.281  33.658   3.555
42515W        W14940  32.354  21.664  12.106
42516W        W14941  10.370  23.318   0.378
42517W        W14942  39.394  41.097  12.520
42518W        W14943  19.008   1.338   5.386
42519W        W14944  44.370  26.183   4.164
42520W        W14945  26.710  10.238  12.392
42521W        W14946  10.230  20.426   0.843
42522W        W14947   9.942   3.405   3.191
42523W        W14948  11.154  38.285  13.979
42524W        W14949  35.708  36.624   3.725
42525W        W14950  33.501  33.620  11.030
42526W        W14951  32.904  17.250  10.719
42527W        W14952  21.597  19.321  12.918
42528W        W14953   6.409  24.085   2.358
42529W        W14954  40.658   7.101   4.074
42530W        W14955  16.908  26.183   4.346
42531W        W14956  42.483  13.890  12.811
42532W        W14957  29.009  10.760   2.062
42533W        W14958  23.366  22.743   0.709
42534W        W14959   5.909  28.109  10.727
42535W        W14960  40.046   3.633   3.676
42536W        W14961  35.364  19.150   1.611
42537W        W14962  35.868  11.090   2.777
42538W        W14963  19.233  17.107  14.008
42539W        W14964  23.220  34.087  13.454
42540W        W14965   4.396  34.441  12.418
42541W        W14966  11.178  38.283   4.288
42542W        W14967  15.755  25.079   4.385
42543W        W14968   5.760  21.897   1.058
42544W        W14969  15.726  28.478   1.508
42545W        W14970  21.051  29.203   4.659
42546W        W14971  12.676  31.870   1.732
42547W        W14972  13.061  16.246   1.894
42548W        W14973   3.147  20.484  14.683
42549W        W14974   0.028  28.182   2.751
42550W        W14975  27.275   8.227   2.447
42551W        W14976   9.929  13.830  10.705
42552W        W14977   9.679  20.108   4.133
42553W        W14978   8.280  38.792   1.276
42554W        W14979  19.150  35.595  14.532
42555W        W14980  37.532  33.568   4.117
42556W        W14981   6.444  32.349  12.862
42557W        W14982   4.796  20.557  11.244
42558W        W14983  29.989  43.719  14.801
42559W        W14984   7.388   5.925  14.871
42560W        W14985  20.539   4.953  13.432
42561W        W14986  23.730  31.401   0.478
42562W        W14987   9.906  36.152   2.634
42563W        W14988  19.328  20.623   0.240
42564W        W14989  17.265  24.198  11.508
42565W        W14990  42.410  21.197   4.229
42566W        W14991  23.591  36.399   3.172
42567W        W14992  25.706   3.833   4.556
42568W        W14993   5.849  24.653  12.399
42569W        W14994  10.774   4.169   2.419
42570W        W14995  25.888  24.572  12.639
42571W        W14996  30.651   3.794  13.367
42572W        W14997   6.861   2.542  11.169
42573W        W14998  28.097   3.842  11.125
42574W        W14999  26.742  36.139   1.410
42575W        W15000   1.085  33.384  10.050
42576W        W15001  24.601  40.382   0.930
42577W        W15002  42.765  35.915  12.600
42578W        W15003  38.092  21.944  13.956
42579W        W15004  32.933  23.531  12.410
42580W        W15005  15.046  18.153  11.881
42581W        W15006  29.653  42.305   0.265
42582W        W15007  38.599  34.093   4.123
42583W        W15008  14.582  16.463   0.596
42584W        W15009  40.919  44.272   1.452
42585W        W15010  33.273  13.367   0.317
42586W        W15011   3.610   9.241  13.854
42587W        W15012  18.950  32.675   1.362
42588W        W15013  30.493   6.297   4.628
42589W        W15014  25.467   6.929   3.717
42590W        W15015  39.037  30.679  12.941
42591W        W15016   4.458  34.072  13.495
42592W        W15017  39.429  24.633   1.414
42593W        W15018   3.315  32.756   4.139
42594W        W15019  16.931  28.107  12.865
42595W        W15020   3.413  28.355  14.320
42596W        W15021  38.587   7.795  13.806
42597W        W15022  11.578  23.010  14.446
42598W        W15023   5.002  44.953   3.729
42599W        W15024  15.688  26.697   5.122
42600W        W15025   0.904  41.383   2.225
42601W        W15026  42.575  37.620  11.713
42602W        W15027   8.801  12.409  13.386
42603W        W15028  34.215  28.060  12.440
42604W        W15029   4.918   8.618  11.116
42605W        W15030  42.772  12.565  11.807
42606W        W15031  30.570  32.956  10.584
42607W        W15032  10.302   3.272   0.751
42608W        W15033  39.990  34.053  12.002
42609W        W15034  23.917  13.598  13.476
42610W        W15035  21.662   7.360   1.277
42611W        W15036  14.735   0.964   4.718
42612W        W15037  43.990  28.567  13.974
42613W        W15038  22.057   2.362  12.723
42614W        W15039  30.088  24.695   2.280
42615W        W15040   6.734  41.181  11.906
42616W        W15041  17.283   3.771  11.382
42617W        W15042  19.719   6.717   0.213
42618W        W15043  31.207   6.929  12.948
42619W        W15044  44.813  37.016   1.831
42620W        W15045   8.370  18.785  14.014
42621W        W15046   1.245  12.855   2.359
42622W        W15047   0.727   8.506  13.353
42623W        W15048   6.934  43.740  12.942
42624W        W15049   5.233  23.941  10.433
42625W        W15050  44.215   8.362   1.358
42626W        W15051   7.379  25.974  14.396
42627W        W15052  40.937  22.874   1.360
42628W        W15053  31.865  36.029   0.307
42629W        W15054  28.362  15.768  13.426
42630W        W15055  44.528  16.439   3.756
42631W        W15056  40.429  41.990   4.817
42632W        W15057  12.056  42.912  14.268
42633W        W15058  39.799   8.175   4.664
42634W        W15059  39.345  24.959   2.790
42635W        W15060  19.395  24.470   0.550
42636W        W15061  27.591  18.062  14.486
42637W        W15062  35.432  29.169  13.330
42638W        W15063  42.296   5.473   2.925
42639W        W15064  35.992  18.346   4.929
42640W        W15065  23.180   8.559  11.524
42641W        W15066  32.638  21.370  11.034
42642W        W15067   1.724  16.222  13.546
42643W        W15068  22.469  32.154  10.497
42644W        W15069  27.218   5.809   4.207
42645W        W15070  13.595   6.932  11.593
42646W        W15071  31.342  16.349  10.263
42647W        W15072  33.988  22.124   0.238
42648W        W15073  39.285  29.992  10.783
42649W        W15074  30.085  33.909   2.810
42650W        W15075  22.804  21.154   1.335
42651W        W15076  25.168  15.772  12.584
42652W        W15077  22.276   6.601  11.952
42653W        W15078   4.394  38.776  12.527
42654W        W15079  23.547  41.843  13.568
42655W        W15080  16.655   9.345  13.279
42656W        W15081  42.979   3.416  10.209
42657W        W15082  13.749  20.669   4.199
42658W        W15083   0.677  43.804  13.738
42659W        W15084  36.861  31.328   2.778
42660W        W15085  32.385   3.431   1.819
42661W        W15086  19.753   3.271   3.374
42662W        W15087  20.470  31.346   0.667
42663W        W15088  11.695  31.552   0.512
42664W        W15089  14.001  27.710   3.621
42665W        W15090   5.276  26.911  13.467
42666W        W15091   0.842  17.330  11.958
42667W        W15092  28.478  33.379  11.696
42668W        W15093   0.423  27.668  13.331
42669W        W15094   5.230  35.333   4.721
42670W        W15095  17.169  10.659   1.259
42671W        W15096   5.763  34.014  11.239
42672W        W15097  38.784   0.696  10.612
42673W        W15098  41.051  19.590   1.282
42674W        W15099   0.870  15.057  12.552
42675W        W15100  26.005   5.322  13.419
42676W        W15101  10.545  23.502  10.053
42677W        W15102  14.235  14.905  12.990
42678W        W15103  39.079  25.142  13.892
42679W        W15104  15.819  15.847  13.821
42680W        W15105   1.760  32.496   0.459
42681W        W15106  22.224   6.522   0.198
42682W        W15107  42.915  27.439  11.586
42683W        W15108  11.372   2.896   3.190
42684W        W15109  36.559  24.133  10.508
42685W        W15110  30.010  25.593  14.156
42686W        W15111  32.899  36.886   2.831
42687W        W15112  17.835   5.310   2.880
42688W        W15113   9.959   9.219   4.612
42689W        W15114  10.953   0.785  10.793
42690W        W15115  42.018  30.223  11.166
42691W        W15116  36.859  13.039   0.212
42692W        W15117  35.391  19.523   2.260
42693W        W15118  19.128   5.816  14.326
42694W        W15119   8.939  31.554  13.925
42695W        W15120  33.593   5.295   0.357
42696W        W15121   8.309  32.418   3.596
42697W        W15122  32.153  19.819  11.011
42698W        W15123  36.594  34.345  12.894
42699W        W15124  41.945  22.316  12.517
42700W        W15125  16.679  39.298   1.522
42701W        W15126   7.291  11.684   2.186
42702W        W15127  43.015  23.970  14.910
42703W        W15128  35.616  24.782  10.052
42704W        W15129  39.802  29.046   0.353
42705W        W15130  25.466  11.239   3.778
42706W        W15131  32.428  23.621  12.202
42707W        W15132  28.719  12.433   2.656
42708W        W15133  44.047  16.239  12.055
42709W        W15134  34.380   0.461  11.952
42710W        W15135  19.196  19.503  13.085
42711W        W15136  36.941  42.294   0.389
42712W        W15137   3.367   1.570   4.068
42713W        W15138  10.520  12.172  11.565
42714W        W15139   5.709  38.847   0.647
42715W        W15140   1.007  26.894  14.302
42716W        W15141  16.776  25.362  14.783
42717W        W15142  29.641   5.220   0.388
42718W        W15143  22.057   6.316   2.161
42719W        W15144  24.174  41.451  11.633
42720W        W15145  15.733   6.912  13.531
42721W        W15146  26.722   6.677  11.210
42722W        W15147  23.200   2.510  12.915
42723W        W15148   3.382  30.521  10.841
42724W        W15149  40.519  25.895   4.102
42725W        W15150  35.453  15.870   3.804
42726W        W15151  27.513  29.687   1.829
42727W        W15152   7.738  25.256  11.741
42728W        W15153   6.020  32.011   3.738
42729W        W15154  42.320  29.473  13.875
42730W        W15155   3.354  14.595   4.278
42731W        W15156  24.666  19.612  10.866
42732W        W15157  15.173  33.162  11.420
42733W        W15158  28.484  42.433   4.626
42734W        W15159  11.492  32.897   0.789
42735W        W15160  21.377  35.966  10.748
42736W        W15161  28.897  19.983   3.535
42737W        W15162  34.583  25.040  10.882
42738W        W15163   7.473  19.171  11.570
42739W        W15164  15.196   3.650  10.721
42740W        W15165   6.455  10.312  13.624
42741W        W15166  40.488  11.590  12.073
42742W        W15167   9.252  33.939   2.873
42743W        W15168  12.558  25.546  12.907
42744W        W15169  34.092  36.133   2.330
42745W        W15170  16.236  37.122  13.814
42746W        W15171  41.450  43.998   0.362
42747W        W15172   3.963  37.024  12.886
42748W        W15173  11.946  29.960   2.432
42749W        W15174  28.162  31.228  12.068
42750W        W15175  38.613  38.101   3.189
42751W        W15176   3.368   2.226   1.309
42752W        W15177  10.226  13.033  10.609
42753W        W15178  28.606  16.643   3.295
42754W        W15179  18.639   0.453   0.843
42755W        W15180  43.102  31.673   3.483
42756W        W15181  29.736   3.454   2.932
42757W        W15182  31.864  27.537  11.672
42758W        W15183  31.549   2.166  10.705
42759W        W15184  44.781  36.589  12.879
42760W        W15185  24.654  39.304  11.455
42761W        W15186  15.706  39.507   1.951
42762W        W15187  36.359   0.873  13.038
42763W        W15188  28.926  27.668   3.342
42764W        W15189  23.624  19.329  11.718
42765W        W15190   1.429  31.642  10.796
42766W        W15191  23.153  44.487   0.643
42767W        W15192  13.061  23.153  13.049
42768W        W15193  15.087  42.455   3.267
42769W        W15194   0.159  29.107  11.192
42770W        W15195   7.402  32.877  14.300
42771W        W15196  20.728  15.637  13.602
42772W        W15197  27.150  28.719   1.316
42773W        W15198  37.578  14.897   0.177
42774W        W15199  35.645  34.450   1.813
42775W        W15200   9.458  22.025  14.950
42776W        W15201  34.798  41.956   3.275
42777W        W15202   9.351  39.278   3.727
42778W        W15203  11.207  12.010   3.321
42779W        W15204  32.848  31.653   4.095
42780W        W15205  44.693  43.883  13.955
42781W        W15206  18.055  36.622   0.879
42782W        W15207  31.190  29.057   2.252
42783W        W15208  44.121  10.120   0.332
42784W        W15209   5.949  19.204  12.044
42785W        W15210   3.071   5.009   2.356
42786W        W15211  29.104  21.328   1.234
42787W        W15212   4.700  11.821  14.938
42788W        W15213  43.959  33.877  12.021
42789W        W15214  26.302   2.874   2.354
42790W        W15215  28.939   1.398  13.855
42791W        W15216  11.591   0.452  10.398
42792W        W15217   5.625  12.130  10.454
42793W        W15218  14.739  20.356  12.708
42794W        W15219  34.440  33.848   1.634
42795W        W15220  25.593  38.131  12.939
42796W        W15221   7.400  35.442   2.718
42797W        W15222   8.055  32.077   3.221
42798W        W15223  29.611  25.766  12.608
42799W        W15224  19.736  16.091  11.057
42800W        W15225   5.741  14.835   3.728
42801W        W15226  39.083  21.018   3.801
42802W        W15227   5.971  40.705  13.986
42803W        W15228  12.859  19.498  11.940
42804W        W15229   6.705  35.068  12.962
42805W        W15230  25.057  32.507  10.699
42806W        W15231  29.596  39.019  14.780
42807W        W15232  11.019   4.198   2.869
42808W        W15233  33.078  12.123   0.959
42809W        W15234  30.928  11.857   2.269
42810W        W15235  22.593  28.146  12.009
42811W        W15236  31.540  23.693  12.187
42812W        W15237  28.391  34.801  11.577
42813W        W15238   4.303  36.885   4.643
42814W        W15239  24.989  21.707   3.812
42815W        W15240  19.808   8.850  10.667
42816W        W15241  11.577  18.696   0.900
42817W        W15242  42.506  44.887  13.553
42818W        W15243   3.694  32.204  13.741
42819W        W15244  10.175  28.829   2.944
42820W        W15245  24.682  41.940  11.504
42821W        W15246   1.511   6.770  13.484
42822W        W15247  34.657  25.377  10.500
42823W        W15248  15.989  28.591  14.967
42824W        W15249   4.462  32.783  14.419
42825W        W15250   8.244   5.584  12.132
42826W        W15251  19.728  12.336  11.286
42827W        W15252  15.345  30.200   4.161
42828W        W15253   0.632  32.076  10.564
42829W        W15254  18.485  12.322   2.332
42830W        W15255  15.133  19.502   1.221
42831W        W15256  30.394  10.088   0.757
42832W        W15257   3.471  28.509  12.371
42833W        W15258  31.053  41.417  14.382
42834W        W15259  19.745  43.945   3.555
42835W        W15260  13.129  11.164  13.080
42836W        W15261  15.575  11.736   0.397
42837W        W15262  27.293   1.974   3.835
42838W        W15263  14.830   9.943   3.152
42839W        W15264  13.607  15.806  11.099
42840W        W15265  42.148   7.146   4.225
42841W        W15266   9.895  11.676   4.730
42842W        W15267  38.031  20.651   3.292
42843W        W15268  31.098   9.998   1.990
42844W        W15269  42.230   4.906   1.882
42845W        W15270  35.481  21.228   0.676
42846W        W15271  30.993  33.172  11.567
42847W        W15272  30.251  37.341  12.524
42848W        W15273  13.796  39.089   2.626
42849W        W15274  43.995  43.877   3.711
42850W        W15275  32.624  34.273  13.121
42851W        W15276  16.044  21.787  10.530
42852W        W15277   0.436  36.888  10.787
42853W        W15278   3.718  31.906   3.645
42854W        W15279  19.500  30.476   2.232
42855W        W15280  20.769  40.665   2.983
42856W        W15281  11.790   6.712  13.954
42857W        W15282   5.762  23.757  12.098
42858W        W15283  14.132  29.039  14.340
42859W        W15284  29.180  39.780  12.634
42860W        W15285  25.137  16.862  13.449
42861W        W15286  24.141  14.547   4.947
42862W        W15287  24.466  18.842  10.232
42863W        W15288  24.935  17.016   1.241
42864W        W15289  44.297  16.594   2.953
42865W        W15290  39.075  41.693  10.562
42866W        W15291  23.142  25.771   0.358
42867W        W15292  12.670  33.501   2.551
42868W        W15293   3.530  33.472   1.753
42869W        W15294  28.963   5.711  12.534
42870W        W15295  30.935   3.294  12.473
42871W        W15296  32.854   1.981   1.381
42872W        W15297  36.524  42.901  11.109
42873W        W15298   7.573  17.348   1.845
42874W        W15299  15.711  24.587  10.215
42875W        W15300   4.161  14.839   1.189
42876W        W15301  15.109  43.075   0.850
42877W        W15302  29.197  28.211   2.503
42878W        W15303  31.654  39.388   2.843
42879W        W15304   6.330  38.615   3.089
42880W        W15305  13.294  26.514   1.386
42881W        W15306  23.673  10.738   2.801
42882W        W15307  41.091  39.359  12.542
42883W        W15308   7.919  42.453   2.140
42884W        W15309  16.114  19.856   0.249
42885W        W15310  21.016  18.095  10.720
42886W        W15311   7.948  31.938  10.631
42887W        W15312  10.164  36.967   1.228
42888W        W15313   3.743  12.627   1.654
42889W        W15314  44.289  12.643   2.883
42890W        W15315  14.516  41.622  12.324
42891W        W15316  26.179  23.708   1.647
42892W        W15317   5.243  37.524   0.048
42893W        W15318  29.036  32.015   1.018
42894W        W15319  36.577  16.403   1.419
42895W        W15320  26.050  38.784   0.026
42896W        W15321   6.744  16.179  11.165
42897W        W15322   6.830  32.087   2.189
42898W        W15323  25.680   3.177   1.315
42899W        W15324  29.227  30.723   0.391
42900W        W15325  22.763   8.856   3.857
42901W        W15326  42.096  14.932   0.143
42902W        W15327  34.475  24.880   0.173
42903W        W15328   6.915   3.375   1.734
42904W        W15329  42.574  37.916  14.345
42905W        W15330  26.150   9.357   2.100
42906W        W15331  13.638  30.891   3.252
42907W        W15332  14.504  43.775  13.012
42908W        W15333  14.505  32.233  14.136
42909W        W15334  11.434  35.047  13.783
42910W        W15335  14.865  37.490   4.188
42911W        W15336  18.896   0.987  10.703
42912W        W15337  44.436  29.500   3.222
42913W        W15338   1.945  33.664   2.781
42914W        W15339  31.031  19.202   1.676
42915W        W15340   6.281  24.756   3.250
42916W        W15341   5.626  27.547   3.071
42917W        W15342   3.949  34.008   4.784
42918W        W15343  23.720  41.288   1.141
42919W        W15344  33.473  10.143   3.284
42920W        W15345  43.708  33.078   2.476
42921W        W15346  40.546   8.766  14.395
42922W        W15347  26.748  18.091   2.703
42923W        W15348  30.354  44.038   2.753
42924W        W15349   5.610  13.522   0.367
42925W        W15350  43.902   3.053   5.221
42926W        W15351  41.669   9.429   5.177
42927W        W15352   6.707  41.800   1.464
42928W        W15353  11.788  27.717   0.719
42929W        W15354  12.533   2.455   1.479
42930W        W15355  28.625  11.201   0.819
42931W        W15356  43.060   5.684  14.998
42932W        W15357   2.001   7.211   0.659
42933W        W15358  28.964  34.673  13.302
42934W        W15359  16.560  19.675  13.691
42935W        W15360  27.612  34.689   3.769
42936W        W15361   3.430  36.828  12.948
42937W        W15362   0.988  15.986   0.046
42938W        W15363  29.629  17.650  13.406
42939W        W15364  12.332   6.646  14.764
42940W        W15365  23.552  24.617  12.791
42941W        W15366  14.570  15.385  13.816
42942W        W15367  19.060  30.137   3.334
42943W        W15368  40.362  37.069  14.944
42944W        W15369  35.380  10.705  10.626
42945W        W15370  33.408  35.697   2.947
42946W        W15371   1.243  44.918   2.269
42947W        W15372   7.497   9.947   1.239
42948W        W15373  29.099  17.758   2.182
42949W        W15374  22.310  25.679   2.867
42950W        W15375  16.537   6.720  11.641
42951W        W15376  34.910  13.569  11.701
42952W        W15377  16.115  39.077  11.247
42953W        W15378  24.543  28.677  10.682
42954W        W15379   0.686  42.215   2.785
42955W        W15380   7.381  23.275   4.567
42956W        W15381  13.386  26.530   5.055
42957W        W15382  20.038   4.998  11.604
42958W        W15383   7.949  11.710   2.885
42959W        W15384  10.420  19.611  11.758
42960W        W15385  29.158   5.399   1.810
42961W        W15386  27.053   2.075  13.109
42962W        W15387  28.096   2.897   1.838
42963W        W15388  12.808  19.190   4.359
42964W        W15389  23.612  42.686  12.583
42965W        W15390  41.658  16.398  14.082
42966W        W15391  43.423  13.168   0.268
42967W        W15392  27.004  27.598  13.708
42968W        W15393  17.740  33.859  12.766
42969W        W15394  36.633  25.915  11.880
42970W        W15395  35.073  28.263  11.115
42971W        W15396   6.774  11.893  11.080
42972W        W15397  18.678  13.743   4.097
42973W        W15398  16.963  16.605  11.418
42974W        W15399   6.843  13.884   4.132
42975W        W15400  25.080  21.084   5.310
42976W        W15401  38.837  41.371   2.344
42977W        W15402   1.321  42.975   2.276
42978W        W15403  10.034  34.026  13.765
42979W        W15404   5.855  13.935  13.340
42980W        W15405  13.531   5.968   3.340
42981W        W15406  29.092  31.577  14.009
42982W        W15407   0.964  38.360  11.146
42983W        W15408   8.748  26.666  12.457
42984W        W15409  41.821  19.526  11.004
42985W        W15410  25.505  39.352   2.697
42986W        W15411   3.282  21.990   2.637
42987W        W15412   8.919  18.987   1.792
42988W        W15413  41.932  28.527   0.311
42989W        W15414  43.377  25.287  11.063
42990W        W15415   2.141  27.689  13.946
42991W        W15416  17.719  14.596  14.333
42992W        W15417  23.378  35.991  11.400
42993W        W15418  31.194  24.774  11.181
42994W        W15419  33.908  21.148  10.172
42995W        W15420  44.869  41.548   2.652
42996W        W15421  10.673  15.257  13.824
42997W        W15422  18.634  12.519  12.611
42998W        W15423  36.081  26.963   2.780
42999W        W15424  21.617  25.127  13.792
43000W        W15425  37.338  12.401  11.157
43001W        W15426   8.152  11.784   4.807
43002W        W15427   6.826  21.058   0.430
43003W        W15428  42.474  21.691   1.252
43004W        W15429  17.727  42.241   2.854
43005W        W15430  12.498  33.550   2.025
43006W        W15431  12.703  10.251  13.559
43007W        W15432  12.055  24.604   1.989
43008W        W15433  26.979  19.442   4.119
43009W        W15434  37.990  11.611  13.046
43010W        W15435  29.628  25.230  12.688
43011W        W15436  33.543  39.468  12.048
43012W        W15437   6.784  21.155  10.948
43013W        W15438  10.393   2.556   2.407
43014W        W15439  30.687  33.498  10.732
43015W        W15440   2.914  30.591  10.647
43016W        W15441  20.377  31.513  11.932
43017W        W15442  30.968  34.896   1.751
43018W        W15443   1.679   3.474  13.542
43019W        W15444  43.540  15.174   4.214
43020W        W15445   3.828   8.729   1.973
43021W        W15446  25.377  29.519  11.176
43022W        W15447  44.393  18.661   4.576
43023W        W15448  30.067  32.185   4.735
43024W        W15449  27.211   9.128   3.286
43025W        W15450   4.361  18.755  13.572
43026W        W15451   0.311   3.343  13.376
43027W        W15452  16.046   3.780  13.810
43028W        W15453  40.904  42.344  13.009
43029W        W15454  23.161  29.167  14.256
43030W        W15455  26.591  11.895  13.093
43031W        W15456  25.919  31.066   1.065
43032W        W15457  34.874   7.438  10.592
43033W        W15458  38.143  34.915   4.021
43034W        W15459  28.584  11.495  14.406
43035W        W15460  13.367  44.978   4.086
43036W        W15461  15.738  26.158   0.725
43037W        W15462  44.876   0.862   2.363
43038W        W15463  32.140   3.033  14.846
43039W        W15464   4.804   2.500   4.492
43040W        W15465  34.631  28.169   2.709
43041W        W15466   7.899  36.861  11.577
43042W        W15467   0.040  30.629   1.797
43043W        W15468  35.445  24.240   4.431
43044W        W15469  42.396  30.889   4.718
43045W        W15470  39.353   3.182   2.210
43046W        W15471  38.514  10.846   2.587
43047W        W15472  30.670  18.724   4.111
43048W        W15473  18.263  37.617   2.264
43049W        W15474   4.896  29.616  11.207
43050W        W15475  25.194  26.220  13.169
43051W        W15476  40.046  11.248  10.990
43052W        W15477   4.933  10.125  14.918
43053W        W15478  16.607   8.677   1.657
43054W        W15479   4.930  25.087   4.165
43055W        W15480   8.727  11.726   1.286
43056W        W15481   1.520  22.262  11.214
43057W        W15482   3.766  33.360   0.249
43058W        W15483  28.251  25.712  11.505
43059W        W15484  11.267  36.875  13.528
43060W        W15485  26.383  27.341  12.053
43061W        W15486  38.267   7.963  11.847
43062W        W15487  13.274  42.011   1.825
43063W        W15488  19.240   3.645   0.737
43064W        W15489   5.763  12.625  10.651
43065W        W15490   7.631  35.701  12.070
43066W        W15491  15.768  35.271   3.942
43067W        W15492  24.270  31.202  11.883
43068W        W15493  33.874  32.361   4.413
43069W        W15494  12.337  21.935   4.255
43070W        W15495  20.065  24.254  10.801
43071W        W15496  36.622  22.187  11.059
43072W        W15497  12.370  29.894   3.423
43073W        W15498  34.605  16.897  13.379
43074W        W15499  42.751   8.257  12.592
43075W        W15500  25.288  19.154  12.974
43076W        W15501  26.520  42.318  11.658
43077W        W15502  31.603  12.695  11.564
43078W        W15503  39.830  43.800   3.165
43079W        W15504  27.908  25.671   0.481
43080W        W15505  30.493   6.855  13.416
43081W        W15506   9.987   7.844  10.990
43082W        W15507  13.714  39.219  12.834
43083W        W15508  20.929  44.034   2.753
43084W        W15509   6.359  42.121   2.178
43085W        W15510  21.230  31.515  11.100
43086W        W15511  40.710  14.623   4.150
43087W        W15512  17.772  42.021  11.906
43088W        W15513  43.561  17.729   3.189
43089W        W15514  39.096  24.669   0.317
43090W        W15515  14.581  32.994  14.457
43091W        W15516   6.333   8.213  13.852
43092W        W15517   8.645  20.628  14.354
43093W        W15518  41.783  11.880   3.790
43094W        W15519  38.766  37.001   0.181
43095W        W15520   0.256  22.074   0.939
43096W        W15521  14.611  12.078   5.058
43097W        W15522  34.793  26.605  13.311
43098W        W15523  23.631  14.371  13.346
43099W        W15524  34.381  33.192  12.490
43100W        W15525  41.345  20.764   2.760
43101W        W15526  44.704  40.482  12.375
43102W        W15527   5.461   6.389  14.288
43103W        W15528  14.845  16.455   4.502
43104W        W15529   3.315  36.864  11.192
43105W        W15530  24.675  25.187   2.496
43106W        W15531   6.681  12.773  12.641
43107W        W15532  15.347  43.802  14.811
43108W        W15533  33.931  18.716  10.128
43109W        W15534  24.825  33.748  10.706
43110W        W15535   9.136  32.019  14.686
43111W        W15536  17.631  10.673  13.973
43112W        W15537  14.396   7.393  11.517
43113W        W15538   7.306  34.988   2.449
43114W        W15539  29.472  17.947  10.086
43115W        W15540   7.405  43.750  12.741
43116W        W15541  27.960   8.110  14.891
43117W        W15542  13.391  24.158   3.212
43118W        W15543  14.984  33.540   5.058
43119W        W15544  15.109  39.711   3.719
43120W        W15545  36.593  14.543   1.644
43121W        W15546  13.825  44.177   0.879
43122W        W15547  27.628   3.941  12.201
43123W        W15548  42.874  44.253  13.632
43124W        W15549  22.113  15.728   3.725
43125W        W15550  28.481  36.391   4.388
43126W        W15551  31.469  23.148  14.534
43127W        W15552  29.726  23.142  11.492
43128W        W15553  34.082  42.811  14.500
43129W        W15554  35.362  36.406   3.408
43130W        W15555   0.754  16.271   1.912
43131W        W15556  12.710   9.213   1.335
43132W        W15557  26.275   6.084   2.047
43133W        W15558  40.961  37.104   0.504
43134W        W15559  43.439  11.039   3.846
43135W        W15560   2.705  10.656   1.696
43136W        W15561  34.445  41.635  12.585
43137W        W15562  28.543  43.114  13.111
43138W        W15563  14.410  25.962  12.180
43139W        W15564   5.644   9.841   3.712
43140W        W15565   3.270  34.890   3.358
43141W        W15566  38.136  43.877   3.816
43142W        W15567  11.672  38.170  13.820
43143W        W15568  18.731   1.468   3.604
43144W        W15569  22.888  16.280   3.855
43145W        W15570  34.906   0.915  10.870
43146W        W15571  33.954   4.464  14.374
43147W        W15572  29.725   0.773   1.611
43148W        W15573  16.050  41.542   0.873
43149W        W15574  12.104  24.707   3.316
43150W        W15575   2.613  32.088   9.737
43151W        W15576  26.261  43.979   2.015
43152W        W15577  28.224  43.731  14.922
43153W        W15578  29.702  27.527   4.245
43154W        W15579  30.526  24.554  14.071
43155W        W15580   8.652  36.395  13.896
43156W        W15581  28.610  22.568   3.332
43157W        W15582   5.612   2.968  12.822
43158W        W15583  20.334   1.211  12.628
43159W        W15584  18.658  27.001   0.271
43160W        W15585  33.340  32.901   2.218
43161W        W15586  12.655   6.755  10.715
43162W        W15587   0.446  18.109  14.520
43163W        W15588  35.932  26.581   2.439
43164W        W15589  26.815   4.016   2.766
43165W        W15590  36.594   8.368  11.650
43166W        W15591   4.743  36.909   1.597
43167W        W15592  17.147  11.111  10.722
43168W        W15593  43.503  10.913  14.932
43169W        W15594  42.002  13.493  14.010
43170W        W15595  33.998  41.272   3.248
43171W        W15596   7.777  35.366  10.270
43172W        W15597  24.076  40.015  13.922
43173W        W15598  40.103  12.391   1.701
43174W        W15599  36.371  26.944   3.213
43175W        W15600  30.203  39.003  14.217
43176W        W15601  23.591  41.450  11.935
43177W        W15602  32.081  32.543   2.475
43178W        W15603  22.173   7.659  11.115
43179W        W15604   2.989  39.559   4.179
43180W        W15605  27.471  16.030   1.427
43181W        W15606  36.343  42.886   4.671
43182W        W15607  34.405  29.808   3.245
43183W        W15608  41.456  17.007  11.852
43184W        W15609   9.517  14.219  13.101
43185W        W15610  37.917  13.459  13.284
43186W        W15611  33.902  23.260   1.601
43187W        W15612   4.272  33.950   3.226
43188W        W15613  31.871  43.755  11.109
43189W        W15614   6.271  43.878  10.875
43190W        W15615   6.902  21.251  11.899
43191W        W15616  38.688  27.033  11.104
43192W        W15617  36.016  40.977  11.687
43193W        W15618  20.679   3.554  10.033
43194W        W15619   8.615  27.104  11.398
43195W        W15620  19.527  31.312   0.379
43196W        W15621  32.313  29.604  11.611
43197W        W15622  42.926  29.233   1.286
43198W        W15623  27.054  36.333  10.727
43199W        W15624   9.983  36.058  10.981
43200W        W15625  17.697   2.850  11.370
43201W        W15626   9.168  12.575  10.656
43202W        W15627  33.519  17.781  10.439
43203W        W15628  42.392  30.364   1.755
43204W        W15629  44.713  42.208  12.412
43205W        W15630  38.038  34.583  14.481
43206W        W15631   7.497   8.965   0.927
43207W        W15632  10.711  17.217  12.221
43208W        W15633   6.441   6.877   1.948
43209W        W15634  39.097  40.381   5.360
43210W        W15635   0.762   8.829   4.598
43211W        W15636  11.629  37.999   2.203
43212W        W15637   8.180  28.125   2.104
43213W        W15638  33.588  44.143   1.852
43214W        W15639  20.634  44.102  11.683
43215W        W15640  14.553  10.592   0.920
43216W        W15641  28.056  37.439   1.257
43217W        W15642  17.549  21.810   3.081
43218W        W15643  32.117  34.427   2.675
43219W        W15644  42.528  19.597   3.903
43220W        W15645  31.973  43.256  10.222
43221W        W15646  22.768  44.510  13.862
43222W        W15647   7.749  37.805   1.694
43223W        W15648   4.714   6.144  12.008
43224W        W15649  14.729  13.376  11.648
43225W        W15650  26.452   1.078  14.410
43226W        W15651  39.990   2.136  14.804
43227W        W15652  19.344  44.062  14.430
43228W        W15653  43.697  37.818   3.720
43229W        W15654   9.134  37.572   2.771
43230W        W15655  13.653  11.631   2.393
43231W        W15656  35.076  15.829  12.948
43232W        W15657   9.738  10.750  13.836
43233W        W15658   1.395  40.998  11.947
43234W        W15659  43.351  21.854   3.170
43235W        W15660  26.478  19.576  12.894
43236W        W15661   3.746  27.412  12.538
43237W        W15662  32.687  26.762   4.563
43238W        W15663   4.326  35.147  13.009
43239W        W15664  29.021  40.868  10.652
43240W        W15665   3.518  18.717  13.995
43241W        W15666  22.176   7.878  11.993
43242W        W15667  19.798  25.531   2.872
43243W        W15668  37.957   1.151   3.780
43244W        W15669  15.509  18.520   2.463
43245W        W15670  44.777   1.872  12.237
43246W        W15671  34.652  25.097   2.920
43247W        W15672  19.599   3.220  11.638
43248W        W15673  43.042  40.070  14.350
43249W        W15674  22.785  21.505   1.796
43250W        W15675  12.300  37.519   4.737
43251W        W15676  14.665  27.792  13.081
43252W        W15677  41.299  15.120  12.532
43253W        W15678  35.487  44.806   4.524
43254W        W15679  11.547   8.619   3.649
43255W        W15680   6.357   9.903   3.760
43256W        W15681   6.319  26.583  14.515
43257W        W15682  40.787  14.810   3.183
43258W        W15683  25.538  38.395  11.574
43259W        W15684   3.310  11.817   1.768
43260W        W15685  40.992  10.150   4.564
43261W        W15686  22.951   2.056  12.978
43262W        W15687  37.815   9.801   1.338
43263W        W15688  13.644  38.680  12.960
43264W        W15689  43.882  32.228   0.678
43265W        W15690  14.071  43.545   2.744
43266W        W15691  13.358  36.111   0.821
43267W        W15692  40.931  26.114   1.988
43268W        W15693   1.055  34.399   3.972
43269W        W15694  39.772  23.233  10.753
43270W        W15695  13.704  25.140  13.506
43271W        W15696  42.287  28.752   3.303
43272W        W15697   1.214  10.782   3.673
43273W        W15698   7.051  12.169   0.995
43274W        W15699  32.681  45.000  13.342
43275W        W15700   3.463  18.305  11.463
43276W        W15701  31.766  13.507   2.233
43277W        W15702  41.957  21.861   1.262
43278W        W15703  13.005   9.612   1.430
43279W        W15704  25.350   3.825  13.034
43280W        W15705  22.639  36.845  12.116
43281W        W15706  43.773   0.963   2.354
43282W        W15707  43.491  32.461   0.370
43283W        W15708  37.853   1.179  14.729
43284W        W15709  11.147  41.146   0.708
43285W        W15710  28.610  36.513  11.185
43286W        W15711  35.375  29.988  11.110
43287W        W15712  36.500  26.419   3.234
43288W        W15713  33.523  32.816  10.806
43289W        W15714  28.319  24.473   2.822
43290W        W15715  11.437  14.120   0.327
43291W        W15716   1.016  34.917  10.269
43292W        W15717  38.641  21.742   1.783
43293W        W15718  28.761   2.229   4.166
43294W        W15719  15.808   9.963  13.505
43295W        W15720  29.632  10.758   1.450
43296W        W15721  11.843  41.776   2.828
43297W        W15722  42.317  25.304  12.068
43298W        W15723  35.329  24.033  14.198
43299W        W15724  41.829  41.662  10.822
43300W        W15725  24.184  43.682   4.043
43301W        W15726  41.013   7.463  14.483
43302W        W15727  44.696  28.403   3.664
43303W        W15728   8.434  29.245   2.597
43304W        W15729   1.956   2.879   0.849
43305W        W15730  13.792   4.459   3.187
43306W        W15731   1.337   6.350  12.520
43307W        W15732   6.402  12.742   1.286
43308W        W15733  16.198   3.701  11.620
43309W        W15734  19.828   1.285  12.746
43310W        W15735  10.357  21.588   4.575
43311W        W15736  11.082  26.000   4.105
43312W        W15737  36.595  26.849  11.980
43313W        W15738  22.275  10.659  12.046
43314W        W15739  20.927  21.109  11.930
43315W        W15740   4.142  44.892   2.757
43316W        W15741   1.271  18.521  13.994
43317W        W15742  29.434   8.059  11.535
43318W        W15743   8.453  26.732   4.729
43319W        W15744  34.897  14.071  10.031
43320W        W15745  16.727  12.871   1.442
43321W        W15746  16.084   5.172   2.209
43322W        W15747  42.392  10.609  12.779
43323W        W15748  39.577  38.825   4.076
43324W        W15749   6.670  31.176   2.772
43325W        W15750  17.238  29.033   4.815
43326W        W15751  11.220  14.480   4.600
43327W        W15752  21.052  41.227   3.220
43328W        W15753  12.669   7.694  11.196
43329W        W15754  31.594  40.730  13.164
43330W        W15755   8.227  10.629   1.863
43331W        W15756  24.539  30.558   1.317
43332W        W15757  29.462  10.654   4.652
43333W        W15758   0.015  44.886   2.768
43334W        W15759   9.790  10.749   3.224
43335W        W15760  21.035  36.675   5.101
43336W        W15761   2.003  12.651  12.749
43337W        W15762   9.375  29.635  14.655
43338W        W15763  36.648  28.543  12.957
43339W        W15764  28.666  10.336  11.762
43340W        W15765  14.079  42.780  12.310
43341W        W15766  17.604   8.132  13.033
43342W        W15767  37.002  26.146   9.549
43343W        W15768  42.819  25.415  11.608
43344W        W15769  24.617  10.815  11.930
43345W        W15770   3.208  36.872   1.903
43346W        W15771  17.683  23.115   4.190
43347W        W15772  24.079  18.852   4.779
43348W        W15773   6.294  23.474   3.928
43349W        W15774  39.556  34.017   0.351
43350W        W15775  31.909  13.118  14.869
43351W        W15776  31.092  43.201  10.171
43352W        W15777  38.066  11.672   0.881
43353W        W15778  21.727  21.335  14.878
43354W        W15779  25.237  23.661   1.814
43355W        W15780  21.272  33.758  14.407
43356W        W15781   9.181  37.394  12.044
43357W        W15782  21.146  37.833   4.538
43358W        W15783  17.566   1.887  11.608
43359W        W15784  28.457   1.811  10.702
43360W        W15785  44.757  37.496  13.899
43361W        W15786   7.876   2.788  12.132
43362W        W15787  29.693  13.821  14.442
43363W        W15788  39.513  30.577  10.671
43364W        W15789   2.255  35.483   3.091
43365W        W15790  14.868  19.019  12.858
43366W        W15791  35.094  27.722   0.369
43367W        W15792   1.057  33.977  14.990
43368W        W15793  44.382  32.057  11.703
43369W        W15794  30.555  36.558  12.123
43370W        W15795  30.614   2.007   0.347
43371W        W15796  16.148   6.673   1.639
43372W        W15797  15.371  22.676  14.909
43373W        W15798  39.191   5.179   0.008
43374W        W15799  34.827  35.852  12.000
43375W        W15800  19.160  13.196   0.970
43376W        W15801  32.083  10.237   4.415
43377W        W15802  31.876  35.627  13.380
43378W        W15803   2.664  37.754  12.962
43379W        W15804  35.585  16.126  13.808
43380W        W15805  41.770  27.649  12.781
43381W        W15806  34.945   0.958   4.173
43382W        W15807   3.793  20.373  12.081
43383W        W15808  15.833  19.406   1.712
43384W        W15809  22.622   3.416  10.599
43385W        W15810  35.989  15.058   1.204
43386W        W15811  27.712   2.499  10.641
43387W        W15812  24.075  31.929   1.348
43388W        W15813  40.462   6.945   2.743
43389W        W15814  17.801   5.436  12.009
43390W        W15815  38.989  14.288   1.758
43391W        W15816  43.875  33.409   1.317
43392W        W15817  36.956  30.496   4.625
43393W        W15818  11.231  22.946   1.449
43394W        W15819  43.372   3.944   1.942
43395W        W15820  32.693  27.561   4.710
43396W        W15821  20.736   5.727   3.070
43397W        W15822  27.394  26.960   1.228
43398W        W15823   4.691   1.577  12.636
43399W        W15824  21.784  38.588  12.796
43400W        W15825   0.349  42.720  12.011
43401W        W15826  26.307  13.227   2.363
43402W        W15827  39.757   2.914   2.430
43403W        W15828  22.067  12.848  11.642
43404W        W15829  30.524  22.582   3.257
43405W        W15830   0.629  30.134  14.449
43406W        W15831   0.388  31.555  13.569
43407W        W15832  19.297   1.362  12.857
43408W        W15833  11.100   5.603   1.692
43409W        W15834  31.994  41.564   3.746
43410W        W15835  31.319  14.783  11.035
43411W        W15836  10.357  14.628   0.314
43412W        W15837  26.596   7.138   2.239
43413W        W15838  43.547  32.654  12.954
43414W        W15839  32.446  30.717  13.291
43415W        W15840  27.504   1.458  12.003
43416W        W15841  16.722  11.428   2.592
43417W        W15842  11.675  36.412   4.613
43418W        W15843  43.899  32.342   1.194
43419W        W15844   0.463  40.248  13.962
43420W        W15845  32.596  26.415  10.242
43421W        W15846  11.882  28.660  11.999
43422W        W15847   2.360  28.158  10.952
43423W        W15848  34.834  35.015  14.923
43424W        W15849   3.902  38.251  14.292
43425W        W15850  21.676   7.276   0.446
43426W        W15851   4.672  26.018  13.478
43427W        W15852  32.811  18.738   1.619
43428W        W15853  34.652  42.032  12.880
43429W        W15854  34.881  44.862  10.320
43430W        W15855  16.819  30.007   0.699
43431W        W15856  28.981   4.977  11.104
43432W        W15857  14.136   4.265  14.859
43433W        W15858  20.381  16.254   4.983
43434W        W15859  44.433  25.051   0.526
43435W        W15860  21.701  29.129   1.806
43436W        W15861  40.978   1.834   1.109
43437W        W15862  17.002  17.365  11.141
43438W        W15863   6.334  16.526  14.887
43439W        W15864  38.911  31.033  14.964
43440W        W15865  31.530  38.225   1.869
43441W        W15866  14.490   7.252   1.718
43442W        W15867   0.775  38.408   4.563
43443W        W15868  32.368  27.720   3.214
43444W        W15869   6.561  39.882   2.216
43445W        W15870  32.335  44.818   1.182
43446W        W15871   5.653  14.275   4.570
43447W        W15872  33.190  42.459   9.989
43448W        W15873  40.022  29.031   4.613
43449W        W15874  29.332   0.897  12.939
43450W        W15875  31.819  16.057   0.744
43451W        W15876  37.515  12.235   3.099
43452W        W15877  20.632   8.848  12.291
43453W        W15878  36.987   4.320  11.393
43454W        W15879  40.961  29.734  14.851
43455W        W15880  26.458  25.501  12.557
43456W        W15881   5.277  25.849  12.899
43457W        W15882   5.276   5.377  11.025
43458W        W15883  21.086   1.600   4.195
43459W        W15884  44.798  41.292  10.730
43460W        W15885  43.791  17.232  14.161
43461W        W15886   5.862  28.471  11.612
43462W        W15887  26.338  16.806   3.097
43463W        W15888  23.723  38.977  10.885
43464W        W15889  32.541  31.810   1.511
43465W        W15890   4.684  35.838   2.738
43466W        W15891  10.882   9.694  14.406
43467W        W15892  39.490  37.510   0.225
43468W        W15893  30.339  18.198   4.149
43469W        W15894  10.230  23.512  12.533
43470W        W15895   4.082  19.282  11.570
43471W        W15896  16.809   2.915  12.884
43472W        W15897   5.399  29.491  11.219
43473W        W15898  39.856  24.422   0.772
43474W        W15899  31.211  21.806   0.470
43475W        W15900  10.110  27.224   3.136
43476W        W15901   3.435   7.314   0.957
43477W        W15902  11.767  17.080   0.793
43478W        W15903  42.457  22.980  14.427
43479W        W15904  15.682  34.569  11.884
43480W        W15905  16.322  12.106   4.641
43481W        W15906  26.585  15.857   1.537
43482W        W15907  33.585  33.366   0.322
43483W        W15908  39.785  42.851  12.028
43484W        W15909  38.723  32.849   3.588
43485W        W15910   6.658  19.870   2.150
43486W        W15911  32.200  20.735  14.269
43487W        W15912   6.973  18.568  13.402
43488W        W15913  15.893  25.176   3.470
43489W        W15914  43.443   3.874   2.456
43490W        W15915   2.048   3.881  14.790
43491W        W15916  33.857  16.231   2.464
43492W        W15917   0.788  39.482   1.763
43493W        W15918  13.671  28.728  14.267
43494W        W15919  25.092  44.415  11.534
43495W        W15920  26.775  25.979   0.501
43496W        W15921  16.086  31.103   5.489
43497W        W15922  36.445   1.000   0.413
43498W        W15923   9.744  43.568   1.490
43499W        W15924  13.827   0.819  13.363
43500W        W15925   2.991   1.112   3.054
43501W        W15926   6.104  12.096  10.676
43502W        W15927  10.356   8.243  14.724
43503W        W15928   4.617  12.391  10.082
43504W        W15929  26.012  42.353   0.911
43505W        W15930   6.976  17.594  11.189
43506W        W15931  39.471  26.621   3.038
43507W        W15932   7.286  30.464  14.495
43508W        W15933  30.446  27.188  11.971
43509W        W15934  16.710  37.380  13.818
43510W        W15935  25.549   5.272  13.044
43511W        W15936   3.524  30.088  14.717
43512W        W15937  11.389  38.120  11.109
43513W        W15938   4.332  17.944  13.163
43514W        W15939  42.087  24.457  11.601
43515W        W15940  10.288  26.953   1.743
43516W        W15941  44.414  26.690   3.247
43517W        W15942  13.080  31.362   4.317
43518W        W15943   8.134  43.932   1.702
43519W        W15944  39.968  34.367   0.060
43520W        W15945  27.663  15.589   4.618
43521W        W15946  26.722   7.250  11.585
43522W        W15947   2.491  40.040  11.696
43523W        W15948  32.887  15.536   2.484
43524W        W15949   8.681  21.696  14.895
43525W        W15950  10.230  43.585   1.338
43526W        W15951  41.519  33.309  14.003
43527W        W15952  37.122  12.499  14.357
43528W        W15953  19.617   7.099   1.735
43529W        W15954  13.162  31.903  12.002
43530W        W15955  26.194  34.981  14.787
43531W        W15956  16.181  33.860   1.509
43532W        W15957  22.194   9.307  14.252
43533W        W15958  30.569  12.144   0.996
43534W        W15959  15.959  11.132  14.338
43535W        W15960  10.355   2.781   3.491
43536W        W15961  37.949  18.080   3.390
43537W        W15962  41.410  40.403   2.634
43538W        W15963  12.145  40.611  13.882
43539W        W15964  29.540  34.150  14.241
43540W        W15965  38.431  33.398   1.840
43541W        W15966  32.472  36.765  11.547
43542W        W15967   2.361  19.797   0.929
43543W        W15968   2.958  12.041   2.114
43544W        W15969   6.188  28.556   0.360
43545W        W15970  35.855   2.447   2.359
43546W        W15971   8.755  31.609   4.646
43547W        W15972  40.586  15.434  13.841
43548W        W15973  16.238  29.695   2.661
43549W        W15974  12.947  26.925   3.361
43550W        W15975  34.188  37.990   1.178
43551W        W15976  40.776   5.358  10.860
43552W        W15977  19.113  30.587  12.519
43553W        W15978   3.936  31.994  14.400
43554W        W15979  24.032  32.847   1.234
43555W        W15980  24.233  36.330  11.552
43556W        W15981  13.417  43.555  13.153
43557W        W15982   2.816  41.871   0.034
43558W        W15983  13.042  24.753  11.515
43559W        W15984  18.014   2.425   2.865
43560W        W15985  31.623  28.450   2.116
43561W        W15986  39.908  43.993   0.608
43562W        W15987  26.989   2.812   3.968
43563W        W15988  12.873   0.005   1.203
43564W        W15989  40.741   2.091   1.876
43565W        W15990  38.616  40.223   2.766
43566W        W15991  38.601  42.100  13.258
43567W        W15992  24.845  30.129  11.585
43568W        W15993  32.985  12.725   1.719
43569W        W15994  37.856   1.437   3.166
43570W        W15995   0.270  26.066   4.236
43571W        W15996  32.928   0.895   0.877
43572W        W15997  30.637  30.854  12.184
43573W        W15998  38.362  41.213  10.950
43574W        W15999   1.414  39.333  14.748
43575W        W16000   6.356   6.626  11.525
43576W        W16001  35.629  26.894  12.484
43577W        W16002   5.938   4.850   0.355
43578W        W16003   8.745   1.843  14.987
43579W        W16004  19.545   7.308   3.380
43580W        W16005  11.848  19.207  14.702
43581W        W16006   4.785  17.634   2.623
43582W        W16007  17.590   8.700  10.951
43583W        W16008  14.230  41.556   1.026
43584W        W16009  17.574  28.569  12.389
43585W        W16010  44.214  30.102  14.793
43586W        W16011   7.525  29.120  10.648
43587W        W16012  20.657   7.405   4.408
43588W        W16013  11.406   6.025  13.900
43589W        W16014  35.273  11.614   1.037
43590W        W16015  10.739  37.317   2.804
43591W        W16016   0.787  32.568  11.457
43592W        W16017   0.310  13.092  14.814
43593W        W16018  33.241   3.182  11.043
43594W        W16019  10.943  28.806   1.212
43595W        W16020  21.455  39.590  12.816
43596W        W16021   9.819  38.487  12.383
43597W        W16022  12.115  13.971  11.160
43598W        W16023  10.533  26.882  11.052
43599W        W16024  25.034   5.424  14.813
43600W        W16025  32.679   1.366   0.915
43601W        W16026  22.468  16.130   2.235
43602W        W16027  32.599   4.548  14.366
43603W        W16028  42.057   6.681  12.368
43604W        W16029  38.822  34.520  12.415
43605W        W16030  31.972  13.764  10.619
43606W        W16031  31.751  29.201  10.221
43607W        W16032  10.983  43.929  11.523
43608W        W16033  22.868   9.348   4.054
43609W        W16034  28.675  37.952   2.359
43610W        W16035  16.818  39.031   4.772
43611W        W16036   7.934  32.982   0.502
43612W        W16037   1.002  22.721  11.758
43613W        W16038  15.820  10.297   0.776
43614W        W16039   9.202   1.233  14.044
43615W        W16040  19.810  27.022   3.296
43616W        W16041  21.211   6.854  10.318
43617W        W16042  29.946  12.947   2.835
43618W        W16043   5.684  21.466   2.150
43619W        W16044  36.491   0.336   2.816
43620W        W16045  39.989  32.290  14.199
43621W        W16046  16.140  22.043  11.867
43622W        W16047  25.196  10.786  10.668
43623W        W16048   7.179  28.055  13.711
43624W        W16049  44.939  11.224   4.632
43625W        W16050  30.165   6.782   4.112
43626W        W16051  43.674  25.875   2.120
43627W        W16052  22.369  12.505   0.488
43628W        W16053  25.795  10.603   1.329
43629W        W16054  29.049  43.966  11.486
43630W        W16055  41.404  26.035   2.261
43631W        W16056  44.448  34.404   3.649
43632W        W16057  41.472  27.002  12.310
43633W        W16058  13.665  30.830   2.422
43634W        W16059   4.038  14.476   3.246
43635W        W16060  13.941   7.627   4.194
43636W        W16061  30.567  25.023  13.876
43637W        W16062  40.891   4.243   2.466
43638W        W16063   4.767   8.918   4.262
43639W        W16064  31.097  27.708  12.161
43640W        W16065  40.277   2.540   3.225
43641W        W16066  20.225   6.383  13.855
43642W        W16067  38.486  15.813  10.641
43643W        W16068  27.921   1.928   4.342
43644W        W16069  19.348  25.110   3.250
43645W        W16070  44.503  16.036  12.852
43646W        W16071  13.591  41.602  11.055
43647W        W16072  20.261  28.265  14.967
43648W        W16073  16.610   0.766  14.051
43649W        W16074  33.968  22.526  13.077
43650W        W16075  20.538  31.433   5.255
43651W        W16076  28.278   2.180   0.031
43652W        W16077  28.962  40.374   2.056
43653W        W16078  11.799   9.320  11.368
43654W        W16079  37.602  28.024   4.019
43655W        W16080   8.243   2.509  12.520
43656W        W16081  29.609   4.675  14.769
43657W        W16082   8.432  11.163  14.309
43658W        W16083  27.268  31.482   4.047
43659W        W16084  14.634   4.039  14.802
43660W        W16085  25.546  32.404   3.332
43661W        W16086  40.984  23.458   0.182
43662W        W16087  23.946  39.451   4.504
43663W        W16088  14.522  12.340  11.600
43664W        W16089  40.894  37.567   2.365
43665W        W16090   9.484   1.518   4.229
43666W        W16091   5.486  28.623  11.255
43667W        W16092   5.373   8.860   0.888
43668W        W16093  32.102  10.461  13.052
43669W        W16094   3.428  20.187  13.008
43670W        W16095   9.781  39.020   1.974
43671W        W16096  41.037  16.714   1.815
43672W        W16097  10.286  29.238  13.910
43673W        W16098  30.146  44.126   3.764
43674W        W16099  20.285   7.897   0.490
43675W        W16100  27.967  41.688   2.703
43676W        W16101  23.008  20.692   3.763
43677W        W16102   3.455   1.416  11.389
43678W        W16103   3.417  29.072  12.069
43679W        W16104  40.224   7.239  11.114
43680W        W16105   9.821  20.918   3.561
43681W        W16106  35.854  40.760  14.436
43682W        W16107  11.233   5.034  13.945
43683W        W16108  28.963  30.893  11.586
43684W        W16109   8.747   3.316   3.997
43685W        W16110   8.951   7.223  11.152
43686W        W16111  20.572   7.671  12.460
43687W        W16112   7.615  26.396  14.832
43688W        W16113  28.496  28.613  12.973
43689W        W16114  35.892   0.122  11.293
43690W        W16115   0.721   6.892   0.983
43691W        W16116   4.001  21.814   1.642
43692W        W16117  43.285   6.263   0.265
43693W        W16118  43.426  11.398  14.794
43694W        W16119  42.717  35.322   1.246
43695W        W16120  39.358  14.400  13.476
43696W        W16121  14.249  25.706   2.673
43697W        W16122  29.921   2.295   1.291
43698W        W16123  39.862   9.646   4.553
43699W        W16124  21.725  38.519  13.835
43700W        W16125  17.343  38.550   4.207
43701W        W16126  37.983  15.619  10.662
43702W        W16127  38.761  27.619  12.992
43703W        W16128  15.665  14.847  10.650
43704W        W16129  32.785   8.232  14.405
43705W        W16130   4.767   7.271  10.617
43706W        W16131  30.129  22.179   1.397
43707W        W16132   1.964  20.800  13.876
43708W        W16133   9.685  42.364  13.924
43709W        W16134   6.820  37.824   1.695
43710W        W16135  15.758  19.559  14.419
43711W        W16136  42.363  34.953   2.177
43712W        W16137  10.686  25.526   4.681
43713W        W16138  39.128  36.685   0.423
43714W        W16139   6.202  43.535  14.730
43715W        W16140  27.252  40.689   4.464
43716W        W16141  18.711  26.225  11.082
43717W        W16142  15.808  12.320   0.917
43718W        W16143  15.602   7.154  10.783
43719W        W16144  22.009  37.785  13.293
43720W        W16145   3.248  15.289   4.707
43721W        W16146  37.322   5.117  12.131
43722W        W16147  10.327  14.635   2.696
43723W        W16148   3.309  24.097   1.070
43724W        W16149  40.925   1.719   0.111
43725W        W16150  41.570  41.139   3.795
43726W        W16151  15.576  13.355   1.804
43727W        W16152  42.449  29.858  12.533
43728W        W16153  42.982  41.904  10.658
43729W        W16154   8.764  43.561  13.869
43730W        W16155   5.070  31.361   4.617
43731W        W16156  14.568  40.007   1.719
43732W        W16157  25.018  30.411   0.008
43733W        W16158   2.323  14.300  10.327
43734W        W16159  34.580  22.496   1.815
43735W        W16160  18.031  10.872   1.170
43736W        W16161   5.710   3.492   2.292
43737W        W16162  39.100  18.711   1.493
43738W        W16163  42.070  15.087  12.052
43739W        W16164   9.877  26.915   4.844
43740W        W16165   7.875   8.932   3.829
43741W        W16166  31.526  23.102  14.007
43742W        W16167  29.404  15.112   0.802
43743W        W16168  36.480  15.317   3.267
43744W        W16169   3.564   7.130   3.915
43745W        W16170  31.948  14.832   2.481
43746W        W16171  21.547   2.383   4.159
43747W        W16172  24.341  28.445   4.634
43748W        W16173  35.975   6.075  11.620
43749W        W16174  27.695   7.173  13.058
43750W        W16175  44.521   9.373  10.453
43751W        W16176  43.542  31.511  13.827
43752W        W16177  10.633  38.781   0.188
43753W        W16178  28.006  22.359  11.545
43754W        W16179   5.753  25.100  10.685
43755W        W16180  34.689  13.888  11.354
43756W        W16181  27.919   1.262  13.510
43757W        W16182  43.467  22.556  11.950
43758W        W16183  26.219   0.522   3.423
43759W        W16184   1.235   0.024   4.085
43760W        W16185   8.279  16.001   4.067
43761W        W16186  24.026  13.291  14.366
43762W        W16187  10.630  15.714   4.988
43763W        W16188  32.330  17.951  13.030
43764W        W16189  20.560  36.151   3.659
43765W        W16190  41.035  15.182  12.002
43766W        W16191   2.697  38.236  13.843
43767W        W16192   9.745  38.522   3.329
43768W        W16193  11.158   3.437  12.460
43769W        W16194  11.327  11.330  13.086
43770W        W16195  14.287  44.926  10.714
43771W        W16196  15.568  24.789   0.516
43772W        W16197  11.398   6.089  13.032
43773W        W16198  36.462  28.048  12.089
43774W        W16199  43.914  35.060  11.473
43775W        W16200  25.240  36.133  12.379
43776W        W16201  22.707   9.992  12.352
43777W        W16202   2.704  36.372   4.111
43778W        W16203   2.857   8.524  14.602
43779W        W16204  42.681  44.519   3.636
43780W        W16205  30.408   3.125   5.151
43781W        W16206   5.695  28.970   1.316
43782W        W16207   5.296  30.164   4.100
43783W        W16208  32.642   7.776   0.038
43784W        W16209  17.628  19.819  13.525
43785W        W16210  24.147  16.569  11.732
43786W        W16211  12.763  44.355   2.922
43787W        W16212   8.482   1.923   3.617
43788W        W16213  44.780   6.755  11.949
43789W        W16214   0.868   4.393   1.739
43790W        W16215  16.453  37.575   3.572
43791W        W16216  29.627  18.758  14.047
43792W        W16217  29.736  25.539  13.101
43793W        W16218  34.809  24.612   4.262
43794W        W16219  37.888  25.007  10.602
43795W        W16220  36.115  43.263  11.050
43796W        W16221  32.125  16.813   0.994
43797W        W16222  42.888  24.562   3.136
43798W        W16223  34.020  21.342   1.981
43799W        W16224  22.790   2.233   2.644
43800W        W16225   7.200  16.803  10.692
43801W        W16226   2.212  41.479  10.730
43802W        W16227  18.760   5.644   3.830
43803W        W16228  13.519  21.020  10.639
43804W        W16229  19.685  39.281  14.408
43805W        W16230   5.426   9.167  13.442
43806W        W16231  16.155  41.162  13.083
43807W        W16232  38.478  34.832  11.152
43808W        W16233  31.628  27.660   2.761
43809W        W16234   5.224   1.822  12.112
43810W        W16235  30.021   6.219  11.238
43811W        W16236  35.026  36.724   2.221
43812W        W16237  11.752  12.849   4.922
43813W        W16238   4.627  14.615   1.037
43814W        W16239  14.499   0.493  11.012
43815W        W16240   2.969  17.974   4.190
43816W        W16241  19.775   9.278  13.927
43817W        W16242  23.932  29.868   2.290
43818W        W16243   5.440  17.798  11.218
43819W        W16244   0.061  27.557  11.534
43820W        W16245  15.856   6.420  11.027
43821W        W16246   8.852   1.180  13.245
43822W        W16247  24.972   0.928   4.894
43823W        W16248  17.273  11.659   0.923
43824W        W16249  27.211  12.235  12.548
43825W        W16250   8.695  11.199   0.895
43826W        W16251  29.355  16.569   3.700
43827W        W16252  28.865   8.335  10.921
43828W        W16253  22.264  32.425   2.443
43829W        W16254  28.162  27.990   0.315
43830W        W16255  34.319  38.563  11.721
43831W        W16256  31.940  10.848  14.552
43832W        W16257  18.289  25.609  14.775
43833W        W16258   7.644  34.054  13.527
43834W        W16259  23.070  28.219   2.224
43835W        W16260  37.331  38.094  11.990
43836W        W16261  28.268  12.876   3.732
43837W        W16262  24.426  26.073   0.337
43838W        W16263  20.258  39.575   0.411
43839W        W16264  22.013  20.235  14.800
43840W        W16265  19.281  15.130   1.884
43841W        W16266  34.525   8.818   1.254
43842W        W16267   3.223  24.472  14.951
43843W        W16268  22.532   3.175   4.122
43844W        W16269   2.329  30.862  13.914
43845W        W16270  41.787  16.409  11.471
43846W        W16271   4.631  24.491  14.524
43847W        W16272  44.933  41.761  12.376
43848W        W16273   0.762  32.580   4.236
43849W        W16274  29.999   7.190  12.612
43850W        W16275  38.432   8.328  11.171
43851W        W16276  19.585   5.162   4.831
43852W        W16277   6.944  33.564  14.848
43853W        W16278  27.474  13.207  14.521
43854W        W16279  37.572  25.684  13.923
43855W        W16280  39.501  22.850  11.064
43856W        W16281  18.357  21.487  14.847
43857W        W16282  33.945  14.171  11.994
43858W        W16283   8.101  43.099  10.857
43859W        W16284  39.564   3.671  12.588
43860W        W16285   3.252  41.501  10.761
43861W        W16286   7.302   0.948   4.118
43862W        W16287  39.880  39.301  10.548
43863W        W16288   4.700  42.684   0.728
43864W        W16289  39.409  44.031   3.386
43865W        W16290  17.353   3.629   2.797
43866W        W16291   2.027  10.405  12.341
43867W        W16292  21.123  36.579   1.352
43868W        W16293  17.707  27.958   0.393
43869W        W16294  41.640   8.799  14.651
43870W        W16295  12.274  26.729   1.472
43871W        W16296   2.004  38.111   0.018
43872W        W16297  12.647  17.459   0.495
43873W        W16298  32.624  33.058  11.718
43874W        W16299  21.155  14.871  12.300
43875W        W16300  36.059  40.834  12.212
43876W        W16301  19.569  10.046   3.234
43877W        W16302  33.329  19.538   4.598
43878W        W16303   6.391  36.495  11.506
43879W        W16304  16.168   6.798  14.817
43880W        W16305   3.236  13.198   5.077
43881W        W16306   4.481  20.603   2.227
43882W        W16307  28.051  17.085  12.537
43883W        W16308  17.073  30.486   0.652
43884W        W16309  44.587  17.258   4.579
43885W        W16310  38.622   5.062   1.958
43886W        W16311  14.837  34.036  10.939
43887W        W16312  43.805   7.424  11.224
43888W        W16313  13.138  42.298   1.338
43889W        W16314  39.850  18.782  12.440
43890W        W16315   3.838  29.556   0.850
43891W        W16316  23.699  21.162  11.156
43892W        W16317  10.627  31.169   3.736
43893W        W16318  31.592  26.657   2.012
43894W        W16319  15.535  32.501   0.059
43895W        W16320  38.907  44.684   2.341
43896W        W16321   6.706   2.786   2.513
43897W        W16322  39.841  16.295  11.608
43898W        W16323  25.440  38.895  13.313
43899W        W16324  25.156  22.133   0.003
43900W        W16325  39.311  25.088  11.578
43901W        W16326   2.363  35.029   3.282
43902W        W16327  38.895  11.026   1.231
43903W        W16328   7.429  41.822   3.192
43904W        W16329  37.735  26.228  11.626
43905W        W16330  10.616  41.232  10.866
43906W        W16331  11.445   4.443  12.071
43907W        W16332   9.179  25.257  12.850
43908W        W16333   2.433  12.869   2.434
43909W        W16334  33.892  11.499   3.738
43910W        W16335  24.451   8.191  10.969
43911W        W16336  40.196  38.050  13.156
43912W        W16337  25.357  15.080  13.609
43913W        W16338  14.829  19.230  14.022
43914W        W16339  34.422  11.704   1.307
43915W        W16340  36.442  28.995  12.150
43916W        W16341   4.242  44.936  11.514
43917W        W16342  31.156  13.592  12.893
43918W        W16343   6.452  44.940  12.031
43919W        W16344  36.826  41.281  13.308
43920W        W16345  32.100  42.330  14.591
43921W        W16346  14.251  32.160  13.348
43922W        W16347   3.794  26.260  11.617
43923W        W16348  37.420   2.025   1.377
43924W        W16349   0.955  15.420   4.058
43925W        W16350  21.075  23.631   4.515
43926W        W16351   9.311  37.515   4.388
43927W        W16352  35.027  43.845  13.552
43928W        W16353  31.483  25.449   4.699
43929W        W16354   3.463  10.932  13.481
43930W        W16355  29.435  24.795  10.692
43931W        W16356  34.638   7.753  13.022
43932W        W16357  33.632  22.544  14.786
43933W        W16358  32.528  25.962  12.383
43934W        W16359  13.618  42.513   3.417
43935W        W16360  33.320   9.649  12.500
43936W        W16361  11.139  17.045   2.741
43937W        W16362  33.608  38.363  10.628
43938W        W16363  36.546   4.369  11.144
43939W        W16364  30.162  30.908   0.911
43940W        W16365   5.692  31.891  10.813
43941W        W16366   9.152   3.453   1.950
43942W        W16367   4.825  29.858  12.142
43943W        W16368  16.790  23.564  14.961
43944W        W16369  30.393   8.759   4.768
43945W        W16370   8.539   6.646  11.973
43946W        W16371  27.202  13.682  10.481
43947W        W16372  18.317  11.448  11.969
43948W        W16373   2.523  32.121  12.583
43949W        W16374  15.251   0.056   2.741
43950W        W16375  32.844   5.056  13.242
43951W        W16376  36.397  35.364  14.400
43952W        W16377  36.050  22.591  14.539
43953W        W16378  25.012  42.371  12.771
43954W        W16379  40.326  11.669  11.036
43955W        W16380  20.486  11.154  11.472
43956W        W16381  18.731  37.347  14.778
43957W        W16382  17.066  22.236  13.884
43958W        W16383   9.641  34.406  14.023
43959W        W16384   6.092  22.546  11.240
43960W        W16385   3.181  15.788   1.846
43961W        W16386  30.171   6.787   2.225
43962W        W16387  34.248  16.135   0.922
43963W        W16388   8.462   3.699  13.982
43964W        W16389   7.385  15.826   3.387
43965W        W16390   5.683   8.699   4.165
43966W        W16391  20.311  43.400  12.125
43967W        W16392  39.006   8.110   3.773
43968W        W16393  16.687   8.772   2.162
43969W        W16394   9.435   2.146  12.051
43970W        W16395  43.987  22.415   4.655
43971W        W16396  36.467  41.461   2.992
43972W        W16397  35.440   2.339   3.199
43973W        W16398  11.430  41.953  10.778
43974W        W16399   0.766  39.333   2.926
43975W        W16400   5.950  15.556   4.211
43976W        W16401  19.154   6.681  14.342
43977W        W16402  42.318  43.359   2.331
43978W        W16403  36.857  11.483  14.388
43979W        W16404  29.664  14.299   4.623
43980W        W16405  11.589  23.567  11.470
43981W        W16406  29.648  20.824  12.532
43982W        W16407  10.693  35.550  13.540
43983W        W16408   2.563  22.142  12.398
43984W        W16409  29.176  19.995  11.905
43985W        W16410   0.814  23.923  13.372
43986W        W16411  26.111   1.005  10.629
43987W        W16412  14.636  23.500  13.145
43988W        W16413   4.500  15.474  12.394
43989W        W16414   3.206  23.951   3.719
43990W        W16415  31.080  35.851   1.795
43991W        W16416  19.073  13.328  10.745
43992W        W16417  28.859  24.017   3.386
43993W        W16418  37.452  33.846  10.554
43994W        W16419  32.549  14.665  12.902
43995W        W16420  13.017  33.380  11.299
43996W        W16421  31.652  39.361  11.061
43997W        W16422  16.670  34.778  13.840
43998W        W16423  23.719  11.231  12.807
43999W        W16424  40.285  14.540   1.732
44000W        W16425   1.069   8.928  12.086
44001W        W16426   4.860  33.431   5.032
44002W        W16427   2.767  22.051   0.821
44003W        W16428  25.665  34.422   1.026
44004W        W16429  26.793  31.374  13.018
44005W        W16430  19.304  28.502  13.492
44006W        W16431  43.789  38.915   2.272
44007W        W16432   0.306  38.917  12.341
44008W        W16433  31.806  40.929  14.453
44009W        W16434   6.323   6.650   0.456
44010W        W16435  34.144   4.015  13.476
44011W        W16436  44.420  11.381  11.626
44012W        W16437  32.494  23.242  11.370
44013W        W16438  15.777  21.966  10.046
44014W        W16439  29.129   1.654  14.808
44015W        W16440  41.364  15.434   2.887
44016W        W16441  43.019  28.953  12.879
44017W        W16442  35.104  20.329  12.016
44018W        W16443  10.897  42.456   1.129
44019W        W16444   7.919  32.906   2.374
44020W        W16445   9.485  33.393  14.036
44021W        W16446  23.357  41.100  14.979
44022W        W16447  33.309  32.252  11.638
44023W        W16448   7.365  31.949  12.781
44024W        W16449   2.254  42.427   1.819
44025W        W16450  29.825  44.921   1.196
44026W        W16451   5.301   3.363  11.710
44027W        W16452   3.559  24.940   2.028
44028W        W16453  37.619  23.616  13.632
44029W        W16454  42.534  19.716  14.913
44030W        W16455  33.904  38.081   0.154
44031W        W16456  35.206   4.871  12.198
44032W        W16457   6.981  16.210   2.805
44033W        W16458  22.590  24.112  12.237
44034W        W16459  20.680  35.070  14.349
44035W        W16460  15.601  38.523  12.128
44036W        W16461  20.251  27.874   2.660
44037W        W16462  11.112  35.451   4.655
44038W        W16463   2.035  14.545  11.864
44039W        W16464  38.864  39.806   2.942
44040W        W16465   7.293  15.833  14.692
44041W        W16466  12.602   6.733  12.599
44042W        W16467  20.684   2.541   0.406
44043W        W16468   3.279   1.871   1.704
44044W        W16469   0.438  30.268   3.770
44045W        W16470  35.592  36.608  12.108
44046W        W16471   3.687  18.569  11.098
44047W        W16472   5.428  40.343  11.173
44048W        W16473  41.992  23.624  10.226
44049W        W16474  40.492   6.335   2.796
44050W        W16475   0.955   1.484  14.563
44051W        W16476  34.179  43.992  11.635
44052W        W16477  28.999  33.956  10.671
44053W        W16478  17.705  38.010   3.029
44054W        W16479  27.718  25.446   4.018
44055W        W16480  30.696  25.553  11.518
44056W        W16481  28.736   4.448  13.854
44057W        W16482  22.020  44.414   2.664
44058W        W16483  33.895   2.030   4.224
44059W        W16484  14.761  43.726   1.407
44060W        W16485  30.013   1.890   4.929
44061W        W16486   3.961  30.609  14.528
44062W        W16487  12.784  42.255  13.519
44063W        W16488   8.716  16.669  13.409
44064W        W16489  40.734  34.616   3.171
44065W        W16490  12.604  38.017  12.400
44066W        W16491   8.855  40.814   3.658
44067W        W16492  43.219  42.336   1.671
44068W        W16493  39.516   5.934   2.829
44069W        W16494  36.006   9.385   3.649
44070W        W16495   6.969  29.541  13.787
44071W        W16496  23.051  38.503   0.804
44072W        W16497  18.290  15.733   2.837
44073W        W16498  25.195  22.631   2.229
44074W        W16499  11.690  26.164  10.053
44075W        W16500  12.483  12.240  12.854
44076W        W16501  22.545  32.818   1.845
44077W        W16502  16.159  20.194   2.975
44078W        W16503  28.976  37.371   1.994
44079W        W16504  36.415  20.850  12.439
44080W        W16505  36.892  10.193   2.770
44081W        W16506  39.859  34.617   0.491
44082W        W16507   0.372  33.870  13.007
44083W        W16508  19.567  33.581   4.594
44084W        W16509  29.115  11.504  14.536
44085W        W16510  14.993  18.057  11.375
44086W        W16511  40.800   0.607  14.314
44087W        W16512  37.324  20.357  13.343
44088W        W16513   9.651   0.344   4.629
44089W        W16514  17.088  34.788  10.723
44090W        W16515   3.460  12.882   4.173
44091W        W16516   0.360   9.626   0.859
44092W        W16517  17.583  31.486  12.726
44093W        W16518  41.070  12.212  10.846
44094W        W16519  20.824  28.876   2.582
44095W        W16520  30.168  40.446   0.958
44096W        W16521  29.971  19.579   0.251
44097W        W16522  32.653  38.590   1.226
44098W        W16523   4.313  37.521  14.505
44099W        W16524  30.347   9.188  14.908
44100W        W16525  42.041   0.182   1.234
44101W        W16526  36.496   9.934   0.870
44102W        W16527   4.386  40.989   2.582
44103W        W16528   9.673  43.247   2.436
44104W        W16529  28.751  39.613  12.422
44105W        W16530  15.240  42.850  10.538
44106W        W16531  38.358   3.944   2.112
44107W        W16532  24.194  32.533  12.936
44108W        W16533  38.861  24.660  11.188
44109W        W16534  10.202   4.504  11.571
44110W        W16535  27.743  32.774  10.799
44111W        W16536   0.188  34.878   1.888
44112W        W16537   9.858  21.206  12.819
44113W        W16538   2.540  16.977   4.568
44114W        W16539  23.646  35.644  12.860
44115W        W16540  29.009  39.453   2.297
44116W        W16541  13.607  10.730  10.646
44117W        W16542   4.482  34.415  11.351
44118W        W16543  13.334  31.886   2.414
44119W        W16544  30.630  41.057   4.668
44120W        W16545  18.168  22.132  11.411
44121W        W16546  39.915  34.337   0.925
44122W        W16547  10.447  10.090   2.696
44123W        W16548  41.569   2.558  14.396
44124W        W16549   7.351  21.143   5.081
44125W        W16550  25.671  10.620  14.406
44126W        W16551   2.200  31.053   4.852
44127W        W16552   5.731  19.274   4.506
44128W        W16553   5.271  40.297   2.748
44129W        W16554  43.876  14.601  12.162
44130W        W16555  33.014  41.324   4.229
44131W        W16556  41.096  11.860   4.136
44132W        W16557  25.115   6.717   4.680
44133W        W16558  21.203  19.650   0.044
44134W        W16559   5.713  13.226   1.956
44135W        W16560   5.352   7.260   4.019
44136W        W16561  40.842   3.870   0.753
44137W        W16562  12.570  38.602   0.500
44138W        W16563   2.829  11.186  14.084
44139W        W16564  31.565   3.341  10.256
44140W        W16565  34.417  24.820  12.536
44141W        W16566  19.492  18.166  13.323
44142W        W16567   3.713  22.071  13.539
44143W        W16568   5.394   6.348  11.268
44144W        W16569   0.775  14.081  11.555
44145W        W16570   3.913   1.144  12.144
44146W        W16571  29.074   0.041  11.525
44147W        W16572   1.915  16.361   4.114
44148W        W16573  12.202   3.448   1.793
44149W        W16574  26.444  30.072   4.425
44150W        W16575  42.486  36.698   0.036
44151W        W16576   9.774   4.733  13.416
44152W        W16577  40.827  15.675   2.617
44153W        W16578  35.582  20.611  11.981
44154W        W16579  14.272  39.319   2.580
44155W        W16580  19.142   1.319   3.900
44156W        W16581  18.302   9.902   3.564
44157W        W16582  31.233  23.254   1.291
44158W        W16583  36.069  33.896  12.534
44159W        W16584  25.262   4.457  11.515
44160W        W16585   1.057  44.152   3.337
44161W        W16586  36.414   5.673  10.905
44162W        W16587  30.919  32.621   4.374
44163W        W16588  14.258  24.566  12.574
44164W        W16589   6.830  37.772   4.640
44165W        W16590   5.739   6.792  11.424
44166W        W16591  13.552  14.602  11.481
44167W        W16592   0.485   3.281   1.448
44168W        W16593   3.238  11.479   0.296
44169W        W16594  41.838  12.817   4.577
44170W        W16595  29.976  42.463   3.226
44171W        W16596   6.631  31.661   1.968
44172W        W16597  14.450  34.160   2.199
44173W        W16598  17.300   7.298  11.549
44174W        W16599  26.194  42.918  11.155
44175W        W16600  18.334   5.776  12.932
44176W        W16601  11.373  28.598  12.010
44177W        W16602  40.488  31.684  13.891
44178W        W16603  26.865  26.529  14.303
44179W        W16604  31.131  38.468  12.533
44180W        W16605  14.822   3.330  10.525
44181W        W16606  30.423   0.486  14.538
44182W        W16607   4.271   3.168   4.729
44183W        W16608  30.621  33.492   1.304
44184W        W16609  30.935  36.340  13.098
44185W        W16610  23.362  42.044  14.999
44186W        W16611  10.052  24.605   1.893
44187W        W16612  42.178  11.435   2.729
44188W        W16613  25.047  35.344   3.289
44189W        W16614  14.218   7.576   4.621
44190W        W16615  16.562  21.950   4.583
44191W        W16616   1.573   4.209  13.896
44192W        W16617  14.318   8.385   4.103
44193W        W16618  16.802  37.991   2.879
44194W        W16619  11.313  30.543   0.525
44195W        W16620  21.700  42.900  11.052
44196W        W16621  35.040   0.099  14.977
44197W        W16622  13.927  22.562   2.355
44198W        W16623  11.587  25.811   4.237
44199W        W16624  12.348  10.393  14.413
44200W        W16625  44.305  18.536  12.466
44201W        W16626  11.914  23.080   3.580
44202W        W16627  27.136  12.216  13.938
44203W        W16628  23.079  22.729   4.640
44204W        W16629   3.179   9.155  12.355
44205W        W16630  19.077  33.580  11.951
44206W        W16631   5.548  20.968  12.705
44207W        W16632  29.637  43.371  14.985
44208W        W16633   7.737  27.075  13.518
44209W        W16634  42.782   9.362   4.122
44210W        W16635  19.979  12.704   3.307
44211W        W16636   3.178  35.371   4.338
44212W        W16637  16.931  30.966   2.250
44213W        W16638  18.234  20.176  14.356
44214W        W16639  16.286  39.133  14.841
44215W        W16640   8.683  44.787   1.461
44216W        W16641   4.358  12.336  12.458
44217W        W16642  42.291  34.009   1.619
44218W        W16643  30.149  28.087  14.481
44219W        W16644  21.285  27.211  12.553
44220W        W16645  17.002  27.574  10.460
44221W        W16646  43.674  32.474  11.154
44222W        W16647   8.518  29.733   3.745
44223W        W16648  21.180   6.684   0.856
44224W        W16649  17.380  24.675  12.402
44225W        W16650  41.873  38.326   0.299
44226W        W16651   5.333  15.071  12.839
44227W        W16652  23.159  41.026   1.777
44228W        W16653  19.733  10.431  13.521
44229W        W16654   9.870  41.386   0.345
44230W        W16655  13.566  22.676  14.811
44231W        W16656  13.287  25.087  10.978
44232W        W16657   0.559  19.113   3.295
44233W        W16658  33.137  39.506  14.388
44234W        W16659   5.582  35.596  11.963
44235W        W16660  24.020  43.650   2.605
44236W        W16661  36.517  19.511  13.002
44237W        W16662   4.742  24.118  10.640
44238W        W16663  44.479  17.685   2.430
44239W        W16664  19.537  39.288  11.924
44240W        W16665  15.538   6.010   0.812
44241W        W16666  34.459  10.254   0.711
44242W        W16667  12.635  21.592   1.815
44243W        W16668   9.736  27.975   4.284
44244W        W16669   0.727  30.543   4.596
44245W        W16670   6.007  23.008  10.349
44246W        W16671  24.333  27.079  13.394
44247W        W16672  42.899  33.884  13.786
44248W        W16673  14.990  16.217   1.699
44249W        W16674  41.374  32.183  10.362
44250W        W16675   1.020  25.701  10.618
44251W        W16676   6.255  12.698   4.654
44252W        W16677   4.160   6.317  14.739
44253W        W16678  29.479  15.503  13.030
44254W        W16679  37.244  22.014   3.031
44255W        W16680   6.710  40.012  13.259
44256W        W16681  16.137  37.443  12.948
44257W        W16682  39.037  39.957  10.098
44258W        W16683  36.881  34.585   0.612
44259W        W16684  44.478   9.830  14.048
44260W        W16685  16.872  29.508  10.600
44261W        W16686  10.371  36.069   2.401
44262W        W16687  25.613  30.203  14.443
44263W        W16688  35.624  16.164   1.256
44264W        W16689  34.837  34.311  12.850
44265W        W16690   8.660  28.518   0.509
44266W        W16691  29.904  25.307  11.858
44267W        W16692  32.156  42.578   3.747
44268W        W16693  29.563  43.936  14.987
44269W        W16694  11.656  27.028   2.333
44270W        W16695  33.475  15.109  10.114
44271W        W16696  19.854  14.071   5.081
44272W        W16697   6.045   0.271  13.105
44273W        W16698  35.034  33.825   0.955
44274W        W16699  11.687  21.251   1.770
44275W        W16700  13.328  31.909   3.304
44276W        W16701  39.326  27.237   2.209
44277W        W16702  38.343  41.659  12.197
44278W        W16703  16.869  28.909   2.323
44279W        W16704  11.863   1.394  14.276
44280W        W16705  44.225  33.066  12.465
44281W        W16706  12.105   8.437   4.556
44282W        W16707  21.588   7.608   3.777
44283W        W16708  35.851  32.972  12.014
44284W        W16709  31.112  31.711   4.379
44285W        W16710  29.574  21.623  11.099
44286W        W16711   3.703  31.630   2.671
44287W        W16712   0.658  20.606  13.037
44288W        W16713  27.622  22.912   2.209
44289W        W16714  43.217  41.529   3.357
44290W        W16715   2.782   3.249   1.516
44291W        W16716  14.655  22.639  13.517
44292W        W16717  34.933  20.300  14.287
44293W        W16718  27.591   4.851  13.501
44294W        W16719  20.474  35.989   4.539
44295W        W16720   5.722  12.726   4.648
44296W        W16721   2.950  16.124  12.636
44297W        W16722  21.097   6.310   2.622
44298W        W16723  41.932  31.458  10.721
44299W        W16724   8.181   6.903   1.205
44300W        W16725  11.230  39.370  13.950
44301W        W16726  24.301  17.018  14.269
44302W        W16727  24.953  11.832  10.766
44303W        W16728  34.372  39.275   2.276
44304W        W16729  14.720   0.375  14.037
44305W        W16730  25.653   1.242  14.293
44306W        W16731  44.287  39.023   2.400
44307W        W16732  12.262   4.277   4.135
44308W        W16733  10.907   3.781   2.117
44309W        W16734  41.856  38.401  14.380
44310W        W16735   8.892  21.807   3.444
44311W        W16736  28.351   6.846   3.276
44312W        W16737  44.910  25.511  10.850
44313W        W16738  20.323   3.235   3.666
44314W        W16739  35.893  12.152   4.582
44315W        W16740  24.023   2.106   4.154
44316W        W16741  26.281  19.363   2.757
44317W        W16742  29.111  19.890  14.314
44318W        W16743  44.495  12.724  10.150
44319W        W16744  20.534  31.944   5.145
44320W        W16745   5.414   1.067   3.274
44321W        W16746  17.501  24.519   3.674
44322W        W16747   9.668  22.549   1.754
44323W        W16748  27.157  10.378  14.032
44324W        W16749  20.337  35.188  11.104
44325W        W16750  27.035  11.728  11.409
44326W        W16751  18.071  21.610  14.406
44327W        W16752   0.247  24.912  11.587
44328W        W16753  18.983  41.111   1.818
44329W        W16754   1.201  16.462   0.019
44330W        W16755  10.737  23.039   1.266
44331W        W16756  18.681  36.944   2.134
44332W        W16757   3.416  11.493  14.428
44333W        W16758  17.236  21.630  13.563
44334W        W16759  35.119  30.206  13.551
44335W        W16760   6.816  43.259  13.077
44336W        W16761   5.325  18.587  13.586
44337W        W16762  44.540  13.831  12.446
44338W        W16763  24.616  44.427   4.280
44339W        W16764   1.273  12.063  11.527
44340W        W16765  17.057  15.040   2.418
44341W        W16766  26.601   9.049  10.802
44342W        W16767  40.387  26.198  13.936
44343W        W16768  35.609  24.062  13.109
44344W        W16769  15.835  42.960  14.809
44345W        W16770  12.842  14.268  14.921
44346W        W16771  10.333  24.975   1.673
44347W        W16772  19.606  11.166   2.448
44348W        W16773  31.026  24.319  12.773
44349W        W16774   4.215   9.529   4.334
44350W        W16775  13.596  31.353   0.784
44351W        W16776   2.231  39.728  11.130
44352W        W16777  27.412  20.555  11.118
44353W        W16778  22.655   3.950   3.180
44354W        W16779   8.228  10.801  12.455
44355W        W16780  15.182  30.611   0.266
44356W        W16781  17.096   1.721   2.295
44357W        W16782  20.925  18.704   3.658
44358W        W16783  10.829  12.349   3.248
44359W        W16784  11.387   9.615  14.442
44360W        W16785  23.585  10.176  10.181
44361W        W16786   7.771  33.031   1.000
44362W        W16787  13.053  43.782   0.445
44363W        W16788  44.418   1.066   4.622
44364W        W16789  27.666   0.979  12.085
44365W        W16790  44.347  36.211   5.046
44366W        W16791  27.504   6.374  13.520
44367W        W16792  27.024  18.111  12.454
44368W        W16793  17.743  22.430  11.445
44369W        W16794  32.184  38.834  11.570
44370W        W16795  20.994  32.472   3.514
44371W        W16796   6.662  34.205   1.147
44372W        W16797  42.039  14.095   3.453
44373W        W16798   3.730  11.366  11.617
44374W        W16799  43.126  35.800   4.777
44375W        W16800  37.795  44.380  14.531
44376W        W16801  14.210  30.998  14.293
44377W        W16802  34.597  37.998   0.743
44378W        W16803  38.973  27.842   4.107
44379W        W16804  19.909  24.170  11.889
44380W        W16805  44.203  43.856  10.921
44381W        W16806   9.016  38.467   3.731
44382W        W16807  24.644  26.667   2.959
44383W        W16808  37.553  21.729   0.710
44384W        W16809  31.925  32.300  11.118
44385W        W16810  29.439  22.069  14.031
44386W        W16811  34.872  10.246  10.301
44387W        W16812  13.293  17.358  12.886
44388W        W16813  41.901  10.255   4.028
44389W        W16814  16.703  22.514   0.473
44390W        W16815   6.228   5.391   3.268
44391W        W16816  27.391  21.003  10.777
44392W        W16817  32.782  31.191  13.961
44393W        W16818  10.897  37.095  10.303
44394W        W16819  39.797  12.107  11.570
44395W        W16820  11.813  23.550   2.817
44396W        W16821  29.727  21.516   0.354
44397W        W16822  28.026  44.207   1.772
44398W        W16823  36.834  18.596  14.323
44399W        W16824  31.656   5.754  12.633
44400W        W16825  29.944  39.539  12.536
44401W        W16826  24.524  42.855   1.337
44402W        W16827  15.326  11.852   0.876
44403W        W16828  32.203  43.546   5.120
44404W        W16829  27.349  27.406  11.645
44405W        W16830  40.253  42.850  13.837
44406W        W16831  32.581  40.887  14.956
44407W        W16832  38.206   0.567   5.283
44408W        W16833  32.644  43.559   3.132
44409W        W16834   2.353  33.829  10.556
44410W        W16835  29.721  35.062  12.023
44411W        W16836  35.945   3.428   1.346
44412W        W16837  21.218  41.362   0.389
44413W        W16838  16.590  18.365   1.364
44414W        W16839   9.033   2.039  11.218
44415W        W16840  36.510  23.896   0.023
44416W        W16841  38.552  43.609   5.039
44417W        W16842  37.317  11.691   3.608
44418W        W16843  43.098  25.087   3.356
44419W        W16844  14.341  10.763   1.718
44420W        W16845   8.862  21.110  13.465
44421W        W16846  15.054  33.007  14.238
44422W        W16847   0.942   2.698  13.853
44423W        W16848  25.099  12.579   2.158
44424W        W16849  44.930  33.109  12.008
44425W        W16850  43.355  30.103  14.470
44426W        W16851  41.560  26.872   1.886
44427W        W16852  10.776  18.546  10.734
44428W        W16853  33.887  18.515   2.282
44429W        W16854   4.926  17.742  13.946
44430W        W16855  33.098  18.632   2.720
44431W        W16856  11.329  20.056   2.798
44432W        W16857  17.959   3.905  10.643
44433W        W16858   7.671  33.920  11.157
44434W        W16859   2.460  33.670   2.639
44435W        W16860   2.363  43.423   2.870
44436W        W16861  21.537  32.642  11.353
44437W        W16862  37.883   7.646  11.684
44438W        W16863  26.177   4.747   3.862
44439W        W16864  11.739  40.295   2.708
44440W        W16865  39.313   7.827   0.404
44441W        W16866  42.293  11.188   2.290
44442W        W16867  25.192   1.520   2.262
44443W        W16868  16.476  29.408  11.446
44444W        W16869  24.698  17.808  14.030
44445W        W16870   5.025  40.573  10.909
44446W        W16871  20.556  30.769  10.281
44447W        W16872  42.904  40.749  12.300
44448W        W16873  36.947   9.993   4.117
44449W        W16874  44.529  44.818  11.867
44450W        W16875  30.686  19.846   0.004
44451W        W16876  33.036  20.435  14.721
44452W        W16877  23.637  40.497   2.877
44453W        W16878  15.236   5.606   1.969
44454W        W16879   3.777  40.281   2.765
44455W        W16880  35.381  43.488   1.297
44456W        W16881   2.992  37.871  12.511
44457W        W16882  42.086  13.694   2.873
44458W        W16883  10.176  27.246  11.115
44459W        W16884   3.315  19.965  10.821
44460W        W16885  12.937  42.339  14.908
44461W        W16886  14.035  42.531   2.705
44462W        W16887   4.971  23.151  12.173
44463W        W16888   6.831  40.818   3.881
44464W        W16889  39.402  17.738   4.526
44465W        W16890  38.474   8.896  12.417
44466W        W16891   2.406  14.015   3.234
44467W        W16892  43.530  17.174   4.578
44468W        W16893  42.077  34.696  10.230
44469W        W16894   5.764   0.546  10.484
44470W        W16895  34.956  15.988   0.890
44471W        W16896   0.195  12.710   3.053
44472W        W16897  40.408  37.837   2.315
44473W        W16898   3.357  13.149  13.456
44474W        W16899   1.826  43.656   2.573
44475W        W16900  34.758   8.647   2.672
44476W        W16901  12.947  17.175   4.312
44477W        W16902  40.559   8.525   4.242
44478W        W16903  34.036   1.793  11.580
44479W        W16904  42.975  41.531  13.864
44480W        W16905   3.914   5.193   1.350
44481W        W16906   1.019   3.255  14.910
44482W        W16907   2.753  24.923   1.865
44483W        W16908  35.381  20.629   3.229
44484W        W16909  17.821  36.463   1.780
44485W        W16910  41.767  13.572   1.624
44486W        W16911  15.067   8.899  14.613
44487W        W16912   7.355  18.940  11.114
44488W        W16913  42.554  12.343  10.626
44489W        W16914  24.087  32.652   1.997
44490W        W16915  37.556  38.087   3.397
44491W        W16916  38.567  13.720   3.302
44492W        W16917   7.363   9.050  12.298
44493W        W16918  18.385  21.988   2.770
44494W        W16919  15.356  37.478   1.209
44495W        W16920  12.143   8.098  14.962
44496W        W16921  43.981  18.110  12.473
44497W        W16922  38.770  18.232  10.582
44498W        W16923  19.314   6.465  12.384
44499W        W16924   5.908  14.351   3.291
44500W        W16925  12.143   7.325   4.503
44501W        W16926   9.238  34.090  13.489
44502W        W16927  38.892  15.605  14.200
44503W        W16928   8.426   8.227   5.061
44504W        W16929  32.457  29.907  11.206
44505W        W16930   9.209  23.058  14.995
44506W        W16931  27.467   9.146   3.738
44507W        W16932   6.850  29.120   2.117
44508W        W16933  25.765  41.587   1.368
44509W        W16934  40.869  26.102  14.071
44510W        W16935  36.432  21.810  12.045
44511W        W16936  33.534  29.137  10.413
44512W        W16937  40.039   1.060   5.094
44513W        W16938  18.288  16.279  11.765
44514W        W16939  24.761  35.021   2.345
44515W        W16940  44.978  15.834  13.047
44516W        W16941  18.767  15.319   2.189
44517W        W16942  22.528  24.228  12.740
44518W        W16943  10.031  27.940  11.585
44519W        W16944   1.404  26.542  12.410
44520W        W16945  44.658  23.086  13.435
44521W        W16946   5.882   0.239   3.160
44522W        W16947   7.683  17.574   3.730
44523W        W16948   9.308  11.917   0.746
44524W        W16949  30.726  17.211   0.965
44525W        W16950  17.297  28.524  13.606
44526W        W16951  43.901   8.427  11.070
44527W        W16952  38.893  32.671  12.390
44528W        W16953  39.558   0.419   5.420
44529W        W16954  17.337  26.098   2.194
44530W        W16955  30.795   8.686  11.289
44531W        W16956   1.477   3.180   1.107
44532W        W16957   6.756   4.212  10.607
44533W        W16958  30.925  44.496  12.785
44534W        W16959  17.197  34.759   0.432
44535W        W16960  20.693   0.963  11.380
44536W        W16961  31.991  30.882  10.480
44537W        W16962  16.235  41.822  11.522
44538W        W16963   5.401  13.544   4.162
44539W        W16964  11.712  39.769   2.780
44540W        W16965  25.572  32.792  12.390
44541W        W16966  18.300  30.980   4.631
44542W        W16967   3.082  14.780   4.682
44543W        W16968  15.238   9.083   0.431
44544W        W16969  14.221  36.435  10.358
44545W        W16970  31.992   7.340   2.071
44546W        W16971  15.229  29.541   3.058
44547W        W16972  34.026   5.875  10.597
44548W        W16973   6.720  33.840  11.095
44549W        W16974  43.060  40.519   3.226
44550W        W16975  22.708   6.717  14.952
44551W        W16976   5.334  10.783   0.789
44552W        W16977  20.757  17.620  10.591
44553W        W16978  10.475  21.729  10.745
44554W        W16979  21.282  21.783   3.192
44555W        W16980  35.076   9.743   0.424
44556W        W16981  28.814  37.375  12.556
44557W        W16982  24.633   7.328   2.451
44558W        W16983   4.235   9.219   2.206
44559W        W16984  37.052  25.015  10.960
44560W        W16985  31.486  31.473  12.457
44561W        W16986  10.677  44.292  12.648
44562W        W16987  44.327  24.539   1.635
44563W        W16988   5.456   2.493   1.385
44564W        W16989  29.117  10.884   3.863
44565W        W16990  13.055  11.562  13.444
44566W        W16991  14.872  38.544   3.510
44567W        W16992  41.344  26.461  13.485
44568W        W16993  44.351  12.850   0.059
44569W        W16994  32.182  11.801   1.744
44570W        W16995   2.319  15.531   2.799
44571W        W16996  10.493  41.239   3.008
44572W        W16997  43.617  41.522   0.464
44573W        W16998   6.640  25.129  13.547
44574W        W16999   3.196  33.604  10.544
44575W        W17000  20.875  18.601  13.017
44576W        W17001  31.031  27.055   0.528
44577W        W17002  10.952  25.653  14.441
44578W        W17003  22.540   1.434   0.002
44579W        W17004  36.017  14.260   3.747
44580W        W17005  28.064   1.466   3.355
44581W        W17006  43.428  14.352  12.045
44582W        W17007  37.014   9.303   0.328
44583W        W17008  11.599  10.222   5.055
44584W        W17009  32.878  11.422  10.643
44585W        W17010  36.949  37.121   0.836
44586W        W17011  12.771  16.540  11.873
44587W        W17012  30.458  35.930  10.476
44588W        W17013  27.447  14.705   3.833
44589W        W17014  13.132  26.947   4.873
44590W        W17015  34.625  36.905  10.555
44591W        W17016  40.324  15.055   0.320
44592W        W17017  16.741  29.407  14.505
44593W        W17018  26.935  31.675  11.401
44594W        W17019  20.112  39.433   2.790
44595W        W17020  31.188   0.619   3.040
44596W        W17021  31.917  43.811  12.893
44597W        W17022  36.301   1.299   3.212
44598W        W17023  13.180  21.992   9.786
44599W        W17024  33.380  24.654   4.526
44600W        W17025  40.356  20.198   2.213
44601W        W17026  31.170   9.669  12.035
44602W        W17027  13.505  32.324  12.848
44603W        W17028  37.020  18.706   2.151
44604W        W17029  28.078  26.156  10.747
44605W        W17030   5.666  22.777  11.010
44606W        W17031  11.214  11.281   2.425
44607W        W17032  21.753   9.401   0.279
44608W        W17033  28.446  24.709  14.308
44609W        W17034  20.934  41.031   1.281
44610W        W17035  15.711  25.740  10.771
44611W        W17036  15.265   6.392   3.172
44612W        W17037  31.315  36.998  10.922
44613W        W17038  18.684  37.382   5.120
44614W        W17039   1.757  29.068   3.243
44615W        W17040  29.614  16.178  13.588
44616W        W17041  16.576  21.573   0.256
44617W        W17042   1.734  27.361  13.884
44618W        W17043  30.611  39.801   0.355
44619W        W17044  15.665  44.268   0.625
44620W        W17045  36.762   8.280   2.168
44621W        W17046  31.968  43.382   0.983
44622W        W17047  15.652  13.615   3.247
44623W        W17048  25.533  28.115   1.899
44624W        W17049   7.963  23.596   3.203
44625W        W17050  33.456  41.669  11.212
44626W        W17051  28.290  30.947   0.468
44627W        W17052  19.401  30.634  11.849
44628W        W17053   2.190  19.965  14.353
44629W        W17054  20.107  25.048   5.058
44630W        W17055  42.805  27.955   3.195
44631W        W17056  11.713  22.517  11.975
44632W        W17057  32.036  23.698  11.430
44633W        W17058  26.420  36.873   0.770
44634W        W17059  25.731  27.595  14.364
44635W        W17060  43.317  38.956   1.197
44636W        W17061  36.309  14.269  10.208
44637W        W17062  37.418  27.087  13.030
44638W        W17063  24.919  36.493   1.438
44639W        W17064  16.308  38.934  13.132
44640W        W17065   0.499  24.628   1.718
44641W        W17066  26.169  29.372  12.416
44642W        W17067  28.361  42.555   2.346
44643W        W17068  35.001  15.677  14.395
44644W        W17069  11.326  14.853  14.390
44645W        W17070  29.109  30.308  12.449
44646W        W17071  27.960   1.154   1.917
44647W        W17072  11.579  32.553   2.337
44648W        W17073  30.220  30.905  14.176
44649W        W17074  31.594   6.225  14.995
44650W        W17075  36.343  35.971  11.062
44651W        W17076  11.095  37.145   1.294
44652W        W17077  13.837   8.667   3.265
44653W        W17078  13.683  15.025  10.706
44654W        W17079  27.444  42.078   4.312
44655W        W17080  11.419  44.302  10.700
44656W        W17081  35.815  33.115  12.530
44657W        W17082  37.472   0.627  11.583
44658W        W17083  28.308  36.914   2.531
44659W        W17084  16.791  32.646  11.980
44660W        W17085  22.466  19.701   1.533
44661W        W17086  35.540  11.107  10.901
44662W        W17087  41.413  40.574  14.838
44663W        W17088  23.469  10.362  13.201
44664W        W17089  20.107  42.399   3.717
44665W        W17090  39.231  42.421  14.994
44666W        W17091  28.813  11.799  12.978
44667W        W17092  31.367   4.859   3.586
44668W        W17093  16.809  13.335   0.662
44669W        W17094  25.744  18.438   4.240
44670W        W17095  38.825   7.784   0.516
44671W        W17096  20.155   6.337  14.806
44672W        W17097  15.931  36.577  12.026
44673W        W17098  20.055  22.705  14.304
44674W        W17099  13.651  18.985  13.388
44675W        W17100   5.774   5.885  11.414
44676W        W17101  12.165  41.019  14.865
44677W        W17102  35.991   7.822   3.697
44678W        W17103  15.624  13.319  11.438
44679W        W17104   5.242   9.857  10.619
44680W        W17105  24.944   7.222  14.780
44681W        W17106  12.808  39.471   3.294
44682W        W17107  24.891  11.561   0.647
44683W        W17108  43.761  12.115   4.660
44684W        W17109  40.615  13.319  12.486
44685W        W17110  29.443  25.946   2.207
44686W        W17111  12.910  35.900   1.307
44687W        W17112   8.241  31.453   3.241
44688W        W17113  30.465   1.364  14.690
44689W        W17114  18.164  41.455   3.272
44690W        W17115  38.919  32.920  14.668
44691W        W17116  23.028  33.009   4.487
44692W        W17117   9.236  44.433  14.492
44693W        W17118  42.759  29.925   3.283
44694W        W17119   9.833  17.230   1.370
44695W        W17120  42.817  12.325   2.884
44696W        W17121  23.800   2.851   4.534
44697W        W17122   8.467  14.600   4.136
44698W        W17123  13.841  33.842   3.726
44699W        W17124  18.344  38.245  13.250
44700W        W17125  29.596  32.978   4.979
44701W        W17126  13.859  41.549  13.820
44702W        W17127  16.749  35.408  12.546
44703W        W17128   7.848  35.780   2.255
44704W        W17129  22.184  22.763   2.808
44705W        W17130  27.472  29.525  14.749
44706W        W17131  37.597  27.441  13.921
44707W        W17132  23.275  38.597   2.281
44708W        W17133   4.912  20.741  11.703
44709W        W17134  20.137  44.408  12.953
44710W        W17135  10.787  15.272   4.738
44711W        W17136  33.971   8.318   4.619
44712W        W17137   2.506   1.639  11.989
44713W        W17138  29.987  40.198  14.952
44714W        W17139  22.308  25.852  13.971
44715W        W17140  16.252  38.559   3.175
44716W        W17141  41.522  19.181  10.790
44717W        W17142  16.276  31.936  14.362
44718W        W17143  44.803  42.090   2.582
44719W        W17144  44.232  43.474  13.382
44720W        W17145  31.173  40.998  12.227
44721W        W17146  30.092   9.668   0.789
44722W        W17147   6.213  15.295   0.335
44723W        W17148   4.467  14.692  14.805
44724W        W17149  15.504   1.790  10.602
44725W        W17150  31.011  22.118  11.212
44726W        W17151  34.414  30.265   2.357
44727W        W17152   3.992   5.669   0.425
44728W        W17153  20.923   5.208   4.171
44729W        W17154  29.761  41.151  12.364
44730W        W17155  28.936  44.481  10.169
44731W        W17156  38.146  14.350  14.859
44732W        W17157   5.903   6.652  14.278
44733W        W17158   8.702   7.725   4.644
44734W        W17159  40.940  26.151  12.623
44735W        W17160  30.203   1.015   1.697
44736W        W17161  13.913  23.959   0.299
44737W        W17162   9.282   4.925   4.487
44738W        W17163   5.279  18.201   4.124
44739W        W17164  35.560   0.850   4.398
44740W        W17165   5.385  42.748  13.893
44741W        W17166  26.008   1.429   1.018
44742W        W17167   2.846  18.172  14.828
44743W        W17168  28.395  40.434  11.147
44744W        W17169  30.696   0.395  12.721
44745W        W17170  22.128   2.862   3.678
44746W        W17171   5.785  41.321   3.255
44747W        W17172  20.068  28.316  11.890
44748W        W17173  22.704  20.027   2.804
44749W        W17174  41.373  44.587   1.328
44750W        W17175  42.479  26.169   1.198
44751W        W17176  32.171  36.962  12.951
44752W        W17177  15.657  34.586  12.408
44753W        W17178  41.098  33.506  14.948
44754W        W17179  37.099  21.984  13.477
44755W        W17180  22.735  31.684  11.217
44756W        W17181  15.285   0.838   1.741
44757W        W17182  29.781  28.022  12.746
44758W        W17183  43.694  37.112  14.462
44759W        W17184  14.357  26.619   2.883
44760W        W17185  11.706   8.702   2.771
44761W        W17186   4.688  16.235   1.342
44762W        W17187  44.810   0.981   0.035
44763W        W17188  41.548  32.985   1.959
44764W        W17189   1.969  21.488   1.604
44765W        W17190  40.949  28.580  13.457
44766W        W17191  26.563  28.910   0.783
44767W        W17192  39.864  16.545  12.183
44768W        W17193  31.172  30.233   4.846
44769W        W17194  17.630   1.634  13.611
44770W        W17195  17.142  28.818  12.917
44771W        W17196  14.629  16.983   0.519
44772W        W17197  23.826   8.277   5.580
44773W        W17198   0.726  20.799  11.250
44774W        W17199  19.072  28.643   2.210
44775W        W17200  42.365  30.225  10.734
44776W        W17201  21.666   1.992  12.514
44777W        W17202  31.463  29.503   2.221
44778W        W17203  15.816  19.731   4.590
44779W        W17204   0.964   4.964  13.245
44780W        W17205  32.482  18.128  11.419
44781W        W17206  24.980  16.266  14.603
44782W        W17207  19.496  30.122   5.605
44783W        W17208   5.452  32.563   4.129
44784W        W17209  39.801   5.360   0.381
44785W        W17210   2.470  41.958   1.942
44786W        W17211  43.482  18.047   0.524
44787W        W17212  18.672   2.027   5.037
44788W        W17213  24.637  33.379   0.165
44789W        W17214  41.062  27.056   1.889
44790W        W17215   9.184  14.390  11.126
44791W        W17216  31.716  21.613   1.633
44792W        W17217  34.160   8.662  14.506
44793W        W17218  17.092  27.845   4.010
44794W        W17219  19.271  42.414  12.250
44795W        W17220  10.651  17.757  13.398
44796W        W17221  33.203  28.736   2.744
44797W        W17222  32.166  21.163  11.104
44798W        W17223  14.411  37.986  12.552
44799W        W17224   9.240  10.369   3.753
44800W        W17225  25.742   9.963   1.706
44801W        W17226  20.251  12.894   5.202
44802W        W17227  15.778  39.897  12.062
44803W        W17228  35.094   9.917   3.964
44804W        W17229  20.069  12.196   2.221
44805W        W17230  12.702   8.340  13.856
44806W        W17231  32.287  11.956  13.797
44807W        W17232  27.596   7.611   2.288
44808W        W17233  28.964  43.536   1.146
44809W        W17234  17.205  29.995  11.952
44810W        W17235   8.400   3.367  10.814
44811W        W17236   6.131  42.287  12.478
44812W        W17237   3.984   3.360   4.350
44813W        W17238  44.066  21.535   4.309
44814W        W17239  22.978  20.779  12.039
44815W        W17240  36.411  43.354   4.365
44816W        W17241  29.060  41.348  10.459
44817W        W17242  17.021  10.579  10.130
44818W        W17243   6.081  27.079   0.360
44819W        W17244  16.617  12.641   3.410
44820W        W17245   8.527  29.645  14.020
44821W        W17246  20.121  31.258  12.304
44822W        W17247  15.700   5.345   1.885
44823W        W17248  37.811  30.910   0.915
44824W        W17249  30.643  23.507  10.009
44825W        W17250  26.652   3.536   4.219
44826W        W17251  44.697  26.670  12.516
44827W        W17252  22.306  34.924  13.575
44828W        W17253  38.398  26.646   4.242
44829W        W17254   2.997  37.661   4.561
44830W        W17255   3.227  17.681  13.463
44831W        W17256  34.687  16.790   4.584
44832W        W17257   1.518  26.508  10.591
44833W        W17258  16.114  20.549   0.794
44834W        W17259  33.424  35.301   4.225
44835W        W17260  44.769   3.965  11.938
44836W        W17261  27.820  33.017   4.419
44837W        W17262   3.748  33.824   2.947
44838W        W17263  31.670   0.303  13.469
44839W        W17264  33.662  35.923  12.583
44840W        W17265  10.188  31.141  13.537
44841W        W17266  11.392  15.128   0.549
44842W        W17267  32.535  14.780   4.396
44843W        W17268   2.477  44.520  14.754
44844W        W17269  42.402  16.793   2.800
44845W        W17270  38.093  37.995  11.716
44846W        W17271  38.319  13.018   1.702
44847W        W17272  15.209  22.757   2.663
44848W        W17273  18.383  13.236  11.330
44849W        W17274  42.973  43.975  14.061
44850W        W17275  30.507   9.220   1.169
44851W        W17276  14.638  44.885  12.067
44852W        W17277  31.831  24.910   3.720
44853W        W17278  30.492  19.476   2.850
44854W        W17279  41.019  32.995  14.858
44855W        W17280  36.761  41.991   1.714
44856W        W17281  29.499   3.697  12.898
44857W        W17282  35.832  29.171   2.060
44858W        W17283  24.236  15.601   3.303
44859W        W17284  32.725  38.596   2.892
44860W        W17285  21.219  32.855   3.242
44861W        W17286  31.907  33.632   4.637
44862W        W17287  16.828  16.822   1.340
44863W        W17288  23.967  35.602   4.275
44864W        W17289   8.894   3.483  10.951
44865W        W17290  25.061  14.812  14.543
44866W        W17291  28.943  29.940   1.360
44867W        W17292  21.831  24.576   4.280
44868W        W17293  17.678  33.766  10.637
44869W        W17294  18.683   7.909  14.818
44870W        W17295   1.317  16.034   1.713
44871W        W17296  18.730   8.657   4.512
44872W        W17297  20.073  16.174  11.981
44873W        W17298  10.389  22.033   2.755
44874W        W17299   7.207  34.551   3.254
44875W        W17300  14.211  33.986   2.632
44876W        W17301  23.234   1.877   0.231
44877W        W17302   9.691  18.553  12.022
44878W        W17303  15.640  37.433   2.850
44879W        W17304  38.807  12.143   2.673
44880W        W17305  33.713  15.626  13.946
44881W        W17306   0.240  36.390   4.517
44882W        W17307   7.160  41.096   0.293
44883W        W17308  26.468  41.093  13.940
44884W        W17309  37.588  25.157   5.606
44885W        W17310  34.990  43.377  10.743
44886W        W17311  26.935  19.153   2.339
44887W        W17312  13.311   9.788  13.058
44888W        W17313  15.632   6.432   4.684
44889W        W17314   8.460  15.231   0.310
44890W        W17315  44.884  27.041  14.473
44891W        W17316  21.699  13.768   2.269
44892W        W17317  42.362  27.721   0.142
44893W        W17318  27.299   6.412  14.300
44894W        W17319  36.077   5.679   1.676
44895W        W17320   5.035  44.845   1.734
44896W        W17321   2.037  44.185   3.266
44897W        W17322   7.357  17.114  12.521
44898W        W17323  26.527  25.103   0.249
44899W        W17324  41.022   4.720  13.999
44900W        W17325  11.676  43.582  14.429
44901W        W17326  37.018   3.242   0.062
44902W        W17327  37.570  40.503   1.918
44903W        W17328  41.831  40.440   3.723
44904W        W17329  32.389  30.160   4.308
44905W        W17330  43.291  29.839   0.788
44906W        W17331  27.746  28.222  10.639
44907W        W17332  25.026  10.073  10.235
44908W        W17333  10.949   4.781   3.567
44909W        W17334  37.481  36.028  11.051
44910W        W17335  10.310  19.489  11.281
44911W        W17336   3.963  18.103   4.064
44912W        W17337   4.715  31.607   4.324
44913W        W17338  28.829  14.214   1.787
44914W        W17339  16.770  30.706   2.830
44915W        W17340  30.590  16.108  13.569
44916W        W17341   6.805   5.495   3.750
44917W        W17342   0.107   6.888   2.811
44918W        W17343  36.285  28.539  13.334
44919W        W17344  28.565  16.504  10.972
44920W        W17345  26.786  26.218   2.825
44921W        W17346  25.796  31.885   3.935
44922W        W17347   1.397  11.345  12.832
44923W        W17348  18.364  38.797   4.731
44924W        W17349  34.995  29.499   2.335
44925W        W17350  13.097  30.488  14.308
44926W        W17351  25.594  42.784  10.268
44927W        W17352  37.106  35.072  12.499
44928W        W17353  13.597  13.316   3.682
44929W        W17354  18.203  22.807  14.561
44930W        W17355  17.041  38.849   1.490
44931W        W17356  34.648   1.716  11.228
44932W        W17357   7.328  38.824  10.091
44933W        W17358  19.796  28.432  12.870
44934W        W17359  23.015  40.819   4.670
44935W        W17360  13.702  10.381   2.795
44936W        W17361  18.677  22.280   0.892
44937W        W17362  11.917  31.082  11.034
44938W        W17363  23.490   5.782  12.479
44939W        W17364  35.495  35.616   2.369
44940W        W17365  26.143   5.303   4.186
44941W        W17366  36.641  13.077  11.045
44942W        W17367  37.619  42.908  11.364
44943W        W17368  42.125  30.249  13.420
44944W        W17369  39.992  41.375  11.900
44945W        W17370  20.078  26.215  11.455
44946W        W17371   0.218   3.880   3.160
44947W        W17372  11.249  27.480   2.921
44948W        W17373  15.705  40.033   9.995
44949W        W17374   6.308   8.930  11.357
44950W        W17375  28.532  22.951  13.487
44951W        W17376  14.164  43.266  12.217
44952W        W17377  32.920  30.923   4.772
44953W        W17378  43.828  11.725  10.472
44954W        W17379  24.161  31.649  14.756
44955W        W17380  23.631  38.168  14.163
44956W        W17381   5.198  16.107  12.707
44957W        W17382  43.242  14.249   0.102
44958W        W17383  38.314  33.856  10.759
44959W        W17384   2.864  25.784   1.263
44960W        W17385  42.778  26.229  12.899
44961W        W17386  13.169   2.356   3.193
44962W        W17387  25.092  25.599  13.815
44963W        W17388  32.969  15.928   1.638
44964W        W17389  42.215  41.582   2.489
44965W        W17390  25.646  40.343   4.178
44966W        W17391  13.329  19.094   2.349
44967W        W17392  18.078  21.103   0.553
44968W        W17393   7.775  18.227  13.261
44969W        W17394  20.438   8.370  13.512
44970W        W17395  14.367  37.890   4.193
44971W        W17396   9.296  15.554   0.468
44972W        W17397   7.074  41.627   0.446
44973W        W17398   6.677  21.283   1.858
44974W        W17399   1.406  30.408   3.043
44975W        W17400  41.684   5.375  12.347
44976W        W17401  31.116  37.113  14.405
44977W        W17402  21.812  20.289  12.907
44978W        W17403  11.954  36.918   4.574
44979W        W17404  12.486   0.243   3.214
44980W        W17405  28.238  27.866  10.139
44981W        W17406  43.776   3.931   4.254
44982W        W17407   9.122  35.880  11.373
44983W        W17408  16.606  43.384   3.714
44984W        W17409  19.267   4.828   3.712
44985W        W17410  31.565   6.731  11.724
44986W        W17411  15.182   9.153   1.824
44987W        W17412  25.738  26.976  14.783
44988W        W17413   9.440   6.860  12.674
44989W        W17414  36.553  25.248   4.659
44990W        W17415  14.059  15.524   4.936
44991W        W17416  40.516  32.064   2.783
44992W        W17417  43.346  14.354  12.702
44993W        W17418  39.089   4.190  11.674
44994W        W17419   3.156  11.363   1.945
44995W        W17420  17.157  13.167  12.560
44996W        W17421  10.256  40.013   2.747
44997W        W17422  38.077  31.400   0.918
44998W        W17423  15.677  11.221  10.415
44999W        W17424  20.777   9.084   0.507
45000W        W17425   2.406  21.855  10.639
45001W        W17426   0.892  29.890  13.036
45002W        W17427  34.332   5.137  11.180
45003W        W17428  25.995  20.819   3.637
45004W        W17429  20.339   8.036   3.865
45005W        W17430   2.410   5.491  12.233
45006W        W17431  41.388  39.552   4.640
45007W        W17432  44.389  11.330  13.383
45008W        W17433  31.158   1.774   4.316
45009W        W17434  36.044  33.421  12.856
45010W        W17435   3.792  11.228   0.740
45011W        W17436  34.916  19.013  13.405
45012W        W17437  28.280  32.138   3.403
45013W        W17438  28.577   0.476  14.912
45014W        W17439  28.634  17.656   4.983
45015W        W17440  24.168  38.540   4.416
45016W        W17441  31.412  34.235  13.404
45017W        W17442   7.369  37.861   5.311
45018W        W17443  33.585  34.953   0.666
45019W        W17444  39.493  29.071  13.870
45020W        W17445  43.038   1.782   1.603
45021W        W17446   3.230   6.489  12.382
45022W        W17447  44.787  43.849   0.351
45023W        W17448   3.008   4.157   3.963
45024W        W17449  16.444  10.673   4.924
45025W        W17450  15.024  19.763  10.679
45026W        W17451  32.107  27.700  12.083
45027W        W17452  42.473  31.864  12.356
45028W        W17453  22.493  30.727  11.164
45029W        W17454   2.879  13.357  13.351
45030W        W17455   9.702  28.656  14.427
45031W        W17456   7.432  21.680   1.003
45032W        W17457   8.507  35.207  13.448
45033W        W17458   4.315  43.514  11.167
45034W        W17459  17.765  44.476  14.892
45035W        W17460  13.633  32.184  14.410
45036W        W17461  41.291   0.816  12.167
45037W        W17462  11.796  35.977  14.867
45038W        W17463  36.982  44.734   4.178
45039W        W17464  42.974  41.020  11.035
45040W        W17465   4.752  44.739   5.074
45041W        W17466  31.881  40.042  12.803
45042W        W17467  20.853   7.202  11.451
45043W        W17468  34.463  27.817  11.961
45044W        W17469  25.113  34.337   3.094
45045W        W17470  13.551   2.790   4.057
45046W        W17471  32.515   9.563   1.232
45047W        W17472  25.072  21.561  11.579
45048W        W17473   4.487   5.257   3.698
45049W        W17474  20.239  25.203  13.313
45050W        W17475  44.445  24.829  12.095
45051W        W17476   1.809   4.747   2.696
45052W        W17477   1.820  21.603   0.987
45053W        W17478  28.076  38.797  13.579
45054W        W17479   8.395  21.552   0.814
45055W        W17480  10.566  35.122   2.228
45056W        W17481  41.254   9.167  12.122
45057W        W17482   1.621  21.105   4.057
45058W        W17483   2.472  44.813   4.634
45059W        W17484  11.277   9.242  11.336
45060W        W17485  35.340  35.013  14.976
45061W        W17486  30.890  32.903  13.628
45062W        W17487  39.374  27.442  14.838
45063W        W17488  23.246  15.984   2.505
45064W        W17489  20.589   1.030   1.168
45065W        W17490  28.495  17.691   4.399
45066W        W17491   9.725   7.230  14.053
45067W        W17492  29.670  38.286   2.840
45068W        W17493   3.305  21.832  11.031
45069W        W17494  23.712  28.170   0.449
45070W        W17495  44.745  34.173  14.063
45071W        W17496  21.207  41.054  14.974
45072W        W17497  34.096  22.662   0.895
45073W        W17498  43.934   0.908   0.455
45074W        W17499  38.309  38.493  11.597
45075W        W17500  13.774  30.592  12.479
45076W        W17501  30.903   8.076  10.649
45077W        W17502  34.591   0.369  13.818
45078W        W17503  35.443  41.435   1.391
45079W        W17504  15.673   2.934   3.631
45080W        W17505   7.374  19.827   1.743
45081W        W17506  25.175  44.486   0.062
45082W        W17507  34.846  21.058   1.864
45083W        W17508  19.722  40.996   2.357
45084W        W17509   6.561  39.917  13.761
45085W        W17510  40.980  34.020   4.481
45086W        W17511  29.632  15.035   0.322
45087W        W17512   5.418  41.465   4.468
45088W        W17513  35.394  23.265   1.064
45089W        W17514  41.001   3.762   2.304
45090W        W17515   0.726  21.310  13.616
45091W        W17516  25.662  43.006  11.179
45092W        W17517  29.249  36.594   0.878
45093W        W17518  17.089   6.192  10.644
45094W        W17519  43.583  29.860   3.658
45095W        W17520  10.333   2.978   4.821
45096W        W17521  44.208  19.173   4.627
45097W        W17522  34.615  18.778  10.686
45098W        W17523  31.983  17.162  13.625
45099W        W17524  15.758  21.648   0.367
45100W        W17525  15.620  16.506   0.821
45101W        W17526   8.192  12.543   4.093
45102W        W17527  19.991  43.091  13.684
45103W        W17528   2.041  37.048   2.863
45104W        W17529  11.890  22.159  10.911
45105W        W17530  20.399  42.055   3.398
45106W        W17531  16.043  42.646  12.964
45107W        W17532  18.576  33.057  12.101
45108W        W17533   3.977  24.281  11.355
45109W        W17534  28.720  22.095   2.583
45110W        W17535  22.812  16.083   3.306
45111W        W17536  16.112  33.197  11.542
45112W        W17537  32.145  21.584   0.399
45113W        W17538  14.452  14.060  12.921
45114W        W17539   8.387   0.676  11.624
45115W        W17540  31.585   9.802  13.388
45116W        W17541  15.087  22.114   2.243
45117W        W17542  26.048   7.620  13.517
45118W        W17543  38.248  36.514  13.837
45119W        W17544  19.330  30.772   2.632
45120W        W17545  22.771  44.050  12.020
45121W        W17546   7.737  18.879  13.867
45122W        W17547  10.093   1.331  12.559
45123W        W17548  40.140  31.913  10.740
45124W        W17549  15.605  18.042   4.199
45125W        W17550  39.422  12.810  11.142
45126W        W17551   1.749   2.950  13.552
45127W        W17552  27.249   7.337  10.570
45128W        W17553  12.308  29.794   1.145
45129W        W17554  29.151  44.744   4.071
45130W        W17555  42.217   8.207   1.582
45131W        W17556   6.231  40.060   2.925
45132W        W17557  24.439  25.185   1.926
45133W        W17558   8.058  14.716  10.654
45134W        W17559  42.474  12.226  13.469
45135W        W17560  30.638  19.514  11.052
45136W        W17561  14.332   8.386   1.807
45137W        W17562  15.637  21.571   0.908
45138W        W17563  19.014  37.522   1.011
45139W        W17564   1.870  28.871   1.894
45140W        W17565  13.531   5.139   4.191
45141W        W17566  20.648  26.546  13.995
45142W        W17567  13.601  43.905  13.543
45143W        W17568  16.295   2.163   1.384
45144W        W17569   8.911  16.678   0.113
45145W        W17570  31.005   2.260   2.054
45146W        W17571  32.966   9.798  13.978
45147W        W17572  21.093  30.530  13.039
45148W        W17573  29.788  28.869  12.153
45149W        W17574   9.587  41.566  11.550
45150W        W17575  41.469   5.958   3.988
45151W        W17576  13.630  37.521  10.693
45152W        W17577   4.801  38.297   3.420
45153W        W17578   0.634  21.326   2.241
45154W        W17579   1.829   1.343  11.572
45155W        W17580  11.147  15.798   4.126
45156W        W17581  10.295   8.814   0.910
45157W        W17582  28.065  11.556   0.074
45158W        W17583  23.157  38.460   2.820
45159W        W17584  21.329  10.637   3.574
45160W        W17585  34.621  32.856   3.267
45161W        W17586  40.919  43.552   2.762
45162W        W17587  20.976   2.331   1.685
45163W        W17588  34.009  23.211   2.127
45164W        W17589  38.490   7.235  10.564
45165W        W17590  37.173  41.347  11.468
45166W        W17591   2.842  23.973  14.202
45167W        W17592   4.578  36.145   2.314
45168W        W17593  21.857  44.408  14.359
45169W        W17594  23.105  18.162  13.518
45170W        W17595  26.196  44.921  12.111
45171W        W17596  38.457   3.906   0.327
45172W        W17597   7.418  42.817   3.754
45173W        W17598  41.649  21.797   0.077
45174W        W17599  34.489  24.832   3.910
45175W        W17600  22.273  25.154   0.796
45176W        W17601  35.338  37.415  11.576
45177W        W17602  28.740  24.602   0.172
45178W        W17603  31.565  29.714  13.912
45179W        W17604  19.338  43.148  13.808
45180W        W17605   9.967  25.355   5.044
45181W        W17606  43.795   0.730  12.934
45182W        W17607   7.929  32.599   3.281
45183W        W17608  32.428  29.413   0.670
45184W        W17609  14.214  22.205   4.058
45185W        W17610  22.653  28.736   1.936
45186W        W17611  36.919   0.052   1.979
45187W        W17612   1.965  14.049  11.956
45188W        W17613  42.674  25.012  10.692
45189W        W17614  32.859  27.272  13.246
45190W        W17615  38.950   8.347   1.389
45191W        W17616  36.403  36.420   0.405
45192W        W17617  32.001  43.508   4.508
45193W        W17618  22.283  33.679   1.860
45194W        W17619   8.489  27.551  10.195
45195W        W17620  33.026  12.378  14.555
45196W        W17621  32.690  24.452  12.546
45197W        W17622  32.910  20.916  14.880
45198W        W17623  19.171   7.338   4.285
45199W        W17624  24.201  10.760  11.642
45200W        W17625  27.416  32.315   3.765
45201W        W17626  26.950   4.836   3.173
45202W        W17627  32.226  27.933   2.322
45203W        W17628  30.696   4.100  11.997
45204W        W17629  41.367  44.822  10.029
45205W        W17630  44.923  32.093  12.940
45206W        W17631   2.479  42.879  10.640
45207W        W17632  24.725  41.269   1.368
45208W        W17633  44.330   1.730  10.501
45209W        W17634  35.305  19.670   1.762
45210W        W17635   7.921  18.646  14.299
45211W        W17636  30.732  28.544   0.003
45212W        W17637  35.565  24.328   3.668
45213W        W17638  40.445  16.325  14.011
45214W        W17639  24.966  17.646   0.763
45215W        W17640   1.237  33.236  13.848
45216W        W17641  42.472  27.134  13.908
45217W        W17642  28.681  38.380   0.780
45218W        W17643   6.924  14.108  13.871
45219W        W17644  27.909  35.813  10.723
45220W        W17645  34.454   0.325  14.342
45221W        W17646  42.515  27.557   3.264
45222W        W17647  23.291  21.753  12.144
45223W        W17648   8.655  26.105   4.234
45224W        W17649  16.655  42.699  14.921
45225W        W17650  14.625  44.521  14.766
45226W        W17651  43.010  14.663  14.504
45227W        W17652   5.448  20.204  12.180
45228W        W17653  18.296   3.307   4.641
45229W        W17654  29.528  10.124  11.241
45230W        W17655  15.525  23.626  14.323
45231W        W17656  17.480  40.259   1.300
45232W        W17657  37.830  14.322  13.516
45233W        W17658  20.148  44.941   0.951
45234W        W17659  24.580  26.139   1.476
45235W        W17660  29.491  22.978   3.237
45236W        W17661  34.454   7.278   4.164
45237W        W17662  22.475   2.357   4.516
45238W        W17663  19.196  14.213  12.334
45239W        W17664  10.201  43.826  12.059
45240W        W17665   5.889  28.907   3.297
45241W        W17666  21.073   9.212  13.515
45242W        W17667  27.765   7.841   3.675
45243W        W17668  21.248  24.596  14.004
45244W        W17669  29.395  10.869   3.338
45245W        W17670  19.127  29.528   2.058
45246W        W17671  29.375  32.650  14.764
45247W        W17672  18.386  20.109   2.807
45248W        W17673  16.654  13.868  11.664
45249W        W17674  17.710  14.233   1.482
45250W        W17675  38.074  38.496  12.943
45251W        W17676  20.274   2.197  12.494
45252W        W17677  29.501  42.378   1.301
45253W        W17678  37.975  39.850  11.512
45254W        W17679  44.774  13.567  14.671
45255W        W17680  34.487  21.728   2.339
45256W        W17681  37.350   6.299   3.830
45257W        W17682  11.508   4.268   2.812
45258W        W17683  32.543  19.110  10.540
45259W        W17684  31.388  26.176  13.557
45260W        W17685  38.875  22.475  12.107
45261W        W17686  27.677  44.051   4.394
45262W        W17687  15.070   9.205  11.156
45263W        W17688  24.208   3.843  12.384
45264W        W17689  41.546  18.186  12.943
45265W        W17690   2.848  40.938  11.085
45266W        W17691  15.189  33.328  14.705
45267W        W17692   0.829   3.422   4.659
45268W        W17693   1.529  29.533  13.172
45269W        W17694   7.255   7.216   0.221
45270W        W17695  24.972  28.532  13.624
45271W        W17696  43.823  19.101   4.977
45272W        W17697  36.597  12.588   1.394
45273W        W17698  27.277  42.502  11.133
45274W        W17699   3.950  44.367   0.784
45275W        W17700  18.643  31.363  11.245
45276W        W17701  39.039   1.647   3.207
45277W        W17702  27.063   4.792  12.660
45278W        W17703  14.107  16.026  10.686
45279W        W17704   4.255  38.999   3.184
45280W        W17705  18.272   5.507   4.550
45281W        W17706  39.819   4.233  10.477
45282W        W17707   9.871   9.831  14.434
45283W        W17708  38.127   8.170  12.576
45284W        W17709  24.994  29.531  14.540
45285W        W17710   0.481   7.375  12.853
45286W        W17711  18.681  35.293  13.750
45287W        W17712  43.288  38.948  11.915
45288W        W17713  11.734  30.015   0.909
45289W        W17714   7.514  33.405   4.320
45290W        W17715  11.634   1.558   0.594
45291W        W17716  29.089  11.364  13.949
45292W        W17717  31.641   3.939  12.414
45293W        W17718   4.401  27.349  13.548
45294W        W17719  32.034   8.226   4.741
45295W        W17720  17.280  39.319  10.469
45296W        W17721  14.574  20.488  14.919
45297W        W17722  31.631  23.012   1.562
45298W        W17723  36.845  29.964  10.742
45299W        W17724  13.207  32.495   0.220
45300W        W17725   5.973  21.080  12.398
45301W        W17726  33.481   5.458  11.148
45302W        W17727  17.366  29.558   3.782
45303W        W17728  44.274   7.765   2.207
45304W        W17729  30.023  44.934  10.530
45305W        W17730   7.593  13.768  12.145
45306W        W17731  19.158  32.749   5.435
45307W        W17732   9.806  38.602  11.877
45308W        W17733  33.025  32.073   4.347
45309W        W17734  16.829  39.531  13.853
45310W        W17735  41.911  29.098  13.636
45311W        W17736  27.765   8.845  12.365
45312W        W17737  32.681  26.017   0.520
45313W        W17738  36.889  38.813  14.059
45314W        W17739  17.608  25.289   2.200
45315W        W17740  10.129   9.785   1.461
45316W        W17741  17.965  28.506   2.348
45317W        W17742  35.460  38.236  13.840
45318W        W17743  30.728  34.431  12.892
45319W        W17744  23.602  30.583  14.038
45320W        W17745  23.126   8.063   4.056
45321W        W17746  34.863  33.997  13.435
45322W        W17747  40.783  18.716  13.767
45323W        W17748  44.074  23.496   2.316
45324W        W17749  39.323   2.381  10.566
45325W        W17750  42.828  21.181  14.993
45326W        W17751  33.077  36.844   4.039
45327W        W17752  19.756  17.927  11.184
45328W        W17753  26.151  41.119  14.382
45329W        W17754   2.590  35.097   1.579
45330W        W17755  40.383  17.937  10.260
45331W        W17756  34.518  42.031  13.387
45332W        W17757  17.286  17.531  11.577
45333W        W17758  23.183  21.021  13.360
45334W        W17759  19.839  26.489  12.412
45335W        W17760  21.488  13.705   4.305
45336W        W17761  10.251   9.108   9.518
45337W        W17762  26.565  30.885  10.657
45338W        W17763  12.284  28.570   2.892
45339W        W17764  30.738   6.802   2.169
45340W        W17765   8.191  38.484   2.667
45341W        W17766  21.134  37.607   1.342
45342W        W17767  24.647  34.878   0.699
45343W        W17768  17.013  22.470  11.759
45344W        W17769  28.433  16.720   1.260
45345W        W17770  15.499  19.268  14.751
45346W        W17771  41.762  36.209   2.890
45347W        W17772  10.551  22.130   1.340
45348W        W17773  13.483  42.952   2.198
45349W        W17774   9.756  36.825   3.837
45350W        W17775  31.731   4.786  10.532
45351W        W17776  21.161   3.382  10.183
45352W        W17777  39.987  44.432  13.955
45353W        W17778  36.457   4.410   3.904
45354W        W17779  36.862  19.619   0.372
45355W        W17780  32.459  28.392   2.430
45356W        W17781  16.870  24.217   1.154
45357W        W17782  12.798  15.210  14.938
45358W        W17783  21.199  38.516   3.372
45359W        W17784  31.690   4.181  13.908
45360W        W17785  37.063  42.107  12.414
45361W        W17786   1.469  42.535  11.150
45362W        W17787   8.613  35.628  13.180
45363W        W17788  35.571  40.937   1.191
45364W        W17789  13.595  24.669  10.203
45365W        W17790   2.947  35.962   3.581
45366W        W17791   5.931   3.277   0.331
45367W        W17792  21.649   2.952   2.904
45368W        W17793   6.731  25.158   1.279
45369W        W17794  29.094  20.284  14.678
45370W        W17795   8.076  22.202   2.183
45371W        W17796   8.837  24.197   0.446
45372W        W17797  37.222  12.800  10.806
45373W        W17798  19.597  43.246  13.380
45374W        W17799  27.639  10.140  12.481
45375W        W17800   5.384  21.543  12.039
45376W        W17801   4.318  39.717  11.580
45377W        W17802  37.373  18.467  12.732
45378W        W17803  40.758  17.935  11.117
45379W        W17804  34.192  32.618   3.100
45380W        W17805   2.949  10.196  14.817
45381W        W17806  23.309  15.108   4.016
45382W        W17807  33.381  25.265  12.938
45383W        W17808   1.807   7.900  14.465
45384W        W17809  33.342   3.728   4.222
45385W        W17810  20.291  28.463   3.455
45386W        W17811  17.703   9.938   4.284
45387W        W17812   2.470  44.080   2.238
45388W        W17813  21.725   5.161  12.052
45389W        W17814  19.572  18.125   1.204
45390W        W17815   4.222  26.743   2.178
45391W        W17816  19.097  28.894   3.722
45392W        W17817  27.520  38.047   4.239
45393W        W17818  17.249  16.700  12.329
45394W        W17819  18.710  16.453   4.583
45395W        W17820  29.572  31.519  13.360
45396W        W17821   7.271  11.758  13.074
45397W        W17822   5.005  33.500  12.912
45398W        W17823  20.672  16.723  13.932
45399W        W17824   7.156  10.771   0.288
45400W        W17825   1.489   3.724  12.156
45401W        W17826  18.552  28.244  14.305
45402W        W17827   3.720  33.439   2.241
45403W        W17828  19.154  24.489  10.711
45404W        W17829   0.023  21.683  14.547
45405W        W17830  16.202  12.778  10.983
45406W        W17831   7.618  43.829  13.404
45407W        W17832   7.226   6.182  14.422
45408W        W17833  21.681  14.847   3.867
45409W        W17834   8.930   3.294   0.933
45410W        W17835  41.944  16.989  12.651
45411W        W17836   5.166   7.368   2.703
45412W        W17837   9.032  27.902  11.497
45413W        W17838  41.901  26.645  11.661
45414W        W17839  21.476  20.466   3.914
45415W        W17840   8.141  13.724   0.371
45416W        W17841   1.878  34.100   1.755
45417W        W17842  20.511  18.024  10.837
45418W        W17843  19.822  18.276   4.093
45419W        W17844  12.744  33.922  10.920
45420W        W17845  32.350  34.901   0.873
45421W        W17846  20.180  18.398  14.707
45422W        W17847  11.290  30.702  12.046
45423W        W17848   7.820  43.830  13.876
45424W        W17849  25.142  30.734   1.915
45425W        W17850  42.850  34.329   1.312
45426W        W17851   3.786  26.996   3.332
45427W        W17852   8.234  21.258   3.147
45428W        W17853   9.704   3.139   2.809
45429W        W17854  26.119   1.734  13.224
45430W        W17855  41.393  30.875   0.251
45431W        W17856   3.582  42.253  14.654
45432W        W17857  23.076  30.497   1.873
45433W        W17858  37.477  30.921  12.300
45434W        W17859  20.253  31.203  14.782
45435W        W17860  39.376  33.487   0.246
45436W        W17861  22.007  40.850   0.375
45437W        W17862   4.167  12.843  14.010
45438W        W17863  32.168  13.790  14.533
45439W        W17864  21.158  29.554  14.916
45440W        W17865   3.229   8.444  14.265
45441W        W17866  23.516  42.562   0.051
45442W        W17867  11.611   5.422  12.426
45443W        W17868  34.962  44.345  13.383
45444W        W17869  40.066  14.615   0.038
45445W        W17870  11.757  19.248   3.346
45446W        W17871  33.548  34.472   0.395
45447W        W17872  23.864  27.669  12.814
45448W        W17873  18.048  24.460   3.728
45449W        W17874   8.202  41.002   4.213
45450W        W17875  37.857  37.060  14.597
45451W        W17876  44.170  14.753   3.792
45452W        W17877  44.347  29.491  14.405
45453W        W17878  35.621  38.485   0.901
45454W        W17879  27.266   0.528   3.475
45455W        W17880  30.978  34.173   4.924
45456W        W17881  12.515  14.674   4.730
45457W        W17882  44.799   4.617  13.839
45458W        W17883  39.880  10.951  11.890
45459W        W17884  38.827  39.382  10.603
45460W        W17885  37.000  19.247   4.653
45461W        W17886   5.248  43.546  13.475
45462W        W17887  16.795  21.503   1.263
45463W        W17888   7.559  23.979  11.210
45464W        W17889  30.551  32.480   0.374
45465W        W17890  36.568  23.246  13.122
45466W        W17891   5.863  39.524   2.411
45467W        W17892  27.622   9.476   0.769
45468W        W17893  44.978  37.894   2.110
45469W        W17894  23.435  33.505  14.601
45470W        W17895  30.916  30.215   1.224
45471W        W17896  34.861  26.648  12.357
45472W        W17897  31.561  22.024   1.355
45473W        W17898   3.692  38.526   1.285
45474W        W17899  37.031  23.709   4.138
45475W        W17900  29.925  12.911  14.374
45476W        W17901   0.453  20.690   2.359
45477W        W17902  23.257  27.321   2.720
45478W        W17903  20.654   0.927   3.265
45479W        W17904  41.520  40.994   1.968
45480W        W17905  29.925  21.066  10.590
45481W        W17906  30.317  28.195  10.444
45482W        W17907  39.457   0.496  14.617
45483W        W17908   4.471  39.596   1.913
45484W        W17909  31.018  38.342   4.452
45485W        W17910  29.165   4.438  11.992
45486W        W17911  20.663  14.119   1.067
45487W        W17912   4.974   5.481   1.266
45488W        W17913  16.086  33.398  11.074
45489W        W17914  41.790  21.033   4.613
45490W        W17915   7.427  38.672  13.352
45491W        W17916  31.451  10.256  12.605
45492W        W17917  26.120  34.299   3.247
45493W        W17918  13.640  32.869  12.025
45494W        W17919   3.440  15.376  13.805
45495W        W17920  40.903  43.297   3.211
45496W        W17921   4.640  36.431  14.525
45497W        W17922  10.677  33.060  14.885
45498W        W17923  17.863  15.688   4.118
45499W        W17924  11.022  39.275   0.789
45500W        W17925  41.235  44.491   1.824
45501W        W17926  33.566  37.441   3.590
45502W        W17927  39.011  33.607   3.312
45503W        W17928  17.229  12.222  14.689
45504W        W17929  13.390  32.082  14.942
45505W        W17930   6.657  30.957  13.943
45506W        W17931  39.008  29.158  12.975
45507W        W17932  11.712  22.471   3.794
45508W        W17933  33.078  31.595   3.166
45509W        W17934  35.807  32.448  11.120
45510W        W17935  30.830  20.699  12.046
45511W        W17936  41.818   2.690   4.325
45512W        W17937  12.545  28.361   2.470
45513W        W17938   4.870  12.596  11.016
45514W        W17939  13.281  37.101  13.840
45515W        W17940  37.491  15.422  13.138
45516W        W17941   2.767  35.154   4.597
45517W        W17942   0.502  15.535   4.666
45518W        W17943  20.595   1.744   4.172
45519W        W17944   8.783  28.995   4.412
45520W        W17945   6.819  41.896   3.815
45521W        W17946  10.856   8.284   0.504
45522W        W17947  13.217   7.699  14.788
45523W        W17948   9.185  15.772   3.795
45524W        W17949   9.736  38.521   4.307
45525W        W17950  29.939  34.349  13.419
45526W        W17951  20.133  36.407   2.715
45527W        W17952  40.406   0.461  13.996
45528W        W17953  24.258  29.548  14.871
45529W        W17954   8.545  32.354  13.509
45530W        W17955  25.962  34.012  12.051
45531W        W17956  42.536  11.361   4.518
45532W        W17957  10.769   1.746   3.412
45533W        W17958  30.563  18.538  11.452
45534W        W17959  25.354   8.673   4.265
45535W        W17960  15.636   5.705  13.027
45536W        W17961   2.811  32.636  12.139
45537W        W17962   3.745   5.454  14.336
45538W        W17963  33.367  25.299   4.303
45539W        W17964  33.214  36.635  14.389
45540W        W17965   2.927  28.842   4.550
45541W        W17966   5.579  17.905   3.795
45542W        W17967  11.951  31.126   4.618
45543W        W17968  29.418   9.174  13.797
45544W        W17969  29.754   3.891   4.663
45545W        W17970   7.947  17.351  11.959
45546W        W17971   5.387  24.019  14.512
45547W        W17972   4.461  43.974  12.239
45548W        W17973   0.195  15.015   1.178
45549W        W17974  21.203  11.214  14.357
45550W        W17975  25.749  18.556  12.430
45551W        W17976  28.903   3.957   1.317
45552W        W17977  18.696   4.281  11.598
45553W        W17978  36.417  10.211   4.061
45554W        W17979  37.847   3.935   4.097
45555W        W17980   8.757   7.248   3.669
45556W        W17981  31.946  44.836  14.946
45557W        W17982  20.654  23.581   0.210
45558W        W17983  34.070   7.266   3.477
45559W        W17984  30.644   0.354  14.997
45560W        W17985  33.557  12.730   2.302
45561W        W17986  35.267  35.481   3.307
45562W        W17987  20.058  41.894   3.768
45563W        W17988  34.392  38.859  10.727
45564W        W17989  42.868  14.017  11.199
45565W        W17990   6.305  28.676   4.322
45566W        W17991  14.733  23.725   1.304
45567W        W17992  35.430  43.837  11.046
45568W        W17993  24.866  11.365  12.572
45569W        W17994  24.034  32.355   1.041
45570W        W17995  24.926   7.306   1.635
45571W        W17996  25.187   2.689  14.434
45572W        W17997  14.039   7.684  12.431
45573W        W17998  18.099   3.089  11.134
45574W        W17999  37.059  35.570   4.583
45575W        W18000  41.746  44.423  10.030
45576W        W18001   1.533  38.211   3.976
45577W        W18002  15.880   0.563  10.293
45578W        W18003  33.114  37.215  13.569
45579W        W18004   5.428  17.625  13.909
45580W        W18005  24.859  33.314   1.532
45581W        W18006  25.530  16.535   0.955
45582W        W18007  38.471  36.407  14.280
45583W        W18008  10.708  28.557  11.318
45584W        W18009   8.284  14.588   3.155
45585W        W18010  33.366  24.257  12.864
45586W        W18011  37.353  37.485  12.601
45587W        W18012  40.404  18.068  12.163
45588W        W18013   1.029   8.626   1.659
45589W        W18014  11.289   5.943   0.729
45590W        W18015  43.098  33.569   1.863
45591W        W18016  38.997  38.802   0.463
45592W        W18017  35.574   6.629  14.100
45593W        W18018   8.426  38.445   1.656
45594W        W18019  16.436  24.664  12.043
45595W        W18020  21.336  40.820  11.565
45596W        W18021  30.486   6.738  14.477
45597W        W18022   7.887  11.787   3.918
45598W        W18023  10.355  19.844  10.466
45599W        W18024  25.790  15.767  12.681
45600W        W18025   5.516  22.761   1.162
45601W        W18026  13.876   9.895   2.841
45602W        W18027  19.528  17.886   3.884
45603W        W18028   1.066  41.957  14.710
45604W        W18029  34.884   8.281  11.049
45605W        W18030  31.844  32.054  11.577
45606W        W18031  25.084  24.526   3.645
45607W        W18032  17.355   1.750   0.957
45608W        W18033  32.892  41.992  13.509
45609W        W18034  31.684  14.054  14.758
45610W        W18035  17.712   2.198   1.193
45611W        W18036   9.721  25.433  11.450
45612W        W18037  33.864  19.529  12.551
45613W        W18038  28.910  34.675  11.150
45614W        W18039  27.455   0.200   1.282
45615W        W18040  42.252   7.889  12.459
45616W        W18041   4.590  42.785  11.627
45617W        W18042   6.153  41.346   0.782
45618W        W18043   2.802  26.709   1.128
45619W        W18044  18.773  23.203   2.549
45620W        W18045  15.407  28.666  10.730
45621W        W18046  34.397  20.134  10.549
45622W        W18047   6.862  28.975  12.921
45623W        W18048  28.195  36.875   1.978
45624W        W18049   3.538  34.704   0.417
45625W        W18050  22.750   3.015   1.254
45626W        W18051  42.807  29.068  12.090
45627W        W18052  31.408  24.252  13.315
45628W        W18053   9.300  23.696  13.862
45629W        W18054  30.856  22.009  12.109
45630W        W18055  16.733  25.107  14.325
45631W        W18056  28.151   6.161   0.380
45632W        W18057  36.849  42.240  12.903
45633W        W18058  25.684  33.201  14.075
45634W        W18059  40.948   6.720   3.408
45635W        W18060  16.641  40.605  14.838
45636W        W18061  29.516  20.449   0.971
45637W        W18062  42.861  22.625   3.147
45638W        W18063  43.400  33.637  14.957
45639W        W18064   3.720  35.298  11.138
45640W        W18065  38.448  32.488  13.182
45641W        W18066  17.059  41.330  11.155
45642W        W18067  13.749   8.001   2.735
45643W        W18068  25.647  39.492   0.885
45644W        W18069  14.366  26.360  13.949
45645W        W18070  24.712  17.774  11.159
45646W        W18071  20.764  33.676  14.622
45647W        W18072  17.627  13.186  14.679
45648W        W18073  13.391  39.439  14.121
45649W        W18074  39.655  34.333   2.233
45650W        W18075  42.764  14.255   0.871
45651W        W18076  20.450  30.179  14.006
45652W        W18077   8.420  35.559  12.708
45653W        W18078  38.018  37.279   2.362
45654W        W18079   5.240   6.187  14.696
45655W        W18080   9.455   0.801   4.546
45656W        W18081   4.971  36.904  10.696
45657W        W18082  29.054  42.325  13.460
45658W        W18083  18.120  44.759   2.084
45659W        W18084  22.844  24.634  12.831
45660W        W18085  20.839  34.788   4.217
45661W        W18086  44.737  17.585  12.514
45662W        W18087   9.036  16.544   5.095
45663W        W18088  31.727  15.424   1.394
45664W        W18089  20.594  35.121   3.429
45665W        W18090  34.807  43.829  14.491
45666W        W18091   5.321  15.828   1.776
45667W        W18092  39.132  32.191  11.584
45668W        W18093  22.574  20.114   0.792
45669W        W18094  30.535  10.163  14.975
45670W        W18095  32.799  32.177  11.530
45671W        W18096  39.437  27.943  12.368
45672W        W18097  43.017  25.061  14.900
45673W        W18098   6.683  43.204  11.151
45674W        W18099  26.202   7.359  13.087
45675W        W18100  33.849  29.604   2.419
45676W        W18101  44.888  22.216  12.861
45677W        W18102   1.480   7.558  12.969
45678W        W18103  13.807  25.932  11.008
45679W        W18104  10.653  22.077   2.316
45680W        W18105  24.191  16.772  13.337
45681W        W18106  24.556  21.661  10.057
45682W        W18107  21.566   2.878  13.897
45683W        W18108  17.828  38.080  14.851
45684W        W18109  14.838   3.526  13.885
45685W        W18110  28.041  14.207   4.327
45686W        W18111  12.375  21.534  12.509
45687W        W18112  22.953  31.426  13.563
45688W        W18113   5.672  40.964  11.944
45689W        W18114  32.643  32.417   4.520
45690W        W18115  17.694  38.120  10.522
45691W        W18116  38.497  18.325  11.078
45692W        W18117   6.439   0.203  11.189
45693W        W18118   6.468  22.217  12.978
45694W        W18119  41.515  10.753   2.003
45695W        W18120  33.480  38.074   2.906
45696W        W18121  21.481  25.699   1.952
45697W        W18122  17.795  25.240  13.678
45698W        W18123  27.104   3.304   4.139
45699W        W18124  42.930   5.938  11.381
45700W        W18125  25.944  15.255  12.426
45701W        W18126  10.709   8.128  14.343
45702W        W18127   9.391   4.273  11.958
45703W        W18128  10.891   5.863   5.736
45704W        W18129  20.936  41.839   4.192
45705W        W18130   4.243  23.423   3.352
45706W        W18131  32.931  11.167  11.617
45707W        W18132  40.433  41.090   4.305
45708W        W18133  24.854  32.922   1.939
45709W        W18134  32.636  21.774  11.701
45710W        W18135  34.464  26.829   2.321
45711W        W18136  41.069  15.708   1.663
45712W        W18137  11.883  32.180   4.233
45713W        W18138  33.088  21.116   0.318
45714W        W18139  18.762   0.257  14.979
45715W        W18140   0.786  30.463   1.251
45716W        W18141  20.235  29.666  14.913
45717W        W18142  14.705   2.716   2.395
45718W        W18143  30.522  42.448   4.610
45719W        W18144   2.447  18.599   0.024
45720W        W18145  10.906  42.957  13.518
45721W        W18146  31.068  40.008   4.822
45722W        W18147  23.376  14.595   2.202
45723W        W18148  42.101  39.565   0.603
45724W        W18149  34.655  15.124  11.498
45725W        W18150  43.520  26.457   0.433
45726W        W18151  39.497  21.249  10.478
45727W        W18152  36.930   6.394   2.206
45728W        W18153  24.084   8.581  12.816
45729W        W18154   0.571  17.265   1.813
45730W        W18155  24.132   4.690   5.008
45731W        W18156  43.195  35.055  14.631
45732W        W18157   9.303  26.176  11.127
45733W        W18158  41.846  21.254  14.372
45734W        W18159   6.319  15.181  12.405
45735W        W18160  37.429   5.858  14.542
45736W        W18161  20.117  26.243   0.887
45737W        W18162  17.748  17.528  14.303
45738W        W18163  38.168  16.205  13.295
45739W        W18164  41.380  14.568  14.556
45740W        W18165  17.960  14.827  14.752
45741W        W18166   7.323  43.365  10.592
45742W        W18167   1.779  11.182  14.900
45743W        W18168  35.356  26.438  12.563
45744W        W18169  32.056  22.528  10.965
45745W        W18170   0.473  29.493  11.461
45746W        W18171  23.971  40.067  12.852
45747W        W18172  41.946   4.677   0.954
45748W        W18173  18.169   2.839  11.607
45749W        W18174  32.561  26.001  13.307
45750W        W18175   1.464  39.327  12.278
45751W        W18176  42.707  18.807  12.417
45752W        W18177   3.977  24.799  11.378
45753W        W18178   5.730  36.379   3.216
45754W        W18179  13.743  39.799   1.051
45755W        W18180  29.232  39.957  12.170
45756W        W18181  23.614  23.176  10.382
45757W        W18182  41.990  35.477   0.871
45758W        W18183  35.956   0.445   2.126
45759W        W18184   9.112  42.119   0.042
45760W        W18185  35.167  25.869   1.875
45761W        W18186  28.566   1.602  12.004
45762W        W18187  11.849  22.545   2.272
45763W        W18188  39.707  44.882   3.892
45764W        W18189  29.958   2.015  10.703
45765W        W18190  40.034  27.901  13.416
45766W        W18191  10.821  24.515   0.032
45767W        W18192  30.791  23.224   4.437
45768W        W18193   8.445  40.741   4.602
45769W        W18194  26.030  16.298   2.633
45770W        W18195   7.075  27.537  14.731
45771W        W18196  27.638  40.860  11.444
45772W        W18197  17.868  31.106   1.240
45773W        W18198  28.763  39.290  14.178
45774W        W18199   4.149   8.869  13.043
45775W        W18200   7.234   7.837  12.313
45776W        W18201  25.575  23.959  12.221
45777W        W18202  42.363   3.850   0.498
45778W        W18203  44.032   9.376   2.247
45779W        W18204   4.930  30.800   4.630
45780W        W18205   4.088  39.280   3.589
45781W        W18206   3.913  26.183   1.371
45782W        W18207  40.563  40.535   1.005
45783W        W18208   5.175  10.772  12.660
45784W        W18209   6.338  18.596  14.223
45785W        W18210  36.787  36.305  14.165
45786W        W18211  29.114   7.988   3.106
45787W        W18212  41.812  31.021   1.924
45788W        W18213   0.808  44.214  10.698
45789W        W18214  16.555  27.064  12.440
45790W        W18215  23.216  31.510   0.457
45791W        W18216  11.250  15.554   4.594
45792W        W18217  19.002   9.407   1.432
45793W        W18218  28.630  30.223   9.594
45794W        W18219  17.622  12.353  11.949
45795W        W18220  43.468  36.586   3.752
45796W        W18221  22.478  22.112  13.078
45797W        W18222   8.224   4.949   3.811
45798W        W18223  44.927  11.854   2.841
45799W        W18224  32.978  40.483  12.477
45800W        W18225  24.075   1.628   0.774
45801W        W18226  32.350  17.506  13.839
45802W        W18227  20.252  44.869  11.687
45803W        W18228   0.759   0.992  14.630
45804W        W18229  39.308  38.834   3.638
45805W        W18230   8.284  28.067   0.532
45806W        W18231  22.709  35.131  13.334
45807W        W18232  15.531  22.166   4.674
45808W        W18233  33.452   4.341  14.947
45809W        W18234  19.187  16.956   1.756
45810W        W18235  21.157  34.836   2.215
45811W        W18236  13.785  38.751  11.693
45812W        W18237  10.985  21.744  10.661
45813W        W18238  17.774  44.468  11.202
45814W        W18239  21.242   1.569   2.803
45815W        W18240  33.278  36.599   1.980
45816W        W18241   7.207  35.644  10.204
45817W        W18242   3.483  28.042   1.489
45818W        W18243   3.860  27.714  12.916
45819W        W18244   4.271   1.496   0.074
45820W        W18245  11.236   5.765  14.345
45821W        W18246   6.964   4.757   3.283
45822W        W18247  11.257   7.623  11.912
45823W        W18248  18.771   4.833   2.345
45824W        W18249   2.702  30.553   2.695
45825W        W18250  33.933  33.418  12.202
45826W        W18251  42.551  20.529  10.612
45827W        W18252  12.086   2.673  13.572
45828W        W18253  25.893  13.048  11.941
45829W        W18254   7.797  20.698   1.801
45830W        W18255  40.639   3.503  14.453
45831W        W18256  30.951   1.516  13.927
45832W        W18257  14.322   3.830  13.152
45833W        W18258   7.311  14.928  13.864
45834W        W18259  25.641  21.054   2.669
45835W        W18260   4.304   4.687  14.109
45836W        W18261  12.510  21.325   1.383
45837W        W18262  28.606  32.232  13.433
45838W        W18263  14.329  19.263   2.214
45839W        W18264  42.445   2.355   2.788
45840W        W18265  11.876   1.837  13.520
45841W        W18266   4.688  26.001   1.966
45842W        W18267  27.984  24.173  14.871
45843W        W18268  37.394  31.164  11.814
45844W        W18269  30.578  43.505   0.808
45845W        W18270  43.410  19.015  14.571
45846W        W18271  33.336  20.123  12.723
45847W        W18272  42.811   3.257   3.656
45848W        W18273  25.693  16.689   3.297
45849W        W18274   3.248   4.250   3.159
45850W        W18275  16.801   0.952   2.851
45851W        W18276  29.566  29.104   4.181
45852W        W18277  44.153   8.998   3.370
45853W        W18278  24.439   4.276   0.794
45854W        W18279  19.583   3.998   0.961
45855W        W18280  16.681  15.240   4.858
45856W        W18281   2.193  18.612  14.233
45857W        W18282  16.824   2.337  10.535
45858W        W18283   4.845   4.359   2.374
45859W        W18284  29.682  34.477   3.260
45860W        W18285  32.984  26.013  14.814
45861W        W18286   1.174  21.137  12.834
45862W        W18287   6.915   8.363   3.163
45863W        W18288   0.025   6.896  10.682
45864W        W18289  16.064  33.995   4.081
45865W        W18290  13.184  18.778  13.914
45866W        W18291   9.646  34.520   4.027
45867W        W18292   6.838  30.965   2.292
45868W        W18293  39.935  14.910  11.494
45869W        W18294  28.708  27.587   4.524
45870W        W18295  41.147  35.418   3.250
45871W        W18296  23.500  17.728  11.626
45872W        W18297  10.886  10.651  10.676
45873W        W18298  27.052  19.147  14.335
45874W        W18299  41.453   7.314  13.502
45875W        W18300  44.599  21.068  11.407
45876W        W18301  14.816  12.665   2.726
45877W        W18302  18.725   6.450  10.794
45878W        W18303  21.759  25.647  13.953
45879W        W18304  16.759  13.295  13.762
45880W        W18305   1.388  33.602  13.390
45881W        W18306   1.729  29.138  12.522
45882W        W18307   1.297  25.426  14.348
45883W        W18308  36.609  22.779  12.851
45884W        W18309  24.460  41.769  13.904
45885W        W18310   4.600   5.246  13.831
45886W        W18311  26.635  39.608  11.650
45887W        W18312  38.062   7.392   4.192
45888W        W18313  20.681  28.019   2.361
45889W        W18314  27.740  44.103  14.415
45890W        W18315  40.030   9.125   1.930
45891W        W18316  21.028  11.699  14.165
45892W        W18317  24.634  18.831  14.019
45893W        W18318  28.657   5.915  13.471
45894W        W18319  43.788   4.295  11.374
45895W        W18320  14.240  10.392  13.611
45896W        W18321  22.467  22.444  14.458
45897W        W18322   8.593   7.665  12.964
45898W        W18323  14.148  29.662  10.636
45899W        W18324  26.998  33.891  14.049
45900W        W18325  30.009   7.014  14.526
45901W        W18326  35.599  32.083   1.235
45902W        W18327  35.803  29.651   1.834
45903W        W18328  38.034  30.378   1.749
45904W        W18329  28.108  12.299  14.482
45905W        W18330  38.526   8.486   1.099
45906W        W18331  15.187   6.934   3.058
45907W        W18332   6.843  10.188  12.887
45908W        W18333  44.468  36.562  14.309
45909W        W18334   0.303  43.501  12.996
45910W        W18335  38.972  28.913  12.483
45911W        W18336   1.214   3.401  12.836
45912W        W18337  38.817  18.274  12.384
45913W        W18338  16.082   6.228  11.473
45914W        W18339  35.977  16.688   2.180
45915W        W18340  23.665  42.539  14.000
45916W        W18341   8.412   2.318  12.983
45917W        W18342   7.689  13.283  13.270
45918W        W18343  24.082   1.444   0.260
45919W        W18344  29.372   9.757   1.443
45920W        W18345  33.655  40.366  11.631
45921W        W18346  13.988  42.858   2.247
45922W        W18347  21.082  13.297   2.845
45923W        W18348  42.097  44.013  10.000
45924W        W18349   8.389  32.107   5.067
45925W        W18350  10.351  24.889   4.165
45926W        W18351  19.636  19.149  13.893
45927W        W18352  19.282  11.324   1.196
45928W        W18353   4.155   4.318   0.476
45929W        W18354  12.258  21.708  13.865
45930W        W18355   3.048  12.625  14.777
45931W        W18356   7.821  10.267   0.302
45932W        W18357  36.865  42.439  13.419
45933W        W18358  19.079   2.758  11.105
45934W        W18359  38.009  27.072  13.354
45935W        W18360  20.123  34.146   4.168
45936W        W18361  14.220   5.807   1.490
45937W        W18362  22.562  25.074  13.582
45938W        W18363  24.958  29.647   3.760
45939W        W18364   8.516  27.188   1.397
45940W        W18365  40.899  33.004  11.745
45941W        W18366   7.269  40.784   4.155
45942W        W18367  21.003   8.837  13.872
45943W        W18368  37.446  22.014  12.886
45944W        W18369   7.180  37.641   0.349
45945W        W18370   1.509   7.891  12.114
45946W        W18371  34.143  20.573  14.114
45947W        W18372  32.082  41.534   4.696
45948W        W18373  36.631  12.977   1.782
45949W        W18374  44.841  29.091   2.425
45950W        W18375  17.617  25.537  11.439
45951W        W18376  41.937  12.819   2.816
45952W        W18377  34.990  14.126   2.814
45953W        W18378  13.399  22.449  14.380
45954W        W18379  34.129   7.715   1.915
45955W        W18380  22.484  15.089  13.610
45956W        W18381  25.475   5.233  14.607
45957W        W18382  29.935  13.953   2.746
45958W        W18383  43.461  26.098  14.727
45959W        W18384  11.404  39.413   1.594
45960W        W18385  23.249  21.546  13.137
45961W        W18386  11.376  33.451  11.540
45962W        W18387  29.756  24.289   3.116
45963W        W18388  27.091  25.034  14.071
45964W        W18389  28.377  15.184   0.817
45965W        W18390  39.222  18.796   1.000
45966W        W18391   4.429  15.105  11.104
45967W        W18392  31.723   4.943   3.204
45968W        W18393  37.095  27.311   0.874
45969W        W18394  14.345  42.144   0.292
45970W        W18395  16.724  30.374  12.790
45971W        W18396  41.245  12.697   2.146
45972W        W18397  26.098  39.190   0.436
45973W        W18398   9.172  28.748   2.847
45974W        W18399   2.819   9.351   1.981
45975W        W18400  41.362  37.969  13.089
45976W        W18401  19.757  13.098   3.074
45977W        W18402  26.054  25.522  11.645
45978W        W18403  20.306  38.936  12.105
45979W        W18404  10.282  29.963   0.439
45980W        W18405  42.035   7.208   0.374
45981W        W18406  32.553  10.673  10.732
45982W        W18407   1.114  42.775  14.535
45983W        W18408  28.299  22.217  12.448
45984W        W18409  16.682  18.000  13.197
45985W        W18410   1.227  32.536   2.381
45986W        W18411  37.516  23.154   0.802
45987W        W18412  32.495   5.066  10.932
45988W        W18413  33.986  17.350   1.927
45989W        W18414   1.210  36.974  14.383
45990W        W18415  43.451  16.619  10.682
45991W        W18416  19.245  27.134   1.831
45992W        W18417   7.280  17.603  12.653
45993W        W18418   3.734  25.892   0.734
45994W        W18419   8.867  38.657   0.826
45995W        W18420  43.916  32.180   0.158
45996W        W18421  11.955  35.671   4.175
45997W        W18422  13.034  39.077  13.943
45998W        W18423  21.836  10.663  13.044
45999W        W18424   3.491   9.337  11.034
46000W        W18425  31.680  21.352  11.102
46001W        W18426   7.307  31.389   3.176
46002W        W18427  41.251  36.282   2.909
46003W        W18428  26.412  11.258   0.405
46004W        W18429  31.020   0.744   4.311
46005W        W18430  20.615  11.613   1.833
46006W        W18431  20.871  32.023   3.268
46007W        W18432   3.216  29.970   4.273
46008W        W18433  27.938   4.157  12.545
46009W        W18434   2.821  37.859  10.720
46010W        W18435  18.979   3.828   4.606
46011W        W18436  21.013  27.102   0.313
46012W        W18437   8.964  28.912   1.322
46013W        W18438  42.902  22.107   3.267
46014W        W18439  23.717  30.047   0.307
46015W        W18440  27.646  27.210  12.031
46016W        W18441  41.401  34.482   3.677
46017W        W18442  11.627  10.492   4.345
46018W        W18443  27.138  37.114  11.162
46019W        W18444  41.776   0.072   4.316
46020W        W18445   5.680  39.145  13.840
46021W        W18446  36.280   7.574  10.750
46022W        W18447  35.640  26.154  12.931
46023W        W18448   8.888  33.166   0.237
46024W        W18449  14.769   3.564   2.567
46025W        W18450  14.797   0.796   2.289
46026W        W18451   1.432  26.451   3.283
46027W        W18452  11.761  29.015   4.110
46028W        W18453  41.813  43.490  14.234
46029W        W18454  19.037   4.167   1.198
46030W        W18455  17.982  29.881   3.217
46031W        W18456  36.916  24.081  11.332
46032W        W18457  40.501  27.060   1.000
46033W        W18458  21.328  36.094   0.397
46034W        W18459  43.477  36.749  11.015
46035W        W18460   7.821  44.073   4.925
46036W        W18461  11.046  12.960  12.292
46037W        W18462  23.725  18.520   3.453
46038W        W18463  13.006   2.037   4.981
46039W        W18464  10.104  12.179   0.068
46040W        W18465  18.576  17.076   0.952
46041W        W18466  12.725  43.433  12.509
46042W        W18467   0.786  41.306  13.469
46043W        W18468   3.777  12.400  14.227
46044W        W18469  20.757  37.138  13.034
46045W        W18470  41.167  34.919   0.447
46046W        W18471   6.456  17.025  12.458
46047W        W18472  20.268  27.014   3.067
46048W        W18473  42.698   1.506   1.871
46049W        W18474  13.415  17.553   4.519
46050W        W18475   8.605  32.408   0.689
46051W        W18476  39.013  13.852  14.940
46052W        W18477  23.024  29.385   4.869
46053W        W18478  19.645  42.611  11.040
46054W        W18479  38.115  32.881   4.195
46055W        W18480  38.872  24.120   0.383
46056W        W18481   1.654  44.766   0.975
46057W        W18482  17.650  34.510   0.889
46058W        W18483  41.610  37.913  11.986
46059W        W18484  27.034  11.613  13.313
46060W        W18485  23.611  13.266  14.044
46061W        W18486  10.665  39.326  14.486
46062W        W18487  43.970  25.720   1.732
46063W        W18488   9.992  27.653   1.390
46064W        W18489  14.643  39.264   4.868
46065W        W18490  30.246  33.607   2.328
46066W        W18491  42.077  43.498   2.828
46067W        W18492  33.659   1.382  10.801
46068W        W18493  20.896  15.310  12.495
46069W        W18494  35.983  44.754  12.875
46070W        W18495  41.051  17.241   1.698
46071W        W18496   4.246  13.573   2.879
46072W        W18497  41.524  42.002   1.626
46073W        W18498  44.851   7.851   4.280
46074W        W18499   8.848  37.009  12.146
46075W        W18500  26.689  41.827  14.542
46076W        W18501  10.511  34.555  11.049
46077W        W18502  42.259  35.033   1.672
46078W        W18503  42.396  38.860   2.368
46079W        W18504  18.916   1.092  14.746
46080W        W18505   0.822  41.263   3.176
46081W        W18506  28.298  14.413   1.819
46082W        W18507  44.539  17.562   1.916
46083W        W18508  28.258  31.664   4.266
46084W        W18509  31.809  40.450   2.333
46085W        W18510  11.727   4.732   2.734
46086W        W18511  29.471  15.865  12.101
46087W        W18512  17.799  24.274   3.301
46088W        W18513   4.194  14.079   2.909
46089W        W18514  38.908  29.423   0.827
46090W        W18515  36.573  26.472   1.146
46091W        W18516  28.994  24.548  12.536
46092W        W18517  41.509   2.267   0.333
46093W        W18518  24.145  15.912  12.976
46094W        W18519  32.939  16.588   3.339
46095W        W18520  12.095  32.662   3.201
46096W        W18521  31.054  23.027   0.844
46097W        W18522  23.718  21.980   0.968
46098W        W18523  29.494  26.334  13.474
46099W        W18524  27.992  39.286  13.783
46100W        W18525  32.615  44.461   3.691
46101W        W18526  39.923  24.233   2.672
46102W        W18527  33.013  22.110  11.667
46103W        W18528  37.834   2.847  13.093
46104W        W18529  10.225  38.964   1.685
46105W        W18530  27.102   9.171  10.674
46106W        W18531  22.789  18.287  13.133
46107W        W18532  28.716  10.343  13.610
46108W        W18533  22.159  42.738   3.894
46109W        W18534  13.404  21.625  13.693
46110W        W18535  24.733  15.500   0.325
46111W        W18536   9.438  34.888  14.072
46112W        W18537   9.059  41.450   3.653
46113W        W18538  23.792  30.869   3.714
46114W        W18539  13.513  34.945  12.966
46115W        W18540   0.838  36.550  10.670
46116W        W18541  22.151   0.288   4.668
46117W        W18542  28.466  29.775   2.192
46118W        W18543  21.056  26.193   2.843
46119W        W18544  35.931  12.073   1.335
46120W        W18545  30.624  21.037   3.260
46121W        W18546  15.128  20.648   4.620
46122W        W18547  19.549  33.673  12.162
46123W        W18548  14.320  16.489  10.585
46124W        W18549  18.707  31.677   4.120
46125W        W18550  35.363  20.707   4.136
46126W        W18551  40.852   5.921  12.663
46127W        W18552  16.878   5.457  14.845
46128W        W18553   8.619  39.986   1.228
46129W        W18554  16.157   8.333   2.750
46130W        W18555  17.418  17.099  13.962
46131W        W18556   4.932  16.871  13.084
46132W        W18557  13.527  39.134   1.236
46133W        W18558  35.987  34.150   0.462
46134W        W18559  22.982  35.677   0.761
46135W        W18560  21.967  20.332   2.574
46136W        W18561  25.546  11.759  13.101
46137W        W18562  43.887  14.698   1.717
46138W        W18563  41.013   1.822  12.349
46139W        W18564  17.354  10.769  12.553
46140W        W18565  29.197  11.148   4.584
46141W        W18566  25.956  30.067   2.625
46142W        W18567   8.018  40.801  11.154
46143W        W18568   9.327  15.784   2.784
46144W        W18569  30.683  44.472   2.654
46145W        W18570  10.879   5.965  11.087
46146W        W18571  13.087  31.525   3.778
46147W        W18572  30.889  37.522  12.901
46148W        W18573  11.983   0.066   3.334
46149W        W18574  34.535  40.563   2.394
46150W        W18575  19.312  39.483   3.206
46151W        W18576  23.191  38.138   1.381
46152W        W18577  29.456  35.870  14.892
46153W        W18578   8.602  25.329   3.812
46154W        W18579  22.753  25.850  13.014
46155W        W18580  13.676  14.016  14.874
46156W        W18581  16.840  20.298   4.160
46157W        W18582  44.997   6.658  14.144
46158W        W18583  25.872  15.013  13.494
46159W        W18584  43.782  36.280  14.750
46160W        W18585  26.632  23.756   1.927
46161W        W18586   0.429  20.769  14.731
46162W        W18587  43.682   9.967  13.974
46163W        W18588   4.194  22.132   4.290
46164W        W18589  34.373  33.701  11.078
46165W        W18590  10.049  36.324  14.034
46166W        W18591  24.105  23.874  14.907
46167W        W18592  18.072   9.493  11.164
46168W        W18593  35.394   5.450   2.843
46169W        W18594  32.114  36.372   2.139
46170W        W18595  32.992  35.837  11.125
46171W        W18596  27.803   3.397  11.042
46172W        W18597  15.925  24.268  11.177
46173W        W18598   5.960  15.566  12.329
46174W        W18599  26.332  18.696  11.492
46175W        W18600  21.134   1.222   3.269
46176W        W18601  21.243  22.517  12.880
46177W        W18602  38.259  17.942   4.586
46178W        W18603  20.705  28.144  13.839
46179W        W18604  20.241  42.808   1.204
46180W        W18605  35.871  34.591   3.172
46181W        W18606   1.358   4.114   2.728
46182W        W18607   2.305  37.634   3.676
46183W        W18608  25.758  15.664   1.160
46184W        W18609  43.746   2.820   0.042
46185W        W18610  44.350   2.953  10.948
46186W        W18611  24.608   8.216   2.382
46187W        W18612   8.461  44.424   2.888
46188W        W18613  15.824  16.779   4.555
46189W        W18614  43.965  32.653  13.399
46190W        W18615  36.730   9.576  11.614
46191W        W18616  32.520  38.861  14.315
46192W        W18617   4.246   7.135  14.366
46193W        W18618  22.128  35.636  14.708
46194W        W18619  35.459  43.020   2.194
46195W        W18620   4.279  43.498  11.684
46196W        W18621  34.309  12.119   2.136
46197W        W18622  43.447  25.089   1.348
46198W        W18623  22.209   9.297   4.590
46199W        W18624  23.005   8.807   1.814
46200W        W18625  13.183  33.118   3.789
46201W        W18626  14.123  44.006   4.600
46202W        W18627  35.986   0.540   3.681
46203W        W18628   9.229   4.920   2.854
46204W        W18629   6.458  32.461   4.195
46205W        W18630  31.625  26.117  13.084
46206W        W18631  40.872  33.732   3.477
46207W        W18632  29.180   2.188  11.218
46208W        W18633   8.913  28.958  10.917
46209W        W18634  39.858   3.872  13.183
46210W        W18635  28.996  37.077   2.423
46211W        W18636  37.828  40.657  12.208
46212W        W18637  18.525  13.618  12.936
46213W        W18638   3.859  39.055  13.484
46214W        W18639  26.626  12.867  14.880
46215W        W18640  11.622  36.094  10.363
46216W        W18641  18.525  33.653   4.351
46217W        W18642  43.987  21.066   4.534
46218W        W18643  26.031  43.306   3.871
46219W        W18644  20.178   9.219  11.419
46220W        W18645  40.853  20.761   0.447
46221W        W18646  36.362  42.381   2.668
46222W        W18647  41.356  32.729  10.482
46223W        W18648  34.792  34.614   3.260
46224W        W18649  35.927  21.757   2.804
46225W        W18650  43.323  36.076  13.387
46226W        W18651   9.334   9.145   3.376
46227W        W18652   4.421   2.868   2.202
46228W        W18653  43.236  34.575  14.965
46229W        W18654   7.312  22.684  13.860
46230W        W18655  18.993  26.479  12.030
46231W        W18656   0.805  43.265   3.248
46232W        W18657  15.235  20.088  12.413
46233W        W18658   5.268  12.079   2.735
46234W        W18659  27.704  20.613   3.691
46235W        W18660  43.333  18.520  10.655
46236W        W18661  10.297  32.982   1.722
46237W        W18662   6.367  28.879  13.268
46238W        W18663   3.779  38.734  14.377
46239W        W18664  25.266  11.087  11.102
46240W        W18665  26.583  31.126  11.107
46241W        W18666   4.354  34.914   2.847
46242W        W18667  19.747  35.281   1.265
46243W        W18668  33.370  20.946   1.322
46244W        W18669  23.376   5.136   1.450
46245W        W18670  10.292  19.098  10.938
46246W        W18671  10.327  27.458   2.708
46247W        W18672   3.164  11.153  12.527
46248W        W18673  42.237  20.067   0.396
46249W        W18674  38.083   4.633  12.673
46250W        W18675  21.138  36.671  13.114
46251W        W18676  29.478  33.979   3.358
46252W        W18677  43.920  21.620   1.057
46253W        W18678  43.253  10.352  11.036
46254W        W18679  18.478  35.302   3.301
46255W        W18680  25.671  23.864   1.540
46256W        W18681  41.847  41.449  10.343
46257W        W18682  21.882  14.000  14.804
46258W        W18683   7.956  16.767  12.963
46259W        W18684   0.917  35.941  13.072
46260W        W18685  15.251   5.213   3.735
46261W        W18686   4.239  25.723   3.080
46262W        W18687  13.379  36.117   4.562
46263W        W18688  36.451  19.438   3.194
46264W        W18689  16.320  30.384  13.623
46265W        W18690  14.241  20.252  12.709
46266W        W18691  25.966  23.737   3.281
46267W        W18692  44.581  27.082  13.096
46268W        W18693  43.455  17.169   0.549
46269W        W18694   7.924  35.518  10.733
46270W        W18695  11.849  36.481   2.310
46271W        W18696  14.146   1.376   2.635
46272W        W18697  41.455  44.588  14.852
46273W        W18698   7.424   5.760  12.532
46274W        W18699  16.167   3.171   2.367
46275W        W18700  40.575  22.475   2.306
46276W        W18701  27.180  31.971  14.470
46277W        W18702  10.188  12.550   4.398
46278W        W18703  15.666  14.923  10.040
46279W        W18704   3.214  32.432  14.100
46280W        W18705  33.057  14.776   4.525
46281W        W18706  27.485  11.299   1.323
46282W        W18707  27.389  36.807   3.221
46283W        W18708  16.143  10.870  11.943
46284W        W18709  36.336  11.658   1.329
46285W        W18710   8.954  33.975   2.031
46286W        W18711  37.996   7.393  10.858
46287W        W18712  44.302  19.247   3.753
46288W        W18713  42.525  33.736  11.997
46289W        W18714   9.401  34.128   0.283
46290W        W18715  21.858  19.183  11.133
46291W        W18716  14.302  30.896   1.152
46292W        W18717  30.417  15.818  14.569
46293W        W18718  37.513  17.366  11.387
46294W        W18719   1.293  22.093   4.504
46295W        W18720  35.028  17.764  13.093
46296W        W18721  28.709  10.359  12.719
46297W        W18722  11.701   6.505   4.522
46298W        W18723  28.370  28.537  13.496
46299W        W18724   2.444   9.474   2.306
46300W        W18725  23.319  13.178  11.596
46301W        W18726  19.750   4.934   0.751
46302W        W18727  42.783   8.682   1.221
46303W        W18728  17.778  35.007  14.331
46304W        W18729  26.908  20.730   1.819
46305W        W18730  12.119  35.925   3.055
46306W        W18731  12.697   4.902  14.750
46307W        W18732  35.594  16.772   0.886
46308W        W18733   2.374  34.406   4.854
46309W        W18734  39.099  32.094  14.922
46310W        W18735  37.165  15.123  13.435
46311W        W18736   6.217  13.046   2.741
46312W        W18737  30.163  40.502   0.426
46313W        W18738  39.273  43.366   0.811
46314W        W18739   9.693  14.312   3.723
46315W        W18740  31.560   1.672  14.310
46316W        W18741  20.228  20.613  12.450
46317W        W18742  26.161  13.143   5.145
46318W        W18743   9.553  25.193   3.740
46319W        W18744  28.481   4.895  12.136
46320W        W18745  11.850  12.362   2.797
46321W        W18746   5.882  10.183   0.426
46322W        W18747  16.041  40.371   4.540
46323W        W18748  28.888  18.041  11.123
46324W        W18749  36.534   0.211  12.249
46325W        W18750  36.100  44.412  10.595
46326W        W18751  33.844  38.895   3.174
46327W        W18752  29.937   9.919  14.472
46328W        W18753   6.301  25.975  14.872
46329W        W18754   6.881  19.552   0.421
46330W        W18755  12.860  16.765  13.372
46331W        W18756  19.654  44.414   2.138
46332W        W18757   4.727   0.967   0.919
46333W        W18758   3.703  43.231  14.364
46334W        W18759   7.684  24.494  13.844
46335W        W18760  33.100  40.921  14.964
46336W        W18761  27.737  10.099   3.198
46337W        W18762  31.164   1.032   3.355
46338W        W18763  34.513  35.050  11.560
46339W        W18764  17.704  24.639  11.989
46340W        W18765  18.832  28.160  10.252
46341W        W18766  44.248  10.171  14.831
46342W        W18767  44.521  41.290   2.136
46343W        W18768   4.197  22.576   4.603
46344W        W18769  35.604  23.788  11.341
46345W        W18770   7.776   3.867  13.373
46346W        W18771   2.486  42.491   2.797
46347W        W18772   1.210   9.092  14.927
46348W        W18773  40.428  16.296   0.900
46349W        W18774   2.868  40.771   0.845
46350W        W18775   1.918  38.894   4.719
46351W        W18776  25.613   6.238  12.064
46352W        W18777   1.340   6.399   2.820
46353W        W18778  10.772  13.520  13.788
46354W        W18779  11.183  44.262   3.213
46355W        W18780  37.375  34.285   3.726
46356W        W18781  22.435  35.515  12.543
46357W        W18782  37.046   4.867  12.504
46358W        W18783  35.030  37.880  11.603
46359W        W18784  29.412  30.183  11.486
46360W        W18785   2.705   9.009  12.899
46361W        W18786  38.058  18.347  14.250
46362W        W18787  35.671   5.784  14.948
46363W        W18788  29.176  29.014   3.401
46364W        W18789  43.303  20.032   3.684
46365W        W18790  14.054  22.506   1.562
46366W        W18791  42.244  44.343   1.608
46367W        W18792  28.191  32.329  11.606
46368W        W18793   8.418  11.354   2.708
46369W        W18794   5.357  42.364  12.131
46370W        W18795  11.587  37.046   2.673
46371W        W18796  35.664  13.333  13.304
46372W        W18797  23.099  36.610   1.415
46373W        W18798  19.870  37.564  14.071
46374W        W18799  12.316  25.748   2.214
46375W        W18800   5.979   0.506   3.646
46376W        W18801  33.062  29.703   3.466
46377W        W18802  14.683  34.079   3.330
46378W        W18803  34.225   2.154  11.893
46379W        W18804   7.842  43.692  14.761
46380W        W18805  20.125  22.704  11.949
46381W        W18806  19.994   9.919   0.344
46382W        W18807   9.145  38.817  12.090
46383W        W18808  19.249  30.974   4.615
46384W        W18809   6.869  29.498   2.787
46385W        W18810  28.591  10.241   2.145
46386W        W18811  40.542  23.599  10.962
46387W        W18812  14.207  16.643  13.680
46388W        W18813  14.986  40.405   1.772
46389W        W18814   9.558   8.776  11.039
46390W        W18815   0.549  35.368  11.441
46391W        W18816  28.154  16.841   2.058
46392W        W18817  20.701  37.881   1.424
46393W        W18818  16.206   7.429  12.507
46394W        W18819  16.551   7.588   0.955
46395W        W18820  29.598   3.467   2.425
46396W        W18821  26.819   8.657   1.737
46397W        W18822  27.109   4.225   4.846
46398W        W18823   8.669  28.621   2.857
46399W        W18824   4.464  29.557  13.878
46400W        W18825   5.650  31.048   3.076
46401W        W18826   5.230  33.518   3.742
46402W        W18827  28.438  28.718   4.150
46403W        W18828  26.405   1.298  13.492
46404W        W18829  28.706  13.177  12.646
46405W        W18830  21.606  41.329  14.061
46406W        W18831  37.289  39.106   1.219
46407W        W18832  40.444  12.626  10.309
46408W        W18833  37.943  37.559  11.432
46409W        W18834  18.726  15.506   4.069
46410W        W18835  12.329  41.059   2.607
46411W        W18836  38.522   6.576  14.840
46412W        W18837  25.723   0.324   3.437
46413W        W18838  17.582  17.772   4.015
46414W        W18839  33.468  37.028  14.720
46415W        W18840  43.847  21.628  14.063
46416W        W18841  43.994  40.209   1.381
46417W        W18842  42.970  44.765   3.152
46418W        W18843  36.896  27.558  12.927
46419W        W18844  14.240  39.276   4.100
46420W        W18845   1.097   6.335   1.121
46421W        W18846  43.576   5.056  14.641
46422W        W18847  41.122  11.164  11.171
46423W        W18848  31.726   1.187   4.612
46424W        W18849  12.238  32.641  12.421
46425W        W18850  25.987  13.311   4.163
46426W        W18851  18.104  36.125   0.971
46427W        W18852   3.600  37.045  12.521
46428W        W18853  19.275  25.666   5.017
46429W        W18854   0.501   7.960  12.076
46430W        W18855  38.006   6.005   2.525
46431W        W18856  26.344  38.517  12.456
46432W        W18857  19.819  43.491   3.802
46433W        W18858  23.513  27.908   4.271
46434W        W18859  21.588  16.155  13.443
46435W        W18860  17.676  35.350  12.082
46436W        W18861   4.318  18.597   0.041
46437W        W18862   6.930  10.766   2.802
46438W        W18863   3.727  10.218  12.890
46439W        W18864  34.362  28.761  14.517
46440W        W18865  42.068  44.522   9.588
46441W        W18866  37.498  25.244   0.342
46442W        W18867  44.024   4.421   0.438
46443W        W18868  36.886  16.623  13.528
46444W        W18869  39.431   0.252  13.610
46445W        W18870  33.008  14.032   1.380
46446W        W18871  20.714  11.383  14.530
46447W        W18872  20.794  13.766   2.161
46448W        W18873  28.423   3.482   3.819
46449W        W18874   0.367  24.411  11.595
46450W        W18875  19.141   8.147  13.177
46451W        W18876  35.556  15.102   4.525
46452W        W18877   3.375  15.548   1.232
46453W        W18878  38.279  44.430   4.535
46454W        W18879   6.372  23.068  12.101
46455W        W18880  25.107  18.696   2.695
46456W        W18881   8.787  11.886  13.404
46457W        W18882  36.524  40.340  14.024
46458W        W18883  39.144  35.299  10.259
46459W        W18884  44.486   1.889   2.907
46460W        W18885  19.724  27.918  12.963
46461W        W18886  43.284   8.670   2.121
46462W        W18887  23.515  31.650   3.340
46463W        W18888  17.527  32.693  10.126
46464W        W18889   1.606  14.419  12.140
46465W        W18890  23.314  11.286  10.297
46466W        W18891  11.463  19.018  11.545
46467W        W18892  12.818  20.609   1.780
46468W        W18893   4.184  22.220   1.901
46469W        W18894   8.078  28.983  12.328
46470W        W18895  18.239   1.182   5.097
46471W        W18896  27.254  10.300   0.516
46472W        W18897  20.208  37.002   3.715
46473W        W18898   1.782  23.496   0.801
46474W        W18899  20.275   4.167   0.842
46475W        W18900   9.952  17.733   2.850
46476W        W18901  23.608  23.569   4.369
46477W        W18902  38.074  13.017  12.142
46478W        W18903  18.830  38.969   0.683
46479W        W18904  32.553  10.565   0.287
46480W        W18905  16.806   1.303   3.412
46481W        W18906   0.208  38.054   0.424
46482W        W18907  23.427   1.206   3.294
46483W        W18908  25.063   9.755   0.266
46484W        W18909  30.880  21.277   3.626
46485W        W18910   2.341   7.110   4.246
46486W        W18911  30.460  37.657   2.831
46487W        W18912  43.451   9.030  14.482
46488W        W18913   2.452   6.744   2.289
46489W        W18914  33.832   4.224  12.072
46490W        W18915  36.987  15.783  11.536
46491W        W18916  43.786  22.040   0.773
46492W        W18917  16.395  12.688   1.077
46493W        W18918  42.089  26.003  14.333
46494W        W18919   3.946  22.695  14.910
46495W        W18920  30.034   9.297  11.259
46496W        W18921   5.891   9.128  11.177
46497W        W18922  18.199   1.005   1.849
46498W        W18923   1.300  30.175   0.393
46499W        W18924  24.469  13.709  12.516
46500W        W18925  22.399  29.597  13.483
46501W        W18926  16.747  38.006   0.553
46502W        W18927   4.234   7.804  11.602
46503W        W18928  26.830  38.566  14.736
46504W        W18929  22.047  37.342   3.123
46505W        W18930  11.446  39.882  12.570
46506W        W18931  23.790  30.743   1.757
46507W        W18932  40.815  26.946  14.620
46508W        W18933   1.718   3.976  13.441
46509W        W18934  44.849  44.454  12.087
46510W        W18935  21.534  19.610  14.026
46511W        W18936  13.413  35.953  10.167
46512W        W18937  33.609  19.681  10.893
46513W        W18938  40.176  22.933   1.747
46514W        W18939   8.799  15.161  14.882
46515W        W18940  26.719  14.175   0.408
46516W        W18941  21.600  39.380  11.560
46517W        W18942  40.603  36.087  14.842
46518W        W18943  30.517   0.756  11.982
46519W        W18944  34.697  12.425   0.727
46520W        W18945  25.729  44.000   3.713
46521W        W18946   1.963  28.666  13.349
46522W        W18947  16.028   6.755   0.644
46523W        W18948  25.593  13.678  10.681
46524W        W18949  36.099  40.364   1.664
46525W        W18950  24.352   9.447   4.228
46526W        W18951  19.776   2.304  12.385
46527W        W18952  18.503  23.163  14.938
46528W        W18953  32.626  31.170  13.455
46529W        W18954  14.251  35.625   0.759
46530W        W18955  34.120  10.321  13.369
46531W        W18956  39.946  14.332   2.791
46532W        W18957  14.602  27.273  10.390
46533W        W18958  30.012  23.035   2.639
46534W        W18959  23.552  20.241   1.650
46535W        W18960  22.259  32.443  12.165
46536W        W18961  20.687  32.127   3.756
46537W        W18962  24.734  37.098   2.838
46538W        W18963  23.386  32.336  11.620
46539W        W18964  35.892  31.855   3.780
46540W        W18965  39.257  42.404   2.862
46541W        W18966   5.450  27.141   1.250
46542W        W18967  13.450  16.048   3.326
46543W        W18968  32.284  23.806  14.364
46544W        W18969  39.989  18.509   4.449
46545W        W18970  15.070  36.862   0.255
46546W        W18971  28.855  26.917   3.685
46547W        W18972  40.506  43.036   0.540
46548W        W18973  30.081  34.539   0.753
46549W        W18974  20.720  18.708  14.035
46550W        W18975  16.250   3.360   0.924
46551W        W18976   1.748   4.511   0.422
46552W        W18977  39.638  19.773   2.235
46553W        W18978  37.541   9.798   0.898
46554W        W18979   5.677  26.937   4.133
46555W        W18980  19.194   6.426   0.048
46556W        W18981  44.328   1.138   5.157
46557W        W18982  35.024  23.195  10.484
46558W        W18983  41.441  18.732   3.600
46559W        W18984  33.869   8.337   3.764
46560W        W18985   8.168   2.258  13.431
46561W        W18986  16.372  42.341  14.639
46562W        W18987  30.661   3.634  10.641
46563W        W18988  24.940  20.480   4.284
46564W        W18989  26.655  11.788   3.620
46565W        W18990  41.921   7.232  11.207
46566W        W18991  35.624  14.826   0.890
46567W        W18992  30.429  25.440   3.630
46568W        W18993  43.247  37.966   3.963
46569W        W18994  20.037  15.681  14.374
46570W        W18995  22.067   5.220  12.851
46571W        W18996  21.505   8.125  14.934
46572W        W18997  43.329  37.268   0.419
46573W        W18998  15.098  35.962   1.382
46574W        W18999   3.347   9.100   3.222
46575W        W19000   8.466  27.188  12.924
46576W        W19001   7.165  34.223   4.071
46577W        W19002  12.730   8.659   4.783
46578W        W19003  28.408  35.603  11.246
46579W        W19004  21.442  38.827   1.545
46580W        W19005   6.274  36.425   5.104
46581W        W19006  35.215  30.772   0.498
46582W        W19007  17.056  44.906  14.506
46583W        W19008  33.473  21.460   1.284
46584W        W19009  40.584  21.076   5.115
46585W        W19010   0.429  29.448   1.474
46586W        W19011   7.461  42.433   2.445
46587W        W19012  39.493  37.298  11.549
46588W        W19013  35.419  15.757  11.442
46589W        W19014  16.782   1.875  10.300
46590W        W19015  32.373  28.194   9.697
46591W        W19016  14.505  27.237   2.286
46592W        W19017  35.387  30.639  13.364
46593W        W19018  40.980  28.041   3.705
46594W        W19019  23.236   8.266  10.279
46595W        W19020  15.768  15.179   2.453
46596W        W19021  31.357  30.151   4.372
46597W        W19022  40.580   0.690  11.447
46598W        W19023   8.281  32.295   4.109
46599W        W19024   3.860   2.201   4.580
46600W        W19025  22.325   7.702  14.988
46601W        W19026   2.403  26.459  10.713
46602W        W19027  31.119  11.860   3.635
46603W        W19028  43.131  12.828  10.192
46604W        W19029  41.033  42.503  13.993
46605W        W19030  40.624  29.224   0.393
46606W        W19031   8.591  32.937   1.301
46607W        W19032  15.771  27.499  12.220
46608W        W19033  13.573  31.851   0.686
46609W        W19034  30.103  37.038   0.186
46610W        W19035   9.771  30.677  14.298
46611W        W19036  21.414  24.973  11.128
46612W        W19037  35.206  11.237   0.700
46613W        W19038  14.831  27.972  11.608
46614W        W19039  30.285  23.298   4.568
46615W        W19040  41.765  42.514  10.966
46616W        W19041   1.999  21.015   1.382
46617W        W19042  14.212  44.233  12.991
46618W        W19043   5.322  44.914  13.144
46619W        W19044  15.065  32.111   4.352
46620W        W19045  29.637  13.204   1.639
46621W        W19046   0.955  36.416  11.151
46622W        W19047   3.405  36.405  10.969
46623W        W19048   3.417  22.121   4.728
46624W        W19049  39.370  20.790   0.395
46625W        W19050   5.328   9.182   3.209
46626W        W19051  13.416  17.322  14.414
46627W        W19052  41.637  16.748  11.088
46628W        W19053  18.876  14.201  14.556
46629W        W19054  20.267   1.681  12.420
46630W        W19055  19.669  13.412   0.929
46631W        W19056  22.842  24.606   4.335
46632W        W19057   4.679  28.580   1.327
46633W        W19058  33.085  43.735   3.683
46634W        W19059  18.054  27.458  11.073
46635W        W19060  29.632  31.220   1.133
46636W        W19061   3.379  35.389   0.926
46637W        W19062  39.464  23.470  12.425
46638W        W19063  16.836  27.176   4.659
46639W        W19064  38.394   0.173   3.614
46640W        W19065  16.576   9.145  10.868
46641W        W19066   1.759   4.484   0.942
46642W        W19067  30.585  26.140   3.265
46643W        W19068  13.377  32.598   4.641
46644W        W19069  44.708  34.576   0.311
46645W        W19070   7.736  14.114   2.181
46646W        W19071   4.960  27.205   2.397
46647W        W19072  15.560  24.484   1.413
46648W        W19073  12.855  33.962   3.708
46649W        W19074  41.977  41.515   2.972
46650W        W19075  37.861  10.309  14.956
46651W        W19076  24.236  22.915   2.606
46652W        W19077  41.612  18.724   1.231
46653W        W19078  14.914  13.887  13.949
46654W        W19079  20.637  30.876  11.157
46655W        W19080   6.030  13.847  14.807
46656W        W19081  25.639  39.396   1.751
46657W        W19082  16.124  10.814  11.015
46658W        W19083  42.811  17.198   4.077
46659W        W19084  20.535   7.289   3.322
46660W        W19085   0.470  20.607   1.838
46661W        W19086  14.341  13.745  13.381
46662W        W19087  28.936  28.605   0.847
46663W        W19088  26.248  41.904  11.513
46664W        W19089  16.350  40.165   1.920
46665W        W19090  33.472  11.946   0.173
46666W        W19091  43.049  40.979  14.990
46667W        W19092  27.537  22.609   4.814
46668W        W19093  19.528  10.803  14.357
46669W        W19094  27.018  23.269  11.098
46670W        W19095   7.283  25.089   0.372
46671W        W19096  43.243  30.714  14.765
46672W        W19097  13.974  13.530  11.071
46673W        W19098  22.893  20.768  10.662
46674W        W19099  35.426  16.686   1.384
46675W        W19100   4.661  42.513   4.676
46676W        W19101   8.207   5.056  12.980
46677W        W19102  18.218  38.259   0.176
46678W        W19103  26.771  10.773  10.645
46679W        W19104  14.210  10.699  10.435
46680W        W19105  10.028  17.596  14.057
46681W        W19106  23.220  33.490   0.544
46682W        W19107  43.278  34.558  12.652
46683W        W19108  33.364  36.020   1.316
46684W        W19109  19.058  12.359   2.338
46685W        W19110  43.392   5.697   1.361
46686W        W19111  44.992  22.805   1.790
46687W        W19112  29.039   7.259   3.580
46688W        W19113  42.344  10.334  13.718
46689W        W19114   4.898  20.049  11.483
46690W        W19115  30.989   1.312   4.132
46691W        W19116  27.930  37.867   0.968
46692W        W19117  31.344  35.381  13.878
46693W        W19118   4.426   9.642   1.314
46694W        W19119  38.349  35.538   1.798
46695W        W19120  17.456  16.623  11.627
46696W        W19121  16.285  36.625  13.939
46697W        W19122   3.866  22.465  13.884
46698W        W19123  17.217   3.586   4.157
46699W        W19124  41.409  13.189  11.185
46700W        W19125  31.325  20.896   0.948
46701W        W19126  43.981  14.250   3.795
46702W        W19127  39.460  16.857  10.828
46703W        W19128  11.156   4.236   1.147
46704W        W19129   2.379  43.812  13.574
46705W        W19130  19.819  37.114  11.210
46706W        W19131   1.355  36.876  10.729
46707W        W19132   7.864   6.692   4.918
46708W        W19133  35.134  29.359  12.909
46709W        W19134   3.196  11.356  11.625
46710W        W19135  42.813   0.798  12.916
46711W        W19136  36.827  36.115  12.334
46712W        W19137   1.947  36.605  14.709
46713W        W19138   3.533  14.578   3.385
46714W        W19139  38.549  31.400  13.326
46715W        W19140  25.947   5.175  11.614
46716W        W19141  21.015   6.803  12.433
46717W        W19142  34.103  13.441   2.314
46718W        W19143  14.353  42.928  14.721
46719W        W19144  27.445  15.849   2.370
46720W        W19145  18.644   4.254   4.418
46721W        W19146  44.828   6.720   1.713
46722W        W19147   9.381  43.279  11.955
46723W        W19148  39.800  10.225  11.642
46724W        W19149  13.272  23.792   9.997
46725W        W19150  22.303   9.367  13.233
46726W        W19151  14.372   4.726   3.287
46727W        W19152   0.417   0.456  13.133
46728W        W19153  13.052  15.068  12.006
46729W        W19154   7.618  23.516  11.961
46730W        W19155   8.087  42.345   4.038
46731W        W19156  19.301  26.961   4.099
46732W        W19157  25.680  38.596  12.010
46733W        W19158  26.072  40.236   2.675
46734W        W19159   9.840  10.761   4.761
46735W        W19160  32.405  11.564   1.364
46736W        W19161  18.771  39.854  12.040
46737W        W19162  13.782  18.653   0.209
46738W        W19163  44.458   3.152  12.099
46739W        W19164  22.137   3.161  11.321
46740W        W19165   1.089  21.136  11.005
46741W        W19166  33.080  30.830  13.496
46742W        W19167   0.672  43.032   1.009
46743W        W19168  28.234  10.254   3.290
46744W        W19169  23.194   9.512   1.846
46745W        W19170  38.140  22.147  14.542
46746W        W19171  22.175  28.051   2.099
46747W        W19172  17.092  11.849  11.167
46748W        W19173   3.221  10.838  11.130
46749W        W19174   2.219  16.742  11.950
46750W        W19175   4.172   6.037  13.446
46751W        W19176  20.712  42.208  12.531
46752W        W19177  33.656   6.790  10.712
46753W        W19178  22.736  37.899  10.016
46754W        W19179  11.469   7.381  14.769
46755W        W19180  32.376   2.026   1.192
46756W        W19181  42.465  10.151  13.175
46757W        W19182  16.019  13.342  12.049
46758W        W19183  13.903   9.895  11.533
46759W        W19184   5.616  40.014  13.357
46760W        W19185   9.071  32.322  11.957
46761W        W19186  18.419  22.501   2.793
46762W        W19187   6.313  43.477   1.828
46763W        W19188  38.837   3.358  12.553
46764W        W19189  24.175  21.735  12.680
46765W        W19190  26.435  29.080   4.072
46766W        W19191  18.144  34.977   3.621
46767W        W19192  15.367  16.552   4.623
46768W        W19193  34.046  12.335  14.912
46769W        W19194  31.615   7.760  13.948
46770W        W19195  25.709  35.194  13.917
46771W        W19196  38.829  23.744   2.643
46772W        W19197  12.264  27.449  12.978
46773W        W19198   4.874   5.426  10.681
46774W        W19199  15.193  19.502  12.619
46775W        W19200  21.266  32.069   1.204
46776W        W19201  37.152  41.489   0.210
46777W        W19202  28.673   8.688   2.464
46778W        W19203   9.832  18.140   0.750
46779W        W19204  15.137  24.377   5.429
46780W        W19205  30.209  30.692  11.910
46781W        W19206   6.683   8.621   5.102
46782W        W19207  28.306  42.752   4.194
46783W        W19208  30.047  43.201  13.486
46784W        W19209  13.328  16.824   0.374
46785W        W19210  26.463  25.019   1.628
46786W        W19211  42.278  31.549   4.414
46787W        W19212  27.406  34.945   0.785
46788W        W19213   6.171   1.260   1.337
46789W        W19214  22.150  12.319   4.234
46790W        W19215   0.784  15.385  13.445
46791W        W19216   9.440  17.225   0.477
46792W        W19217   2.248  43.709   3.687
46793W        W19218  39.023  21.148   0.265
46794W        W19219  36.419  26.263   5.671
46795W        W19220  26.802   3.517   2.843
46796W        W19221  21.956   9.348   2.789
46797W        W19222   2.232  25.071  14.405
46798W        W19223  22.906  44.407   2.850
46799W        W19224  11.543  38.155  10.500
46800W        W19225  13.565  23.612  14.474
46801W        W19226  15.441  31.214  11.479
46802W        W19227  26.737   1.989   5.067
46803W        W19228  25.929  34.013   2.308
46804W        W19229  16.623  26.120  12.474
46805W        W19230  30.384  32.977   1.327
46806W        W19231  41.465  14.745   3.613
46807W        W19232  22.603  36.528   2.720
46808W        W19233   8.257   0.983  13.848
46809W        W19234  23.997  11.351   1.464
46810W        W19235  39.420  40.369   4.157
46811W        W19236  20.052  35.473  12.102
46812W        W19237  19.492  41.035   1.857
46813W        W19238  30.163  10.911  12.488
46814W        W19239  24.163  42.552  13.817
46815W        W19240  40.296   5.354   2.368
46816W        W19241  32.329  24.127  13.939
46817W        W19242  17.676  15.298   0.451
46818W        W19243  31.657  24.674  14.918
46819W        W19244  32.670  24.121   0.776
46820W        W19245  20.136  12.096  10.544
46821W        W19246  12.801   4.222   1.905
46822W        W19247   6.275   1.666   4.529
46823W        W19248  27.570  37.858  11.269
46824W        W19249   9.855   7.769   3.174
46825W        W19250  27.195  16.973  14.345
46826W        W19251  32.374   8.669  12.086
46827W        W19252  41.804  40.893  13.141
46828W        W19253  37.472  31.450  13.452
46829W        W19254  18.108  35.065  12.535
46830W        W19255  17.247   8.768   1.300
46831W        W19256  23.880  16.341   4.283
46832W        W19257  28.894  19.620  11.598
46833W        W19258   7.287  40.989  11.634
46834W        W19259  21.499  17.181  13.912
46835W        W19260  35.754  39.290  12.408
46836W        W19261   7.787  40.780   1.750
46837W        W19262   0.434  38.401   1.358
46838W        W19263  29.995  20.056  13.758
46839W        W19264  37.483   5.940  12.270
46840W        W19265  18.534   5.996  10.904
46841W        W19266   3.489  20.776   1.840
46842W        W19267  28.178  31.614  12.954
46843W        W19268  39.725  42.363  11.310
46844W        W19269  31.145  11.920   1.790
46845W        W19270  32.695  32.071  12.566
46846W        W19271   5.088  10.702  10.559
46847W        W19272   7.478  42.848   4.684
46848W        W19273  31.680   0.420  14.897
46849W        W19274   8.805  24.551  13.478
46850W        W19275   7.073  39.835   2.248
46851W        W19276  21.443  38.938  13.483
46852W        W19277  16.563  13.870  12.905
46853W        W19278  23.288  11.935   4.639
46854W        W19279  34.341  28.757   4.222
46855W        W19280  15.206  21.000  13.416
46856W        W19281  14.817  29.579  11.547
46857W        W19282  39.935   3.884  11.322
46858W        W19283  14.732   5.695  14.796
46859W        W19284  17.345  23.197   2.411
46860W        W19285   3.727  24.063   2.810
46861W        W19286  18.234  16.229   2.712
46862W        W19287   3.519  27.545  14.304
46863W        W19288  35.469  22.178   0.498
46864W        W19289  10.463   0.979  10.741
46865W        W19290  29.909  30.495  14.057
46866W        W19291  21.511  16.769   4.573
46867W        W19292  44.928  24.015   1.161
46868W        W19293  41.842  43.615   1.123
46869W        W19294  37.560  35.317  12.445
46870W        W19295   9.325  25.612   4.901
46871W        W19296  32.415  30.040  13.887
46872W        W19297  38.372  42.035   3.344
46873W        W19298  39.470  40.679  13.505
46874W        W19299  38.973   3.827   0.531
46875W        W19300  21.815  39.128   1.018
46876W        W19301  35.164  34.913   4.219
46877W        W19302   2.349  11.652   0.197
46878W        W19303  30.732   4.956  10.318
46879W        W19304  42.807  14.185   2.343
46880W        W19305  17.852  35.861   4.586
46881W        W19306  41.179  24.955   4.065
46882W        W19307   0.782  16.656   4.510
46883W        W19308  21.157  21.218   2.163
46884W        W19309  30.164  19.572  14.340
46885W        W19310  37.910  30.666  14.984
46886W        W19311   8.446  19.781  10.624
46887W        W19312   8.037   3.374  13.946
46888W        W19313  17.348  44.101   2.445
46889W        W19314  16.232   1.954   2.719
46890W        W19315  26.508  35.285  12.880
46891W        W19316  29.445   6.717  11.465
46892W        W19317  36.967  44.555   2.828
46893W        W19318  31.258  19.109   0.844
46894W        W19319  30.512   3.071   3.121
46895W        W19320   9.187   3.365   4.452
46896W        W19321  19.841  33.016  10.451
46897W        W19322   9.844   3.086  14.425
46898W        W19323   5.950  32.311  12.683
46899W        W19324  22.514  33.508  14.449
46900W        W19325  29.320   7.867  13.772
46901W        W19326  18.837  40.494  12.393
46902W        W19327  40.861  30.862   2.416
46903W        W19328  39.334  36.324  12.460
46904W        W19329  29.083   8.109  12.347
46905W        W19330  19.148  28.760   4.593
46906W        W19331  37.114  28.091  11.085
46907W        W19332  41.318  28.437   4.620
46908W        W19333  36.545   8.669  11.266
46909W        W19334  21.200   6.331  11.558
46910W        W19335   7.869  34.842  10.236
46911W        W19336  16.040   5.338   0.831
46912W        W19337  31.927  11.349   1.210
46913W        W19338  16.059   1.866  11.677
46914W        W19339  21.587  31.942  12.632
46915W        W19340  23.159  25.483  14.916
46916W        W19341  21.648  44.981  12.453
46917W        W19342  16.433  20.098   1.997
46918W        W19343  41.928  41.247  14.735
46919W        W19344  26.128  21.212   2.701
46920W        W19345  40.360  24.731   2.883
46921W        W19346   9.883  33.534  12.586
46922W        W19347   3.374  20.564   4.533
46923W        W19348   1.315  31.438   4.368
46924W        W19349  33.749  24.236   1.823
46925W        W19350  19.487   1.901   2.161
46926W        W19351  12.344  40.817  11.612
46927W        W19352  39.447  24.940   0.977
46928W        W19353  28.900   1.683  13.429
46929W        W19354   5.358  34.526  12.459
46930W        W19355  41.329  41.960  11.526
46931W        W19356   3.313  37.435   0.020
46932W        W19357  42.550  31.654  11.546
46933W        W19358  20.174  26.623   3.781
46934W        W19359  37.757  41.684  12.822
46935W        W19360   4.006   2.355  12.582
46936W        W19361  19.145  21.075   4.598
46937W        W19362  41.119  30.061   3.727
46938W        W19363  30.661  17.823   1.412
46939W        W19364  35.128  34.350   1.638
46940W        W19365  21.970  19.776  13.782
46941W        W19366  37.033  39.403   2.695
46942W        W19367  18.735  42.499  14.850
46943W        W19368  44.692  20.700   4.161
46944W        W19369  37.309   4.095  12.872
46945W        W19370  15.696  38.318   0.807
46946W        W19371  19.890   0.946   4.977
46947W        W19372   8.173   7.367   1.421
46948W        W19373  40.594  32.621   0.931
46949W        W19374  41.401  44.906   4.649
46950W        W19375   7.741  18.751  12.073
46951W        W19376  28.093  18.827  11.871
46952W        W19377   9.159  42.644   4.158
46953W        W19378  26.040  38.896   3.915
46954W        W19379  32.008  38.396   1.803
46955W        W19380  11.196  20.622   2.659
46956W        W19381  33.027  28.538  12.520
46957W        W19382   9.956  19.527   4.309
46958W        W19383  43.273  44.879  10.587
46959W        W19384  20.028  36.873   0.237
46960W        W19385  17.102   3.884   3.738
46961W        W19386   7.693   6.779  14.866
46962W        W19387   8.105  17.765   0.484
46963W        W19388  24.031  14.520   1.824
46964W        W19389  42.008  31.646  12.477
46965W        W19390  36.639  42.605  11.559
46966W        W19391   1.706   5.994  12.018
46967W        W19392  23.266  33.685   1.014
46968W        W19393  23.056  19.138  13.605
46969W        W19394  38.679  26.582  13.825
46970W        W19395  32.521  23.360  12.703
46971W        W19396   4.055  13.282  14.238
46972W        W19397   6.675  18.695  10.854
46973W        W19398  13.291   2.113   1.728
46974W        W19399  10.055  31.419   2.319
46975W        W19400  21.218  35.437   2.967
46976W        W19401  19.294  29.067  10.723
46977W        W19402  13.192  27.153   0.145
46978W        W19403  35.605  41.814  12.046
46979W        W19404  20.250  13.517  13.213
46980W        W19405  21.601  13.782  11.496
46981W        W19406  13.167  18.571   3.776
46982W        W19407  26.974  23.267  12.199
46983W        W19408  30.344  32.598   1.767
46984W        W19409  40.811  26.410   2.938
46985W        W19410  31.811  40.384  11.013
46986W        W19411  28.611  30.071   4.593
46987W        W19412  12.031  30.998   3.546
46988W        W19413  25.461  10.828   2.631
46989W        W19414  33.567  40.647  12.488
46990W        W19415   3.793  33.983  11.887
46991W        W19416  14.182  27.150  13.527
46992W        W19417   1.759  10.892   1.625
46993W        W19418  18.167   5.358   0.532
46994W        W19419  19.718  10.753  10.908
46995W        W19420   1.519   3.174  14.787
46996W        W19421  23.751   8.835  10.752
46997W        W19422  43.464  25.635   2.538
46998W        W19423  19.257  24.936   0.355
46999W        W19424  17.361   3.114   4.024
47000W        W19425  11.806  29.863   1.847
47001W        W19426  19.836   9.589  14.718
47002W        W19427  22.276  41.576  11.079
47003W        W19428  14.717  30.675   0.772
47004W        W19429   5.354  17.055   1.194
47005W        W19430  27.640  36.457   3.926
47006W        W19431  39.117  44.870  13.435
47007W        W19432  22.199  32.997  13.863
47008W        W19433  35.446   5.037   4.509
47009W        W19434  36.589  31.550   3.229
47010W        W19435  12.958  14.642   3.699
47011W        W19436  30.838  26.819  11.080
47012W        W19437  24.430   7.555   1.461
47013W        W19438  25.218  29.419  14.065
47014W        W19439  30.415  19.787   3.805
47015W        W19440  37.859  44.350  13.578
47016W        W19441  19.798  27.550  13.468
47017W        W19442  12.611   7.302  12.595
47018W        W19443   3.250  41.597   0.745
47019W        W19444  25.982  28.997  14.341
47020W        W19445  21.104   3.136  14.375
47021W        W19446  12.117  14.404   4.585
47022W        W19447  31.329  10.559   4.360
47023W        W19448  36.438  26.796  10.565
47024W        W19449   4.191  17.061  12.974
47025W        W19450  39.121  43.889  13.891
47026W        W19451  16.054  31.745   4.195
47027W        W19452  18.078  16.536  11.039
47028W        W19453   0.673  24.724   5.172
47029W        W19454  40.446   3.700   0.473
47030W        W19455   5.371  16.602  12.947
47031W        W19456  22.199   4.381   1.151
47032W        W19457  36.985  33.502   0.954
47033W        W19458  22.612  17.277   2.416
47034W        W19459   7.378  19.282   0.961
47035W        W19460  19.582  16.317  12.117
47036W        W19461  12.587  31.585  14.939
47037W        W19462  25.040  12.476   1.663
47038W        W19463   6.594  35.008   5.493
47039W        W19464  35.335  18.697  13.415
47040W        W19465  17.030   6.806  10.728
47041W        W19466   8.283  33.864  12.501
47042W        W19467  42.009  20.145  14.244
47043W        W19468   6.427  19.942  11.053
47044W        W19469   5.419  17.660   3.372
47045W        W19470  43.169  26.726   4.645
47046W        W19471  26.640  22.246  11.482
47047W        W19472  14.203   1.392  10.654
47048W        W19473  24.717  16.815   3.000
47049W        W19474  17.876  11.119   1.794
47050W        W19475  34.712  11.265   0.536
47051W        W19476  10.911  19.347  13.911
47052W        W19477  37.819   0.959   1.375
47053W        W19478  38.872  30.430  12.482
47054W        W19479  35.429   0.406  14.867
47055W        W19480  43.371   3.529   1.627
47056W        W19481  30.676  16.615   4.745
47057W        W19482  21.385  23.098   2.423
47058W        W19483  18.238  21.514   2.946
47059W        W19484  15.756  43.478   4.680
47060W        W19485  19.110   6.565   2.351
47061W        W19486   3.910   4.320   2.275
47062W        W19487  28.486   5.857   3.391
47063W        W19488  44.414   3.966  11.171
47064W        W19489  29.197  15.244   1.248
47065W        W19490  25.610   6.914   4.604
47066W        W19491   2.749  38.607   4.822
47067W        W19492  22.131  14.715  10.742
47068W        W19493  28.193   0.179   4.995
47069W        W19494  37.934  40.957  11.153
47070W        W19495  17.568  24.766  13.779
47071W        W19496   9.220  22.030   3.114
47072W        W19497  31.980   0.526   4.136
47073W        W19498  16.855  35.618   0.681
47074W        W19499  29.474  28.307   3.725
47075W        W19500  16.038  28.553  12.476
47076W        W19501  17.647  18.633   0.288
47077W        W19502  21.506  42.744  14.132
47078W        W19503  13.754  29.589  12.681
47079W        W19504   2.991  20.330   2.632
47080W        W19505  17.164  36.419   2.630
47081W        W19506   4.053  12.883  14.602
47082W        W19507   8.795   6.714   4.828
47083W        W19508  37.012  20.817  14.797
47084W        W19509  20.041  15.555   1.761
47085W        W19510  43.880  28.430   0.000
47086W        W19511   6.221  29.122   4.627
47087W        W19512  16.267  12.897  14.293
47088W        W19513  17.695  13.242   1.179
47089W        W19514  28.675  23.103  11.462
47090W        W19515  40.621   9.938  12.937
47091W        W19516  33.628   2.349  10.554
47092W        W19517  37.687   5.223   2.226
47093W        W19518  14.611   7.586  13.981
47094W        W19519  14.739  30.437  12.147
47095W        W19520  40.340   8.578  14.884
47096W        W19521  38.783  42.794   2.133
47097W        W19522   6.339  34.671  11.074
47098W        W19523  12.725  10.938   4.074
47099W        W19524  13.740  12.008  12.552
47100W        W19525  22.254  40.666  14.084
47101W        W19526  17.943  39.603  12.981
47102W        W19527   1.536  42.913  10.785
47103W        W19528   7.871  13.725   2.933
47104W        W19529  30.261   2.886  11.692
47105W        W19530  41.453  12.685   2.636
47106W        W19531  39.398  14.534   0.672
47107W        W19532  29.220  33.831   2.296
47108W        W19533  32.640  43.622   1.713
47109W        W19534  43.328   0.498   2.229
47110W        W19535  32.345  10.098  13.397
47111W        W19536  24.142  10.779   4.656
47112W        W19537  38.371   3.706   0.813
47113W        W19538  35.794  14.669  13.554
47114W        W19539   2.509  39.049  11.388
47115W        W19540   3.520  10.400   1.842
47116W        W19541  24.787  24.624   0.206
47117W        W19542  13.864  21.594  13.271
47118W        W19543  41.785  43.775   1.608
47119W        W19544  29.765  13.646  12.912
47120W        W19545  18.255  42.561  11.124
47121W        W19546  43.934   0.322   2.829
47122W        W19547  43.674   9.961  12.441
47123W        W19548   8.721  17.575  14.941
47124W        W19549  31.105  19.251  12.003
47125W        W19550   8.331  24.129  13.485
47126W        W19551  19.601  43.785  13.392
47127W        W19552  34.826  41.472   2.867
47128W        W19553  27.987  33.307   4.013
47129W        W19554  21.678  43.081   1.896
47130W        W19555  17.601  42.035   2.387
47131W        W19556  13.045   8.922   3.701
47132W        W19557  20.535  38.524  12.368
47133W        W19558  12.841  37.034   3.107
47134W        W19559   0.307  35.798  13.971
47135W        W19560  31.653  36.105  12.982
47136W        W19561  25.628  21.192   3.534
47137W        W19562  33.585  41.004  14.017
47138W        W19563  26.551  18.391   3.431
47139W        W19564  16.034  17.343  13.622
47140W        W19565  26.122  31.064  10.858
47141W        W19566  33.326  13.355   3.007
47142W        W19567  21.987  30.593  13.093
47143W        W19568  33.698  25.429   1.259
47144W        W19569   9.356  37.270   0.777
47145W        W19570  20.833  35.677   2.758
47146W        W19571   0.734  30.225   2.271
47147W        W19572  15.126  30.032   3.151
47148W        W19573   4.975  37.562  12.839
47149W        W19574   7.747  42.556   2.886
47150W        W19575  14.812  32.218   3.057
47151W        W19576   1.898  13.246  10.675
47152W        W19577   8.324  42.407  14.311
47153W        W19578  21.823  41.958   3.377
47154W        W19579   5.910  15.089  14.086
47155W        W19580  10.167  33.125   3.130
47156W        W19581  16.056   6.152  13.219
47157W        W19582   0.318  22.919  12.107
47158W        W19583  37.087  41.112  12.472
47159W        W19584   4.725  32.316  12.214
47160W        W19585  38.976  22.799  12.480
47161W        W19586  39.307   2.117   4.878
47162W        W19587  42.745  25.656  12.061
47163W        W19588  36.098  13.201   3.197
47164W        W19589  42.865  22.604  11.069
47165W        W19590   8.315   9.445  10.678
47166W        W19591   7.848   4.709  10.438
47167W        W19592   4.804   2.996   4.618
47168W        W19593  31.003   8.065   1.422
47169W        W19594  12.785  18.575  11.703
47170W        W19595  25.485  20.808   3.154
47171W        W19596  25.783  12.266   0.658
47172W        W19597  41.917   7.000   3.307
47173W        W19598  14.938   2.162   3.401
47174W        W19599  20.403   1.065   2.084
47175W        W19600   9.665   8.400  12.862
47176W        W19601  37.801  17.457  14.511
47177W        W19602  41.286  22.540  11.022
47178W        W19603  16.592  15.198   2.537
47179W        W19604  43.849  12.851   3.209
47180W        W19605  25.643  25.699   0.769
47181W        W19606  28.434   1.823   4.277
47182W        W19607  34.856  40.267   4.154
47183W        W19608  31.441  20.553   3.221
47184W        W19609  16.728  36.346   2.923
47185W        W19610  40.261  43.803  11.921
47186W        W19611  36.586  26.336   1.646
47187W        W19612  35.622  24.019  12.596
47188W        W19613  20.785  40.916  11.590
47189W        W19614   4.794  28.927  12.972
47190W        W19615   7.156  30.466   1.374
47191W        W19616  26.312  26.987  13.354
47192W        W19617   9.901   9.288  12.417
47193W        W19618  12.235  16.472  13.115
47194W        W19619   6.309  24.991   2.752
47195W        W19620  22.698  30.949  13.394
47196W        W19621  21.125   0.214   4.607
47197W        W19622  44.504  41.695   3.376
47198W        W19623   0.054  14.168  11.099
47199W        W19624   8.948  31.968  11.571
47200W        W19625  17.716  41.229  14.253
47201W        W19626  33.797  33.055   4.758
47202W        W19627  33.524  43.242   3.211
47203W        W19628   5.410  28.998  10.787
47204W        W19629  19.984  38.929   0.006
47205W        W19630   6.830  20.768  13.986
47206W        W19631   0.016  39.514   1.187
47207W        W19632  13.808  33.559   0.310
47208W        W19633  12.532  31.560  13.422
47209W        W19634  39.290  10.284  11.604
47210W        W19635   8.786   5.417   0.302
47211W        W19636  38.944  27.095   3.637
47212W        W19637  13.188  44.428  12.927
47213W        W19638  21.589  30.687   1.751
47214W        W19639   9.354  11.589  10.316
47215W        W19640  10.741   5.756   0.219
47216W        W19641  12.743  29.528   3.552
47217W        W19642   7.770  42.878   3.312
47218W        W19643   7.766   3.172   0.202
47219W        W19644  21.961  36.849  14.947
47220W        W19645  29.043  34.819   2.138
47221W        W19646  26.849   2.914  12.635
47222W        W19647   7.949  37.059   2.215
47223W        W19648  16.584   1.987  14.877
47224W        W19649  32.092   8.112   3.154
47225W        W19650   0.829   4.644   9.988
47226W        W19651   6.927  25.697  14.397
47227W        W19652   5.231   5.012   4.658
47228W        W19653  44.818  38.849  10.667
47229W        W19654   6.215  43.438  11.122
47230W        W19655  36.465  33.532   4.879
47231W        W19656   8.620  35.904  11.427
47232W        W19657  32.147  19.834  14.434
47233W        W19658  11.148   4.643  12.946
47234W        W19659  37.619   1.684   0.484
47235W        W19660   1.820   0.527   1.353
47236W        W19661  16.723   8.589   4.136
47237W        W19662  38.597  26.745  10.664
47238W        W19663  34.990   4.616   9.993
47239W        W19664  20.468  24.137  13.905
47240W        W19665   0.389  27.933   4.216
47241W        W19666  24.478  32.077   3.200
47242W        W19667  10.280   1.346   1.029
47243W        W19668  24.216  20.403   3.630
47244W        W19669  27.988  44.998  11.545
47245W        W19670  34.899   1.692  13.264
47246W        W19671  11.059  21.088  11.171
47247W        W19672   8.337  20.969  12.118
47248W        W19673  31.880  15.800   2.338
47249W        W19674   4.229  37.726  11.673
47250W        W19675  27.686   8.403   0.295
47251W        W19676  32.649  28.980   3.036
47252W        W19677   5.826  41.885   1.502
47253W        W19678  31.520  44.229  13.087
47254W        W19679  34.847  42.834  12.905
47255W        W19680   5.922  42.036   3.741
47256W        W19681  28.135  36.486   1.234
47257W        W19682  13.337  17.544   9.653
47258W        W19683  36.841  21.543   0.523
47259W        W19684  38.028  21.702   0.920
47260W        W19685  28.166  29.242   3.891
47261W        W19686  38.734  14.297   1.323
47262W        W19687  35.978  36.398  12.806
47263W        W19688  14.439  23.647   4.946
47264W        W19689  15.784  25.484   4.883
47265W        W19690  13.626   4.843  12.544
47266W        W19691  19.499  26.683   0.415
47267W        W19692  24.478  20.653  14.338
47268W        W19693  43.922  11.055   1.688
47269W        W19694   1.751  28.061   2.217
47270W        W19695   2.786  19.539   0.822
47271W        W19696  12.428  13.328  14.765
47272W        W19697  41.969  12.969  13.858
47273W        W19698  37.403  25.399   5.022
47274W        W19699  20.150   7.866  14.066
47275W        W19700  10.324  30.573   1.738
47276W        W19701  34.832  25.480   3.297
47277W        W19702   4.209  26.732   3.207
47278W        W19703  25.686   7.680   2.056
47279W        W19704  15.009  17.602  13.438
47280W        W19705  35.726  12.439   0.459
47281W        W19706   2.242   4.329   3.316
47282W        W19707  43.459   7.142   0.675
47283W        W19708  38.204  23.829  11.961
47284W        W19709  39.934  35.404  10.702
47285W        W19710  30.252   1.561  13.840
47286W        W19711  27.565  23.566   1.713
47287W        W19712  44.356  10.620   1.941
47288W        W19713   9.970  25.355   1.666
47289W        W19714  35.998  31.462  14.460
47290W        W19715   8.352   9.621   1.674
47291W        W19716  12.936   0.161   2.658
47292W        W19717  37.543  39.383   4.666
47293W        W19718  27.251   8.836  12.409
47294W        W19719  14.704   5.119  11.631
47295W        W19720  38.317  19.766   2.885
47296W        W19721  40.316  35.566  13.756
47297W        W19722  13.093  13.126  14.320
47298W        W19723  32.395   3.371  13.447
47299W        W19724   9.120  37.231  14.607
47300W        W19725  20.602  24.237  14.931
47301W        W19726   3.807  24.253   4.562
47302W        W19727  27.879   2.188  14.691
47303W        W19728  32.178  32.610   3.254
47304W        W19729  43.797  21.608  12.966
47305W        W19730  35.368  22.532   3.689
47306W        W19731  44.769  12.987   4.270
47307W        W19732  26.676   3.032   4.303
47308W        W19733  10.816  22.265   0.917
47309W        W19734  32.189   9.946  10.246
47310W        W19735   0.690  37.740   3.191
47311W        W19736  44.936  29.570   2.671
47312W        W19737  34.997  33.647   2.331
47313W        W19738  10.294  17.993  14.790
47314W        W19739  11.837  17.582   1.691
47315W        W19740   1.703  33.107  12.413
47316W        W19741  14.118  31.036  12.350
47317W        W19742  20.655  16.148   2.615
47318W        W19743   5.250  34.016   3.583
47319W        W19744  19.190  20.935  11.192
47320W        W19745  31.241  21.292   4.066
47321W        W19746  35.691  38.013   4.302
47322W        W19747  21.171  28.325  13.488
47323W        W19748   8.524  40.010   0.707
47324W        W19749   4.331  42.236  11.602
47325W        W19750  10.390   1.057  12.960
47326W        W19751  18.210   8.275  10.449
47327W        W19752  23.071  25.145   1.424
47328W        W19753  33.569  16.344  10.498
47329W        W19754   2.739  17.682   3.817
47330W        W19755   9.424  26.493  12.020
47331W        W19756  26.485  36.345  11.903
47332W        W19757   4.388  28.072  10.715
47333W        W19758  28.519   5.995  14.955
47334W        W19759  44.759  26.501  10.201
47335W        W19760   2.883  16.191   1.672
47336W        W19761   3.994  23.600  12.639
47337W        W19762  26.647  39.297  14.374
47338W        W19763  22.751  44.866   1.676
47339W        W19764   2.819  23.566  14.842
47340W        W19765  32.494  15.674   4.987
47341W        W19766   6.840  15.753  12.873
47342W        W19767  25.556   3.851  11.620
47343W        W19768  18.508  13.571   1.439
47344W        W19769  23.230   9.201  10.001
47345W        W19770   9.598  37.742  14.012
47346W        W19771   5.296  11.816   0.272
47347W        W19772  10.431   6.134  14.587
47348W        W19773  37.072  24.995   0.472
47349W        W19774  36.013  34.320   0.946
47350W        W19775  36.492  10.098   3.067
47351W        W19776  35.596  37.006   3.236
47352W        W19777  43.307  37.784   0.437
47353W        W19778  33.763  10.142  14.334
47354W        W19779  26.386  27.582  12.514
47355W        W19780  26.184  34.367   4.548
47356W        W19781  36.392   2.291  12.276
47357W        W19782  34.365  18.237   4.604
47358W        W19783  22.729  30.266   0.310
47359W        W19784  40.078  33.209  13.999
47360W        W19785  35.384  21.155  13.940
47361W        W19786  36.641  32.344   2.746
47362W        W19787   1.186  36.081  14.285
47363W        W19788   0.449  11.832   2.693
47364W        W19789  43.305  26.077  11.522
47365W        W19790  39.456  29.966   1.184
47366W        W19791  11.716  39.363   2.419
47367W        W19792  14.569  38.999   3.227
47368W        W19793  27.617  44.835  11.031
47369W        W19794  17.189  38.886  13.293
47370W        W19795   4.292   9.102   4.067
47371W        W19796  40.840  15.587   2.111
47372W        W19797   5.765  42.893   1.506
47373W        W19798   7.027   9.218   1.969
47374W        W19799  31.084  14.903  13.845
47375W        W19800  36.754   5.698   3.383
47376W        W19801  34.095   2.763   4.509
47377W        W19802  25.223   7.246   4.755
47378W        W19803  38.872  16.352  12.126
47379W        W19804  11.040  20.828   0.730
47380W        W19805  19.798  10.665   3.776
47381W        W19806   7.904  29.927  12.936
47382W        W19807  27.682  38.989   2.214
47383W        W19808   0.308  41.804  11.210
47384W        W19809  18.215  31.548   3.757
47385W        W19810  36.455  31.458  11.599
47386W        W19811   0.805  38.951  10.222
47387W        W19812  19.992   4.187   2.725
47388W        W19813  15.909  30.078  12.006
47389W        W19814  33.939  26.912   0.929
47390W        W19815  12.114   9.705  13.980
47391W        W19816   3.961   1.215   2.956
47392W        W19817  39.879  21.456  11.186
47393W        W19818  23.022  16.676   4.212
47394W        W19819  39.161  12.937  13.863
47395W        W19820  32.932  23.454  11.465
47396W        W19821  20.631  22.648   1.391
47397W        W19822  20.657  44.420  10.755
47398W        W19823  30.920  18.817   5.030
47399W        W19824  33.433  31.089   4.655
47400W        W19825  41.366  10.792   2.489
47401W        W19826  29.920  24.679  14.340
47402W        W19827  20.232  38.073   0.065
47403W        W19828  16.592   4.467   3.255
47404W        W19829   4.910   5.834   2.178
47405W        W19830  35.223  24.768   2.790
47406W        W19831   0.812  44.151  14.476
47407W        W19832  26.946  13.126   1.792
47408W        W19833  38.408  21.902  12.921
47409W        W19834  41.433  21.593   3.847
47410W        W19835  20.832  11.638  10.820
47411W        W19836  31.627  24.712   2.308
47412W        W19837  10.841  31.434  12.818
47413W        W19838  38.301  22.064  11.511
47414W        W19839  24.170  35.350  12.942
47415W        W19840  38.506  36.003   0.081
47416W        W19841  32.956  44.542  13.394
47417W        W19842   7.898   4.410   1.764
47418W        W19843  11.386   8.814   4.091
47419W        W19844  12.077   8.272  11.779
47420W        W19845  39.272  38.517  14.373
47421W        W19846   8.977  21.793   1.636
47422W        W19847  27.938  32.619  10.328
47423W        W19848  29.766   2.857  11.820
47424W        W19849  37.626   8.910   0.829
47425W        W19850  43.336  18.792   0.960
47426W        W19851  17.151   7.266  14.001
47427W        W19852  26.188   4.153   2.854
47428W        W19853  16.183  23.716  10.262
47429W        W19854  30.180   6.395   0.879
47430W        W19855   3.827  12.701   2.971
47431W        W19856  23.549  38.856  12.324
47432W        W19857  29.595  25.737   1.741
47433W        W19858  11.340  28.363  12.513
47434W        W19859  15.144  38.796   3.878
47435W        W19860  44.989   3.290   4.278
47436W        W19861  19.074  26.056  13.818
47437W        W19862  37.421  38.224  11.256
47438W        W19863  21.300  24.684   2.924
47439W        W19864  14.817  22.779   5.132
47440W        W19865  41.423   8.119   4.366
47441W        W19866  31.602  26.197  14.366
47442W        W19867  33.518  24.128   0.470
47443W        W19868  33.496  36.827   4.345
47444W        W19869  42.454  37.114  11.581
47445W        W19870  38.924  25.333  14.600
47446W        W19871  33.253  14.555  14.857
47447W        W19872   7.004  44.386   0.007
47448W        W19873  26.661  30.794   0.621
47449W        W19874  25.664  24.494  13.988
47450W        W19875  24.947  14.832  11.615
47451W        W19876  27.430  23.066  12.071
47452W        W19877  23.947  42.892  10.979
47453W        W19878  34.919  29.841  12.764
47454W        W19879  38.620   9.156   4.261
47455W        W19880  38.320   5.460   1.828
47456W        W19881  34.739  34.040  14.955
47457W        W19882  17.769  22.144   3.866
47458W        W19883   5.212   4.987  14.343
47459W        W19884   8.712   1.335   4.651
47460W        W19885   8.183  26.198  13.546
47461W        W19886  26.186  14.582   3.250
47462W        W19887  40.858  24.270  11.970
47463W        W19888  10.296   9.359   1.090
47464W        W19889  36.454  43.887   1.688
47465W        W19890  32.573  34.897  14.444
47466W        W19891  36.500   2.199   3.365
47467W        W19892   2.961  13.617  11.622
47468W        W19893  35.015  24.508  13.338
47469W        W19894  15.168  39.989   0.473
47470W        W19895   1.197  15.211  10.321
47471W        W19896  44.019  16.373  10.074
47472W        W19897   9.317  35.376  14.152
47473W        W19898  22.485  34.462  12.633
47474W        W19899  43.325  22.638  13.464
47475W        W19900   2.477   1.679   1.196
47476W        W19901  30.993  12.027  14.500
47477W        W19902  24.969  38.733  13.077
47478W        W19903   3.548   4.822   4.976
47479W        W19904  22.528   1.351   0.517
47480W        W19905  13.764  28.583   3.577
47481W        W19906  29.336  13.886   2.268
47482W        W19907  32.895  33.824   0.280
47483W        W19908  26.052  30.056  13.598
47484W        W19909  19.968  32.551   1.313
47485W        W19910   3.830  30.430   1.003
47486W        W19911  31.901  37.513  11.347
47487W        W19912  12.577  15.114   0.734
47488W        W19913  41.580   0.995   1.369
47489W        W19914   1.005  31.058  12.538
47490W        W19915   1.376  11.239   3.963
47491W        W19916  34.217  34.133  14.812
47492W        W19917  31.054  33.278   5.237
47493W        W19918  18.770  22.019   4.616
47494W        W19919  37.152  44.660  11.699
47495W        W19920  27.474  27.490  10.755
47496W        W19921  28.679  44.954   1.926
47497W        W19922  31.478  34.718  13.554
47498W        W19923  16.495  42.268  13.744
47499W        W19924  36.233  44.834  10.162
47500W        W19925  26.985  24.790  12.719
47501W        W19926   9.120  26.763   0.990
47502W        W19927  33.390  24.612   1.802
47503W        W19928   5.423  25.141   3.240
47504W        W19929   0.414  31.958  11.545
47505W        W19930  43.519   9.436   0.442
47506W        W19931   1.095  19.866  11.161
47507W        W19932   9.244  40.011   2.800
47508W        W19933  18.045   4.530  12.362
47509W        W19934  31.633  32.912   2.730
47510W        W19935  14.710   3.442   0.456
47511W        W19936  13.675  39.924  13.583
47512W        W19937  11.464  21.950  14.260
47513W        W19938  26.154   3.329   9.919
47514W        W19939  20.737  33.076  10.480
47515W        W19940  15.391  43.050  11.030
47516W        W19941   5.338  18.568  11.631
47517W        W19942   6.382  15.763  13.114
47518W        W19943  34.011  19.337   1.454
47519W        W19944  21.625  14.807  10.821
47520W        W19945  21.554  32.483   1.351
47521W        W19946  38.035  12.187   0.690
47522W        W19947  17.555  11.786  12.466
47523W        W19948  20.060   6.880  13.855
47524W        W19949   1.741   1.333  13.865
47525W        W19950   1.763  25.177   2.858
47526W        W19951  37.375  25.696  14.594
47527W        W19952  10.623  35.909   1.782
47528W        W19953  10.728  31.896   4.789
47529W        W19954   9.259  40.896  10.632
47530W        W19955  15.194  44.419   0.399
47531W        W19956  41.716   5.389  11.026
47532W        W19957  42.090  41.296  11.102
47533W        W19958  34.603  40.121   2.661
47534W        W19959  24.135  27.919  13.959
47535W        W19960  41.853  34.076   0.854
47536W        W19961  33.285   3.382  10.186
47537W        W19962  27.624  38.096  10.825
47538W        W19963  14.057  20.096  13.183
47539W        W19964  28.881  40.371  11.463
47540W        W19965  25.452  11.292   2.875
47541W        W19966  15.365  12.606  11.531
47542W        W19967  38.005   8.708  12.274
47543W        W19968  33.950   1.440  12.880
47544W        W19969  32.137  30.002  12.546
47545W        W19970   6.481   7.241   5.061
47546W        W19971  21.456  32.022  10.253
47547W        W19972  35.805  18.449  14.352
47548W        W19973   3.485  41.130  13.907
47549W        W19974   5.954  32.126   0.928
47550W        W19975  30.534  36.325  10.850
47551W        W19976   3.235  11.840   1.208
47552W        W19977   6.868  32.833  11.056
47553W        W19978  12.287  41.964  12.121
47554W        W19979  38.335  25.436   0.180
47555W        W19980  19.706   5.809   0.252
47556W        W19981   1.951  16.484   3.619
47557W        W19982  35.125  20.701   3.675
47558W        W19983  22.115   0.261  14.280
47559W        W19984   7.833   5.713  10.142
47560W        W19985  29.360  21.760   1.309
47561W        W19986  42.112  17.039  10.180
47562W        W19987   4.406  24.055   2.025
47563W        W19988  18.728  29.616  13.830
47564W        W19989  40.368   6.155  10.780
47565W        W19990  10.400   5.894   5.098
47566W        W19991  22.799   4.443   3.283
47567W        W19992  20.942  11.698   1.372
47568W        W19993   8.321  34.124   3.561
47569W        W19994   7.707  31.613   1.857
47570W        W19995  11.213   4.405  11.473
47571W        W19996  38.006  37.481   0.360
47572W        W19997  21.743  41.318   0.407
47573W        W19998   4.470  22.177  11.732
47574W        W19999  30.992  15.550  11.894
47575W        W20000  35.983  24.801   0.935
47576W        W20001  38.286  42.792   2.277
47577W        W20002  14.751   0.839   0.943
47578W        W20003  11.706  24.348  10.916
47579W        W20004  19.758   5.339  14.741
47580W        W20005  23.119   9.562  13.630
47581W        W20006  39.052  28.193   2.025
47582W        W20007  43.986  43.453   1.785
47583W        W20008   9.327  36.437  10.599
47584W        W20009  27.981  21.716   0.728
47585W        W20010  40.216   4.380   1.225
47586W        W20011  15.736  26.630  10.596
47587W        W20012   9.746  26.636   4.199
47588W        W20013   5.669  15.835   0.270
47589W        W20014  26.345  32.836  13.066
47590W        W20015   7.683  36.790   0.344
47591W        W20016  39.947  23.630   3.521
47592W        W20017  26.638  23.550   1.430
47593W        W20018  29.694  22.897   0.485
47594W        W20019   0.945   6.641  12.704
47595W        W20020  28.637  19.564  14.278
47596W        W20021  39.550  43.989  11.376
47597W        W20022  44.492  37.988   4.592
47598W        W20023   4.721   4.867   2.447
47599W        W20024  14.609   7.857   3.735
47600W        W20025  36.605  38.961   2.244
47601W        W20026  27.591  39.759   1.484
47602W        W20027  13.610  13.843  12.379
47603W        W20028  21.572  22.753  14.719
47604W        W20029  33.449  30.915   3.690
47605W        W20030  10.637   0.456   0.231
47606W        W20031  38.704  25.624  12.527
47607W        W20032   3.942   6.228  11.852
47608W        W20033  24.743  20.164   4.736
47609W        W20034  38.937  27.710  14.921
47610W        W20035  33.828  17.044   1.021
47611W        W20036   0.328   3.481   1.004
47612W        W20037  10.267  16.498   4.843
47613W        W20038  36.006   9.778   0.789
47614W        W20039  43.698   5.317   1.205
47615W        W20040  31.482   0.814  10.768
47616W        W20041  22.201  16.789  12.367
47617W        W20042   6.387   7.878  11.148
47618W        W20043  42.939   2.239   5.021
47619W        W20044  41.649  43.731  10.007
47620W        W20045  38.023  38.863  13.306
47621W        W20046  23.640  20.956   3.480
47622W        W20047  40.960  26.704   4.206
47623W        W20048   3.298   5.007   4.118
47624W        W20049   9.700  31.949   5.105
47625W        W20050   1.243  40.815   0.826
47626W        W20051  28.134  26.440   0.062
47627W        W20052   4.279  15.797  10.649
47628W        W20053  16.126  37.952   3.672
47629W        W20054  23.858   6.399   1.416
47630W        W20055   4.446  43.772   4.592
47631W        W20056  25.286  37.900   3.747
47632W        W20057   7.175  35.348  14.280
47633W        W20058   1.032  16.879   3.541
47634W        W20059  29.911  44.998   3.597
47635W        W20060  35.288  19.540  12.473
47636W        W20061  20.806  39.931  10.618
47637W        W20062  31.178   9.147   0.276
47638W        W20063  36.340  40.930   3.657
47639W        W20064   2.780  14.385  13.370
47640W        W20065  35.154  22.587   0.562
47641W        W20066   1.722  32.430   4.089
47642W        W20067  34.346  10.927  14.092
47643W        W20068  34.340  33.009   0.735
47644W        W20069  37.495  39.066   2.197
47645W        W20070  34.970  40.593  11.117
47646W        W20071  28.667  18.040   2.268
47647W        W20072  33.949  43.884   4.675
47648W        W20073   7.629  25.982   4.306
47649W        W20074  14.532  35.574   1.981
47650W        W20075  13.432  13.736   4.548
47651W        W20076   0.777  40.640   2.597
47652W        W20077  30.154  14.547   3.807
47653W        W20078  20.540   7.795   3.453
47654W        W20079  15.598  31.593  11.146
47655W        W20080   2.427  38.994   4.716
47656W        W20081  26.042   7.080   0.772
47657W        W20082  32.358  17.384   3.315
47658W        W20083  29.078  37.870  14.674
47659W        W20084  22.595  19.027  12.203
47660W        W20085  11.579   7.661  13.511
47661W        W20086  39.950  29.401  13.382
47662W        W20087  13.772  28.366  13.878
47663W        W20088   7.851  34.321   1.008
47664W        W20089  29.994   8.605   4.409
47665W        W20090   4.901   5.457   3.470
47666W        W20091  40.693  32.409  13.079
47667W        W20092  36.091   9.183  12.458
47668W        W20093  35.423  32.648   3.740
47669W        W20094  30.636  28.932   3.610
47670W        W20095  29.138  29.491  10.681
47671W        W20096  35.924  41.099  14.053
47672W        W20097   6.447  25.421  11.987
47673W        W20098  11.604   2.441   3.203
47674W        W20099  22.094  14.199  11.054
47675W        W20100  33.029  35.872   1.698
47676W        W20101  18.344   3.326   2.456
47677W        W20102  29.902  18.591   2.229
47678W        W20103  12.052  11.215   4.514
47679W        W20104   1.719   8.663   4.537
47680W        W20105  40.587  20.650   0.927
47681W        W20106   8.350   9.258  14.387
47682W        W20107  36.686  35.575  11.021
47683W        W20108  12.170  16.276   1.903
47684W        W20109  26.400  35.959   0.579
47685W        W20110  31.369  18.993  13.798
47686W        W20111  29.722  15.720   2.570
47687W        W20112  38.021  34.559  10.928
47688W        W20113  17.230  23.704  14.352
47689W        W20114  12.304  37.305  12.983
47690W        W20115   0.943  19.444   4.144
47691W        W20116  44.503   8.073  11.952
47692W        W20117  17.671  16.154  14.149
47693W        W20118   0.373  22.789   2.611
47694W        W20119   7.401  24.582  11.180
47695W        W20120  35.899   1.328  13.933
47696W        W20121   2.401  32.525   2.617
47697W        W20122   0.961  44.532   5.080
47698W        W20123   6.178  18.320  13.041
47699W        W20124  36.035   8.748  12.720
47700W        W20125  41.343  24.707   1.350
47701W        W20126  26.353  21.663  10.727
47702W        W20127  39.067  20.110  11.096
47703W        W20128  32.260   4.300   3.662
47704W        W20129   5.356  27.981  14.983
47705W        W20130   4.442  36.633  14.070
47706W        W20131  22.156  43.103   4.246
47707W        W20132  27.910   6.783  11.499
47708W        W20133  30.629  37.642  12.386
47709W        W20134  30.982  30.715  12.625
47710W        W20135  23.035   6.814  11.465
47711W        W20136  14.726  42.349   1.881
47712W        W20137  39.988  18.565   0.915
47713W        W20138  41.971  29.078   4.771
47714W        W20139  35.618  15.091  10.702
47715W        W20140  26.428   7.764  12.815
47716W        W20141  31.173  23.183  10.635
47717W        W20142  28.659  15.798  14.884
47718W        W20143  11.542  19.453  14.372
47719W        W20144  25.341  37.915   2.792
47720W        W20145  13.697  35.828   2.200
47721W        W20146  17.684  40.469  11.531
47722W        W20147   2.284  10.893   1.363
47723W        W20148  28.144  15.914  14.936
47724W        W20149  17.261  44.492  10.582
47725W        W20150  29.715  42.950   4.555
47726W        W20151  10.741  38.832  13.244
47727W        W20152  21.771  44.015   4.757
47728W        W20153   3.030   3.673   1.735
47729W        W20154  26.065   4.901   1.052
47730W        W20155  40.095  42.075   3.714
47731W        W20156  28.574  21.337  12.534
47732W        W20157   4.262  10.077  14.430
47733W        W20158   1.122  44.356  12.502
47734W        W20159  25.744  42.498   1.870
47735W        W20160   6.803  14.848  11.584
47736W        W20161  14.832  27.659   0.365
47737W        W20162   1.271  17.147   3.182
47738W        W20163  17.663  25.397  10.403
47739W        W20164  14.479   7.429  14.740
47740W        W20165  35.478  31.022  14.697
47741W        W20166   3.338  40.827  13.374
47742W        W20167  19.202  32.425  13.894
47743W        W20168  21.059  16.776   1.984
47744W        W20169  31.712  11.696   2.609
47745W        W20170  21.078  42.881   0.884
47746W        W20171   6.870  18.511   1.842
47747W        W20172   1.945  41.589  14.038
47748W        W20173  37.540  39.607   0.348
47749W        W20174  15.710  37.024   4.878
47750W        W20175   3.884  16.608  14.002
47751W        W20176  40.050  37.096   4.644
47752W        W20177   5.339  42.517  14.443
47753W        W20178  35.525  44.875  14.941
47754W        W20179  25.640  13.076  10.698
47755W        W20180  41.778  14.716   3.214
47756W        W20181  42.278  35.876  13.455
47757W        W20182  43.025  24.483  14.959
47758W        W20183  14.376   8.632   3.128
47759W        W20184  18.115   6.500   4.774
47760W        W20185  20.690   2.101  11.645
47761W        W20186  28.646  41.519  10.742
47762W        W20187   6.796  36.512   5.094
47763W        W20188  38.404  33.981   4.588
47764W        W20189   0.638   7.516   3.235
47765W        W20190  34.474   2.996  13.477
47766W        W20191  19.301  31.772  13.080
47767W        W20192  11.191  21.071  13.496
47768W        W20193  38.317  43.274   0.734
47769W        W20194   4.326  28.873   1.004
47770W        W20195  36.900  25.786   0.813
47771W        W20196  22.023  11.177   3.737
47772W        W20197   8.880  28.933  10.390
47773W        W20198  22.588  20.346  10.886
47774W        W20199  43.283  10.614  14.203
47775W        W20200   0.491  15.698  13.077
47776W        W20201  16.685   4.683   3.718
47777W        W20202  26.431   0.967   3.585
47778W        W20203  30.965  24.647   0.883
47779W        W20204   6.293  17.473   0.780
47780W        W20205  33.921  25.980   0.914
47781W        W20206  33.449  27.123   1.893
47782W        W20207   1.401  12.111   2.720
47783W        W20208  19.193  16.204  13.442
47784W        W20209  32.133  39.885   2.781
47785W        W20210   9.661  20.099   3.228
47786W        W20211  16.119   5.020   2.815
47787W        W20212  27.219  17.108   2.627
47788W        W20213  44.798  34.577  13.726
47789W        W20214  34.798  41.129   0.714
47790W        W20215  15.750  39.500   3.502
47791W        W20216  12.575  38.411  12.071
47792W        W20217  15.139   0.988   4.382
47793W        W20218   8.189  22.248   1.147
47794W        W20219  13.194  26.586  14.926
47795W        W20220  16.693  23.533   0.473
47796W        W20221  32.948  13.370   0.748
47797W        W20222  41.941  44.121   1.248
47798W        W20223  10.773  32.031  14.925
47799W        W20224  15.777  33.741   2.219
47800W        W20225  26.510   4.920  13.758
47801W        W20226  33.587  17.720   2.808
47802W        W20227   9.677   6.229  12.459
47803W        W20228   8.283  27.924  10.861
47804W        W20229  36.053  15.050   4.360
47805W        W20230  24.178  19.965  12.016
47806W        W20231  22.046   5.906   4.113
47807W        W20232  30.904  42.533  12.963
47808W        W20233  18.036  25.664  10.709
47809W        W20234  36.360   3.182   2.180
47810W        W20235  13.190  28.963   1.334
47811W        W20236  17.898  29.530  10.728
47812W        W20237  26.508  35.337   1.448
47813W        W20238  37.997   0.455   1.331
47814W        W20239  23.644  28.557   4.586
47815W        W20240  41.256   6.394   4.726
47816W        W20241  23.210  31.515  14.923
47817W        W20242  21.659  18.337  11.740
47818W        W20243   8.179   8.499   3.735
47819W        W20244  39.522  15.828   1.054
47820W        W20245  44.467   6.478   3.280
47821W        W20246  13.708  11.792  14.507
47822W        W20247  16.779   7.137   0.783
47823W        W20248  36.990  12.321   3.802
47824W        W20249  25.039  33.061   2.839
47825W        W20250   2.503  15.790   0.006
47826W        W20251  40.789  34.859   1.959
47827W        W20252  44.726  14.289  10.675
47828W        W20253  16.300  14.091   4.556
47829W        W20254  31.440  20.805   4.251
47830W        W20255  40.981   6.807   1.310
47831W        W20256   6.377  43.277   0.772
47832W        W20257  28.529   2.801   3.170
47833W        W20258   0.873  41.107  11.945
47834W        W20259   7.847  21.866  12.227
47835W        W20260  34.888  25.906  11.980
47836W        W20261   5.785  35.394  13.335
47837W        W20262  29.117  15.996   1.774
47838W        W20263  32.988  12.655  12.904
47839W        W20264   5.384  11.278  13.393
47840W        W20265   2.419  27.593   0.254
47841W        W20266   1.886  33.145   2.909
47842W        W20267  15.592  17.898  12.513
47843W        W20268  18.113  33.783   1.438
47844W        W20269  13.723  15.722  13.936
47845W        W20270  19.630   4.923   4.088
47846W        W20271  35.030  39.982  12.527
47847W        W20272  20.141  20.701   4.472
47848W        W20273  15.109  29.501  14.245
47849W        W20274   1.898   3.324  10.760
47850W        W20275  27.251  20.407  13.481
47851W        W20276  13.788  26.642   4.749
47852W        W20277  35.468  30.072  12.093
47853W        W20278  11.141  36.492   3.014
47854W        W20279  36.151  19.902   1.417
47855W        W20280  16.325  40.562   2.268
47856W        W20281  29.244  44.452  14.548
47857W        W20282  26.114   2.580  11.640
47858W        W20283  37.428  42.849   3.722
47859W        W20284  37.121   3.226  13.907
47860W        W20285  39.414   4.430  10.815
47861W        W20286   1.973  32.856   4.268
47862W        W20287  14.746   0.197  11.645
47863W        W20288   8.385   9.844   4.514
47864W        W20289  16.832  32.050   5.469
47865W        W20290   7.301  23.064   1.811
47866W        W20291  16.693  43.014  12.429
47867W        W20292  33.933  15.650  12.945
47868W        W20293   6.180   8.713   4.122
47869W        W20294  11.609  24.607   1.719
47870W        W20295  19.514  39.402   4.477
47871W        W20296  20.224  23.170   4.570
47872W        W20297  30.981   8.624  13.026
47873W        W20298  40.031  33.067  13.153
47874W        W20299   8.130  21.617  13.727
47875W        W20300  10.147  25.107  11.210
47876W        W20301  29.380  25.074   2.535
47877W        W20302  31.363   0.383   1.220
47878W        W20303  44.886   1.077   4.242
47879W        W20304  16.706  34.593   0.195
47880W        W20305  33.821  25.602   3.267
47881W        W20306  37.425  44.295   1.852
47882W        W20307  15.085  31.974  12.017
47883W        W20308  32.628  13.669  14.250
47884W        W20309  16.780  28.397  13.769
47885W        W20310   0.108  27.120   3.968
47886W        W20311   4.905  28.944   3.690
47887W        W20312  35.063  30.332  12.626
47888W        W20313   9.771  11.653   1.622
47889W        W20314  15.178  20.584  12.535
47890W        W20315  13.244  38.338   1.700
47891W        W20316  33.599  13.288  14.372
47892W        W20317   3.399  35.717  10.041
47893W        W20318  44.551  29.171   0.891
47894W        W20319  12.649  12.254   4.214
47895W        W20320   8.343   1.711  14.272
47896W        W20321  33.358   6.381  11.520
47897W        W20322  35.919   5.408  12.833
47898W        W20323  16.069  42.128  13.085
47899W        W20324  36.412  24.568   1.797
47900W        W20325  19.431  33.062   0.669
47901W        W20326  30.379  40.995   2.379
47902W        W20327  38.899  31.460  12.519
47903W        W20328  38.994  29.380   4.138
47904W        W20329  21.352  22.545   2.594
47905W        W20330  25.586  12.193   3.379
47906W        W20331  17.373  32.193  12.229
47907W        W20332  10.661  15.858   2.230
47908W        W20333  37.020  15.998  10.476
47909W        W20334  34.860   7.861   0.801
47910W        W20335  27.962  37.899   3.708
47911W        W20336  44.423  41.705  12.550
47912W        W20337  44.522   9.856   2.887
47913W        W20338  42.965  28.773  11.672
47914W        W20339  33.885  44.763   2.410
47915W        W20340   0.364  32.846  12.805
47916W        W20341  35.602  11.776   2.330
47917W        W20342   8.441  24.096   2.295
47918W        W20343  35.606  13.072   3.716
47919W        W20344   8.308   6.894   4.760
47920W        W20345  11.357   4.883   4.329
47921W        W20346   6.333  28.146   5.097
47922W        W20347  19.599  39.817   1.516
47923W        W20348  11.329   3.928   0.732
47924W        W20349  12.949  32.112   0.873
47925W        W20350  37.310  16.198   0.205
47926W        W20351  39.335  18.850   2.240
47927W        W20352  39.450   8.632   3.196
47928W        W20353  19.747  13.249   1.441
47929W        W20354  31.121  28.900   3.222
47930W        W20355  32.773   8.321   1.489
47931W        W20356  18.481  28.493  11.139
47932W        W20357  41.606  22.307   2.107
47933W        W20358  34.003  29.589   0.004
47934W        W20359  15.809   2.353   1.393
47935W        W20360   1.365   5.268  13.089
47936W        W20361   9.707  43.718   2.241
47937W        W20362  26.450   2.215   3.876
47938W        W20363  22.087  39.566   4.726
47939W        W20364  32.696  43.914  13.472
47940W        W20365  36.478  33.649  11.554
47941W        W20366  21.209  20.015   4.146
47942W        W20367  40.258  14.502   4.817
47943W        W20368  14.144  25.626  11.885
47944W        W20369  31.616  36.493   1.899
47945W        W20370  28.015  27.036  12.325
47946W        W20371  17.734  38.288   1.993
47947W        W20372  17.326  42.247   4.361
47948W        W20373  36.336  24.097  14.540
47949W        W20374   1.186   1.617   0.385
47950W        W20375  17.702  32.615   1.712
47951W        W20376   4.824  20.505   3.355
47952W        W20377  39.077  20.482   3.690
47953W        W20378  31.465  29.461   4.808
47954W        W20379  10.926  17.539   2.742
47955W        W20380  28.541  19.246  11.613
47956W        W20381  23.175  22.382   2.717
47957W        W20382  12.147  23.850  10.667
47958W        W20383  26.948  26.097   0.023
47959W        W20384  38.912  22.476   2.234
47960W        W20385  16.253  30.218   2.614
47961W        W20386  36.167  14.696  11.197
47962W        W20387  34.166   9.117  11.560
47963W        W20388  26.723   0.441   4.746
47964W        W20389  35.105  34.596  14.772
47965W        W20390  32.487   1.188  14.940
47966W        W20391  41.390  19.981   3.457
47967W        W20392  41.604   7.668   2.734
47968W        W20393  22.440  19.872  11.634
47969W        W20394  23.044   6.860  10.947
47970W        W20395   5.339  34.153  14.365
47971W        W20396   6.886   8.333  14.583
47972W        W20397  39.957  41.892   5.013
47973W        W20398  33.485   2.417   0.660
47974W        W20399  23.198  19.320   1.894
47975W        W20400   4.410  14.103  12.054
47976W        W20401  10.681  17.007  14.030
47977W        W20402  23.803   5.704   0.888
47978W        W20403  16.788  31.639  11.153
47979W        W20404  40.799  13.603  13.327
47980W        W20405  18.474  12.504   3.560
47981W        W20406   8.738  30.210   3.743
47982W        W20407  24.474  24.590  11.654
47983W        W20408  32.655   1.617  11.168
47984W        W20409  21.290  32.549   1.794
47985W        W20410  29.984  35.537  13.927
47986W        W20411  44.007  19.273  10.586
47987W        W20412  42.248  27.478  12.171
47988W        W20413  43.434  27.697  10.559
47989W        W20414   2.272  37.509   0.997
47990W        W20415   7.858   1.820   2.747
47991W        W20416  30.696  22.104  14.401
47992W        W20417  33.309  40.499  11.206
47993W        W20418  36.551  11.833   4.935
47994W        W20419  15.896  44.867  12.499
47995W        W20420  18.545  17.283   0.451
47996W        W20421  15.290   7.648  13.387
47997W        W20422  13.951   4.336  10.938
47998W        W20423  38.545  33.414   3.443
47999W        W20424  31.684  26.649   0.707
48000W        W20425  31.692   5.536  13.124
48001W        W20426  30.818  18.640  11.019
48002W        W20427   1.641  21.712  11.883
48003W        W20428  21.516  44.739  11.193
48004W        W20429   6.495  20.510   0.243
48005W        W20430  15.323  19.957  11.054
48006W        W20431  21.623   1.109   4.943
48007W        W20432   7.140  23.115   3.102
48008W        W20433  18.025   3.977   1.422
48009W        W20434   2.462  15.652  10.158
48010W        W20435  37.104  23.654  13.642
48011W        W20436  27.409   4.812  10.479
48012W        W20437  27.112  32.889   2.824
48013W        W20438  31.871  15.326  11.091
48014W        W20439  22.320   3.510   1.885
48015W        W20440  21.052   6.014  12.159
48016W        W20441   2.819  13.145  10.634
48017W        W20442   7.889   0.366   2.803
48018W        W20443   8.702  37.491  12.248
48019W        W20444  39.752  24.335  11.167
48020W        W20445  31.889  16.164  14.031
48021W        W20446  26.633  18.761  11.939
48022W        W20447  18.729  15.343  10.534
48023W        W20448  11.659  29.894  10.965
48024W        W20449  42.310  14.284  14.897
48025W        W20450  27.484  16.933   0.513
48026W        W20451  22.611  35.806  11.939
48027W        W20452  13.595  42.086   1.446
48028W        W20453  10.106   4.773  10.257
48029W        W20454  31.027  36.616  13.520
48030W        W20455  11.932  33.100   4.343
48031W        W20456  31.781  32.711   4.174
48032W        W20457  33.354   7.456   1.883
48033W        W20458  15.398  23.151  11.891
48034W        W20459   1.331   1.869   2.440
48035W        W20460  20.113   7.304  12.007
48036W        W20461  15.824  12.421   1.890
48037W        W20462   7.952  15.896  13.387
48038W        W20463  29.196   6.389  11.832
48039W        W20464  13.112  44.506   1.314
48040W        W20465   9.782  19.584   3.388
48041W        W20466  27.139  16.463   3.412
48042W        W20467   5.534  17.056  10.339
48043W        W20468  32.278  33.461   9.846
48044W        W20469   1.065  19.087  10.628
48045W        W20470  23.121  28.380  11.903
48046W        W20471  26.787  21.093   0.511
48047W        W20472  15.775  36.382   2.961
48048W        W20473  31.883  23.761  13.057
48049W        W20474  26.674  13.693  12.991
48050W        W20475  35.102   3.356   0.701
48051W        W20476  19.224  31.799  11.340
48052W        W20477  28.950  33.946   3.169
48053W        W20478   9.182   6.923   3.682
48054W        W20479  44.082  18.025   2.396
48055W        W20480  24.959  37.449  13.767
48056W        W20481  32.375  25.035   0.230
48057W        W20482   5.209  20.776  11.000
48058W        W20483  42.414   4.917   3.322
48059W        W20484  19.706  39.367   3.535
48060W        W20485  43.010  38.437   4.576
48061W        W20486  23.131  26.729  10.822
48062W        W20487  42.961  23.121   2.960
48063W        W20488  39.559   8.230   4.179
48064W        W20489   6.649  35.313  14.329
48065W        W20490   2.788  17.287   4.917
48066W        W20491  41.495  29.456  12.608
48067W        W20492  24.206  22.204   0.974
48068W        W20493  21.443  19.068  12.490
48069W        W20494  27.548   8.979   4.594
48070W        W20495   4.804  36.023   4.975
48071W        W20496   8.354  19.221   2.630
48072W        W20497  22.478   1.475  13.510
48073W        W20498  32.463  11.568   0.480
48074W        W20499  33.507  14.364   4.978
48075W        W20500  10.596  31.580  12.391
48076W        W20501  19.488  44.954  11.848
48077W        W20502   7.284  20.237   4.678
48078W        W20503   6.200  36.377   0.310
48079W        W20504  34.047  19.589  11.658
48080W        W20505  18.250   5.228   0.030
48081W        W20506  13.580   4.375   3.704
48082W        W20507  31.082  17.801  12.301
48083W        W20508  32.338  14.927   0.946
48084W        W20509  36.324  29.873  10.764
48085W        W20510  42.877  37.541   1.460
48086W        W20511  43.472  29.085   1.912
48087W        W20512  44.187  15.851  10.109
48088W        W20513  29.690  28.636   2.846
48089W        W20514   4.341  18.115   3.672
48090W        W20515  40.452   0.686  13.347
48091W        W20516  39.486  17.566  14.034
48092W        W20517  32.632   7.694  11.091
48093W        W20518   8.515  14.257   0.629
48094W        W20519  21.868  30.542  12.389
48095W        W20520  42.733  29.554  11.255
48096W        W20521  26.135  26.563   4.358
48097W        W20522  38.022  22.552  11.191
48098W        W20523   8.835  15.900  14.569
48099W        W20524  24.208   8.410   3.669
48100W        W20525  32.377   5.787   1.268
48101W        W20526  34.867  34.390  11.962
48102W        W20527  44.391  35.192   3.281
48103W        W20528   1.224  36.535   4.421
48104W        W20529   6.903   9.234  11.332
48105W        W20530  33.671  39.797   4.100
48106W        W20531  21.579  38.133  14.589
48107W        W20532   8.425  34.700  13.365
48108W        W20533   8.819  17.701   4.576
48109W        W20534  39.375  10.218   0.334
48110W        W20535  17.471  10.303  10.889
48111W        W20536  40.799  28.223  12.454
48112W        W20537  10.283  27.466   1.777
48113W        W20538  36.018  16.653  13.039
48114W        W20539  26.709  37.485   2.935
48115W        W20540  23.696  22.195  14.685
48116W        W20541   3.274  14.787  11.641
48117W        W20542   5.758  38.231  10.722
48118W        W20543  40.229  40.158   4.145
48119W        W20544  29.048  13.080   3.251
48120W        W20545  37.875  10.843  14.894
48121W        W20546   7.483  24.023  13.809
48122W        W20547   5.299  26.253   3.944
48123W        W20548  16.040  43.575   1.506
48124W        W20549   9.713  32.373   0.295
48125W        W20550  20.732  26.686   3.895
48126W        W20551  19.793  31.216   4.687
48127W        W20552   2.801   1.370   4.230
48128W        W20553  32.150   6.452   5.226
48129W        W20554  21.267  33.108  13.122
48130W        W20555  31.939  17.021  10.697
48131W        W20556  43.927   3.050  10.597
48132W        W20557  14.104  22.162  11.640
48133W        W20558  31.430  11.435  10.655
48134W        W20559  18.992   4.324  13.208
48135W        W20560  28.920   7.277  14.122
48136W        W20561   6.701  14.113  14.324
48137W        W20562  20.310  29.010   0.425
48138W        W20563   1.870  26.835  13.090
48139W        W20564  39.229  39.780   2.572
48140W        W20565  39.066  37.269   0.506
48141W        W20566  23.411  28.428   0.108
48142W        W20567  42.356  15.417   2.877
48143W        W20568   3.730   7.856   2.902
48144W        W20569  41.568  10.710  10.581
48145W        W20570  27.610  22.481   0.715
48146W        W20571   1.417  10.585   0.768
48147W        W20572  13.692  21.401  10.319
48148W        W20573  37.505   7.382  11.069
48149W        W20574  36.406   0.609  13.500
48150W        W20575  22.896  38.909   1.743
48151W        W20576  17.491   4.787   0.281
48152W        W20577  10.207  16.432  11.171
48153W        W20578  18.823  37.877   2.915
48154W        W20579  12.641   0.610  13.183
48155W        W20580  28.067   7.411   2.295
48156W        W20581   9.476  12.349   1.763
48157W        W20582  14.681  44.253   0.220
48158W        W20583   7.106  41.926   1.805
48159W        W20584  25.347  39.795   0.032
48160W        W20585  22.668  44.235   3.707
48161W        W20586  36.860  20.314   0.721
48162W        W20587  30.609   8.747   3.304
48163W        W20588  15.739  11.499  11.974
48164W        W20589  21.023  36.911  12.675
48165W        W20590   0.379  30.043  12.190
48166W        W20591  40.753   9.730   3.750
48167W        W20592  21.779  39.865  13.123
48168W        W20593  17.191  33.776  10.830
48169W        W20594  15.631   6.499   0.829
48170W        W20595  33.952  26.523  12.287
48171W        W20596  15.050  38.095   2.831
48172W        W20597  12.652  18.605   1.733
48173W        W20598  16.773  14.365  13.928
48174W        W20599  23.020   1.529  11.936
48175W        W20600  29.411  24.665  13.386
48176W        W20601  28.983   0.370   3.267
48177W        W20602  44.150  18.183   4.654
48178W        W20603  42.737  40.398   2.817
48179W        W20604  26.630  38.379  10.119
48180W        W20605   3.996  21.697   3.183
48181W        W20606  12.710  44.057  14.181
48182W        W20607  31.023  39.407  11.383
48183W        W20608  15.048   2.761   4.303
48184W        W20609   3.216  33.732   2.069
48185W        W20610  18.291   7.912   0.187
48186W        W20611  10.552  33.512   4.178
48187W        W20612  11.304  44.441  13.406
48188W        W20613   5.576   4.889  12.974
48189W        W20614   9.396  36.911   0.333
48190W        W20615   1.340  42.278  12.476
48191W        W20616   1.814  33.091  11.391
48192W        W20617  35.517   5.738  12.502
48193W        W20618  21.481   5.837  12.414
48194W        W20619  26.125  30.728   4.719
48195W        W20620  15.135  37.814   3.696
48196W        W20621   7.262  41.845  12.952
48197W        W20622  41.571   8.438   0.430
48198W        W20623  24.651  20.174  14.272
48199W        W20624  27.069  19.204  14.941
48200W        W20625  38.274  31.880  14.031
48201W        W20626  33.080   8.108  11.204
48202W        W20627  27.700  29.899  10.002
48203W        W20628  34.578  18.779   1.832
48204W        W20629  14.848   3.323   4.985
48205W        W20630  35.992  34.512  10.705
48206W        W20631  21.987  40.546   3.297
48207W        W20632   7.587  11.377   3.900
48208W        W20633  23.766  30.596   4.169
48209W        W20634   0.416  22.617   0.401
48210W        W20635  42.584   9.153  11.522
48211W        W20636  25.511  38.417   3.804
48212W        W20637  16.570  29.335   2.384
48213W        W20638  18.887  31.466  14.020
48214W        W20639  18.037  13.101  10.428
48215W        W20640   3.255   9.629  13.260
48216W        W20641  13.398  26.785  13.165
48217W        W20642  20.751   6.938  14.400
48218W        W20643  35.905  33.360  11.143
48219W        W20644   8.166  29.081   4.154
48220W        W20645   2.920  19.681  10.626
48221W        W20646   1.735   6.735  14.945
48222W        W20647  32.927  34.603   4.247
48223W        W20648  22.999  36.955  14.768
48224W        W20649  18.816   6.154   4.545
48225W        W20650  31.935   8.915  13.852
48226W        W20651   8.926  37.593   1.940
48227W        W20652  32.114  18.042   1.658
48228W        W20653  27.954  41.522  12.966
48229W        W20654   4.397   0.968   2.306
48230W        W20655  16.813  20.198  14.746
48231W        W20656   2.737   1.978  11.177
48232W        W20657  34.647  13.110  10.690
48233W        W20658  28.234   9.942   2.358
48234W        W20659  44.532   6.794   2.124
48235W        W20660  25.694  28.073  10.668
48236W        W20661   2.955   9.561  11.597
48237W        W20662  27.887   5.450   4.489
48238W        W20663  34.830  37.439   4.198
48239W        W20664  21.725   1.765   2.820
48240W        W20665  12.757   1.346  14.353
48241W        W20666  30.588  10.122   2.811
48242W        W20667  30.153   9.629   1.816
48243W        W20668  44.953  25.001  14.931
48244W        W20669  30.463  12.381   4.038
48245W        W20670   7.051  38.427  10.409
48246W        W20671   0.901  13.546  11.523
48247W        W20672  28.140  31.655  14.786
48248W        W20673  17.135  38.606  11.098
48249W        W20674  30.938  26.143   0.864
48250W        W20675  16.278  21.756   2.733
48251W        W20676  31.911   7.078  11.532
48252W        W20677  26.573  38.832  10.938
48253W        W20678  11.684  23.995  10.546
48254W        W20679  40.873   2.828   2.405
48255W        W20680  11.653  16.647   3.253
48256W        W20681  27.916  31.066   4.197
48257W        W20682  26.553  38.364  10.637
48258W        W20683   5.888  18.228  14.934
48259W        W20684  37.514   1.764   4.026
48260W        W20685  12.904  16.207  11.101
48261W        W20686  12.837  12.706   4.860
48262W        W20687  41.381  16.808   1.002
48263W        W20688  38.581   3.892  11.391
48264W        W20689  35.082   1.040  11.798
48265W        W20690  43.423  15.807  13.186
48266W        W20691  26.938  21.708   2.711
48267W        W20692  25.687  33.318  10.033
48268W        W20693  21.984  31.892  14.469
48269W        W20694  14.353  41.055  14.774
48270W        W20695  23.668  21.747  11.183
48271W        W20696  34.170  16.091   3.865
48272W        W20697   7.987  36.929   2.753
48273W        W20698  15.987  29.555  13.918
48274W        W20699  21.389   4.613   2.384
48275W        W20700  33.555  17.740  14.470
48276W        W20701   7.345  38.654   0.321
48277W        W20702  28.628  15.200  10.701
48278W        W20703  39.164   6.840   0.936
48279W        W20704  24.124  31.803  11.085
48280W        W20705  26.046  27.565  11.717
48281W        W20706  27.990  33.700   1.069
48282W        W20707   9.172   5.333   3.168
48283W        W20708  24.369  30.890  14.342
48284W        W20709  21.516  17.207  13.407
48285W        W20710  19.193  35.468  13.845
48286W        W20711  35.690  10.299  13.937
48287W        W20712  35.993  25.013  10.966
48288W        W20713   4.719   5.138  14.332
48289W        W20714   1.162  43.556   4.139
48290W        W20715  19.769  25.288   1.108
48291W        W20716  27.937   8.683   4.101
48292W        W20717  26.396  29.683  11.080
48293W        W20718   0.909  14.585  11.605
48294W        W20719  36.004  39.013  10.688
48295W        W20720  26.953  14.038   1.861
48296W        W20721   1.093  38.873   2.269
48297W        W20722  19.132  10.202   0.010
48298W        W20723   7.768   6.225  11.388
48299W        W20724  42.224   2.472  13.296
48300W        W20725   2.302  22.830   1.104
48301W        W20726  11.128  41.394   4.891
48302W        W20727  26.756  20.485  13.879
48303W        W20728  11.852  30.511   5.146
48304W        W20729  28.077  31.976   3.845
48305W        W20730   9.742  21.254  11.928
48306W        W20731  27.914   7.186   4.260
48307W        W20732   6.912   6.662  12.443
48308W        W20733  40.625  39.321   1.760
48309W        W20734  17.563  26.133  14.261
48310W        W20735  22.314  20.220  12.922
48311W        W20736  33.696   8.497  13.520
48312W        W20737  32.180  25.584  11.500
48313W        W20738  12.828  28.676   4.620
48314W        W20739  25.047  28.522  13.090
48315W        W20740  15.318  31.412  14.787
48316W        W20741  44.291  18.134  13.725
48317W        W20742  37.768  22.144  11.432
48318W        W20743  15.016  29.406   3.939
48319W        W20744  12.328   3.919   0.474
48320W        W20745   6.656  20.258  13.955
48321W        W20746   2.519  12.590  12.885
48322W        W20747  13.386  38.117  11.890
48323W        W20748  19.129  34.645  14.216
48324W        W20749  44.316  32.674   4.552
48325W        W20750  28.848  25.946   0.023
48326W        W20751  27.961  37.008  13.924
48327W        W20752   4.825  30.362  12.062
48328W        W20753   6.309  30.604   4.103
48329W        W20754  41.402   5.514  11.429
48330W        W20755  10.864  40.035   1.005
48331W        W20756  36.078  24.284   3.742
48332W        W20757  44.738  10.696   3.823
48333W        W20758  19.562  17.574   4.284
48334W        W20759   3.452  17.459  12.626
48335W        W20760  32.238  37.204   0.950
48336W        W20761  18.261  19.627   2.833
48337W        W20762  32.813   5.911   2.403
48338W        W20763   9.341   9.110  14.501
48339W        W20764   8.217  19.224  14.831
48340W        W20765  27.060  25.531  13.864
48341W        W20766  14.144  41.242  12.333
48342W        W20767  40.369  39.300   4.142
48343W        W20768  35.605  37.928   3.316
48344W        W20769   3.214   0.604  13.594
48345W        W20770  16.712   2.250   0.311
48346W        W20771   2.963  11.747  11.416
48347W        W20772   2.570   5.849   1.375
48348W        W20773  19.242  39.428   1.630
48349W        W20774  25.997  30.974  13.435
48350W        W20775  24.143  40.194   2.906
48351W        W20776  11.134  35.191  11.070
48352W        W20777   8.355  40.356  12.463
48353W        W20778  33.065  16.449  10.083
48354W        W20779  30.499   5.879  13.991
48355W        W20780  29.634  21.062  11.098
48356W        W20781   3.734  19.351  12.047
48357W        W20782  17.751  24.437  14.733
48358W        W20783  22.003  28.101   4.145
48359W        W20784   5.442  17.866   2.900
48360W        W20785  32.303  25.090   3.770
48361W        W20786  19.610  21.264  12.285
48362W        W20787   3.461  36.068   3.685
48363W        W20788  44.018  30.580   0.702
48364W        W20789  38.298  13.802   1.036
48365W        W20790  37.648   4.457  13.486
48366W        W20791   7.037  36.869   0.965
48367W        W20792  40.018   4.129   4.778
48368W        W20793  13.533  34.995   1.272
48369W        W20794  14.926   0.267   0.411
48370W        W20795   9.172  26.066   3.161
48371W        W20796  16.789   6.352   0.428
48372W        W20797  39.242  23.928  13.365
48373W        W20798  27.451   4.443   2.257
48374W        W20799   3.245  12.676   4.595
48375W        W20800  30.915  28.095  12.472
48376W        W20801  34.472  22.960  11.141
48377W        W20802  26.254  22.689   1.380
48378W        W20803  42.798  17.176   4.960
48379W        W20804  25.415  37.188  13.828
48380W        W20805   4.049  32.032   2.674
48381W        W20806  25.667  28.638   0.892
48382W        W20807  41.471  12.762  13.906
48383W        W20808   6.340  31.995  12.486
48384W        W20809  41.903  31.434   3.080
48385W        W20810   7.095  22.465  11.218
48386W        W20811  34.119   9.827  13.062
48387W        W20812  15.369   6.413   4.171
48388W        W20813  37.858  21.698  14.418
48389W        W20814  33.509  41.212  11.625
48390W        W20815  27.607  12.731   0.399
48391W        W20816  34.665  23.715  12.106
48392W        W20817  33.444  20.872   3.409
48393W        W20818  17.093   4.925   3.927
48394W        W20819  21.060  39.097   1.345
48395W        W20820  13.706  31.139   0.299
48396W        W20821  25.213   4.787   2.316
48397W        W20822  21.705  13.879  10.993
48398W        W20823  11.843  38.903   3.724
48399W        W20824  13.142   7.642   3.735
48400W        W20825  24.276  17.985  12.918
48401W        W20826  31.171   4.534  13.101
48402W        W20827  35.006  28.464  14.299
48403W        W20828  26.183  35.370  12.344
48404W        W20829  11.119  16.290  14.078
48405W        W20830  14.762  39.805  12.179
48406W        W20831  11.592  22.157  10.410
48407W        W20832  43.467  31.796  11.537
48408W        W20833  44.477  15.845   2.372
48409W        W20834  41.964  17.085  12.025
48410W        W20835   8.879  19.628  12.159
48411W        W20836  24.958   8.958   1.800
48412W        W20837  29.921  19.297  11.603
48413W        W20838  11.307   8.943   2.514
48414W        W20839  43.843   6.168   2.416
48415W        W20840   8.009  43.706   2.793
48416W        W20841  21.562  24.331   3.226
48417W        W20842   3.404   3.542  11.110
48418W        W20843  22.326   2.442   0.827
48419W        W20844  10.188  44.724  13.935
48420W        W20845   8.670  16.015  12.655
48421W        W20846   4.825  16.597   1.840
48422W        W20847   8.252  30.131   3.550
48423W        W20848  15.553  16.631   2.845
48424W        W20849   4.269  25.211  12.984
48425W        W20850   8.863  39.425  13.862
48426W        W20851  12.744  19.542  13.785
48427W        W20852   8.876  11.254  13.384
48428W        W20853   5.689   3.068   1.739
48429W        W20854  21.551  19.600  11.639
48430W        W20855   4.580  22.491  14.324
48431W        W20856  29.582  32.851   0.184
48432W        W20857  10.227  35.337   0.431
48433W        W20858  19.851  17.834   1.560
48434W        W20859  23.660  20.779  13.325
48435W        W20860  37.382  18.544  13.415
48436W        W20861   6.262  28.900   3.654
48437W        W20862   2.437  42.468  13.271
48438W        W20863  18.007  13.558  12.888
48439W        W20864  43.781  43.457  13.071
48440W        W20865  39.314  39.918   3.179
48441W        W20866   6.644  16.163   1.454
48442W        W20867  39.130  11.242  12.199
48443W        W20868  14.410   8.269  14.331
48444W        W20869  22.143  25.279   0.320
48445W        W20870  36.992   3.648   2.726
48446W        W20871  22.993  34.327  12.046
48447W        W20872   8.852  11.587  13.822
48448W        W20873  20.374  32.066   3.308
48449W        W20874  20.858  31.617   4.916
48450W        W20875  22.134  28.994  13.250
48451W        W20876   8.309  42.641   4.992
48452W        W20877  22.110  11.883   5.216
48453W        W20878  44.578  39.892  14.427
48454W        W20879  16.540  16.121   4.375
48455W        W20880   0.696  14.285   3.147
48456W        W20881  23.146   6.894   4.828
48457W        W20882  35.903  16.245   3.790
48458W        W20883  36.857  19.685  10.811
48459W        W20884  26.027  18.224  11.448
48460W        W20885  44.466  25.147  13.231
48461W        W20886  31.590   2.366  14.018
48462W        W20887   9.629  28.396  10.749
48463W        W20888  43.457  18.653   2.407
48464W        W20889   5.960  42.579  12.894
48465W        W20890  43.994  22.466  11.924
48466W        W20891   6.258  32.596   1.036
48467W        W20892   1.951  37.517   0.587
48468W        W20893  23.672  15.141  12.030
48469W        W20894  18.211  11.867   1.464
48470W        W20895  15.179  33.944  12.483
48471W        W20896  19.723   6.286  11.582
48472W        W20897  33.887  44.855  10.758
48473W        W20898  22.046  12.967   3.448
48474W        W20899   9.478  39.833   2.371
48475W        W20900   0.532  19.084  10.686
48476W        W20901  31.559  28.653   3.051
48477W        W20902  34.089   3.618   2.454
48478W        W20903  34.992  35.373  12.070
48479W        W20904  44.412  38.279   4.134
48480W        W20905  32.880  10.858  11.205
48481W        W20906  40.523  20.483   1.818
48482W        W20907  24.609  29.512   0.844
48483W        W20908   6.421  28.468   3.867
48484W        W20909  34.272  40.921   3.679
48485W        W20910  23.042   7.850   2.751
48486W        W20911  24.140   4.006  11.907
48487W        W20912  28.711  21.796  14.467
48488W        W20913  30.545   5.817  12.581
48489W        W20914  41.385  18.686   3.098
48490W        W20915  31.944  16.327   2.363
48491W        W20916  29.923  24.851   2.918
48492W        W20917  26.712  30.035  10.872
48493W        W20918  24.182  13.770  10.881
48494W        W20919  25.260   1.851  13.845
48495W        W20920   9.755  26.316   1.673
48496W        W20921  10.146  13.436   3.616
48497W        W20922  36.988  14.886   0.842
48498W        W20923  21.423   4.462   2.890
48499W        W20924  10.352   6.873   0.220
48500W        W20925  18.059  12.620   2.178
48501W        W20926  25.586  20.089  12.280
48502W        W20927  19.901  19.140  14.329
48503W        W20928  28.539   2.987   0.650
48504W        W20929  31.958   3.772   0.259
48505W        W20930   4.312  10.744  11.959
48506W        W20931   7.663  24.461   1.178
48507W        W20932  16.554  12.988   1.896
48508W        W20933  15.025  25.152   2.536
48509W        W20934  32.591  11.483  14.829
48510W        W20935   5.410  26.572   5.173
48511W        W20936  21.643  14.542  13.489
48512W        W20937  42.078  39.321   1.072
48513W        W20938  14.739  24.614   1.781
48514W        W20939  19.344  25.778   2.846
48515W        W20940  26.118  35.941  10.473
48516W        W20941   7.988  32.651   1.888
48517W        W20942  21.355  22.090  12.082
48518W        W20943  30.815  10.130  14.414
48519W        W20944  16.546   1.461  14.899
48520W        W20945  22.615  34.060  12.284
48521W        W20946  22.389  35.535  11.559
48522W        W20947  37.797  42.181  12.921
48523W        W20948  40.332  19.718  11.597
48524W        W20949  29.158  14.831  14.102
48525W        W20950  26.599  39.390   1.959
48526W        W20951  21.994  19.644  11.942
48527W        W20952  29.350  30.287  11.989
48528W        W20953  39.433   3.400  10.841
48529W        W20954   4.974  12.306   1.322
48530W        W20955  33.815  10.219  12.960
48531W        W20956  36.111  39.525   1.668
48532W        W20957  14.264  12.130  14.885
48533W        W20958  33.484  24.176   2.316
48534W        W20959  21.606  15.687   0.019
48535W        W20960   8.883   0.566   3.759
48536W        W20961  31.006   3.051  13.001
48537W        W20962  15.279   7.608  11.080
48538W        W20963  31.655  33.348  10.985
48539W        W20964  39.939  17.636  13.304
48540W        W20965  39.308   9.257   0.303
48541W        W20966   9.977  40.687  14.259
48542W        W20967  11.811  44.027  11.495
48543W        W20968   5.604   1.339  11.597
48544W        W20969  42.293  30.037   4.368
48545W        W20970   1.211  20.829   5.222
48546W        W20971  34.042  28.219   1.265
48547W        W20972   7.274  33.153  11.035
48548W        W20973   0.916  42.339   2.164
48549W        W20974  40.477  16.754  11.658
48550W        W20975  14.665  12.322  12.526
48551W        W20976  19.251   6.378   4.373
48552W        W20977  11.880  33.391   5.160
48553W        W20978  30.866   7.855   1.879
48554W        W20979  11.760  36.324   3.766
48555W        W20980  30.055  32.013  11.263
48556W        W20981  41.988   0.287  14.802
48557W        W20982  36.620  27.694   1.667
48558W        W20983  30.821  25.052   2.817
48559W        W20984  19.344  23.037  12.020
48560W        W20985  22.865   5.219   1.336
48561W        W20986   5.453  41.102  12.401
48562W        W20987  20.029   8.358  13.080
48563W        W20988   5.486   5.126  12.073
48564W        W20989   7.703  14.574  11.497
48565W        W20990  43.114  23.411   2.168
48566W        W20991  17.241   0.772  10.152
48567W        W20992  17.616   0.016  10.393
48568W        W20993  25.693   6.739   2.469
48569W        W20994  10.280  14.358  13.815
48570W        W20995   6.262   6.903   3.468
48571W        W20996  17.906  15.603   3.168
48572W        W20997  40.262  10.100  14.938
48573W        W20998  30.402  39.631  11.178
48574W        W20999  38.919  34.690  13.986
48575W        W21000  44.822   1.841   3.817
48576W        W21001  21.306  12.817  13.815
48577W        W21002  15.793  38.092  12.425
48578W        W21003   1.237  14.083   0.884
48579W        W21004  15.632  22.917   4.876
48580W        W21005  11.175  16.787  10.521
48581W        W21006  31.365  44.332   1.227
48582W        W21007  10.851   7.889  11.665
48583W        W21008  38.903   7.577  10.726
48584W        W21009  20.318  39.820  14.970
48585W        W21010   2.397  33.147  12.523
48586W        W21011  36.143  44.796   3.248
48587W        W21012   4.342  26.611   4.875
48588W        W21013  15.593   6.082  14.915
48589W        W21014  14.047  14.749  11.584
48590W        W21015  30.472  38.486  14.640
48591W        W21016  43.796  43.941   1.932
48592W        W21017  19.197  28.937   1.216
48593W        W21018  42.473  33.635  13.996
48594W        W21019  13.342  10.901  11.953
48595W        W21020  28.442  10.850   4.443
48596W        W21021  19.608  35.096   4.089
48597W        W21022  20.290  26.601  12.679
48598W        W21023  16.609  19.116  11.616
48599W        W21024  42.893  37.892  12.519
48600W        W21025   6.582  21.506   2.327
48601W        W21026  31.008  44.964   1.685
48602W        W21027  28.394   4.400   0.759
48603W        W21028  33.118  28.564   4.665
48604W        W21029  12.939  19.848  11.529
48605W        W21030  31.937  14.822   4.329
48606W        W21031  36.221   6.355  14.879
48607W        W21032  15.499  26.617   0.594
48608W        W21033  18.265   7.292   3.347
48609W        W21034  41.661   0.633  14.588
48610W        W21035  29.124   1.743   0.697
48611W        W21036  27.627  33.904  10.185
48612W        W21037  21.220   3.163  13.544
48613W        W21038  25.467  39.876   0.539
48614W        W21039  23.998   5.074  10.589
48615W        W21040   7.456  21.644   2.004
48616W        W21041  18.561  22.237   3.228
48617W        W21042  29.690  31.636   1.464
48618W        W21043  44.464   5.597   0.781
48619W        W21044   4.646  20.052   1.357
48620W        W21045  36.468  38.098  12.187
48621W        W21046  24.776  33.463  13.250
48622W        W21047  25.233  21.643   1.865
48623W        W21048   3.007  19.892  13.408
48624W        W21049  40.408   4.665  12.533
48625W        W21050  13.287  39.515   4.616
48626W        W21051  15.079  30.553  14.442
48627W        W21052  23.971   5.908   2.619
48628W        W21053  37.617   5.444  11.130
48629W        W21054  24.667   5.371  12.078
48630W        W21055  43.418  29.130  11.017
48631W        W21056   3.777   0.912   0.897
48632W        W21057  27.891   0.269  11.102
48633W        W21058  24.267  29.156  11.821
48634W        W21059  37.317  19.074  13.365
48635W        W21060  44.480  18.766  12.914
48636W        W21061  20.030   6.211  11.012
48637W        W21062  21.471  29.424   0.871
48638W        W21063  33.628   5.893  11.417
48639W        W21064  27.645  10.120  14.003
48640W        W21065  19.555  22.311   4.278
48641W        W21066  44.938   9.327   0.751
48642W        W21067   4.315  26.865   4.172
48643W        W21068   9.184  29.611   0.124
48644W        W21069   0.445  44.976  12.947
48645W        W21070   9.265  13.270   4.178
48646W        W21071  27.517  42.855  10.677
48647W        W21072  27.007  42.507   4.575
48648W        W21073  14.866  15.171   0.680
48649W        W21074  40.851  35.391  14.548
48650W        W21075  19.003  30.456   2.362
48651W        W21076  25.687  25.661   1.772
48652W        W21077   4.885  35.259  13.448
48653W        W21078  25.730  30.500  13.487
48654W        W21079  16.629  38.750  12.540
48655W        W21080  15.886  30.940   0.351
48656W        W21081  12.642  30.672  13.179
48657W        W21082   2.940  44.594  13.875
48658W        W21083   4.655  40.947  12.183
48659W        W21084  17.183  31.675   4.965
48660W        W21085  38.099  19.474   2.307
48661W        W21086  20.231  41.094  11.959
48662W        W21087   2.152  27.233   4.025
48663W        W21088  42.801  31.629  13.458
48664W        W21089  13.322   5.615  13.278
48665W        W21090   0.265  24.813   4.879
48666W        W21091   9.717  14.892   3.690
48667W        W21092  44.521  11.596   1.626
48668W        W21093  42.086  19.139  14.475
48669W        W21094  20.496  17.067   1.362
48670W        W21095  16.336   5.982  12.340
48671W        W21096  10.622   5.723  13.502
48672W        W21097  10.862   8.450   5.162
48673W        W21098   1.034   9.768   2.830
48674W        W21099  13.348  44.034  11.166
48675W        W21100  40.795  36.483   4.766
48676W        W21101  27.982  26.696   3.092
48677W        W21102  27.118  33.534  14.431
48678W        W21103   0.953   4.978   4.553
48679W        W21104  15.905  19.095  11.115
48680W        W21105  21.375   0.514  11.059
48681W        W21106  17.324  32.095   1.432
48682W        W21107   4.883   3.660   2.811
48683W        W21108  44.197  31.656  13.414
48684W        W21109  12.629   5.130   3.238
48685W        W21110  21.044  39.623   4.284
48686W        W21111  33.534  43.461   3.769
48687W        W21112  25.642  42.021   0.364
48688W        W21113  23.701  16.152  10.556
48689W        W21114  44.953   9.843  13.777
48690W        W21115  39.531  13.864   0.058
48691W        W21116  43.940   5.279   3.829
48692W        W21117  19.089  11.417  13.830
48693W        W21118  40.854  36.574   1.304
48694W        W21119  18.724  43.977   0.716
48695W        W21120  27.126  41.537   2.216
48696W        W21121  11.262  12.874   2.296
48697W        W21122  10.585  23.823  14.221
48698W        W21123   8.647  19.749   3.964
48699W        W21124  31.145  26.531  11.436
48700W        W21125  38.899  11.586  10.631
48701W        W21126  30.953  35.608  11.953
48702W        W21127  41.605  29.535   4.038
48703W        W21128   0.781  19.877   2.251
48704W        W21129  18.191   5.924   2.222
48705W        W21130   2.354  17.777   1.127
48706W        W21131  30.539  22.604   0.324
48707W        W21132  19.328  25.105   2.372
48708W        W21133  24.595  42.026  10.514
48709W        W21134  13.166  15.887  10.817
48710W        W21135  21.323   8.599   5.143
48711W        W21136  21.977  26.838   0.191
48712W        W21137   0.440   8.409   3.740
48713W        W21138   0.587  39.370  13.972
48714W        W21139  41.581  37.325  12.508
48715W        W21140  38.971  15.313   0.231
48716W        W21141  41.532   2.356   4.617
48717W        W21142  16.553  17.342   0.480
48718W        W21143  10.899  23.873  10.102
48719W        W21144  44.302   0.532   0.452
48720W        W21145   9.563  24.114  11.175
48721W        W21146  18.880  34.859   3.157
48722W        W21147  10.205  12.055   4.554
48723W        W21148  31.403  33.380   2.759
48724W        W21149  20.745  23.997   1.004
48725W        W21150  23.279   0.642  11.335
48726W        W21151  29.994  14.822  10.715
48727W        W21152  27.482  27.716  13.436
48728W        W21153  26.428   3.388   5.094
48729W        W21154  43.504  34.677   3.231
48730W        W21155  20.510  11.946   0.482
48731W        W21156  21.576  35.129   4.620
48732W        W21157  41.918   3.219   3.543
48733W        W21158  42.571  33.059   2.342
48734W        W21159  32.947  42.032   3.852
48735W        W21160  35.498  42.310  12.881
48736W        W21161  19.875   2.889  14.016
48737W        W21162  36.998  31.987   0.916
48738W        W21163  38.633   2.161   1.463
48739W        W21164  37.022  40.436   2.856
48740W        W21165  40.039  17.227  11.950
48741W        W21166   8.923  40.911   0.975
48742W        W21167  19.501   1.070   2.219
48743W        W21168  40.657  37.899   2.763
48744W        W21169  38.925  24.519   1.267
48745W        W21170  14.583  19.716  12.012
48746W        W21171  35.848  13.145   2.207
48747W        W21172  10.854  24.308   1.421
48748W        W21173   3.554  36.656  13.434
48749W        W21174  28.890  20.502  12.018
48750W        W21175  19.724  23.257  14.397
48751W        W21176   1.254  39.018   1.290
48752W        W21177  33.387  16.825   1.279
48753W        W21178  20.170   6.985   0.245
48754W        W21179  16.868  27.999   2.313
48755W        W21180  41.865  14.883  11.611
48756W        W21181  15.945  40.874   2.540
48757W        W21182   6.950  31.301  11.056
48758W        W21183   6.848   3.390   4.742
48759W        W21184   7.884  21.347  12.079
48760W        W21185  22.725  22.175  13.540
48761W        W21186  18.761  35.781   3.373
48762W        W21187  27.633  40.939   0.320
48763W        W21188  11.479  18.288  10.242
48764W        W21189  16.799   8.344   0.879
48765W        W21190  22.568  35.972  13.903
48766W        W21191  42.575   5.391  10.702
48767W        W21192  10.299  38.607   1.186
48768W        W21193  13.303  12.093   3.672
48769W        W21194   6.766  21.894   0.352
48770W        W21195   3.844  38.754   0.819
48771W        W21196  10.124  26.215   1.313
48772W        W21197  34.483  18.442   2.240
48773W        W21198  22.450   0.668   3.788
48774W        W21199  41.016  23.215  11.172
48775W        W21200  42.765  16.834   2.157
48776W        W21201  22.671  32.367   4.219
48777W        W21202  29.887  20.260   4.473
48778W        W21203   4.249  16.559  12.017
48779W        W21204  19.028  43.590  10.796
48780W        W21205  17.368  40.224   2.272
48781W        W21206  25.927  15.630   0.666
48782W        W21207  16.797  38.981  12.978
48783W        W21208  30.701  21.272  13.791
48784W        W21209   3.428   9.615   3.232
48785W        W21210   0.320   5.050  11.978
48786W        W21211  23.212   0.310  12.160
48787W        W21212  15.660  34.828   4.179
48788W        W21213  26.466   4.914  10.517
48789W        W21214  21.673   0.751   2.705
48790W        W21215  10.101  26.597  13.434
48791W        W21216   7.647  14.647   2.165
48792W        W21217  12.601  11.275  11.463
48793W        W21218  35.617  37.656  11.154
48794W        W21219  13.836   6.475   0.399
48795W        W21220  24.021  17.178   2.908
48796W        W21221  15.288  21.669  13.192
48797W        W21222  13.676  28.244  14.515
48798W        W21223  40.890   0.132  14.448
48799W        W21224  17.724   6.219  12.897
48800W        W21225  25.197  21.722  12.603
48801W        W21226  26.930   0.799  10.371
48802W        W21227  24.936  28.522   2.169
48803W        W21228   8.607  25.044  14.406
48804W        W21229  16.693   0.849  12.547
48805W        W21230  25.905   4.439  14.648
48806W        W21231  12.284  15.821  11.447
48807W        W21232   7.218  21.617  11.709
48808W        W21233  17.015   2.919   5.688
48809W        W21234   6.967   3.755  11.999
48810W        W21235  11.958  27.012   3.313
48811W        W21236  14.030  32.843  10.512
48812W        W21237  37.320  29.996  12.882
48813W        W21238  31.891  30.568  14.823
48814W        W21239  10.297  26.479   0.888
48815W        W21240  24.470  33.185  12.403
48816W        W21241  30.529   8.806   2.030
48817W        W21242   5.631  32.020   3.416
48818W        W21243  21.580  29.861  13.531
48819W        W21244   8.406  37.027  11.849
48820W        W21245   7.640  23.027   4.085
48821W        W21246  33.425  12.042   5.118
48822W        W21247  10.139  25.193  13.310
48823W        W21248  36.078  23.884  10.513
48824W        W21249  17.082  36.848   2.912
48825W        W21250  34.886   1.121  11.337
48826W        W21251  43.443  11.716   2.546
48827W        W21252  21.196  40.932   0.795
48828W        W21253  39.865  30.504  14.472
48829W        W21254  15.319   7.170   0.265
48830W        W21255   4.849  30.341  13.423
48831W        W21256  28.915   0.323  11.140
48832W        W21257  19.190  35.896  12.957
48833W        W21258  22.288  43.943   4.958
48834W        W21259  30.477  25.699  12.387
48835W        W21260  30.912  34.929   0.765
48836W        W21261   1.335  25.631   3.519
48837W        W21262  39.872  42.992   0.678
48838W        W21263  42.275  33.382   0.563
48839W        W21264  29.443  11.833  11.570
48840W        W21265  18.572  20.329   0.086
48841W        W21266  44.006  38.008   2.128
48842W        W21267  35.497  44.284   1.959
48843W        W21268  26.480  11.844   3.108
48844W        W21269  30.577  30.089  13.876
48845W        W21270   2.525   3.691  14.894
48846W        W21271  42.751  17.696   0.380
48847W        W21272  17.826  31.417  13.211
48848W        W21273  21.113   2.800   2.159
48849W        W21274   2.963  30.480   2.131
48850W        W21275  37.835  30.206  10.730
48851W        W21276  40.854  31.395  12.057
48852W        W21277   5.430  24.175   2.276
48853W        W21278  10.254  30.104  12.726
48854W        W21279  20.727   3.723   3.275
48855W        W21280  40.513  24.460   3.286
48856W        W21281  40.730  20.726  14.909
48857W        W21282  43.908  24.140   2.840
48858W        W21283  31.337   4.580  14.062
48859W        W21284  35.772  34.961   1.763
48860W        W21285   1.910  21.209  11.622
48861W        W21286  43.164   7.861  14.820
48862W        W21287   2.020  12.273   4.607
48863W        W21288   5.937  25.113   1.867
48864W        W21289  24.465  18.080   2.145
48865W        W21290  40.935   2.136  14.795
48866W        W21291  42.420  24.207  11.232
48867W        W21292  11.654  43.533  12.233
48868W        W21293  19.840  30.926   1.344
48869W        W21294  21.635   0.095   4.750
48870W        W21295   7.322   8.048   3.258
48871W        W21296  19.164  28.674  13.965
48872W        W21297  32.600  13.076   4.495
48873W        W21298  40.543   3.127  14.009
48874W        W21299  13.151   7.252   4.074
48875W        W21300  44.774   0.214  11.142
48876W        W21301  35.883   0.214  13.103
48877W        W21302  21.609   1.963  10.669
48878W        W21303  11.659   1.423   2.992
48879W        W21304  26.894  10.451  14.461
48880W        W21305  36.291  12.709  12.031
48881W        W21306  44.628  36.371  13.584
48882W        W21307  35.445  40.157   1.290
48883W        W21308  15.206   0.760  11.175
48884W        W21309  44.556  32.797  11.126
48885W        W21310  42.393   0.037  11.600
48886W        W21311  38.943  42.032  10.118
48887W        W21312  36.155  39.571  11.943
48888W        W21313   3.308  25.246  11.994
48889W        W21314   1.437  44.774  13.937
48890W        W21315  41.355  18.298   3.867
48891W        W21316   4.653   7.689  14.871
48892W        W21317   4.316   3.408   3.403
48893W        W21318  29.988   6.247   2.361
48894W        W21319  10.492   9.252   0.315
48895W        W21320  33.364  23.670   2.186
48896W        W21321   8.880  33.388   1.219
48897W        W21322  17.543  40.422  14.917
48898W        W21323  24.067  42.558   0.260
48899W        W21324  37.830  33.670   4.529
48900W        W21325  44.595  32.910  10.308
48901W        W21326   8.293   4.981   1.484
48902W        W21327  34.441  42.387   2.719
48903W        W21328   5.337  24.910  14.040
48904W        W21329  10.925  42.549  11.969
48905W        W21330   7.337  36.056   0.486
48906W        W21331  34.863  34.993   2.715
48907W        W21332   6.926  29.959   1.302
48908W        W21333  16.577  20.849  13.505
48909W        W21334   7.753  12.784   2.128
48910W        W21335  13.738  40.888   4.794
48911W        W21336  13.047  17.830   0.520
48912W        W21337  12.371  20.809  11.050
48913W        W21338  15.958  34.015  11.827
48914W        W21339  39.395   2.566  14.321
48915W        W21340  24.960  29.024  13.819
48916W        W21341  27.239  34.967   3.978
48917W        W21342  22.733   9.238   1.802
48918W        W21343   6.223  35.001   5.120
48919W        W21344  13.090  12.528   0.412
48920W        W21345  42.920   2.238   1.376
48921W        W21346  10.646   9.454  11.943
48922W        W21347   3.884  16.069  14.747
48923W        W21348  35.560  19.541   3.850
48924W        W21349  28.934  41.883   2.257
48925W        W21350  11.871  17.175   4.142
48926W        W21351  22.840  11.360  10.519
48927W        W21352  22.635  26.453   2.101
48928W        W21353  33.870  33.059  13.591
48929W        W21354  20.845  18.172  11.204
48930W        W21355  13.385   8.237  13.423
48931W        W21356   7.817  39.285  12.094
48932W        W21357  12.372  32.897   4.164
48933W        W21358  17.133  41.514   1.639
48934W        W21359  39.881  16.760   0.275
48935W        W21360  15.334  21.005   0.955
48936W        W21361  14.814  31.587   1.415
48937W        W21362  18.537   2.837   0.297
48938W        W21363  14.456  36.202   2.779
48939W        W21364  38.939   8.816  10.667
48940W        W21365  35.605   3.513   0.530
48941W        W21366  23.669  26.750  10.245
48942W        W21367  32.420  40.959  11.951
48943W        W21368  13.663  29.643  14.429
48944W        W21369   7.552  23.457  11.126
48945W        W21370  41.793  36.260  12.555
48946W        W21371  16.740  15.286   3.788
48947W        W21372  28.701   3.971  13.353
48948W        W21373  39.062   3.562   4.965
48949W        W21374  12.060  21.191   3.084
48950W        W21375  34.900   5.258   0.679
48951W        W21376  34.903   9.253   0.430
48952W        W21377  28.013  17.985   4.304
48953W        W21378  20.675  25.060   1.184
48954W        W21379   2.212  12.432   2.284
48955W        W21380   1.276   3.690   4.248
48956W        W21381  32.326  33.366  12.001
48957W        W21382   6.307  28.030   3.579
48958W        W21383  29.188   7.600  12.473
48959W        W21384  20.093  20.252  14.421
48960W        W21385  22.164  26.629   2.722
48961W        W21386   4.983  22.924  11.250
48962W        W21387  28.411  33.891   1.327
48963W        W21388   6.376  28.611  14.045
48964W        W21389  29.543   0.585  14.311
48965W        W21390   0.197   3.189   1.866
48966W        W21391  38.572  12.912   4.842
48967W        W21392   9.243  44.520   3.787
48968W        W21393  39.827  10.448  14.932
48969W        W21394  23.852  25.426   3.474
48970W        W21395  31.106  37.120  13.528
48971W        W21396  24.930  43.483  11.473
48972W        W21397  26.803   3.099   0.003
48973W        W21398   7.978   4.103  11.092
48974W        W21399   4.451   7.499   0.379
48975W        W21400  38.485  44.765   3.303
48976W        W21401   1.803   0.465  13.567
48977W        W21402  19.162   5.829   2.753
48978W        W21403  18.290  33.823   0.424
48979W        W21404  30.131  19.223   0.600
48980W        W21405  36.338   2.297   2.907
48981W        W21406  35.413  13.367   4.739
48982W        W21407  16.638  39.719   3.404
48983W        W21408   5.656   7.322   2.416
48984W        W21409  12.801  31.997  13.597
48985W        W21410  31.063   8.058   4.692
48986W        W21411  39.822  19.559  10.410
48987W        W21412  23.933   8.700   4.519
48988W        W21413  30.973  23.186   1.727
48989W        W21414   5.205  21.227  13.072
48990W        W21415  41.988  32.625  12.394
48991W        W21416  38.503  36.803  10.962
48992W        W21417   6.260  19.292  12.473
48993W        W21418  30.116  40.975  11.455
48994W        W21419  22.770  30.430  13.568
48995W        W21420  14.442  17.771   4.570
48996W        W21421  29.995   1.005   3.508
48997W        W21422  24.018   5.536  14.739
48998W        W21423   4.426  15.683   0.954
48999W        W21424  24.916  14.615   4.594
49000W        W21425   9.860   6.159   3.062
49001W        W21426  39.387  13.273   4.704
49002W        W21427  30.990   7.331   0.629
49003W        W21428  30.265  37.928   4.069
49004W        W21429  29.895  35.560  12.034
49005W        W21430  14.326  14.746   1.773
49006W        W21431  44.531   0.024   3.751
49007W        W21432   4.665  30.123   0.565
49008W        W21433  19.687  36.685  13.117
49009W        W21434  11.188   1.028   3.317
49010W        W21435  26.567  11.547  13.523
49011W        W21436  44.694  15.589   3.710
49012W        W21437  16.980  27.697   3.092
49013W        W21438  37.071  28.989  10.533
49014W        W21439  28.016  22.705  14.974
49015W        W21440   0.417  29.023  13.101
49016W        W21441  26.107  28.707   3.156
49017W        W21442  23.094  14.834   1.849
49018W        W21443  44.464   4.744   4.273
49019W        W21444  35.087  35.861  10.283
49020W        W21445  16.634  16.669   2.699
49021W        W21446  33.401  17.066  11.207
49022W        W21447  42.442  36.478   2.782
49023W        W21448  34.844  39.361   0.310
49024W        W21449  34.401  38.635  11.207
49025W        W21450  34.938  11.208  14.693
49026W        W21451  12.636  19.330   0.353
49027W        W21452   1.841  34.569   0.161
49028W        W21453  26.649   9.152   1.902
49029W        W21454  28.640  27.986  10.915
49030W        W21455  27.465  36.467  11.608
49031W        W21456  34.398   1.882  14.534
49032W        W21457  21.805   7.320  13.569
49033W        W21458  15.788  23.358  10.296
49034W        W21459   2.240  39.895  13.960
49035W        W21460  22.674  34.948  13.994
49036W        W21461  33.310  13.171  11.144
49037W        W21462  25.534   5.122   3.388
49038W        W21463  44.332  42.566   3.611
49039W        W21464  28.101  13.930  11.036
49040W        W21465   3.052  24.695   3.654
49041W        W21466   0.739  39.137   1.364
49042W        W21467  35.144  17.563   1.442
49043W        W21468  26.170   0.172  11.088
49044W        W21469   0.039  35.445  11.270
49045W        W21470  34.874   7.241   4.507
49046W        W21471  14.639  40.306  13.014
49047W        W21472  26.898  16.682   1.299
49048W        W21473  24.966  30.987  12.563
49049W        W21474  27.455   5.474   0.148
49050W        W21475  14.676  27.487   4.277
49051W        W21476  12.303  37.386   3.138
49052W        W21477  18.533  38.739   1.674
49053W        W21478  17.680  40.860  10.550
49054W        W21479  12.495  39.233  13.127
49055W        W21480  19.996  33.876  14.877
49056W        W21481  15.033  10.779   0.817
49057W        W21482  10.197   5.739  13.193
49058W        W21483   8.226  15.606  12.552
49059W        W21484  15.770  18.678  13.968
49060W        W21485  24.534   0.016  11.180
49061W        W21486  37.014  38.119   3.267
49062W        W21487   8.217  37.982  10.495
49063W        W21488  38.800  16.275   3.285
49064W        W21489  21.822  10.066  11.407
49065W        W21490  31.900  20.322  14.369
49066W        W21491   4.288  14.919  11.565
49067W        W21492  22.202   8.000   0.494
49068W        W21493   4.555  34.599   3.597
49069W        W21494  11.898  26.586  13.530
49070W        W21495  39.396  27.658   4.553
49071W        W21496   0.692  13.862  14.443
49072W        W21497   8.281  24.637  13.569
49073W        W21498   4.911  21.474   2.338
49074W        W21499  26.213  21.175  12.080
49075W        W21500  10.778   3.050   0.721
49076W        W21501  20.224   6.832   3.530
49077W        W21502  40.582  10.101   2.625
49078W        W21503  14.559   5.174  13.020
49079W        W21504  41.643  17.582  13.946
49080W        W21505  19.598  29.436   2.270
49081W        W21506  40.934  14.283   2.464
49082W        W21507   7.196   3.834  11.511
49083W        W21508   5.990   3.414   4.244
49084W        W21509  24.894  12.294  11.066
49085W        W21510  25.102  21.137   1.950
49086W        W21511   5.023   8.368  14.602
49087W        W21512  40.596  21.199   2.262
49088W        W21513   7.293   2.312   4.127
49089W        W21514  35.803  16.772   3.807
49090W        W21515   7.235  39.125   3.611
49091W        W21516  33.950  29.000   1.681
49092W        W21517  33.601  42.533   3.833
49093W        W21518  25.686   8.761  14.547
49094W        W21519  32.977   5.691   1.674
49095W        W21520  13.279  14.642   0.326
49096W        W21521   2.244  29.466  13.987
49097W        W21522  35.812   7.256   4.557
49098W        W21523  25.615  33.397   0.967
49099W        W21524  20.121  36.099   0.798
49100W        W21525  21.657  30.386  14.170
49101W        W21526  34.096  29.948  12.521
49102W        W21527  21.124  23.205   1.928
49103W        W21528  22.170  38.848  11.115
49104W        W21529  13.300  21.099   4.117
49105W        W21530   7.244  31.049  13.464
49106W        W21531  22.056  10.905  13.465
49107W        W21532   0.589  24.746  12.564
49108W        W21533   6.913   2.358  12.975
49109W        W21534  27.183   3.455  14.914
49110W        W21535  11.704  12.666  11.769
49111W        W21536  33.422   5.155  13.396
49112W        W21537   8.724  20.002  14.861
49113W        W21538  29.401  24.475  11.123
49114W        W21539   0.806   4.479   2.713
49115W        W21540   7.858  39.829  12.111
49116W        W21541  18.150  13.212   2.376
49117W        W21542  30.048  18.197  12.336
49118W        W21543   9.806  43.305   1.924
49119W        W21544   0.755  25.079   1.816
49120W        W21545  28.193  41.130   1.867
49121W        W21546  42.204  34.150  11.956
49122W        W21547  21.657  28.433   3.012
49123W        W21548  14.363  15.351  14.858
49124W        W21549  24.193  33.247   5.074
49125W        W21550  25.612  24.137  14.932
49126W        W21551  34.601  30.692   1.812
49127W        W21552  37.337   2.333   0.934
49128W        W21553  35.943  27.966  14.381
49129W        W21554  11.603  17.359  14.882
49130W        W21555  22.105   3.442  14.477
49131W        W21556  40.409  14.295  10.417
49132W        W21557   4.448   6.826  10.554
49133W        W21558  21.695  26.589   2.426
49134W        W21559  36.917   7.130  12.674
49135W        W21560  13.115  15.664   3.342
49136W        W21561  40.759   3.410  10.765
49137W        W21562  39.018  33.084  11.463
49138W        W21563  11.870  40.232  12.460
49139W        W21564  41.643  22.547  12.876
49140W        W21565  25.392  44.906   0.300
49141W        W21566  32.019   3.395   9.990
49142W        W21567  14.406  33.642   5.113
49143W        W21568  25.121  38.058   0.016
49144W        W21569  21.746   2.744  11.989
49145W        W21570  16.128  29.537   3.144
49146W        W21571   5.906  13.647   1.735
49147W        W21572  11.104  26.097   2.676
49148W        W21573   3.997  34.465   4.553
49149W        W21574   6.312  15.248   3.076
49150W        W21575  18.983  10.901   4.172
49151W        W21576  17.396  44.847   2.862
49152W        W21577  40.952  33.881  11.823
49153W        W21578   9.842  10.196  11.307
49154W        W21579  26.241  10.404  11.968
49155W        W21580   0.531  11.759   2.167
49156W        W21581  22.015  15.079  13.852
49157W        W21582  36.605  36.907  10.665
49158W        W21583  30.496   1.170  13.085
49159W        W21584  14.121  17.174   5.105
49160W        W21585  30.137  41.908  12.987
49161W        W21586  33.901   6.628   2.689
49162W        W21587  36.698  40.561   4.906
49163W        W21588  15.536  26.923   3.246
49164W        W21589   9.627   7.238   4.514
49165W        W21590  42.498  30.332   1.225
49166W        W21591  32.568  33.843   1.958
49167W        W21592  14.795   8.968  13.505
49168W        W21593  29.166  14.302   1.409
49169W        W21594  11.176  14.983   1.490
49170W        W21595  32.093  32.541   4.557
49171W        W21596  24.648   9.128  14.800
49172W        W21597   8.244  23.500  10.585
49173W        W21598   1.505   6.312   4.736
49174W        W21599  12.800  39.606  11.010
49175W        W21600  18.554   3.333   1.531
49176W        W21601  12.693  10.450   2.359
49177W        W21602   9.259  26.523  11.515
49178W        W21603  33.109   5.726   4.741
49179W        W21604  24.727   4.833   1.292
49180W        W21605  42.051  30.952  14.544
49181W        W21606  15.264  23.888   0.122
49182W        W21607  29.886  35.030   2.307
49183W        W21608   4.147  35.686  14.455
49184W        W21609  26.509  37.200  10.680
49185W        W21610  43.281  42.332  10.690
49186W        W21611  43.355  41.855  13.431
49187W        W21612  30.522   1.549   4.144
49188W        W21613  33.121  39.461   0.881
49189W        W21614  27.015   2.046  11.572
49190W        W21615  16.650   8.250  14.707
49191W        W21616   0.159  23.213  12.511
49192W        W21617  40.241  25.253   3.667
49193W        W21618  12.803  43.250   0.784
49194W        W21619  23.533  13.036  12.037
49195W        W21620  18.755  19.994  11.989
49196W        W21621   6.277  16.687   0.813
49197W        W21622  11.864  25.227   3.325
49198W        W21623  12.926   3.696   0.888
49199W        W21624  35.901  27.969   3.936
49200W        W21625  34.033  10.850  10.636
49201W        W21626   8.380  23.505   2.265
49202W        W21627  29.870  11.290  12.635
49203W        W21628   9.745  21.749  14.108
49204W        W21629   8.031  40.008   3.289
49205W        W21630  33.960  18.540  13.732
49206W        W21631  26.961  40.229   1.836
49207W        W21632   9.859   8.299  13.346
49208W        W21633   2.488  10.580  11.772
49209W        W21634  21.140  27.128   4.648
49210W        W21635  41.817   1.199   0.945
49211W        W21636  35.454  12.353  11.886
49212W        W21637  40.587  40.401  12.099
49213W        W21638   4.203  40.613   0.729
49214W        W21639  38.498   1.062   3.712
49215W        W21640   2.531  30.184   1.373
49216W        W21641  19.922  30.531  11.955
49217W        W21642   4.708  26.657  11.705
49218W        W21643   9.832   6.147  13.402
49219W        W21644  42.041  34.437  14.513
49220W        W21645   9.367  35.530  13.153
49221W        W21646  15.329  34.395   1.270
49222W        W21647  43.241  21.569   0.360
49223W        W21648  23.266  27.183   3.566
49224W        W21649  19.622  15.856   2.509
49225W        W21650  22.235  27.342  11.940
49226W        W21651  15.325  20.752   0.407
49227W        W21652   8.734  23.328  14.934
49228W        W21653  29.113  16.058  11.150
49229W        W21654  14.328   8.401   3.593
49230W        W21655  11.425  18.899  12.416
49231W        W21656  33.986  38.373   3.126
49232W        W21657   1.612   9.770  14.827
49233W        W21658   9.877  23.300   1.945
49234W        W21659   5.195  18.482  10.740
49235W        W21660  18.290  13.767  12.485
49236W        W21661   6.631  24.431  11.964
49237W        W21662  13.231  23.979   1.306
49238W        W21663   8.704  35.890   2.259
49239W        W21664   7.948  34.142   2.044
49240W        W21665  34.560  40.338  14.298
49241W        W21666   3.269  25.646   3.952
49242W        W21667  24.738  36.758   4.110
49243W        W21668  28.022  17.731   3.610
49244W        W21669  42.169  28.409  11.992
49245W        W21670  31.120  38.506   1.920
49246W        W21671  43.863  40.133   0.479
49247W        W21672  15.794   8.330  13.081
49248W        W21673  24.717  37.494   0.675
49249W        W21674  33.955  11.895   0.847
49250W        W21675  28.698  10.817  11.420
49251W        W21676   8.206  10.483  10.674
49252W        W21677   7.871   1.686   0.399
49253W        W21678   0.872  16.055  12.941
49254W        W21679  33.474  34.513   3.392
49255W        W21680   4.448  40.908   4.149
49256W        W21681   5.001  28.339   1.648
49257W        W21682  34.989  38.271   3.278
49258W        W21683   2.785  26.296  10.416
49259W        W21684  28.927   4.648   4.403
49260W        W21685  44.322  33.700   1.322
49261W        W21686  25.073  27.457  13.016
49262W        W21687  39.490  12.285   3.706
49263W        W21688   3.445  11.146   2.309
49264W        W21689  32.592   2.195   4.254
49265W        W21690  13.687  22.085   9.676
49266W        W21691  18.874  16.359  13.842
49267W        W21692  14.822   2.842   4.778
49268W        W21693  42.218  13.131  14.896
49269W        W21694   1.418  34.453  14.370
49270W        W21695   2.207  18.142   2.443
49271W        W21696  40.571  19.496   1.207
49272W        W21697  15.910  13.152   3.211
49273W        W21698  17.569  32.694   3.357
49274W        W21699  23.354  22.727  10.754
49275W        W21700  27.311  32.967   4.510
49276W        W21701  39.239  26.189   3.343
49277W        W21702  20.804   1.211  12.908
49278W        W21703   1.364   8.181  14.501
49279W        W21704   0.440  19.557  12.360
49280W        W21705  28.403  33.074   4.197
49281W        W21706  31.019  16.553   2.085
49282W        W21707  44.818  36.197   1.733
49283W        W21708  12.327  42.552   1.689
49284W        W21709   1.194  29.214   0.338
49285W        W21710  32.874  15.555  10.677
49286W        W21711  14.352  30.569   4.233
49287W        W21712  19.656   2.312   2.394
49288W        W21713  10.410   3.173   3.176
49289W        W21714   8.802  40.497  14.251
49290W        W21715  39.457  17.985  12.449
49291W        W21716  34.543   7.814   4.143
49292W        W21717  35.416  39.724  13.949
49293W        W21718  38.012   6.679  12.070
49294W        W21719  29.103  34.942   3.266
49295W        W21720   1.884  38.838  12.949
49296W        W21721   3.011  41.801  11.574
49297W        W21722   4.199  37.861   0.227
49298W        W21723  35.366  30.141  14.023
49299W        W21724   2.527  36.500  13.077
49300W        W21725  28.402  19.995   0.550
49301W        W21726   4.207  32.300  13.010
49302W        W21727  26.706  23.808  11.633
49303W        W21728  32.504  37.643  11.190
49304W        W21729  39.509   8.952   2.769
49305W        W21730  40.932   4.219   4.556
49306W        W21731  34.943  12.155  10.545
49307W        W21732  31.102  16.599  12.735
49308W        W21733  35.359  36.360   1.900
49309W        W21734  24.079   6.862  10.958
49310W        W21735   2.501  13.008  13.214
49311W        W21736  33.181   7.632  13.908
49312W        W21737  22.979  44.878   4.553
49313W        W21738  24.638  41.811   1.422
49314W        W21739  41.480   5.882   3.229
49315W        W21740  43.421  19.550  13.415
49316W        W21741  44.861  24.471  11.410
49317W        W21742  38.566  36.859   3.172
49318W        W21743  23.137  35.023  11.493
49319W        W21744   4.351  34.817   4.987
49320W        W21745   6.338  32.405  10.585
49321W        W21746  23.190   0.360   0.727
49322W        W21747  19.592  42.222  11.403
49323W        W21748  43.241  35.954   1.817
49324W        W21749   2.122  26.984   2.353
49325W        W21750  15.169  42.505  11.506
49326W        W21751  25.586  19.505  10.057
49327W        W21752  35.371   8.756   0.919
49328W        W21753  23.376  19.265  13.986
49329W        W21754  14.115  35.286   2.778
49330W        W21755  40.515  36.472  11.675
49331W        W21756  33.573  15.820  14.422
49332W        W21757  44.825  26.322   4.904
49333W        W21758   8.898   1.448  12.823
49334W        W21759  23.724  12.353   3.332
49335W        W21760  11.100   1.773  10.713
49336W        W21761  19.101  33.994   0.263
49337W        W21762  11.539   4.759  11.259
49338W        W21763  37.684   1.902  12.498
49339W        W21764   8.772  40.507  12.756
49340W        W21765  10.232   0.381   0.908
49341W        W21766  39.536  28.701   2.947
49342W        W21767  28.679  17.514   2.329
49343W        W21768   6.363   2.538   0.737
49344W        W21769  19.171  11.155   2.767
49345W        W21770  26.447  13.346   3.235
49346W        W21771  41.823  30.711  11.161
49347W        W21772  12.176  14.275   2.815
49348W        W21773  13.790   1.874  12.294
49349W        W21774  42.913  14.256  13.931
49350W        W21775  43.289  25.980   4.182
49351W        W21776  19.871  30.000  12.846
49352W        W21777  25.658  40.448  13.901
49353W        W21778   7.687  37.360   3.746
49354W        W21779  41.871   0.398   3.082
49355W        W21780  26.384  37.341  13.503
49356W        W21781   2.408   0.097   0.609
49357W        W21782  44.496  39.354  13.881
49358W        W21783   8.651   0.563   4.241
49359W        W21784   6.891  32.165  12.183
49360W        W21785  38.423   6.741   3.317
49361W        W21786  22.801  44.965  10.753
49362W        W21787  22.560  36.412   3.222
49363W        W21788  20.147  15.087  12.553
49364W        W21789  24.110  43.953  12.948
49365W        W21790  31.557  16.537   4.258
49366W        W21791  33.607  20.715  14.541
49367W        W21792   3.097   0.179  13.307
49368W        W21793  39.199  38.318   1.073
49369W        W21794   5.152  32.057  13.039
49370W        W21795  30.651  33.917   1.659
49371W        W21796   3.209  31.358   1.727
49372W        W21797   2.997  34.208   1.290
49373W        W21798  42.828  30.699  13.590
49374W        W21799   3.813  29.056  12.864
49375W        W21800  30.674  35.286   2.408
49376W        W21801   9.373   6.420   1.447
49377W        W21802  17.335  22.752  11.472
49378W        W21803  44.835  43.562  10.646
49379W        W21804  11.705  18.936  11.983
49380W        W21805  29.528   2.962  14.475
49381W        W21806  24.468  20.797  13.819
49382W        W21807  40.989   9.158  13.538
49383W        W21808  18.098  31.642  14.406
49384W        W21809  28.199  19.627   2.311
49385W        W21810   6.652   6.408   0.089
49386W        W21811  38.451  33.551  11.684
49387W        W21812  24.233  16.893   4.852
49388W        W21813   6.769  28.109   0.708
49389W        W21814   0.848  39.959  13.309
49390W        W21815   7.864  40.811  13.679
49391W        W21816  23.209  19.552  10.565
49392W        W21817  31.411  12.385   4.824
49393W        W21818  26.025   4.788   4.359
49394W        W21819  40.822   3.914  10.780
49395W        W21820  17.573   3.666  13.992
49396W        W21821  10.889   1.843   2.425
49397W        W21822  30.935  25.624   0.887
49398W        W21823  44.021  34.197   3.850
49399W        W21824  41.389   4.334  12.909
49400W        W21825  32.008  11.880  11.573
49401W        W21826  14.170  33.540  13.246
49402W        W21827  36.101  24.511   0.039
49403W        W21828   5.672  20.719   3.781
49404W        W21829  28.738  33.494  10.646
49405W        W21830  41.939   9.843   4.902
49406W        W21831  17.688  33.119  11.990
49407W        W21832  16.492  35.697   1.161
49408W        W21833  22.726  29.510  14.922
49409W        W21834  39.181   1.182   3.088
49410W        W21835  30.856   1.399   3.151
49411W        W21836  26.152  18.897  12.534
49412W        W21837  10.188  27.322   4.558
49413W        W21838   1.282  11.731   1.206
49414W        W21839  11.728  39.374  14.789
49415W        W21840  11.146  24.688  13.551
49416W        W21841   0.452  33.554  13.415
49417W        W21842  30.208  36.988  11.521
49418W        W21843   3.718   0.826   1.812
49419W        W21844  13.574  23.474  11.081
49420W        W21845  30.615  32.933   2.699
49421W        W21846  24.521  11.361   0.326
49422W        W21847  44.400   8.422   2.723
49423W        W21848   3.640  20.239  14.502
49424W        W21849  18.559  29.985   1.395
49425W        W21850  28.559  44.475  11.963
49426W        W21851  15.324  31.821   2.319
49427W        W21852  34.055  18.333  11.104
49428W        W21853  30.963  17.746   2.520
49429W        W21854  38.558   1.243   1.518
49430W        W21855  17.781   7.151   1.246
49431W        W21856  13.967  32.893   4.634
49432W        W21857  41.946   2.224   1.316
49433W        W21858  26.960  23.738   2.349
49434W        W21859  15.615   3.440  11.496
49435W        W21860  11.900  12.891  12.648
49436W        W21861   7.946   2.928   3.264
49437W        W21862  11.441   4.255   4.419
49438W        W21863  20.223  21.277  10.177
49439W        W21864  44.746  20.046  14.822
49440W        W21865   6.131   5.253  11.200
49441W        W21866   3.207   0.957   1.711
49442W        W21867  13.342   1.566  14.974
49443W        W21868  43.146  31.790   2.343
49444W        W21869  41.332   9.823   1.954
49445W        W21870  21.203  38.648  10.639
49446W        W21871   7.676  37.057  13.399
49447W        W21872  28.142   8.769   2.598
49448W        W21873   9.790  15.730  13.940
49449W        W21874  17.215  26.448  12.480
49450W        W21875  22.630  18.071   0.819
49451W        W21876  17.152  18.574  11.639
49452W        W21877   4.238  43.915   1.424
49453W        W21878   2.017  29.574  12.964
49454W        W21879   8.343   0.783   3.228
49455W        W21880  31.053  11.416   1.843
49456W        W21881  30.505  39.738  13.317
49457W        W21882  15.801  13.604  12.983
49458W        W21883  27.664  43.258   1.466
49459W        W21884   6.326  43.999  14.949
49460W        W21885   9.074  31.400   4.305
49461W        W21886   7.277  15.754   1.926
49462W        W21887  41.052  37.328   1.926
49463W        W21888  12.131  20.785  11.913
49464W        W21889  30.404  17.005   4.608
49465W        W21890  28.032   8.477  14.287
49466W        W21891  37.104  33.070  12.041
49467W        W21892  38.866  23.598  10.178
49468W        W21893  31.308  38.887   1.432
49469W        W21894   9.496  11.910  14.475
49470W        W21895   6.429   3.881   3.143
49471W        W21896  17.959   4.825  10.552
49472W        W21897  14.642  38.944  10.710
49473W        W21898  44.373   4.258  11.615
49474W        W21899  39.827  10.716   4.323
49475W        W21900  36.183  29.582  11.591
49476W        W21901  19.840  22.173   2.337
49477W        W21902  26.937  24.659  13.550
49478W        W21903  26.602  24.121   0.201
49479W        W21904  14.668  29.998  12.987
49480W        W21905  39.304  40.089  10.971
49481W        W21906   5.276  22.786  14.957
49482W        W21907   1.475  33.588  12.481
49483W        W21908  17.123  16.809   0.890
49484W        W21909   1.829   2.913   1.374
49485W        W21910  43.276  30.828  12.459
49486W        W21911  26.473  43.711  10.184
49487W        W21912   3.161  38.993   1.465
49488W        W21913  36.387  19.569  14.828
49489W        W21914  14.165   9.560   3.537
49490W        W21915  35.493   0.470   1.372
49491W        W21916  27.918  21.064  13.514
49492W        W21917  35.611  36.038  12.952
49493W        W21918  28.248  38.033  13.127
49494W        W21919  35.376  12.007  11.074
49495W        W21920   4.299  44.880   0.319
49496W        W21921  34.830  18.043  10.625
49497W        W21922  25.676  33.927  13.411
49498W        W21923  20.475   6.764  12.669
49499W        W21924  34.864   4.129   4.837
49500W        W21925  42.783   3.026  14.785
49501W        W21926  24.103   3.423  10.594
49502W        W21927  35.396   2.482  13.514
49503W        W21928  36.989   5.165  13.888
49504W        W21929  29.912  11.766  12.423
49505W        W21930  32.076  29.461   2.922
49506W        W21931   7.961  36.487  14.715
49507W        W21932  39.506  28.186   2.376
49508W        W21933   0.590  11.292   0.252
49509W        W21934  20.769  20.511  13.608
49510W        W21935   5.735  40.901  12.881
49511W        W21936  17.139  44.545   4.948
49512W        W21937  38.955  17.618  14.059
49513W        W21938  13.181   9.680   4.199
49514W        W21939   9.182   2.052  14.845
49515W        W21940  14.103  33.440   3.313
49516W        W21941  17.380   3.300   3.223
49517W        W21942  33.756  17.112  13.850
49518W        W21943  37.969   3.515  10.684
49519W        W21944  32.904  43.511  12.560
49520W        W21945  22.393  22.920  14.246
49521W        W21946  43.769  20.742  11.651
49522W        W21947  33.834   6.829   2.234
49523W        W21948  41.071  13.901  12.998
49524W        W21949  37.551  10.952   2.675
49525W        W21950   9.200  26.538   0.005
49526W        W21951  39.549  41.911   0.775
49527W        W21952  12.595  40.558   4.057
49528W        W21953  35.125  18.657   1.825
49529W        W21954  18.678  38.900   1.195
49530W        W21955  37.304  10.395   5.092
49531W        W21956  35.533  16.160  13.210
49532W        W21957  23.789  32.140  14.344
49533W        W21958  32.832  36.867   1.847
49534W        W21959  18.099  26.732   1.098
49535W        W21960   7.348  35.727  12.534
49536W        W21961  27.525  18.363  11.634
49537W        W21962  40.508   2.159  11.649
49538W        W21963   2.010  17.612   3.166
49539W        W21964   9.171  30.556   4.313
49540W        W21965  34.496  42.873   4.839
49541W        W21966   3.223   3.801   4.643
49542W        W21967  41.277  35.307   1.255
49543W        W21968  28.334  27.503  13.930
49544W        W21969  33.843  33.219  10.713
49545W        W21970  33.582  21.170  13.773
49546W        W21971  33.495  27.668  11.985
49547W        W21972   3.359  39.453   4.526
49548W        W21973   3.704  14.613   1.006
49549W        W21974  15.751   3.360   0.175
49550W        W21975  15.161  17.626  12.605
49551W        W21976  20.227  44.254   2.298
49552W        W21977  40.555  40.505   2.846
49553W        W21978  40.106  10.868  10.636
49554W        W21979  13.612  25.794  13.233
49555W        W21980  14.932  17.806   4.685
49556W        W21981  30.700  44.860  13.462
49557W        W21982  16.281  11.831   1.282
49558W        W21983  18.421  19.187  14.447
49559W        W21984   7.731   0.386   4.792
49560W        W21985  23.124   0.838  14.466
49561W        W21986  35.203   2.483  10.778
49562W        W21987  34.344  28.012   0.661
49563W        W21988   2.046  24.491   3.905
49564W        W21989   0.772  33.444   1.510
49565W        W21990  40.925  36.776  11.604
49566W        W21991   5.145  31.009   1.391
49567W        W21992  43.061  42.722   4.770
49568W        W21993   4.459  37.015  12.007
49569W        W21994   7.361  42.920  13.723
49570W        W21995   0.881  19.295  13.301
49571W        W21996  29.968  16.265  13.937
49572W        W21997  23.849  14.127  10.614
49573W        W21998  14.102  23.316  13.849
49574W        W21999  26.912  38.858  11.570
49575W        W22000  27.941  30.633  13.778
49576W        W22001  14.640  22.698  11.980
49577W        W22002  22.417   4.660  13.885
49578W        W22003  10.732  42.238   4.393
49579W        W22004  28.719  11.844   1.740
49580W        W22005  14.219  16.223  14.353
49581W        W22006  22.130   4.429  12.416
49582W        W22007  15.195  41.270   3.830
49583W        W22008  38.438  14.690   2.136
49584W        W22009  18.180  19.341  12.229
49585W        W22010  14.044  42.639  13.810
49586W        W22011  12.385  33.127  12.477
49587W        W22012  41.909  33.713  12.520
49588W        W22013  19.796  14.595   4.159
49589W        W22014  14.027  38.525  11.307
49590W        W22015  12.087  16.267   0.303
49591W        W22016  33.888  38.416  13.844
49592W        W22017  15.662  20.008  13.116
49593W        W22018   6.607   9.677   0.883
49594W        W22019  27.004  12.156   4.085
49595W        W22020  42.009  26.149   1.434
49596W        W22021  35.667   5.331  13.745
49597W        W22022  10.352  20.960  13.960
49598W        W22023  35.662  23.559  13.004
49599W        W22024   3.431  17.185  10.540
49600W        W22025  35.574  22.219   2.945
49601W        W22026  12.651  28.908  11.057
49602W        W22027  32.415  10.596  11.216
49603W        W22028  26.101  42.316   2.740
49604W        W22029  26.714  42.859  12.413
49605W        W22030  28.936  39.670  11.400
49606W        W22031   1.486  14.692   3.183
49607W        W22032  15.734  37.628  11.567
49608W        W22033  30.175   4.492  12.939
49609W        W22034   7.446   5.429   2.719
49610W        W22035  42.141  41.499   1.935
49611W        W22036  18.517  37.491   4.624
49612W        W22037   1.865  12.217  13.982
49613W        W22038  25.643  43.798   3.227
49614W        W22039  33.661   2.957   4.911
49615W        W22040  13.220  41.798   3.942
49616W        W22041   5.343  35.377  11.589
49617W        W22042  27.712  16.220  12.992
49618W        W22043  26.512  44.253  11.051
49619W        W22044  43.861   7.288  13.561
49620W        W22045  31.809  29.732  11.642
49621W        W22046   6.103  35.853  10.564
49622W        W22047   3.681  17.640  10.990
49623W        W22048   0.845  28.143  14.828
49624W        W22049  11.743   4.932  14.759
49625W        W22050  36.513   2.696  12.575
49626W        W22051  18.682  43.883  10.537
49627W        W22052  15.272  39.449   2.729
49628W        W22053  38.569  19.738  12.588
49629W        W22054  41.455  44.873  10.732
49630W        W22055   1.338  21.006  12.333
49631W        W22056  11.726   5.153   0.260
49632W        W22057  28.748   9.339   2.661
49633W        W22058   4.317  39.044   4.793
49634W        W22059  11.553   6.180   3.103
49635W        W22060   5.942   8.499  12.946
49636W        W22061  14.255  10.679  11.990
49637W        W22062  25.959   8.647  10.662
49638W        W22063  42.250  11.064  11.135
49639W        W22064  11.875  16.506   3.698
49640W        W22065   1.034  35.451  11.603
49641W        W22066  27.499  39.054  14.306
49642W        W22067   4.684   6.267  12.497
49643W        W22068   7.203  22.301   4.586
49644W        W22069  22.678  37.389   1.929
49645W        W22070  34.022  39.427  12.910
49646W        W22071  33.650  26.878  12.527
49647W        W22072  22.468  28.573   0.957
49648W        W22073   5.878   1.240  14.255
49649W        W22074   6.888  29.963  12.629
49650W        W22075  30.929  37.463   2.905
49651W        W22076  39.465  40.437   3.131
49652W        W22077  14.066  38.916   3.360
49653W        W22078   2.740   3.904  12.076
49654W        W22079   7.275  33.098   5.234
49655W        W22080   0.374  35.891   4.424
49656W        W22081  42.275  35.856   0.439
49657W        W22082  32.643   7.940   4.193
49658W        W22083   1.363   0.904  12.909
49659W        W22084  39.381  22.705  11.908
49660W        W22085  33.325  17.699  12.016
49661W        W22086  30.344  10.314  14.513
49662W        W22087   8.660  38.554  14.833
49663W        W22088  11.062   8.806  11.151
49664W        W22089   7.616  20.068  12.470
49665W        W22090  10.362  12.707  10.217
49666W        W22091  11.572  43.125   3.227
49667W        W22092  38.538  16.623   4.136
49668W        W22093  25.939  39.880  10.623
49669W        W22094  37.514  38.555   2.152
49670W        W22095  31.103  37.435  12.438
49671W        W22096  41.984   9.422  12.532
49672W        W22097  41.785   4.909   3.706
49673W        W22098  33.612  40.220   0.893
49674W        W22099  37.054   0.358   1.590
49675W        W22100  41.981  41.864   3.360
49676W        W22101  11.829  16.551   4.555
49677W        W22102  15.286  41.834  10.712
49678W        W22103  38.957   8.072   2.307
49679W        W22104  33.937  23.661  10.632
49680W        W22105  25.944   0.453   4.349
49681W        W22106  26.873  15.556   3.430
49682W        W22107   5.162  24.567   2.094
49683W        W22108   0.015  41.318   0.981
49684W        W22109  37.016   9.793  13.912
49685W        W22110  25.671  18.606   0.449
49686W        W22111  31.569  29.161  14.039
49687W        W22112  41.947  13.943  10.314
49688W        W22113  15.744   3.826   4.940
49689W        W22114  39.982   0.529  10.644
49690W        W22115  18.627  24.336  13.669
49691W        W22116  19.728   6.697   2.631
49692W        W22117  11.345  39.313  12.183
49693W        W22118   4.699   9.196   2.000
49694W        W22119  42.874   9.436   2.689
49695W        W22120  23.700  33.404   0.932
49696W        W22121  22.158  12.484  12.868
49697W        W22122  33.947  39.499   0.233
49698W        W22123  35.015   9.264   3.308
49699W        W22124  22.927  22.070   1.293
49700W        W22125  28.346   9.773   4.589
49701W        W22126  33.363   5.716  13.827
49702W        W22127  26.902  22.661   0.920
49703W        W22128   3.721  41.613  13.464
49704W        W22129  10.456  44.757   0.143
49705W        W22130   8.179   8.919  12.543
49706W        W22131   0.851  10.278   2.804
49707W        W22132  10.440   4.279  10.177
49708W        W22133  34.792  21.688   0.687
49709W        W22134  27.399  10.900   2.134
49710W        W22135  26.662  38.487   0.967
49711W        W22136  36.917  11.780  14.834
49712W        W22137  27.794  16.306   1.704
49713W        W22138  19.525  17.652  13.438
49714W        W22139   1.308  31.589   0.270
49715W        W22140  19.550  35.093  13.879
49716W        W22141   3.758   4.249   3.868
49717W        W22142  37.740  23.164   5.431
49718W        W22143  12.991  14.861   2.877
49719W        W22144  17.731   7.111   3.796
49720W        W22145   9.095  10.448  14.836
49721W        W22146  32.437  24.197   1.383
49722W        W22147  27.944  22.496  13.010
49723W        W22148   8.105   6.463  10.654
49724W        W22149  27.444   4.272   0.727
49725W        W22150  21.637  26.979  13.387
49726W        W22151   3.899   1.155   2.419
49727W        W22152  16.103   9.936  13.969
49728W        W22153  20.154  20.287   2.109
49729W        W22154  38.864   4.700   3.290
49730W        W22155  12.133   3.187  13.447
49731W        W22156  32.923  35.959   2.635
49732W        W22157   6.959  42.062  12.433
49733W        W22158  31.955   9.130   1.331
49734W        W22159  34.250  12.430  11.611
49735W        W22160  35.512   4.545   2.699
49736W        W22161  33.834  31.916  13.510
49737W        W22162  29.523  43.302  11.113
49738W        W22163  44.102  34.132  13.511
49739W        W22164  41.005  24.757  12.882
49740W        W22165  20.669  29.634   3.225
49741W        W22166  34.894  25.014  13.361
49742W        W22167  28.470   7.311  11.986
49743W        W22168  44.354  24.586   0.262
49744W        W22169  19.758  33.508  14.385
49745W        W22170  42.189  16.603  14.518
49746W        W22171  37.539  12.244   0.962
49747W        W22172  28.672  12.255   0.969
49748W        W22173  32.653  20.708  13.409
49749W        W22174  32.330  38.042  12.093
49750W        W22175  15.728  40.437   3.117
49751W        W22176  12.736  14.581  10.915
49752W        W22177  41.839   7.428  14.810
49753W        W22178  28.234  38.862   4.568
49754W        W22179  23.583  10.368  14.199
49755W        W22180   6.798  25.258   2.741
49756W        W22181   5.834  30.651   3.858
49757W        W22182  19.738  37.196  13.100
49758W        W22183  39.397  37.550  13.411
49759W        W22184  21.529  39.436   4.302
49760W        W22185  39.928   6.801  11.044
49761W        W22186  32.041  44.721   2.407
49762W        W22187   5.422   6.885  10.635
49763W        W22188  37.374  20.214   0.878
49764W        W22189   0.282  25.000   4.036
49765W        W22190  33.380  40.838   3.708
49766W        W22191  24.742  38.324  13.853
49767W        W22192  14.021  12.827   3.123
49768W        W22193  32.066  43.380  12.009
49769W        W22194   2.779  13.063  14.766
49770W        W22195   9.790  34.569   4.538
49771W        W22196   7.610  30.573   3.737
49772W        W22197  26.454  15.707  13.081
49773W        W22198   3.263  23.454   3.920
49774W        W22199  40.060  10.122  11.184
49775W        W22200  43.952  34.939   3.259
49776W        W22201   0.271  19.288  11.098
49777W        W22202  19.019  34.014   1.865
49778W        W22203  12.257  36.672   0.819
49779W        W22204  30.091  19.401  10.415
49780W        W22205   7.851   8.832   5.222
49781W        W22206  28.093  17.292  13.025
49782W        W22207  10.140  23.959  13.999
49783W        W22208   7.798  10.237  11.525
49784W        W22209  43.922   7.459   1.759
49785W        W22210  13.890  41.894  14.407
49786W        W22211  22.736  21.293   3.395
49787W        W22212  44.945   0.811   1.409
49788W        W22213  26.638  42.051   0.615
49789W        W22214  25.464  11.091  14.430
49790W        W22215  19.302  30.070   4.759
49791W        W22216   4.692  10.359  14.503
49792W        W22217  34.913  43.279   2.439
49793W        W22218  44.493  40.226   4.565
49794W        W22219  21.613   9.908   1.181
49795W        W22220  42.178  18.869  11.647
49796W        W22221  44.446  11.146  14.809
49797W        W22222  13.490  24.918  14.882
49798W        W22223  15.645  16.892  10.148
49799W        W22224   9.083   2.317   3.257
49800W        W22225   5.707  24.629   2.107
49801W        W22226  37.362  21.263  12.421
49802W        W22227   0.649   6.282  11.860
49803W        W22228  42.733  25.143   2.698
49804W        W22229  36.549   2.816   1.894
49805W        W22230   2.496  25.624   2.307
49806W        W22231   2.264  23.106  13.368
49807W        W22232   1.412   0.597  11.923
49808W        W22233  19.168  23.562  13.420
49809W        W22234   6.120  13.195   1.335
49810W        W22235  20.227  21.528  13.894
49811W        W22236  24.717   4.792   2.265
49812W        W22237  19.846   0.901   4.061
49813W        W22238   6.236  30.856  13.603
49814W        W22239   2.560   9.273  14.343
49815W        W22240  35.237  10.247   2.446
49816W        W22241   4.945   5.382  13.429
49817W        W22242  14.494  40.518   1.790
49818W        W22243  18.020  34.880   0.926
49819W        W22244  21.235  16.876   0.592
49820W        W22245   3.708   6.328  13.855
49821W        W22246  16.773  31.327   3.759
49822W        W22247  36.328  36.737  11.075
49823W        W22248   9.686  35.935  12.370
49824W        W22249  44.930  16.027   0.709
49825W        W22250   0.768   1.314  12.143
49826W        W22251   4.164  29.113   3.189
49827W        W22252  35.446  25.495  11.537
49828W        W22253  21.813  27.039   0.830
49829W        W22254  41.574  19.577   2.409
49830W        W22255  41.211  36.882   0.918
49831W        W22256  12.787  30.377  13.909
49832W        W22257  42.150  24.264  13.980
49833W        W22258   4.016  13.637  13.849
49834W        W22259  33.710  13.560  11.127
49835W        W22260  36.009  10.091   1.227
49836W        W22261   4.430  41.201  11.375
49837W        W22262  44.954  26.131  12.550
49838W        W22263  27.162  13.563   0.322
49839W        W22264  21.697  18.032   2.055
49840W        W22265  42.392   1.114   1.769
49841W        W22266  18.153  28.098  11.195
49842W        W22267  29.853  18.676  10.163
49843W        W22268   0.951   9.782   1.712
49844W        W22269  41.165  38.450  13.048
49845W        W22270  22.279  26.141   4.231
49846W        W22271  33.559  35.129  12.929
49847W        W22272  35.515  22.586   4.185
49848W        W22273  27.553  22.653  14.309
49849W        W22274  44.424  11.253   4.829
49850W        W22275  28.468  25.525  13.533
49851W        W22276  40.223  24.717   0.554
49852W        W22277  33.373   1.956  14.387
49853W        W22278   5.848  25.603  12.066
49854W        W22279   1.246  24.278   2.787
49855W        W22280  31.051  30.089  13.445
49856W        W22281  21.793  40.017   2.967
49857W        W22282   8.208  34.777  12.899
49858W        W22283  35.920  18.555   1.209
49859W        W22284  26.608  26.640   4.155
49860W        W22285  17.099  32.204  10.623
49861W        W22286  17.617  24.775   2.320
49862W        W22287  19.963  30.146  14.177
49863W        W22288  23.186  21.088   3.160
49864W        W22289   9.979  42.849  11.134
49865W        W22290  32.148  39.326  13.826
49866W        W22291  35.762  29.629  12.042
49867W        W22292   7.890  26.087  14.487
49868W        W22293  24.496  19.351   3.633
49869W        W22294  16.620  19.638  12.857
49870W        W22295  31.063  36.408  10.717
49871W        W22296  41.912  22.154  14.725
49872W        W22297  16.556  18.877   1.431
49873W        W22298  26.032  26.024  11.522
49874W        W22299  23.222  17.511   1.424
49875W        W22300  41.438  28.408  13.403
49876W        W22301  24.651  22.097  14.748
49877W        W22302  23.345  29.678   0.497
49878W        W22303  14.103   6.908   1.728
49879W        W22304  11.820  40.945   1.389
49880W        W22305  15.315  20.099   0.707
49881W        W22306  37.546   7.186   0.781
49882W        W22307  20.749   0.667  12.881
49883W        W22308   3.431  11.638   3.644
49884W        W22309  24.995   1.616   4.246
49885W        W22310  26.144  11.507   4.244
49886W        W22311  12.143   1.673   3.967
49887W        W22312  26.577  43.241   0.801
49888W        W22313   6.936  20.218  12.939
49889W        W22314  34.649  23.536  11.170
49890W        W22315  16.245  29.206  11.837
49891W        W22316  22.977  34.053  11.614
49892W        W22317  10.272  43.105   4.984
49893W        W22318  11.093  20.763  12.932
49894W        W22319  10.611   1.869   1.313
49895W        W22320  42.862   3.396   4.615
49896W        W22321  16.760  26.587  12.685
49897W        W22322  42.720   3.653   4.164
49898W        W22323  27.756   4.225  11.203
49899W        W22324  13.632  19.664   1.684
49900W        W22325  38.664  27.419   0.236
49901W        W22326   3.350   0.035   2.244
49902W        W22327  11.706  40.690  12.323
49903W        W22328  14.329  23.278   1.167
49904W        W22329  38.576  30.863  11.617
49905W        W22330  27.363  36.018  14.550
49906W        W22331  18.034  26.690  10.814
49907W        W22332  43.018  39.432   2.617
49908W        W22333  27.245   5.054  14.934
49909W        W22334   0.821  34.870   3.987
49910W        W22335  24.940  14.718   2.325
49911W        W22336   7.133  15.316  11.998
49912W        W22337  28.531  44.900   3.280
49913W        W22338  15.138  40.835   2.345
49914W        W22339  44.850   0.157  14.510
49915W        W22340  31.084  43.810   4.176
49916W        W22341   2.090   0.957   1.859
49917W        W22342  32.662  22.562  14.836
49918W        W22343  43.919   5.647   2.418
49919W        W22344   8.374  25.250  14.817
49920W        W22345  11.400  12.698   4.538
49921W        W22346  19.292  33.165   1.181
49922W        W22347  43.128  35.320   0.205
49923W        W22348  20.462  34.330  12.927
49924W        W22349  28.471  21.660   2.785
49925W        W22350  18.511  21.026   0.262
49926W        W22351  11.814  44.264   0.956
49927W        W22352  14.819  31.180  13.447
49928W        W22353   3.306  18.605  12.384
49929W        W22354   6.755  24.591  12.852
49930W        W22355  39.906   0.313  12.291
49931W        W22356   5.731  38.759  10.733
49932W        W22357  37.713  19.278   0.005
49933W        W22358   5.772  28.480   1.205
49934W        W22359  28.978  39.293   4.002
49935W        W22360   9.885  37.266   0.890
49936W        W22361  28.997  23.658   1.238
49937W        W22362  23.441  44.198  12.492
49938W        W22363   2.363  35.586   1.515
49939W        W22364  38.188  33.916  13.648
49940W        W22365  19.425  43.248   2.404
49941W        W22366   4.988  31.497  12.415
49942W        W22367  20.523  36.160  12.873
49943W        W22368   6.823  29.814  12.033
49944W        W22369   9.900  41.347   3.971
49945W        W22370  35.479   9.457  14.299
49946W        W22371   8.407  19.091   1.819
49947W        W22372  42.504   1.233   3.219
49948W        W22373  24.878  21.822  11.187
49949W        W22374  37.785  24.534  13.410
49950W        W22375  39.627  33.939   4.316
49951W        W22376  41.485  20.252   1.016
49952W        W22377   2.604  25.893  12.046
49953W        W22378  20.757  18.793  12.548
49954W        W22379  36.743  37.429  13.360
49955W        W22380  44.183  38.990  13.111
49956W        W22381  41.489  19.517   3.637
49957W        W22382   1.748  25.040   0.412
49958W        W22383   1.089  30.437  12.011
49959W        W22384  24.333  10.768   1.288
49960W        W22385   5.239  31.574   0.861
49961W        W22386   3.390  18.543  11.893
49962W        W22387  31.286  15.700  13.607
49963W        W22388  14.798   5.901  13.266
49964W        W22389  21.265  16.036  11.625
49965W        W22390  38.773  37.494   4.562
49966W        W22391  26.501   0.305   0.776
49967W        W22392  14.796  16.116  10.574
49968W        W22393   0.709  35.508  14.131
49969W        W22394  42.307  10.736   9.831
49970W        W22395   9.311   0.177   0.360
49971W        W22396  18.564  33.158   4.200
49972W        W22397  21.578  39.179   2.485
49973W        W22398  14.357   3.994  11.047
49974W        W22399  17.982  30.453   1.049
49975W        W22400  13.929  23.967  13.319
49976W        W22401   5.363  24.674  10.741
49977W        W22402   3.799  21.562   1.249
49978W        W22403  16.317  10.413  11.690
49979W        W22404  15.893   7.634  12.081
49980W        W22405  19.678  27.395  14.268
49981W        W22406  21.557  42.560   1.945
49982W        W22407  21.608   2.401   3.607
49983W        W22408  30.562  30.039   4.118
49984W        W22409   3.876  36.163   0.044
49985W        W22410  28.625   6.920  12.349
49986W        W22411  26.721   3.739  13.280
49987W        W22412  13.627  41.454   0.375
49988W        W22413  11.394  30.170  11.302
49989W        W22414  43.099  13.583   1.355
49990W        W22415  33.049  44.235  11.965
49991W        W22416   4.807  32.538   1.862
49992W        W22417  39.914  10.547   2.445
49993W        W22418  37.066   6.715   3.702
49994W        W22419  29.555  27.440   2.316
49995W        W22420  16.747  12.378   4.805
49996W        W22421  31.837  29.287  13.017
49997W        W22422  25.676  36.981   2.590
49998W        W22423  24.569  35.661  13.030
49999W        W22424  44.485  42.040  13.589
50000W        W22425  36.716  38.760   4.275
50001W        W22426  19.558  20.764  13.071
50002W        W22427  23.429   6.775  13.965
50003W        W22428  17.680  27.230   1.145
50004W        W22429  36.770  17.238  13.011
50005W        W22430  38.027  44.478  10.227
50006W        W22431  30.097  11.545  10.444
50007W        W22432  36.682   7.142   0.943
50008W        W22433   3.960   7.680  12.152
50009W        W22434   5.232  39.546  10.749
50010W        W22435   9.371   8.917   5.144
50011W        W22436  29.574  25.875   4.708
50012W        W22437   9.952   7.882   2.241
50013W        W22438  25.995  41.329  14.933
50014W        W22439  24.027  24.735   3.220
50015W        W22440  41.038   2.934  11.628
50016W        W22441   3.983   6.432   0.875
50017W        W22442  43.391  41.746   0.868
50018W        W22443   0.492  17.288   2.716
50019W        W22444   1.307  42.402  14.928
50020W        W22445   5.386  13.468  14.020
50021W        W22446   8.825  29.959  12.980
50022W        W22447  34.486  26.950  13.879
50023W        W22448  43.831   4.862  12.915
50024W        W22449  28.999  17.882   3.131
50025W        W22450  35.881  42.276  14.385
50026W        W22451  32.971  22.799   1.296
50027W        W22452  37.036  25.747   4.299
50028W        W22453  21.695  20.068  11.919
50029W        W22454  27.648  31.857  14.770
50030W        W22455   3.318  13.189  10.411
50031W        W22456  28.178  35.043   0.373
50032W        W22457  14.895  40.068   2.161
50033W        W22458   9.148  37.507  10.610
50034W        W22459   4.394   3.308   1.025
50035W        W22460  38.124  25.758  10.921
50036W        W22461  23.179   4.088   3.222
50037W        W22462  12.161  10.401   0.213
50038W        W22463   2.340  32.216   5.284
50039W        W22464  32.381  21.597   4.815
50040W        W22465  16.804  20.937   1.125
50041W        W22466   6.952  43.920   3.625
50042W        W22467  17.171  26.749  12.929
50043W        W22468  40.193  41.208  12.664
50044W        W22469   2.900  23.235  11.016
50045W        W22470   5.429  13.163  14.908
50046W        W22471  43.710  31.067   1.710
50047W        W22472   7.245  26.834   0.997
50048W        W22473   1.955  11.331  11.962
50049W        W22474  17.129   8.149  14.540
50050W        W22475   7.540  14.642   1.291
50051W        W22476  28.512  24.945   1.636
50052W        W22477  36.130  31.600   4.462
50053W        W22478  37.918  25.534  14.880
50054W        W22479   4.337  34.662  14.549
50055W        W22480  43.421  32.321   1.934
50056W        W22481  30.569   0.313  12.232
50057W        W22482   6.453  28.108   0.293
50058W        W22483  40.543  43.312  11.912
50059W        W22484  28.572  22.095   3.092
50060W        W22485   6.497  20.795  13.611
50061W        W22486   6.425   8.137  10.680
50062W        W22487  17.594  38.284   4.573
50063W        W22488  37.430   2.933  14.971
50064W        W22489  11.798  41.447   3.319
50065W        W22490  42.568  38.638   3.729
50066W        W22491  33.472  35.803   4.220
50067W        W22492  23.117  10.822  12.376
50068W        W22493  13.448  28.045   0.514
50069W        W22494  24.269  44.756  12.546
50070W        W22495  18.107  35.564  12.334
50071W        W22496  29.680  13.125  12.379
50072W        W22497  18.517   6.905   4.146
50073W        W22498  39.302  19.986   3.297
50074W        W22499  16.617  15.105   1.656
50075W        W22500  33.112  19.706  14.072
50076W        W22501  20.058  26.243   4.599
50077W        W22502  43.028  40.578  14.547
50078W        W22503  40.906  23.769   4.649
50079W        W22504   0.331  17.401  14.941
50080W        W22505  20.555  37.556   3.771
50081W        W22506  28.005   7.232  13.969
50082W        W22507  22.715   3.457  10.086
50083W        W22508  41.440  34.477   2.702
50084W        W22509  38.324   9.623  10.489
50085W        W22510  19.598  34.009  11.335
50086W        W22511  19.749  44.458   1.200
50087W        W22512  13.592  35.335  13.330
50088W        W22513  30.404  16.680  14.424
50089W        W22514  34.596   6.697   2.796
50090W        W22515   4.356   3.718   4.344
50091W        W22516  11.814  31.530   4.310
50092W        W22517  11.432  37.384  10.214
50093W        W22518  40.465  39.936  13.885
50094W        W22519   7.992   5.845   0.012
50095W        W22520  30.635  19.794  13.578
50096W        W22521  25.184   4.683   3.744
50097W        W22522   4.030  13.487   1.168
50098W        W22523  31.612  40.535  11.468
50099W        W22524  34.175  10.634   1.415
50100W        W22525   5.243  13.738  10.637
50101W        W22526   2.539   9.718   4.096
50102W        W22527  42.317   1.188   3.744
50103W        W22528   6.827   0.042   3.261
50104W        W22529  18.951  44.034   1.519
50105W        W22530  26.861  16.784   2.336
50106W        W22531  42.000   5.841  13.436
50107W        W22532  43.956  43.013  10.725
50108W        W22533   1.079  30.847  13.986
50109W        W22534  38.729  36.903   0.713
50110W        W22535   9.336  37.192  14.038
50111W        W22536   6.066   4.641   4.615
50112W        W22537  10.829  40.028   3.147
50113W        W22538   3.174  23.155   3.151
50114W        W22539  24.931  23.472  12.473
50115W        W22540  24.079  35.100   4.110
50116W        W22541  15.631   6.413  13.469
50117W        W22542  16.321  23.692   1.783
50118W        W22543  16.726  26.258  13.919
50119W        W22544  19.556  25.078  14.381
50120W        W22545  33.172  43.054  12.601
50121W        W22546  21.480  28.630   0.806
50122W        W22547  10.369  26.366  10.222
50123W        W22548   1.972  39.193   2.386
50124W        W22549  19.033  33.069   3.291
50125W        W22550  32.870  31.017   0.562
50126W        W22551  23.044  31.039   0.695
50127W        W22552  24.654   5.120  12.542
50128W        W22553  10.259  39.116   4.617
50129W        W22554   2.315  29.242   1.459
50130W        W22555  12.282   9.900   0.215
50131W        W22556  21.981   2.322  13.232
50132W        W22557   0.589  14.222  12.021
50133W        W22558  14.924  24.042   4.151
50134W        W22559   9.967  12.233  12.408
50135W        W22560  12.829  39.870   1.250
50136W        W22561  30.685  12.038   4.898
50137W        W22562  23.738  35.105  12.892
50138W        W22563  35.520  38.896   3.924
50139W        W22564  12.665  31.495  12.448
50140W        W22565  44.557  11.345   0.902
50141W        W22566  22.487   9.739  14.287
50142W        W22567  27.617  11.905  13.915
50143W        W22568  25.108  37.850   4.708
50144W        W22569  30.646   0.720   1.729
50145W        W22570  21.138  41.010  12.022
50146W        W22571  39.441  10.562   4.029
50147W        W22572   9.557  18.596  14.964
50148W        W22573   8.713   7.191   4.635
50149W        W22574  29.749  23.762   3.719
50150W        W22575  16.668  37.529   1.309
50151W        W22576   0.841   7.290   3.650
50152W        W22577  17.149   0.220   0.968
50153W        W22578  42.533  24.616  14.050
50154W        W22579  30.950  42.558  12.042
50155W        W22580  17.538  17.115  13.438
50156W        W22581  39.596  27.696  13.222
50157W        W22582  34.770   9.563  11.424
50158W        W22583  10.106   8.721   4.663
50159W        W22584  28.174  42.400  14.502
50160W        W22585  30.623  25.175  12.776
50161W        W22586   0.996   4.628   1.304
50162W        W22587  22.568  43.302  11.517
50163W        W22588  11.907   9.017  12.997
50164W        W22589  38.021  35.854   4.634
50165W        W22590   9.886  19.236   2.794
50166W        W22591  40.129  41.782   2.295
50167W        W22592   4.713   8.585   2.278
50168W        W22593  23.093  30.114  13.283
50169W        W22594  23.938  13.873   3.085
50170W        W22595  20.186  11.393  12.136
50171W        W22596  30.625  32.959   3.654
50172W        W22597   7.735   4.572   0.910
50173W        W22598  43.933  29.061   3.810
50174W        W22599  27.951  16.012  14.349
50175W        W22600   3.334  35.562   1.952
50176W        W22601  29.941  37.369  13.328
50177W        W22602  18.216   0.484   1.764
50178W        W22603  37.391  41.596   2.197
50179W        W22604  27.970  15.567   4.186
50180W        W22605  33.140   7.967   1.674
50181W        W22606   1.813   9.885  14.343
50182W        W22607  35.090  37.556  11.153
50183W        W22608  36.330  25.845  10.901
50184W        W22609  39.463  28.572  13.726
50185W        W22610  10.302  16.739  10.361
50186W        W22611  19.771  12.580   2.832
50187W        W22612  39.914  32.485  11.970
50188W        W22613  44.261  37.320   0.276
50189W        W22614  31.872  12.801  10.614
50190W        W22615   8.193  19.346  12.448
50191W        W22616   3.100  13.772   3.866
50192W        W22617  36.638  11.296  13.949
50193W        W22618   8.711   8.679  13.799
50194W        W22619  28.986  10.846   0.721
50195W        W22620  17.380  43.746  12.486
50196W        W22621   8.488   4.219  14.775
50197W        W22622  27.122  42.081  13.032
50198W        W22623  14.143  43.055  13.522
50199W        W22624  43.689  39.408  13.475
50200W        W22625  14.691  35.868  14.324
50201W        W22626  33.637   4.672  10.729
50202W        W22627  33.929  21.341   4.533
50203W        W22628  44.323  39.839   2.160
50204W        W22629  31.923   9.778   4.586
50205W        W22630  37.788  25.053  11.453
50206W        W22631   8.154  31.567  11.638
50207W        W22632   9.203  10.875  12.383
50208W        W22633  18.812  39.501   0.260
50209W        W22634  34.674  40.037   0.433
50210W        W22635   7.842  11.610  14.789
50211W        W22636  38.252   4.842  10.858
50212W        W22637  31.606  28.335  12.266
50213W        W22638  30.798  33.661  14.393
50214W        W22639  33.458  27.629  10.709
50215W        W22640  29.044  26.031   0.917
50216W        W22641   3.833  30.598   2.984
50217W        W22642  15.855  31.563  14.736
50218W        W22643  20.130  31.955   0.176
50219W        W22644  25.751  43.903  14.364
50220W        W22645  20.337  41.797  11.111
50221W        W22646  24.375  21.628  14.813
50222W        W22647  25.218   5.793   2.846
50223W        W22648  10.276  30.051  12.227
50224W        W22649  14.277  36.305   5.076
50225W        W22650  30.568  32.660  14.456
50226W        W22651  35.073  20.416   1.018
50227W        W22652   1.466  13.464  10.479
50228W        W22653   7.885  39.321   0.471
50229W        W22654  42.354   7.716  13.369
50230W        W22655  24.469  24.552  13.314
50231W        W22656  19.019  16.792  12.595
50232W        W22657   1.347  23.027   3.222
50233W        W22658  19.243  38.635   4.241
50234W        W22659  27.521  34.374   0.404
50235W        W22660  43.346  43.906   1.649
50236W        W22661  34.087  44.901   4.723
50237W        W22662  26.374  11.088   2.389
50238W        W22663  42.477  28.030  10.927
50239W        W22664  20.526   5.833  14.773
50240W        W22665  22.696  13.905   9.923
50241W        W22666  20.694  21.259   2.413
50242W        W22667  29.074   4.070  13.955
50243W        W22668  33.850  12.286   4.953
50244W        W22669  15.689  43.213   1.364
50245W        W22670  41.583  36.432   4.291
50246W        W22671  42.386  16.972   1.767
50247W        W22672  11.204  12.827   0.101
50248W        W22673  39.809  24.188  12.615
50249W        W22674  25.654  14.076   0.756
50250W        W22675  21.159  36.148  11.730
50251W        W22676   6.457  41.023   4.656
50252W        W22677   6.380  22.164   3.641
50253W        W22678  34.640  14.777   4.479
50254W        W22679  14.553   3.125   3.649
50255W        W22680   9.596  16.086  12.401
50256W        W22681  19.570  12.431   4.077
50257W        W22682  25.940  25.429  11.123
50258W        W22683  43.473  29.596  14.443
50259W        W22684  16.048  37.067  11.944
50260W        W22685  40.739  44.305   4.565
50261W        W22686  20.701  44.422   1.930
50262W        W22687  32.489   5.335  12.627
50263W        W22688  20.294  21.183   1.639
50264W        W22689   4.341  27.184  14.500
50265W        W22690  44.526   0.987  12.503
50266W        W22691  38.518  10.933   0.840
50267W        W22692  37.938   7.794  13.521
50268W        W22693  21.180  15.716  13.860
50269W        W22694  32.409  25.173  13.800
50270W        W22695   8.688  31.526   0.971
50271W        W22696   8.526  41.950  14.496
50272W        W22697  16.783  35.435   3.931
50273W        W22698  43.014  20.112  13.350
50274W        W22699  39.272  27.420   3.334
50275W        W22700  24.410  12.764  10.581
50276W        W22701   1.364  36.589  13.577
50277W        W22702   6.332  11.772  12.584
50278W        W22703  37.621  22.489  12.780
50279W        W22704  12.602  37.385  10.833
50280W        W22705   6.734  26.250   0.005
50281W        W22706  12.789  21.800   2.274
50282W        W22707  13.059  24.235  13.844
50283W        W22708  35.895  36.619   2.726
50284W        W22709  28.511  44.056   1.779
50285W        W22710  41.872  18.562   2.903
50286W        W22711  18.211  18.998   0.910
50287W        W22712   1.253  20.311  10.725
50288W        W22713  44.670  30.796  10.461
50289W        W22714  28.072  11.948   1.054
50290W        W22715  33.867  10.842   1.752
50291W        W22716  10.278   3.439   4.604
50292W        W22717  25.965  26.651  14.057
50293W        W22718  11.177  38.039  12.492
50294W        W22719   3.366   6.895  13.883
50295W        W22720  33.848   0.222   2.663
50296W        W22721  20.453  26.503  11.688
50297W        W22722   6.828   6.746   3.290
50298W        W22723  38.317  19.651   1.501
50299W        W22724  11.360  32.841  11.035
50300W        W22725  33.942  14.335  11.471
50301W        W22726  39.531  44.486   2.336
50302W        W22727   1.810  25.656   2.641
50303W        W22728   4.879  41.358  13.942
50304W        W22729  20.584  21.220   0.490
50305W        W22730  40.331  39.639   0.774
50306W        W22731  42.199  38.058   1.862
50307W        W22732  26.433   6.896  12.903
50308W        W22733  42.198  37.278   0.033
50309W        W22734  22.771   0.862  10.640
50310W        W22735  19.476  26.457  11.869
50311W        W22736  11.679  26.588   3.200
50312W        W22737   8.391   6.877  11.540
50313W        W22738  41.536  17.261   2.406
50314W        W22739  37.422  30.453  13.619
50315W        W22740  35.343  25.251  13.414
50316W        W22741   9.153  35.518   0.436
50317W        W22742  25.928  33.039   4.426
50318W        W22743  37.079   9.290  13.542
50319W        W22744  22.125  11.880  11.471
50320W        W22745   5.764  34.138  10.727
50321W        W22746  42.261  12.812  10.405
50322W        W22747  24.456  20.629  14.875
50323W        W22748  11.910   2.905   3.168
50324W        W22749  21.238   0.888   0.497
50325W        W22750  19.953   2.388   1.751
50326W        W22751  28.085   9.438  10.400
50327W        W22752  42.566  18.689   2.499
50328W        W22753  43.173  29.730  14.883
50329W        W22754  14.074  11.401  13.562
50330W        W22755  20.357  19.534   0.473
50331W        W22756   6.458  11.356   4.947
50332W        W22757  14.027  10.736  13.920
50333W        W22758   8.854  30.259  14.548
50334W        W22759  13.811  16.137   0.976
50335W        W22760  44.388  15.886   2.914
50336W        W22761   7.789  23.295  10.690
50337W        W22762  34.996  38.980   3.832
50338W        W22763  14.739  16.315   3.784
50339W        W22764  11.225  42.156   2.204
50340W        W22765   8.021   1.353   2.490
50341W        W22766  20.289  29.777  14.337
50342W        W22767  32.236  43.764  14.430
50343W        W22768  31.106  17.648  12.802
50344W        W22769  18.826  28.145   2.352
50345W        W22770   7.303   7.636  11.432
50346W        W22771  14.772  36.387   4.546
50347W        W22772  18.054   3.835  13.834
50348W        W22773  29.504  44.244  11.396
50349W        W22774  11.642  37.441  14.275
50350W        W22775   6.666  34.007  14.884
50351W        W22776  39.396  17.316  11.054
50352W        W22777  31.267  35.626  10.803
50353W        W22778  44.050  22.308  11.181
50354W        W22779  14.786  28.813  11.981
50355W        W22780  30.186  17.816   3.234
50356W        W22781  28.122  39.583  12.459
50357W        W22782   3.714  14.792   2.951
50358W        W22783  13.551  22.254   2.166
50359W        W22784  11.839   6.303  10.685
50360W        W22785  39.460  12.264   4.561
50361W        W22786  17.664  41.271   2.707
50362W        W22787  35.027  30.572   0.019
50363W        W22788   9.707  36.709   2.641
50364W        W22789  18.580   1.747  13.314
50365W        W22790   6.775   3.478  11.179
50366W        W22791  23.572   7.900  11.923
50367W        W22792  30.008  15.857  10.629
50368W        W22793  25.110  23.980  12.579
50369W        W22794  44.477  15.784  13.299
50370W        W22795  30.197  13.889  14.335
50371W        W22796   9.889  11.225   2.970
50372W        W22797  37.084  44.000  14.837
50373W        W22798   8.637  25.039  13.517
50374W        W22799   0.881  44.251   0.948
50375W        W22800   1.301  30.246   3.511
50376W        W22801   9.776  28.713   1.710
50377W        W22802  44.916  30.165   1.535
50378W        W22803   8.153  10.611   0.515
50379W        W22804  43.231  22.211  11.203
50380W        W22805  14.590  38.487  12.039
50381W        W22806  34.651  18.188   3.110
50382W        W22807  17.152   2.226  14.003
50383W        W22808  39.014  44.972   1.857
50384W        W22809  25.506  38.807   2.733
50385W        W22810   1.563  28.910   4.481
50386W        W22811  24.247  16.837   3.708
50387W        W22812  31.593  16.227  11.900
50388W        W22813  19.593  24.726  14.768
50389W        W22814   8.329  12.054   3.983
50390W        W22815  16.267  21.292   3.609
50391W        W22816  35.859  29.532   2.863
50392W        W22817  38.343  32.908  10.856
50393W        W22818  27.280  20.717   3.373
50394W        W22819  40.397   1.811   3.782
50395W        W22820  20.190   6.998  11.405
50396W        W22821   5.981  11.587  11.750
50397W        W22822  24.689  28.972  11.529
50398W        W22823  16.322  19.215  13.060
50399W        W22824   4.047   9.154   2.675
50400W        W22825  32.135  14.225  10.828
50401W        W22826   6.284   0.988  13.544
50402W        W22827  44.397  21.097  12.421
50403W        W22828  13.258  40.031   1.572
50404W        W22829   0.483   2.823   3.279
50405W        W22830  35.777  43.863   2.369
50406W        W22831  19.822   0.754  13.400
50407W        W22832  32.659   4.691   0.991
50408W        W22833  11.691  38.504   0.420
50409W        W22834  39.825  22.204   0.470
50410W        W22835  10.610  37.061  14.734
50411W        W22836   8.751  41.536  11.195
50412W        W22837   8.601  41.362   0.925
50413W        W22838  30.870  43.088  12.032
50414W        W22839  18.658  19.019   4.668
50415W        W22840   8.411  13.104  12.584
50416W        W22841   3.229   1.419   2.379
50417W        W22842   0.022  18.796  11.178
50418W        W22843  13.606  31.842  12.629
50419W        W22844  30.394  29.794  12.084
50420W        W22845  22.069   1.699  12.389
50421W        W22846   7.093  26.010   3.126
50422W        W22847  33.156  10.739  12.523
50423W        W22848  15.513  29.277   3.801
50424W        W22849  35.342  16.326   0.853
50425W        W22850  12.777  36.225  11.900
50426W        W22851  16.565  20.763   4.247
50427W        W22852  28.085  18.373  14.371
50428W        W22853   9.207  21.775  12.978
50429W        W22854  34.551  21.432  11.192
50430W        W22855  38.113   2.532   2.863
50431W        W22856  28.502  21.250   0.673
50432W        W22857  16.591  29.614  11.002
50433W        W22858   4.436  28.550  12.920
50434W        W22859  26.585  42.465   0.289
50435W        W22860  10.379  22.661   3.592
50436W        W22861  10.280  41.934  13.420
50437W        W22862   4.967  23.229   3.709
50438W        W22863   7.181   8.970  12.789
50439W        W22864  19.608  32.062  13.927
50440W        W22865   5.763  12.732  13.853
50441W        W22866   6.870   2.417  13.846
50442W        W22867  19.789  30.242   3.917
50443W        W22868   7.199   9.675  13.733
50444W        W22869  29.027  32.790   4.309
50445W        W22870  16.193  13.065   4.592
50446W        W22871   1.495  32.914   0.298
50447W        W22872   6.267  11.384   4.292
50448W        W22873  19.562  28.557   1.289
50449W        W22874  17.646  14.692   1.252
50450W        W22875  41.267  34.332  11.554
50451W        W22876  34.923   1.996   2.333
50452W        W22877  32.217  41.228   1.261
50453W        W22878  40.315  43.689  13.364
50454W        W22879  23.709  37.999   2.648
50455W        W22880  41.827   8.294  14.488
50456W        W22881  36.379  38.723  13.937
50457W        W22882  16.750   9.670  14.588
50458W        W22883  21.115  20.530   1.299
50459W        W22884  35.356  11.735  13.966
50460W        W22885   0.308  26.936   2.139
50461W        W22886  15.838   0.336   3.356
50462W        W22887  32.594  22.041  14.938
50463W        W22888  18.799  43.866   4.816
50464W        W22889  11.753  35.064  14.287
50465W        W22890  23.443  28.557   2.317
50466W        W22891  15.645  27.419  13.534
50467W        W22892   3.549  21.588   0.785
50468W        W22893  15.066  29.607   2.232
50469W        W22894  22.784   1.492  11.450
50470W        W22895   5.958  25.617   1.699
50471W        W22896  13.981  35.369  12.504
50472W        W22897  36.627  28.252  12.533
50473W        W22898   6.853  14.838  13.602
50474W        W22899  16.056   6.429   3.634
50475W        W22900  14.603  24.877   2.344
50476W        W22901  21.724  10.096  11.906
50477W        W22902  17.946  20.858   3.820
50478W        W22903   5.782   5.086   2.380
50479W        W22904  13.772  27.442   1.710
50480W        W22905  35.614  16.040  12.277
50481W        W22906   3.923   5.404  14.957
50482W        W22907   3.977   8.784  14.490
50483W        W22908  18.584   0.918   2.204
50484W        W22909  42.321  43.798   4.907
50485W        W22910   3.728  23.545   4.156
50486W        W22911  32.061  16.265  12.466
50487W        W22912  27.707  36.994  14.397
50488W        W22913  11.655  39.916   4.618
50489W        W22914   2.859  10.228  12.383
50490W        W22915  37.069  36.470  12.659
50491W        W22916   0.257  25.620  11.240
50492W        W22917  30.740  13.751   3.648
50493W        W22918   0.273  15.766   1.206
50494W        W22919  27.189  33.353   2.088
50495W        W22920  24.076   3.996   2.418
50496W        W22921  26.227  44.567   3.216
50497W        W22922   2.791  16.521   2.400
50498W        W22923  25.144  13.092  12.450
50499W        W22924  25.534  26.768  11.410
50500W        W22925  22.535  12.638  11.588
50501W        W22926  20.673  18.794   3.188
50502W        W22927  40.858  12.576   0.945
50503W        W22928  44.552  13.770   0.418
50504W        W22929  20.590   4.029  12.117
50505W        W22930  23.553  29.223   4.625
50506W        W22931  25.626  34.208  13.822
50507W        W22932  20.997  15.602  10.739
50508W        W22933  33.427  44.537   2.242
50509W        W22934  19.151  15.181  10.796
50510W        W22935  22.010  16.189   1.336
50511W        W22936  42.134   0.943  10.593
50512W        W22937  10.781  43.580   0.838
50513W        W22938  14.735   9.787   0.308
50514W        W22939  14.276  34.498  14.926
50515W        W22940  43.805  12.686   4.857
50516W        W22941  32.079  31.038  13.459
50517W        W22942  23.760  17.282  12.007
50518W        W22943  20.025  40.438  10.515
50519W        W22944   3.899  37.821   4.497
50520W        W22945  15.697  28.694  12.899
50521W        W22946   7.313   6.483  13.967
50522W        W22947  36.227  37.637  10.967
50523W        W22948  16.975  36.849   1.506
50524W        W22949  10.774  37.835   2.751
50525W        W22950  33.502   4.413  12.905
50526W        W22951  10.268   5.381   2.546
50527W        W22952  21.181  23.710   3.136
50528W        W22953   2.344   2.353   0.231
50529W        W22954  29.986  25.098   3.408
50530W        W22955   9.939  22.938   2.843
50531W        W22956  21.595  28.369   2.489
50532W        W22957  34.390  34.563   2.915
50533W        W22958  39.140  39.441   3.721
50534W        W22959  12.807  24.281  11.535
50535W        W22960  12.196  35.888   1.675
50536W        W22961  40.898   4.406  12.512
50537W        W22962   5.446   1.509   4.096
50538W        W22963  24.040  36.630   2.857
50539W        W22964  16.984   5.504   3.143
50540W        W22965  35.573  39.396   0.752
50541W        W22966   0.521  44.427   1.765
50542W        W22967   3.369   8.691   0.277
50543W        W22968  43.129  28.446  14.564
50544W        W22969  27.734  16.194  13.920
50545W        W22970  32.086  39.619  12.955
50546W        W22971  25.233  42.766   4.042
50547W        W22972   8.733   6.755   3.547
50548W        W22973   4.937  25.020   2.085
50549W        W22974  12.150  44.306   4.077
50550W        W22975  28.007  32.825  12.021
50551W        W22976  32.442  24.229  12.988
50552W        W22977  25.137  23.722  12.079
50553W        W22978  28.619  30.975   3.737
50554W        W22979  25.579  44.265  11.629
50555W        W22980  20.299  26.561   2.370
50556W        W22981   8.623   5.127  14.861
50557W        W22982   0.522  33.034   4.268
50558W        W22983   3.217  44.185  12.902
50559W        W22984  18.191  31.384  10.966
50560W        W22985  12.684  11.207   2.801
50561W        W22986  35.928  16.579   1.233
50562W        W22987  21.597  44.052  12.931
50563W        W22988  40.293  15.342  13.412
50564W        W22989  32.956  14.084   4.373
50565W        W22990  44.299  28.430  10.667
50566W        W22991  41.747  29.968  14.174
50567W        W22992   9.519  28.363   2.438
50568W        W22993  30.410  28.048   1.842
50569W        W22994  22.295   4.029   1.913
50570W        W22995  12.974  28.680   1.850
50571W        W22996  19.892  31.505  14.996
50572W        W22997   4.759   8.324   0.469
50573W        W22998  15.084  11.967   4.868
50574W        W22999  39.544  33.083   1.745
50575W        W23000  11.903   9.693   2.717
50576W        W23001   9.041  42.964   1.920
50577W        W23002  25.422  32.917   3.188
50578W        W23003  28.305  12.831  14.865
50579W        W23004  20.808   6.727   1.323
50580W        W23005   6.684  27.608   0.448
50581W        W23006  26.249   5.236   2.793
50582W        W23007  37.911  31.175   0.475
50583W        W23008   2.584   4.786  10.274
50584W        W23009  19.569  15.515  10.759
50585W        W23010   2.483  13.151  12.191
50586W        W23011  37.953  20.680   4.739
50587W        W23012  44.647   8.755   5.130
50588W        W23013  18.852  39.854  14.767
50589W        W23014  18.191   2.039   1.942
50590W        W23015  15.618  26.648   2.630
50591W        W23016  14.796  12.840  10.863
50592W        W23017  38.304  20.304   4.905
50593W        W23018  20.132   6.373   2.736
50594W        W23019  12.372  12.129   1.952
50595W        W23020  44.383  11.835  14.387
50596W        W23021  30.874   5.214   3.822
50597W        W23022  17.617  23.190   3.656
50598W        W23023  41.697  20.284  11.524
50599W        W23024  33.030  15.512   4.306
50600W        W23025  26.843  16.299  12.034
50601W        W23026   8.279  29.992  14.998
50602W        W23027  26.565  31.990   4.995
50603W        W23028  34.089  10.190   2.369
50604W        W23029   5.541  16.581   1.370
50605W        W23030  25.934  40.795   4.050
50606W        W23031   1.919  42.341   2.279
50607W        W23032  43.491  31.822   1.960
50608W        W23033  27.143  19.942   3.975
50609W        W23034  25.725   2.776  10.697
50610W        W23035   2.720  10.518   4.489
50611W        W23036   1.020  30.907  11.173
50612W        W23037   9.320  44.428   0.898
50613W        W23038  14.233  15.181  13.449
50614W        W23039  28.067  42.288   4.368
50615W        W23040  39.890  15.532   2.390
50616W        W23041  43.225  37.580  11.092
50617W        W23042   8.255  17.183  11.581
50618W        W23043  11.919  18.534   0.536
50619W        W23044  25.048   6.702  10.992
50620W        W23045  25.718  23.776  11.533
50621W        W23046  19.631  33.707  13.905
50622W        W23047  16.686  12.772   2.359
50623W        W23048  33.591  10.788  11.935
50624W        W23049  14.981  39.638  13.864
50625W        W23050  34.121   8.668  12.069
50626W        W23051   3.785  10.412  12.425
50627W        W23052  40.680  32.021   4.707
50628W        W23053   1.182   3.221   2.434
50629W        W23054   7.168  16.218   3.716
50630W        W23055  38.780   7.314  12.904
50631W        W23056   9.367  32.420  14.056
50632W        W23057  33.544  20.181   4.107
50633W        W23058  33.012  41.970  11.481
50634W        W23059  40.436  11.301  13.801
50635W        W23060   0.571   8.892  12.027
50636W        W23061  23.538  19.164  12.200
50637W        W23062  41.532  33.509   1.795
50638W        W23063  22.005  19.969  13.282
50639W        W23064  24.918  14.089  11.974
50640W        W23065   7.540  35.391  12.909
50641W        W23066  28.577   0.502  12.100
50642W        W23067  28.292  15.098  13.946
50643W        W23068   9.478  43.679   2.710
50644W        W23069  21.001   9.406  10.689
50645W        W23070  41.000  43.318  10.146
50646W        W23071  15.623   6.635  10.574
50647W        W23072  33.361  39.800  10.802
50648W        W23073   0.361   3.387   2.808
50649W        W23074  34.566  30.176  12.505
50650W        W23075  14.244  16.658   3.169
50651W        W23076   4.936  27.901   4.627
50652W        W23077  35.952  17.731  14.887
50653W        W23078   4.256  44.030  12.701
50654W        W23079  12.982  11.386  12.638
50655W        W23080   4.052   6.431  11.393
50656W        W23081   1.741  43.438  10.789
50657W        W23082  24.560   3.876  13.592
50658W        W23083  16.011  23.950   2.168
50659W        W23084  12.893  17.544   0.943
50660W        W23085  14.689  36.920  11.550
50661W        W23086  34.333   3.856   1.793
50662W        W23087  21.600   3.654   1.209
50663W        W23088   2.529  24.105   0.969
50664W        W23089   3.816  19.477  11.173
50665W        W23090  16.295  36.553  13.439
50666W        W23091  37.576  29.409   4.206
50667W        W23092   6.912  13.760  14.882
50668W        W23093   2.453   3.209   1.918
50669W        W23094   8.429   3.098   3.207
50670W        W23095  19.722  34.494  13.343
50671W        W23096  11.016  43.404  11.469
50672W        W23097  31.789   4.443  11.182
50673W        W23098  15.647  40.326  12.906
50674W        W23099  34.363  30.627   2.736
50675W        W23100  35.247  10.202  10.659
50676W        W23101   1.095  16.579   0.802
50677W        W23102  21.994  31.971   1.702
50678W        W23103  29.119  41.833   0.766
50679W        W23104  40.312  24.984  12.689
50680W        W23105  16.733  40.428  11.066
50681W        W23106  40.324  34.019   0.010
50682W        W23107  25.156  43.290   1.424
50683W        W23108  36.154  34.527  14.896
50684W        W23109  33.414  15.336   2.104
50685W        W23110   5.671  42.490   3.712
50686W        W23111  10.944  27.708   0.981
50687W        W23112  36.712  32.103   2.288
50688W        W23113  36.197  41.904  11.231
50689W        W23114  28.232  20.602   2.298
50690W        W23115  38.531   9.794  12.139
50691W        W23116   3.377   4.366  10.630
50692W        W23117   5.692  27.069   4.639
50693W        W23118  32.948  18.327   4.645
50694W        W23119  24.256  18.628   3.382
50695W        W23120   9.847  26.499   3.158
50696W        W23121  19.554  32.376   3.118
50697W        W23122  24.536  22.653  12.258
50698W        W23123  16.039  13.163  13.586
50699W        W23124  17.910   5.248   1.495
50700W        W23125   6.755  39.949  12.746
50701W        W23126  27.926  40.841   1.475
50702W        W23127   0.513  22.747  10.960
50703W        W23128  38.014  23.983   3.351
50704W        W23129  32.564  16.246   1.141
50705W        W23130   7.227  38.085   3.860
50706W        W23131  39.108   7.654   1.417
50707W        W23132  17.287  22.070   1.400
50708W        W23133  38.141  17.251   3.853
50709W        W23134  33.667  40.507  14.203
50710W        W23135   6.873  38.488   0.492
50711W        W23136   4.312  18.991  10.774
50712W        W23137  40.406  33.393   2.580
50713W        W23138  13.801   5.643   1.757
50714W        W23139  40.371  12.897   0.934
50715W        W23140  44.214  26.548   2.478
50716W        W23141  43.333  32.550  13.851
50717W        W23142   7.180  42.952  14.517
50718W        W23143  35.104  35.459   2.820
50719W        W23144  24.082  11.791   1.242
50720W        W23145   8.189  35.605  12.103
50721W        W23146  23.414   6.802   1.668
50722W        W23147  33.413  11.332   4.631
50723W        W23148  27.186  40.352  13.425
50724W        W23149  19.354   0.367  11.071
50725W        W23150  36.091  11.823   0.893
50726W        W23151   5.413  28.062  10.650
50727W        W23152  13.796  10.446   0.918
50728W        W23153  21.317   4.162  13.137
50729W        W23154  33.944  20.019   3.385
50730W        W23155  22.224  22.411  11.035
50731W        W23156  38.468  42.963  10.551
50732W        W23157  15.788   0.731   0.605
50733W        W23158  26.050  35.122   1.009
50734W        W23159  39.803  10.378   2.919
50735W        W23160  23.586  33.965   2.772
50736W        W23161  20.246  13.220   2.285
50737W        W23162  39.938   1.345  12.478
50738W        W23163  30.420  28.643   0.775
50739W        W23164  36.823  15.217   1.190
50740W        W23165   9.880  39.294   3.746
50741W        W23166  17.139  42.747   3.040
50742W        W23167   9.155   2.428  12.441
50743W        W23168  25.136  17.054  13.947
50744W        W23169  16.577  12.736  14.662
50745W        W23170  34.161  43.912   4.195
50746W        W23171  24.103  22.340  14.096
50747W        W23172  22.809   4.876  14.839
50748W        W23173  16.084  31.660   0.837
50749W        W23174   5.281   2.604  11.018
50750W        W23175  23.785  14.272   2.375
50751W        W23176  18.244   4.369  10.628
50752W        W23177  41.000   6.399   0.903
50753W        W23178  18.621   9.850   3.071
50754W        W23179  40.842  23.579  14.383
50755W        W23180  33.579   7.379   4.094
50756W        W23181   5.671   2.327   3.888
50757W        W23182   7.276  43.356   1.277
50758W        W23183   0.096  42.882   4.379
50759W        W23184  32.713   7.843  13.997
50760W        W23185  39.437  20.722  13.123
50761W        W23186   2.783  22.574  14.912
50762W        W23187  41.903  26.441   1.859
50763W        W23188   4.823  42.296   4.170
50764W        W23189  41.224  43.413   0.952
50765W        W23190  32.586  43.939  12.514
50766W        W23191  10.163  32.374   4.234
50767W        W23192  25.605  31.344   2.258
50768W        W23193   2.371  33.190   4.222
50769W        W23194  23.025  11.481  14.599
50770W        W23195  36.456  43.071   0.389
50771W        W23196   0.432   0.001  10.774
50772W        W23197  29.129  39.055  14.477
50773W        W23198  23.773  33.201  13.420
50774W        W23199  17.155  33.030  10.943
50775W        W23200  30.915  23.245   3.905
50776W        W23201   1.213  41.554  13.602
50777W        W23202  38.131  17.060  14.785
50778W        W23203  25.524  13.782   3.563
50779W        W23204  13.691  21.513  12.316
50780W        W23205  13.163   1.806  10.639
50781W        W23206  20.197  21.271   2.660
50782W        W23207   9.085  27.434   3.183
50783W        W23208   1.281   9.797  14.368
50784W        W23209  20.840  40.702  12.563
50785W        W23210   3.237   3.799  12.144
50786W        W23211  39.043  14.449   2.975
50787W        W23212   3.277  33.234  14.920
50788W        W23213   1.447  13.200  10.940
50789W        W23214  30.689  26.222  10.633
50790W        W23215   3.007  14.645   3.304
50791W        W23216  32.530   4.816  11.374
50792W        W23217  32.052  14.427   2.198
50793W        W23218  26.598  31.690   9.704
50794W        W23219   9.224  16.726   4.218
50795W        W23220   0.703  21.710   3.696
50796W        W23221  26.693  12.339  14.799
50797W        W23222   2.991  36.111  11.129
50798W        W23223  11.186   0.329  10.727
50799W        W23224   0.164  30.713   3.723
50800W        W23225  27.178  42.454   4.089
50801W        W23226  25.648  24.486   3.322
50802W        W23227  14.043  25.690   4.901
50803W        W23228   8.316  41.033  13.772
50804W        W23229  30.962  36.098  13.547
50805W        W23230  37.820  33.125   2.357
50806W        W23231  12.270  32.562  13.459
50807W        W23232  41.292  12.117   3.727
50808W        W23233  25.211   7.884   1.443
50809W        W23234  23.264  37.109   1.448
50810W        W23235  16.474  12.654   3.915
50811W        W23236  31.892   3.529  12.195
50812W        W23237  40.291  18.557  11.534
50813W        W23238   0.052  24.141  14.390
50814W        W23239  19.701  16.054  13.561
50815W        W23240  33.059  31.917  11.965
50816W        W23241  24.592  29.007   4.105
50817W        W23242   1.354  38.816  13.035
50818W        W23243  33.474  12.429  12.814
50819W        W23244   9.135  36.487   2.023
50820W        W23245  26.931  33.508  10.631
50821W        W23246   8.302  33.594   3.606
50822W        W23247   2.026  43.277   3.312
50823W        W23248  33.828  36.297  13.369
50824W        W23249  40.292  14.325   4.284
50825W        W23250   1.746  22.129   0.825
50826W        W23251  39.272  14.693  14.714
50827W        W23252  36.664  30.713  14.086
50828W        W23253  23.005  29.544   1.455
50829W        W23254  31.586  21.821  11.643
50830W        W23255  17.209  15.046   0.394
50831W        W23256  40.538  11.826   3.319
50832W        W23257  43.445   9.194   5.006
50833W        W23258  34.843  42.964  13.849
50834W        W23259  24.146   7.300   4.132
50835W        W23260   7.653  34.218   3.357
50836W        W23261  13.510  42.919  10.710
50837W        W23262  14.539  24.569   4.102
50838W        W23263   3.965  40.340  13.912
50839W        W23264  31.119  35.174  11.056
50840W        W23265   1.375  13.412  11.405
50841W        W23266  13.604  36.613  13.882
50842W        W23267  13.246  37.857   1.457
50843W        W23268   5.676   0.565   4.519
50844W        W23269   8.160   8.422  13.859
50845W        W23270  15.109  16.959  14.557
50846W        W23271  37.542  27.744  12.400
50847W        W23272  20.010  42.238  11.060
50848W        W23273  32.826  26.528   2.764
50849W        W23274  30.041  26.433  13.917
50850W        W23275  18.453  10.542   4.889
50851W        W23276  35.028  13.175   0.994
50852W        W23277  23.776  25.943   3.279
50853W        W23278  40.027   0.202   5.518
50854W        W23279  32.199   2.501   3.964
50855W        W23280  31.453  26.120   3.365
50856W        W23281   2.739  14.949  10.823
50857W        W23282  34.187   3.631   3.709
50858W        W23283   8.400   6.173   3.071
50859W        W23284  24.285  35.648   3.824
50860W        W23285  18.969  37.143  12.497
50861W        W23286  42.354  44.890   0.858
50862W        W23287   2.663  17.723  12.055
50863W        W23288  39.349  34.836  11.033
50864W        W23289  18.573  28.229  13.426
50865W        W23290  36.869  38.327  11.342
50866W        W23291  30.476  10.118   4.938
50867W        W23292  12.178  35.670   0.772
50868W        W23293  19.760  14.377   2.886
50869W        W23294   6.608  13.873   0.279
50870W        W23295   0.388  29.172   1.922
50871W        W23296  24.716  10.307  11.994
50872W        W23297  33.343  42.240  13.468
50873W        W23298  15.128  15.711  10.572
50874W        W23299  29.700   1.365  13.133
50875W        W23300   0.872   5.463   0.946
50876W        W23301  31.357  13.693   3.075
50877W        W23302  39.769  30.388   4.359
50878W        W23303   7.657  13.857   0.612
50879W        W23304  34.321  13.543  14.604
50880W        W23305  35.361   8.656  13.867
50881W        W23306  38.850   4.653   3.805
50882W        W23307   4.238  23.302  11.098
50883W        W23308  31.184  39.356  12.779
50884W        W23309  10.688  42.944  10.379
50885W        W23310  41.961   4.684   0.418
50886W        W23311  33.372  12.888  12.045
50887W        W23312  15.321  42.093   3.559
50888W        W23313  29.539   3.317  11.645
50889W        W23314  34.401  42.251   1.820
50890W        W23315  23.520  22.598  12.117
50891W        W23316  33.287  32.992   4.833
50892W        W23317  21.049  12.176  13.921
50893W        W23318  29.254  37.290   2.841
50894W        W23319  33.178  43.816   1.729
50895W        W23320  11.707  30.587  14.046
50896W        W23321  26.683  39.215  11.286
50897W        W23322   2.155  10.857   2.676
50898W        W23323  24.231  38.398  13.487
50899W        W23324  31.822   6.688  14.821
50900W        W23325  17.162  19.649   2.295
50901W        W23326  30.129  11.563  10.958
50902W        W23327   1.215  14.220   3.088
50903W        W23328  21.271  24.162   2.828
50904W        W23329  21.058  34.383   3.458
50905W        W23330  21.270   6.313  12.537
50906W        W23331   0.876  14.037  12.420
50907W        W23332  21.338  18.358  11.088
50908W        W23333  17.314  36.474   1.628
50909W        W23334  31.605  10.226   3.650
50910W        W23335  14.360  21.193   1.218
50911W        W23336   3.373  10.239  10.632
50912W        W23337  28.341  23.503   4.351
50913W        W23338  21.971   1.275  14.490
50914W        W23339  31.793  19.241  14.958
50915W        W23340   2.697  16.742   2.868
50916W        W23341  10.885   4.780  14.252
50917W        W23342   5.425  44.797  11.864
50918W        W23343  36.643   0.946   3.367
50919W        W23344  16.713   3.478  14.780
50920W        W23345  37.217  25.743   1.768
50921W        W23346  31.506  41.231  13.062
50922W        W23347  14.250  29.666  12.410
50923W        W23348   1.257  37.027   3.266
50924W        W23349  41.336  21.611   0.466
50925W        W23350   0.483  37.273  12.892
50926W        W23351  30.108  13.021   1.781
50927W        W23352  29.777  32.142   9.663
50928W        W23353  44.905   0.964  10.699
50929W        W23354  40.910  28.618   3.421
50930W        W23355   9.078  37.510   0.407
50931W        W23356  21.998  26.530   1.677
50932W        W23357  13.842  14.704  11.087
50933W        W23358  36.878  10.223  12.595
50934W        W23359  13.106  23.252   4.167
50935W        W23360  20.579  16.369  11.115
50936W        W23361   4.116  17.595   0.862
50937W        W23362  11.286  11.119   2.935
50938W        W23363  39.884   6.910   4.184
50939W        W23364  22.741   6.274  14.339
50940W        W23365  35.480  14.353   1.489
50941W        W23366  31.051   7.838   0.688
50942W        W23367  14.926   7.669  12.380
50943W        W23368   2.811  19.651  12.403
50944W        W23369  29.543  11.764   3.140
50945W        W23370  21.112  41.308  11.568
50946W        W23371  37.366  30.200   3.980
50947W        W23372   0.517  35.017  12.509
50948W        W23373  43.962  30.166   3.819
50949W        W23374  36.828   4.243  13.697
50950W        W23375  31.336  24.607  14.457
50951W        W23376   2.711  39.523  11.120
50952W        W23377   8.214  13.057   3.292
50953W        W23378  26.070   5.777   1.223
50954W        W23379   2.701  40.405   4.193
50955W        W23380  26.929  30.328   5.303
50956W        W23381  43.951   1.571  12.573
50957W        W23382  11.219  14.379  14.249
50958W        W23383  11.572  13.737   3.393
50959W        W23384  38.903   3.489  13.558
50960W        W23385  23.780  17.803  12.076
50961W        W23386  31.438  17.604  14.827
50962W        W23387  29.437  33.682   4.443
50963W        W23388  43.773  17.161   3.296
50964W        W23389  39.455   9.302   4.581
50965W        W23390   2.316  26.630  14.362
50966W        W23391  27.452  41.292  11.634
50967W        W23392  32.030  39.456   1.960
50968W        W23393  22.316  41.373   2.752
50969W        W23394   2.735  42.353   1.651
50970W        W23395  17.102  27.168   1.299
50971W        W23396   1.691  12.202  13.171
50972W        W23397  36.444  35.141   3.429
50973W        W23398  19.522  37.255   2.735
50974W        W23399  22.599  27.794   4.963
50975W        W23400   5.899  27.291   2.215
50976W        W23401  23.667  31.641   4.258
50977W        W23402   3.304  27.654   3.538
50978W        W23403   0.144  15.035  11.906
50979W        W23404  25.665  26.492   1.196
50980W        W23405  42.868  37.370   1.972
50981W        W23406  42.014  19.627   1.689
50982W        W23407  34.870   7.753  11.910
50983W        W23408  27.225  11.076   0.853
50984W        W23409  14.323  36.757  11.209
50985W        W23410   7.295  28.488  13.433
50986W        W23411  22.257   1.971   1.868
50987W        W23412  29.985   9.230   1.025
50988W        W23413  14.066  20.487  13.530
50989W        W23414  25.670  14.142  14.098
50990W        W23415  20.786  30.608  10.717
50991W        W23416   3.407  17.060   4.142
50992W        W23417  41.392  24.999  12.576
50993W        W23418  25.419  23.005  14.031
50994W        W23419  27.039  37.380   4.300
50995W        W23420  28.710  13.093   3.862
50996W        W23421   4.350   6.183   2.673
50997W        W23422  19.827  36.865   1.135
50998W        W23423  44.260  18.526  11.613
50999W        W23424   3.773  36.499   4.299
51000W        W23425   0.280  37.016  11.581
51001W        W23426  36.079   4.969   0.705
51002W        W23427   3.853   6.955   2.899
51003W        W23428  15.084   7.617   1.855
51004W        W23429  30.689  29.593  13.807
51005W        W23430  31.533  44.771  11.993
51006W        W23431   7.748  32.596   2.784
51007W        W23432   8.582  13.776   0.882
51008W        W23433   7.709   1.177  11.631
51009W        W23434  29.473  42.460   4.841
51010W        W23435  17.966  20.848  12.484
51011W        W23436  11.279  27.662  13.264
51012W        W23437   9.107  19.141   0.051
51013W        W23438  28.639  11.632   1.165
51014W        W23439  43.184  14.271   2.704
51015W        W23440  23.618  39.187   1.419
51016W        W23441  27.391  43.245  12.467
51017W        W23442  22.515  31.917   5.120
51018W        W23443   0.907  21.510   0.923
51019W        W23444  42.255  43.420   1.413
51020W        W23445  17.028  33.207   0.568
51021W        W23446  21.213  24.595  12.447
51022W        W23447   5.320  12.243  13.293
51023W        W23448  25.889  20.750   1.290
51024W        W23449  17.071  10.307   2.280
51025W        W23450  40.977   4.397  10.663
51026W        W23451  23.755  36.461   4.686
51027W        W23452  27.586   7.425   0.138
51028W        W23453   3.512   3.917   1.735
51029W        W23454  40.800   4.268  13.898
51030W        W23455  12.906  43.113  13.967
51031W        W23456  31.093  32.125  14.678
51032W        W23457   8.870  27.622   2.131
51033W        W23458  33.447  14.724  12.950
51034W        W23459  20.113   9.336   2.419
51035W        W23460   1.451  13.184  14.703
51036W        W23461   5.367  17.991  10.741
51037W        W23462  44.020  40.451  11.150
51038W        W23463  37.824  19.043   2.378
51039W        W23464   9.187   9.105   4.218
51040W        W23465  39.549  15.835  14.717
51041W        W23466  36.431   5.251  12.653
51042W        W23467   9.201  14.275  13.512
51043W        W23468  38.097  17.621  10.639
51044W        W23469  30.140   2.842   1.792
51045W        W23470  43.437  31.370   2.220
51046W        W23471  36.091   1.557  12.603
51047W        W23472  30.629  27.419   2.634
51048W        W23473   5.764  35.160   3.857
51049W        W23474   2.511  33.400   1.903
51050W        W23475  18.771  27.511   1.881
51051W        W23476   8.558  15.277  12.354
51052W        W23477  17.966  31.091   2.346
51053W        W23478   1.552  36.915  11.636
51054W        W23479  26.966  36.922   2.510
51055W        W23480  30.023   3.372   3.354
51056W        W23481  39.281  43.087  11.348
51057W        W23482   7.227   6.856  10.210
51058W        W23483   2.176  21.092  12.115
51059W        W23484   9.357  28.520   1.983
51060W        W23485  17.055  22.052  12.343
51061W        W23486  34.454  34.716   0.813
51062W        W23487   9.758  11.742   3.248
51063W        W23488  31.538  32.194   0.336
51064W        W23489  33.506   8.369  11.142
51065W        W23490   3.145  36.733   0.857
51066W        W23491  26.189   6.761  14.822
51067W        W23492  38.899  29.885  11.659
51068W        W23493  42.078  37.072  12.914
51069W        W23494  32.958  19.484   3.766
51070W        W23495   1.682  34.431  11.989
51071W        W23496   0.947  20.994   0.915
51072W        W23497  10.509  13.906  10.240
51073W        W23498  32.709  35.139   0.478
51074W        W23499  42.534  17.631   4.815
51075W        W23500  14.668  41.554   3.602
51076W        W23501  35.845  10.441   0.329
51077W        W23502  19.578  18.202  13.840
51078W        W23503  34.713  42.815   4.003
51079W        W23504  11.245  42.638   0.280
51080W        W23505  36.052  16.748  14.822
51081W        W23506  35.420  24.268  13.540
51082W        W23507  25.047  20.822   2.386
51083W        W23508  43.399   1.436  10.813
51084W        W23509  44.029  20.698  13.929
51085W        W23510   8.481  28.476   2.365
51086W        W23511  26.289  34.916  12.571
51087W        W23512   5.613  14.238   2.888
51088W        W23513  40.358  34.075   0.892
51089W        W23514  30.215   7.491   4.820
51090W        W23515  13.528   9.460   0.876
51091W        W23516  10.749  23.012  13.297
51092W        W23517   1.431  23.282   2.778
51093W        W23518  38.918   0.769   3.206
51094W        W23519  41.427   0.267   3.937
51095W        W23520   6.970  21.684   0.770
51096W        W23521  26.075  33.908  13.836
51097W        W23522  21.504   8.259  14.425
51098W        W23523  21.566  24.549   0.287
51099W        W23524   6.398  29.209  12.854
51100W        W23525  41.268  11.306  11.665
51101W        W23526  27.734  39.869  12.903
51102W        W23527   9.708  11.352   0.087
51103W        W23528  42.807   8.232  11.657
51104W        W23529  22.259   5.420  13.421
51105W        W23530  16.244   2.022   0.273
51106W        W23531  30.856  44.968  13.954
51107W        W23532  42.426   2.929  13.491
51108W        W23533  37.115   7.451   0.942
51109W        W23534  41.033  36.592   0.423
51110W        W23535   1.367  15.411  11.560
51111W        W23536  12.617  22.077   1.866
51112W        W23537   7.293  28.179  12.959
51113W        W23538   4.650   3.012   0.028
51114W        W23539  27.158  19.993  11.212
51115W        W23540  28.505  34.426   2.224
51116W        W23541   1.292  29.672   1.834
51117W        W23542  31.835   6.388   4.717
51118W        W23543  32.951  18.022   4.239
51119W        W23544  16.106   6.151  13.753
51120W        W23545  28.547  24.507   1.919
51121W        W23546  34.915  35.639   3.702
51122W        W23547   1.132  27.870  14.449
51123W        W23548  41.552  30.893   2.856
51124W        W23549  35.985  30.057   4.049
51125W        W23550  35.575   3.822  13.993
51126W        W23551   6.495  36.384   2.184
51127W        W23552   6.800  24.555   4.307
51128W        W23553  19.664  19.761  11.384
51129W        W23554   5.931  13.366   2.431
51130W        W23555   1.143   3.266   3.710
51131W        W23556  27.168  44.891  12.889
51132W        W23557  20.487  22.122   1.204
51133W        W23558  22.104  25.678  13.540
51134W        W23559  29.818  26.234   4.986
51135W        W23560  13.069   2.872  13.516
51136W        W23561   6.217  14.797   3.430
51137W        W23562  21.092  24.943   1.443
51138W        W23563  38.621  11.649  13.834
51139W        W23564  35.641   9.792   2.120
51140W        W23565  30.402  15.915  14.040
51141W        W23566  25.133  39.965   1.502
51142W        W23567   1.996   3.298  13.185
51143W        W23568  42.071  11.550  13.146
51144W        W23569  35.070  24.615   2.276
51145W        W23570  44.374   5.467   3.583
51146W        W23571   3.939  35.883  13.477
51147W        W23572  11.168  17.854   4.592
51148W        W23573  40.187  38.020   1.277
51149W        W23574   6.839   0.787   0.222
51150W        W23575  13.869  41.381  11.487
51151W        W23576   8.652  39.825  11.922
51152W        W23577  11.378  17.493  11.127
51153W        W23578  37.513  25.177  14.006
51154W        W23579  20.124   0.920   3.062
51155W        W23580  15.841   3.239   1.215
51156W        W23581  22.782  35.143  10.046
51157W        W23582  33.208   1.418  14.947
51158W        W23583  17.786  32.674   9.663
51159W        W23584  41.873  20.798   0.332
51160W        W23585   9.154  11.372   1.884
51161W        W23586  25.135   8.964   0.925
51162W        W23587  38.371   1.536   3.506
51163W        W23588  39.873   0.273   3.594
51164W        W23589  26.572  13.302  11.478
51165W        W23590   7.319  35.450  10.690
51166W        W23591  23.127  41.367   3.265
51167W        W23592  34.043  34.726  10.595
51168W        W23593   4.669  24.440   0.476
51169W        W23594   7.201  19.590  10.410
51170W        W23595   0.469  38.024   2.199
51171W        W23596   1.696  28.619  12.903
51172W        W23597  12.835  36.491  14.429
51173W        W23598  12.263  31.516  14.297
51174W        W23599  13.770  23.143  14.640
51175W        W23600  32.373  29.449  13.592
51176W        W23601  37.472  12.200   4.658
51177W        W23602  17.317  21.556   1.263
51178W        W23603  10.871  16.616   1.799
51179W        W23604  13.044  44.333  11.534
51180W        W23605  26.584   0.958   1.477
51181W        W23606   0.981  30.046   0.000
51182W        W23607   0.225  34.266   1.202
51183W        W23608  17.620  33.604  13.224
51184W        W23609  12.765   8.360  12.459
51185W        W23610   2.937  19.035   0.791
51186W        W23611  16.717   9.623   2.235
51187W        W23612   1.807  23.155   4.295
51188W        W23613  30.257  41.266   1.436
51189W        W23614  15.053  37.400  12.607
51190W        W23615  26.062  42.818   0.643
51191W        W23616   4.967  31.212   2.298
51192W        W23617   4.938  44.702  11.680
51193W        W23618   9.345  13.821   0.266
51194W        W23619  23.769  16.727   2.942
51195W        W23620  21.845  20.042  14.317
51196W        W23621  16.786  33.381   2.250
51197W        W23622   8.884  33.415   4.643
51198W        W23623  31.923  18.791   4.664
51199W        W23624  20.997   2.105   4.242
51200W        W23625  40.555   5.935  11.198
51201W        W23626  36.012  15.055   2.127
51202W        W23627  25.816   3.884  12.104
51203W        W23628   6.182  17.130  12.952
51204W        W23629   2.353   1.967   4.998
51205W        W23630  39.288  20.597  13.972
51206W        W23631  38.020  36.608   0.374
51207W        W23632  41.860  18.538   3.781
51208W        W23633  29.125  30.861   3.794
51209W        W23634  37.856  27.253   3.837
51210W        W23635  29.940  21.247   0.805
51211W        W23636  16.797   0.543  10.232
51212W        W23637  14.974  25.069  14.750
51213W        W23638  32.524  14.659  11.539
51214W        W23639   7.822  14.857   1.680
51215W        W23640  12.338  22.450  10.795
51216W        W23641  21.297  24.190  13.665
51217W        W23642   4.953  42.270   3.182
51218W        W23643  34.613  39.431  14.354
51219W        W23644  35.012  25.453  11.257
51220W        W23645  16.231   9.340   0.961
51221W        W23646  38.336  40.820   0.207
51222W        W23647  11.859  16.078   1.540
51223W        W23648  12.309  44.378   0.802
51224W        W23649  15.652  41.876   4.409
51225W        W23650   8.823  35.177   3.150
51226W        W23651  33.695  30.922  12.575
51227W        W23652  25.436   6.937  13.873
51228W        W23653  10.749  34.090   2.368
51229W        W23654  38.892  37.851  13.566
51230W        W23655  44.161  34.895  12.846
51231W        W23656  18.370  43.925  12.547
51232W        W23657  44.286  19.011  13.466
51233W        W23658  19.170   4.079  11.644
51234W        W23659  37.897  26.686  11.762
51235W        W23660  39.170  31.253   0.338
51236W        W23661  11.837  22.598  12.955
51237W        W23662  36.468  14.056  11.128
51238W        W23663  28.644   1.271   3.606
51239W        W23664  16.884   7.746   2.914
51240W        W23665   7.353   0.803  11.702
51241W        W23666  12.823  30.571  12.084
51242W        W23667  42.883  30.179   1.929
51243W        W23668  38.353  33.143   2.282
51244W        W23669  23.997   8.543  14.273
51245W        W23670  27.657   8.114   2.129
51246W        W23671   0.734  24.552   3.554
51247W        W23672  11.774  21.646  11.085
51248W        W23673  22.046  18.188  12.454
51249W        W23674  40.578   5.346   1.928
51250W        W23675  28.170  17.736   1.211
51251W        W23676  25.178  25.550   1.911
51252W        W23677  13.614  17.065   1.875
51253W        W23678  44.940  38.369   0.730
51254W        W23679   8.201  44.477  13.093
51255W        W23680   7.078  42.868   1.257
51256W        W23681  38.962   1.621   0.230
51257W        W23682  20.756  20.961   5.197
51258W        W23683  31.965   9.971  13.098
51259W        W23684  30.181   5.759   2.428
51260W        W23685  42.890  41.308  12.404
51261W        W23686   3.422  26.158   3.231
51262W        W23687  41.177   8.877   4.646
51263W        W23688  12.877   9.047   0.403
51264W        W23689  21.561  36.279   1.272
51265W        W23690  23.783  12.613  14.845
51266W        W23691   0.373  39.889   1.768
51267W        W23692  44.750  31.858  14.653
51268W        W23693  44.547   2.482  12.412
51269W        W23694  35.978  25.706   5.446
51270W        W23695   5.789  21.077   0.878
51271W        W23696  23.931  12.789  10.418
51272W        W23697  44.409  40.544   4.969
51273W        W23698  14.828  19.224  11.962
51274W        W23699  24.752  43.911   0.678
51275W        W23700  28.985  38.115  10.693
51276W        W23701  23.857  22.651   4.216
51277W        W23702  14.013  23.514  11.964
51278W        W23703  33.492  13.327  10.695
51279W        W23704  16.765  40.341   3.180
51280W        W23705  34.230  11.308   0.384
51281W        W23706  13.236  23.422  13.491
51282W        W23707   3.838  21.849  12.486
51283W        W23708  43.767  16.619  11.900
51284W        W23709  44.766  19.347  11.057
51285W        W23710   7.470  30.529   3.217
51286W        W23711  38.561  17.300   2.467
51287W        W23712  32.191   9.449  14.885
51288W        W23713  17.968   3.724   4.608
51289W        W23714  35.542   6.344   4.334
51290W        W23715  43.675  16.694  12.996
51291W        W23716  25.371  34.229   2.345
51292W        W23717  14.537   9.906   3.576
51293W        W23718  26.776  41.507   1.495
51294W        W23719  32.511  36.059   1.881
51295W        W23720  21.633  13.326   0.333
51296W        W23721   0.862  16.579  14.239
51297W        W23722  22.644  14.062   1.702
51298W        W23723  41.865  26.451  14.175
51299W        W23724  31.356  15.294  11.034
51300W        W23725  12.315  33.776   3.960
51301W        W23726  23.202  28.423  11.408
51302W        W23727  44.812  30.179  11.528
51303W        W23728  12.641   8.524   2.331
51304W        W23729  28.670  36.697   2.242
51305W        W23730   2.719   9.265  14.919
51306W        W23731  32.004  25.393   4.640
51307W        W23732  15.674  27.049   0.989
51308W        W23733  26.138  24.559  10.762
51309W        W23734  35.989   5.922  11.123
51310W        W23735  15.750  37.059  10.697
51311W        W23736  31.335  37.312   1.912
51312W        W23737  41.945  18.242  14.582
51313W        W23738  23.768  28.496   3.579
51314W        W23739  15.041  39.985   1.490
51315W        W23740  38.967   7.690  12.602
51316W        W23741   8.850  33.471  11.542
51317W        W23742  42.741  19.171   2.675
51318W        W23743  16.787   6.873   0.325
51319W        W23744  10.310  27.605  12.040
51320W        W23745   8.665  24.542  13.992
51321W        W23746  40.567  37.542  12.572
51322W        W23747   4.702  39.848   4.477
51323W        W23748   6.378  13.052  14.926
51324W        W23749  25.245  30.305   0.775
51325W        W23750   1.454  44.340   2.415
51326W        W23751  19.300   2.284  11.636
51327W        W23752  13.884  31.610  11.308
51328W        W23753   4.511  33.467   3.205
51329W        W23754   9.951  28.635  11.088
51330W        W23755  32.371   9.052  10.483
51331W        W23756  44.227  16.328   2.235
51332W        W23757  24.090  40.646   1.864
51333W        W23758  39.097  39.361   1.657
51334W        W23759  42.367  35.806  11.013
51335W        W23760  26.791  32.745  14.900
51336W        W23761  21.211  20.478  11.238
51337W        W23762  11.403  22.103   2.837
51338W        W23763  33.946   9.827  10.461
51339W        W23764  41.244  25.619   0.959
51340W        W23765  40.861  16.426  11.602
51341W        W23766  32.414  20.252  10.962
51342W        W23767   1.485   0.352  10.598
51343W        W23768  25.790   5.285  11.110
51344W        W23769  33.512  38.410  12.929
51345W        W23770  25.611   2.482   0.781
51346W        W23771   8.658  38.077  14.644
51347W        W23772   9.649   3.033  10.464
51348W        W23773   0.398  23.154   1.687
51349W        W23774  23.444  33.933   4.174
51350W        W23775   7.345   0.419   2.622
51351W        W23776  16.287  19.692  13.252
51352W        W23777   7.634   4.281  13.698
51353W        W23778  28.937  36.614  11.574
51354W        W23779  18.211  44.810  14.882
51355W        W23780  26.747  15.141   3.724
51356W        W23781  19.669  37.870  12.505
51357W        W23782  28.516   0.068   0.222
51358W        W23783  43.761  15.750  11.137
51359W        W23784  43.357  42.625   3.687
51360W        W23785  17.573  36.505  11.549
51361W        W23786  20.218  15.978  11.212
51362W        W23787  38.157  40.293  10.596
51363W        W23788  26.829  16.846   3.231
51364W        W23789  21.653  12.902  11.103
51365W        W23790  23.218  12.165  12.063
51366W        W23791  17.194  13.038   0.400
51367W        W23792   1.041  10.655   0.391
51368W        W23793   1.767   7.155  12.544
51369W        W23794  16.512  20.240   0.203
51370W        W23795  26.767  32.501   2.762
51371W        W23796  14.176  28.336   4.189
51372W        W23797  20.537  36.420  11.519
51373W        W23798  37.194   1.832   0.932
51374W        W23799  35.667  28.662   1.954
51375W        W23800  35.931   0.497  11.644
51376W        W23801  38.908  24.059   3.337
51377W        W23802  28.459  16.633  14.350
51378W        W23803  12.178  40.543   4.912
51379W        W23804   1.045  31.896  12.355
51380W        W23805  36.957  23.127  12.392
51381W        W23806  42.322  10.043  11.462
51382W        W23807  11.600  16.556  10.682
51383W        W23808   1.998   1.396  13.403
51384W        W23809  30.666  10.073   3.741
51385W        W23810  41.416  30.829   4.554
51386W        W23811  37.108  22.584  10.183
51387W        W23812   0.301  44.525  14.800
51388W        W23813  13.764   6.176   0.843
51389W        W23814  26.185  24.671   1.857
51390W        W23815  12.868  31.447  11.972
51391W        W23816   4.262  25.888   1.089
51392W        W23817  34.132  10.815   3.372
51393W        W23818   0.359  13.553   0.722
51394W        W23819  13.266  35.802  13.753
51395W        W23820  21.004  31.771   0.876
51396W        W23821  22.429  21.989   4.273
51397W        W23822  16.328  28.338   4.841
51398W        W23823  10.769  17.775  14.784
51399W        W23824   7.895  44.174  11.063
51400W        W23825  12.547  37.969   2.262
51401W        W23826  31.391  22.205   3.730
51402W        W23827  18.749  25.675   4.079
51403W        W23828  42.425  17.810   2.862
51404W        W23829  42.731  37.962   1.760
51405W        W23830  25.111  42.513  14.362
51406W        W23831  40.013   1.764   1.184
51407W        W23832  25.048  27.543   1.011
51408W        W23833  29.873  43.095   1.408
51409W        W23834  43.327  16.588   1.428
51410W        W23835  36.494   8.005   3.618
51411W        W23836  15.133  22.784  12.155
51412W        W23837  31.927  30.638   3.683
51413W        W23838  15.277   8.707  13.496
51414W        W23839  14.745   9.457   1.953
51415W        W23840  35.167  12.684   2.440
51416W        W23841  20.284  20.665   1.282
51417W        W23842  40.833  21.594   1.982
51418W        W23843  38.436  19.194  14.476
51419W        W23844  37.267  10.692   4.542
51420W        W23845  18.111  10.349   1.171
51421W        W23846  31.071  19.275   4.629
51422W        W23847  36.812  23.721   0.760
51423W        W23848  19.008  44.871   3.675
51424W        W23849  24.053  29.519   4.561
51425W        W23850  24.611  31.317   0.519
51426W        W23851  16.571  13.476   1.728
51427W        W23852   8.755  16.270  11.990
51428W        W23853  13.897  39.359  14.258
51429W        W23854  31.099   5.047  14.982
51430W        W23855  34.423  18.199  11.570
51431W        W23856  17.105  26.003   0.977
51432W        W23857  27.688   0.187  10.637
51433W        W23858   1.763  31.763  11.744
51434W        W23859   6.709  36.329  14.341
51435W        W23860  39.420  30.816   1.715
51436W        W23861  13.642  27.344   3.655
51437W        W23862  34.934  19.160   1.915
51438W        W23863  42.318  29.921   1.493
51439W        W23864  26.600  27.397  14.890
51440W        W23865  11.281  38.942   1.760
51441W        W23866  21.237   7.885  10.337
51442W        W23867  39.541  37.927   4.682
51443W        W23868  31.337  43.962   2.906
51444W        W23869   0.967  15.226   2.787
51445W        W23870  24.047  29.181   2.849
51446W        W23871  36.586  24.672  11.830
51447W        W23872   1.879   2.476   3.404
51448W        W23873  28.378  33.535  13.862
51449W        W23874  28.368   3.940   3.058
51450W        W23875  17.517  20.009   0.416
51451W        W23876  14.627  32.831  12.088
51452W        W23877  26.842  37.910   1.890
51453W        W23878  15.599  35.429   4.427
51454W        W23879   5.260  40.106   1.007
51455W        W23880  18.026  39.593  12.382
51456W        W23881  35.641  31.456  12.988
51457W        W23882   9.210  36.435   0.479
51458W        W23883  37.607  19.647  12.068
51459W        W23884  37.370  36.113   1.318
51460W        W23885   2.878  14.186   3.087
51461W        W23886  27.649  42.307  12.410
51462W        W23887  36.913  43.308   4.180
51463W        W23888  10.215  39.920  11.218
51464W        W23889  34.366   6.806  13.527
51465W        W23890  23.979  35.896   0.566
51466W        W23891   1.298  34.519  12.340
51467W        W23892  13.895   8.201  14.279
51468W        W23893  29.999   8.713  10.538
51469W        W23894  30.702  44.740  14.403
51470W        W23895  28.651  23.504   3.361
51471W        W23896  20.199  44.451  13.867
51472W        W23897  14.579   0.713  11.553
51473W        W23898   1.165   7.312   3.206
51474W        W23899  39.762  28.463  12.527
51475W        W23900  38.807  41.420  12.127
51476W        W23901  30.870  44.798  11.525
51477W        W23902  36.302  10.697  13.133
51478W        W23903  28.432  15.273   1.734
51479W        W23904  31.687  34.204   2.462
51480W        W23905  32.331   5.793   2.484
51481W        W23906   2.259  17.683   2.702
51482W        W23907  31.581  39.001   4.082
51483W        W23908  41.416  16.783  10.635
51484W        W23909  15.513   9.840   0.811
51485W        W23910  41.822  12.299  11.396
51486W        W23911   9.241  13.534  13.764
51487W        W23912   1.489  35.154  11.526
51488W        W23913  34.235  30.952   2.334
51489W        W23914  31.127  32.638  12.154
51490W        W23915  20.422   9.447   1.442
51491W        W23916   1.935   7.486  10.829
51492W        W23917  19.953  13.779   0.420
51493W        W23918   2.577   8.581  10.141
51494W        W23919   6.402  14.757   4.784
51495W        W23920  10.835   7.211  13.489
51496W        W23921  39.618  14.115   0.918
51497W        W23922  15.585   9.707   2.753
51498W        W23923  44.801  15.102  13.463
51499W        W23924  17.777  30.917   1.878
51500W        W23925  22.151  26.962  14.704
51501W        W23926  13.609   0.550  12.960
51502W        W23927  40.462  32.588  10.614
51503W        W23928  23.455   9.911  13.855
51504W        W23929  44.950   4.972   2.920
51505W        W23930   2.630  43.406  13.329
51506W        W23931  16.361  43.488  11.682
51507W        W23932  34.448  12.046   4.629
51508W        W23933  42.928  29.328  12.526
51509W        W23934   6.789  22.605   4.523
51510W        W23935   3.522  30.397   1.671
51511W        W23936  22.001  34.064  11.136
51512W        W23937   3.963  33.181  13.858
51513W        W23938  15.125  11.014   3.891
51514W        W23939  36.170   4.782  11.841
51515W        W23940  24.904  19.539  11.336
51516W        W23941  35.086  32.497   0.873
51517W        W23942  41.847  38.898  12.499
51518W        W23943  33.434  28.147   1.732
51519W        W23944  32.000   9.464   3.659
51520W        W23945  30.686   6.419   0.835
51521W        W23946  21.697  36.479  12.646
51522W        W23947  31.099  31.414   1.486
51523W        W23948   7.916  17.106   3.750
51524W        W23949  37.320  43.552   3.177
51525W        W23950   8.655  15.321  13.890
51526W        W23951  34.575  23.548   2.767
51527W        W23952  30.664  41.787   3.634
51528W        W23953  10.290   6.484   0.539
51529W        W23954  24.278  42.887   4.649
51530W        W23955  30.589  39.122   3.967
51531W        W23956  10.192  19.783   2.440
51532W        W23957  32.526   7.108   3.910
51533W        W23958  27.694  36.497  12.110
51534W        W23959   6.961  44.335   0.997
51535W        W23960  39.024  43.343  13.960
51536W        W23961  33.082   4.739  12.905
51537W        W23962  16.542  39.911  11.040
51538W        W23963  17.576  24.750   3.231
51539W        W23964  43.089  12.415  10.534
51540W        W23965  22.603  31.895   0.871
51541W        W23966   8.382  33.597  11.313
51542W        W23967  29.526   7.417  10.116
51543W        W23968   7.155   1.830   4.139
51544W        W23969  24.023   2.831  12.494
51545W        W23970   8.167  36.497   0.371
51546W        W23971  13.663  29.899   2.513
51547W        W23972  32.451  27.675  14.804
51548W        W23973  37.894   3.436  12.348
51549W        W23974   6.359   2.663   0.215
51550W        W23975  26.865  32.615  11.223
51551W        W23976  20.529  29.114   3.347
51552W        W23977  16.774  23.736  11.035
51553W        W23978  35.146  36.952  10.698
51554W        W23979  39.853  36.409  11.876
51555W        W23980  38.783  20.197  13.499
51556W        W23981   7.211  22.480  14.778
51557W        W23982  11.203  21.612  12.478
51558W        W23983  32.169  18.789  13.626
51559W        W23984  31.379  39.811  11.087
51560W        W23985   8.653  37.504  13.942
51561W        W23986  40.605  27.322  12.414
51562W        W23987  21.000  11.106  11.586
51563W        W23988   1.235  25.187   2.799
51564W        W23989  11.204  20.154  11.311
51565W        W23990  24.500  34.438   0.443
51566W        W23991  23.472  19.170   4.168
51567W        W23992   1.381  23.219  14.442
51568W        W23993  37.589  37.556   2.275
51569W        W23994  18.676  29.671   5.427
51570W        W23995  38.984  13.363  13.020
51571W        W23996   9.701  23.306  14.987
51572W        W23997  39.573   9.702   4.127
51573W        W23998  24.778  19.314  13.113
51574W        W23999  36.507  30.600  13.201
51575W        W24000  26.531  37.003   3.195
51576W        W24001   2.283  39.083  12.687
51577W        W24002  13.084  10.845   3.220
51578W        W24003  40.621  16.209  12.433
51579W        W24004  27.579   9.886   1.613
51580W        W24005  24.885  26.577  12.987
51581W        W24006  40.427  14.816  12.297
51582W        W24007  17.711  38.955   4.065
51583W        W24008  17.847  44.463  12.564
51584W        W24009  11.785  39.848  11.172
51585W        W24010  16.566  23.941   2.173
51586W        W24011   2.292  23.329  14.725
51587W        W24012  18.626   9.675  12.354
51588W        W24013  17.549   1.085   1.355
51589W        W24014  27.693   4.189   2.754
51590W        W24015   8.853   3.724  11.527
51591W        W24016  37.015  23.817   0.288
51592W        W24017   4.727  15.777  12.030
51593W        W24018  38.193  41.626   0.419
51594W        W24019  23.758  38.865   2.270
51595W        W24020  21.114  22.710   4.060
51596W        W24021   1.291  18.579  11.661
51597W        W24022  42.197  14.063  11.968
51598W        W24023  23.831  17.711   2.894
51599W        W24024  30.281  18.712  12.970
51600W        W24025  12.691  25.982   2.479
51601W        W24026  42.378  12.336  12.584
51602W        W24027  35.277  16.054  11.876
51603W        W24028  29.892   1.704   0.787
51604W        W24029  15.916  39.928   2.866
51605W        W24030   2.316  36.343   2.558
51606W        W24031  23.558  40.778  12.531
51607W        W24032  20.142   1.475  10.658
51608W        W24033  39.019   5.862   0.344
51609W        W24034  27.975  15.602  13.994
51610W        W24035   4.257  34.159  14.692
51611W        W24036  43.360  17.578  10.784
51612W        W24037  39.798  13.860   0.495
51613W        W24038   9.229  17.306   2.514
51614W        W24039  13.709  14.404   0.469
51615W        W24040  30.403   3.298   1.779
51616W        W24041  23.515  30.296   1.608
51617W        W24042  34.350  29.503   4.694
51618W        W24043  18.047  11.721   3.610
51619W        W24044  21.765  15.679  12.156
51620W        W24045   5.992   9.824  14.267
51621W        W24046  22.112  23.713  14.275
51622W        W24047   2.739  37.200   4.493
51623W        W24048  13.438  44.484  14.334
51624W        W24049  24.583  22.073  14.191
51625W        W24050  27.087  25.581  14.877
51626W        W24051  33.471  22.151  13.375
51627W        W24052  37.177  20.795  13.121
51628W        W24053  25.178  12.724  11.115
51629W        W24054   8.652  21.585  11.220
51630W        W24055  27.512  12.407   4.365
51631W        W24056  10.269  12.697  14.746
51632W        W24057  14.621  43.898  11.975
51633W        W24058  11.797  27.548  13.976
51634W        W24059  38.415  28.560   4.276
51635W        W24060  33.401  21.197  10.070
51636W        W24061  17.733  44.735   1.730
51637W        W24062  35.403   4.496  13.366
51638W        W24063  41.880  20.708  14.422
51639W        W24064   7.351   8.775   3.805
51640W        W24065   6.378   3.797  11.177
51641W        W24066  24.470   0.849   1.154
51642W        W24067  18.321  23.904   2.748
51643W        W24068  14.715   5.132  12.542
51644W        W24069  41.186  13.897   0.325
51645W        W24070  25.280   5.428   4.351
51646W        W24071  33.538   2.768  13.464
51647W        W24072  11.666  33.133  11.917
51648W        W24073  20.646  33.969  13.336
51649W        W24074  22.879  31.150   0.221
51650W        W24075  16.366  14.728  11.132
51651W        W24076   3.529   5.385  10.692
51652W        W24077  39.841  41.475  13.509
51653W        W24078   8.129   0.800  13.371
51654W        W24079   7.220  27.657  12.797
51655W        W24080  32.079  34.609   4.619
51656W        W24081  11.167  43.445   4.175
51657W        W24082  24.723  36.300  13.775
51658W        W24083  36.615  28.503  14.420
51659W        W24084  39.094  38.945   3.162
51660W        W24085   3.944  17.483  12.428
51661W        W24086  27.269   7.466   1.063
51662W        W24087  37.331   1.415   3.140
51663W        W24088  36.920  19.115   2.653
51664W        W24089  39.546   5.938  12.973
51665W        W24090  10.940   6.350  11.901
51666W        W24091   4.737   0.133   1.095
51667W        W24092   4.886  13.183   4.187
51668W        W24093   1.306  17.916   2.373
51669W        W24094  30.659  17.347  10.219
51670W        W24095  41.138   6.078   1.869
51671W        W24096  13.091  25.984  12.788
51672W        W24097  29.621   9.292   0.678
51673W        W24098  12.557  30.558  10.654
51674W        W24099  36.666   9.548   2.276
51675W        W24100  12.789   3.634   4.265
51676W        W24101  30.705   7.584  12.398
51677W        W24102  42.251  26.331  12.966
51678W        W24103  18.576   0.215  13.378
51679W        W24104   8.227  40.019   2.761
51680W        W24105  19.047  25.024  12.941
51681W        W24106   4.178  15.768  14.416
51682W        W24107  14.345  37.868  13.081
51683W        W24108   3.707  14.838  13.455
51684W        W24109  18.158  12.423   1.709
51685W        W24110  30.866  22.231   0.529
51686W        W24111  12.049  21.145  14.506
51687W        W24112  19.874  32.081   2.164
51688W        W24113  31.418  10.837   4.786
51689W        W24114  23.060  16.038  10.397
51690W        W24115  27.882  29.660   3.734
51691W        W24116  19.362  21.642  13.528
51692W        W24117  21.996   4.017   0.177
51693W        W24118  24.706  40.882   2.941
51694W        W24119   4.454  19.269   1.773
51695W        W24120  31.404  25.048   1.445
51696W        W24121  16.311   3.250   1.441
51697W        W24122  40.053  31.008   2.735
51698W        W24123  22.293  21.285   1.406
51699W        W24124   9.239  36.332   1.530
51700W        W24125  32.795  29.067   0.855
51701W        W24126  36.483  21.198   0.734
51702W        W24127  19.141  34.091  11.924
51703W        W24128   6.919   5.615   4.366
51704W        W24129  41.999   1.543   4.892
51705W        W24130  24.763  37.988   2.901
51706W        W24131   9.337   7.357   2.727
51707W        W24132  41.253  44.886   5.150
51708W        W24133  41.706  12.628   5.055
51709W        W24134  10.151  37.306  13.041
51710W        W24135   9.314   1.074   2.163
51711W        W24136  44.301   6.137  11.940
51712W        W24137   3.330  31.827   4.671
51713W        W24138  20.461  20.263  11.187
51714W        W24139  35.894  31.165   3.737
51715W        W24140  25.530  30.852   3.138
51716W        W24141   1.946  44.362   4.131
51717W        W24142  13.760  16.630   0.022
51718W        W24143  13.069  38.036  12.865
51719W        W24144   7.760   5.467  11.981
51720W        W24145  23.804  43.302   4.067
51721W        W24146   6.394  33.824   4.893
51722W        W24147  21.024  41.271  10.673
51723W        W24148  14.672  23.107  12.340
51724W        W24149  12.371  31.570   1.322
51725W        W24150   9.368   5.428   4.565
51726W        W24151  17.359  33.132  12.386
51727W        W24152  26.968  42.384   0.905
51728W        W24153   7.234  17.109  14.482
51729W        W24154  30.658  10.714   1.372
51730W        W24155   6.600  32.559  14.014
51731W        W24156  16.297  17.289  14.070
51732W        W24157  26.643  14.841   3.304
51733W        W24158  17.900  25.083   1.367
51734W        W24159  37.794  24.653  14.846
51735W        W24160  14.052  38.331  13.056
51736W        W24161   4.372  20.661   1.310
51737W        W24162  23.546  40.095   4.604
51738W        W24163  14.684   8.875  11.203
51739W        W24164  41.434  33.535   3.638
51740W        W24165  32.499   9.595  14.497
51741W        W24166  21.435  36.879   4.779
51742W        W24167  26.987   0.846  13.232
51743W        W24168  41.708  36.913   0.937
51744W        W24169   0.829  33.436   4.198
51745W        W24170  36.393  28.097   4.050
51746W        W24171  26.209  22.315   3.530
51747W        W24172   2.870  32.678   4.615
51748W        W24173   0.179  25.990   3.222
51749W        W24174  33.669   5.044   3.335
51750W        W24175  20.715  12.904   2.790
51751W        W24176  13.752  11.248  11.931
51752W        W24177  29.582   0.372  14.786
51753W        W24178  36.893  23.525  11.569
51754W        W24179  19.130  35.571  11.062
51755W        W24180  31.084   1.892   1.688
51756W        W24181  41.494  26.955   4.782
51757W        W24182  28.603   4.740  14.955
51758W        W24183  31.620  19.046  11.988
51759W        W24184  30.627  15.954  11.733
51760W        W24185  33.642  32.927  14.389
51761W        W24186  28.677  19.359   2.154
51762W        W24187  39.569  19.126  13.089
51763W        W24188  34.697  35.883  10.636
51764W        W24189   3.737  40.954  11.208
51765W        W24190  23.674  22.120  11.933
51766W        W24191   5.736  36.018   9.564
51767W        W24192  19.265  36.080  14.322
51768W        W24193  34.957   6.917  14.885
51769W        W24194  15.407  24.777   2.221
51770W        W24195  36.536   3.755  12.380
51771W        W24196  44.685  18.110   0.848
51772W        W24197  22.146  43.169  11.786
51773W        W24198  13.211   1.766  13.409
51774W        W24199  34.582   9.884   0.365
51775W        W24200   8.252  34.563  12.428
51776W        W24201  20.916   5.430   1.985
51777W        W24202  12.520  40.822   3.614
51778W        W24203  42.512  25.523   4.051
51779W        W24204   3.894  31.893   4.697
51780W        W24205  18.248   2.512   4.516
51781W        W24206  25.347  29.626   4.558
51782W        W24207  12.721  34.638  13.873
51783W        W24208  28.619  23.665   0.797
51784W        W24209  32.064  22.087  10.686
51785W        W24210  11.561   1.341   3.513
51786W        W24211  29.067  36.992  13.471
51787W        W24212   8.861  36.683  10.650
51788W        W24213  21.695  17.358  12.929
51789W        W24214  36.081  37.977   3.084
51790W        W24215  39.766  32.540  12.438
51791W        W24216  41.058  43.140   1.778
51792W        W24217  22.597  19.336   4.911
51793W        W24218  32.101  41.356  10.724
51794W        W24219   6.114  42.908   0.336
51795W        W24220   9.673  42.214   0.864
51796W        W24221  15.720  24.616   4.068
51797W        W24222   4.355   8.506   0.181
51798W        W24223  24.562  23.121  13.915
51799W        W24224  42.547  32.626   4.109
51800W        W24225   6.453  34.322  13.429
51801W        W24226  16.267  16.583   0.130
51802W        W24227  31.389  21.249  14.950
51803W        W24228  24.948  24.990   3.924
51804W        W24229  14.106  22.611  11.897
51805W        W24230  22.149  31.664   3.488
51806W        W24231  31.213  17.382   1.094
51807W        W24232  17.519  17.422  11.145
51808W        W24233  26.052  27.178  12.520
51809W        W24234   1.483   3.588   1.875
51810W        W24235  19.378  10.314  14.476
51811W        W24236  25.071  25.343   4.946
51812W        W24237   4.244  21.578  10.505
51813W        W24238  41.540   6.212  13.973
51814W        W24239   0.270  13.733   4.811
51815W        W24240  34.900  18.913  11.145
51816W        W24241  34.657  11.270  11.170
51817W        W24242  19.168  16.303  14.443
51818W        W24243  37.365  33.005  13.351
51819W        W24244  37.060   9.969  14.386
51820W        W24245  29.575  34.320   3.754
51821W        W24246  37.489  21.659   3.334
51822W        W24247   4.565   0.436   3.739
51823W        W24248  24.911   8.434   4.287
51824W        W24249  26.403   4.402   9.943
51825W        W24250  24.547  37.748   4.917
51826W        W24251  10.109  40.050  13.552
51827W        W24252  42.060  16.196  13.819
51828W        W24253   9.363  19.947   2.262
51829W        W24254  26.773   2.685   0.882
51830W        W24255  15.059   7.761  11.522
51831W        W24256  40.547   0.061   4.067
51832W        W24257   1.710  40.492   0.434
51833W        W24258  30.722  22.583  11.936
51834W        W24259  19.302  43.905   1.874
51835W        W24260  17.080  36.723   0.207
51836W        W24261   1.971  44.981   2.895
51837W        W24262  19.146   4.690   1.202
51838W        W24263   6.944  44.724  11.248
51839W        W24264  30.444  44.309  12.796
51840W        W24265  41.508  42.978   2.333
51841W        W24266  26.783  22.857  10.946
51842W        W24267  18.811   6.444  14.694
51843W        W24268  15.759  20.254   3.495
51844W        W24269  40.242  26.818   4.139
51845W        W24270  42.311  44.012   2.888
51846W        W24271  32.536  41.012  14.037
51847W        W24272  27.122   2.004  12.589
51848W        W24273  11.377  42.345  12.936
51849W        W24274  34.274  15.634   4.428
51850W        W24275  14.697  44.232   1.205
51851W        W24276   6.609  22.941   1.158
51852W        W24277  34.381  35.932  11.045
51853W        W24278  39.068  28.397  13.397
51854W        W24279  32.919  29.414   0.438
51855W        W24280  10.680  23.433  11.425
51856W        W24281  27.468  17.531  11.416
51857W        W24282  22.945   6.846   2.884
51858W        W24283   7.803  24.397   4.245
51859W        W24284  37.224  23.986   5.014
51860W        W24285  30.266   4.430  13.840
51861W        W24286  15.591  18.704   3.485
51862W        W24287  34.551   0.396  11.463
51863W        W24288  32.559  20.581   0.909
51864W        W24289  18.002  17.198   0.290
51865W        W24290  12.325  24.608   9.639
51866W        W24291  12.822  32.331  11.873
51867W        W24292  43.921  44.343  14.330
51868W        W24293  25.596  27.738   4.140
51869W        W24294  13.192  44.106   5.094
51870W        W24295  24.914  14.259  12.884
51871W        W24296  38.010  18.301  12.007
51872W        W24297  23.563  41.905   4.004
51873W        W24298  22.294  16.581  13.831
51874W        W24299   2.481  28.498   3.863
51875W        W24300  12.136  36.885   1.922
51876W        W24301   9.791   5.513  14.515
51877W        W24302  19.621  20.019  14.180
51878W        W24303  37.101   3.632  14.705
51879W        W24304  10.402  13.542   4.050
51880W        W24305  16.192  19.055   1.892
51881W        W24306  35.839  28.167  12.916
51882W        W24307   9.835  14.572   1.802
51883W        W24308  19.852   8.679   2.304
51884W        W24309  14.731   1.198  10.668
51885W        W24310  44.733  16.627  12.344
51886W        W24311  33.377   5.870   1.369
51887W        W24312  35.047  20.029  11.155
51888W        W24313  11.049   3.168   2.910
51889W        W24314   5.151  19.662   2.911
51890W        W24315  42.432  37.080   1.863
51891W        W24316  35.068   3.712  13.323
51892W        W24317   1.291  44.805   1.367
51893W        W24318   5.359  25.539  11.353
51894W        W24319  36.376  32.398  12.929
51895W        W24320  39.759  20.822  13.996
51896W        W24321  28.755  11.186   2.247
51897W        W24322   5.989   8.129  12.075
51898W        W24323  27.486   2.275  12.341
51899W        W24324  42.329   0.526   3.861
51900W        W24325   3.914  14.675   1.979
51901W        W24326   4.637  18.855  12.049
51902W        W24327  27.153  35.968   4.765
51903W        W24328  11.274  30.181  13.302
51904W        W24329  15.754  35.886  10.023
51905W        W24330  44.801   7.228  12.666
51906W        W24331  34.107  39.366  10.368
51907W        W24332  16.515   2.910   1.067
51908W        W24333   4.022  27.480  12.089
51909W        W24334  10.875  36.013  12.026
51910W        W24335  34.834  12.624   2.843
51911W        W24336  14.644   1.956  14.774
51912W        W24337  24.627   6.917  14.528
51913W        W24338  19.888  29.225   1.866
51914W        W24339  14.813  38.871   0.732
51915W        W24340  34.801  29.969   2.174
51916W        W24341  23.470  24.103   0.313
51917W        W24342  11.396  32.983   2.691
51918W        W24343  34.964  11.714   0.586
51919W        W24344  44.897  22.274   1.800
51920W        W24345   9.967  41.796   0.818
51921W        W24346  13.172  24.622   0.373
51922W        W24347  25.970  14.866   2.818
51923W        W24348  10.147  21.639  12.933
51924W        W24349  16.233   2.319  11.940
51925W        W24350   7.340  21.162  11.045
51926W        W24351  14.079  20.619   2.126
51927W        W24352   8.515  34.666   4.050
51928W        W24353  26.999   4.493   0.930
51929W        W24354  23.656  41.637  11.463
51930W        W24355  36.472   2.784  12.046
51931W        W24356  23.664  39.559  11.646
51932W        W24357  26.017  44.509   4.464
51933W        W24358  39.343  36.117   0.557
51934W        W24359   3.356  11.708  10.900
51935W        W24360  19.300  31.614   1.841
51936W        W24361  18.747  10.653   2.252
51937W        W24362   6.409  28.689  12.799
51938W        W24363   9.775  10.236  12.919
51939W        W24364  33.816  42.203   0.253
51940W        W24365  44.988   0.454  10.724
51941W        W24366   5.794  41.911   2.826
51942W        W24367  18.994  33.098  10.199
51943W        W24368  39.933   5.466  12.427
51944W        W24369  30.421   7.394   3.582
51945W        W24370  24.045  16.288  13.485
51946W        W24371  36.832   2.633   0.951
51947W        W24372  10.858   6.294  13.483
51948W        W24373  19.007  21.495   3.413
51949W        W24374  12.519  31.735  11.196
51950W        W24375  26.513  12.609  13.468
51951W        W24376  10.879  33.866  14.470
51952W        W24377  44.506  38.454  13.870
51953W        W24378  30.059  34.912   1.139
51954W        W24379  26.867  33.459   1.298
51955W        W24380  39.853  31.139   3.214
51956W        W24381  28.085  34.369  11.509
51957W        W24382  33.015  31.768   2.691
51958W        W24383  41.405   5.995   2.315
51959W        W24384  36.488  29.338  10.627
51960W        W24385   6.111  16.368   2.330
51961W        W24386  16.239   8.100   3.704
51962W        W24387   5.971  17.161  12.494
51963W        W24388  44.232  38.863  12.611
51964W        W24389  15.621  24.167  13.856
51965W        W24390  18.455  11.673   0.115
51966W        W24391   9.771   5.055   1.220
51967W        W24392   1.850  38.937  12.421
51968W        W24393  16.768   1.209  14.332
51969W        W24394  20.813  43.244  12.059
51970W        W24395  13.110   6.904  10.941
51971W        W24396  18.088  25.719  11.638
51972W        W24397  12.119  16.018  14.809
51973W        W24398  37.465   7.480   9.979
51974W        W24399   7.425  12.035   4.145
51975W        W24400  25.005   8.162  14.943
51976W        W24401  30.391  43.261   1.212
51977W        W24402  15.142  28.879  11.154
51978W        W24403  23.624  10.804  12.540
51979W        W24404  43.162  25.807  13.864
51980W        W24405   3.277  11.181   0.694
51981W        W24406  18.755   7.251   5.128
51982W        W24407  14.174  17.618  13.808
51983W        W24408  42.497  13.347   0.900
51984W        W24409  10.202  26.424  14.994
51985W        W24410  43.046  34.567  14.491
51986W        W24411  12.887   1.212   5.092
51987W        W24412  41.619  34.905   2.899
51988W        W24413  38.598  43.674  13.835
51989W        W24414  34.013  37.290  13.505
51990W        W24415  29.564  38.454   1.291
51991W        W24416  44.549   2.460   0.077
51992W        W24417  42.887  39.543   3.089
51993W        W24418  13.150  18.828   2.798
51994W        W24419  29.441  29.916   9.994
51995W        W24420  42.152  29.576   0.325
51996W        W24421  37.471  21.530   4.381
51997W        W24422  16.600   5.233  11.801
51998W        W24423   0.882  22.658   2.745
51999W        W24424  26.531  42.520  10.765
52000W        W24425  36.938  26.709   1.723
52001W        W24426  24.020   9.888   0.359
52002W        W24427  13.821  16.800   4.880
52003W        W24428  26.148  26.034  14.611
52004W        W24429  29.664  16.118  11.706
52005W        W24430   7.129  42.074   1.299
52006W        W24431  33.085  30.817  14.047
52007W        W24432  18.310  37.941   1.388
52008W        W24433   5.844  32.034   1.887
52009W        W24434   6.789  22.709  13.866
52010W        W24435  19.663  36.593   3.721
52011W        W24436   4.402  42.897  10.441
52012W        W24437  27.207   3.465   1.671
52013W        W24438  37.296   6.427  11.437
52014W        W24439  38.820  42.346  13.958
52015W        W24440  29.568  33.154  13.859
52016W        W24441  33.992  32.074  10.583
52017W        W24442  36.260  35.086   4.559
52018W        W24443  21.599  36.000   1.727
52019W        W24444  29.674   4.543   3.753
52020W        W24445  41.960  17.440  12.420
52021W        W24446  35.360  20.923   0.288
52022W        W24447   4.681  42.456  11.238
52023W        W24448  27.451  34.001   5.552
52024W        W24449   8.459  36.454  14.774
52025W        W24450  34.807   4.093  11.203
52026W        W24451  28.173   8.344  11.871
52027W        W24452  36.074  42.716   3.280
52028W        W24453  23.993  27.665   3.624
52029W        W24454   2.803  14.314   0.278
52030W        W24455  14.927  31.838  13.837
52031W        W24456  24.102  42.624  14.738
52032W        W24457   1.041  39.548  14.414
52033W        W24458   9.233  13.903  11.245
52034W        W24459  39.788   2.764   3.304
52035W        W24460  26.007  13.830   4.298
52036W        W24461  28.087  43.947   0.366
52037W        W24462  23.120  32.625   2.674
52038W        W24463  37.618  40.345   3.681
52039W        W24464  19.719  22.505   3.808
52040W        W24465   1.232  23.224  11.658
52041W        W24466  44.384  15.266  12.417
52042W        W24467   9.169  33.501   1.924
52043W        W24468  31.484   1.462  12.519
52044W        W24469   2.935   3.769  14.028
52045W        W24470   9.270  42.479  12.831
52046W        W24471  16.658   1.368  12.431
52047W        W24472   7.373  13.592  11.689
52048W        W24473   6.715  13.407   1.745
52049W        W24474  30.703   4.843   4.507
52050W        W24475  40.219  44.967  12.531
52051W        W24476  39.940  16.154  14.566
52052W        W24477  13.386  15.623  13.524
52053W        W24478  11.298   0.362  13.518
52054W        W24479  31.027  29.187   0.421
52055W        W24480  19.806   0.428   3.715
52056W        W24481  23.448  40.031   1.594
52057W        W24482  31.378  17.117   3.231
52058W        W24483  20.944  21.666   3.584
52059W        W24484  43.389  36.547  13.587
52060W        W24485   6.738  25.444  10.821
52061W        W24486  10.842  26.987  12.439
52062W        W24487  11.579  30.496  13.572
52063W        W24488  37.881  42.352   4.168
52064W        W24489  19.804   5.577   2.833
52065W        W24490  40.493  28.044   4.376
52066W        W24491  18.130   3.017   1.377
52067W        W24492   9.122   2.545  11.163
52068W        W24493  30.280  34.120   2.327
52069W        W24494   7.521   7.574   3.355
52070W        W24495  39.955  23.990   0.474
52071W        W24496  34.073  31.621   1.411
52072W        W24497   6.706  10.334   2.595
52073W        W24498  38.864  28.232  14.888
52074W        W24499  26.891  28.497  11.165
52075W        W24500  18.583  44.865  12.951
52076W        W24501   3.217  14.214   4.645
52077W        W24502  36.598  35.997   4.181
52078W        W24503  21.596  37.715   5.203
52079W        W24504   2.417  41.389   1.298
52080W        W24505  39.880  27.461   0.428
52081W        W24506  17.754  13.856   2.772
52082W        W24507  26.843  36.450  12.408
52083W        W24508  25.236   2.261  12.891
52084W        W24509  38.713  29.510   1.727
52085W        W24510  31.702  23.097   4.253
52086W        W24511  32.366  41.851  14.965
52087W        W24512   6.418   0.783   4.112
52088W        W24513  32.591   0.432   3.479
52089W        W24514  32.348  17.075  14.951
52090W        W24515  28.647  37.418   4.474
52091W        W24516  25.112  37.519  10.084
52092W        W24517   5.231   7.441   4.492
52093W        W24518  44.293  12.939  12.528
52094W        W24519  37.938  43.058  14.772
52095W        W24520  44.295  25.778  14.321
52096W        W24521  21.678  30.155   4.154
52097W        W24522  37.956  26.260   4.157
52098W        W24523  19.289   4.664   0.695
52099W        W24524  27.485   1.367  14.335
52100W        W24525  31.180  36.130  12.695
52101W        W24526  16.238  12.209  12.555
52102W        W24527  33.839  13.345  14.864
52103W        W24528  11.198  39.370  13.070
52104W        W24529  36.281  31.190  11.134
52105W        W24530  10.651  30.207   3.844
52106W        W24531  30.052   8.778   0.681
52107W        W24532  27.475   7.697  11.658
52108W        W24533   2.983  39.341   2.082
52109W        W24534  23.021  16.008  11.484
52110W        W24535   0.356   2.930   3.939
52111W        W24536  36.065  43.909  14.983
52112W        W24537  20.280  41.471  12.743
52113W        W24538  20.493  19.620   0.951
52114W        W24539   3.317   5.109  11.097
52115W        W24540  26.010   4.983  13.832
52116W        W24541   6.201  37.885  11.532
52117W        W24542  33.672  20.477   0.008
52118W        W24543  28.572  33.199   2.791
52119W        W24544  25.509  17.144   3.551
52120W        W24545  21.265  26.137   1.775
52121W        W24546  31.089  32.065   2.676
52122W        W24547  11.506  40.447   0.405
52123W        W24548   4.325  21.092  10.678
52124W        W24549  20.893  27.035  14.049
52125W        W24550  30.639   0.366   4.608
52126W        W24551  31.199  28.182  12.000
52127W        W24552  30.446  42.429   0.871
52128W        W24553  33.572  35.383  11.243
52129W        W24554  25.585  24.652  14.881
52130W        W24555  36.462  30.527   4.821
52131W        W24556  14.471  23.002   0.183
52132W        W24557  24.925  42.988  13.584
52133W        W24558  15.855  37.465   1.444
52134W        W24559  14.714  34.800   0.720
52135W        W24560   7.378  37.005  12.167
52136W        W24561   5.791  29.164   2.821
52137W        W24562  25.025  32.221   0.274
52138W        W24563  29.930  13.817  12.427
52139W        W24564   5.478  21.647   0.676
52140W        W24565  11.835  22.565  14.024
52141W        W24566  19.580  28.162  10.700
52142W        W24567  19.707  24.643  12.627
52143W        W24568  24.735  27.964   1.231
52144W        W24569  42.782   3.924   4.609
52145W        W24570   1.377  14.282   2.228
52146W        W24571  35.317  28.418   3.250
52147W        W24572   4.694  41.273   0.829
52148W        W24573  24.935  20.816  12.515
52149W        W24574  40.263  12.494  11.086
52150W        W24575   2.756   9.945   2.752
52151W        W24576  36.119  10.880   0.361
52152W        W24577  18.277  40.790   1.234
52153W        W24578   3.646  28.533   1.434
52154W        W24579   9.141  44.931  13.866
52155W        W24580  40.224  32.612  11.072
52156W        W24581  18.078   6.910  10.797
52157W        W24582  14.546  44.992  14.392
52158W        W24583   3.335  33.306  10.970
52159W        W24584   0.477  31.264  11.999
52160W        W24585   4.524  38.935   2.743
52161W        W24586  36.917  22.097   2.031
52162W        W24587  42.341  38.390   3.234
52163W        W24588  24.664  18.613   1.248
52164W        W24589  19.788   1.893   3.732
52165W        W24590  33.817  44.566   3.285
52166W        W24591  34.892   2.897  12.974
52167W        W24592   0.869  24.352   4.389
52168W        W24593  38.255  23.551  11.495
52169W        W24594   2.330  44.570  10.628
52170W        W24595   8.620  37.292   9.786
52171W        W24596  30.552  17.307  14.907
52172W        W24597  11.836  19.826  12.089
52173W        W24598   7.461  43.952  12.105
52174W        W24599  33.822  24.539  11.626
52175W        W24600  18.228  16.264   0.563
52176W        W24601  43.579   4.420  12.999
52177W        W24602  24.611  43.084  13.179
52178W        W24603  32.938  29.552   1.930
52179W        W24604  42.313  27.137   2.258
52180W        W24605  17.042  41.665  12.623
52181W        W24606  19.497  33.057  10.062
52182W        W24607  17.297  42.761   1.158
52183W        W24608  31.389   5.345   3.312
52184W        W24609   2.393  41.910  11.981
52185W        W24610   4.960  10.137  11.208
52186W        W24611   1.845   0.314  14.971
52187W        W24612  43.830  35.009   4.495
52188W        W24613  35.352  35.541   0.347
52189W        W24614  11.085  13.638  12.324
52190W        W24615  31.588  14.986  13.694
52191W        W24616  40.024  12.625  13.846
52192W        W24617  40.306  41.719  12.492
52193W        W24618  21.010  16.107   1.306
52194W        W24619  44.704  28.563   1.784
52195W        W24620  28.229   6.387   2.831
52196W        W24621  24.169  12.326   3.079
52197W        W24622  26.508  39.646  13.574
52198W        W24623  38.358   8.915  14.835
52199W        W24624  32.013  25.400   0.893
52200W        W24625  34.933  39.306   4.228
52201W        W24626  38.155   4.309  13.523
52202W        W24627  19.101  20.979  14.304
52203W        W24628  35.920  12.195   2.345
52204W        W24629  36.174  26.968   4.622
52205W        W24630  11.303   4.844  13.423
52206W        W24631  20.110   8.790   3.332
52207W        W24632  23.683  14.756   4.173
52208W        W24633  39.353  25.785   3.657
52209W        W24634   0.278   4.652  12.321
52210W        W24635  30.613  15.245   4.549
52211W        W24636  36.905  35.509   4.080
52212W        W24637  17.027  11.334  11.173
52213W        W24638  23.769  21.178   2.484
52214W        W24639  31.424  14.487   4.255
52215W        W24640  43.539  40.626  13.879
52216W        W24641   5.223  12.230  12.212
52217W        W24642   3.320  18.718   0.570
52218W        W24643  43.451  27.942  13.445
52219W        W24644   8.313  44.290   4.679
52220W        W24645  38.466   9.480   1.968
52221W        W24646  39.321  27.011  12.669
52222W        W24647  36.938  25.823  14.907
52223W        W24648  39.540  19.983   1.659
52224W        W24649  28.552  27.201   2.741
52225W        W24650  15.199  23.619   2.798
52226W        W24651   3.275  44.378   1.940
52227W        W24652  30.813  11.197   0.049
52228W        W24653   3.272   3.878   0.417
52229W        W24654  23.619  15.349   4.354
52230W        W24655  38.585  14.210   0.835
52231W        W24656  31.058  42.433  14.477
52232W        W24657  34.222   1.345   0.860
52233W        W24658  25.152  33.734   4.706
52234W        W24659  26.725  32.833   3.799
52235W        W24660  13.699  44.488   3.178
52236W        W24661   2.310  26.584  12.538
52237W        W24662  10.281  35.340  13.214
52238W        W24663  11.270  13.731  13.069
52239W        W24664  37.044  27.631  11.584
52240W        W24665  36.969  25.728   2.236
52241W        W24666   7.209  35.889   2.940
52242W        W24667  23.586  42.835   0.468
52243W        W24668  33.141  30.549   4.488
52244W        W24669  38.243  18.536   0.693
52245W        W24670  27.772  12.183   0.684
52246W        W24671  21.621   6.009   2.606
52247W        W24672  17.270  43.554  13.826
52248W        W24673   7.820  31.538  10.942
52249W        W24674   9.149  11.618  10.780
52250W        W24675  20.849  38.904   4.640
52251W        W24676  36.942  30.630  13.481
52252W        W24677  21.254  18.347  12.072
52253W        W24678   6.388  16.592   2.806
52254W        W24679  37.175  26.411  11.168
52255W        W24680   2.470  41.542  13.114
52256W        W24681  30.707  33.415   3.881
52257W        W24682  37.057  34.029  10.900
52258W        W24683  15.620  43.786   1.354
52259W        W24684  22.503  31.404  12.460
52260W        W24685   1.387  22.485  13.910
52261W        W24686  28.617   8.352  12.143
52262W        W24687  14.874  22.206  13.319
52263W        W24688  14.759  39.253  14.438
52264W        W24689   2.398   3.316   0.227
52265W        W24690   3.986   6.442  14.280
52266W        W24691  17.243  23.363   4.027
52267W        W24692  16.677  20.185  12.858
52268W        W24693  38.370  15.309   4.828
52269W        W24694  30.871  29.036  14.907
52270W        W24695  40.996  14.591   0.758
52271W        W24696  28.868  37.783   3.662
52272W        W24697  32.941   1.791  11.560
52273W        W24698  25.568  28.408  12.983
52274W        W24699  36.099  18.460   1.681
52275W        W24700  23.837  38.399  14.950
52276W        W24701  11.755   1.437  12.722
52277W        W24702   5.702  14.689  10.367
52278W        W24703  44.297  31.909   1.724
52279W        W24704  44.901  31.352   2.444
52280W        W24705  43.318  39.057   2.055
52281W        W24706   4.751  44.982   0.553
52282W        W24707  15.694  35.842  11.106
52283W        W24708  43.404  44.868  14.841
52284W        W24709  22.148  44.514   0.681
52285W        W24710  35.688  14.016   1.876
52286W        W24711  23.983  35.402   3.144
52287W        W24712  24.177  11.673  11.170
52288W        W24713  42.028   0.872  14.283
52289W        W24714  40.788  30.340   0.856
52290W        W24715  26.745  33.346   3.845
52291W        W24716  15.669  15.895  12.383
52292W        W24717  42.377   3.630   4.695
52293W        W24718   3.945  11.213   1.267
52294W        W24719  41.965  15.899  10.629
52295W        W24720  35.470  32.115   4.602
52296W        W24721  43.341  15.331  14.917
52297W        W24722  25.099  16.331   3.916
52298W        W24723  44.756   5.332  12.577
52299W        W24724   9.156  28.558   0.412
52300W        W24725  27.720  25.660  11.550
52301W        W24726   0.280  18.556  10.776
52302W        W24727   3.927  33.965  10.286
52303W        W24728  37.809  17.186   1.285
52304W        W24729  26.677  19.269   3.646
52305W        W24730  38.927  24.891  10.728
52306W        W24731  14.812   8.164  12.408
52307W        W24732  16.306  12.156   0.893
52308W        W24733  41.488  21.680   4.374
52309W        W24734  19.060   2.003  14.996
52310W        W24735   3.977  10.365   3.150
52311W        W24736  39.017  24.446  10.435
52312W        W24737  31.713  44.397  14.941
52313W        W24738  38.615  43.465  10.541
52314W        W24739  35.618  27.223   2.237
52315W        W24740  43.813  18.675   4.165
52316W        W24741   1.484  32.985  14.277
52317W        W24742  28.116  36.401   3.606
52318W        W24743  24.973  32.377  12.379
52319W        W24744  42.925  19.333   4.517
52320W        W24745  23.736  25.111  12.929
52321W        W24746   9.225  11.307   0.314
52322W        W24747  44.035  29.659   2.928
52323W        W24748  28.407   8.998  13.627
52324W        W24749  38.102  41.568   2.776
52325W        W24750  40.051  11.769   3.208
52326W        W24751  37.682  18.763  11.165
52327W        W24752   5.354  23.061  13.978
52328W        W24753  19.340  29.863   3.004
52329W        W24754  36.034   2.409  10.999
52330W        W24755  32.828   8.454   2.836
52331W        W24756   9.306  26.192   0.898
52332W        W24757  33.468  24.838   4.071
52333W        W24758  11.734  28.630   3.780
52334W        W24759  20.225  14.819  12.987
52335W        W24760  34.578  43.240   3.053
52336W        W24761  22.740  44.065  11.095
52337W        W24762  23.505  17.282   2.184
52338W        W24763  34.643  31.313   3.248
52339W        W24764  29.386  34.473  14.889
52340W        W24765  44.206   0.297   0.009
52341W        W24766  38.557  20.614  12.593
52342W        W24767  19.845   4.475   0.989
52343W        W24768   7.269  25.787  12.897
52344W        W24769   4.517  16.697   1.163
52345W        W24770  39.272  11.419   2.198
52346W        W24771  33.895  42.316   1.649
52347W        W24772  32.635  18.105  14.804
52348W        W24773  36.495  12.259  11.928
52349W        W24774  13.672  36.650  10.979
52350W        W24775  12.023  38.014  10.644
52351W        W24776  10.556  34.527  13.012
52352W        W24777  20.537  28.670  13.855
52353W        W24778  32.112   2.014  14.840
52354W        W24779  29.493  31.250  14.792
52355W        W24780   3.841  14.630   0.323
52356W        W24781   7.798  31.207  11.810
52357W        W24782  38.603  24.544   0.261
52358W        W24783  11.650  17.483   3.516
52359W        W24784  22.561  35.049  10.518
52360W        W24785   0.728  41.472   0.424
52361W        W24786  32.809  35.574   3.574
52362W        W24787  31.817  33.856  14.288
52363W        W24788  37.932   4.565   4.938
52364W        W24789  23.048  22.656   3.182
52365W        W24790  25.458  13.181   3.268
52366W        W24791  12.306  41.045   1.210
52367W        W24792   8.711  30.364   2.192
52368W        W24793  13.492  35.641  11.865
52369W        W24794   6.355   8.347   0.869
52370W        W24795   7.798   9.440   3.747
52371W        W24796   8.217   6.746  10.258
52372W        W24797  28.601  21.216  11.085
52373W        W24798  36.404  11.003  14.913
52374W        W24799  28.625  15.296  13.562
52375W        W24800  41.752  25.560  14.777
52376W        W24801  31.544  19.089  10.675
52377W        W24802  14.792  39.823  14.314
52378W        W24803  30.084  29.670   0.324
52379W        W24804  26.123  27.740   4.798
52380W        W24805  35.618  35.575  14.008
52381W        W24806  32.674  40.064   1.452
52382W        W24807  21.064  40.305  10.878
52383W        W24808  41.215  43.988   5.123
52384W        W24809  16.150  28.119  13.356
52385W        W24810  34.173   0.050  11.134
52386W        W24811   0.137  32.352   0.421
52387W        W24812  10.175  15.958  14.348
52388W        W24813  28.112  29.217   2.164
52389W        W24814  28.663  23.740   0.280
52390W        W24815  36.916  37.606  14.341
52391W        W24816  42.465  24.995   3.865
52392W        W24817  33.417  19.824  10.438
52393W        W24818  23.313  42.455  10.605
52394W        W24819  24.333   0.463   1.916
52395W        W24820  42.887  37.995  13.408
52396W        W24821   6.272  31.958   4.178
52397W        W24822  42.131   0.926   4.166
52398W        W24823  28.035  42.249  14.017
52399W        W24824  13.303   2.235  10.393
52400W        W24825   6.858  35.535  13.899
52401W        W24826  34.003  12.727   0.257
52402W        W24827  31.936   6.072  10.310
52403W        W24828  25.591  15.571   1.674
52404W        W24829  16.318  10.817   0.037
52405W        W24830  37.146  11.718  12.942
52406W        W24831   2.786  41.428   1.996
52407W        W24832  40.466  12.775  13.606
52408W        W24833  13.634  39.006   3.711
52409W        W24834  22.274  32.758   3.290
52410W        W24835  14.189  33.548  12.191
52411W        W24836  37.361  23.636  12.348
52412W        W24837  25.990   4.970   2.451
52413W        W24838  22.329   7.323  13.372
52414W        W24839   0.827  43.138   1.868
52415W        W24840   2.662  31.653   3.117
52416W        W24841  22.714  15.544   3.284
52417W        W24842  44.949  15.878  11.638
52418W        W24843  22.092  14.802  13.405
52419W        W24844   4.053  13.150  10.319
52420W        W24845  36.598   1.014   4.251
52421W        W24846  33.514  11.117   2.842
52422W        W24847  35.858  14.539   3.310
52423W        W24848  15.591  41.824   3.897
52424W        W24849   6.390  13.876   4.910
52425W        W24850   7.768  31.624  12.460
52426W        W24851  24.062  21.726   3.328
52427W        W24852   3.677   2.170   1.949
52428W        W24853  24.405  24.184   1.839
52429W        W24854  27.698   1.996   4.823
52430W        W24855  27.343  30.531  14.798
52431W        W24856  23.953  23.995  12.441
52432W        W24857  10.358  12.021   1.363
52433W        W24858  15.115  16.722   2.582
52434W        W24859  39.520  41.961  14.853
52435W        W24860  31.016  11.130   4.138
52436W        W24861  30.602  39.092   4.669
52437W        W24862  37.621  27.915  13.249
52438W        W24863  31.599  37.486  12.307
52439W        W24864  41.913  12.042  13.332
52440W        W24865   1.774  12.730   4.643
52441W        W24866   6.371  24.512  14.214
52442W        W24867  31.314  13.280   4.739
52443W        W24868  14.673   4.378  14.084
52444W        W24869  27.482  14.726   4.354
52445W        W24870  26.884  25.183   1.379
52446W        W24871  34.884  38.952   3.302
52447W        W24872  37.597  34.519  13.642
52448W        W24873   0.378   1.083  10.451
52449W        W24874   0.258  21.554  11.965
52450W        W24875  41.935  23.671  11.104
52451W        W24876  42.093  40.389  11.158
52452W        W24877   8.243  40.209  11.113
52453W        W24878  28.542  16.003  11.050
52454W        W24879  19.643   4.296   0.527
52455W        W24880  31.928   3.572   3.274
52456W        W24881  25.782  17.266   0.539
52457W        W24882  34.523   8.221   0.963
52458W        W24883  37.047  39.949  13.095
52459W        W24884  40.422   5.670  12.504
52460W        W24885  31.735  37.349   0.939
52461W        W24886  18.941  15.928   0.929
52462W        W24887  31.098  35.864   3.794
52463W        W24888  35.246  17.723   2.240
52464W        W24889  30.609  29.787  14.311
52465W        W24890  20.346  21.497  11.528
52466W        W24891  19.617  18.120   2.323
52467W        W24892  12.748  41.593   3.861
52468W        W24893   2.797  14.293   1.188
52469W        W24894  34.038  43.083  12.049
52470W        W24895  15.922  35.336   0.353
52471W        W24896  29.392  40.446   4.629
52472W        W24897  23.180  41.573   1.830
52473W        W24898  11.765  14.303  12.083
52474W        W24899  18.176  42.941   0.240
52475W        W24900  44.766  14.805  13.891
52476W        W24901  41.961  33.218   1.120
52477W        W24902   1.945  41.058  14.926
52478W        W24903  36.583  27.173   0.877
52479W        W24904   1.708  11.931   0.925
52480W        W24905   0.731  31.638  14.494
52481W        W24906  15.226  16.729  11.547
52482W        W24907  29.772  31.832  10.871
52483W        W24908   8.319  15.799  14.447
52484W        W24909  26.056  37.376  13.079
52485W        W24910  36.477  37.523   4.150
52486W        W24911  28.269   9.329  14.463
52487W        W24912  16.152  20.127  12.862
52488W        W24913  21.176  35.922   0.887
52489W        W24914   5.174  37.128  14.683
52490W        W24915  30.015  32.562   1.375
52491W        W24916   5.838  38.913   1.685
52492W        W24917   4.771   8.623  10.628
52493W        W24918  12.880   9.701  14.374
52494W        W24919  31.725  41.411   4.185
52495W        W24920  28.069  31.753  10.754
52496W        W24921   5.161  35.566   1.245
52497W        W24922  34.483  21.630  12.789
52498W        W24923  44.807  43.728   4.612
52499W        W24924  42.887   4.471   1.400
52500W        W24925  43.507  35.544   0.908
52501W        W24926  42.740  20.598  13.286
52502W        W24927  10.418   2.496  10.614
52503W        W24928  19.106  34.863  11.589
52504W        W24929   2.985   1.420   1.881
52505W        W24930  32.194   2.289   3.491
52506W        W24931  39.274   7.871   0.918
52507W        W24932  34.423  42.740  12.139
52508W        W24933  41.608  22.574   3.419
52509W        W24934   9.107   8.377   1.353
52510W        W24935  16.722   6.258   0.943
52511W        W24936   1.361  15.195  10.814
52512W        W24937   4.846  13.241   2.300
52513W        W24938  10.237  40.400   4.084
52514W        W24939  25.564  25.703   4.216
52515W        W24940  36.860  13.507  12.663
52516W        W24941   2.297   7.618   1.788
52517W        W24942  44.491  43.447   1.896
52518W        W24943  37.634  41.267   3.641
52519W        W24944  14.039   0.209   2.097
52520W        W24945  31.343  20.724  14.977
52521W        W24946  13.766   4.729  13.030
52522W        W24947  36.990  23.805   1.789
52523W        W24948  18.826  36.832  14.818
52524W        W24949   9.893  29.392  13.296
52525W        W24950   8.396   3.522   2.830
52526W        W24951   3.811  13.334   4.180
52527W        W24952   1.664   1.322   3.144
52528W        W24953  17.177  39.290   1.253
52529W        W24954  12.306  36.187  14.918
52530W        W24955   3.151  20.377  13.458
52531W        W24956   0.883  32.161  10.097
52532W        W24957   8.755  39.623  12.851
52533W        W24958  19.188  16.196   2.369
52534W        W24959  44.820  35.018  11.052
52535W        W24960   8.322  23.658  14.276
52536W        W24961  37.336  31.643  11.558
52537W        W24962  31.441   0.365   4.062
52538W        W24963  31.072  33.119   4.117
52539W        W24964   8.290  15.812   0.875
52540W        W24965  28.147  10.923   0.943
52541W        W24966   3.942  19.760  13.337
52542W        W24967   5.399  17.157   4.913
52543W        W24968  18.627   1.516   5.046
52544W        W24969   3.927   1.679  12.155
52545W        W24970   2.511  33.047  14.289
52546W        W24971  26.562  19.251  12.502
52547W        W24972  32.133  13.264   2.803
52548W        W24973  37.851  16.826  12.490
52549W        W24974  14.610  31.887  12.243
52550W        W24975  39.342  16.476   0.519
52551W        W24976   7.535  27.016  14.002
52552W        W24977  28.128  18.190   3.824
52553W        W24978  42.466  21.324   3.371
52554W        W24979   4.420  41.410   4.461
52555W        W24980  28.511  20.457   0.312
52556W        W24981   7.298  13.672   4.259
52557W        W24982  19.138  16.186  12.400
52558W        W24983   3.738  27.611  11.244
52559W        W24984  33.671  10.667   3.036
52560W        W24985  31.375   8.126   2.763
52561W        W24986   6.671  35.947   1.900
52562W        W24987  21.399   0.939   1.851
52563W        W24988  35.497  24.738  13.318
52564W        W24989  20.673  16.285  12.945
52565W        W24990  17.096  37.677   4.535
52566W        W24991  12.306  37.054  13.430
52567W        W24992  26.188  19.466  14.677
52568W        W24993   0.355  35.088   0.033
52569W        W24994   9.953   8.003   0.893
52570W        W24995  16.304   5.861   4.464
52571W        W24996  24.613  10.349   5.454
52572W        W24997  23.096  15.650  14.031
52573W        W24998  27.953   0.508   2.132
52574W        W24999  37.824  38.002  12.189
52575W        W25000  31.681  19.618  12.620
52576W        W25001  40.967  28.461   1.300
52577W        W25002  39.965   9.145  12.880
52578W        W25003   2.830  19.162  13.011
52579W        W25004  39.973  35.384  11.544
52580W        W25005  21.750  29.053  10.527
52581W        W25006  30.184  12.219  13.132
52582W        W25007  25.427  35.241  10.716
52583W        W25008  24.553  41.574   0.949
52584W        W25009  29.662  23.115  14.116
52585W        W25010   7.831  43.049  12.907
52586W        W25011   8.914  38.936  14.571
52587W        W25012   8.905  35.786  11.838
52588W        W25013  32.425  16.335   3.284
52589W        W25014  12.917   9.233   1.806
52590W        W25015  12.155  41.979  13.810
52591W        W25016  40.055   1.678  12.860
52592W        W25017  25.051  31.480   3.571
52593W        W25018  43.937   0.665  10.811
52594W        W25019  18.513  37.837   1.873
52595W        W25020  24.432   8.188  12.792
52596W        W25021  26.586  43.936  13.503
52597W        W25022  27.889   6.645   3.121
52598W        W25023  37.003  38.160   3.781
52599W        W25024  13.304  10.843   4.545
52600W        W25025  26.225  11.514   3.429
52601W        W25026  27.640  11.181   4.621
52602W        W25027  36.878  30.339   4.138
52603W        W25028  11.746   9.798  13.043
52604W        W25029   6.182   2.277  11.898
52605W        W25030  44.058  34.657  14.408
52606W        W25031  21.144  30.806  14.484
52607W        W25032   1.152   4.782  12.393
52608W        W25033   2.849   2.321   1.963
52609W        W25034  39.512  33.797   1.290
52610W        W25035   7.605  11.323  12.948
52611W        W25036   2.409   7.836   3.687
52612W        W25037  33.771   2.190  14.049
52613W        W25038  24.491  34.203  13.075
52614W        W25039  15.699  25.760  11.301
52615W        W25040  11.218  12.163   4.359
52616W        W25041  24.023   3.022   4.092
52617W        W25042   1.034  26.585   1.601
52618W        W25043  27.594  41.126  13.036
52619W        W25044  19.184  23.656  11.053
52620W        W25045  42.397   6.825   3.577
52621W        W25046  30.903   1.916  10.656
52622W        W25047   8.913  42.018  14.106
52623W        W25048  11.347   0.351   2.728
52624W        W25049   7.189  13.135   4.150
52625W        W25050   1.770  29.876   1.773
52626W        W25051   4.370  19.252  13.289
52627W        W25052  30.469   9.719  13.552
52628W        W25053   8.262   4.361   3.188
52629W        W25054   0.438  38.054  13.599
52630W        W25055  11.155  33.361   0.825
52631W        W25056  22.243  34.002   0.285
52632W        W25057   8.726   5.575   4.108
52633W        W25058  27.585  24.770  10.649
52634W        W25059  44.882  30.394  14.268
52635W        W25060   9.693  10.318   3.489
52636W        W25061  23.591  13.313   0.377
52637W        W25062   6.761   8.058  14.135
52638W        W25063  18.048  37.991  10.940
52639W        W25064  32.429  32.156   3.243
52640W        W25065  31.947  11.292  11.654
52641W        W25066  40.811  25.667  13.527
52642W        W25067   3.642  32.486   0.916
52643W        W25068  44.879  39.887   3.897
52644W        W25069  20.303  40.444   2.781
52645W        W25070   2.164  26.413   5.047
52646W        W25071  29.710  27.463  14.280
52647W        W25072   9.064  28.972  12.908
52648W        W25073   4.697  19.346  10.758
52649W        W25074   1.393   3.014  11.499
52650W        W25075   2.471  10.656  13.042
52651W        W25076  34.633  22.095  10.578
52652W        W25077  42.576   9.557  14.297
52653W        W25078   0.699  29.575  13.762
52654W        W25079  26.646   3.035   2.802
52655W        W25080  35.649  22.660   2.355
52656W        W25081   9.820  21.214  13.949
52657W        W25082  17.702  27.855  11.133
52658W        W25083  10.592  17.304   4.733
52659W        W25084  36.056   0.075   1.750
52660W        W25085  27.442  17.690   0.967
52661W        W25086  32.308  22.416  13.954
52662W        W25087  10.206  40.489  14.748
52663W        W25088  22.194  10.352  11.604
52664W        W25089   7.177  27.510   1.752
52665W        W25090   6.436   0.818   1.184
52666W        W25091  17.237  27.021  11.949
52667W        W25092  43.298  40.254   0.757
52668W        W25093  40.529   7.215   4.874
52669W        W25094  19.607  27.182  13.769
52670W        W25095  14.089  14.124  13.622
52671W        W25096   1.812  10.380   1.695
52672W        W25097  36.950  26.212  11.600
52673W        W25098  27.618  12.217  14.316
52674W        W25099  39.470  33.655  10.672
52675W        W25100   3.328  18.287   0.206
52676W        W25101  40.105   4.533   3.245
52677W        W25102   1.426  44.308   3.713
52678W        W25103   4.456  44.794  14.454
52679W        W25104  36.391  15.266   2.424
52680W        W25105  36.962  36.736   0.420
52681W        W25106   5.200   6.093   4.604
52682W        W25107  30.612  20.080  14.524
52683W        W25108  16.420  24.493  14.728
52684W        W25109  44.212  35.462  11.329
52685W        W25110  40.960  12.405  12.911
52686W        W25111  35.937  19.986   4.207
52687W        W25112  35.570  37.413   4.079
52688W        W25113  38.174  31.938  13.526
52689W        W25114  26.852   4.841   0.419
52690W        W25115   7.237  36.408   2.165
52691W        W25116  32.980  13.705   1.780
52692W        W25117  17.602  22.176   4.908
52693W        W25118  40.372   6.386   4.487
52694W        W25119  10.084  25.427  12.850
52695W        W25120   5.901  10.358  10.888
52696W        W25121  11.731  44.386   3.785
52697W        W25122  11.503  41.860   3.255
52698W        W25123  11.522  23.070   4.560
52699W        W25124  41.525  35.131  11.945
52700W        W25125  13.889  35.462   3.212
52701W        W25126   6.394  35.335   3.704
52702W        W25127  44.386  16.272  12.416
52703W        W25128  40.518  14.006   4.638
52704W        W25129   5.355  19.000  12.452
52705W        W25130  35.444   3.287  13.135
52706W        W25131  10.379  35.040  12.372
52707W        W25132  43.039  13.192   4.668
52708W        W25133  14.105  19.346  12.555
52709W        W25134  28.535  14.513  11.615
52710W        W25135   9.418   3.705  11.042
52711W        W25136  19.281   2.872   1.975
52712W        W25137  29.483  31.495  14.337
52713W        W25138  20.583  18.618  11.205
52714W        W25139  30.600   5.034  11.116
52715W        W25140  24.564  27.511   0.306
52716W        W25141   6.329  16.837   0.332
52717W        W25142   3.720  43.220   3.160
52718W        W25143   3.046  19.307   1.207
52719W        W25144  42.756  43.455  13.989
52720W        W25145  27.490  23.627   2.268
52721W        W25146  33.628   9.127   4.484
52722W        W25147   3.301   1.985  14.942
52723W        W25148   1.266   3.869  14.972
52724W        W25149   7.637   2.300  10.394
52725W        W25150  30.252  13.944   3.705
52726W        W25151   4.943  14.032  14.332
52727W        W25152  20.257  43.475  13.921
52728W        W25153  28.965  43.314   0.155
52729W        W25154  21.082  37.643   5.103
52730W        W25155  23.800  16.610   4.721
52731W        W25156  35.550  35.784   0.902
52732W        W25157  29.429  24.673   2.877
52733W        W25158   9.668  28.184  11.867
52734W        W25159  21.988   0.787   3.606
52735W        W25160  34.909   2.909  11.551
52736W        W25161  44.207   9.664  10.013
52737W        W25162   3.394  35.972   3.197
52738W        W25163  26.241  41.800   0.826
52739W        W25164   4.746   0.793  11.435
52740W        W25165  12.226  25.107  14.882
52741W        W25166  25.687  26.180  13.369
52742W        W25167   7.390  12.232   4.658
52743W        W25168  15.748   7.391  10.325
52744W        W25169  40.683   4.933   2.237
52745W        W25170   5.359  31.202  13.068
52746W        W25171   5.695  28.717   0.728
52747W        W25172  27.041  35.152  13.008
52748W        W25173   0.395  25.578   3.483
52749W        W25174  37.469  27.525   4.942
52750W        W25175  15.827  36.855  12.457
52751W        W25176   3.614  33.480  13.086
52752W        W25177   9.061  24.627   4.608
52753W        W25178  40.906  19.540   4.710
52754W        W25179  12.147  19.606   3.291
52755W        W25180  14.313  23.412  11.546
52756W        W25181  13.330  23.655   3.387
52757W        W25182  16.616  24.267   0.711
52758W        W25183   3.942  22.131   4.769
52759W        W25184   9.260  17.056  11.403
52760W        W25185   2.538  25.771  12.876
52761W        W25186  20.585  14.723   2.607
52762W        W25187  22.231  17.401   3.716
52763W        W25188  35.225  41.511   1.910
52764W        W25189  41.042  16.151   2.779
52765W        W25190  33.959  19.355  11.132
52766W        W25191  27.430  43.996  12.926
52767W        W25192  28.987   3.687  13.032
52768W        W25193   2.823  10.596   2.224
52769W        W25194  20.971  24.103   2.409
52770W        W25195  31.269  32.489   0.010
52771W        W25196  20.687   9.670  12.613
52772W        W25197   5.085  11.258  12.913
52773W        W25198   9.944  34.268   0.922
52774W        W25199  42.923  23.566  12.175
52775W        W25200  28.152   5.408  12.904
52776W        W25201  34.518  15.423  14.921
52777W        W25202  13.164   7.250   1.428
52778W        W25203  33.862  28.226   2.915
52779W        W25204   0.110  13.480   3.291
52780W        W25205  24.537  22.197  12.031
52781W        W25206   6.691   4.869   2.609
52782W        W25207  11.239   0.726  12.113
52783W        W25208   5.555  19.771   1.895
52784W        W25209  30.086  31.527  13.150
52785W        W25210  41.247  14.728  11.975
52786W        W25211  31.533   3.140   1.504
52787W        W25212  27.371  18.545   3.069
52788W        W25213  25.442   6.901  12.944
52789W        W25214  42.926   4.116   4.127
52790W        W25215  22.582  10.275  11.280
52791W        W25216  38.595  22.093  11.070
52792W        W25217  35.609  26.128   1.891
52793W        W25218  17.418  23.661   3.652
52794W        W25219  27.118  23.463  12.926
52795W        W25220   1.983  40.344  14.104
52796W        W25221  39.081  11.569   4.084
52797W        W25222  29.916  33.472   1.962
52798W        W25223  42.044  26.699   2.288
52799W        W25224  33.985  43.396   2.386
52800W        W25225  22.889  17.480   4.823
52801W        W25226  15.771  35.064  14.937
52802W        W25227  24.929   0.756   3.878
52803W        W25228  16.636  41.297  12.861
52804W        W25229   9.336  30.648  11.606
52805W        W25230  16.088  33.459   4.922
52806W        W25231  20.802  15.828   0.046
52807W        W25232  10.456  39.072  11.153
52808W        W25233  42.042  10.720   4.235
52809W        W25234   1.458  41.636  14.586
52810W        W25235  38.543   8.409   3.609
52811W        W25236  13.187  42.415   3.137
52812W        W25237   2.990  15.244   2.131
52813W        W25238  27.154  29.352  13.079
52814W        W25239  41.251  19.610  13.033
52815W        W25240  26.248  15.355  13.408
52816W        W25241  29.486  43.295   1.957
52817W        W25242  37.466  35.573  13.897
52818W        W25243  11.282  25.674   4.639
52819W        W25244   2.300  33.218  11.193
52820W        W25245  19.119   1.740   9.475
52821W        W25246  28.234  19.300  10.654
52822W        W25247   9.832  13.694   2.292
52823W        W25248   7.736  20.446   1.346
52824W        W25249  41.986  21.521   3.110
52825W        W25250  15.670  19.305   0.670
52826W        W25251  44.078  43.736  11.439
52827W        W25252  12.674  36.831   3.683
52828W        W25253  25.518  20.326   3.345
52829W        W25254  14.501  40.728  14.358
52830W        W25255  43.394  16.173   4.193
52831W        W25256  38.375  18.320  12.627
52832W        W25257  24.487   6.933   2.819
52833W        W25258  44.786  12.719   2.671
52834W        W25259   5.275  28.704  11.759
52835W        W25260  42.986   2.923  10.628
52836W        W25261  22.535  16.564   3.339
52837W        W25262  35.384  12.578  11.169
52838W        W25263  29.517  12.065  11.074
52839W        W25264  37.453  19.260   0.981
52840W        W25265  36.907  12.356   4.669
52841W        W25266  38.492   3.466  10.647
52842W        W25267  12.966  37.029   4.620
52843W        W25268  15.579  24.280   2.368
52844W        W25269  11.222  11.892  14.018
52845W        W25270  30.443  44.644  10.580
52846W        W25271  13.573  13.104   3.201
52847W        W25272  12.364  13.837   3.720
52848W        W25273   4.023  29.929   4.112
52849W        W25274  12.652  30.700   2.355
52850W        W25275  31.423  23.033  13.488
52851W        W25276  13.634  37.527  12.621
52852W        W25277  36.840  32.131   0.385
52853W        W25278  41.537  22.926  12.054
52854W        W25279   8.978   2.774  11.593
52855W        W25280  22.594  26.325  10.442
52856W        W25281  28.904  41.070  12.865
52857W        W25282  38.417  41.755  11.131
52858W        W25283   7.309  21.824  12.994
52859W        W25284  15.182   0.085   5.413
52860W        W25285  17.194  44.861  13.489
52861W        W25286  32.566   7.688   2.242
52862W        W25287  28.849  26.684   0.394
52863W        W25288  21.645  27.748  13.029
52864W        W25289   4.371  13.549   3.387
52865W        W25290  27.341  30.426   4.020
52866W        W25291   2.394  29.325   0.938
52867W        W25292  14.493  33.326   2.924
52868W        W25293  30.904  33.012   3.122
52869W        W25294   9.567  39.076   1.278
52870W        W25295  39.876  22.482  11.175
52871W        W25296  20.266  35.029   2.902
52872W        W25297   8.172  29.618   0.396
52873W        W25298  35.135   1.783   4.645
52874W        W25299  33.597   0.122   4.843
52875W        W25300  22.841  27.029  13.357
52876W        W25301  19.193  43.589   1.455
52877W        W25302  33.024  42.922  11.148
52878W        W25303  14.284  43.873   1.173
52879W        W25304  44.784   0.963  11.629
52880W        W25305  34.137  24.157  11.508
52881W        W25306  37.888  19.785   0.723
52882W        W25307  15.717  44.231  13.041
52883W        W25308  25.503   5.360  13.571
52884W        W25309  36.352  16.739   0.259
52885W        W25310  12.185  29.292   4.208
52886W        W25311  40.884  42.285   4.813
52887W        W25312  25.223  33.876  12.482
52888W        W25313  38.147  13.160  12.865
52889W        W25314  21.146   5.790   3.838
52890W        W25315  42.617  44.276  10.608
52891W        W25316   5.709  19.698   0.835
52892W        W25317  41.358  22.949  14.831
52893W        W25318  17.259  34.055  12.434
52894W        W25319   9.932   1.775   4.419
52895W        W25320   2.430  37.922   2.705
52896W        W25321  33.896   6.502   4.036
52897W        W25322  34.587   0.513   3.572
52898W        W25323  27.047  22.146  11.010
52899W        W25324  26.035  41.335  11.706
52900W        W25325   2.887  16.266  11.254
52901W        W25326  14.553  38.388  10.626
52902W        W25327  25.475  35.973  13.383
52903W        W25328  41.599  17.374   4.593
52904W        W25329  34.432  26.005  11.799
52905W        W25330  40.246  24.682  10.679
52906W        W25331  27.239  21.414  11.103
52907W        W25332  25.034   3.830  12.579
52908W        W25333   7.214  33.028   2.446
52909W        W25334   0.775  17.539   2.338
52910W        W25335  18.864  22.340  12.012
52911W        W25336  20.671  22.464  14.905
52912W        W25337  32.371   2.926  12.553
52913W        W25338  15.249   3.603  13.564
52914W        W25339  36.368  28.388  10.928
52915W        W25340   3.278  29.525  11.813
52916W        W25341  28.201  20.506   4.544
52917W        W25342  31.905  33.081  14.818
52918W        W25343  24.662  38.031   0.263
52919W        W25344   2.619  26.931   2.570
52920W        W25345  36.517  40.584   2.800
52921W        W25346  33.869  14.684  11.841
52922W        W25347   1.199  22.958  14.878
52923W        W25348  40.843   2.711  13.479
52924W        W25349  31.148  29.475  12.016
52925W        W25350  25.160  15.182   4.568
52926W        W25351   4.673  44.279  12.853
52927W        W25352  22.136  17.222   2.144
52928W        W25353  15.500  40.420   3.588
52929W        W25354   2.789  12.773   2.840
52930W        W25355  31.162  24.971   2.391
52931W        W25356   7.137  24.048   3.157
52932W        W25357  13.768  14.366   2.852
52933W        W25358  14.366  11.264   4.172
52934W        W25359  36.606  31.605   4.303
52935W        W25360  37.050  34.494  13.584
52936W        W25361  44.731   8.440   1.372
52937W        W25362  11.585  37.351   3.690
52938W        W25363  31.056  20.635  10.615
52939W        W25364  21.745  41.226   2.125
52940W        W25365   0.464  17.758   1.971
52941W        W25366   1.081  23.539  14.755
52942W        W25367   8.918  31.419  10.803
52943W        W25368  36.057   8.950  11.305
52944W        W25369   1.845  26.918   0.329
52945W        W25370  18.171  44.981   1.614
52946W        W25371  24.510  40.732  12.514
52947W        W25372   7.954  33.631   4.214
52948W        W25373  39.773  36.466  13.809
52949W        W25374  14.667  43.869   3.930
52950W        W25375   1.498  42.419   1.343
52951W        W25376   8.026  18.001   2.344
52952W        W25377  39.024  28.182   5.053
52953W        W25378  35.662   6.691  13.552
52954W        W25379   4.702  43.856  11.203
52955W        W25380   8.166  42.356  12.371
52956W        W25381  21.513   9.078   2.753
52957W        W25382  17.234  34.312   3.097
52958W        W25383  42.585  38.246   0.011
52959W        W25384   5.898   7.419  14.985
52960W        W25385  13.729  37.428   4.630
52961W        W25386  13.064  39.475   4.152
52962W        W25387   5.383  22.053  11.445
52963W        W25388  14.535  14.518   4.063
52964W        W25389  17.603  18.094  12.950
52965W        W25390  28.120  44.099  11.363
52966W        W25391  13.723   3.859   2.631
52967W        W25392  26.145  30.117  13.092
52968W        W25393  16.194  15.315  14.500
52969W        W25394   9.345  17.272   3.593
52970W        W25395  14.516   7.921  14.904
52971W        W25396  29.135  37.452  14.375
52972W        W25397  25.549  10.400  13.909
52973W        W25398  16.217  19.337  14.385
52974W        W25399  30.159  16.060  11.933
52975W        W25400  37.985  39.348  13.526
52976W        W25401  10.220  17.749  10.721
52977W        W25402   3.025  44.419   3.317
52978W        W25403  20.017  22.773  12.451
52979W        W25404  31.052  43.563  12.784
52980W        W25405  18.692   3.789   4.134
52981W        W25406   5.926   5.896  10.448
52982W        W25407  24.089  34.161   3.620
52983W        W25408  13.077  16.067  14.059
52984W        W25409  20.197   4.932  12.985
52985W        W25410  15.305  31.710  11.594
52986W        W25411  25.596  37.371  10.695
52987W        W25412  26.249  10.197  12.894
52988W        W25413   4.227  30.519   2.168
52989W        W25414   3.348  11.702   2.301
52990W        W25415  14.731  23.576  12.583
52991W        W25416  22.813  42.362   3.897
52992W        W25417  19.710  25.637  14.926
52993W        W25418  29.240  32.314   3.712
52994W        W25419  24.710  13.699  14.869
52995W        W25420  28.909  33.379  13.778
52996W        W25421  28.073  33.479   4.537
52997W        W25422  32.926  38.681   0.273
52998W        W25423  41.278  42.368   1.876
52999W        W25424  44.277   5.627   5.254
53000W        W25425   7.176   1.570   2.269
53001W        W25426  13.709  43.679   0.936
53002W        W25427   5.275   2.564  12.876
53003W        W25428   6.686   7.269  14.423
53004W        W25429   5.991  23.110   3.747
53005W        W25430  21.733   9.351  10.273
53006W        W25431   0.475   2.396  13.427
53007W        W25432  14.588  15.603   0.621
53008W        W25433   6.182  38.498  10.538
53009W        W25434   1.521   0.464   4.032
53010W        W25435  11.525  38.018  12.874
53011W        W25436  29.657   8.831   1.017
53012W        W25437  30.896  35.643  11.183
53013W        W25438   9.130  35.618   2.348
53014W        W25439  27.060  12.542  13.540
53015W        W25440   6.514  39.403   4.198
53016W        W25441  14.490  42.528   3.895
53017W        W25442  44.900   2.437   4.416
53018W        W25443  34.836  22.238  11.044
53019W        W25444   4.566  18.943  14.080
53020W        W25445  29.951  17.827  14.084
53021W        W25446   4.754  15.407   4.667
53022W        W25447   2.168  35.040  14.443
53023W        W25448  22.779  26.024  14.375
53024W        W25449  26.570  33.991   2.196
53025W        W25450  36.475   7.635   0.873
53026W        W25451  24.516  18.538   2.410
53027W        W25452  19.252  19.118  11.895
53028W        W25453  33.860   8.233  12.131
53029W        W25454  29.276  33.804   1.477
53030W        W25455   9.811  12.721  14.957
53031W        W25456  17.679  21.514  13.981
53032W        W25457  33.442  26.040  13.529
53033W        W25458  10.570  24.982  11.490
53034W        W25459  27.630  38.993   3.707
53035W        W25460  18.583  38.532  14.391
53036W        W25461  16.535  25.632  13.430
53037W        W25462  41.495  19.806  12.608
53038W        W25463   7.071   9.210  11.875
53039W        W25464  42.488  29.100  14.440
53040W        W25465   6.891  36.593   2.493
53041W        W25466  16.459   4.696  14.422
53042W        W25467  32.175  37.302  10.428
53043W        W25468  21.655  38.850  11.580
53044W        W25469   0.763  39.227   4.720
53045W        W25470  28.649  29.074   4.624
53046W        W25471  43.763  25.055   4.146
53047W        W25472  29.197  29.959   0.907
53048W        W25473  23.718   1.662  14.466
53049W        W25474   1.866   1.054   0.472
53050W        W25475   5.430  30.112   3.205
53051W        W25476  28.667  12.061   3.645
53052W        W25477   2.694  21.511  12.797
53053W        W25478  29.633  14.087   1.367
53054W        W25479  11.576   5.417   1.819
53055W        W25480  11.213   8.106   5.543
53056W        W25481  22.232  10.720   4.636
53057W        W25482  17.719  40.270  11.056
53058W        W25483   5.372  36.078  11.751
53059W        W25484  38.767  25.994   3.166
53060W        W25485   3.746   3.443   5.200
53061W        W25486  29.447  22.777   3.709
53062W        W25487  16.097   1.908   0.731
53063W        W25488   5.840  31.594  14.385
53064W        W25489  14.264   1.705  14.528
53065W        W25490   1.327   7.699   1.798
53066W        W25491  20.098   1.269   0.425
53067W        W25492  21.008  23.080  10.684
53068W        W25493  44.433  28.888  12.927
53069W        W25494  42.156   2.262   4.348
53070W        W25495  36.049  41.753  14.392
53071W        W25496  27.647  25.443   2.220
53072W        W25497   8.423  15.177   2.243
53073W        W25498   7.407  36.531   0.721
53074W        W25499  36.006   7.485   1.482
53075W        W25500  29.434  44.569   1.298
53076W        W25501   3.421  25.154   3.254
53077W        W25502   2.257  15.835   1.508
53078W        W25503  14.049   0.493   0.289
53079W        W25504  11.480   0.818  11.644
53080W        W25505  42.799  11.349  13.479
53081W        W25506  32.965  18.586   3.600
53082W        W25507   6.606  14.286   2.836
53083W        W25508  25.266  39.999   1.002
53084W        W25509  38.579  31.638  12.874
53085W        W25510  15.856  43.280   2.236
53086W        W25511  41.386  31.460   0.666
53087W        W25512  26.045  24.129   2.593
53088W        W25513  31.619  27.861  12.034
53089W        W25514  18.833  34.687   0.503
53090W        W25515   2.768  37.399   0.080
53091W        W25516   4.317   7.558   4.836
53092W        W25517  32.944   3.701  14.367
53093W        W25518  29.448  26.812  13.294
53094W        W25519  13.213  22.572   1.284
53095W        W25520  33.453  44.717   1.732
53096W        W25521  19.648  17.366  14.153
53097W        W25522  37.990  12.087   3.315
53098W        W25523  36.691  38.359  14.215
53099W        W25524  39.657  30.093  14.174
53100W        W25525  43.404  39.017  13.296
53101W        W25526  22.644  11.069   0.323
53102W        W25527  18.724   9.810   0.770
53103W        W25528   2.257  38.517  12.535
53104W        W25529  29.956  25.673  12.232
53105W        W25530  26.827  18.537   1.633
53106W        W25531  26.178  43.081  11.655
53107W        W25532  15.838   2.801   2.195
53108W        W25533  37.245  38.775  13.673
53109W        W25534  32.369  12.953   0.014
53110W        W25535  12.171  17.544   1.309
53111W        W25536   3.287  23.803  13.960
53112W        W25537  36.065  25.897  13.092
53113W        W25538  37.153   0.847   0.626
53114W        W25539  16.609  38.544  12.029
53115W        W25540  19.827  37.599   3.110
53116W        W25541   0.780  40.403  13.568
53117W        W25542  31.705  13.735  14.285
53118W        W25543  39.090  38.928  10.425
53119W        W25544  38.425  27.532  11.046
53120W        W25545  22.016  42.497  11.120
53121W        W25546   2.680  22.254  10.372
53122W        W25547  24.166  39.625   5.027
53123W        W25548  36.309  29.399   4.654
53124W        W25549  23.477  42.786  13.488
53125W        W25550  22.282   1.006  13.938
53126W        W25551   4.513  21.830   1.743
53127W        W25552  39.636  31.263  14.034
53128W        W25553  36.408  38.614  11.960
53129W        W25554  34.496  34.359   4.505
53130W        W25555  20.082  22.505  13.796
53131W        W25556   2.365  25.590  10.821
53132W        W25557  18.752  40.282   4.914
53133W        W25558  24.078  24.927  14.872
53134W        W25559  19.209  32.200   5.563
53135W        W25560   0.383  44.398   0.756
53136W        W25561  23.153  26.815   0.351
53137W        W25562   5.410   7.777   4.154
53138W        W25563  44.898  33.143  12.906
53139W        W25564  40.361  41.755  11.015
53140W        W25565  33.937   8.466  10.783
53141W        W25566  22.325  30.480  12.147
53142W        W25567   2.450   5.313  10.999
53143W        W25568  26.471  39.328  12.699
53144W        W25569   0.941   8.295   4.575
53145W        W25570  32.080  20.454   4.991
53146W        W25571  19.522   9.709  13.867
53147W        W25572  10.451  20.531  12.471
53148W        W25573  29.120  17.023  14.844
53149W        W25574   9.352  12.131   1.247
53150W        W25575  38.380  16.720   0.978
53151W        W25576  40.276  29.654   2.715
53152W        W25577  37.487   9.149   3.867
53153W        W25578  28.176  29.219   0.280
53154W        W25579  11.882   0.784   5.058
53155W        W25580  15.662  32.001  14.984
53156W        W25581  22.546   4.942   5.013
53157W        W25582  20.897  38.957   3.252
53158W        W25583   5.192  19.907  14.561
53159W        W25584  23.505  28.631  14.178
53160W        W25585  35.429  20.733  13.321
53161W        W25586  27.633  15.260   3.077
53162W        W25587  32.951  39.302   3.283
53163W        W25588   7.314  21.562   3.917
53164W        W25589  41.247  12.812   0.668
53165W        W25590  33.926  13.718   0.369
53166W        W25591  34.992   5.785  14.242
53167W        W25592  28.654  24.028   1.723
53168W        W25593  36.910  43.575   1.767
53169W        W25594  31.993   0.023   4.159
53170W        W25595  19.748   7.938   1.343
53171W        W25596  23.132   5.700   4.881
53172W        W25597   7.798  39.041  11.648
53173W        W25598   2.994   9.835  13.960
53174W        W25599   9.903  17.138   4.149
53175W        W25600  20.099  10.251   4.085
53176W        W25601  13.676  21.804  11.913
53177W        W25602   4.178  28.561   1.406
53178W        W25603  13.661  40.363   4.739
53179W        W25604  40.552  19.782  12.466
53180W        W25605   1.443  17.850  12.982
53181W        W25606  15.182  10.897  14.900
53182W        W25607  35.442  11.112  13.384
53183W        W25608  40.068   7.259   4.583
53184W        W25609  26.181  21.978   1.832
53185W        W25610  42.010  28.151   4.044
53186W        W25611  44.727  29.014  13.393
53187W        W25612  44.281  27.186   3.190
53188W        W25613  41.366  39.388  10.676
53189W        W25614  27.954   9.750   4.195
53190W        W25615  41.807  17.109   1.069
53191W        W25616  43.211   3.946   0.952
53192W        W25617  35.559  22.673  12.395
53193W        W25618  14.098  13.102  14.325
53194W        W25619   7.637  24.182   2.839
53195W        W25620  22.808  18.584  11.058
53196W        W25621  32.615   8.099   1.930
53197W        W25622   5.963  32.904   3.653
53198W        W25623  13.234   2.442   2.638
53199W        W25624  29.499  28.000   4.996
53200W        W25625  26.756   2.507  12.948
53201W        W25626  27.721   0.825   3.382
53202W        W25627   9.294  27.199   2.738
53203W        W25628  21.110  34.043  11.532
53204W        W25629   2.302  40.561  10.505
53205W        W25630  40.401  26.920  11.453
53206W        W25631  29.157   9.697  13.127
53207W        W25632  10.838   9.121  12.292
53208W        W25633  42.796  24.219   0.368
53209W        W25634  13.765  20.578   1.329
53210W        W25635  35.136   7.831   1.256
53211W        W25636  30.694  38.237   4.055
53212W        W25637  25.722   0.464   1.927
53213W        W25638  40.848  39.077   4.029
53214W        W25639  15.904   5.089   4.235
53215W        W25640  16.207  43.393  12.546
53216W        W25641  13.717  38.523  10.488
53217W        W25642  18.212  36.945  12.059
53218W        W25643  35.986   6.942  11.308
53219W        W25644  23.564   3.432  10.903
53220W        W25645  26.097  40.380  14.889
53221W        W25646  20.799   4.216  13.037
53222W        W25647  15.701  37.164   3.272
53223W        W25648   8.795   5.373   2.187
53224W        W25649  40.830  44.918   2.341
53225W        W25650  38.280  30.075   2.562
53226W        W25651  11.858  14.929   0.331
53227W        W25652  15.409  40.963  14.090
53228W        W25653  37.922  24.177  11.369
53229W        W25654  28.867  42.767   4.177
53230W        W25655  41.417  30.607  10.550
53231W        W25656   1.735  42.257   4.084
53232W        W25657  10.072  41.809   4.237
53233W        W25658   9.198  42.851   3.318
53234W        W25659  30.973  24.330  11.486
53235W        W25660   7.228  29.047   2.469
53236W        W25661  38.921  13.846  13.817
53237W        W25662  44.247  41.224  12.488
53238W        W25663  16.750   3.851   1.446
53239W        W25664  32.353   2.467  14.362
53240W        W25665  42.626   7.373   1.914
53241W        W25666  44.518  40.496  11.033
53242W        W25667  40.749  25.939   3.234
53243W        W25668  28.829  40.368  13.439
53244W        W25669   0.246   1.035   3.819
53245W        W25670  21.638  37.118   3.303
53246W        W25671  28.048  11.884   2.847
53247W        W25672  10.443  36.126   0.735
53248W        W25673   5.839  30.050   0.444
53249W        W25674  34.948  15.153   1.806
53250W        W25675  28.000   8.901   2.085
53251W        W25676  38.502   1.823   4.965
53252W        W25677  22.741   8.937  14.904
53253W        W25678  15.685  20.003  11.415
53254W        W25679  22.936   7.918   3.579
53255W        W25680  37.068   6.085  11.727
53256W        W25681   0.808  44.366   0.445
53257W        W25682   7.379   3.943   0.028
53258W        W25683   6.618  10.711   1.221
53259W        W25684  11.207  13.278  10.623
53260W        W25685  21.585  21.171  13.528
53261W        W25686   7.275  18.691   2.111
53262W        W25687  27.192  36.587  12.052
53263W        W25688  43.418  43.653  12.436
53264W        W25689  25.317   1.743   3.867
53265W        W25690  40.406  34.581   0.976
53266W        W25691  17.102  37.619   9.997
53267W        W25692   1.754  37.873  11.479
53268W        W25693  12.319  34.428  11.539
53269W        W25694  42.436  36.794   4.160
53270W        W25695  24.564   4.611  12.503
53271W        W25696  39.886  18.803   4.038
53272W        W25697  43.848  10.552   1.725
53273W        W25698  34.003   2.329   3.146
53274W        W25699  40.859  16.691  13.287
53275W        W25700   9.309  32.228  10.618
53276W        W25701  44.968  26.987  13.454
53277W        W25702  30.627  23.695   2.341
53278W        W25703   3.219  42.933  13.504
53279W        W25704  41.360  23.791   0.987
53280W        W25705   8.905   8.642  12.878
53281W        W25706  28.223   9.817  10.739
53282W        W25707  12.024  41.333  12.018
53283W        W25708  21.799  27.540  13.473
53284W        W25709  19.272   4.239  10.752
53285W        W25710  32.034  36.892   0.157
53286W        W25711  24.573  27.635   3.344
53287W        W25712  22.808  44.733  14.347
53288W        W25713  41.196   5.896   4.841
53289W        W25714  33.356  27.450   1.075
53290W        W25715  23.620  42.223  12.350
53291W        W25716  26.729   8.151   0.370
53292W        W25717  21.620   0.989   4.436
53293W        W25718  39.944  32.401   2.167
53294W        W25719  40.023  27.779   0.850
53295W        W25720  32.375   2.755  13.038
53296W        W25721  12.330  40.015   1.470
53297W        W25722  27.252  30.633  14.307
53298W        W25723   9.691   0.396  14.319
53299W        W25724  43.694   6.613   1.517
53300W        W25725   6.307  15.138  13.668
53301W        W25726   1.436   0.726  12.417
53302W        W25727  26.963   2.440  11.916
53303W        W25728   4.202  12.216   2.011
53304W        W25729  17.984   4.180  11.906
53305W        W25730  41.231  24.535   0.326
53306W        W25731  26.585  42.050   3.749
53307W        W25732  43.573  40.386   3.226
53308W        W25733   8.673  13.382   0.039
53309W        W25734  28.490  33.685   0.856
53310W        W25735  16.978  19.180   2.383
53311W        W25736  24.529  26.425   3.865
53312W        W25737   4.930  40.012   3.602
53313W        W25738  36.369   0.735   1.935
53314W        W25739  15.002  18.505   3.678
53315W        W25740   5.811   1.349   3.113
53316W        W25741  33.545   9.293   2.664
53317W        W25742   2.905   1.310   0.907
53318W        W25743   6.363  24.501   0.895
53319W        W25744  10.884  42.671  11.090
53320W        W25745   1.431  35.942  12.984
53321W        W25746  28.238  31.042   2.156
53322W        W25747  23.922  28.002  14.478
53323W        W25748  21.978   4.973  13.296
53324W        W25749  15.728  21.280   1.939
53325W        W25750  41.808  22.013  13.822
53326W        W25751  26.953  35.316  11.627
53327W        W25752  20.920  21.194  12.824
53328W        W25753   4.786  40.510   9.999
53329W        W25754  42.371  32.219   3.859
53330W        W25755  37.369  36.842   0.861
53331W        W25756   3.779  18.628  13.135
53332W        W25757   3.781   6.714  14.636
53333W        W25758   4.300  43.173   4.875
53334W        W25759  17.696  30.642  13.073
53335W        W25760   7.124  44.713   0.396
53336W        W25761  34.047  36.170  12.329
53337W        W25762  35.112   3.579  14.855
53338W        W25763  22.013   8.639  11.154
53339W        W25764  42.488  17.322   3.651
53340W        W25765   8.597  24.213   0.908
53341W        W25766  35.532  32.248  12.533
53342W        W25767  10.923  27.570   4.094
53343W        W25768  34.597   0.718   0.474
53344W        W25769  38.160  43.932   9.725
53345W        W25770  40.527  42.268  14.820
53346W        W25771  34.431  16.258  12.315
53347W        W25772  15.886   0.059   0.510
53348W        W25773  26.949  41.589  13.904
53349W        W25774  36.106  18.014  12.525
53350W        W25775  35.490  42.970   1.298
53351W        W25776  11.235   7.865  14.668
53352W        W25777  10.489  35.332   3.575
53353W        W25778  12.386  43.664   1.413
53354W        W25779  37.019  40.482   0.972
53355W        W25780   0.492   9.238  10.444
53356W        W25781   4.368  29.612   3.858
53357W        W25782  36.879  27.349   3.133
53358W        W25783  31.168  12.542  11.856
53359W        W25784  32.445  39.487   3.229
53360W        W25785   1.808   0.060   3.871
53361W        W25786  10.452  44.769  13.500
53362W        W25787  41.307  27.793  13.896
53363W        W25788  21.267  22.211   0.855
53364W        W25789   4.639  32.549  13.444
53365W        W25790  39.859  19.236  13.543
53366W        W25791  14.120  13.265  13.454
53367W        W25792   0.403  23.930  10.662
53368W        W25793  11.226  15.294   1.915
53369W        W25794  37.914  19.876   3.628
53370W        W25795   2.528  19.276   1.269
53371W        W25796  18.416   5.362  13.863
53372W        W25797  17.131  24.959  14.037
53373W        W25798  37.896  29.131   1.206
53374W        W25799  26.628   0.506   3.773
53375W        W25800  36.608   5.234   3.222
53376W        W25801  12.561  20.809   2.217
53377W        W25802  17.876  34.140   1.160
53378W        W25803  38.352  32.455  10.603
53379W        W25804  28.799   8.804  11.231
53380W        W25805   7.215  43.031  11.416
53381W        W25806   5.673  43.252  13.453
53382W        W25807  24.735  30.764   4.524
53383W        W25808  36.887   0.493   4.605
53384W        W25809  42.357  15.347   0.456
53385W        W25810   3.640  15.631  14.986
53386W        W25811  19.707   3.826   1.447
53387W        W25812  39.911  35.334  14.957
53388W        W25813  18.065   2.304  13.952
53389W        W25814  35.859  35.143  12.922
53390W        W25815   9.717  20.642  13.562
53391W        W25816  39.593  33.725  11.910
53392W        W25817  14.133  38.571   4.625
53393W        W25818  34.318  40.728  10.528
53394W        W25819  41.324  29.919   1.103
53395W        W25820  12.753  28.277  12.394
53396W        W25821  43.914  27.963   4.844
53397W        W25822  27.494  27.476  13.895
53398W        W25823  31.430   6.346   4.278
53399W        W25824   0.779  17.163  12.929
53400W        W25825  28.667  41.489   0.234
53401W        W25826  21.787  21.345   1.349
53402W        W25827  44.429  36.940  12.965
53403W        W25828   0.153  27.129  11.220
53404W        W25829   0.989   6.713   3.760
53405W        W25830  27.274   2.320   1.667
53406W        W25831   4.469  13.656   1.340
53407W        W25832  44.651  10.402   4.593
53408W        W25833  23.053  41.735   2.860
53409W        W25834  19.097  10.194   0.915
53410W        W25835  16.180   1.749   3.183
53411W        W25836  10.225   0.997   5.253
53412W        W25837  16.782   8.283  10.941
53413W        W25838   5.929  21.736   4.542
53414W        W25839  19.583  23.800  13.606
53415W        W25840  22.124   7.174   4.612
53416W        W25841  17.745  11.387   2.614
53417W        W25842   8.771   3.223  10.486
53418W        W25843  13.939  28.663  10.710
53419W        W25844  37.119   2.178  13.017
53420W        W25845  27.577  31.621   2.260
53421W        W25846  21.926  32.462  11.680
53422W        W25847  14.386  10.877  13.552
53423W        W25848  37.202   3.898  11.594
53424W        W25849  29.529  35.483  11.104
53425W        W25850  13.247  27.376  13.768
53426W        W25851   8.219  22.503   3.723
53427W        W25852  16.139  23.886  11.526
53428W        W25853  10.590  30.648  14.931
53429W        W25854   7.034  33.059  11.509
53430W        W25855  11.088  23.123  12.390
53431W        W25856  11.379  17.357   1.789
53432W        W25857  23.528  15.376  14.253
53433W        W25858  27.660  21.642   3.280
53434W        W25859  36.055   4.997   3.826
53435W        W25860  43.905  20.647  12.576
53436W        W25861  26.660  39.427   1.043
53437W        W25862  30.574  38.378  10.610
53438W        W25863  42.211  14.856  12.943
53439W        W25864   5.138  23.152   2.329
53440W        W25865  40.437   3.481   2.712
53441W        W25866  12.164  19.252   0.946
53442W        W25867  26.626  43.036   2.690
53443W        W25868   9.876  37.740  13.056
53444W        W25869  31.991  19.230  11.643
53445W        W25870   3.191  44.292   2.840
53446W        W25871  38.811  18.614  12.825
53447W        W25872  36.636   8.136  12.092
53448W        W25873  39.958  39.119   2.345
53449W        W25874  32.668  22.291  12.648
53450W        W25875   5.863   4.853  10.516
53451W        W25876  39.958  42.092  12.647
53452W        W25877  22.005   3.530   2.845
53453W        W25878  33.526  39.936   1.499
53454W        W25879  20.638  36.021   1.834
53455W        W25880  42.465   6.900  10.638
53456W        W25881   6.954   5.821   4.838
53457W        W25882  10.590   9.329   2.665
53458W        W25883  18.513  15.593   0.950
53459W        W25884  35.999  24.248   1.675
53460W        W25885  13.580   2.271  13.946
53461W        W25886  33.947   2.304  12.287
53462W        W25887  10.429   6.983   1.917
53463W        W25888  36.894  14.244  10.918
53464W        W25889  36.068  29.194   1.176
53465W        W25890   6.435  13.559  14.922
53466W        W25891   1.212   7.994   4.199
53467W        W25892  33.916  37.865  12.034
53468W        W25893  31.806   1.756   2.315
53469W        W25894  33.040  27.121   2.225
53470W        W25895  43.537  34.677  13.146
53471W        W25896   7.640  16.733  14.459
53472W        W25897  26.980  23.644  14.362
53473W        W25898  14.749   2.301  11.606
53474W        W25899  19.249  39.378   3.731
53475W        W25900  31.772  17.908  11.080
53476W        W25901  23.412  14.144   1.305
53477W        W25902  30.142  43.906   2.294
53478W        W25903   8.368  15.471  11.160
53479W        W25904  33.652  18.644   1.827
53480W        W25905  39.795  27.727  14.839
53481W        W25906   9.894  26.932   0.860
53482W        W25907   6.180  21.813  11.640
53483W        W25908   5.441  14.352   2.400
53484W        W25909  37.965  12.615  14.345
53485W        W25910  10.579  13.706   0.756
53486W        W25911  13.348  26.685  11.474
53487W        W25912  13.598   6.351   3.719
53488W        W25913  14.217  11.399   1.707
53489W        W25914  32.611  33.955   3.667
53490W        W25915   3.164  18.666  14.399
53491W        W25916  21.379  22.703   0.680
53492W        W25917  28.492  12.890   0.350
53493W        W25918   2.050  23.956   3.880
53494W        W25919  41.566  10.117  14.734
53495W        W25920  24.912  21.507   2.763
53496W        W25921   0.244  17.596   0.460
53497W        W25922  39.943   7.179   1.363
53498W        W25923   3.180  26.148  13.419
53499W        W25924  40.066  32.864   0.283
53500W        W25925  40.966  28.605   2.899
53501W        W25926  16.004  35.428  11.044
53502W        W25927   8.696   4.270   3.853
53503W        W25928  40.357  18.056  12.661
53504W        W25929   2.424   5.337   4.505
53505W        W25930  22.647   1.072  11.200
53506W        W25931  28.555   0.567   4.864
53507W        W25932  19.636  28.043  11.641
53508W        W25933  15.273   6.902   4.023
53509W        W25934   5.402  18.315   1.729
53510W        W25935   5.403  39.316  11.182
53511W        W25936  19.617  41.798  12.242
53512W        W25937  35.773  41.306  12.949
53513W        W25938  20.614  44.852   0.192
53514W        W25939  32.584  43.355  14.370
53515W        W25940  23.274  18.082  14.012
53516W        W25941  22.347  44.874   1.380
53517W        W25942  27.457  33.191  14.275
53518W        W25943  24.047  23.550   4.083
53519W        W25944  29.747  34.132  14.723
53520W        W25945  14.516  27.108   1.313
53521W        W25946  31.450  30.982  12.611
53522W        W25947   3.351  29.114  11.535
53523W        W25948  13.770  21.601   2.257
53524W        W25949  14.679   8.360   2.245
53525W        W25950   4.248  33.004   3.095
53526W        W25951   2.031  22.113  11.178
53527W        W25952   6.702   1.072   1.838
53528W        W25953  20.060  44.539   0.017
53529W        W25954  27.204  28.017   0.194
53530W        W25955   3.952  42.940  14.000
53531W        W25956  29.088  36.145  11.671
53532W        W25957  43.501   0.454  14.466
53533W        W25958  10.699  32.086  12.042
53534W        W25959  19.096  22.499  13.373
53535W        W25960   0.358   9.970   3.427
53536W        W25961  41.816  30.938  10.700
53537W        W25962  42.551   7.106  11.871
53538W        W25963  37.573  24.378  14.352
53539W        W25964  27.126  10.345  13.162
53540W        W25965  20.569   6.648   2.668
53541W        W25966  38.494  18.799  12.481
53542W        W25967   5.919   4.508  12.955
53543W        W25968   3.410   8.214   0.471
53544W        W25969   3.560  19.765   1.959
53545W        W25970  10.493  22.498  11.529
53546W        W25971   4.089  38.898   1.272
53547W        W25972  10.058  30.420   4.568
53548W        W25973  40.974  40.079  11.082
53549W        W25974  37.698  23.041   3.721
53550W        W25975  39.308   5.950  11.989
53551W        W25976   1.808  42.576   0.018
53552W        W25977  21.487   5.367  11.192
53553W        W25978  38.467  41.686   4.592
53554W        W25979  43.829  12.661   2.305
53555W        W25980  34.961  28.565   2.899
53556W        W25981   7.211  21.771  13.805
53557W        W25982  39.492  24.612  12.008
53558W        W25983  15.357  13.164   2.235
53559W        W25984  42.459   9.250   0.213
53560W        W25985  23.621  40.358  13.093
53561W        W25986  27.584  17.227  12.798
53562W        W25987  29.691   1.745  12.018
53563W        W25988   4.694  33.913   2.909
53564W        W25989  21.802  14.846  14.392
53565W        W25990  10.508  22.563  13.224
53566W        W25991  29.021  18.505   0.736
53567W        W25992   1.442  27.062   1.085
53568W        W25993  11.987  22.072  14.098
53569W        W25994  32.915   2.303  11.636
53570W        W25995  41.144  13.329   2.762
53571W        W25996  22.496   0.384  10.651
53572W        W25997  25.125  44.433   4.383
53573W        W25998  29.447  40.163   5.060
53574W        W25999  24.957  20.555   0.576
53575W        W26000  37.928  27.229   1.371
53576W        W26001  27.093  43.916  13.747
53577W        W26002  18.595   2.073  14.765
53578W        W26003  42.030   5.215  11.977
53579W        W26004  14.814  30.504  14.895
53580W        W26005  33.798  41.721   3.827
53581W        W26006  35.516   3.380   1.024
53582W        W26007  25.241  15.810  10.337
53583W        W26008  16.226   2.814  10.783
53584W        W26009  21.784   3.912   1.920
53585W        W26010   8.374  24.684   0.008
53586W        W26011  23.512   4.801   4.211
53587W        W26012  13.767  20.265   4.693
53588W        W26013   5.408  28.710   4.406
53589W        W26014   4.876  22.244   0.512
53590W        W26015  44.590   6.312  11.168
53591W        W26016  21.081  39.761  12.427
53592W        W26017   0.259  39.460  13.327
53593W        W26018  16.982  37.526  14.763
53594W        W26019   9.758  15.675   0.245
53595W        W26020  35.040   3.350  12.018
53596W        W26021  39.114  37.458   1.672
53597W        W26022  16.545  32.552  12.462
53598W        W26023  29.762  35.456  10.653
53599W        W26024   2.488  29.174   4.558
53600W        W26025  12.667   5.723  10.425
53601W        W26026  20.428  16.595  11.993
53602W        W26027  41.387  34.644  12.006
53603W        W26028  18.832   5.032  13.851
53604W        W26029  33.113  28.975  13.604
53605W        W26030  26.942   4.855  10.728
53606W        W26031  38.657  16.310  14.419
53607W        W26032   6.273  23.103   0.810
53608W        W26033  28.940  17.333   3.186
53609W        W26034   9.687   2.486  11.746
53610W        W26035   4.272   6.289  10.443
53611W        W26036  18.499   5.249   3.627
53612W        W26037  25.159  18.708  11.463
53613W        W26038  38.778  44.553   4.654
53614W        W26039  30.047  40.374   3.459
53615W        W26040  14.255  39.750  12.386
53616W        W26041  20.654  27.679   1.506
53617W        W26042  34.284  25.294   3.847
53618W        W26043  44.914  13.134   0.471
53619W        W26044  19.742   5.677   4.724
53620W        W26045  12.238  26.231   2.399
53621W        W26046   9.638  16.722   1.362
53622W        W26047  11.195  36.025  11.399
53623W        W26048  29.685  20.571  11.589
53624W        W26049  37.494  34.976   1.750
53625W        W26050  20.081  14.354   3.716
53626W        W26051   2.841  16.054  12.152
53627W        W26052   0.445   0.858   0.256
53628W        W26053   7.688  27.243   1.857
53629W        W26054  11.350  28.417   4.522
53630W        W26055  32.452  25.295  11.172
53631W        W26056  43.332  13.631  13.366
53632W        W26057  33.827  13.285   3.173
53633W        W26058  44.303  26.556  14.775
53634W        W26059   9.798  13.108   2.930
53635W        W26060   0.394  14.352   0.281
53636W        W26061  30.010   5.201   3.231
53637W        W26062  14.805  21.838  14.391
53638W        W26063   8.396  36.187  11.064
53639W        W26064  21.258  21.425  14.694
53640W        W26065  38.870  24.725  10.020
53641W        W26066  40.329  40.903  10.540
53642W        W26067  34.664  28.734  13.440
53643W        W26068  17.643  23.665   3.195
53644W        W26069   4.818   1.483   0.780
53645W        W26070  43.167  13.407   4.199
53646W        W26071  25.479  41.068  12.382
53647W        W26072  34.189  14.903  12.199
53648W        W26073   0.759  42.394   4.273
53649W        W26074  20.069  11.951  14.552
53650W        W26075   7.449  42.322  13.094
53651W        W26076  17.879  20.082   2.674
53652W        W26077   1.441  24.069  10.352
53653W        W26078  41.352   6.003  11.649
53654W        W26079  14.018  34.779   2.783
53655W        W26080  43.062  28.537  14.053
53656W        W26081   7.640   8.388   5.467
53657W        W26082   5.324  23.284   0.004
53658W        W26083  24.453   5.441   0.016
53659W        W26084   5.217   0.388   1.774
53660W        W26085  37.403   0.702  12.100
53661W        W26086  35.779  11.363  12.528
53662W        W26087  40.978  38.638  14.520
53663W        W26088  42.864   6.366   4.560
53664W        W26089   6.616   2.664   4.188
53665W        W26090   6.225   2.733  11.202
53666W        W26091  22.210  18.907   1.026
53667W        W26092  25.517   4.843  11.133
53668W        W26093   9.661  37.092   5.159
53669W        W26094  35.567   0.705   4.945
53670W        W26095  13.923   3.399  12.592
53671W        W26096  43.809  14.130   2.048
53672W        W26097   6.918  23.958   2.311
53673W        W26098  19.714  25.574  14.390
53674W        W26099  24.700  18.811   1.765
53675W        W26100  29.424   7.124  14.919
53676W        W26101  40.567  25.408   2.301
53677W        W26102  11.344   1.112   0.862
53678W        W26103  37.458   9.142  14.485
53679W        W26104  31.400   5.856   4.108
53680W        W26105  19.180  41.870   1.354
53681W        W26106   9.194   6.658  14.456
53682W        W26107  37.521  16.626   4.114
53683W        W26108  38.543  30.773   3.009
53684W        W26109   0.761   7.208   0.222
53685W        W26110  39.862  42.379   9.852
53686W        W26111  40.771  19.968   2.797
53687W        W26112  33.512  28.499  14.531
53688W        W26113  34.442   6.820   3.262
53689W        W26114  23.257  41.319  10.669
53690W        W26115   5.784  40.771  11.464
53691W        W26116  44.709  30.128   0.015
53692W        W26117   8.719  14.357   3.337
53693W        W26118  29.021  25.433   2.672
53694W        W26119  12.189  32.134  11.067
53695W        W26120  23.175  13.880   1.709
53696W        W26121   8.424  16.707  11.616
53697W        W26122  21.672   8.911   2.273
53698W        W26123  36.515  36.362  12.931
53699W        W26124  30.452  23.532   1.830
53700W        W26125  18.138   7.692   2.134
53701W        W26126   9.189  13.377  12.839
53702W        W26127  36.584  19.272  10.648
53703W        W26128  16.799  10.469   4.596
53704W        W26129  44.501  44.983   2.814
53705W        W26130   7.967  41.681   2.672
53706W        W26131  20.294  37.351  12.455
53707W        W26132  16.617  18.883  12.420
53708W        W26133  12.708  40.715   2.711
53709W        W26134  21.989   8.903  14.016
53710W        W26135  41.866   8.644  11.898
53711W        W26136  25.511  19.070  10.785
53712W        W26137  16.672   0.489   3.709
53713W        W26138   8.784   0.909  14.028
53714W        W26139  34.527  35.762   4.056
53715W        W26140  33.155  12.890  10.739
53716W        W26141   7.910   2.445  13.950
53717W        W26142  42.573   5.623  11.157
53718W        W26143  31.529   1.711  13.018
53719W        W26144  12.932  29.389  13.998
53720W        W26145   0.715  23.011  13.406
53721W        W26146   3.517  22.574  13.484
53722W        W26147  10.727  37.162   4.098
53723W        W26148  25.472   0.451  12.122
53724W        W26149  38.821  43.001  13.612
53725W        W26150   3.711  39.760  14.360
53726W        W26151  19.224   7.170  14.488
53727W        W26152   6.499   9.815  14.331
53728W        W26153  43.238  25.964  12.851
53729W        W26154  37.948   0.373   0.785
53730W        W26155   6.801  41.463  12.972
53731W        W26156  30.002  28.656   4.819
53732W        W26157  35.471  28.696  11.714
53733W        W26158   4.719  25.027   1.237
53734W        W26159  27.118   2.790   4.469
53735W        W26160  27.481  30.920   4.988
53736W        W26161  15.683  43.683  14.402
53737W        W26162   0.319   8.405   0.325
53738W        W26163  19.955  18.340   3.599
53739W        W26164   1.427  30.575  14.441
53740W        W26165  42.440  40.725   1.935
53741W        W26166  18.432  23.025  11.423
53742W        W26167  39.471   8.693   1.281
53743W        W26168  19.295  43.991  10.594
53744W        W26169  16.656  18.101   2.034
53745W        W26170  31.592  30.410  13.377
53746W        W26171  22.511  21.063   1.877
53747W        W26172  21.208  27.787  14.496
53748W        W26173  17.721   4.336   1.884
53749W        W26174  22.295  44.244   0.262
53750W        W26175  27.877  16.812   4.748
53751W        W26176  15.874  25.204  11.477
53752W        W26177  44.396  33.975  13.077
53753W        W26178  38.915   9.659   3.684
53754W        W26179  23.146  19.579  14.330
53755W        W26180  34.781  31.320   0.459
53756W        W26181  35.403  35.046  13.142
53757W        W26182  42.435  15.968   1.749
53758W        W26183   8.985  20.233  14.473
53759W        W26184  35.372  17.493   0.716
53760W        W26185  16.382   1.589   5.454
53761W        W26186  40.905  32.972  10.710
53762W        W26187  34.534  39.886  12.314
53763W        W26188  31.147  43.495   1.827
53764W        W26189   6.296  16.287   3.241
53765W        W26190  36.836   6.560   2.686
53766W        W26191  28.488  10.645  13.988
53767W        W26192  14.219  10.117   1.002
53768W        W26193  37.069  24.880  12.955
53769W        W26194  40.094  19.770   0.760
53770W        W26195  40.923   0.885   2.849
53771W        W26196   2.177  11.805   3.702
53772W        W26197  26.543  33.105  13.994
53773W        W26198  31.051   5.225  14.476
53774W        W26199  18.352  26.945   0.705
53775W        W26200  40.138   3.577  14.612
53776W        W26201  26.558   7.324  12.566
53777W        W26202  35.458  33.188   4.633
53778W        W26203   9.097   5.665  10.636
53779W        W26204  40.278  28.354  12.531
53780W        W26205  37.452  34.377  10.505
53781W        W26206  32.010  16.668  12.821
53782W        W26207  38.882  36.833   2.742
53783W        W26208  44.209  24.515  14.380
53784W        W26209   3.699  25.118  13.304
53785W        W26210  44.036  40.359   2.253
53786W        W26211  31.612  16.306   3.762
53787W        W26212   3.806  23.906   0.352
53788W        W26213  28.021  26.669  10.183
53789W        W26214  21.696  24.533  13.735
53790W        W26215  17.197   0.499   2.775
53791W        W26216   0.214  31.698  14.489
53792W        W26217  27.684  22.934  13.875
53793W        W26218  31.996   7.925  12.066
53794W        W26219  22.117  29.513   1.530
53795W        W26220  23.090  21.556   0.420
53796W        W26221  16.080  37.537   4.514
53797W        W26222  12.221  19.095   3.192
53798W        W26223  23.561  24.986  10.457
53799W        W26224  38.821   1.445   2.762
53800W        W26225  23.905   6.247  12.521
53801W        W26226  35.455  19.497   0.759
53802W        W26227   3.351  35.007   2.830
53803W        W26228  32.030  39.847  12.362
53804W        W26229  20.525  33.628   0.772
53805W        W26230  31.925  13.216   3.286
53806W        W26231  26.166  25.064  12.445
53807W        W26232  12.807  27.393  14.020
53808W        W26233  26.971  12.230   1.648
53809W        W26234  14.097  23.544   4.080
53810W        W26235  36.611  15.667  10.317
53811W        W26236  20.191   2.265   1.274
53812W        W26237  44.273  12.174  13.035
53813W        W26238  20.534   8.752   0.854
53814W        W26239  14.577   9.508   3.220
53815W        W26240   5.434  36.378   2.220
53816W        W26241  25.563  13.735   4.560
53817W        W26242   7.902  39.533   4.971
53818W        W26243   2.756   5.844  14.517
53819W        W26244  23.118  14.316  13.397
53820W        W26245  18.653  30.561  12.810
53821W        W26246   0.028   9.932   2.794
53822W        W26247  14.769  17.106  10.595
53823W        W26248  32.321  16.029   2.146
53824W        W26249  36.343  39.242   0.276
53825W        W26250  12.813  14.876   0.327
53826W        W26251   8.343  33.272   3.997
53827W        W26252  40.604   3.789   3.340
53828W        W26253  36.389  15.206  13.995
53829W        W26254  40.441  25.120   5.044
53830W        W26255   5.109  34.920  14.994
53831W        W26256  24.417  18.564   0.754
53832W        W26257  30.993  42.074   1.862
53833W        W26258  34.859   9.949   0.875
53834W        W26259  37.553  36.597  12.898
53835W        W26260  34.760  33.900   4.526
53836W        W26261  13.878  37.928   4.546
53837W        W26262  16.795   9.343  12.796
53838W        W26263  41.240  19.132   3.848
53839W        W26264  23.614  42.499  14.559
53840W        W26265  17.795  22.581  10.563
53841W        W26266  32.042   4.079   3.259
53842W        W26267  21.308  17.745   2.941
53843W        W26268  14.568  42.296   1.339
53844W        W26269  29.911   2.492   2.764
53845W        W26270  35.713  43.846   4.082
53846W        W26271   3.460  44.828  14.699
53847W        W26272  29.899  41.852   2.182
53848W        W26273  22.653  25.578  12.584
53849W        W26274  44.813  34.007  14.983
53850W        W26275   8.128  27.183   0.287
53851W        W26276   7.374  35.016   4.574
53852W        W26277  35.089  40.729   4.053
53853W        W26278  12.865   9.678  12.443
53854W        W26279  40.000   1.907   0.692
53855W        W26280  23.579  21.082  14.743
53856W        W26281  26.175  15.826  11.461
53857W        W26282   0.716  14.788  14.041
53858W        W26283  13.372  17.855  12.852
53859W        W26284   6.884  40.319   0.888
53860W        W26285  12.638  15.022  11.690
53861W        W26286  10.661  37.874   1.780
53862W        W26287   0.818  12.768  12.082
53863W        W26288  13.204  34.826  13.920
53864W        W26289  25.809  13.215   2.391
53865W        W26290  10.751  11.733  13.765
53866W        W26291  20.741  14.118  13.926
53867W        W26292  39.393   5.403  14.558
53868W        W26293  14.391  29.554  12.968
53869W        W26294  33.497  13.715   0.010
53870W        W26295  24.179  12.596  11.449
53871W        W26296   6.985  42.880   4.593
53872W        W26297  30.559  15.894   0.977
53873W        W26298  42.510  35.016  13.873
53874W        W26299  40.832   5.928  11.670
53875W        W26300  14.657   4.171  12.673
53876W        W26301  36.026  44.549   1.898
53877W        W26302  24.772  25.110   0.374
53878W        W26303  36.254  41.837   1.764
53879W        W26304  10.082  42.305  12.374
53880W        W26305  43.914  36.493   4.953
53881W        W26306  18.173  30.520  10.048
53882W        W26307   3.265  26.740   2.341
53883W        W26308  25.251  24.412   0.235
53884W        W26309  25.094  38.251  12.968
53885W        W26310  34.631  41.482  14.075
53886W        W26311  37.937  21.179   3.385
53887W        W26312  34.386   8.675   0.765
53888W        W26313  22.034  20.195   2.085
53889W        W26314  15.078  17.650   2.721
53890W        W26315  21.162   4.740   4.808
53891W        W26316  31.527  31.926   4.109
53892W        W26317  16.208  15.833  14.471
53893W        W26318  27.132  32.461   0.199
53894W        W26319  41.212  23.091  13.898
53895W        W26320  13.016  29.169  11.435
53896W        W26321  16.708  23.628  14.429
53897W        W26322  38.315   8.678   4.330
53898W        W26323   4.947  26.082  10.959
53899W        W26324   5.942  34.675   3.872
53900W        W26325  40.744   2.882   3.463
53901W        W26326  25.698  34.783  10.716
53902W        W26327  41.525  44.581   9.586
53903W        W26328  37.799  29.941   1.640
53904W        W26329  17.701   6.186   3.351
53905W        W26330  29.103  30.211   0.445
53906W        W26331   4.204  11.414  14.027
53907W        W26332  16.374  26.426   3.089
53908W        W26333  10.668  12.697   4.567
53909W        W26334  16.852  13.593   0.085
53910W        W26335  34.947   8.900  10.689
53911W        W26336  27.548  25.173  11.256
53912W        W26337  12.204  31.307   3.137
53913W        W26338  37.067   1.898   3.114
53914W        W26339  38.974   1.260   1.215
53915W        W26340   0.751  37.903  11.404
53916W        W26341  14.241  35.829  11.270
53917W        W26342   7.071  37.576  14.482
53918W        W26343  38.842   5.120  12.109
53919W        W26344  26.762  31.694   0.053
53920W        W26345  21.570   3.964   4.661
53921W        W26346   8.327  41.375   2.336
53922W        W26347   4.475  39.597   2.445
53923W        W26348   0.926  44.805  13.880
53924W        W26349  27.569  39.457   4.493
53925W        W26350  37.974  12.578   3.654
53926W        W26351  41.956  23.015   0.317
53927W        W26352  12.259  17.020   1.356
53928W        W26353  36.817  20.843   5.135
53929W        W26354  17.571   3.761   0.234
53930W        W26355  35.911  23.678   4.985
53931W        W26356  25.605   8.970   2.691
53932W        W26357   1.926  41.020   3.910
53933W        W26358  41.061  33.867  14.034
53934W        W26359  12.819  41.099  12.026
53935W        W26360  43.922  15.657   2.781
53936W        W26361  11.030  28.634   0.720
53937W        W26362  10.419  26.230  12.580
53938W        W26363  19.825  21.450  11.422
53939W        W26364  41.525  36.023   1.394
53940W        W26365  16.618  39.944  10.513
53941W        W26366  15.689  32.617  14.562
53942W        W26367  29.510  28.491   4.869
53943W        W26368  43.784  26.992   3.182
53944W        W26369  18.022  19.215  13.056
53945W        W26370  10.148  23.514  14.306
53946W        W26371  17.312  40.850  11.492
53947W        W26372   8.714  37.891  11.397
53948W        W26373  17.165  42.082   1.534
53949W        W26374  39.379   4.657  11.636
53950W        W26375  32.546   9.369   2.580
53951W        W26376   6.882   5.418   1.778
53952W        W26377  10.339  15.277   5.042
53953W        W26378  38.043  26.446   1.835
53954W        W26379  39.352  41.459  12.125
53955W        W26380  17.243  19.393   2.793
53956W        W26381   8.207  20.459  12.007
53957W        W26382  41.468   9.073   3.911
53958W        W26383  26.407   0.324  14.851
53959W        W26384  43.818  22.783   0.371
53960W        W26385  37.097  40.429   3.692
53961W        W26386  10.272  43.438  14.486
53962W        W26387  10.630  19.481  10.854
53963W        W26388  18.093  20.262   3.747
53964W        W26389  39.551   6.684   1.242
53965W        W26390  15.294   9.698   3.233
53966W        W26391  28.981   3.753  10.728
53967W        W26392   4.349  23.485   0.826
53968W        W26393  37.997  29.049   0.688
53969W        W26394  36.413  30.109   1.933
53970W        W26395  18.298  31.224  12.305
53971W        W26396  34.483  24.493   4.744
53972W        W26397  12.019  24.266  13.879
53973W        W26398  44.330  20.819  12.884
53974W        W26399  41.940  25.869  11.507
53975W        W26400   3.205  22.161   2.157
53976W        W26401  36.605   6.511   3.647
53977W        W26402  37.956  34.564  10.404
53978W        W26403  42.269  18.744  12.692
53979W        W26404  36.337   4.357  11.610
53980W        W26405  42.294  32.929   0.230
53981W        W26406  38.868  23.203   4.368
53982W        W26407   2.798  31.330  13.392
53983W        W26408  16.810  18.616  12.035
53984W        W26409  39.822   9.628  13.800
53985W        W26410  35.029  23.480  13.338
53986W        W26411   6.168   4.824   0.807
53987W        W26412  36.299  21.272  14.323
53988W        W26413  38.077   2.220  11.498
53989W        W26414  13.622  37.498   1.707
53990W        W26415  18.354  20.059   4.154
53991W        W26416  44.360  44.339  12.136
53992W        W26417  28.717   8.847   1.102
53993W        W26418  23.807  27.090  11.103
53994W        W26419  26.699  23.180   3.643
53995W        W26420  19.713  35.540  13.713
53996W        W26421  24.211  33.168  12.892
53997W        W26422  35.384   8.175  11.156
53998W        W26423  39.344  21.030   0.917
53999W        W26424   1.312  26.389   4.105
54000W        W26425  12.605  13.815  14.853
54001W        W26426   7.784   8.442   1.782
54002W        W26427   5.490  37.836  12.071
54003W        W26428   8.666  28.635  12.942
54004W        W26429  10.592  29.482  10.438
54005W        W26430  27.027  13.266  10.726
54006W        W26431  35.587  36.085   1.388
54007W        W26432  32.629  16.476   4.731
54008W        W26433  38.617   5.984  12.813
54009W        W26434  35.570  25.706   2.419
54010W        W26435  43.324  19.602  11.662
54011W        W26436  23.089  17.509   2.419
54012W        W26437   4.632  13.612  14.466
54013W        W26438   4.111  36.988  12.396
54014W        W26439   7.860  37.571  11.148
54015W        W26440  28.202  28.991   2.939
54016W        W26441  39.960  33.070  11.149
54017W        W26442  21.771  28.645   1.675
54018W        W26443  22.647  37.359  12.038
54019W        W26444  36.268  43.038   2.117
54020W        W26445  36.665  35.806  14.310
54021W        W26446  33.307  22.716  11.988
54022W        W26447  25.744  18.344   2.950
54023W        W26448  18.596  20.099   4.890
54024W        W26449   6.674  35.274   5.025
54025W        W26450  38.072  24.555  14.405
54026W        W26451  44.811  11.730  11.793
54027W        W26452  11.862   7.248   1.250
54028W        W26453  29.728  37.434   0.869
54029W        W26454  43.563  17.675   1.766
54030W        W26455   5.835   9.286   3.098
54031W        W26456  42.025  38.103  11.072
54032W        W26457   1.337  14.648  10.935
54033W        W26458  18.667  13.062   0.790
54034W        W26459  10.880  36.669  12.711
54035W        W26460  23.776  13.873   1.024
54036W        W26461   0.327  42.162   3.662
54037W        W26462  18.573  35.082   2.783
54038W        W26463  38.202  15.327  11.980
54039W        W26464  15.084  44.221  14.598
54040W        W26465  25.996  23.310   0.744
54041W        W26466   1.045   7.403   2.274
54042W        W26467   7.271  31.499  12.559
54043W        W26468   9.652  13.997  13.550
54044W        W26469   8.603  42.429  11.454
54045W        W26470  29.746  11.289  10.738
54046W        W26471  14.594  12.535  14.914
54047W        W26472   3.365  21.131  13.091
54048W        W26473  29.127   9.254  12.002
54049W        W26474  16.631   8.079   3.252
54050W        W26475  33.983  44.984   4.218
54051W        W26476  30.805  17.991   4.195
54052W        W26477  12.815   8.019   2.387
54053W        W26478  35.845  31.100   1.648
54054W        W26479  11.934  31.020  13.856
54055W        W26480  40.400  31.938  12.899
54056W        W26481  41.498  12.840   1.125
54057W        W26482  15.106  31.885   1.083
54058W        W26483   1.901  15.550  10.732
54059W        W26484   6.869  14.562  12.041
54060W        W26485  15.030  40.985   2.836
54061W        W26486  35.027   2.332   1.046
54062W        W26487  35.254   6.894   4.404
54063W        W26488   1.935  17.691   4.137
54064W        W26489   6.421  12.559   2.671
54065W        W26490  38.889  21.739   3.293
54066W        W26491  10.005   9.149   0.136
54067W        W26492  12.193  32.200  14.456
54068W        W26493  22.697  11.853  14.987
54069W        W26494   2.170  36.867  12.951
54070W        W26495  44.347  36.171  13.992
54071W        W26496  20.527  39.028  11.358
54072W        W26497  21.433  10.185   4.729
54073W        W26498   4.369  22.520  10.771
54074W        W26499  33.297  28.031  14.709
54075W        W26500  10.573  11.145   0.651
54076W        W26501  24.709  44.127   3.506
54077W        W26502   6.726  37.775  10.645
54078W        W26503  28.328  38.332   3.292
54079W        W26504   2.967  13.754   0.353
54080W        W26505  26.056  38.424   4.665
54081W        W26506  25.449  19.751   4.548
54082W        W26507  32.382  11.278   3.742
54083W        W26508   4.756  12.916  12.985
54084W        W26509  43.318  33.126   0.035
54085W        W26510  39.995  11.741   0.528
54086W        W26511   1.792  37.779  14.064
54087W        W26512  35.748  13.552   1.413
54088W        W26513  22.490  21.648  14.699
54089W        W26514   4.686  41.768   4.112
54090W        W26515  26.460  16.767   0.980
54091W        W26516   3.993  23.429  13.627
54092W        W26517   2.787  11.143   1.030
54093W        W26518  35.606  37.016  14.405
54094W        W26519  30.262  28.714  10.384
54095W        W26520  12.630  27.091  13.050
54096W        W26521   6.059  19.600   2.614
54097W        W26522  29.898  22.422   3.722
54098W        W26523  36.503  34.837  14.223
54099W        W26524   0.530  16.105  10.489
54100W        W26525  10.731  34.853   3.010
54101W        W26526  32.948  18.504  12.601
54102W        W26527  31.000   6.511  11.965
54103W        W26528  15.372  33.422   2.379
54104W        W26529   7.638  38.787   3.626
54105W        W26530   8.933  31.645   1.948
54106W        W26531  42.654  31.035  12.895
54107W        W26532  42.928   2.645   1.710
54108W        W26533  21.241  25.578  13.869
54109W        W26534  18.115  10.322  11.879
54110W        W26535   9.082   7.758  12.839
54111W        W26536  20.047  35.630  11.085
54112W        W26537   6.454  33.520  14.015
54113W        W26538  42.882  14.352  13.042
54114W        W26539  14.949  22.980  14.961
54115W        W26540  28.903   4.811  13.048
54116W        W26541  15.181  34.048   4.131
54117W        W26542  38.016  34.063  11.138
54118W        W26543  15.568  12.703  14.802
54119W        W26544  18.341   0.333  10.893
54120W        W26545  23.767  30.119  10.448
54121W        W26546  44.552  41.607   0.908
54122W        W26547   7.483  43.830  11.119
54123W        W26548   6.211  38.250   2.679
54124W        W26549  17.025  10.629  14.451
54125W        W26550   3.180  18.094  12.469
54126W        W26551  40.614   0.316  14.948
54127W        W26552  39.731  42.442   1.911
54128W        W26553   6.336  23.845   1.357
54129W        W26554  27.769  31.306  11.637
54130W        W26555  15.223   4.117   3.093
54131W        W26556  27.198   1.649  10.697
54132W        W26557  43.278  30.228  14.962
54133W        W26558  11.744  23.499  10.672
54134W        W26559  37.738  39.140   4.227
54135W        W26560  13.824  33.928  12.086
54136W        W26561   0.071  10.353   3.661
54137W        W26562  11.629  26.164   3.571
54138W        W26563  23.729  11.334  13.301
54139W        W26564  35.041  35.036   0.422
54140W        W26565  29.994  22.545  14.466
54141W        W26566   2.303   3.500  11.024
54142W        W26567  26.940  26.920  10.973
54143W        W26568  37.134  40.991   0.819
54144W        W26569  25.162   6.426  12.941
54145W        W26570  13.119  14.625  12.861
54146W        W26571  43.275  18.066   5.214
54147W        W26572  36.946   9.187   3.178
54148W        W26573  22.176  14.863   1.603
54149W        W26574  28.907  28.419  14.841
54150W        W26575  18.832   8.679   5.016
54151W        W26576   7.296  34.359  14.534
54152W        W26577  40.955  10.876   2.850
54153W        W26578  16.126  19.276   3.347
54154W        W26579  24.394   9.649   0.809
54155W        W26580   3.748  20.250  10.759
54156W        W26581  32.556  14.870  11.085
54157W        W26582  30.427  31.060   3.177
54158W        W26583  38.605  31.946  14.968
54159W        W26584   3.545  16.649  10.614
54160W        W26585  21.073  29.747   0.769
54161W        W26586  38.898  38.857  13.601
54162W        W26587  39.587   2.810   1.940
54163W        W26588  22.302  26.257   3.360
54164W        W26589  37.269  13.102   1.164
54165W        W26590   6.877  38.382  14.490
54166W        W26591   1.267   5.717  13.456
54167W        W26592   4.169   6.822  14.937
54168W        W26593  18.695  11.682   1.667
54169W        W26594   2.611  23.193   0.179
54170W        W26595   6.237  16.090   2.747
54171W        W26596  10.355  20.888   1.670
54172W        W26597  28.330   6.830  12.758
54173W        W26598  40.747   0.770   0.251
54174W        W26599  40.099  43.432   0.432
54175W        W26600  42.999  17.371  12.319
54176W        W26601  38.864   4.200  14.004
54177W        W26602  23.887  19.265  14.098
54178W        W26603  39.250   4.050  14.308
54179W        W26604  36.398  33.181  11.380
54180W        W26605  37.289  22.207  11.639
54181W        W26606  17.646  30.414  13.533
54182W        W26607  16.070  11.786   2.162
54183W        W26608  36.830  34.993   0.935
54184W        W26609  36.907   4.819   3.235
54185W        W26610  15.548   4.821   1.459
54186W        W26611  26.579  11.820   4.168
54187W        W26612  44.333  17.697  11.532
54188W        W26613  11.416  12.842   0.939
54189W        W26614   0.760   3.728  14.884
54190W        W26615  37.432  19.386  11.605
54191W        W26616  31.577  11.523   4.536
54192W        W26617  33.604  31.577  13.956
54193W        W26618  14.562  16.828   1.018
54194W        W26619  22.590  39.374   0.797
54195W        W26620   5.181   6.362  12.554
54196W        W26621  12.157   8.998   2.837
54197W        W26622  10.902  15.627   2.837
54198W        W26623  33.007  24.179   0.395
54199W        W26624   6.730  18.086  11.155
54200W        W26625  16.369   3.424   2.794
54201W        W26626  23.946   0.870   3.682
54202W        W26627  13.571  25.526  11.210
54203W        W26628  26.580  32.662   5.549
54204W        W26629  33.326  38.100   3.828
54205W        W26630  10.728  34.554  14.028
54206W        W26631  44.061  17.743   1.857
54207W        W26632  40.126  29.888  13.459
54208W        W26633  41.927  28.679   2.651
54209W        W26634   8.273  28.939   2.207
54210W        W26635  26.450  37.689  12.133
54211W        W26636  27.216  41.817  13.469
54212W        W26637   2.296  34.117   3.879
54213W        W26638  13.134  37.959  13.805
54214W        W26639  40.471  21.529   0.470
54215W        W26640  41.460  40.588   4.549
54216W        W26641   1.315  13.078  14.205
54217W        W26642   9.886  40.473   2.246
54218W        W26643  31.645   8.479  10.978
54219W        W26644  34.900  10.079  11.469
54220W        W26645  30.894  11.062  14.060
54221W        W26646  18.055   0.081   0.299
54222W        W26647   6.428  18.792   1.827
54223W        W26648  34.480  21.363   0.414
54224W        W26649  17.687   3.380  12.189
54225W        W26650  28.891  39.575   3.162
54226W        W26651  33.181  17.232   3.655
54227W        W26652  26.901  30.856  12.977
54228W        W26653  32.242  43.971   1.770
54229W        W26654  11.352  11.908   0.053
54230W        W26655  40.452  44.391   0.002
54231W        W26656  20.142   0.728   1.309
54232W        W26657  42.278  40.257   1.829
54233W        W26658  13.461  31.604   0.244
54234W        W26659  29.560  10.243   1.322
54235W        W26660  27.420   1.258  14.855
54236W        W26661  32.193  10.739   4.910
54237W        W26662  28.845  16.613   3.749
54238W        W26663  29.143  35.127   0.286
54239W        W26664   5.080  36.329  12.126
54240W        W26665  37.955  43.872   3.207
54241W        W26666  17.175  24.456  14.034
54242W        W26667  21.177  44.394   1.689
54243W        W26668   8.354  40.357  14.482
54244W        W26669  14.036  42.944  10.591
54245W        W26670  39.873  18.357  11.358
54246W        W26671   3.234   4.042  11.095
54247W        W26672   1.346   4.453  14.735
54248W        W26673  35.570  33.507  10.746
54249W        W26674   0.409  28.540  13.542
54250W        W26675  18.201  10.193   1.867
54251W        W26676   3.374  23.605   1.267
54252W        W26677  39.110   5.288  11.706
54253W        W26678  20.982  13.721  12.901
54254W        W26679   7.050  15.540   1.351
54255W        W26680  10.802  20.756   1.924
54256W        W26681  25.779  12.286   2.156
54257W        W26682  35.655  41.727  13.750
54258W        W26683  23.675  23.343   1.898
54259W        W26684  26.700  13.747  12.017
54260W        W26685   5.710  25.329  14.951
54261W        W26686  36.074  17.263  14.645
54262W        W26687   4.475   6.514   0.679
54263W        W26688  33.631  43.536   0.130
54264W        W26689  22.601  15.680  13.867
54265W        W26690  39.049  16.586   2.336
54266W        W26691  17.865  43.429   2.094
54267W        W26692  30.202  10.264   3.592
54268W        W26693   0.881  31.696   3.218
54269W        W26694   6.519  42.945   2.924
54270W        W26695  29.517  16.863   4.567
54271W        W26696  33.867  20.005   0.758
54272W        W26697  11.582  12.571  11.269
54273W        W26698  10.294  15.372   3.326
54274W        W26699  38.040   2.232  10.966
54275W        W26700  19.026  38.166   4.269
54276W        W26701  27.389  16.641  11.901
54277W        W26702  15.955  24.605  12.080
54278W        W26703  17.999   6.842   4.158
54279W        W26704   5.133  33.614  10.121
54280W        W26705  22.445  25.451  13.202
54281W        W26706  15.769  30.069  14.748
54282W        W26707  13.609  34.880   4.547
54283W        W26708   4.714  29.233   4.086
54284W        W26709  24.572   3.105  12.493
54285W        W26710  40.316  41.975   4.300
54286W        W26711  28.498  11.117   1.319
54287W        W26712   0.218  25.121  12.516
54288W        W26713  30.037  21.189  12.491
54289W        W26714  26.176   2.822  13.907
54290W        W26715  17.135   9.909   0.225
54291W        W26716  27.368  22.920   0.924
54292W        W26717  27.664  15.812  10.940
54293W        W26718   6.905  42.835  14.026
54294W        W26719   2.808  20.213   4.344
54295W        W26720   9.076  28.731   3.652
54296W        W26721   5.468   9.719   1.214
54297W        W26722  26.550  11.904   2.601
54298W        W26723  16.268  31.482  11.900
54299W        W26724  13.995  30.479   1.962
54300W        W26725  36.630  44.467  13.413
54301W        W26726  17.284   2.360   4.499
54302W        W26727  30.033  39.078  11.620
54303W        W26728  42.950  25.275   1.376
54304W        W26729  22.771  26.174   1.661
54305W        W26730  17.807  18.195   4.275
54306W        W26731  20.906  18.252  12.459
54307W        W26732  43.201  40.888  13.105
54308W        W26733  23.216  30.051  10.562
54309W        W26734  37.542   8.788  10.650
54310W        W26735  39.408   8.453   2.668
54311W        W26736  40.821  42.016   9.671
54312W        W26737  15.328  12.515   2.657
54313W        W26738  13.076  22.603  13.871
54314W        W26739  14.188  21.061  11.928
54315W        W26740  39.490  30.372   3.720
54316W        W26741  29.756   4.390  13.889
54317W        W26742  16.189   3.720   4.222
54318W        W26743  38.316   9.756  10.994
54319W        W26744   9.373  36.346   9.709
54320W        W26745  22.003  11.540  12.825
54321W        W26746  10.147  28.313  12.658
54322W        W26747  32.504  15.907   5.463
54323W        W26748  33.428  24.238   3.174
54324W        W26749  30.132  28.108  13.530
54325W        W26750  42.957  30.630   1.688
54326W        W26751   3.695   5.253  12.385
54327W        W26752  41.021  14.291  14.261
54328W        W26753   9.880   6.809   2.193
54329W        W26754  39.627  38.347   0.727
54330W        W26755  32.751   1.960  12.023
54331W        W26756  13.830  16.845   0.481
54332W        W26757  31.177  26.230   0.291
54333W        W26758  18.781   2.380   3.172
54334W        W26759  40.744  11.367   2.230
54335W        W26760  21.966  35.315   3.284
54336W        W26761  12.059   6.756  12.596
54337W        W26762  36.082  19.826  14.483
54338W        W26763  40.085  20.218  14.527
54339W        W26764  43.445   4.073  13.808
54340W        W26765  24.499  11.214   1.779
54341W        W26766  12.342  21.196  10.721
54342W        W26767  10.606  20.037  12.630
54343W        W26768  14.966  33.009   0.040
54344W        W26769   2.951  29.640   2.713
54345W        W26770   4.523  12.822   4.203
54346W        W26771   7.795  31.378   2.392
54347W        W26772  27.139  25.209   3.110
54348W        W26773  39.132  29.908   1.701
54349W        W26774  17.089  17.660   4.275
54350W        W26775  38.850  19.717   2.904
54351W        W26776  44.366  44.784  10.436
54352W        W26777   5.241  39.279  13.583
54353W        W26778  32.501   3.850  11.681
54354W        W26779  29.984  38.146  12.930
54355W        W26780   8.671  44.429  11.451
54356W        W26781  22.657  18.313  10.637
54357W        W26782  40.542   5.252  14.840
54358W        W26783  19.456  36.513   0.850
54359W        W26784  27.409  35.132   2.684
54360W        W26785  22.684  43.539  11.981
54361W        W26786  39.348  38.334   3.844
54362W        W26787   6.576  35.535   4.592
54363W        W26788   1.303  42.425  13.862
54364W        W26789   7.925  15.726  10.763
54365W        W26790  18.575  13.391  12.187
54366W        W26791  42.757   9.223   0.970
54367W        W26792  44.803   3.740   2.891
54368W        W26793  18.729  14.191   4.557
54369W        W26794  19.453  19.463  14.344
54370W        W26795  14.731  10.888   1.368
54371W        W26796  20.037   2.452  13.778
54372W        W26797  35.454   3.452   2.474
54373W        W26798  39.795   4.153  13.994
54374W        W26799  32.700   2.293  12.874
54375W        W26800  44.827  38.309  10.687
54376W        W26801   7.497  27.827  14.027
54377W        W26802   3.292  33.022   4.579
54378W        W26803   2.019   8.597   3.231
54379W        W26804  31.468  20.664   3.736
54380W        W26805  34.967  27.423   1.671
54381W        W26806  19.235  12.391   2.856
54382W        W26807  16.393  13.631  10.450
54383W        W26808  24.286  14.167   2.546
54384W        W26809   7.233  36.796   4.388
54385W        W26810   4.894  25.929   4.678
54386W        W26811  18.766   1.288   3.119
54387W        W26812  22.205  15.868  12.350
54388W        W26813  30.951  11.250  11.356
54389W        W26814   5.315   3.743   4.026
54390W        W26815  34.586  36.431   2.427
54391W        W26816  39.505  27.424   1.722
54392W        W26817  16.794  20.557  14.389
54393W        W26818  20.605  20.523   1.921
54394W        W26819  18.825   7.658   4.523
54395W        W26820  38.048  24.633  11.608
54396W        W26821  32.823  31.001  14.931
54397W        W26822  26.535   2.347   0.448
54398W        W26823  11.663  19.900  13.048
54399W        W26824  15.008  10.382   2.359
54400W        W26825  21.731  10.887   2.124
54401W        W26826  26.155  11.406   1.690
54402W        W26827  36.001  22.193   2.013
54403W        W26828  39.454  25.413  13.635
54404W        W26829  28.022  16.329  11.179
54405W        W26830  44.721  38.830   3.177
54406W        W26831   6.738  27.266  11.847
54407W        W26832  11.159  16.793  13.842
54408W        W26833  30.016  38.313   1.069
54409W        W26834  11.177  39.312   2.602
54410W        W26835   6.139  20.677   3.603
54411W        W26836   2.531  40.488  11.479
54412W        W26837  40.505  34.139  11.968
54413W        W26838   5.418  24.827  14.904
54414W        W26839  21.899   4.747   2.268
54415W        W26840  30.515  10.128  11.622
54416W        W26841   8.903  37.643   4.702
54417W        W26842  40.103  30.105  10.763
54418W        W26843  42.505  13.902   2.661
54419W        W26844  30.661  35.528   2.869
54420W        W26845  22.400  21.455   4.106
54421W        W26846  14.294   8.213  12.431
54422W        W26847  18.178  34.138  14.595
54423W        W26848  23.066  15.209  13.053
54424W        W26849  13.086  18.374  12.140
54425W        W26850  43.707  37.847  11.962
54426W        W26851   6.279   2.825   1.622
54427W        W26852  19.556  21.308  14.359
54428W        W26853   6.217  12.772  12.964
54429W        W26854   7.804  42.483   4.823
54430W        W26855  30.133  17.632  11.132
54431W        W26856   4.284  28.653  13.805
54432W        W26857   3.862  16.419   3.702
54433W        W26858   8.771  33.660   0.274
54434W        W26859  27.005  37.394  10.699
54435W        W26860  10.249   7.372  12.795
54436W        W26861  10.678   4.938  11.209
54437W        W26862  27.128  11.729  13.821
54438W        W26863  28.106  29.512   2.588
54439W        W26864   1.541  44.344   4.588
54440W        W26865  13.258  35.842   3.250
54441W        W26866  22.695  38.513  13.064
54442W        W26867  36.351  21.070  12.964
54443W        W26868  43.568  26.976  13.204
54444W        W26869  41.286  12.703  14.803
54445W        W26870   3.511  41.901   1.399
54446W        W26871  25.575  16.238  11.980
54447W        W26872   9.840  18.600  10.701
54448W        W26873  22.439  13.657   3.387
54449W        W26874  44.379  24.251   2.678
54450W        W26875  24.644  44.055  13.016
54451W        W26876   9.518   6.215  14.412
54452W        W26877   5.865  11.733   3.811
54453W        W26878  25.152  43.104  11.141
54454W        W26879  32.556  37.358   3.205
54455W        W26880  37.411  31.123   2.827
54456W        W26881  43.540  42.511  13.240
54457W        W26882  34.475  15.428  11.086
54458W        W26883  22.938  24.102  13.034
54459W        W26884  31.918  28.054   1.913
54460W        W26885   9.543  30.633   3.372
54461W        W26886  31.206  25.994   4.278
54462W        W26887  28.340  27.664  11.627
54463W        W26888  27.216  32.060   2.174
54464W        W26889  11.095   9.815  13.946
54465W        W26890  23.042  13.852  13.631
54466W        W26891   8.572   8.791  14.524
54467W        W26892  24.992   8.157  12.673
54468W        W26893  40.344  19.500  13.839
54469W        W26894   7.277   0.182   1.184
54470W        W26895  43.006  39.672   0.726
54471W        W26896  16.720  15.099  13.396
54472W        W26897  26.471  32.546  13.492
54473W        W26898  24.530  25.007   4.766
54474W        W26899  18.024  25.938   2.851
54475W        W26900  33.328   0.952  10.855
54476W        W26901  16.599  17.774   3.694
54477W        W26902  17.151  29.746   0.281
54478W        W26903   5.764  11.074  14.390
54479W        W26904  41.427   6.177   1.156
54480W        W26905  42.806  22.574   4.180
54481W        W26906  32.842  15.095   2.212
54482W        W26907   5.247  37.610  14.521
54483W        W26908  29.599  31.998   3.980
54484W        W26909   7.734  10.374   0.800
54485W        W26910  14.544  21.559  10.708
54486W        W26911   4.840  29.910  10.794
54487W        W26912  14.817  38.939  11.827
54488W        W26913  25.323  35.415   4.096
54489W        W26914  23.038  31.369  12.559
54490W        W26915   5.869   1.769   2.190
54491W        W26916  12.676  15.776  12.954
54492W        W26917  30.744   2.590   2.944
54493W        W26918  13.565  29.439  12.232
54494W        W26919  40.425  24.546  11.931
54495W        W26920  25.502  44.145   4.163
54496W        W26921  21.599  25.591  13.456
54497W        W26922  27.961  31.844  11.578
54498W        W26923  23.068   2.894   1.920
54499W        W26924  20.335  25.172   2.221
54500W        W26925  12.286  20.782  13.800
54501W        W26926  25.193  18.720   1.180
54502W        W26927  36.108  35.974   0.449
54503W        W26928  14.944  41.441  11.543
54504W        W26929   5.961  24.636   1.658
54505W        W26930  22.754  39.446   1.337
54506W        W26931  22.995   3.841  14.097
54507W        W26932   8.921  22.694   3.293
54508W        W26933  24.756  21.230  14.029
54509W        W26934  13.979  34.113  12.976
54510W        W26935  33.773  31.417   2.477
54511W        W26936  33.448   0.796  12.535
54512W        W26937   4.846  33.908   3.921
54513W        W26938  15.150  18.850   3.245
54514W        W26939  17.219  26.522  14.218
54515W        W26940  44.759  41.727   0.407
54516W        W26941  44.176  24.974   3.719
54517W        W26942  12.437  11.164   1.668
54518W        W26943  41.694  34.936   3.786
54519W        W26944  36.645  17.624   1.771
54520W        W26945  12.392   3.635  13.576
54521W        W26946   9.778  14.082  11.869
54522W        W26947  37.319   7.271  14.391
54523W        W26948  36.896  41.546  14.274
54524W        W26949  16.910   1.043   4.241
54525W        W26950  36.974  42.744   3.304
54526W        W26951  14.316  11.150  11.214
54527W        W26952  10.875  25.175  10.520
54528W        W26953  25.919  29.040  10.719
54529W        W26954   9.922  42.826  13.769
54530W        W26955  14.823  21.056   2.943
54531W        W26956  25.790  20.409  11.515
54532W        W26957  21.003  21.241   1.630
54533W        W26958   0.944  24.692  13.000
54534W        W26959  16.761  44.781  13.804
54535W        W26960  28.011  25.643  10.765
54536W        W26961   2.263  23.226   1.497
54537W        W26962  43.902   5.798   1.412
54538W        W26963   3.261  35.990   1.672
54539W        W26964  23.834   4.240  11.552
54540W        W26965  32.040  33.817   3.696
54541W        W26966  12.830   8.965  10.581
54542W        W26967  19.625   7.714  14.963
54543W        W26968  19.321  30.361   1.050
54544W        W26969  20.646  34.313  13.742
54545W        W26970  13.026  18.526   1.388
54546W        W26971   3.955  26.953  12.049
54547W        W26972  32.409   8.591  10.747
54548W        W26973  20.976  16.718  11.091
54549W        W26974  40.522  24.286   3.857
54550W        W26975  23.886  29.457  12.006
54551W        W26976  33.373  11.281  11.300
54552W        W26977  23.093  17.372   0.175
54553W        W26978  19.914  17.482   4.681
54554W        W26979  41.380  30.747   1.672
54555W        W26980   9.859  37.913  14.458
54556W        W26981  37.116  21.700  12.615
54557W        W26982  10.911   8.241   3.722
54558W        W26983  42.534  27.247   0.293
54559W        W26984  14.511  23.517   2.224
54560W        W26985  12.250  11.335  12.913
54561W        W26986  22.572  31.906   3.260
54562W        W26987  14.338  17.554   3.759
54563W        W26988  17.392  24.192  14.442
54564W        W26989   6.773  28.097   3.800
54565W        W26990  18.990  15.440   0.754
54566W        W26991  19.588  28.113   0.502
54567W        W26992  20.002  20.861  12.027
54568W        W26993   2.277   4.183  11.915
54569W        W26994  44.745  34.884   0.998
54570W        W26995  33.912  39.069   2.341
54571W        W26996  27.534  38.800   1.771
54572W        W26997  23.460  33.083  14.977
54573W        W26998   8.863  43.707   1.287
54574W        W26999  15.686  37.406   0.449
54575W        W27000   0.235   7.787   0.852
54576W        W27001  38.888  32.607   3.156
54577W        W27002  20.676  41.782   3.745
54578W        W27003   7.451  22.029  14.869
54579W        W27004  18.304  39.418  10.638
54580W        W27005  16.045  32.159   0.867
54581W        W27006  43.498  18.565   2.919
54582W        W27007  43.501  24.858   2.701
54583W        W27008   2.958  42.886  10.985
54584W        W27009  39.834   7.117   1.882
54585W        W27010  32.539  40.432  13.275
54586W        W27011  35.082  19.957   1.311
54587W        W27012   3.749   5.740  12.577
54588W        W27013  24.050  26.006   0.708
54589W        W27014   9.086  37.561  11.571
54590W        W27015   7.060  39.941  11.818
54591W        W27016  43.031  34.453  11.120
54592W        W27017  10.236  30.586   2.244
54593W        W27018  12.119  33.907  11.551
54594W        W27019  34.928  28.597   0.222
54595W        W27020  10.597  30.558  11.487
54596W        W27021  40.615  37.614  14.053
54597W        W27022  43.664   4.094   0.760
54598W        W27023  19.577  10.236  12.124
54599W        W27024  40.237   6.385  14.279
54600W        W27025   4.713  29.142  10.330
54601W        W27026  16.014  30.035   3.022
54602W        W27027  39.548   9.721   0.344
54603W        W27028  35.527  40.034  13.409
54604W        W27029  44.237  29.011  10.780
54605W        W27030  15.720  20.670   2.210
54606W        W27031  20.726   3.965  13.485
54607W        W27032   7.978  20.694  11.449
54608W        W27033  18.317  32.171   4.205
54609W        W27034  21.855   9.285  12.908
54610W        W27035   9.413  19.238   4.205
54611W        W27036  25.478  34.242   0.038
54612W        W27037  18.006  28.218   2.796
54613W        W27038  21.986  14.393   3.763
54614W        W27039  26.948  15.303  12.472
54615W        W27040  11.723  18.111   2.856
54616W        W27041  31.110  27.969  11.538
54617W        W27042  10.799  14.568   1.717
54618W        W27043  33.481   8.374   1.609
54619W        W27044  33.444  38.082  12.038
54620W        W27045  39.351  10.666  11.971
54621W        W27046  37.509  39.006   3.411
54622W        W27047  42.785  22.206  10.268
54623W        W27048   8.208  25.953  11.513
54624W        W27049  42.207   2.268   0.849
54625W        W27050  15.743  15.250  14.742
54626W        W27051  39.666  34.063   1.767
54627W        W27052  22.465  30.503   5.041
54628W        W27053  43.109   0.464  13.978
54629W        W27054   0.383   4.723   1.703
54630W        W27055   5.160   8.126  12.600
54631W        W27056   2.337  35.453   3.627
54632W        W27057  24.590  21.425  11.362
54633W        W27058   7.832  40.049   4.132
54634W        W27059   0.458  28.241  14.482
54635W        W27060  35.224  17.666  13.594
54636W        W27061  16.546  37.768   2.505
54637W        W27062  33.555   2.238  11.053
54638W        W27063  10.344  25.061   2.190
54639W        W27064  24.722  43.267  13.983
54640W        W27065  44.034  15.293  11.119
54641W        W27066  10.655  35.916  10.657
54642W        W27067  44.765  18.539  10.760
54643W        W27068  13.879  22.526   0.180
54644W        W27069   2.274   3.208  12.255
54645W        W27070  22.735  12.230   1.322
54646W        W27071  20.176  18.490   3.128
54647W        W27072   0.937  19.616  12.411
54648W        W27073  44.469   4.457  12.510
54649W        W27074  30.109   9.450  14.367
54650W        W27075  44.710  36.103  14.392
54651W        W27076  25.375  31.645   0.856
54652W        W27077  30.410  36.876  10.775
54653W        W27078  32.392  39.576   2.321
54654W        W27079  25.640  31.043  11.852
54655W        W27080  42.898   8.133  13.956
54656W        W27081  29.966  31.885   0.785
54657W        W27082   4.734   8.162  11.665
54658W        W27083   3.906   0.480  14.938
54659W        W27084  27.134  22.676  14.817
54660W        W27085  25.516  41.553   1.835
54661W        W27086  20.303  23.818  12.541
54662W        W27087  43.881  37.430  13.014
54663W        W27088  38.786  37.552   3.117
54664W        W27089  41.579  41.683   0.734
54665W        W27090  40.991  40.886  14.787
54666W        W27091  12.379  25.394   4.548
54667W        W27092  33.648   8.757  14.464
54668W        W27093  20.904  43.462  13.315
54669W        W27094  20.193  24.196   0.250
54670W        W27095  43.519  43.894  13.049
54671W        W27096  36.477   1.311   3.711
54672W        W27097   2.853  37.618  11.217
54673W        W27098  44.799  26.130   1.767
54674W        W27099  14.604  25.598  11.656
54675W        W27100  36.542  22.784  12.318
54676W        W27101  19.427  25.522  11.837
54677W        W27102  14.255  38.104   4.836
54678W        W27103  13.870   1.736   2.350
54679W        W27104  12.272  30.454  13.457
54680W        W27105  20.405  28.642  11.671
54681W        W27106  36.540  41.532   2.490
54682W        W27107  38.369  26.954   1.186
54683W        W27108  26.678  44.350   3.138
54684W        W27109  20.312   0.531   3.351
54685W        W27110   1.464  12.290   4.562
54686W        W27111   7.933   6.715  14.406
54687W        W27112  41.352  12.383   0.933
54688W        W27113   2.045  31.978  10.811
54689W        W27114  39.078  22.129  14.294
54690W        W27115  37.676  29.870  14.262
54691W        W27116  30.901  18.695   2.301
54692W        W27117   1.088   6.733  13.196
54693W        W27118   1.316  25.970   4.461
54694W        W27119  35.801  29.996  10.767
54695W        W27120  21.212   2.674  12.242
54696W        W27121  27.653   4.415  10.738
54697W        W27122   6.325  24.051   1.831
54698W        W27123   9.809  40.444  12.061
54699W        W27124  18.685   8.324  13.970
54700W        W27125  41.804  30.358  13.828
54701W        W27126  36.064  38.315  13.114
54702W        W27127  40.762   8.932   2.387
54703W        W27128   7.240  33.835   4.422
54704W        W27129  31.944   0.142  14.516
54705W        W27130   5.575  35.686   5.202
54706W        W27131  27.181   0.478   4.521
54707W        W27132  43.810  33.616   0.844
54708W        W27133  21.228  34.056  12.598
54709W        W27134  31.875  30.160   1.503
54710W        W27135  31.968   2.972   1.755
54711W        W27136  42.486  34.934  10.483
54712W        W27137  25.733  10.896  14.879
54713W        W27138  44.679  30.600   4.425
54714W        W27139  43.907   8.246   3.386
54715W        W27140  13.637  41.352   3.202
54716W        W27141  38.769  30.060   2.408
54717W        W27142  20.368  17.697  14.337
54718W        W27143  43.064  37.688   0.909
54719W        W27144  44.253  38.782  11.545
54720W        W27145   4.555   4.193   1.429
54721W        W27146  11.366   6.744   2.320
54722W        W27147  20.076  18.661   0.968
54723W        W27148  33.181  25.093  12.503
54724W        W27149  30.516  26.133  14.478
54725W        W27150   1.392  33.341  12.041
54726W        W27151  11.200   1.533   3.193
54727W        W27152  14.462  15.790   2.066
54728W        W27153  44.773  40.497   1.712
54729W        W27154  41.832  29.508  14.913
54730W        W27155  11.281  31.791  12.847
54731W        W27156  30.083  30.855  11.003
54732W        W27157  14.253  35.816   4.120
54733W        W27158   6.284  15.600   0.835
54734W        W27159  30.059  25.710   0.182
54735W        W27160  25.296   5.870   0.072
54736W        W27161   5.360  21.090   4.406
54737W        W27162  30.185   3.396  11.380
54738W        W27163   7.820  12.218   1.208
54739W        W27164  11.230   0.473   4.476
54740W        W27165   2.313   2.208  11.584
54741W        W27166  44.823   4.684   4.755
54742W        W27167   2.429  38.359  10.773
54743W        W27168   5.749  39.278  11.581
54744W        W27169  39.732  26.006  13.333
54745W        W27170  41.128  19.083   2.919
54746W        W27171   2.826   7.106   2.111
54747W        W27172   7.365  35.133   0.799
54748W        W27173  34.164   9.160   4.366
54749W        W27174  13.248  22.429  10.660
54750W        W27175  20.563  39.384   2.025
54751W        W27176  17.764  43.737   4.225
54752W        W27177  26.460  43.485   4.074
54753W        W27178   0.514   0.398  12.620
54754W        W27179   9.667  44.328   0.379
54755W        W27180  31.636  10.663   3.961
54756W        W27181  19.277  28.757  13.040
54757W        W27182  43.279  26.582  13.406
54758W        W27183  24.586  33.896   3.610
54759W        W27184  41.965  44.954   0.329
54760W        W27185  30.661  25.865  13.995
54761W        W27186  37.859  18.564  10.726
54762W        W27187  18.867  41.027  12.415
54763W        W27188  41.842   7.546   0.743
54764W        W27189  33.303  24.362  11.589
54765W        W27190  20.590  22.070   3.485
54766W        W27191   0.208  35.570  14.930
54767W        W27192  28.844  41.029   3.207
54768W        W27193  18.133  36.481  12.277
54769W        W27194  36.383  11.285  14.457
54770W        W27195  33.965   9.399   4.775
54771W        W27196  23.712  18.775  14.983
54772W        W27197  13.283  38.364   2.233
54773W        W27198   2.346  23.507  12.155
54774W        W27199  10.894  31.115  14.763
54775W        W27200   5.809  35.182  12.500
54776W        W27201   3.200  24.691   2.322
54777W        W27202  35.142  11.334   4.022
54778W        W27203  16.273  11.764  12.800
54779W        W27204  38.555  17.253  13.339
54780W        W27205  15.270  32.690   0.894
54781W        W27206  28.921  36.448  14.737
54782W        W27207  23.154  24.418   0.049
54783W        W27208  44.305  16.759  13.087
54784W        W27209  35.082  42.050   1.190
54785W        W27210   5.810  43.882  14.771
54786W        W27211  38.945   7.230   1.699
54787W        W27212  20.802   1.848   2.803
54788W        W27213   6.778  42.245   2.792
54789W        W27214  35.060  22.677   1.876
54790W        W27215  36.271  29.573   3.820
54791W        W27216  27.925  36.292  10.518
54792W        W27217  41.505  18.181  11.911
54793W        W27218  10.292  27.805  12.523
54794W        W27219  16.452  39.614  14.824
54795W        W27220  32.454  33.032   3.574
54796W        W27221  17.867  37.543  13.089
54797W        W27222  30.094  30.607   2.278
54798W        W27223   0.747   7.187  11.165
54799W        W27224  38.518   2.150   0.383
54800W        W27225  31.699  28.639   0.303
54801W        W27226  16.696  13.821   0.537
54802W        W27227  19.561  42.201  12.615
54803W        W27228  22.597  29.696  11.039
54804W        W27229  27.123  22.511  11.388
54805W        W27230  18.301  16.831  14.357
54806W        W27231  18.500  25.164  14.281
54807W        W27232  29.070   6.125   4.399
54808W        W27233  39.385  18.276   1.336
54809W        W27234  25.216  24.164  13.136
54810W        W27235  33.509   8.816   0.312
54811W        W27236  43.407  19.577   3.913
54812W        W27237  40.134  40.119   1.613
54813W        W27238  38.918  24.779  12.512
54814W        W27239  39.878  17.273   0.264
54815W        W27240   6.025  23.089  12.563
54816W        W27241  13.246  18.078   1.474
54817W        W27242  26.399  44.910  13.546
54818W        W27243   8.213   5.781  13.583
54819W        W27244  16.211  24.190   3.293
54820W        W27245  33.378  41.332  13.008
54821W        W27246  37.336   3.856   1.828
54822W        W27247  23.992   6.978   0.362
54823W        W27248  11.739   0.813   1.005
54824W        W27249  24.459  17.152  14.760
54825W        W27250  28.324  11.720  12.902
54826W        W27251  19.007   9.045   0.589
54827W        W27252  33.009  27.941   2.753
54828W        W27253  26.020  22.455   1.787
54829W        W27254  42.480  44.249   2.406
54830W        W27255  13.041  28.595  13.477
54831W        W27256  23.243  36.405   4.659
54832W        W27257  39.593   6.588   0.708
54833W        W27258  37.998   3.292   3.287
54834W        W27259  24.471  34.520   2.398
54835W        W27260  26.424  21.134  10.681
54836W        W27261  39.333   2.170  13.482
54837W        W27262  32.315  42.065  14.003
54838W        W27263  42.592  18.778   0.058
54839W        W27264  32.399   5.391   3.135
54840W        W27265   9.930  16.590   2.233
54841W        W27266  14.522  22.768   4.163
54842W        W27267  41.602  26.280  11.466
54843W        W27268  36.948  17.835   2.117
54844W        W27269  42.381  27.809   2.811
54845W        W27270  26.599  42.525   2.788
54846W        W27271  27.228  33.376   3.588
54847W        W27272   6.375  25.054   3.657
54848W        W27273  43.007  35.029  13.854
54849W        W27274  21.218  37.032   0.441
54850W        W27275   7.205  29.462  11.935
54851W        W27276   0.968  16.578   2.257
54852W        W27277  16.898  13.817   1.467
54853W        W27278  14.051  15.734  12.581
54854W        W27279  42.150  25.089  10.552
54855W        W27280   6.282  20.218  10.648
54856W        W27281  29.539  35.885   4.611
54857W        W27282   1.071  18.933   2.291
54858W        W27283  22.513  18.565  13.502
54859W        W27284   5.692  12.325   0.016
54860W        W27285  20.539  11.069   4.336
54861W        W27286   3.530  40.926   0.220
54862W        W27287  19.171  36.905  13.080
54863W        W27288  24.262  34.096  12.630
54864W        W27289  21.816  20.087   3.794
54865W        W27290  17.876  17.643  12.957
54866W        W27291  31.953  18.803   0.915
54867W        W27292  12.507  28.644  12.636
54868W        W27293  25.406  24.257  13.611
54869W        W27294  18.309   6.037   4.631
54870W        W27295  43.988   1.762   2.789
54871W        W27296  23.675  32.675   1.677
54872W        W27297  19.321  40.462  14.473
54873W        W27298  33.395  31.017  12.158
54874W        W27299   0.740   4.688   4.960
54875W        W27300  19.187  23.977  10.613
54876W        W27301  24.656  15.843   3.131
54877W        W27302  19.037  23.590   0.470
54878W        W27303   9.698  13.426   0.390
54879W        W27304  11.785  41.373  13.144
54880W        W27305   7.485  44.364   0.181
54881W        W27306  39.949  18.303  14.485
54882W        W27307  29.648   4.277  12.058
54883W        W27308  25.246  26.165   2.674
54884W        W27309  18.809  26.973   4.341
54885W        W27310  43.858  38.583   2.696
54886W        W27311  33.457  11.566  12.631
54887W        W27312  16.701   8.855  13.004
54888W        W27313  21.231   1.482   3.707
54889W        W27314  29.902   3.236   0.863
54890W        W27315   6.975  25.223  14.956
54891W        W27316   6.689  39.507  13.490
54892W        W27317   8.156   3.235  12.034
54893W        W27318  43.894  38.941  13.596
54894W        W27319  16.434  18.643  14.786
54895W        W27320  43.515  38.529  11.047
54896W        W27321  41.694  12.551   1.916
54897W        W27322  25.323  12.602  12.513
54898W        W27323   4.454  33.050   3.573
54899W        W27324  11.444   8.063  12.542
54900W        W27325  12.793  21.852   3.152
54901W        W27326   9.288  22.807   0.453
54902W        W27327  25.656  28.480   1.557
54903W        W27328  40.808  32.338  14.543
54904W        W27329  34.894  34.079  10.577
54905W        W27330  17.941  27.970  13.958
54906W        W27331   1.946  28.460   3.776
54907W        W27332   8.108  38.806   1.820
54908W        W27333  27.522   3.494   3.851
54909W        W27334  23.147  18.903   0.912
54910W        W27335  39.703  28.274  12.042
54911W        W27336  30.831  34.984  13.000
54912W        W27337  41.927   1.847   2.694
54913W        W27338  10.196  15.202   4.164
54914W        W27339   4.348  42.719   2.799
54915W        W27340  14.212  19.679  12.917
54916W        W27341  18.235  37.880   2.726
54917W        W27342   2.869  20.049  14.838
54918W        W27343  14.863  10.240  14.230
54919W        W27344  32.881  36.338  12.547
54920W        W27345  18.777  39.062   2.620
54921W        W27346  32.538  36.532   2.680
54922W        W27347   3.994  41.914   2.286
54923W        W27348  17.698  38.883  13.092
54924W        W27349  27.301  29.330  11.147
54925W        W27350   9.265   5.031   3.637
54926W        W27351  28.161  29.885   5.576
54927W        W27352   5.767  18.391  13.415
54928W        W27353   0.220  38.585   0.299
54929W        W27354  40.056  42.655  12.581
54930W        W27355   5.015  20.992  12.657
54931W        W27356  17.253  25.145   1.814
54932W        W27357  35.441   4.878   1.339
54933W        W27358  18.017   9.202   1.776
54934W        W27359   8.545  25.999   1.913
54935W        W27360  36.562   4.340   0.509
54936W        W27361  20.183  39.525  14.526
54937W        W27362  39.330  18.979  12.653
54938W        W27363  27.471  12.143  12.974
54939W        W27364  17.745  36.571  13.062
54940W        W27365  18.647   3.261   4.192
54941W        W27366  35.605  10.775   4.158
54942W        W27367   6.468   0.335   3.841
54943W        W27368   1.032  18.964   4.298
54944W        W27369  34.451  33.440  12.051
54945W        W27370  34.898  29.188  10.657
54946W        W27371   1.997   1.960   0.327
54947W        W27372   5.912   3.290   4.743
54948W        W27373  23.687  27.572  14.303
54949W        W27374  32.838  44.787   0.261
54950W        W27375   2.911  44.031   4.617
54951W        W27376  18.595  42.995   4.517
54952W        W27377  21.662  42.312   4.646
54953W        W27378  38.259  33.881   1.790
54954W        W27379  26.898   9.957  14.295
54955W        W27380  41.878  37.335   3.652
54956W        W27381  22.733   4.684  11.049
54957W        W27382  17.791  14.769   4.546
54958W        W27383   9.137  42.649   0.008
54959W        W27384  26.685  36.226  14.195
54960W        W27385   8.445   1.217  14.262
54961W        W27386  16.641   1.388  10.126
54962W        W27387   6.884  41.026   3.405
54963W        W27388  29.579  26.704  14.880
54964W        W27389  35.028  23.582   4.110
54965W        W27390   0.365  29.706   3.695
54966W        W27391  38.764  11.578  12.052
54967W        W27392   3.629  41.492   3.261
54968W        W27393   7.842  22.802   0.937
54969W        W27394  26.894  10.732  11.513
54970W        W27395  42.787  26.718  13.787
54971W        W27396   4.920   8.594  11.936
54972W        W27397  22.553  38.766  12.109
54973W        W27398  32.033  34.507   2.167
54974W        W27399  28.223  37.924  14.482
54975W        W27400  17.822  24.048   2.832
54976W        W27401  27.632   6.105  13.957
54977W        W27402  13.800   5.880   2.288
54978W        W27403  22.284  28.542   4.263
54979W        W27404   5.891  44.488   0.782
54980W        W27405  26.645  34.572   0.424
54981W        W27406  44.243  43.393  12.867
54982W        W27407  30.093  12.643   4.317
54983W        W27408   0.281   1.899  11.431
54984W        W27409  16.575  28.466   2.278
54985W        W27410  44.452  40.503  11.913
54986W        W27411  17.479  32.174   4.732
54987W        W27412  38.737  39.063   1.357
54988W        W27413  27.914  41.414  14.509
54989W        W27414  21.041  22.108   1.815
54990W        W27415   0.367  36.680  13.467
54991W        W27416   3.314  20.546   3.716
54992W        W27417  34.631  37.117  14.272
54993W        W27418   8.293  20.717  13.971
54994W        W27419  41.765   8.790  13.814
54995W        W27420  24.604  25.735  13.918
54996W        W27421  22.793   9.436  10.138
54997W        W27422   4.080  16.573  10.705
54998W        W27423  39.118  22.567  13.487
54999W        W27424  28.979  12.089   1.365
55000W        W27425  44.434  40.990  10.967
55001W        W27426  22.920  38.261   0.346
55002W        W27427  32.468  24.570   1.001
55003W        W27428  27.079  41.363  10.906
55004W        W27429  26.947  33.961   3.148
55005W        W27430  26.417  12.555  11.318
55006W        W27431  28.167  29.649  10.786
55007W        W27432   7.432  27.289   0.805
55008W        W27433  14.128  39.535  12.828
55009W        W27434  13.989  43.758  13.081
55010W        W27435   5.562  21.307   2.961
55011W        W27436   3.741  32.860   2.966
55012W        W27437  41.848  24.151  11.957
55013W        W27438  31.892  18.874  12.402
55014W        W27439   7.756  39.937   1.419
55015W        W27440  32.430  22.781   3.838
55016W        W27441  34.496  27.958   3.701
55017W        W27442   1.061   7.755   3.534
55018W        W27443  26.662  31.963   3.702
55019W        W27444  12.607  31.320   3.622
55020W        W27445   6.160  42.358  11.134
55021W        W27446  17.672  41.404  13.515
55022W        W27447  16.695  19.185  13.852
55023W        W27448  40.386  35.623  14.724
55024W        W27449  28.598  37.670   1.286
55025W        W27450  23.733  10.220  10.964
55026W        W27451   9.152  27.596  13.425
55027W        W27452  13.546  24.055  13.821
55028W        W27453  36.287  12.362  14.695
55029W        W27454  36.938  12.201   0.235
55030W        W27455  37.381  29.194  12.592
55031W        W27456  12.306  27.064  14.484
55032W        W27457  13.799  36.081   3.926
55033W        W27458  31.925  19.382  11.162
55034W        W27459  35.098  25.437  10.762
55035W        W27460  36.636  19.078   1.641
55036W        W27461  34.611  12.153  13.997
55037W        W27462   8.403  44.372   1.635
55038W        W27463  24.711  28.940   4.619
55039W        W27464  41.399  15.373   2.344
55040W        W27465   9.343   6.835   2.782
55041W        W27466  19.595   5.366   4.338
55042W        W27467  13.145  27.239   1.661
55043W        W27468  36.457  25.680   2.778
55044W        W27469   8.309   8.462   9.799
55045W        W27470  35.563   0.296   2.426
55046W        W27471   0.597  44.834   2.046
55047W        W27472  24.035  20.282  14.937
55048W        W27473  29.474  36.122  14.448
55049W        W27474  18.996  23.028  14.910
55050W        W27475  39.251  14.774   0.234
55051W        W27476  36.889  11.267   0.065
55052W        W27477   6.896  24.542  10.982
55053W        W27478  28.570  32.680   2.742
55054W        W27479  22.016  26.059   3.780
55055W        W27480  15.318  19.273  14.242
55056W        W27481  30.508   7.204  10.418
55057W        W27482   6.337  14.351   5.101
55058W        W27483  18.324   2.470  12.570
55059W        W27484  20.143  36.378   4.566
55060W        W27485  22.048   1.212   0.356
55061W        W27486  23.729  23.140   4.092
55062W        W27487  43.543  24.708  13.344
55063W        W27488  43.141  25.079  13.423
55064W        W27489  37.647   6.726   3.739
55065W        W27490   7.648   3.705  10.767
55066W        W27491  38.068  24.539   0.266
55067W        W27492   0.981  37.867  10.955
55068W        W27493  10.411   1.719  11.049
55069W        W27494  33.228  24.075   1.860
55070W        W27495  31.423  16.605  11.554
55071W        W27496  11.898   2.042   1.562
55072W        W27497  27.602  40.753  14.843
55073W        W27498   9.802  25.146  12.107
55074W        W27499  36.627  44.395   1.519
55075W        W27500   5.000  28.481  11.371
55076W        W27501  26.951   7.102   0.851
55077W        W27502  40.198  44.885   3.697
55078W        W27503   1.533   2.970   3.535
55079W        W27504   1.438  26.101   2.152
55080W        W27505   6.056  35.052   3.425
55081W        W27506   4.332  27.130  10.711
55082W        W27507  21.324   8.804  13.339
55083W        W27508  26.005  11.323  11.561
55084W        W27509   9.649   2.210  14.699
55085W        W27510  25.667  37.530   2.362
55086W        W27511   0.927  22.121  12.936
55087W        W27512  20.239   2.840   0.468
55088W        W27513  27.077  38.931  14.009
55089W        W27514  27.399  39.475  12.914
55090W        W27515   2.468  40.612   2.377
55091W        W27516  13.481  28.825   1.751
55092W        W27517  22.070  26.066   1.449
55093W        W27518  37.384  39.705   3.425
55094W        W27519  27.155  11.445  10.985
55095W        W27520  16.743  29.407   1.033
55096W        W27521  22.455  36.914  14.819
55097W        W27522  22.736  33.591  10.637
55098W        W27523   6.223  37.618  13.535
55099W        W27524  14.175  35.973   2.019
55100W        W27525  18.053  38.362   2.846
55101W        W27526  30.754   2.748  11.837
55102W        W27527   2.417  18.187   1.482
55103W        W27528   8.715  10.124   0.016
55104W        W27529  14.153  33.931  12.507
55105W        W27530  12.871  27.673  11.643
55106W        W27531  38.531   8.841   3.876
55107W        W27532   1.433  32.059   2.274
55108W        W27533  37.168  22.529   2.358
55109W        W27534  15.889  40.486  11.491
55110W        W27535  30.991  34.377   3.533
55111W        W27536  29.197  41.047  11.711
55112W        W27537  43.422   8.411   3.374
55113W        W27538  32.695  19.967   2.172
55114W        W27539   2.017  23.491  11.602
55115W        W27540   6.807  35.627   3.791
55116W        W27541  20.082  43.080   1.604
55117W        W27542  23.320  10.148   9.733
55118W        W27543  22.239  16.984   0.365
55119W        W27544  43.184   5.281   1.131
55120W        W27545  22.627  35.101   2.970
55121W        W27546  13.557  26.049   4.868
55122W        W27547  17.708  43.706   0.307
55123W        W27548  25.284   3.199  13.941
55124W        W27549  22.516  39.924   4.713
55125W        W27550  11.140  41.384  13.941
55126W        W27551  16.910  43.455   4.130
55127W        W27552  40.481  33.952  10.479
55128W        W27553   0.833  19.674  12.923
55129W        W27554  24.856  28.747  12.468
55130W        W27555  31.605  25.082   1.925
55131W        W27556  44.296  28.014   3.579
55132W        W27557  22.009  36.430   3.938
55133W        W27558  28.524  34.024   2.838
55134W        W27559   2.840  35.317  14.368
55135W        W27560  20.624  39.342   4.493
55136W        W27561  40.009  15.621   0.929
55137W        W27562   5.656  35.918  13.330
55138W        W27563  13.047  24.006  10.628
55139W        W27564  18.176   3.499   1.175
55140W        W27565  42.987  27.046   2.414
55141W        W27566  29.014   1.378   2.608
55142W        W27567  44.220  12.343   0.589
55143W        W27568  25.582  23.001   0.481
55144W        W27569  22.691  32.401   0.892
55145W        W27570  36.286  16.553  12.583
55146W        W27571   4.683  28.983   3.207
55147W        W27572   5.868  27.386   1.378
55148W        W27573  30.662  43.500  14.862
55149W        W27574   8.004   3.685   3.836
55150W        W27575   6.015  15.679  13.483
55151W        W27576  23.257   2.045  13.802
55152W        W27577  13.808  40.426   2.336
55153W        W27578  34.624  15.862  13.729
55154W        W27579   5.126  22.123   1.679
55155W        W27580  10.214  36.619   3.682
55156W        W27581   0.383  19.798  14.351
55157W        W27582  42.840   6.175   0.738
55158W        W27583  25.660  19.481  11.095
55159W        W27584  11.283  31.074   1.937
55160W        W27585   6.895  28.687  11.528
55161W        W27586  32.045  42.469  13.524
55162W        W27587   7.220  27.061  14.942
55163W        W27588  23.959  30.091   1.773
55164W        W27589   1.995  34.445  11.115
55165W        W27590  20.876   9.767  12.152
55166W        W27591  18.353  38.754   2.639
55167W        W27592  15.491  27.421  11.811
55168W        W27593  44.622   0.476  13.260
55169W        W27594  16.615  39.800   1.159
55170W        W27595  44.318  28.636  13.360
55171W        W27596  17.182  20.258   3.122
55172W        W27597  12.707  21.553  10.644
55173W        W27598  26.943  21.355  12.809
55174W        W27599   1.901  18.072  14.436
55175W        W27600  18.150  38.339   4.549
55176W        W27601   9.103  25.744   0.053
55177W        W27602  42.062  29.004   1.015
55178W        W27603   6.509  18.073   1.442
55179W        W27604   8.504  30.588   3.484
55180W        W27605  31.688  12.713   3.329
55181W        W27606  36.911  23.042   4.986
55182W        W27607  21.152   6.631   4.156
55183W        W27608  38.554  34.000   2.708
55184W        W27609  34.696   8.766  11.116
55185W        W27610   2.816  31.932   2.305
55186W        W27611  16.647  42.709  12.010
55187W        W27612  39.747   8.059   0.741
55188W        W27613  36.567  37.917  11.235
55189W        W27614  35.413   1.202   4.851
55190W        W27615  44.543  41.119  14.852
55191W        W27616  40.737  32.947  12.218
55192W        W27617  26.615  17.039  11.534
55193W        W27618  16.892  31.507   9.890
55194W        W27619  24.612  30.907   3.112
55195W        W27620  37.893   0.233   4.330
55196W        W27621  38.373   6.993  12.798
55197W        W27622  14.300   5.911  13.028
55198W        W27623  22.283  18.643   1.917
55199W        W27624  31.656  37.037  12.914
55200W        W27625  17.200  40.013   1.806
55201W        W27626   7.296  20.047  11.972
55202W        W27627  13.091  29.547  13.477
55203W        W27628  23.013  31.879  12.411
55204W        W27629  20.724   3.667  13.920
55205W        W27630  16.180  26.515   2.072
55206W        W27631  29.545  21.511  11.606
55207W        W27632  17.558  26.671  12.161
55208W        W27633  31.641   3.914  11.502
55209W        W27634   8.696  23.763  10.556
55210W        W27635  33.411  35.532   1.505
55211W        W27636  14.074  11.367   0.269
55212W        W27637   6.649  23.769   2.714
55213W        W27638  39.926  25.602  10.730
55214W        W27639   3.867  27.101   0.730
55215W        W27640  33.594  19.519  11.935
55216W        W27641  24.023  42.933  12.327
55217W        W27642  14.288  22.956   1.573
55218W        W27643   8.915   7.676   3.914
55219W        W27644  30.929  19.869   3.768
55220W        W27645  21.692  43.405  11.739
55221W        W27646  30.866  30.485  10.687
55222W        W27647  27.421  33.604  13.867
55223W        W27648  36.005  28.927  13.953
55224W        W27649  13.695  44.375  10.989
55225W        W27650  24.809  43.362   4.585
55226W        W27651   3.406  33.679   4.009
55227W        W27652  16.658  16.056   0.779
55228W        W27653   8.338  34.323   2.324
55229W        W27654  15.611  32.472   4.259
55230W        W27655  35.355  11.134   2.760
55231W        W27656  24.079  11.122   0.991
55232W        W27657  18.488  12.756  11.626
55233W        W27658   5.419  25.010   2.299
55234W        W27659  32.076  40.498  12.985
55235W        W27660   6.806  30.165   0.431
55236W        W27661  29.040  35.631   0.424
55237W        W27662   9.485   5.192   1.655
55238W        W27663  35.613  32.940  11.139
55239W        W27664  11.281  26.415   0.839
55240W        W27665  21.206  36.351  14.411
55241W        W27666  31.860   7.300  14.365
55242W        W27667  14.615   2.363   1.994
55243W        W27668  41.912  23.620  14.645
55244W        W27669  12.107  42.771   2.395
55245W        W27670  40.313  11.426   0.949
55246W        W27671   5.869  35.430  10.743
55247W        W27672  44.184  29.050   3.348
55248W        W27673  11.141  43.573   3.681
55249W        W27674  32.348  40.863   3.784
55250W        W27675  22.442   8.377  12.071
55251W        W27676  30.120  40.546   1.475
55252W        W27677  23.290  29.036   2.175
55253W        W27678   0.744  38.124  14.427
55254W        W27679  20.448  30.095  10.123
55255W        W27680  33.875  44.898   1.389
55256W        W27681  39.980  37.940  11.910
55257W        W27682  28.976   5.782   2.493
55258W        W27683  37.959   0.774  10.614
55259W        W27684  38.821   6.968  13.602
55260W        W27685   5.933  28.796   1.751
55261W        W27686   8.843  20.128   1.172
55262W        W27687  27.043  29.877   3.449
55263W        W27688  19.162  33.311   9.746
55264W        W27689   6.636  10.744  10.648
55265W        W27690  19.595  20.701   3.702
55266W        W27691  39.062  27.443  12.603
55267W        W27692  35.814  15.660   1.333
55268W        W27693   9.210   6.867   0.704
55269W        W27694  23.432  17.715   1.905
55270W        W27695  38.885  12.155   3.761
55271W        W27696  42.423  40.625   0.379
55272W        W27697  43.378  19.660  14.575
55273W        W27698  44.490  44.709  12.527
55274W        W27699  39.080  29.928   0.770
55275W        W27700  40.580  12.538  14.996
55276W        W27701   3.462  30.877  13.823
55277W        W27702   9.226   8.699  13.295
55278W        W27703  35.854  34.651  12.041
55279W        W27704  29.666   5.851   2.270
55280W        W27705   5.906  24.194   2.455
55281W        W27706  11.596  23.099  13.093
55282W        W27707  29.149  37.062  12.950
55283W        W27708  33.612  21.319   3.197
55284W        W27709  33.834  17.198  13.343
55285W        W27710   2.821   2.287   3.906
55286W        W27711  27.970  16.137   3.002
55287W        W27712  43.857  17.376  10.323
55288W        W27713   2.238   7.775   2.273
55289W        W27714  17.752  28.744  14.872
55290W        W27715  12.095  13.773  14.823
55291W        W27716  38.538  15.262   4.307
55292W        W27717  32.061  23.899  10.965
55293W        W27718  28.766  23.950  11.297
55294W        W27719  21.663  42.292   1.268
55295W        W27720  35.831  15.890  12.740
55296W        W27721  43.034  39.591  11.562
55297W        W27722  18.737  35.946   1.722
55298W        W27723  13.200  25.603   3.341
55299W        W27724  20.678  27.209   3.852
55300W        W27725  34.509   3.699   2.867
55301W        W27726  10.046  25.984   2.572
55302W        W27727  12.608  13.143   3.732
55303W        W27728  28.338  13.115   2.027
55304W        W27729  24.727  41.966  14.985
55305W        W27730  41.335  11.589   3.761
55306W        W27731  11.696  22.678  12.473
55307W        W27732  29.577  38.893   1.963
55308W        W27733  28.940  38.494  14.506
55309W        W27734  30.488  23.200   3.563
55310W        W27735  42.396   3.724  14.473
55311W        W27736  11.194   9.741  11.466
55312W        W27737   4.997  33.056   3.726
55313W        W27738  22.549  19.824  10.795
55314W        W27739   4.698   8.620  13.898
55315W        W27740   1.750   7.880   0.425
55316W        W27741   8.675  28.665  14.379
55317W        W27742  12.741  25.582  13.691
55318W        W27743   5.765  15.142   2.393
55319W        W27744   3.930   4.171  13.367
55320W        W27745  43.782  36.299  13.341
55321W        W27746  38.515  36.998  13.376
55322W        W27747  26.909  44.842  10.418
55323W        W27748  17.193   7.977   3.278
55324W        W27749   1.971  16.117   4.677
55325W        W27750  44.745  43.380  13.472
55326W        W27751  26.880  22.559  10.547
55327W        W27752  10.969  10.218   2.647
55328W        W27753  19.623   2.953   1.117
55329W        W27754  15.383  28.199  14.860
55330W        W27755  26.534  44.023  12.987
55331W        W27756  35.845  25.602  11.812
55332W        W27757  42.560   2.248  11.171
55333W        W27758  31.331  44.860   1.290
55334W        W27759  14.585  27.628  13.561
55335W        W27760  14.062   8.979   2.910
55336W        W27761   2.041  24.908  13.940
55337W        W27762  23.456  37.597  11.108
55338W        W27763   4.628  27.573  11.467
55339W        W27764   9.247  39.405  12.103
55340W        W27765  21.164  36.902  14.515
55341W        W27766   9.932  19.743   2.923
55342W        W27767  16.777   6.964   4.160
55343W        W27768  35.077  41.922  12.008
55344W        W27769   9.202  30.150   3.538
55345W        W27770  38.798  31.233   4.605
55346W        W27771  21.821  11.124  10.731
55347W        W27772  23.127  34.688  10.760
55348W        W27773  10.198  23.958  14.546
55349W        W27774   2.000  42.646   2.726
55350W        W27775  20.876  29.721  12.726
55351W        W27776  14.131  10.010   3.285
55352W        W27777  11.129   7.645   1.858
55353W        W27778  26.967  37.534  14.382
55354W        W27779  13.792  19.137   3.407
55355W        W27780  26.429  12.785   3.742
55356W        W27781  24.083  25.486  10.900
55357W        W27782  12.889  30.952  14.193
55358W        W27783  22.960  30.461   3.313
55359W        W27784  14.900  10.412   1.471
55360W        W27785  16.864  19.296   1.429
55361W        W27786  39.829  26.253  12.904
55362W        W27787  14.756   9.948  11.563
55363W        W27788  32.085   3.320   0.817
55364W        W27789  14.315  11.913   1.776
55365W        W27790  13.844  32.427   4.884
55366W        W27791  23.079   6.870   3.383
55367W        W27792  36.022   0.990  14.294
55368W        W27793  39.352  39.413  10.581
55369W        W27794   5.684  10.134  14.566
55370W        W27795   9.268   4.201  14.263
55371W        W27796  36.185  40.576  11.339
55372W        W27797  39.871  25.556   0.062
55373W        W27798  33.089  40.593   2.075
55374W        W27799  28.532  26.256  14.235
55375W        W27800  22.188  31.065  14.934
55376W        W27801  42.046   3.362  10.277
55377W        W27802  31.429  43.956   3.704
55378W        W27803  35.794  33.985   3.703
55379W        W27804  42.940  11.366  14.467
55380W        W27805  12.340   0.708  11.281
55381W        W27806   6.932  21.692  12.130
55382W        W27807  10.273  21.494  14.016
55383W        W27808  24.051   8.596  12.005
55384W        W27809  40.309   6.189  13.462
55385W        W27810  35.144  21.521  11.666
55386W        W27811  11.252  24.726   2.591
55387W        W27812  42.294  31.073  10.556
55388W        W27813  16.016   9.266   2.755
55389W        W27814  34.635  19.090   3.706
55390W        W27815  17.626  41.395   0.691
55391W        W27816  40.048  34.573   1.377
55392W        W27817  14.518  24.245  10.914
55393W        W27818  40.215  33.962  14.443
55394W        W27819  29.449  28.468  14.237
55395W        W27820  28.667  33.587  12.488
55396W        W27821  33.935  26.837   2.319
55397W        W27822  15.275  28.973  12.035
55398W        W27823  36.372   6.534  10.568
55399W        W27824  25.191  21.349  11.113
55400W        W27825  12.177  33.132   2.081
55401W        W27826  40.309  38.537  10.864
55402W        W27827  36.113  37.066  13.988
55403W        W27828   2.520  29.165  10.643
55404W        W27829  11.246  29.284  13.887
55405W        W27830  20.547   0.788  10.907
55406W        W27831   4.213  36.506   2.862
55407W        W27832  10.808  20.793   3.823
55408W        W27833  21.151  15.192  13.914
55409W        W27834  42.802  37.291   3.694
55410W        W27835   5.785  42.404   1.262
55411W        W27836  27.621  24.730  12.009
55412W        W27837  25.122  17.218  12.504
55413W        W27838  32.127  41.764   3.281
55414W        W27839  18.140  17.913   3.118
55415W        W27840  14.559  25.897  14.795
55416W        W27841  12.140   2.424   1.802
55417W        W27842  40.820  15.507  11.050
55418W        W27843  28.657  34.354  11.540
55419W        W27844  35.332  29.895   2.176
55420W        W27845  24.123  42.000  12.354
55421W        W27846  43.373  44.829  13.915
55422W        W27847  29.188  40.099  13.039
55423W        W27848  23.156  37.958   0.883
55424W        W27849  18.378  35.382   4.520
55425W        W27850   2.463  43.360   0.875
55426W        W27851   0.763  38.853  12.612
55427W        W27852  30.939  15.032  11.916
55428W        W27853  40.031  21.281   0.269
55429W        W27854  33.893  40.987  14.467
55430W        W27855  31.104  40.329  14.367
55431W        W27856  17.870  39.404  13.468
55432W        W27857  10.380  44.427   4.578
55433W        W27858   8.604  32.833   3.807
55434W        W27859  14.075  22.099  12.140
55435W        W27860  13.304  18.509   4.591
55436W        W27861   9.817  24.953   0.931
55437W        W27862   8.308   2.036   1.959
55438W        W27863  12.712  24.498   0.654
55439W        W27864   9.387  39.514   4.587
55440W        W27865  17.302  22.169  11.436
55441W        W27866  23.147   1.177   2.250
55442W        W27867   8.331  40.967   0.269
55443W        W27868   1.257  31.442   1.000
55444W        W27869   1.855  17.222   4.707
55445W        W27870   8.363  13.531  13.819
55446W        W27871   7.812  33.565  13.518
55447W        W27872  35.152  23.575  11.241
55448W        W27873  16.631  31.952   9.811
55449W        W27874  14.685  41.836  13.359
55450W        W27875   3.754   5.356  11.181
55451W        W27876  30.860   5.228   4.823
55452W        W27877  43.306   6.325  10.922
55453W        W27878  24.225  32.027  11.524
55454W        W27879   9.359   9.050  10.626
55455W        W27880  34.143  26.097  11.386
55456W        W27881  20.703  29.979  12.225
55457W        W27882  34.684  26.214   0.241
55458W        W27883  18.814  43.909  12.846
55459W        W27884  29.953  23.922  12.010
55460W        W27885  42.808  18.592  12.892
55461W        W27886   3.772  27.994  14.345
55462W        W27887  32.301  37.472   5.083
55463W        W27888   5.409  44.473   2.650
55464W        W27889  39.898  40.477   3.405
55465W        W27890  30.405  15.416   4.115
55466W        W27891  21.257  25.712   0.791
55467W        W27892   5.990   4.436  13.476
55468W        W27893  31.807   1.498   0.450
55469W        W27894   5.278   6.340  13.069
55470W        W27895   3.842  37.930   1.510
55471W        W27896   9.489  29.288  11.071
55472W        W27897  25.731   1.210  12.454
55473W        W27898  17.867   2.855   9.678
55474W        W27899  38.498  23.955  10.201
55475W        W27900   9.809  43.847   3.989
55476W        W27901  11.792  24.960   0.792
55477W        W27902  13.201  34.051  10.720
55478W        W27903  30.649  31.400  11.391
55479W        W27904  37.375  40.260  12.635
55480W        W27905  37.469  38.317  14.911
55481W        W27906  15.503  41.502  12.448
55482W        W27907  33.554  39.246   4.823
55483W        W27908   8.863  10.340   4.104
55484W        W27909  14.145  42.059  10.630
55485W        W27910  22.548  36.953  13.084
55486W        W27911   4.021  30.135  14.799
55487W        W27912  10.361  42.346  14.572
55488W        W27913  30.231   6.193  12.748
55489W        W27914  38.921  12.294  11.386
55490W        W27915   0.994   6.328   4.600
55491W        W27916  21.499  27.465   2.364
55492W        W27917  13.181  32.491   2.182
55493W        W27918  25.982   6.942   4.203
55494W        W27919  41.113  43.867  11.424
55495W        W27920  19.005   8.823  13.786
55496W        W27921  27.986  41.331  11.872
55497W        W27922   7.187  37.755   1.135
55498W        W27923   6.937  39.525  13.025
55499W        W27924   6.249  23.810   4.288
55500W        W27925   5.399  16.731   4.622
55501W        W27926  23.178  38.487  14.867
55502W        W27927  30.153  42.166  13.490
55503W        W27928   4.991  27.230  13.930
55504W        W27929  21.713  15.057   2.111
55505W        W27930  21.904  28.568   3.907
55506W        W27931  38.360  43.956   4.299
55507W        W27932  34.492  38.884  12.449
55508W        W27933   8.471  22.341   4.188
55509W        W27934  11.916  39.155   3.270
55510W        W27935  19.322  23.175  13.759
55511W        W27936  32.783   9.014  12.187
55512W        W27937  18.046   1.708  11.581
55513W        W27938   9.195  41.908  11.483
55514W        W27939  20.137  42.831  10.159
55515W        W27940   7.759  22.249  11.907
55516W        W27941  33.906  11.189  14.450
55517W        W27942  39.425  44.325  12.627
55518W        W27943  19.988  26.431  10.995
55519W        W27944   6.641  42.245  13.333
55520W        W27945  30.452  39.960   4.028
55521W        W27946  42.624  13.699   2.211
55522W        W27947  37.502   8.654  12.005
55523W        W27948  33.172  40.942  12.349
55524W        W27949  26.760  43.977  14.486
55525W        W27950  31.163  28.408  13.775
55526W        W27951   7.740  16.723   3.168
55527W        W27952  22.234   9.225   3.203
55528W        W27953  32.695  34.844  11.996
55529W        W27954  10.101  42.701   4.178
55530W        W27955  27.199  27.680  14.235
55531W        W27956  17.750  28.407  11.487
55532W        W27957  23.715  32.608  14.779
55533W        W27958   2.684   4.358   1.770
55534W        W27959  27.892  12.494   3.314
55535W        W27960  21.314  38.790  11.178
55536W        W27961   5.643  24.223  13.587
55537W        W27962  13.333  44.417  11.945
55538W        W27963   8.667  10.049   1.633
55539W        W27964  29.529  21.060   0.058
55540W        W27965  31.928  12.813   3.816
55541W        W27966  37.467  11.410  10.840
55542W        W27967   3.365  42.989   1.181
55543W        W27968  28.109   6.638   5.335
55544W        W27969  15.542   4.604   0.639
55545W        W27970  26.659  33.923  10.785
55546W        W27971  26.111  39.060  11.030
55547W        W27972   6.329  29.402   0.406
55548W        W27973  19.501  38.490   3.063
55549W        W27974  40.258  44.460  14.493
55550W        W27975  25.056  44.538   0.968
55551W        W27976  10.608  30.679  14.390
55552W        W27977  19.626  22.477   1.340
55553W        W27978  43.970   7.059  12.611
55554W        W27979   5.788  14.678  11.379
55555W        W27980  23.221  16.448  11.628
55556W        W27981  19.139  37.124  14.479
55557W        W27982  31.555   4.425   4.145
55558W        W27983  16.337  29.182   2.817
55559W        W27984  28.723  14.730   2.967
55560W        W27985   0.004  26.989   0.431
55561W        W27986  37.122  11.740   2.299
55562W        W27987  38.101  39.558   1.812
55563W        W27988  14.553  21.883   9.875
55564W        W27989  15.920  19.252   4.223
55565W        W27990  39.367  10.131   3.113
55566W        W27991  37.041   7.600  11.735
55567W        W27992  11.376   8.272   4.001
55568W        W27993   0.426   9.252   1.253
55569W        W27994  21.701  44.502   4.240
55570W        W27995  28.021  37.637  13.398
55571W        W27996  23.541   9.726  12.374
55572W        W27997   4.205  23.025   4.043
55573W        W27998  36.271  33.472  14.879
55574W        W27999  28.069  34.874  11.130
55575W        W28000  26.005  34.491  11.850
55576W        W28001   9.467   3.959   3.645
55577W        W28002  35.918  25.537  10.937
55578W        W28003  39.222  11.283   3.658
55579W        W28004  39.103  11.796  13.953
55580W        W28005  44.946  11.909   1.832
55581W        W28006  10.796  24.932   2.431
55582W        W28007  39.465  38.803  12.059
55583W        W28008  42.846   7.845  10.723
55584W        W28009  32.162  33.351  14.247
55585W        W28010   7.236   8.582   0.377
55586W        W28011  25.719  32.835  11.829
55587W        W28012   6.690  21.094  11.467
55588W        W28013  10.589   9.712  13.969
55589W        W28014  16.112   6.337   4.547
55590W        W28015  31.478  15.548  11.490
55591W        W28016  37.355   6.373  14.726
55592W        W28017  24.918  18.396  13.556
55593W        W28018   9.205  14.851  10.928
55594W        W28019  30.461   4.305  12.478
55595W        W28020  27.472  38.141   1.028
55596W        W28021  21.432  26.253  11.576
55597W        W28022  12.712  22.820  11.490
55598W        W28023  40.248   6.703  13.448
55599W        W28024  27.935  37.373  12.045
55600W        W28025   3.469   4.362  12.567
55601W        W28026  11.283  43.374  11.903
55602W        W28027   2.502  37.963   0.917
55603W        W28028  10.736  33.364  14.480
55604W        W28029  44.230  44.726   0.859
55605W        W28030  19.497  36.345  13.464
55606W        W28031  36.484  35.540   4.380
55607W        W28032  37.513  23.133  14.773
55608W        W28033   8.019   3.688   2.449
55609W        W28034  19.080  20.821   1.867
55610W        W28035  42.991  31.942  14.090
55611W        W28036  28.663  25.150  11.981
55612W        W28037  29.186  15.371  14.369
55613W        W28038  40.573  25.203   1.393
55614W        W28039   9.391   8.280  13.546
55615W        W28040  28.356  26.955  11.040
55616W        W28041  22.281   0.352  12.073
55617W        W28042  22.715  40.267  13.137
55618W        W28043  15.293  22.571   5.099
55619W        W28044  11.576  26.449  14.542
55620W        W28045  41.207  17.661   2.281
55621W        W28046  18.345   1.071  14.500
55622W        W28047  16.580  24.760   0.550
55623W        W28048   5.740  33.257  12.388
55624W        W28049  40.981   3.684   4.712
55625W        W28050  23.556  31.019   0.790
55626W        W28051  23.584  36.854  11.811
55627W        W28052  20.544   2.341  13.892
55628W        W28053  13.436  21.207   2.693
55629W        W28054  40.915  12.058  13.263
55630W        W28055  20.111  17.184  12.878
55631W        W28056  39.916  30.233  12.616
55632W        W28057  18.279  12.110   3.867
55633W        W28058  11.784   3.216  14.358
55634W        W28059  18.755  39.287  13.957
55635W        W28060  10.807   6.412   4.548
55636W        W28061  33.813  35.101   4.570
55637W        W28062   6.935  44.760  11.962
55638W        W28063   8.761  26.641  11.530
55639W        W28064  12.673   7.036   1.432
55640W        W28065  40.252  15.749  12.904
55641W        W28066  36.457  30.837  13.643
55642W        W28067  11.724  29.106  10.264
55643W        W28068  35.832  23.094  13.278
55644W        W28069  31.000  28.571   2.250
55645W        W28070   2.449  36.960   4.141
55646W        W28071  17.057  27.725   4.836
55647W        W28072  37.692   2.464   1.365
55648W        W28073   3.311   3.370   2.979
55649W        W28074  24.850   6.289   1.171
55650W        W28075  36.599  39.853   0.315
55651W        W28076  44.609  36.043   1.295
55652W        W28077  35.835  15.597  11.133
55653W        W28078  41.113  28.405  12.984
55654W        W28079   4.830  10.182  14.024
55655W        W28080  15.184  38.931  14.344
55656W        W28081  29.586  37.953  14.881
55657W        W28082   8.361  21.115   4.681
55658W        W28083  29.566  10.740  11.581
55659W        W28084   2.444  13.067   0.462
55660W        W28085  39.563  37.424   0.741
55661W        W28086   6.108  17.304   0.316
55662W        W28087   6.018  14.804   1.204
55663W        W28088  31.428   2.698  10.725
55664W        W28089  35.392   2.967  10.634
55665W        W28090  10.241  32.016  14.681
55666W        W28091   6.418  22.957  11.159
55667W        W28092  34.487   6.392  13.162
55668W        W28093  25.266  13.252  13.756
55669W        W28094   1.719  39.853   0.927
55670W        W28095  38.675  40.274  10.745
55671W        W28096   9.701  25.390   4.606
55672W        W28097  23.257  10.853  13.934
55673W        W28098  15.139  26.609   2.443
55674W        W28099   9.700  16.329  11.107
55675W        W28100  22.722  28.946   0.689
55676W        W28101  22.272  26.444  12.968
55677W        W28102  41.044  30.642   3.784
55678W        W28103  19.885  30.464  13.259
55679W        W28104  15.588  23.957   2.893
55680W        W28105   5.180   9.896   0.814
55681W        W28106  29.991  15.990  14.809
55682W        W28107  16.632  11.716   3.404
55683W        W28108  20.298  34.709   4.249
55684W        W28109   5.370  41.999   3.728
55685W        W28110  28.647  18.291  12.574
55686W        W28111  30.407  38.612   3.246
55687W        W28112   9.624  15.684   2.169
55688W        W28113   7.342  37.194   4.096
55689W        W28114  21.111  28.092  10.658
55690W        W28115  26.526   0.662  10.665
55691W        W28116   2.018  33.963  11.349
55692W        W28117  11.623  10.476   3.334
55693W        W28118  30.620  17.174   1.751
55694W        W28119   2.369  32.995   2.829
55695W        W28120  38.798  10.213   2.835
55696W        W28121  41.009  40.645   1.278
55697W        W28122   8.068  30.166   0.456
55698W        W28123   8.366  33.635  10.793
55699W        W28124  39.576  10.402  13.544
55700W        W28125   3.277  40.054  12.768
55701W        W28126  21.555   4.246  14.955
55702W        W28127  26.285  29.978  10.591
55703W        W28128  19.093  39.986   1.591
55704W        W28129  21.605  13.692   3.306
55705W        W28130  28.209  14.826  13.479
55706W        W28131  43.510  25.227  14.800
55707W        W28132  35.328  29.678  11.744
55708W        W28133  43.809  44.363   3.733
55709W        W28134  20.110  34.815  11.701
55710W        W28135  29.921  23.151  12.584
55711W        W28136  12.784  44.965  11.357
55712W        W28137   0.028  42.261   1.292
55713W        W28138   6.491  11.234   1.271
55714W        W28139  17.078  20.500   1.128
55715W        W28140   1.945  20.651   2.787
55716W        W28141  10.213  38.053  13.412
55717W        W28142  10.289  36.935   2.099
55718W        W28143  24.141  32.527  14.497
55719W        W28144  44.919  27.544  12.476
55720W        W28145  18.296   8.879  12.077
55721W        W28146   4.351  41.384   3.423
55722W        W28147  42.264  41.396  11.598
55723W        W28148  10.603  43.956  10.640
55724W        W28149   4.312   7.314  10.360
55725W        W28150  17.298  10.241  10.397
55726W        W28151   2.947   4.538   2.176
55727W        W28152   8.602  19.613   2.392
55728W        W28153   8.462  22.188  14.870
55729W        W28154   7.081   4.935  11.089
55730W        W28155  26.522   2.875   0.438
55731W        W28156  21.093  32.386  13.459
55732W        W28157  25.587  36.193  13.847
55733W        W28158  34.603  43.058  12.511
55734W        W28159  14.872  42.202  14.359
55735W        W28160   0.193  33.255   4.627
55736W        W28161  26.138   0.333   3.883
55737W        W28162  16.815  43.911   0.757
55738W        W28163  25.311  38.615   1.457
55739W        W28164   9.658  28.619   0.313
55740W        W28165  23.004  21.736  13.529
55741W        W28166  25.087  31.865  14.891
55742W        W28167  41.361  26.553  11.057
55743W        W28168  40.571  35.299   1.641
55744W        W28169   3.406   8.716  11.608
55745W        W28170  32.490  32.822   2.190
55746W        W28171   1.957  12.681   3.335
55747W        W28172  35.495  22.424  13.799
55748W        W28173   0.957  22.749  10.674
55749W        W28174  35.087   5.791  13.309
55750W        W28175  17.661  29.952   5.557
55751W        W28176  10.792   3.483  12.064
55752W        W28177   8.429  22.430  11.384
55753W        W28178  31.671  38.966  11.582
55754W        W28179  33.678  30.899   5.108
55755W        W28180  14.838   0.492   1.877
55756W        W28181  40.674  16.745  13.800
55757W        W28182  15.489  22.172  14.061
55758W        W28183  17.262  14.140  12.314
55759W        W28184  25.512  36.839   4.660
55760W        W28185  12.186  42.432  14.480
55761W        W28186   1.004  10.920  11.849
55762W        W28187  38.382  27.182   1.651
55763W        W28188  12.429   0.781   1.909
55764W        W28189   8.874  15.369   1.352
55765W        W28190  31.819  44.816   2.885
55766W        W28191  37.258  39.430  11.678
55767W        W28192  42.403  21.619  11.286
55768W        W28193   1.289  14.690   3.666
55769W        W28194  27.699   8.952   3.328
55770W        W28195  29.418  38.529   2.378
55771W        W28196  24.417  28.211   2.711
55772W        W28197  13.555  39.053  13.338
55773W        W28198  20.324  36.226   4.105
55774W        W28199  32.922  25.640   0.181
55775W        W28200  32.835  25.363  12.865
55776W        W28201  17.972  21.212   0.060
55777W        W28202  20.598  22.098   2.987
55778W        W28203  42.848  11.743   0.758
55779W        W28204   2.741  13.786   2.392
55780W        W28205  17.122   6.031  11.865
55781W        W28206  18.315   3.212   3.114
55782W        W28207  34.620   7.802   1.328
55783W        W28208  25.491  13.471  12.574
55784W        W28209   7.896   9.440   1.814
55785W        W28210  14.281  41.574   2.008
55786W        W28211  26.174  15.639  14.807
55787W        W28212  36.358  20.101   4.569
55788W        W28213  28.098  39.605   0.864
55789W        W28214  24.868  29.453  11.228
55790W        W28215  26.723  27.238   2.641
55791W        W28216  44.006  10.752  11.880
55792W        W28217   0.085  14.870  12.715
55793W        W28218   2.985  44.101   2.291
55794W        W28219  23.539  29.567   0.963
55795W        W28220  36.417  42.072   1.314
55796W        W28221   1.051  31.751   5.068
55797W        W28222  25.622  25.987   3.336
55798W        W28223   6.689  17.745   3.813
55799W        W28224  25.456  29.198  12.018
55800W        W28225   6.682  29.479  10.674
55801W        W28226  17.363  20.293   4.096
55802W        W28227  33.284  26.226   3.271
55803W        W28228  19.257   1.741  14.054
55804W        W28229   0.312  23.431  12.045
55805W        W28230  16.698  27.664  13.626
55806W        W28231   4.971  14.214   2.225
55807W        W28232   6.286  20.696  14.803
55808W        W28233  19.182  19.061   0.550
55809W        W28234   4.646   4.176  14.044
55810W        W28235   8.246  17.122  14.134
55811W        W28236   5.303  14.361   1.821
55812W        W28237   5.748   0.249  13.524
55813W        W28238  27.868  21.839  11.588
55814W        W28239  29.962  11.056   1.188
55815W        W28240  29.217  32.082   3.223
55816W        W28241  19.012  11.825   4.222
55817W        W28242  15.176  21.733  10.603
55818W        W28243  15.074  38.658  12.226
55819W        W28244  40.302  15.231  12.572
55820W        W28245  33.340  33.548  14.896
55821W        W28246   9.747  43.372  10.652
55822W        W28247  37.990   7.964   4.824
55823W        W28248  41.103  35.947  14.705
55824W        W28249  31.444  15.232  14.716
55825W        W28250  31.503  23.703   2.198
55826W        W28251  12.378  10.359   1.253
55827W        W28252  19.510  16.785  13.133
55828W        W28253  38.949  39.675  12.945
55829W        W28254   6.259   7.312  12.479
55830W        W28255  30.059   6.381   3.348
55831W        W28256  11.131   0.061   3.693
55832W        W28257   6.620  35.940  13.356
55833W        W28258  35.340   4.438  11.381
55834W        W28259  31.033  11.314   3.583
55835W        W28260  29.394  30.623   1.739
55836W        W28261  11.638  20.960  11.982
55837W        W28262  10.340  18.201   3.739
55838W        W28263   4.288  14.508  12.338
55839W        W28264  30.552  20.510  11.015
55840W        W28265   6.914  44.694   1.818
55841W        W28266   9.317  11.324  13.836
55842W        W28267  31.367  32.478   2.684
55843W        W28268  22.231  33.619   3.106
55844W        W28269  32.691  18.219   3.319
55845W        W28270  22.178  42.749   0.259
55846W        W28271   5.985  21.770  14.745
55847W        W28272  15.147  40.270  13.019
55848W        W28273  22.036  29.681  10.538
55849W        W28274  35.537  19.493  14.784
55850W        W28275  43.395  28.958   2.867
55851W        W28276  38.103  34.407   4.178
55852W        W28277   9.259  42.542   1.679
55853W        W28278   9.329  25.969  13.928
55854W        W28279  42.579   4.939  13.968
55855W        W28280  30.509  31.966   4.536
55856W        W28281  41.872   7.750  11.931
55857W        W28282  10.238  29.881  11.751
55858W        W28283  22.213  41.466   2.166
55859W        W28284  27.674  38.574   0.782
55860W        W28285  27.654  29.588   1.332
55861W        W28286  43.319  24.575   3.419
55862W        W28287  32.514  21.720   3.659
55863W        W28288  28.500  24.426   1.399
55864W        W28289  31.716  28.003   2.378
55865W        W28290  40.745   8.012   3.721
55866W        W28291  44.444  28.196  12.029
55867W        W28292  36.506  13.106   4.156
55868W        W28293  33.637  29.055   4.017
55869W        W28294  13.142  19.034  13.437
55870W        W28295  28.493  37.191   1.384
55871W        W28296  18.808  19.970   3.918
55872W        W28297  28.376  30.363   0.951
55873W        W28298  40.458  26.287  14.455
55874W        W28299  22.128  28.289  14.267
55875W        W28300  20.151   5.503  11.611
55876W        W28301  41.252  15.416  10.779
55877W        W28302  20.574   2.019   0.416
55878W        W28303  36.891  18.884   1.173
55879W        W28304  38.080  13.678  11.512
55880W        W28305   6.786  38.571  12.680
55881W        W28306  39.355   5.448  13.866
55882W        W28307  10.740   1.503   4.595
55883W        W28308  19.041  25.253   4.154
55884W        W28309   7.940  21.366   4.515
55885W        W28310  10.780  20.567  14.423
55886W        W28311  35.713   8.510   4.118
55887W        W28312  42.042  44.494  14.352
55888W        W28313  37.673  28.229   3.541
55889W        W28314  22.125  36.395   2.923
55890W        W28315  25.616  37.902  11.489
55891W        W28316  11.296  11.061  12.422
55892W        W28317  41.034  36.124   1.470
55893W        W28318   4.146  23.185  12.368
55894W        W28319  23.325  12.371  12.519
55895W        W28320   9.315  15.519  13.820
55896W        W28321  19.052  22.073   1.218
55897W        W28322   3.783  37.595  11.984
55898W        W28323  15.390   5.590  12.118
55899W        W28324  10.688  38.372  11.770
55900W        W28325  40.864  38.254  11.640
55901W        W28326  19.219  20.955  12.539
55902W        W28327   9.088  16.841   0.624
55903W        W28328  11.037  40.890  13.860
55904W        W28329  42.568  39.831   1.788
55905W        W28330  27.927  28.354  11.106
55906W        W28331  20.050  15.890   2.144
55907W        W28332  10.255   2.330   1.949
55908W        W28333  42.342   8.424  10.720
55909W        W28334   3.743  43.383  10.580
55910W        W28335  43.553  33.400  13.481
55911W        W28336  34.647   8.295  11.895
55912W        W28337  15.412  12.219   3.927
55913W        W28338   6.247  27.973   0.764
55914W        W28339  40.973  20.337   0.138
55915W        W28340  12.290  17.840   1.743
55916W        W28341  26.762  10.405  11.912
55917W        W28342  14.171   7.323   1.306
55918W        W28343  13.321  13.603  14.252
55919W        W28344  44.466  24.100   4.558
55920W        W28345   6.850  30.957  11.447
55921W        W28346  22.947  18.551  11.558
55922W        W28347  19.156  35.567  10.542
55923W        W28348  15.836   1.556  11.295
55924W        W28349  32.015   1.516   4.887
55925W        W28350  42.887  23.027  10.751
55926W        W28351  11.752  33.707   1.388
55927W        W28352  43.009  23.061   1.325
55928W        W28353  14.836  15.566  14.707
55929W        W28354  30.162  37.502  10.670
55930W        W28355   5.722  15.714  10.500
55931W        W28356  28.660  38.613  14.926
55932W        W28357  38.743  26.222  14.919
55933W        W28358  22.606  37.469   3.734
55934W        W28359  23.554  12.197  13.832
55935W        W28360   1.905  11.348  11.081
55936W        W28361  37.984  29.528   3.871
55937W        W28362  13.070   6.042  12.223
55938W        W28363   8.783  41.085   0.508
55939W        W28364  13.274  38.796   1.911
55940W        W28365  38.968  18.592  14.087
55941W        W28366  41.034  42.965  14.254
55942W        W28367  14.779  20.556  11.450
55943W        W28368  36.614  44.385  12.863
55944W        W28369  38.406  17.137   0.251
55945W        W28370  14.007   5.275   2.918
55946W        W28371  32.967  35.092   4.419
55947W        W28372  14.711  12.862   5.012
55948W        W28373  38.454  35.352  11.228
55949W        W28374  14.151  27.930  12.971
55950W        W28375  41.336   4.841   4.645
55951W        W28376  27.582  41.734   2.369
55952W        W28377  44.720  25.225   1.886
55953W        W28378  34.156  25.412   2.869
55954W        W28379  26.955  27.346   4.386
55955W        W28380  27.515   5.896  12.590
55956W        W28381  27.403   1.144  13.432
55957W        W28382  12.791   8.870  11.468
55958W        W28383  29.674  15.605   1.819
55959W        W28384  36.040  32.120   1.000
55960W        W28385  26.728  16.088   1.975
55961W        W28386  14.710   3.981   0.318
55962W        W28387   2.296  23.486   0.504
55963W        W28388   5.019  36.872   3.103
55964W        W28389  43.560  26.988  11.967
55965W        W28390  13.879  18.527  13.492
55966W        W28391   7.633  26.033   1.316
55967W        W28392  42.228  37.963  14.744
55968W        W28393  22.007  11.677   3.610
55969W        W28394  10.198  32.397  11.872
55970W        W28395   7.885  32.323  13.946
55971W        W28396  11.697  27.955   2.369
55972W        W28397  20.860  18.633   1.408
55973W        W28398  27.888   6.402   4.908
55974W        W28399   6.377  30.100   4.250
55975W        W28400  30.463  32.773  13.924
55976W        W28401  34.657  40.014  13.307
55977W        W28402  23.083  29.609  14.513
55978W        W28403  12.128   9.650  11.605
55979W        W28404   5.189   4.499   4.615
55980W        W28405  36.057   8.753  12.185
55981W        W28406  33.863   8.869  14.924
55982W        W28407   2.541  23.058  12.885
55983W        W28408  29.571  12.067   2.713
55984W        W28409   3.181  15.091   4.229
55985W        W28410  22.646  33.135   1.423
55986W        W28411  17.076  28.460   2.197
55987W        W28412  41.315  38.515   4.541
55988W        W28413  23.018  43.235  11.735
55989W        W28414  10.364  34.016   0.156
55990W        W28415  19.649  42.317  13.583
55991W        W28416   8.303  28.247   2.782
55992W        W28417  35.938  40.012   2.422
55993W        W28418  43.861   6.198  12.624
55994W        W28419  11.071  17.075  11.163
55995W        W28420  41.377  37.050   4.972
55996W        W28421  30.562  17.398   3.695
55997W        W28422   6.638   6.904   4.705
55998W        W28423  31.879  44.598   0.394
55999W        W28424   8.697  13.800   3.351
56000W        W28425  14.157  19.024   0.908
56001W        W28426   4.707   8.823  10.163
56002W        W28427  30.580  20.427   0.722
56003W        W28428  22.032  12.123   1.761
56004W        W28429  32.183  44.980   3.275
56005W        W28430  32.709  24.031   1.814
56006W        W28431  20.364  24.166   4.656
56007W        W28432  37.363  22.845   4.761
56008W        W28433  23.032   1.520  13.768
56009W        W28434  21.366   6.498   0.392
56010W        W28435  34.824  43.879  10.778
56011W        W28436   7.221  11.739   4.576
56012W        W28437  28.592   2.301   2.279
56013W        W28438   2.005  44.211   2.400
56014W        W28439   6.414  38.220  14.215
56015W        W28440  16.752   6.871  11.195
56016W        W28441  35.052   8.160  14.419
56017W        W28442   0.284  12.818   0.254
56018W        W28443  25.267  32.998   2.316
56019W        W28444  12.607  39.287  10.648
56020W        W28445  25.129  36.507   0.950
56021W        W28446   8.336  15.183   4.467
56022W        W28447  11.914  39.896   2.330
56023W        W28448  23.821   5.818   3.112
56024W        W28449  10.155   4.914  12.970
56025W        W28450  24.220   3.773   0.987
56026W        W28451  15.642  39.975   3.339
56027W        W28452  29.084   9.181   4.632
56028W        W28453  21.956  34.455   3.112
56029W        W28454  25.692  39.076  12.892
56030W        W28455  41.729  39.766   4.335
56031W        W28456  36.014  40.808   1.930
56032W        W28457  31.633   7.241   4.639
56033W        W28458  24.428   1.005  13.429
56034W        W28459  12.718  35.043   0.862
56035W        W28460  27.110  32.420   9.760
56036W        W28461  18.093  24.194   2.381
56037W        W28462  26.786  31.671  12.581
56038W        W28463  27.477  17.181   4.233
56039W        W28464   8.657   9.596  11.048
56040W        W28465  44.618  11.793   4.554
56041W        W28466   3.858  31.422   0.198
56042W        W28467  42.852   5.395  14.282
56043W        W28468  27.119  24.732   3.338
56044W        W28469   6.788   8.191   1.457
56045W        W28470  33.814   6.110   2.662
56046W        W28471   7.305   1.897  10.533
56047W        W28472   0.488   5.889  11.538
56048W        W28473  30.746  25.094  10.339
56049W        W28474   1.680   8.993   3.656
56050W        W28475  34.282  26.667  13.476
56051W        W28476  41.759  13.733   4.191
56052W        W28477   2.399   1.484   0.722
56053W        W28478  38.016  33.954   2.680
56054W        W28479   1.656  36.526   4.102
56055W        W28480  24.251  22.940   0.381
56056W        W28481  42.205  43.685   3.301
56057W        W28482  42.859  42.851  14.985
56058W        W28483   4.058   1.937   1.231
56059W        W28484  26.386  33.700   3.993
56060W        W28485   8.963   6.339  11.025
56061W        W28486  43.082  19.161   0.704
56062W        W28487  26.211  22.029  13.839
56063W        W28488  16.300  39.465   3.081
56064W        W28489  40.636   7.189  12.431
56065W        W28490  35.356  38.353  11.581
56066W        W28491   4.216  31.982   1.356
56067W        W28492  25.102  40.792   2.160
56068W        W28493  15.773   7.780   0.419
56069W        W28494   9.626  32.012  13.858
56070W        W28495   6.335  13.133  13.466
56071W        W28496   8.419  24.707  12.107
56072W        W28497   1.767  31.162   2.699
56073W        W28498  11.939   2.544  10.660
56074W        W28499  18.520  17.294   2.394
56075W        W28500   1.190  11.270  11.496
56076W        W28501  40.024  44.796   1.180
56077W        W28502   6.353   7.405   4.205
56078W        W28503  11.723   5.183   4.582
56079W        W28504  33.924  13.534   4.625
56080W        W28505  41.424  27.584   2.609
56081W        W28506  32.570   1.065  12.468
56082W        W28507  37.906  27.022  12.823
56083W        W28508   6.474  34.674  11.948
56084W        W28509   9.972  29.901   4.660
56085W        W28510   7.310  30.864   0.357
56086W        W28511  16.706  36.498   2.430
56087W        W28512  15.932  11.760   4.614
56088W        W28513  23.031  33.799  12.083
56089W        W28514   0.672  20.063  12.520
56090W        W28515  19.859  25.239   3.286
56091W        W28516  34.055  18.051   1.326
56092W        W28517  24.797  35.995  12.067
56093W        W28518  21.678  29.904  11.649
56094W        W28519  19.605  44.231   1.634
56095W        W28520  15.625   0.768   5.035
56096W        W28521  16.227  34.847   0.113
56097W        W28522  11.846  31.937  14.758
56098W        W28523  26.001  31.493   3.377
56099W        W28524  40.590   9.040   4.160
56100W        W28525   2.789  23.522   3.053
56101W        W28526  19.045  41.289  13.578
56102W        W28527  44.842  11.192  13.128
56103W        W28528  34.126  18.234  10.242
56104W        W28529  33.402   3.340   1.811
56105W        W28530   6.166   6.864  13.414
56106W        W28531  29.635  44.056  13.495
56107W        W28532  27.915  26.633  10.696
56108W        W28533  37.069   2.672  11.151
56109W        W28534   4.245  12.346   0.994
56110W        W28535  42.539   1.053  13.287
56111W        W28536  18.512  20.665  11.194
56112W        W28537  31.185  39.074  13.202
56113W        W28538  29.655  32.643  12.826
56114W        W28539  21.994  11.172   1.765
56115W        W28540  43.247  20.781  11.130
56116W        W28541  10.619  14.769   4.041
56117W        W28542  28.665   5.863   3.890
56118W        W28543  28.076  39.397   0.360
56119W        W28544  10.437  35.787   0.344
56120W        W28545   9.617  25.214  13.159
56121W        W28546   2.683  28.895   1.219
56122W        W28547  39.609  26.046   1.272
56123W        W28548   1.560   5.167  11.247
56124W        W28549  24.977  11.481   0.118
56125W        W28550  40.056  33.703   4.163
56126W        W28551  27.575   5.030   4.596
56127W        W28552  26.080  40.393  12.092
56128W        W28553  29.093   3.565  13.868
56129W        W28554   5.922  22.183   4.831
56130W        W28555  22.575  32.177   9.953
56131W        W28556  33.710  44.836   0.889
56132W        W28557  11.582  25.151   1.249
56133W        W28558   5.474  21.392   1.138
56134W        W28559  24.804  22.962  11.504
56135W        W28560  30.638  39.945   2.379
56136W        W28561   4.904   8.810  14.335
56137W        W28562  13.977  19.873  11.201
56138W        W28563  21.761  30.964   1.296
56139W        W28564   7.715  22.390  14.592
56140W        W28565   3.204  28.049  13.510
56141W        W28566  43.957   7.858   1.304
56142W        W28567   0.487   2.980   1.040
56143W        W28568  31.890  30.144  13.912
56144W        W28569  34.446  18.121  14.224
56145W        W28570  11.654  36.943   2.170
56146W        W28571  40.903  41.062  11.542
56147W        W28572  17.325  44.648  12.474
56148W        W28573  40.877   6.261   2.269
56149W        W28574  38.940  35.635   4.126
56150W        W28575  41.004  43.506   3.707
56151W        W28576  42.267   8.761   2.046
56152W        W28577  20.739  13.080  14.981
56153W        W28578  37.066  12.111   3.348
56154W        W28579  32.130  24.912   1.894
56155W        W28580  43.840   0.333   3.711
56156W        W28581  23.019  28.602  10.421
56157W        W28582  32.500  18.698   3.820
56158W        W28583   3.976  39.800   3.670
56159W        W28584  21.386  26.962  13.860
56160W        W28585  34.127   3.478   3.210
56161W        W28586  28.125  17.847  14.341
56162W        W28587   4.489   7.748  13.615
56163W        W28588  25.414  10.308  11.527
56164W        W28589  16.848  22.446  10.719
56165W        W28590   0.863  40.856  12.791
56166W        W28591   5.807  14.310   1.988
56167W        W28592   8.292   8.938   3.506
56168W        W28593  32.040   6.934   4.051
56169W        W28594  37.069  24.988   4.920
56170W        W28595  38.725  44.786  12.438
56171W        W28596  26.484  43.914  12.038
56172W        W28597  12.061  22.141   0.357
56173W        W28598  29.631   8.187   3.145
56174W        W28599   1.809  26.111   4.332
56175W        W28600   0.048  30.437   3.278
56176W        W28601   3.669  27.706  11.761
56177W        W28602  24.472   0.551   0.118
56178W        W28603   5.344  30.057   4.788
56179W        W28604  36.205  18.187   0.981
56180W        W28605  27.435  10.200   0.044
56181W        W28606  36.119  26.375  10.389
56182W        W28607  40.377  24.905   4.139
56183W        W28608  32.353  26.454   3.287
56184W        W28609  37.789   0.409   3.301
56185W        W28610  20.183  34.603  13.604
56186W        W28611  13.365  44.880   3.188
56187W        W28612  41.761   2.354  11.418
56188W        W28613  23.053  27.581  12.451
56189W        W28614  16.131  39.488   4.316
56190W        W28615  30.113  38.857  14.730
56191W        W28616  22.574  14.626   0.806
56192W        W28617  33.093  13.816  14.476
56193W        W28618  42.723  38.921   1.959
56194W        W28619  33.084  43.305  13.038
56195W        W28620  33.364  41.739  13.542
56196W        W28621   1.465  27.597   1.789
56197W        W28622  40.447  33.073  12.833
56198W        W28623  11.712   0.765   4.571
56199W        W28624  37.965  42.467   0.995
56200W        W28625  24.128  39.058  12.937
56201W        W28626  23.461  17.103   1.164
56202W        W28627  35.534  29.911   1.146
56203W        W28628  43.533   5.883  11.090
56204W        W28629   5.607  10.802  10.599
56205W        W28630  40.729  37.075  12.438
56206W        W28631  16.665   0.559   4.620
56207W        W28632   6.289  19.866  13.877
56208W        W28633   1.786  15.737  11.577
56209W        W28634  16.745   5.677   3.587
56210W        W28635   9.845  15.762   2.658
56211W        W28636  19.726  21.523   2.777
56212W        W28637  40.936  20.063  14.664
56213W        W28638   7.768   4.190   0.580
56214W        W28639  42.430   0.175   0.352
56215W        W28640  19.796  26.143   1.308
56216W        W28641   7.597  17.136  10.665
56217W        W28642  28.384  24.687  12.883
56218W        W28643  18.147  40.932  14.254
56219W        W28644  10.272  24.039  12.551
56220W        W28645  34.123  32.531   0.691
56221W        W28646  29.344   4.726   4.096
56222W        W28647  39.471   2.284  14.738
56223W        W28648  27.027   2.874  14.043
56224W        W28649  33.723  42.988   4.034
56225W        W28650  37.807  38.344   4.379
56226W        W28651   1.587  32.400   1.414
56227W        W28652  13.315  44.840   1.697
56228W        W28653  26.764  18.716   4.257
56229W        W28654   8.894   6.169   2.917
56230W        W28655   9.394  36.281   0.004
56231W        W28656  30.875  38.551  11.546
56232W        W28657  24.629  44.788  12.169
56233W        W28658  17.852  12.208   3.535
56234W        W28659  26.187  37.457   3.655
56235W        W28660   3.729  33.469   1.283
56236W        W28661   2.207  10.766  14.370
56237W        W28662  31.667   0.514   2.620
56238W        W28663   7.386  24.719   2.329
56239W        W28664  16.837  17.212   2.934
56240W        W28665  28.919  13.856  10.519
56241W        W28666  12.213  28.707  10.874
56242W        W28667  25.432  37.704  13.808
56243W        W28668   6.202  29.046   5.138
56244W        W28669   2.462   0.135  11.428
56245W        W28670  27.563  17.995  13.626
56246W        W28671  21.966  14.558  13.900
56247W        W28672  44.798  16.588  11.479
56248W        W28673  32.926  18.171  10.562
56249W        W28674  39.264   8.952  13.969
56250W        W28675  44.869  41.283   4.618
56251W        W28676   4.418  17.537   1.305
56252W        W28677  32.768  12.820   2.622
56253W        W28678  31.838   7.173  12.559
56254W        W28679   9.882   4.933  11.655
56255W        W28680  31.974   5.991  13.927
56256W        W28681  25.693  20.152   2.875
56257W        W28682  25.172  39.194  12.968
56258W        W28683  16.747  39.295   4.333
56259W        W28684   6.688  33.479  10.693
56260W        W28685  12.556  17.956   0.382
56261W        W28686   8.241  16.219   4.542
56262W        W28687   9.306  15.121  14.802
56263W        W28688  26.052  22.436  14.120
56264W        W28689  15.093  31.434  12.081
56265W        W28690   8.124  32.200  14.962
56266W        W28691  33.870  14.168   4.623
56267W        W28692  42.677   3.279  14.341
56268W        W28693  12.697  27.054   1.425
56269W        W28694   1.457  22.611   1.833
56270W        W28695  23.374   8.644   4.567
56271W        W28696  23.158  16.969   1.575
56272W        W28697  40.071  35.129   1.379
56273W        W28698  42.533  44.048  11.499
56274W        W28699  26.736  17.558   4.500
56275W        W28700  26.990  44.508   2.449
56276W        W28701  41.877  35.677  11.181
56277W        W28702  17.541  43.463   1.667
56278W        W28703   8.883  26.187   0.214
56279W        W28704  24.116   0.435   1.275
56280W        W28705  24.014   9.928   3.649
56281W        W28706  19.073   5.764   1.824
56282W        W28707   8.713  31.372   2.370
56283W        W28708  24.624   8.189   0.817
56284W        W28709   5.208  15.765   2.284
56285W        W28710   5.856  31.689   4.761
56286W        W28711  19.972  27.095  11.826
56287W        W28712  16.641  26.177   4.782
56288W        W28713  31.278  12.271  14.108
56289W        W28714  23.572   3.189   0.820
56290W        W28715  30.549  23.454  11.696
56291W        W28716  43.954  10.580  10.376
56292W        W28717  33.882  40.783   0.910
56293W        W28718  34.384  23.789   5.073
56294W        W28719  31.560  38.954   2.337
56295W        W28720  12.211  22.597   2.640
56296W        W28721  17.198  20.639   4.911
56297W        W28722  33.148  30.414  11.067
56298W        W28723   5.454  23.591   3.044
56299W        W28724  25.674  26.609   4.649
56300W        W28725  17.565  11.185  11.572
56301W        W28726   0.517  36.185  11.277
56302W        W28727  28.000  11.224   3.745
56303W        W28728  12.305  25.045   1.915
56304W        W28729  29.205  36.077  12.932
56305W        W28730  34.130   2.946   1.733
56306W        W28731  33.500  24.473   0.847
56307W        W28732   5.953   5.785   4.665
56308W        W28733  30.978  32.693  13.156
56309W        W28734  16.149  37.041  13.301
56310W        W28735  41.043  44.927  10.440
56311W        W28736   3.212   1.972   4.656
56312W        W28737   9.385  30.206   3.069
56313W        W28738  38.922   5.405  14.327
56314W        W28739  41.664  35.019  11.102
56315W        W28740  27.387  44.760  13.351
56316W        W28741  42.811  38.800  12.628
56317W        W28742  15.822   0.501   1.813
56318W        W28743  44.288   5.619   4.753
56319W        W28744   0.430  35.123   3.197
56320W        W28745  29.212   3.154  11.027
56321W        W28746  35.322  44.286  13.754
56322W        W28747   8.867  19.024  12.725
56323W        W28748  22.484  23.927   2.397
56324W        W28749  19.520  17.132   4.721
56325W        W28750  36.616  30.868   1.246
56326W        W28751  32.564  38.362   3.320
56327W        W28752  23.808   8.757   3.773
56328W        W28753  41.541  13.273  13.977
56329W        W28754  16.999   1.390   4.706
56330W        W28755  17.496  35.005  11.622
56331W        W28756   7.127   4.957  14.001
56332W        W28757  31.767  35.091  13.319
56333W        W28758  11.675   2.961  10.910
56334W        W28759  30.392  19.697   4.306
56335W        W28760   7.749  25.613  13.018
56336W        W28761  15.402   2.968   0.232
56337W        W28762   7.323   3.058   4.606
56338W        W28763   0.799  31.359   1.297
56339W        W28764  37.118  29.475   0.449
56340W        W28765  42.735  10.001  14.020
56341W        W28766  10.280  35.657  14.297
56342W        W28767  44.518  32.050  12.564
56343W        W28768  10.461  42.780   0.920
56344W        W28769   6.295  13.051   0.853
56345W        W28770  18.652  19.054  10.543
56346W        W28771  25.556   3.840  10.718
56347W        W28772   0.248   7.690   2.397
56348W        W28773  35.523   7.226  12.210
56349W        W28774  39.953  31.847   2.227
56350W        W28775  38.838   3.796   2.272
56351W        W28776  38.101   7.956  13.990
56352W        W28777  18.269  25.203   4.641
56353W        W28778  29.079  23.611   3.648
56354W        W28779  11.633  29.501  11.700
56355W        W28780  27.586   1.181   2.275
56356W        W28781  13.181   7.280   4.582
56357W        W28782  36.978  37.764   4.139
56358W        W28783  23.871  43.200  11.449
56359W        W28784  41.381  43.926  12.643
56360W        W28785  24.767  30.358   1.819
56361W        W28786  26.217  20.018   3.810
56362W        W28787  26.024  32.378  13.855
56363W        W28788  33.582  27.644  14.455
56364W        W28789   5.769  25.547   3.195
56365W        W28790  15.835  26.040   2.450
56366W        W28791  31.464   8.134   3.642
56367W        W28792  10.039   6.168   0.877
56368W        W28793   3.876  18.242  11.745
56369W        W28794   0.144  31.900   5.012
56370W        W28795  16.822   1.246  11.491
56371W        W28796  21.635   9.637  11.610
56372W        W28797   2.587  24.982   4.611
56373W        W28798   7.310   8.391  14.896
56374W        W28799  27.993  29.438   1.705
56375W        W28800   0.787  24.443  13.449
56376W        W28801   1.523  32.054   0.277
56377W        W28802   9.445   8.051   0.866
56378W        W28803  34.600   9.697  12.917
56379W        W28804  33.975  12.423   2.365
56380W        W28805  18.464  30.924  10.997
56381W        W28806  33.435  29.375  12.509
56382W        W28807   9.636  18.481   9.849
56383W        W28808  38.549  19.047  12.037
56384W        W28809   1.238  19.214  12.316
56385W        W28810  12.821  23.981  12.489
56386W        W28811  29.946  29.452   0.769
56387W        W28812  42.553  23.122   4.225
56388W        W28813  39.070   8.222   4.284
56389W        W28814   6.564  19.008   3.311
56390W        W28815  42.941  26.128   1.933
56391W        W28816  32.558  24.571   0.009
56392W        W28817  34.909  17.691  14.954
56393W        W28818  22.767  43.072   1.833
56394W        W28819   2.802  18.503  12.475
56395W        W28820  34.937  30.454   3.365
56396W        W28821  21.738   1.255   2.746
56397W        W28822  36.505  10.499  14.884
56398W        W28823  14.299   1.254   4.719
56399W        W28824  20.433  11.629   1.340
56400W        W28825   5.455   6.656   3.354
56401W        W28826   0.524  21.247   1.218
56402W        W28827  21.138  10.076  14.383
56403W        W28828   9.164  37.995   3.565
56404W        W28829  16.736   9.952   4.537
56405W        W28830  24.626  34.397   4.419
56406W        W28831   5.328   4.249  14.832
56407W        W28832  16.563  32.596   4.179
56408W        W28833  20.715  19.532  14.500
56409W        W28834  15.196  26.627   2.965
56410W        W28835  19.626   7.291   0.781
56411W        W28836   5.482  18.204   0.879
56412W        W28837   6.417  29.917  10.718
56413W        W28838  20.660  31.007   1.549
56414W        W28839   3.795  22.393  12.079
56415W        W28840  10.508   9.305  14.273
56416W        W28841  42.492  34.155  13.983
56417W        W28842  11.684  34.011   4.754
56418W        W28843  33.687  41.513   1.863
56419W        W28844   3.156   6.091  14.222
56420W        W28845  14.790  22.623  12.507
56421W        W28846  23.726  39.619   2.840
56422W        W28847   0.854  42.776   4.628
56423W        W28848  33.569   2.834  14.824
56424W        W28849  27.362  22.945  11.268
56425W        W28850  19.335   7.738  12.945
56426W        W28851  17.172  14.591   2.166
56427W        W28852  37.596  27.195   0.786
56428W        W28853  24.007  20.206   3.206
56429W        W28854   3.408   8.035   4.595
56430W        W28855  14.159  17.821  11.678
56431W        W28856   0.449  34.482  14.345
56432W        W28857  38.942  21.025   2.441
56433W        W28858  19.130  37.355   0.517
56434W        W28859  31.400   3.770  14.355
56435W        W28860  35.896  30.870  12.005
56436W        W28861  15.697  38.659  14.403
56437W        W28862  32.311  15.162   2.269
56438W        W28863   5.975  32.395  12.177
56439W        W28864  20.727  20.805  10.584
56440W        W28865  14.695  31.773  11.216
56441W        W28866  28.198  26.223  13.813
56442W        W28867  13.287  21.656  11.071
56443W        W28868  44.237   7.310   3.669
56444W        W28869  39.557  37.055   1.806
56445W        W28870  20.736  33.626   3.121
56446W        W28871   1.480   3.103   2.857
56447W        W28872   5.879  12.916  13.337
56448W        W28873  19.799   6.149   1.933
56449W        W28874  22.957  36.134   2.810
56450W        W28875  15.919  16.493   4.997
56451W        W28876  15.085  10.154  11.072
56452W        W28877   0.873  28.272   0.746
56453W        W28878   2.466  27.455   3.694
56454W        W28879   5.899  37.062  10.196
56455W        W28880  38.801  40.426  14.997
56456W        W28881   1.317  43.631  14.542
56457W        W28882  16.669  19.235   3.629
56458W        W28883  41.232  38.031  14.937
56459W        W28884   0.937  24.205  13.982
56460W        W28885   9.867  25.647  13.319
56461W        W28886   7.587  23.061   2.269
56462W        W28887   5.250  44.355  14.493
56463W        W28888   1.721  14.157   1.840
56464W        W28889  15.220  12.188   4.402
56465W        W28890  31.608  29.078   3.350
56466W        W28891   5.456  39.501  12.014
56467W        W28892  40.222   6.385  12.086
56468W        W28893  20.270  20.061   1.129
56469W        W28894  39.501   7.859  11.359
56470W        W28895  40.498  24.545  12.897
56471W        W28896  39.059  33.399   4.170
56472W        W28897  32.501  20.822  12.437
56473W        W28898  38.450  23.750   5.337
56474W        W28899   4.132  29.673   3.406
56475W        W28900  18.203   2.990   4.258
56476W        W28901   3.041   6.782  14.451
56477W        W28902  40.272  33.626   1.106
56478W        W28903  11.074  44.548  12.427
56479W        W28904  33.840  13.825  13.814
56480W        W28905   8.530   3.762   2.359
56481W        W28906   2.479  31.109   4.265
56482W        W28907  38.371  36.614   2.722
56483W        W28908  11.609  37.739  12.437
56484W        W28909  13.286  15.112   4.577
56485W        W28910  26.258  26.551   2.380
56486W        W28911   6.725  17.364  11.573
56487W        W28912  43.262  25.057   0.556
56488W        W28913  23.214  35.693   2.675
56489W        W28914   4.309   3.854   0.317
56490W        W28915   4.645  31.445  14.985
56491W        W28916  37.660   8.361  12.409
56492W        W28917   8.608  33.893  14.840
56493W        W28918   6.123  44.628   4.499
56494W        W28919  40.060  26.029  12.519
56495W        W28920  15.085   1.427   4.035
56496W        W28921   0.844  24.418   3.074
56497W        W28922  29.933  23.772  14.063
56498W        W28923  39.307  31.199   4.499
56499W        W28924   3.966   8.167  11.959
56500W        W28925  18.981  30.504   0.578
56501W        W28926  31.216  44.350  11.523
56502W        W28927  42.497  43.497  10.728
56503W        W28928  36.316   7.784  11.203
56504W        W28929   3.585  15.096  11.356
56505W        W28930  20.465  20.286  13.999
56506W        W28931  19.046  40.441   1.324
56507W        W28932   6.694  36.081  11.429
56508W        W28933  34.319  28.490   3.694
56509W        W28934  42.166  13.072   4.229
56510W        W28935  37.977   7.689   1.879
56511W        W28936  17.630   5.945   1.013
56512W        W28937  16.231  39.569   2.590
56513W        W28938  21.279   2.652  14.284
56514W        W28939   8.806  22.970  12.966
56515W        W28940  13.698  21.548   3.583
56516W        W28941   7.075  12.645  14.991
56517W        W28942  26.850  37.898  10.243
56518W        W28943  44.497  42.239   3.246
56519W        W28944   5.642  35.545   9.750
56520W        W28945   1.441   9.664   2.546
56521W        W28946   5.804  17.750  10.876
56522W        W28947  38.794  33.628  10.866
56523W        W28948   2.351  22.685  11.126
56524W        W28949   4.304  26.075  11.501
56525W        W28950  22.756   2.422  11.141
56526W        W28951  35.878  33.627  14.037
56527W        W28952   3.378   3.362   0.253
56528W        W28953  42.937  31.918   0.388
56529W        W28954  16.371  24.614   3.759
56530W        W28955   8.468  35.440  10.702
56531W        W28956  10.750  22.784  12.835
56532W        W28957  20.993  23.521   1.306
56533W        W28958  12.390  13.439  13.906
56534W        W28959  29.454  20.466   4.337
56535W        W28960  17.455  18.776   0.769
56536W        W28961  34.997  44.378   0.568
56537W        W28962   4.838  33.442   2.762
56538W        W28963  12.191  39.955  12.157
56539W        W28964  33.097  35.083   0.826
56540W        W28965  14.861  12.347  11.002
56541W        W28966  29.666   6.927   1.271
56542W        W28967  41.440   6.817   3.153
56543W        W28968   6.127  38.311   3.437
56544W        W28969  29.458  12.493   4.590
56545W        W28970  20.478  14.313  13.404
56546W        W28971  34.564  43.675  11.470
56547W        W28972  13.431  33.673  10.445
56548W        W28973  23.816  11.570   0.886
56549W        W28974  15.148  38.945   1.443
56550W        W28975  29.454  11.847   1.667
56551W        W28976   0.721  32.851  12.436
56552W        W28977  10.773  36.183   0.276
56553W        W28978   3.884   4.019   2.711
56554W        W28979  42.997  40.981  10.506
56555W        W28980  17.260  28.262  11.511
56556W        W28981  28.603  36.602  14.303
56557W        W28982   6.464   6.290  11.176
56558W        W28983  43.065  32.529  13.412
56559W        W28984  18.231   1.785   5.231
56560W        W28985  34.510   8.648  13.038
56561W        W28986  27.229  37.987  14.442
56562W        W28987  27.053  20.422  13.004
56563W        W28988  42.339   7.338   3.385
56564W        W28989  34.162  40.428  13.499
56565W        W28990   2.978   9.819  12.732
56566W        W28991  41.839  40.282   2.343
56567W        W28992   4.172  32.763   2.639
56568W        W28993   1.504  26.916  10.890
56569W        W28994  29.644  12.317  14.883
56570W        W28995  10.796   7.360   3.604
56571W        W28996  16.072  24.598   1.454
56572W        W28997  21.085   6.265   1.307
56573W        W28998  21.215  31.223   2.226
56574W        W28999  10.449  42.897  11.316
56575W        W29000  41.499  15.907   2.703
56576W        W29001  44.353  28.077   4.557
56577W        W29002  36.467  13.840   4.893
56578W        W29003  21.668   0.493   3.338
56579W        W29004  33.675  17.496  11.156
56580W        W29005  16.494   8.787  12.519
56581W        W29006  35.822   4.273  10.463
56582W        W29007   8.755   9.738   0.379
56583W        W29008  26.129  18.140   4.141
56584W        W29009   0.393  38.667   0.782
56585W        W29010  20.257  39.713   3.271
56586W        W29011  35.078   9.850  13.274
56587W        W29012   6.386  22.582   0.867
56588W        W29013   9.848  22.776   4.822
56589W        W29014  29.907  26.050   3.819
56590W        W29015   3.726  10.847   4.469
56591W        W29016   4.828  19.074   3.597
56592W        W29017  34.539   5.158  14.545
56593W        W29018  17.579   3.774   3.308
56594W        W29019   1.164   7.939  13.883
56595W        W29020  33.943  13.659   1.340
56596W        W29021  13.278   5.359  10.546
56597W        W29022  33.488  40.138   4.922
56598W        W29023  33.435  21.527   4.693
56599W        W29024  31.735   5.364  11.514
56600W        W29025   7.741  19.018   0.264
56601W        W29026  13.575  13.261   4.666
56602W        W29027  11.174  17.789   3.639
56603W        W29028  29.732  12.145  13.926
56604W        W29029   6.115  34.519   2.405
56605W        W29030  17.455  40.849   2.957
56606W        W29031  17.098   8.703   1.827
56607W        W29032  13.668  22.312  11.894
56608W        W29033  20.982   0.041   2.713
56609W        W29034  24.601  24.211   2.841
56610W        W29035  41.827  22.382   2.624
56611W        W29036  14.255  21.205   4.636
56612W        W29037  30.532  29.165  14.033
56613W        W29038  33.215   1.332  10.516
56614W        W29039  33.060  16.085   1.147
56615W        W29040  16.703  34.111   0.006
56616W        W29041  35.239  28.031   1.069
56617W        W29042   7.279   3.553   5.016
56618W        W29043   6.076  24.598  11.940
56619W        W29044  44.930  30.803  12.601
56620W        W29045  29.708  19.766  14.860
56621W        W29046  33.713  12.578   4.529
56622W        W29047  19.706  14.301  14.078
56623W        W29048  36.460  15.062  11.719
56624W        W29049  15.795  14.738   4.209
56625W        W29050  15.145  32.675   4.222
56626W        W29051  36.600  24.633  12.370
56627W        W29052  28.622  37.041  11.130
56628W        W29053  40.817  34.093   3.124
56629W        W29054  10.737   3.561   4.159
56630W        W29055  16.343   3.253   4.048
56631W        W29056  13.279  28.865   2.236
56632W        W29057   2.598  16.642   0.907
56633W        W29058  20.495  29.654   4.228
56634W        W29059  10.994   2.651  11.610
56635W        W29060  38.025   7.805   1.371
56636W        W29061   3.899   4.975   1.849
56637W        W29062  34.694   4.196   4.355
56638W        W29063   0.875  30.184  10.694
56639W        W29064  33.488  36.310   4.298
56640W        W29065   7.746   5.993   1.907
56641W        W29066  41.859  22.972   0.843
56642W        W29067  11.636   1.336   2.470
56643W        W29068  18.189   1.975   0.419
56644W        W29069  35.044  40.400   0.815
56645W        W29070   1.980  44.715   2.425
56646W        W29071  17.217   8.197  14.028
56647W        W29072   5.415  22.304  14.877
56648W        W29073  41.778  31.665  13.415
56649W        W29074   2.338  27.133  14.514
56650W        W29075  22.017  42.413  14.860
56651W        W29076  34.906   8.742   1.762
56652W        W29077   4.402  17.819   5.054
56653W        W29078  21.065  30.748   0.840
56654W        W29079  34.380   4.770   4.204
56655W        W29080  30.353   0.812   4.495
56656W        W29081  14.076  13.211   4.731
56657W        W29082  30.730  38.018  13.344
56658W        W29083   3.446  41.994  10.875
56659W        W29084  15.629  29.378  14.292
56660W        W29085   0.387   2.233  12.940
56661W        W29086  19.134   7.971   2.338
56662W        W29087  29.590  37.360  12.938
56663W        W29088   1.766  43.886  14.307
56664W        W29089   7.339  31.509   3.788
56665W        W29090  31.447  41.323   4.613
56666W        W29091  28.188  15.528   4.636
56667W        W29092   2.783  26.493   2.136
56668W        W29093  17.271  31.511   3.684
56669W        W29094  44.924  32.633  12.936
56670W        W29095   8.880   9.367  14.389
56671W        W29096   2.594  24.690   2.386
56672W        W29097   0.640   3.875  12.125
56673W        W29098  41.559  19.224  14.453
56674W        W29099  17.662   2.451   2.238
56675W        W29100  10.463   1.072  13.794
56676W        W29101  44.696  32.950  14.879
56677W        W29102  17.946  30.640  14.785
56678W        W29103  33.089  20.637   0.972
56679W        W29104  44.778  21.486   2.197
56680W        W29105  19.845  38.058   0.525
56681W        W29106  38.829  44.696  14.285
56682W        W29107  34.260   3.712   0.786
56683W        W29108   2.751  35.896  12.107
56684W        W29109  17.864  21.965   2.685
56685W        W29110  43.570   1.363   2.647
56686W        W29111  36.105  28.744   2.254
56687W        W29112  10.594  19.823   1.671
56688W        W29113  38.622  42.307   3.718
56689W        W29114   3.950  15.987   1.868
56690W        W29115   9.074  24.651   4.082
56691W        W29116  30.171   9.948  12.294
56692W        W29117  32.491   3.185   4.308
56693W        W29118  25.899  27.056   2.256
56694W        W29119  12.974  26.158   4.407
56695W        W29120   2.728   9.354  12.502
56696W        W29121  32.873  32.191  13.433
56697W        W29122  30.710  21.709   2.201
56698W        W29123  41.684  39.549   3.138
56699W        W29124  40.232  24.058   2.068
56700W        W29125  13.846  25.619   4.142
56701W        W29126  44.008  41.186  13.296
56702W        W29127  40.801  23.096  14.226
56703W        W29128  25.826  34.669  13.523
56704W        W29129  30.500  15.375  11.901
56705W        W29130  29.257  32.516  10.768
56706W        W29131   0.489  30.996  12.449
56707W        W29132  12.422  28.760   0.339
56708W        W29133  42.278   8.410  12.480
56709W        W29134   5.950  28.943  12.936
56710W        W29135   6.858   4.830  10.633
56711W        W29136  33.668  25.458  10.716
56712W        W29137  19.020  36.594  11.960
56713W        W29138  37.886   3.793   3.260
56714W        W29139  38.641  44.394   0.451
56715W        W29140  31.192  25.148   0.969
56716W        W29141   5.910  25.017   3.903
56717W        W29142  28.464   7.971   0.058
56718W        W29143  10.440   1.845   1.839
56719W        W29144  12.311  22.854   2.204
56720W        W29145  29.972  15.786  13.735
56721W        W29146  20.879  17.568   3.707
56722W        W29147   2.969  21.074  12.777
56723W        W29148  43.685  36.968  12.203
56724W        W29149   2.531  29.596   0.435
56725W        W29150  32.592   3.732   1.453
56726W        W29151   1.150  32.529   2.887
56727W        W29152   2.459   7.164  12.938
56728W        W29153  31.411  14.516  13.945
56729W        W29154   2.270  13.799  11.609
56730W        W29155  16.574   3.856  13.379
56731W        W29156  27.453  35.569   2.405
56732W        W29157  13.758   7.703  12.868
56733W        W29158   8.201   3.982  14.357
56734W        W29159  37.936  39.350   2.286
56735W        W29160   1.973   2.768  14.014
56736W        W29161  17.661  44.520  10.227
56737W        W29162   1.642   8.909   2.849
56738W        W29163  36.342   0.620  12.585
56739W        W29164  19.576   5.293   0.215
56740W        W29165  15.556  18.879   0.391
56741W        W29166  32.458  26.286  11.067
56742W        W29167  21.643  30.169   1.751
56743W        W29168   2.772   2.331   2.459
56744W        W29169  35.068   5.804   2.658
56745W        W29170   4.459  14.126   4.251
56746W        W29171  42.772  16.353  13.878
56747W        W29172   9.894  31.580  13.779
56748W        W29173  41.168  27.181  11.140
56749W        W29174  44.342   5.619   1.644
56750W        W29175   5.167   9.678   4.303
56751W        W29176  35.351  18.145   1.380
56752W        W29177  22.393  10.345   1.882
56753W        W29178  28.402  10.659  12.411
56754W        W29179  12.829  30.159   2.913
56755W        W29180  35.000  22.987  13.397
56756W        W29181  16.943  39.759  14.840
56757W        W29182   5.634   8.525   1.412
56758W        W29183  14.318  35.091   0.889
56759W        W29184  35.907  39.932   1.424
56760W        W29185  41.000  43.420  12.141
56761W        W29186   1.442  24.958  14.589
56762W        W29187   8.398  40.423   1.022
56763W        W29188  21.686  26.584   2.932
56764W        W29189  15.608   1.320   5.093
56765W        W29190  41.506  30.192   1.915
56766W        W29191  13.301  10.070  14.370
56767W        W29192  42.710   2.765   3.475
56768W        W29193  37.495  16.857   4.585
56769W        W29194  34.357  27.959  13.949
56770W        W29195  31.144  28.451  10.602
56771W        W29196  43.324  22.688   3.407
56772W        W29197  14.062  35.988   2.533
56773W        W29198   8.896   4.002  11.976
56774W        W29199  40.713  38.484  11.174
56775W        W29200  16.246  14.279   5.369
56776W        W29201  26.113  22.120   4.003
56777W        W29202   8.269   9.763   2.597
56778W        W29203  23.054  13.871   2.638
56779W        W29204  11.146  26.625   3.275
56780W        W29205   9.102  40.876  12.926
56781W        W29206   5.285   6.901   4.372
56782W        W29207  41.628  10.842   4.513
56783W        W29208  38.608   9.768  11.636
56784W        W29209  23.010  19.130   4.628
56785W        W29210   5.889  23.240  10.822
56786W        W29211  37.439  17.565   1.338
56787W        W29212   4.692  13.358   3.756
56788W        W29213  13.573  32.823   2.154
56789W        W29214  19.303   0.829  11.637
56790W        W29215  10.145   1.374   1.960
56791W        W29216  11.118  23.349   0.463
56792W        W29217  36.092   5.071  13.824
56793W        W29218  15.836   8.357   4.423
56794W        W29219  23.960  20.545   4.582
56795W        W29220  29.972  16.899   3.216
56796W        W29221  35.991  11.790   1.747
56797W        W29222   4.944  33.995   4.413
56798W        W29223  15.095  11.201   1.117
56799W        W29224   1.917  18.532   3.310
56800W        W29225  40.307  31.590  14.401
56801W        W29226   4.278   4.863  14.605
56802W        W29227  10.864  12.814   4.077
56803W        W29228  35.546  23.464   9.941
56804W        W29229  43.678  21.952  11.251
56805W        W29230   2.465  30.672   3.162
56806W        W29231   3.802  17.157  10.903
56807W        W29232   4.676  27.998   3.332
56808W        W29233  38.891   0.631   0.457
56809W        W29234  43.397  14.893   1.836
56810W        W29235  34.818   6.239   2.771
56811W        W29236  19.984  26.272  12.902
56812W        W29237  31.920  39.734   4.154
56813W        W29238  44.612  12.256   2.771
56814W        W29239  38.547  12.981  11.139
56815W        W29240  23.304  13.285  10.692
56816W        W29241  22.075   0.763  12.360
56817W        W29242  12.667   7.653  11.686
56818W        W29243  42.476  26.153   1.728
56819W        W29244  19.363  32.820  12.339
56820W        W29245  35.103  32.369   2.710
56821W        W29246  35.237  26.650   1.164
56822W        W29247  43.688  42.253   2.334
56823W        W29248  31.625  22.537  13.335
56824W        W29249   3.907   3.806   4.111
56825W        W29250   8.061  36.640   3.257
56826W        W29251  23.949   4.133   0.736
56827W        W29252   8.708   0.398   0.711
56828W        W29253  25.345   1.986  12.465
56829W        W29254   0.220  19.799   1.246
56830W        W29255  42.224  11.122  12.035
56831W        W29256  10.173  40.510   2.695
56832W        W29257  11.857  36.572   3.272
56833W        W29258  27.983  37.338   3.301
56834W        W29259  15.765  19.028  14.357
56835W        W29260  12.906  23.632  13.152
56836W        W29261  43.316  16.796   3.307
56837W        W29262  38.783  19.269  13.510
56838W        W29263  24.187  23.132   4.333
56839W        W29264  11.244  16.026   2.822
56840W        W29265  25.190   2.841  11.343
56841W        W29266  34.310  20.218   1.703
56842W        W29267  43.275  19.043  11.129
56843W        W29268  19.111   4.843  13.406
56844W        W29269  25.503  18.159   0.200
56845W        W29270  18.304  11.662   2.604
56846W        W29271  40.158  38.474  12.829
56847W        W29272  36.208  38.298  11.115
56848W        W29273  42.056  11.740  12.648
56849W        W29274  20.193   3.353   0.310
56850W        W29275  20.758  14.281   1.940
56851W        W29276  44.752   9.416   3.707
56852W        W29277  19.026  25.590  12.182
56853W        W29278   9.923  44.884  13.473
56854W        W29279  23.969   3.742  13.428
56855W        W29280   1.839  14.871   4.072
56856W        W29281  31.773  42.953  11.562
56857W        W29282  40.862  18.366  14.412
56858W        W29283   3.307  25.641   4.479
56859W        W29284  31.478  18.027  10.665
56860W        W29285  29.600  20.988  13.044
56861W        W29286   8.165  37.921   5.799
56862W        W29287  33.890   6.972  13.414
56863W        W29288  23.272  43.842   3.456
56864W        W29289   0.155  36.945   3.151
56865W        W29290  11.571  18.057  14.343
56866W        W29291  37.963   1.224   4.310
56867W        W29292   5.037  15.658  13.291
56868W        W29293  36.026  44.737  10.997
56869W        W29294  40.300  18.695  10.648
56870W        W29295   8.861  26.811  13.701
56871W        W29296  43.756  11.682   4.377
56872W        W29297  11.804   3.490  10.167
56873W        W29298   5.443  37.005   3.838
56874W        W29299  29.809   1.188   0.732
56875W        W29300  11.726   0.169  12.348
56876W        W29301  32.405  31.521  10.903
56877W        W29302  39.010  40.868  13.419
56878W        W29303   5.132  25.952   2.720
56879W        W29304  13.131  30.840   4.521
56880W        W29305  20.754  27.966  14.731
56881W        W29306  17.197  20.560  14.812
56882W        W29307  11.360  37.597  11.106
56883W        W29308  29.076  37.486  12.106
56884W        W29309  41.867  15.764  13.102
56885W        W29310  11.160  38.007   1.939
56886W        W29311   5.663  35.639   1.153
56887W        W29312  10.805  43.951  13.780
56888W        W29313  20.290  24.938   3.222
56889W        W29314   5.679  44.321  11.922
56890W        W29315  25.412  18.570  13.503
56891W        W29316  22.206  19.479   0.258
56892W        W29317  35.886  43.750  11.905
56893W        W29318   5.810  24.171   1.894
56894W        W29319  34.050  41.957   0.668
56895W        W29320  16.172  41.295  10.673
56896W        W29321  28.015  25.709   3.193
56897W        W29322   1.508   4.614  12.067
56898W        W29323  26.146  42.561   0.041
56899W        W29324   9.583  41.716   4.137
56900W        W29325  33.598  38.328   2.219
56901W        W29326  38.982   8.218  14.378
56902W        W29327  40.897  37.222  12.901
56903W        W29328  18.218  33.036   2.275
56904W        W29329   9.300  44.880  14.911
56905W        W29330  29.405  15.660  13.557
56906W        W29331  10.724   5.986   4.242
56907W        W29332  36.147  34.386   3.681
56908W        W29333   0.124  17.279  11.634
56909W        W29334  40.823  10.693  14.501
56910W        W29335  39.099  14.734  11.446
56911W        W29336  17.753  27.928   3.624
56912W        W29337  23.255  10.631   3.678
56913W        W29338  35.777  29.520   0.885
56914W        W29339  14.198   2.207  10.913
56915W        W29340  22.987  32.644  11.592
56916W        W29341   4.897  13.751  11.341
56917W        W29342  26.046  30.816   3.694
56918W        W29343  10.574  16.821  12.948
56919W        W29344  36.525  33.506   1.173
56920W        W29345  39.883  29.617  11.895
56921W        W29346  32.063  19.511  13.100
56922W        W29347   9.157   7.662   1.831
56923W        W29348  39.399  39.421  13.093
56924W        W29349  16.829  31.458   4.613
56925W        W29350  20.145  26.555   1.318
56926W        W29351  10.911   5.538   3.820
56927W        W29352  36.901  33.996   0.823
56928W        W29353  21.218  25.924  10.368
56929W        W29354  42.781  17.669  13.043
56930W        W29355  18.455  15.569  13.840
56931W        W29356   0.823   4.198  11.782
56932W        W29357  34.023  28.654   3.183
56933W        W29358  27.483   0.289  12.746
56934W        W29359  25.162  24.121   4.103
56935W        W29360  28.137  35.159   1.996
56936W        W29361  44.872  43.351   0.140
56937W        W29362  37.315  26.430  10.527
56938W        W29363  17.035  39.895   3.120
56939W        W29364  28.502  39.638   1.194
56940W        W29365  38.011   2.912  12.133
56941W        W29366  35.534  13.948   3.674
56942W        W29367   1.309  37.801   3.760
56943W        W29368  20.947  29.595  12.009
56944W        W29369  12.211   4.663   2.922
56945W        W29370  16.675   2.285   2.201
56946W        W29371   6.904  31.395   1.330
56947W        W29372  37.265  34.429  12.553
56948W        W29373  24.760  32.867   0.169
56949W        W29374  37.041   1.423  13.415
56950W        W29375   4.267  18.048   1.321
56951W        W29376  41.210  27.963  12.694
56952W        W29377  33.795  30.006  14.763
56953W        W29378  16.621   4.800  13.024
56954W        W29379   8.438  15.727   4.483
56955W        W29380  29.210  13.663   4.104
56956W        W29381  39.797   5.471  14.245
56957W        W29382  17.118  32.586   0.545
56958W        W29383  34.473  27.524  11.559
56959W        W29384  21.090  16.009  12.821
56960W        W29385  33.161  37.564   2.316
56961W        W29386  18.062  11.711   4.150
56962W        W29387  25.908  21.797  10.438
56963W        W29388  16.624   7.939  14.049
56964W        W29389  18.753  24.258  13.169
56965W        W29390  19.418  28.505   3.620
56966W        W29391   1.326  44.202  13.325
56967W        W29392   7.391  40.909   0.739
56968W        W29393  39.967  44.248  14.884
56969W        W29394  29.236  18.983   0.701
56970W        W29395  16.223  26.167   0.471
56971W        W29396   1.231  35.871   2.115
56972W        W29397  25.615   4.151  13.787
56973W        W29398  35.620  18.090  12.378
56974W        W29399  20.325  36.018  11.272
56975W        W29400  12.188  35.872  11.544
56976W        W29401  10.351   4.858   1.387
56977W        W29402  33.890  18.814   4.517
56978W        W29403  20.417  30.049   1.544
56979W        W29404  35.120   8.904  12.421
56980W        W29405  19.560   3.340  13.606
56981W        W29406  18.820  35.103  12.019
56982W        W29407  26.292   2.212   4.532
56983W        W29408   1.593  12.690  13.078
56984W        W29409  18.328   8.387  14.404
56985W        W29410   1.280  18.551   4.497
56986W        W29411  39.276  27.721   2.425
56987W        W29412  26.040  40.972  13.095
56988W        W29413  41.799   8.364  14.979
56989W        W29414  20.500  31.385   2.657
56990W        W29415  23.058  42.626   4.273
56991W        W29416  40.449  26.487  12.045
56992W        W29417  15.777  33.648  12.168
56993W        W29418  32.767   6.322   0.675
56994W        W29419  16.520  38.914  10.964
56995W        W29420  37.925  35.584  11.921
56996W        W29421  12.597  34.877   4.358
56997W        W29422  27.088  37.945  10.725
56998W        W29423  22.018   5.139  13.796
56999W        W29424  42.921  44.403   4.091
57000W        W29425   8.119   9.435  13.012
57001W        W29426  19.979  26.557  11.912
57002W        W29427  13.599  37.805  11.555
57003W        W29428  35.063  39.617  14.897
57004W        W29429  35.893  31.643  12.574
57005W        W29430  26.037  19.116   0.869
57006W        W29431  44.916  17.385  12.081
57007W        W29432   1.711   7.254  13.385
57008W        W29433  35.917  15.886  11.552
57009W        W29434  35.984  38.325   1.306
57010W        W29435  23.800  21.150  10.114
57011W        W29436  23.543  22.454   0.302
57012W        W29437  32.462   3.928  11.175
57013W        W29438  31.448   3.610  13.033
57014W        W29439  16.856   0.193   1.894
57015W        W29440  19.262   5.338  13.342
57016W        W29441  14.591  13.328   0.203
57017W        W29442   4.410  41.718  11.491
57018W        W29443   1.205   1.046  11.024
57019W        W29444  32.953   7.412  13.449
57020W        W29445  28.714  38.699   4.471
57021W        W29446   5.111  36.735   2.514
57022W        W29447  33.447  14.158  13.785
57023W        W29448  10.660  39.860  12.084
57024W        W29449  38.673  35.983  11.679
57025W        W29450  17.691  20.583  12.862
57026W        W29451  18.289  31.442   2.125
57027W        W29452  40.275  36.289  14.489
57028W        W29453  23.760  12.321   0.407
57029W        W29454  27.296  10.656  10.693
57030W        W29455  38.008  36.549  12.134
57031W        W29456  34.892   2.457   1.517
57032W        W29457  39.426  20.018  12.867
57033W        W29458  28.517   0.101   4.591
57034W        W29459  26.513  12.706   4.526
57035W        W29460  34.033  24.468  12.571
57036W        W29461   3.826  17.670   4.862
57037W        W29462  14.870  14.189  13.175
57038W        W29463  29.957   2.842  12.693
57039W        W29464  32.651  18.357  13.009
57040W        W29465  40.798  14.052  12.001
57041W        W29466  16.310  23.669   2.546
57042W        W29467  17.884  42.854  13.367
57043W        W29468  20.070  19.563   4.182
57044W        W29469  16.710  13.103   0.213
57045W        W29470  27.908  43.907  13.027
57046W        W29471  26.917   6.426   3.349
57047W        W29472  31.442  28.612   3.599
57048W        W29473   5.289  13.925   3.204
57049W        W29474   1.462   5.235  12.570
57050W        W29475  30.389  15.239  11.070
57051W        W29476  37.951   6.140   2.009
57052W        W29477  38.530  12.843  12.010
57053W        W29478  22.096   0.026  14.795
57054W        W29479  29.962  39.698   4.156
57055W        W29480  23.950  10.258  13.410
57056W        W29481  40.626   5.388   0.791
57057W        W29482   0.727  42.649   1.795
57058W        W29483   7.968  28.527   2.359
57059W        W29484  28.106  32.965  11.118
57060W        W29485   3.159  27.122   4.248
57061W        W29486   9.448  24.115   2.371
57062W        W29487  12.956   5.213   2.741
57063W        W29488   6.105  41.266   3.758
57064W        W29489  26.935  38.497   4.762
57065W        W29490  14.595  38.614   1.732
57066W        W29491  11.620   0.424   0.230
57067W        W29492  40.036   6.105   2.866
57068W        W29493  42.289  22.778  14.883
57069W        W29494  36.808  17.014   4.025
57070W        W29495  37.260  29.433   2.868
57071W        W29496  42.506   5.593  12.054
57072W        W29497  44.890  18.618   4.841
57073W        W29498  10.887  10.720  11.570
57074W        W29499   6.839  37.286   1.771
57075W        W29500  27.107  30.836  13.854
57076W        W29501  19.836  16.732   2.365
57077W        W29502  20.785  38.735   0.822
57078W        W29503  17.217  26.583  10.354
57079W        W29504  25.039  39.896   2.023
57080W        W29505   5.866  25.562   2.622
57081W        W29506  44.695  21.629  11.210
57082W        W29507  22.444  10.340  14.819
57083W        W29508  25.496  11.739   3.135
57084W        W29509   3.634  24.627  13.439
57085W        W29510  27.433   0.486  14.062
57086W        W29511  28.685  41.890  14.913
57087W        W29512  44.092  36.036   3.626
57088W        W29513  29.152   5.734   4.072
57089W        W29514  41.815  40.531  13.982
57090W        W29515  10.260  24.852  12.016
57091W        W29516  26.163  16.889   0.399
57092W        W29517  28.842  31.111  12.972
57093W        W29518  39.073  30.742  11.569
57094W        W29519  37.683  42.834   4.171
57095W        W29520   3.217  28.719   3.340
57096W        W29521   7.465  39.466  13.006
57097W        W29522  42.508  20.034  14.257
57098W        W29523  16.611  31.176  10.202
57099W        W29524  42.760   0.317   4.327
57100W        W29525  14.617  33.842  12.076
57101W        W29526  18.164  22.693  13.069
57102W        W29527  24.293   5.457   4.090
57103W        W29528  40.416  17.016   1.278
57104W        W29529  34.628  26.944   3.200
57105W        W29530  17.899  30.340   5.275
57106W        W29531  11.183  19.606   0.277
57107W        W29532   5.885  23.582  12.571
57108W        W29533   7.464   3.961   4.649
57109W        W29534  35.433   4.679   1.815
57110W        W29535  14.891  38.411   0.391
57111W        W29536  29.905   8.410   2.708
57112W        W29537  27.619  28.962  12.606
57113W        W29538   3.641  26.444  14.522
57114W        W29539   4.506  27.688  14.572
57115W        W29540  27.636   3.369   0.200
57116W        W29541  28.918  30.784  12.494
57117W        W29542   9.874  16.069  10.705
57118W        W29543  14.781  40.842   4.675
57119W        W29544   4.912  21.505  13.454
57120W        W29545  16.126  28.334   1.198
57121W        W29546  29.809  43.152   3.751
57122W        W29547  40.323  31.068  12.874
57123W        W29548  25.596  16.695  12.923
57124W        W29549  37.036  38.406   2.385
57125W        W29550  16.690  29.522   0.523
57126W        W29551  23.506  33.082   3.222
57127W        W29552  32.317  33.937  14.386
57128W        W29553  12.971  37.986   1.967
57129W        W29554   2.043   1.956   1.253
57130W        W29555  43.868   1.821   1.434
57131W        W29556  28.976   7.309  13.597
57132W        W29557  43.420  27.391   0.254
57133W        W29558  11.512  23.920   0.009
57134W        W29559   6.807  42.360   4.622
57135W        W29560  39.522   5.917  11.096
57136W        W29561  44.524   6.963   1.362
57137W        W29562  11.802  39.365  10.825
57138W        W29563   9.681  28.695   2.789
57139W        W29564   8.747  36.155   3.659
57140W        W29565   9.331   3.170  13.467
57141W        W29566   6.697  43.238   2.544
57142W        W29567  22.713  28.040  14.800
57143W        W29568  33.557  42.568   4.386
57144W        W29569  24.339  29.699  13.857
57145W        W29570  20.224  35.324   1.462
57146W        W29571  35.880  38.803   4.617
57147W        W29572  38.045  13.201   2.357
57148W        W29573   2.469  32.511  11.728
57149W        W29574  32.892  28.282  12.935
57150W        W29575  37.497  10.754  14.528
57151W        W29576  33.317   6.061  12.105
57152W        W29577  32.892   3.466  14.838
57153W        W29578  11.372   2.430  12.580
57154W        W29579  34.854  35.342   4.125
57155W        W29580  24.456  30.682  12.814
57156W        W29581   0.893  38.449   4.069
57157W        W29582  35.424  23.755  13.466
57158W        W29583  20.570  23.463   2.743
57159W        W29584  37.896  40.919   4.513
57160W        W29585  20.589  27.926  13.375
57161W        W29586  12.228  31.397  12.188
57162W        W29587  22.601   4.435   3.783
57163W        W29588   5.883   2.071  12.953
57164W        W29589  43.858  23.895   1.010
57165W        W29590   7.888  30.688   2.914
57166W        W29591  15.025  33.101   2.624
57167W        W29592  41.980  34.641   1.517
57168W        W29593  37.300  32.071   1.702
57169W        W29594  24.557  12.606  14.314
57170W        W29595   1.475  14.893   4.475
57171W        W29596  27.169   8.414   0.270
57172W        W29597  12.242  33.992  11.062
57173W        W29598  11.147  21.314   3.426
57174W        W29599  32.853  16.572  12.394
57175W        W29600  12.574   4.262   1.453
57176W        W29601   9.337  32.777   3.194
57177W        W29602   6.967  33.598  13.992
57178W        W29603  28.581  38.274   2.773
57179W        W29604  32.409   4.269  12.029
57180W        W29605  20.855  17.957   2.794
57181W        W29606  17.591  31.830   2.771
57182W        W29607   4.804   8.733  13.402
57183W        W29608  30.526  33.425   4.734
57184W        W29609  18.207  20.212  13.850
57185W        W29610  33.146  22.944   2.670
57186W        W29611  42.047  32.596  13.291
57187W        W29612  44.026  43.275   0.594
57188W        W29613  34.466  26.767   4.529
57189W        W29614  17.051   7.071   9.973
57190W        W29615  13.266  22.942  10.674
57191W        W29616  28.998   8.132  11.833
57192W        W29617   4.452  10.406   2.812
57193W        W29618  26.005  43.360  10.619
57194W        W29619  27.681   7.699  14.710
57195W        W29620  26.923   5.232  13.023
57196W        W29621  34.400   3.641  14.470
57197W        W29622  21.627   2.450   3.082
57198W        W29623   4.382   5.237   2.200
57199W        W29624  37.147   1.716  13.835
57200W        W29625  31.994  25.533   3.756
57201W        W29626  35.946  38.313  14.946
57202W        W29627  33.431  13.302   3.493
57203W        W29628  42.841  43.613   4.639
57204W        W29629  32.503  31.647  12.309
57205W        W29630  11.455  31.648  14.498
57206W        W29631   1.217  13.029   1.766
57207W        W29632   2.700  43.350   1.333
57208W        W29633  40.609  15.389  12.960
57209W        W29634  36.550  22.562   2.993
57210W        W29635  28.999  41.383   4.554
57211W        W29636  43.002   2.011  12.421
57212W        W29637   4.622   5.310  11.663
57213W        W29638   4.203  24.181  13.033
57214W        W29639  38.114  34.103   3.209
57215W        W29640  21.712  15.635   1.450
57216W        W29641  42.157  37.820  11.992
57217W        W29642  41.078  18.017  13.267
57218W        W29643  24.524  36.611   2.691
57219W        W29644  33.166  37.153  14.307
57220W        W29645   9.547   5.731   3.198
57221W        W29646  26.126   3.780   3.836
57222W        W29647  12.764  42.541   3.753
57223W        W29648  21.956  28.050  10.624
57224W        W29649  12.339   7.397   3.510
57225W        W29650  12.891  28.604   2.795
57226W        W29651  17.049  10.110   2.766
57227W        W29652   5.121   4.494   0.226
57228W        W29653  27.506  20.131  12.918
57229W        W29654   1.453  14.532   4.105
57230W        W29655  17.266  20.185  10.941
57231W        W29656  21.822   3.293   3.756
57232W        W29657  22.593  16.415  14.234
57233W        W29658  20.962  20.691   2.275
57234W        W29659  24.946  26.724   3.732
57235W        W29660  39.363  43.805   0.484
57236W        W29661  14.068   8.190   4.515
57237W        W29662  11.730  19.703   3.597
57238W        W29663  24.154  21.941   3.806
57239W        W29664  34.659  34.842   4.081
57240W        W29665  17.117   6.795   2.129
57241W        W29666  36.359   1.666   2.238
57242W        W29667  11.063  38.937   2.253
57243W        W29668   2.768   2.004  11.692
57244W        W29669  42.495   2.910   1.472
57245W        W29670  34.028  28.099  11.967
57246W        W29671  37.017  35.672   2.722
57247W        W29672  25.637   6.437  13.948
57248W        W29673  11.445  15.345   3.240
57249W        W29674  32.428  38.570  12.004
57250W        W29675  10.061  11.712   0.318
57251W        W29676  12.918  41.732   4.990
57252W        W29677  23.533  28.032  12.054
57253W        W29678  11.169  36.914  11.455
57254W        W29679  37.954  25.233  12.361
57255W        W29680  12.841  30.599   4.114
57256W        W29681  21.988  31.710   0.837
57257W        W29682  38.994  25.323   1.748
57258W        W29683   2.858  13.846   4.942
57259W        W29684  17.027  37.935  14.435
57260W        W29685  29.922  27.173  12.595
57261W        W29686  25.064   5.344  13.276
57262W        W29687  43.813  23.083   2.656
57263W        W29688  34.606   9.913   3.201
57264W        W29689  26.657   3.287  11.945
57265W        W29690   8.109  41.487  13.926
57266W        W29691  24.601  34.598   1.403
57267W        W29692  39.557  18.158  12.948
57268W        W29693  38.888  21.659  14.404
57269W        W29694  28.188  32.855   5.198
57270W        W29695  10.595  18.032  11.991
57271W        W29696  44.136  20.181   4.211
57272W        W29697  21.799  25.965   0.367
57273W        W29698  38.883  38.576   3.857
57274W        W29699  39.971  38.888  10.977
57275W        W29700  31.702  41.933   3.528
57276W        W29701  29.607   2.747  12.318
57277W        W29702  23.301  24.545  13.714
57278W        W29703  42.419  17.544  14.385
57279W        W29704   2.757  13.321  14.301
57280W        W29705   3.755  44.347  11.127
57281W        W29706   9.807  31.395  12.836
57282W        W29707  24.021  12.807   3.362
57283W        W29708  22.023  40.020   2.476
57284W        W29709  12.353  11.357   3.161
57285W        W29710  31.256  12.213   0.359
57286W        W29711  28.042   5.926   3.652
57287W        W29712  17.552   1.013  11.913
57288W        W29713  31.974  44.239  11.113
57289W        W29714   3.307  41.755   3.590
57290W        W29715   0.376  38.359   4.202
57291W        W29716  43.775  26.668  13.562
57292W        W29717   6.944  10.243  14.802
57293W        W29718  19.335  43.003   0.918
57294W        W29719  22.950  10.391  14.847
57295W        W29720  26.180  11.599  13.885
57296W        W29721   4.974  19.189   0.275
57297W        W29722  31.894   4.624  13.593
57298W        W29723   2.775  10.795  12.603
57299W        W29724  29.231   1.829  13.856
57300W        W29725  15.742  10.222  12.470
57301W        W29726  14.424  38.064   3.241
57302W        W29727   9.224   1.825   3.320
57303W        W29728  12.094  16.109   4.588
57304W        W29729  24.944  25.597  11.005
57305W        W29730  18.157   3.284  12.953
57306W        W29731  34.364   2.823  12.990
57307W        W29732  44.045  34.720   3.723
57308W        W29733  12.674  14.576  11.417
57309W        W29734  37.863  27.003  12.302
57310W        W29735  36.956  26.734  11.615
57311W        W29736  18.595   2.481  12.126
57312W        W29737  25.910  14.888   0.303
57313W        W29738  37.056  13.280   1.755
57314W        W29739   0.713  42.852  10.149
57315W        W29740  22.567  22.625   3.678
57316W        W29741   6.885  25.744   0.814
57317W        W29742   1.209  14.596   0.932
57318W        W29743  39.798  38.289   2.629
57319W        W29744  41.432  36.988   1.423
57320W        W29745  12.440  25.389  10.490
57321W        W29746  43.854  23.242  10.593
57322W        W29747  38.589   8.822   0.722
57323W        W29748  31.057  18.177   0.021
57324W        W29749  41.324  23.147   4.133
57325W        W29750  41.099  42.911  13.376
57326W        W29751  23.173   3.685   1.481
57327W        W29752   8.408  39.304  13.093
57328W        W29753  31.903   9.983   1.619
57329W        W29754  30.271  42.675   2.836
57330W        W29755  10.297  36.110  14.980
57331W        W29756  18.585  43.424  12.290
57332W        W29757  12.109  41.270   4.532
57333W        W29758  26.179  27.980   0.302
57334W        W29759   4.222  43.870   1.917
57335W        W29760  29.001  24.963  14.906
57336W        W29761   5.236  22.622   4.600
57337W        W29762  41.076   9.849   4.139
57338W        W29763  26.289   6.087  14.227
57339W        W29764  41.747  30.003   2.338
57340W        W29765  40.633  24.344  12.429
57341W        W29766   5.723  40.487  12.148
57342W        W29767  11.232  30.731   0.990
57343W        W29768   3.531  20.671  13.291
57344W        W29769  14.812   2.966   3.236
57345W        W29770  29.547   0.771   4.170
57346W        W29771  28.844   7.738  13.898
57347W        W29772  13.594   5.980   0.391
57348W        W29773  13.718   4.499  12.151
57349W        W29774   8.284   9.966  14.720
57350W        W29775  37.137  25.751   3.792
57351W        W29776  14.075  43.614   1.888
57352W        W29777   6.289   8.427  13.339
57353W        W29778  21.312  34.996   4.198
57354W        W29779  21.062   0.373  10.686
57355W        W29780   8.849  22.030   0.309
57356W        W29781  34.524  17.263   0.318
57357W        W29782   4.913  27.580   2.737
57358W        W29783  10.412  15.347   0.905
57359W        W29784  21.690  26.777  10.735
57360W        W29785  40.463  37.823   0.340
57361W        W29786  32.010  20.516   3.200
57362W        W29787   8.480  14.138  10.183
57363W        W29788  32.523  11.199   2.772
57364W        W29789  33.406  15.750   0.862
57365W        W29790  29.200   0.902  11.932
57366W        W29791  30.735  42.058  10.762
57367W        W29792  32.033  27.125   1.992
57368W        W29793  32.012  40.098  14.820
57369W        W29794  36.259  31.534   3.933
57370W        W29795  11.646  30.844  10.667
57371W        W29796   0.304  40.985   4.738
57372W        W29797  42.960  44.811   1.666
57373W        W29798  11.423   9.234   4.381
57374W        W29799   3.750  16.828   2.299
57375W        W29800  35.058  40.525  14.000
57376W        W29801  13.542  23.104   0.098
57377W        W29802  11.615   7.312  10.968
57378W        W29803  40.027  42.266   4.656
57379W        W29804   6.504   3.282  12.846
57380W        W29805  33.624  37.581   2.594
57381W        W29806  12.147   1.092  12.642
57382W        W29807  13.595  31.396   1.673
57383W        W29808  31.439  12.306  12.232
57384W        W29809  20.511  35.527  14.733
57385W        W29810  25.606   9.862   3.888
57386W        W29811  30.922   9.641  12.948
57387W        W29812  17.740  29.350   2.865
57388W        W29813  39.124  40.996  12.078
57389W        W29814  20.405  42.495   4.175
57390W        W29815  33.638  35.544  13.868
57391W        W29816  27.333  34.968  11.539
57392W        W29817  26.112   3.273   1.598
57393W        W29818   5.395   0.722  14.677
57394W        W29819  12.182  13.884   4.675
57395W        W29820  31.107  44.439   1.679
57396W        W29821  29.866   3.325   0.011
57397W        W29822   0.260  18.778   3.005
57398W        W29823  13.240   8.260  11.623
57399W        W29824  41.562   3.818  13.964
57400W        W29825  30.873  41.287  12.549
57401W        W29826  20.052  11.290  12.800
57402W        W29827  22.487  15.653   2.497
57403W        W29828  17.575  10.856   2.831
57404W        W29829  13.773  28.512   4.605
57405W        W29830  26.008  14.503  11.281
57406W        W29831   2.269  17.349  14.758
57407W        W29832   7.330  17.302  13.966
57408W        W29833  43.285  31.431  13.389
57409W        W29834  35.537   9.628   3.842
57410W        W29835   0.022  38.649   1.163
57411W        W29836  12.220  19.622   1.309
57412W        W29837  25.432  26.249   4.961
57413W        W29838  10.712  33.662   1.313
57414W        W29839  39.054  36.508  13.109
57415W        W29840   0.096   1.206   0.488
57416W        W29841  38.226  34.590   0.023
57417W        W29842  19.095  17.804   4.260
57418W        W29843  36.498   9.143  11.106
57419W        W29844   0.457  11.554   1.178
57420W        W29845  16.199  41.397   2.338
57421W        W29846  39.622  42.585   4.613
57422W        W29847  43.732   7.805   0.836
57423W        W29848  41.622  21.530  12.545
57424W        W29849   2.233   8.856   4.541
57425W        W29850  20.642  32.169   0.899
57426W        W29851  27.549  29.051   3.087
57427W        W29852   5.865  37.844   2.777
57428W        W29853  17.604  38.756  11.254
57429W        W29854   7.430  44.440   3.753
57430W        W29855  10.010  10.765   1.738
57431W        W29856  20.989  37.363   0.856
57432W        W29857  31.977  33.144  10.157
57433W        W29858  27.073  36.138  13.352
57434W        W29859  16.228  37.995  12.108
57435W        W29860  32.567  37.194   4.661
57436W        W29861  18.610  25.744   3.576
57437W        W29862  38.645  19.608   4.582
57438W        W29863   5.479  21.273  11.285
57439W        W29864  35.068  33.106   4.098
57440W        W29865   0.252  27.958  12.437
57441W        W29866  24.189   8.257   4.676
57442W        W29867  12.475  36.663  14.975
57443W        W29868   1.200   2.748  14.777
57444W        W29869  31.529  18.618  14.622
57445W        W29870  27.697  11.107   3.214
57446W        W29871  26.580  15.806  14.091
57447W        W29872   2.357  31.449  10.727
57448W        W29873  33.135  42.399  14.818
57449W        W29874  12.655  24.332   3.682
57450W        W29875  18.961  29.615   3.234
57451W        W29876  35.321  30.580   2.738
57452W        W29877  41.294   5.716  13.969
57453W        W29878   8.267  31.660   0.023
57454W        W29879  21.118  20.160   0.932
57455W        W29880   3.674  37.714   2.344
57456W        W29881  18.061  42.373  10.690
57457W        W29882  10.235  38.039  12.421
57458W        W29883  29.040   1.649  14.300
57459W        W29884  24.797  14.149   2.288
57460W        W29885  21.493  41.030  13.652
57461W        W29886  18.907   2.765   3.881
57462W        W29887  16.612   3.529   4.480
57463W        W29888  28.075  29.962   0.844
57464W        W29889   2.041  40.336  11.482
57465W        W29890   7.169   9.837   4.098
57466W        W29891   8.803  33.437  10.579
57467W        W29892   5.375  18.740   0.919
57468W        W29893  21.133  10.765  11.122
57469W        W29894  38.502  40.408  14.522
57470W        W29895  20.163  26.673   4.302
57471W        W29896   4.529  12.783   0.868
57472W        W29897  19.084   4.264   1.722
57473W        W29898  16.321  31.880   1.380
57474W        W29899  22.512  26.860  11.493
57475W        W29900  24.031  10.898   1.690
57476W        W29901  29.519  23.987  11.019
57477W        W29902  22.046  20.507  10.640
57478W        W29903  10.167  36.170  12.465
57479W        W29904  18.456  36.100   0.282
57480W        W29905  12.717   5.149   0.979
57481W        W29906  21.659  34.873  12.500
57482W        W29907  13.088  36.626  11.945
57483W        W29908  25.535  42.226   2.253
57484W        W29909  38.042  17.806   0.391
57485W        W29910  32.222  41.879  10.684
57486W        W29911  11.752  27.025   1.310
57487W        W29912   2.755  31.526   4.121
57488W        W29913   0.160  13.018  12.710
57489W        W29914  33.234  27.940   0.240
57490W        W29915  25.251  23.562  11.601
57491W        W29916  14.407  41.983  14.355
57492W        W29917  15.661  35.998   4.645
57493W        W29918  26.165  23.179  12.870
57494W        W29919   6.478  21.631   3.319
57495W        W29920  24.197   0.841  13.869
57496W        W29921  36.494  10.311   1.207
57497W        W29922  27.742   9.278  11.771
57498W        W29923  17.507  19.648   0.843
57499W        W29924   5.403  19.209   4.121
57500W        W29925   8.785  25.799   2.934
57501W        W29926   5.441  25.806   0.818
57502W        W29927  30.034  34.073   3.910
57503W        W29928   0.907  16.400   3.620
57504W        W29929  17.587  11.688   3.875
57505W        W29930  38.051  35.370   0.401
57506W        W29931  32.504  20.972   4.148
57507W        W29932   7.147  30.287   2.822
57508W        W29933   2.884  20.025   3.378
57509W        W29934  14.040  42.132  13.972
57510W        W29935  34.051   0.302  11.559
57511W        W29936  36.918  26.320   0.771
57512W        W29937   9.524  12.886   1.700
57513W        W29938   2.489  26.273  12.942
57514W        W29939   7.755  24.985   4.461
57515W        W29940  29.297  32.527   1.957
57516W        W29941  10.893   0.828   2.753
57517W        W29942  19.030  13.066  13.540
57518W        W29943  23.170   0.819  13.949
57519W        W29944  22.533  26.567   0.923
57520W        W29945   3.418   2.674   2.628
57521W        W29946  28.871  33.889   0.570
57522W        W29947  13.177  10.623  14.255
57523W        W29948  21.137  11.770  10.429
57524W        W29949  19.987  26.387   2.746
57525W        W29950  20.479  15.250  11.945
57526W        W29951  43.830  23.295   1.802
57527W        W29952   5.363  11.696   2.246
57528W        W29953  41.562  16.547   4.211
57529W        W29954  26.607  33.452  12.664
57530W        W29955  29.251   6.152  12.536
57531W        W29956  20.441  29.971  12.668
57532W        W29957   7.310   2.346   1.986
57533W        W29958   8.421  40.864   2.333
57534W        W29959  26.636  42.037   1.504
57535W        W29960  37.700  16.195  13.635
57536W        W29961   4.931  13.214  14.716
57537W        W29962  37.464  40.795   4.861
57538W        W29963   8.397  23.183   1.077
57539W        W29964  43.507  30.502   5.117
57540W        W29965  39.446  14.206   3.233
57541W        W29966  21.607  38.114   0.992
57542W        W29967  25.585  43.705  14.805
57543W        W29968   1.725  42.467   1.809
57544W        W29969  20.954  25.417   4.136
57545W        W29970  13.142  41.013   0.172
57546W        W29971   9.853  14.355   5.057
57547W        W29972  18.752  36.545   0.270
57548W        W29973  28.662   1.390  14.799
57549W        W29974  12.526  38.116   1.753
57550W        W29975   1.015  31.351  12.995
57551W        W29976  18.851  10.718  13.377
57552W        W29977  15.014  39.086   3.491
57553W        W29978  25.976  26.200   4.763
57554W        W29979  36.374  14.346  10.718
57555W        W29980  11.372  16.959  13.356
57556W        W29981  31.511  23.564   4.113
57557W        W29982  26.569  19.781   1.470
57558W        W29983   8.524  31.171  12.960
57559W        W29984  21.257  20.075  10.950
57560W        W29985  44.779   2.696  11.072
57561W        W29986  10.607  30.620  10.953
57562W        W29987   1.933  44.984  12.250
57563W        W29988   8.430  15.708  10.675
57564W        W29989   0.576  35.003  14.195
57565W        W29990  26.814  30.900  14.348
57566W        W29991  35.527  37.955   1.816
57567W        W29992   3.479  11.670   0.771
57568W        W29993  10.135  33.423   3.895
57569W        W29994  24.659   3.012  12.004
57570W        W29995  33.999  18.688  13.205
57571W        W29996  12.980  42.327  12.158
57572W        W29997  30.479  18.753  13.432
57573W        W29998  22.966  10.520  10.589
57574W        W29999  21.404  33.479  13.510
57575W        W30000  15.295  41.454   2.887
57576W        W30001  27.522  44.534   4.576
57577W        W30002   5.885  34.187   0.298
57578W        W30003  35.364  33.679   2.820
57579W        W30004  23.643   4.430   4.575
57580W        W30005   0.544  20.005  13.906
57581W        W30006  17.837  17.149   4.121
57582W        W30007  14.880  36.367  14.328
57583W        W30008  19.099   1.816   0.470
57584W        W30009  21.725   6.758   0.664
57585W        W30010  11.270  42.570  11.568
57586W        W30011  17.343  40.483  10.727
57587W        W30012  10.827  35.320  12.482
57588W        W30013  34.484  20.453  11.421
57589W        W30014  32.583  42.410  12.828
57590W        W30015   3.298  43.772  13.489
57591W        W30016  38.523  25.720   2.760
57592W        W30017  20.258   2.976  12.002
57593W        W30018   0.716  11.336   2.933
57594W        W30019  30.073  21.730   1.650
57595W        W30020  17.019   6.386   3.272
57596W        W30021  21.813   4.011  12.373
57597W        W30022  18.226  44.269   1.801
57598W        W30023  11.632  35.398  11.116
57599W        W30024  11.211  12.329   2.312
57600W        W30025  32.781  40.052   3.814
57601W        W30026  14.929  40.970  10.737
57602W        W30027  18.687  27.560  12.852
57603W        W30028  40.437  14.632  14.509
57604W        W30029  12.105  15.170  13.263
57605W        W30030  18.613  30.156   0.524
57606W        W30031  27.879  19.880   2.791
57607W        W30032  27.054  25.531  13.301
57608W        W30033  22.612  10.867  12.486
57609W        W30034  26.789  13.343   2.259
57610W        W30035  34.985  10.381   2.015
57611W        W30036  44.675  38.861  13.023
57612W        W30037  18.142  23.498   0.944
57613W        W30038  20.764  42.549   2.892
57614W        W30039  14.237  21.822  13.898
57615W        W30040  21.194   4.671  13.220
57616W        W30041  29.474  17.612   1.845
57617W        W30042  28.997  17.693  12.022
57618W        W30043   0.900  41.007  14.288
57619W        W30044  38.237  29.069  13.249
57620W        W30045  40.688  16.695  12.597
57621W        W30046  24.837  43.892  12.555
57622W        W30047  39.973  19.048   4.511
57623W        W30048  31.193  40.793  12.723
57624W        W30049   2.403  37.312  11.902
57625W        W30050  19.637  26.950  10.257
57626W        W30051   4.204  12.548   3.902
57627W        W30052  17.688  18.288  13.427
57628W        W30053  35.549   6.156  11.299
57629W        W30054  24.075  33.523  13.890
57630W        W30055  23.763  28.081  12.509
57631W        W30056  18.174  32.824   1.789
57632W        W30057   4.511  17.172   2.678
57633W        W30058  33.920   5.462  13.372
57634W        W30059  13.781  42.423   4.431
57635W        W30060  39.363  17.536  11.537
57636W        W30061  38.060   6.394  13.058
57637W        W30062   5.641  29.834   0.876
57638W        W30063  25.389  16.482   4.774
57639W        W30064  10.887   6.181  14.341
57640W        W30065  31.389  26.474   4.128
57641W        W30066  25.952   5.361  14.807
57642W        W30067  30.640  38.321   1.863
57643W        W30068   4.260   2.397   0.416
57644W        W30069  23.121  31.966   0.746
57645W        W30070   0.804   8.233   0.359
57646W        W30071  30.580  16.621   1.746
57647W        W30072  26.386  19.606  10.651
57648W        W30073  29.263  42.960  12.511
57649W        W30074  24.317  10.635   0.784
57650W        W30075  15.133   1.165   2.135
57651W        W30076   2.742   0.127   4.338
57652W        W30077  15.336  32.447  11.080
57653W        W30078   1.709  43.986  10.841
57654W        W30079  40.803  27.878  11.451
57655W        W30080   6.845   1.371  11.071
57656W        W30081  36.484   9.200   3.532
57657W        W30082  30.446  12.208   2.592
57658W        W30083  42.408  32.248   0.475
57659W        W30084  15.874  26.419  13.692
57660W        W30085  22.149  15.955   0.531
57661W        W30086  10.175   2.342  14.074
57662W        W30087  26.230  35.539   2.712
57663W        W30088  33.438   5.202   2.160
57664W        W30089   2.965  15.099  14.908
57665W        W30090  37.705  10.216   4.480
57666W        W30091  32.347   0.725   3.821
57667W        W30092  19.978   6.776   0.692
57668W        W30093  26.445  33.928   4.516
57669W        W30094   3.276   3.768  14.449
57670W        W30095  10.362  16.167  14.775
57671W        W30096  14.556  43.940   2.385
57672W        W30097  23.256   9.936   1.498
57673W        W30098  10.225  24.941   3.276
57674W        W30099  35.868  37.003  11.969
57675W        W30100  11.619  26.628  12.008
57676W        W30101  42.751  13.652   1.718
57677W        W30102  20.478  22.518  10.627
57678W        W30103  41.765  38.833   0.248
57679W        W30104  21.725  42.227  11.487
57680W        W30105   6.128  20.675   0.920
57681W        W30106   2.017  31.017  11.161
57682W        W30107  17.068  39.816  12.532
57683W        W30108  10.314   3.308   1.275
57684W        W30109  19.328  41.879  11.122
57685W        W30110  21.333  38.074   4.931
57686W        W30111  10.741  11.374  14.712
57687W        W30112  29.558  15.101   1.914
57688W        W30113  35.392  39.003   4.742
57689W        W30114  14.940   2.778   1.879
57690W        W30115  42.477   5.887   1.389
57691W        W30116  36.008  32.274   0.518
57692W        W30117  29.927   0.571  13.593
57693W        W30118  23.141   8.104  11.775
57694W        W30119   4.811  18.553  12.908
57695W        W30120  17.322   6.213   1.347
57696W        W30121  15.008   8.668  13.936
57697W        W30122  44.727  19.709   2.139
57698W        W30123   0.723  39.838   2.156
57699W        W30124  42.421   9.840   3.414
57700W        W30125  25.093  30.043   0.355
57701W        W30126  34.076   0.331  10.644
57702W        W30127   3.453  29.574  14.278
57703W        W30128  26.219   7.955   3.320
57704W        W30129  23.773   5.306  10.989
57705W        W30130   0.358   9.613   4.339
57706W        W30131  23.746   9.071   3.355
57707W        W30132  32.419   0.646  11.128
57708W        W30133  26.919  19.565  11.428
57709W        W30134  26.568  32.639   3.343
57710W        W30135  33.083  28.004   4.644
57711W        W30136   2.344  19.077   1.785
57712W        W30137  23.224  12.670   3.997
57713W        W30138  16.039   9.828   0.850
57714W        W30139  17.104  39.470   4.665
57715W        W30140  12.179  44.810  11.693
57716W        W30141   9.896  40.443   1.718
57717W        W30142   9.787  27.694  11.955
57718W        W30143  14.382   7.380   4.160
57719W        W30144   9.225  10.279   0.776
57720W        W30145   9.079  14.732   0.070
57721W        W30146  23.508   8.594   3.157
57722W        W30147  38.822  16.734   3.651
57723W        W30148   4.650   4.660   2.960
57724W        W30149  18.050  12.456   3.110
57725W        W30150  33.351  33.981  13.577
57726W        W30151  43.198  31.395   2.696
57727W        W30152  40.554  42.748  12.505
57728W        W30153  23.508   6.649   4.102
57729W        W30154  22.052   6.321   2.710
57730W        W30155   4.772  25.320  10.464
57731W        W30156   0.746   9.878  12.995
57732W        W30157  42.291   1.639   3.488
57733W        W30158   0.457  17.494   3.201
57734W        W30159  11.685   7.908   5.339
57735W        W30160  24.117   7.239   2.194
57736W        W30161  21.678   0.902   1.421
57737W        W30162   1.285  39.215   0.235
57738W        W30163  18.317  35.993   1.423
57739W        W30164   4.297  29.115  14.149
57740W        W30165   5.332  32.401  11.026
57741W        W30166  31.409  12.797  10.376
57742W        W30167  20.145   5.289   0.849
57743W        W30168   1.268  30.143   4.008
57744W        W30169  11.407   6.284  14.357
57745W        W30170  25.862  37.426  13.600
57746W        W30171  17.037  44.012  13.983
57747W        W30172   3.466  30.641  13.116
57748W        W30173  42.016   9.664  14.394
57749W        W30174  23.968  43.739   1.790
57750W        W30175  23.202   9.148   4.739
57751W        W30176   7.698  42.346  13.623
57752W        W30177  44.701  21.274  14.556
57753W        W30178  15.700  26.213   2.919
57754W        W30179   4.801  39.316   0.829
57755W        W30180  34.003   9.798  14.025
57756W        W30181   5.403  30.943   2.227
57757W        W30182  24.195  27.322   0.802
57758W        W30183   6.987  16.120  14.363
57759W        W30184  39.770  31.451   2.769
57760W        W30185  22.719  34.144  13.499
57761W        W30186  10.087  36.727  10.063
57762W        W30187   3.005   5.207   1.237
57763W        W30188   6.844  40.467  10.940
57764W        W30189  17.159  30.647   4.959
57765W        W30190  33.653   9.831  12.121
57766W        W30191  18.611  35.597  12.072
57767W        W30192   8.126  14.483  11.107
57768W        W30193  11.647  38.273  12.433
57769W        W30194   3.370   0.044   1.423
57770W        W30195  11.844   8.343  12.365
57771W        W30196   3.348  18.242  14.160
57772W        W30197  37.580   9.896   2.273
57773W        W30198  43.928  10.813   2.165
57774W        W30199  34.403   4.356  14.993
57775W        W30200  30.603  27.127   3.358
57776W        W30201  18.304  33.870   3.912
57777W        W30202   8.430   1.816  13.440
57778W        W30203  43.828  21.663   2.552
57779W        W30204  15.872  43.975  13.493
57780W        W30205  21.465  10.085  14.785
57781W        W30206   4.866  42.292  12.236
57782W        W30207   7.676  17.154  14.798
57783W        W30208   3.789  27.500   3.413
57784W        W30209  19.087  39.992  11.528
57785W        W30210   7.002  34.014  11.495
57786W        W30211   0.994   5.254   3.843
57787W        W30212  26.618  35.139  13.852
57788W        W30213  11.590  15.530   2.215
57789W        W30214  18.803  37.385  13.915
57790W        W30215  16.638   9.946  14.993
57791W        W30216  10.729  27.951   1.420
57792W        W30217  29.388  14.380   5.135
57793W        W30218  20.234   9.094   1.122
57794W        W30219   6.741   1.106   3.881
57795W        W30220  28.706  25.199   4.192
57796W        W30221  43.810  29.667   0.989
57797W        W30222   5.582  42.767   4.946
57798W        W30223  37.358  23.924  14.428
57799W        W30224  19.281  36.858   3.507
57800W        W30225  10.227  30.198   0.887
57801W        W30226  32.169  16.239   3.715
57802W        W30227  28.415  13.822  13.471
57803W        W30228  29.357  42.916   3.675
57804W        W30229  19.643  33.098  11.422
57805W        W30230   6.844   7.666  12.615
57806W        W30231  10.566  40.795  14.025
57807W        W30232  25.946  14.673   4.586
57808W        W30233  28.961  16.833  14.364
57809W        W30234   2.372  24.006  14.412
57810W        W30235  21.154  24.490   3.895
57811W        W30236  28.884  34.959  11.620
57812W        W30237  43.319   8.766  13.599
57813W        W30238  36.702   2.872   1.406
57814W        W30239  40.423  19.084   1.503
57815W        W30240  31.022   5.687  12.418
57816W        W30241  11.849   1.408   2.005
57817W        W30242  43.388  20.827   1.064
57818W        W30243  43.390  24.031   3.589
57819W        W30244  42.576   2.945  12.465
57820W        W30245  17.122  36.403  10.697
57821W        W30246  34.001  34.433  13.971
57822W        W30247  24.188  39.778   2.567
57823W        W30248  29.495  39.039   3.301
57824W        W30249  19.990  42.505  14.719
57825W        W30250  36.488  18.263  13.811
57826W        W30251  11.381  39.812   2.345
57827W        W30252  15.891  20.485  13.138
57828W        W30253  39.819  29.112  12.026
57829W        W30254  38.318   4.137   4.881
57830W        W30255  16.638  13.999   3.348
57831W        W30256  18.044  36.924   2.723
57832W        W30257  33.425  25.786  14.945
57833W        W30258   9.541  21.650  11.604
57834W        W30259  15.768  26.271  11.467
57835W        W30260  27.524  37.657   3.811
57836W        W30261  23.344  16.328  12.120
57837W        W30262  42.474  40.987  10.551
57838W        W30263  27.356  27.914  11.508
57839W        W30264   8.123  14.199  11.545
57840W        W30265  31.664  15.892  10.274
57841W        W30266   5.566  15.844   3.805
57842W        W30267   9.696  22.780   0.811
57843W        W30268  26.025  26.024   3.740
57844W        W30269  43.562  34.358  11.051
57845W        W30270  22.376  44.228  14.477
57846W        W30271   2.366  42.064  14.336
57847W        W30272  26.491  13.114   4.139
57848W        W30273  33.668   0.775  11.201
57849W        W30274  23.979  20.554   0.569
57850W        W30275  19.855  29.535  11.127
57851W        W30276  35.382  40.505   2.411
57852W        W30277  11.634   7.190   0.282
57853W        W30278  12.191  27.938   4.685
57854W        W30279  19.019  26.702   2.859
57855W        W30280  38.834  23.967   5.061
57856W        W30281   0.352  21.397  13.997
57857W        W30282  10.006  27.521   4.103
57858W        W30283  30.697   5.683  13.535
57859W        W30284  21.232  30.374   2.768
57860W        W30285   5.692  43.512   2.885
57861W        W30286   9.697  10.009   0.037
57862W        W30287  34.402  28.709   0.043
57863W        W30288  20.629   3.000   0.137
57864W        W30289  19.302  10.663   3.839
57865W        W30290  18.287  10.305   0.301
57866W        W30291  13.636  10.219   3.341
57867W        W30292   4.915  29.490   4.497
57868W        W30293   0.679  32.685   2.415
57869W        W30294  12.081  26.715  11.229
57870W        W30295  25.278  12.328   0.687
57871W        W30296  28.474   3.738  11.488
57872W        W30297  40.184  40.297  13.591
57873W        W30298  21.526  31.439   0.989
57874W        W30299  22.001   7.231   2.405
57875W        W30300  29.991  13.372   4.588
57876W        W30301  19.107  27.223  11.600
57877W        W30302  22.582  41.541   5.065
57878W        W30303  28.896  31.520  12.349
57879W        W30304   5.735  17.036  11.543
57880W        W30305   4.306   6.827   3.747
57881W        W30306  39.891  31.994   3.598
57882W        W30307  34.538  19.303  14.038
57883W        W30308  30.410  15.998   9.922
57884W        W30309  43.480  31.599   3.126
57885W        W30310  16.086   9.143  14.394
57886W        W30311  30.528  22.966  13.946
57887W        W30312  31.935   5.734  10.771
57888W        W30313   0.338   3.162  12.819
57889W        W30314  31.192  14.200   4.624
57890W        W30315  32.090  18.816  11.907
57891W        W30316  37.368  13.322  11.582
57892W        W30317  37.366   7.124   0.263
57893W        W30318  21.270  16.398   0.907
57894W        W30319  27.746   6.848  13.468
57895W        W30320  26.669   1.766  12.558
57896W        W30321  33.099  33.154  11.538
57897W        W30322   0.403  22.987   3.830
57898W        W30323  12.290  41.534   4.106
57899W        W30324  14.648  28.945   3.632
57900W        W30325   1.304  36.826   1.362
57901W        W30326  38.586  38.034  11.571
57902W        W30327   5.783  34.582   3.400
57903W        W30328   2.250  17.288   1.450
57904W        W30329  41.110   6.838  11.285
57905W        W30330   4.398  24.550  11.533
57906W        W30331  31.859  26.372  13.486
57907W        W30332  28.608  38.572  11.945
57908W        W30333  20.273  43.721   2.275
57909W        W30334  27.197  28.469  13.982
57910W        W30335  31.055  18.310  10.732
57911W        W30336  14.893  23.643  13.609
57912W        W30337  21.564  33.347  10.769
57913W        W30338  34.572  35.523  12.792
57914W        W30339   2.817  25.292   1.462
57915W        W30340  28.524  23.514  11.220
57916W        W30341  33.591  32.491  14.769
57917W        W30342   5.592  37.482  11.151
57918W        W30343  35.850  13.255  12.527
57919W        W30344   4.648  28.605  11.023
57920W        W30345  30.592   1.075   1.338
57921W        W30346  32.902  24.699  11.602
57922W        W30347  39.849  32.878   3.591
57923W        W30348  30.179   9.526   2.333
57924W        W30349   4.130   4.162  13.899
57925W        W30350  13.202   1.913   3.469
57926W        W30351  22.715   3.794  10.935
57927W        W30352  20.866  26.668  11.969
57928W        W30353  11.604   8.612  14.411
57929W        W30354  40.904  12.901   1.335
57930W        W30355  10.944  31.925  11.593
57931W        W30356  22.779  41.873  11.239
57932W        W30357  43.428  41.013   0.372
57933W        W30358   5.430  10.099   4.131
57934W        W30359  28.007  35.347  11.947
57935W        W30360  39.505   6.950  14.078
57936W        W30361  19.634  24.752  10.706
57937W        W30362   3.627  26.930   4.160
57938W        W30363   3.945  39.443  11.349
57939W        W30364   3.349  20.544  14.193
57940W        W30365  13.643  34.453   1.981
57941W        W30366   2.696  15.101   1.721
57942W        W30367  16.554  19.660  10.385
57943W        W30368   2.524  37.720   3.174
57944W        W30369  17.678  28.032  14.404
57945W        W30370  32.144  35.606  14.315
57946W        W30371  44.513  33.132   4.110
57947W        W30372   3.977  19.062   1.757
57948W        W30373   8.662  15.544   2.629
57949W        W30374  10.569  12.042   0.367
57950W        W30375  20.341  19.998  10.754
57951W        W30376  25.839  10.410  13.249
57952W        W30377   6.463  18.104   4.178
57953W        W30378  13.519  32.953   1.606
57954W        W30379  44.811  33.311   3.147
57955W        W30380  35.553   6.893  10.535
57956W        W30381  23.288  28.709   3.781
57957W        W30382   9.787  39.521   0.517
57958W        W30383   8.559  19.222   3.134
57959W        W30384  43.027   4.456  11.566
57960W        W30385  17.619  21.055   0.888
57961W        W30386  30.661  14.720  13.436
57962W        W30387  43.810  28.367  13.519
57963W        W30388  35.174  23.487   4.578
57964W        W30389   5.954  31.444  10.687
57965W        W30390  19.769  28.076   4.433
57966W        W30391   6.077  19.750   3.097
57967W        W30392  18.044  14.713  12.861
57968W        W30393  32.027  10.805  10.705
57969W        W30394  24.008  35.358   1.333
57970W        W30395  27.668  22.756   4.283
57971W        W30396  15.138  15.265   4.175
57972W        W30397  21.170  39.413   3.801
57973W        W30398  27.639  29.702  10.860
57974W        W30399  23.799  21.002   1.233
57975W        W30400  31.453   6.130   0.470
57976W        W30401  35.660  17.951  11.884
57977W        W30402   9.875  28.536  13.436
57978W        W30403   0.733  33.400  13.841
57979W        W30404  28.199  19.019   2.842
57980W        W30405  16.959   3.433   4.916
57981W        W30406  17.166  15.631  11.649
57982W        W30407   1.354  35.534  11.215
57983W        W30408   6.155  22.750  11.713
57984W        W30409  23.089   5.829   3.777
57985W        W30410  38.463  40.916  12.889
57986W        W30411  15.864  29.203  12.863
57987W        W30412  18.397  22.174  11.860
57988W        W30413  18.697  15.520  11.960
57989W        W30414  43.592   2.365   0.565
57990W        W30415  40.941   3.010   1.897
57991W        W30416  40.760  36.541  14.366
57992W        W30417  32.594  43.431   2.639
57993W        W30418  42.112  42.859  11.133
57994W        W30419  36.582   0.672   2.430
57995W        W30420  36.969  41.944  14.960
57996W        W30421   0.426  38.258  11.102
57997W        W30422  39.824   0.997   0.421
57998W        W30423  37.069   9.811   3.071
57999W        W30424  29.571  43.859  14.447
58000W        W30425   0.347   9.623   4.865
58001W        W30426  31.544  26.232   1.688
58002W        W30427  44.471  40.415   1.225
58003W        W30428  42.781  28.226   1.412
58004W        W30429   3.217  19.072   0.213
58005W        W30430  22.131  39.508   0.294
58006W        W30431  37.324  13.415  12.441
58007W        W30432  30.202  42.097   1.830
58008W        W30433   7.417   0.566  13.930
58009W        W30434  26.426  17.348   4.121
58010W        W30435  31.524   2.813   3.941
58011W        W30436  37.437  43.204  13.768
58012W        W30437  43.815  23.743  13.897
58013W        W30438  28.230  42.735  14.074
58014W        W30439  18.386   2.853  14.453
58015W        W30440  20.345   5.452  12.101
58016W        W30441  37.304  17.212  12.944
58017W        W30442  27.440   0.485  11.005
58018W        W30443  29.924  13.363   3.134
58019W        W30444  22.075  23.626   4.650
58020W        W30445  28.410   6.222  13.105
58021W        W30446  31.502   9.908   2.335
58022W        W30447   7.259  18.761   0.252
58023W        W30448   2.515  11.584  13.278
58024W        W30449  41.784  11.563   0.902
58025W        W30450  25.213  29.084   3.253
58026W        W30451  43.004  10.753  12.023
58027W        W30452  41.150  34.169   0.491
58028W        W30453  30.566  17.497   4.658
58029W        W30454  23.451  15.417  13.542
58030W        W30455  16.756  15.558  11.060
58031W        W30456  24.658  35.867   0.975
58032W        W30457  17.904  15.286   0.006
58033W        W30458  15.573  10.924   4.145
58034W        W30459  34.917  11.887  13.347
58035W        W30460  34.606   3.861   2.274
58036W        W30461   7.825  20.918  12.399
58037W        W30462  34.123  26.063  13.085
58038W        W30463  13.213  38.785   0.319
58039W        W30464  24.555   9.134  13.847
58040W        W30465   5.827   5.302  14.466
58041W        W30466  16.111  37.865   2.207
58042W        W30467   8.119   0.037  13.954
58043W        W30468  41.152  31.026   1.273
58044W        W30469  28.510   8.747   0.621
58045W        W30470  37.965  28.523   2.271
58046W        W30471  29.512  41.028  10.379
58047W        W30472   5.563  35.140   0.023
58048W        W30473  36.469  43.273   3.859
58049W        W30474  18.000  22.566  12.571
58050W        W30475   6.187  13.002  10.759
58051W        W30476  13.912   6.239   3.117
58052W        W30477  29.942  18.483   0.752
58053W        W30478  43.904   8.595   2.610
58054W        W30479  44.286  42.739   3.132
58055W        W30480  30.697  41.158  12.056
58056W        W30481  38.918   9.860  13.983
58057W        W30482  12.918  35.169  12.525
58058W        W30483  32.113  39.209  13.250
58059W        W30484  24.461  10.548   2.364
58060W        W30485  40.392  17.144   2.731
58061W        W30486   6.774  41.358  13.494
58062W        W30487  32.075  43.939   4.797
58063W        W30488   4.633  29.111  11.210
58064W        W30489  12.087  33.430  10.409
58065W        W30490  11.945   5.475  11.555
58066W        W30491   2.705  21.683   3.635
58067W        W30492  33.921  21.292   1.477
58068W        W30493  30.718  34.431  11.389
58069W        W30494  25.893  28.327  11.143
58070W        W30495   3.348  16.823   3.682
58071W        W30496  42.382  14.861   3.680
58072W        W30497  34.858  41.337  10.741
58073W        W30498   1.289  15.272  13.472
58074W        W30499  44.454  33.901  11.839
58075W        W30500   5.243  43.974   1.732
58076W        W30501  10.681  21.186   3.180
58077W        W30502   5.334  43.208   2.359
58078W        W30503  30.969  12.071  10.716
58079W        W30504   0.944  26.058  13.546
58080W        W30505  25.139  20.654  12.057
58081W        W30506  17.124  39.822  10.368
58082W        W30507  28.099   2.653  10.998
58083W        W30508   1.903  21.894   1.930
58084W        W30509  35.041  41.089  13.993
58085W        W30510  25.774  22.074   3.619
58086W        W30511  21.506  23.042   4.228
58087W        W30512  26.809  40.852  12.057
58088W        W30513  38.851   2.129   3.290
58089W        W30514  31.323   1.439   2.949
58090W        W30515  24.098   8.160   0.950
58091W        W30516  44.733  39.053   2.704
58092W        W30517  42.969  33.334  12.943
58093W        W30518  43.324  41.303  10.784
58094W        W30519  14.301  11.628  10.665
58095W        W30520  37.293  20.286  12.433
58096W        W30521  17.769  22.152   4.405
58097W        W30522  24.700  10.956   9.401
58098W        W30523  30.907  12.383   2.469
58099W        W30524  40.739   5.685  13.959
58100W        W30525  20.237  21.545  10.633
58101W        W30526   8.843  37.351   5.491
58102W        W30527  34.463  44.777  10.801
58103W        W30528  14.222  26.686   3.373
58104W        W30529  26.486  14.163  12.937
58105W        W30530  11.307   5.786   3.570
58106W        W30531   9.345  36.534  11.496
58107W        W30532  21.086   1.186  14.052
58108W        W30533  14.898   7.313   0.010
58109W        W30534  23.238   8.416   0.862
58110W        W30535  36.363  42.512  13.372
58111W        W30536  11.618   5.444   3.280
58112W        W30537  37.412   1.458  12.602
58113W        W30538   8.811  35.853   4.097
58114W        W30539  26.119  38.611  14.141
58115W        W30540  30.340  25.172   1.396
58116W        W30541   6.060  22.881   1.213
58117W        W30542  25.913  42.826  13.449
58118W        W30543   3.258  11.779  13.803
58119W        W30544  20.779  22.272   4.716
58120W        W30545  38.726  11.165   3.757
58121W        W30546  14.352   5.346   1.215
58122W        W30547   4.981  16.168  10.495
58123W        W30548   3.427  14.861  13.900
58124W        W30549  33.421  30.228   0.390
58125W        W30550  19.498   9.264  12.968
58126W        W30551   9.008  20.448   2.372
58127W        W30552  21.960  31.450   2.994
58128W        W30553  35.723  25.967   3.319
58129W        W30554   1.829  40.098  11.084
58130W        W30555   5.770  24.956  12.901
58131W        W30556  11.900  23.477  12.867
58132W        W30557  10.238  37.878   4.530
58133W        W30558  38.828  22.727   5.045
58134W        W30559  42.492   4.890  10.767
58135W        W30560   7.761  12.611   0.822
58136W        W30561  15.997  32.698  11.617
58137W        W30562   7.236   5.286   2.241
58138W        W30563  32.572  28.574  10.634
58139W        W30564  33.982  24.732  13.012
58140W        W30565  10.028   2.067  11.125
58141W        W30566   9.822  40.593  11.185
58142W        W30567  27.570  11.387   1.856
58143W        W30568  11.774  30.442   2.361
58144W        W30569  25.976  15.795  13.220
58145W        W30570   3.879  34.494  14.802
58146W        W30571  44.725  34.529  12.423
58147W        W30572  39.419   9.750   2.213
58148W        W30573  37.950  24.755  11.071
58149W        W30574  38.427  22.261   2.213
58150W        W30575  38.075  32.172   1.468
58151W        W30576  19.114   8.469   0.501
58152W        W30577  13.837  37.556  11.161
58153W        W30578   7.220  30.603  11.460
58154W        W30579   8.559  38.931   2.029
58155W        W30580  34.297   9.999   1.677
58156W        W30581  41.767  15.262  10.785
58157W        W30582  14.327  25.450  13.968
58158W        W30583  39.227  26.731   2.224
58159W        W30584  27.508   8.357  14.400
58160W        W30585   1.179  20.714  13.126
58161W        W30586  44.806   0.765  13.885
58162W        W30587  12.746  12.665   1.771
58163W        W30588   1.825   5.223   2.933
58164W        W30589   3.874   8.882  12.598
58165W        W30590  44.944   5.819  13.028
58166W        W30591   8.363  35.622  14.916
58167W        W30592  11.816  28.012  11.491
58168W        W30593  33.500  31.660   2.844
58169W        W30594  14.190  31.773  10.115
58170W        W30595  21.136  41.782  10.696
58171W        W30596  18.745  42.065  13.182
58172W        W30597   5.317  38.321  12.103
58173W        W30598  35.145  24.090  10.575
58174W        W30599  13.581  42.859   3.849
58175W        W30600  33.402  23.181  12.332
58176W        W30601  38.076  38.573   1.662
58177W        W30602   4.871  18.157  11.500
58178W        W30603  23.246  13.993  10.477
58179W        W30604  21.219  35.747  12.083
58180W        W30605   6.727  16.490   0.238
58181W        W30606  24.332  40.900  12.978
58182W        W30607  24.817   7.382  11.882
58183W        W30608  36.580  37.036   3.132
58184W        W30609  12.740   0.987  11.056
58185W        W30610   7.735  13.703  10.746
58186W        W30611  24.169  43.753  14.803
58187W        W30612   5.978  43.396  13.897
58188W        W30613  17.583  41.419   4.520
58189W        W30614  13.640  17.650   1.808
58190W        W30615  14.279  44.980   1.709
58191W        W30616   8.422   3.306  12.819
58192W        W30617   1.096   4.278  12.954
58193W        W30618  26.970   2.214   0.208
58194W        W30619   4.417  10.126   3.288
58195W        W30620  23.522  34.589  11.074
58196W        W30621  29.852  10.874  12.945
58197W        W30622  19.465  15.364  12.083
58198W        W30623   6.802  14.330  12.522
58199W        W30624  36.338   0.350  14.864
58200W        W30625  16.474   0.760   4.186
58201W        W30626  14.335  40.411   0.401
58202W        W30627  30.403  38.425  13.207
58203W        W30628  18.361  17.760  13.029
58204W        W30629  10.338  44.697   0.662
58205W        W30630  38.587  32.458  14.743
58206W        W30631   2.903   0.387  11.543
58207W        W30632  34.431  33.447  12.973
58208W        W30633  36.975  31.158   4.403
58209W        W30634  39.600   4.755   3.149
58210W        W30635  35.075  33.610  10.729
58211W        W30636   9.213   9.945  14.806
58212W        W30637  16.853  12.343  11.508
58213W        W30638  23.995   3.464   4.409
58214W        W30639  28.726   4.313  12.934
58215W        W30640  19.703  26.471  14.374
58216W        W30641  11.186  11.640  14.510
58217W        W30642   9.626  32.911  13.923
58218W        W30643   5.797  14.158  14.467
58219W        W30644  32.112  16.090   9.845
58220W        W30645  26.572   1.434  11.134
58221W        W30646  38.047  15.317   2.214
58222W        W30647   3.667  35.776   0.742
58223W        W30648  23.155   3.064  12.814
58224W        W30649   4.847  29.742  13.566
58225W        W30650   1.092  39.422  13.881
58226W        W30651  41.906  39.206   1.548
58227W        W30652  20.124  43.391  12.643
58228W        W30653  33.193  42.774  12.160
58229W        W30654  13.188  26.726   2.403
58230W        W30655  15.552  31.875  10.356
58231W        W30656  26.323  14.689  12.043
58232W        W30657  14.304  18.705  14.484
58233W        W30658  33.095   3.779  12.871
58234W        W30659   6.316  26.437  13.557
58235W        W30660   1.240  14.765  13.360
58236W        W30661   2.659  27.954   2.457
58237W        W30662   5.920  20.021  11.003
58238W        W30663  14.708  30.083   1.035
58239W        W30664  23.585  32.567   1.183
58240W        W30665  18.659  31.428  13.546
58241W        W30666   7.691  42.795   1.844
58242W        W30667  24.734  26.254  13.847
58243W        W30668  23.964   9.943  12.191
58244W        W30669   2.244   2.267  12.532
58245W        W30670  32.859  24.129  11.185
58246W        W30671  43.975  20.180  14.075
58247W        W30672  36.899  22.287  13.861
58248W        W30673   4.899  28.360  11.880
58249W        W30674  19.133  21.116   0.119
58250W        W30675  19.522  24.472   1.828
58251W        W30676  31.186  35.172   4.808
58252W        W30677  43.102  19.006  12.833
58253W        W30678   8.489  18.531   0.917
58254W        W30679   7.213  43.261  11.875
58255W        W30680  43.288  21.347   1.166
58256W        W30681   8.904  12.715  11.513
58257W        W30682  42.139   4.401  14.356
58258W        W30683  21.641  10.644  14.817
58259W        W30684  34.920   3.149  12.478
58260W        W30685   1.414  41.475   2.387
58261W        W30686  32.178  23.331  13.135
58262W        W30687  19.219  41.453  14.063
58263W        W30688   8.760  27.962  14.775
58264W        W30689  11.915  13.246   1.472
58265W        W30690  36.481  32.427  14.297
58266W        W30691  37.338  13.903  12.637
58267W        W30692   1.325   6.455  13.914
58268W        W30693  24.003  43.468   0.706
58269W        W30694   4.748  26.403  12.645
58270W        W30695  24.925  20.665  14.618
58271W        W30696  16.761   3.355   1.682
58272W        W30697  27.927  34.471   2.835
58273W        W30698  26.459  36.538  12.809
58274W        W30699   5.829   5.813   0.390
58275W        W30700  27.011  32.854  13.910
58276W        W30701  26.448  29.513   3.795
58277W        W30702  40.956  23.757  12.994
58278W        W30703  33.520  42.587   2.460
58279W        W30704  30.503  25.951  11.132
58280W        W30705  35.978  40.389   1.160
58281W        W30706  39.851  18.033   1.424
58282W        W30707   5.909  36.194  12.387
58283W        W30708  31.964  15.131  14.866
58284W        W30709  38.424  10.718  14.896
58285W        W30710  43.701  26.147   3.358
58286W        W30711  33.989  29.588  11.471
58287W        W30712  12.334  14.653   0.359
58288W        W30713  32.029  31.521   0.884
58289W        W30714   9.454  10.439   2.709
58290W        W30715  40.379  27.204  14.357
58291W        W30716  24.705  36.435   4.531
58292W        W30717  15.579  34.636  14.474
58293W        W30718  32.569  16.083   2.832
58294W        W30719  34.081   8.727   1.964
58295W        W30720   1.951  20.099   4.131
58296W        W30721  22.810  40.412   0.270
58297W        W30722   4.522  10.233  13.526
58298W        W30723  36.125   6.189  12.105
58299W        W30724   0.436  37.283   3.451
58300W        W30725  35.864  25.373  14.312
58301W        W30726   0.492  31.925   2.758
58302W        W30727  38.075  24.875  12.742
58303W        W30728  25.391  11.290  12.758
58304W        W30729  10.438  10.262   1.308
58305W        W30730   6.642  21.070  14.888
58306W        W30731  44.005  25.560  11.221
58307W        W30732  39.035  27.015  13.433
58308W        W30733  26.577  31.366  11.628
58309W        W30734  18.543  16.847   2.122
58310W        W30735  28.349  37.692   0.006
58311W        W30736   6.735  23.519  10.419
58312W        W30737  24.243  17.737   3.230
58313W        W30738   1.552  21.766   0.495
58314W        W30739  22.523  20.625   0.505
58315W        W30740  30.879  22.155   3.682
58316W        W30741  12.681   6.171   4.206
58317W        W30742  31.353  43.315   1.370
58318W        W30743  12.687  13.916   4.115
58319W        W30744   7.756  13.873  10.067
58320W        W30745  17.087   9.368  10.785
58321W        W30746  11.179  16.010  13.619
58322W        W30747  17.758  39.348  14.015
58323W        W30748  28.147   2.962  11.803
58324W        W30749  31.242  42.959  14.272
58325W        W30750   1.865  32.612   3.194
58326W        W30751  27.119  13.723  13.853
58327W        W30752  21.864  25.012   2.426
58328W        W30753   2.375   8.641  13.350
58329W        W30754  17.217  28.213   0.377
58330W        W30755  40.812  17.339   1.234
58331W        W30756  29.207  43.935  12.184
58332W        W30757  31.661   1.121  13.491
58333W        W30758   9.236  40.986  13.800
58334W        W30759  11.975  26.595   3.641
58335W        W30760  15.873  29.039   0.797
58336W        W30761  26.528  13.151  14.358
58337W        W30762  20.950   6.376   2.143
58338W        W30763  43.289  17.311  13.999
58339W        W30764  17.246  27.850   3.518
58340W        W30765  29.086  28.185   3.385
58341W        W30766   6.967   1.120  11.555
58342W        W30767  18.797  15.660   3.596
58343W        W30768  28.102  21.681  14.846
58344W        W30769   8.077   7.296   2.321
58345W        W30770  18.385  26.281  12.273
58346W        W30771  30.556  40.845  10.399
58347W        W30772  42.783  35.898  13.463
58348W        W30773   8.121  39.253   1.453
58349W        W30774  28.231  10.030   0.215
58350W        W30775  28.224  27.580   4.741
58351W        W30776  10.104  13.251  13.336
58352W        W30777  21.057   1.406  14.507
58353W        W30778  31.516  18.622   1.505
58354W        W30779   5.843  31.710  13.497
58355W        W30780   9.714  11.212  12.037
58356W        W30781  17.691  12.578  11.135
58357W        W30782  26.086   3.682   4.871
58358W        W30783  23.986  21.083  12.861
58359W        W30784   8.247   3.616   1.945
58360W        W30785  26.486  42.247   1.059
58361W        W30786   1.980  31.102   4.118
58362W        W30787  24.146   2.469  14.271
58363W        W30788  28.958   4.515   1.983
58364W        W30789  42.125  13.732   2.352
58365W        W30790  11.097  38.316  12.931
58366W        W30791  19.007  12.741   1.483
58367W        W30792  22.112  19.799   2.504
58368W        W30793  18.069  29.905  12.914
58369W        W30794  39.863  35.946  12.859
58370W        W30795  32.085   7.826   2.331
58371W        W30796  15.311  25.068  11.541
58372W        W30797  44.466  13.587  12.910
58373W        W30798  43.017   4.320  13.978
58374W        W30799  18.608  15.094  14.458
58375W        W30800  30.025  34.832  12.402
58376W        W30801  44.651  12.222   0.905
58377W        W30802  14.988  40.601  11.205
58378W        W30803  24.437   2.038   3.336
58379W        W30804  22.742  28.919  14.468
58380W        W30805  25.533  34.050   4.486
58381W        W30806  22.723   8.383  11.653
58382W        W30807  31.921  20.522  12.959
58383W        W30808  10.411  42.011  11.521
58384W        W30809  12.819  44.275  10.152
58385W        W30810  37.597  29.490   1.469
58386W        W30811  10.611   8.322   3.301
58387W        W30812   7.485  22.204  13.833
58388W        W30813  34.040   2.810  12.499
58389W        W30814  40.108  31.641   1.709
58390W        W30815   3.800   2.262  13.066
58391W        W30816   6.875   8.563   3.655
58392W        W30817  32.177  35.779  10.137
58393W        W30818  23.143  18.520   2.257
58394W        W30819  39.858  26.732  13.044
58395W        W30820  36.592  37.096  13.768
58396W        W30821   7.718  26.563  13.807
58397W        W30822   6.954   0.912   4.875
58398W        W30823   6.716  30.504   1.139
58399W        W30824   6.131  18.312   4.522
58400W        W30825   3.241  16.021   4.110
58401W        W30826  24.024  30.415  12.555
58402W        W30827  11.051  40.094   1.479
58403W        W30828   1.735   6.318   0.277
58404W        W30829  13.741  44.927   4.545
58405W        W30830  29.029  11.117   1.173
58406W        W30831   9.838   2.957  12.037
58407W        W30832  27.033  39.787   3.883
58408W        W30833  28.853   8.388   0.942
58409W        W30834   5.392  36.317  14.024
58410W        W30835   6.304  27.887   2.604
58411W        W30836  38.801  30.931  12.525
58412W        W30837   3.334  29.417   0.940
58413W        W30838  28.215  19.695  14.873
58414W        W30839  12.000  31.336  13.252
58415W        W30840  42.080   2.228   3.775
58416W        W30841  12.102  25.698   4.195
58417W        W30842  37.131  28.567  14.454
58418W        W30843   5.978  32.424   2.259
58419W        W30844   9.293  39.483  10.712
58420W        W30845  29.689  24.854   5.049
58421W        W30846  15.014  29.405   4.478
58422W        W30847  12.671  34.070  11.408
58423W        W30848  40.464  27.595  13.057
58424W        W30849  13.720  21.442  12.807
58425W        W30850  43.724   2.360   1.091
58426W        W30851   0.351   6.172  13.385
58427W        W30852  39.982  26.697  11.957
58428W        W30853  11.280  16.630  14.897
58429W        W30854  34.987   0.117  11.631
58430W        W30855  36.813   2.328   4.767
58431W        W30856  24.086  37.599   5.103
58432W        W30857  12.562  39.383   0.819
58433W        W30858   0.766   5.265  11.854
58434W        W30859  39.000  39.806  11.641
58435W        W30860  22.531  44.740   4.774
58436W        W30861  18.651  12.191   1.483
58437W        W30862  21.005   7.256   0.007
58438W        W30863  36.244   9.376  11.565
58439W        W30864  35.000  42.799   1.293
58440W        W30865   2.832   2.199   0.030
58441W        W30866  32.136  33.414  13.378
58442W        W30867  29.659   6.652   4.099
58443W        W30868   6.138  36.839   0.734
58444W        W30869  36.487  28.951  12.643
58445W        W30870   1.015  16.039   2.340
58446W        W30871  17.476  34.398   3.907
58447W        W30872  16.172  41.860  12.388
58448W        W30873  31.570  30.809   3.337
58449W        W30874  31.134  12.449   1.694
58450W        W30875  41.874  15.946   4.967
58451W        W30876  30.700  28.036   3.745
58452W        W30877  44.797  20.212  10.837
58453W        W30878   2.406  17.763  11.230
58454W        W30879  32.417  43.016   0.491
58455W        W30880  14.584  25.484  12.154
58456W        W30881  17.934  10.861   2.462
58457W        W30882   2.982  27.605   4.272
58458W        W30883  26.879   8.784  13.309
58459W        W30884   4.595  10.613  10.425
58460W        W30885  20.040  35.125  12.543
58461W        W30886  35.436  43.752   3.672
58462W        W30887  28.594  33.459   0.390
58463W        W30888   7.980  43.700   3.720
58464W        W30889  40.687  18.808   0.170
58465W        W30890  17.863  18.760   1.263
58466W        W30891  41.823   8.682   3.575
58467W        W30892   8.174  36.489   4.663
58468W        W30893  15.674   0.432  13.872
58469W        W30894   5.295   5.352   1.677
58470W        W30895  28.419   8.474  13.579
58471W        W30896  40.353  31.075   2.312
58472W        W30897  34.801  19.081   4.683
58473W        W30898  13.204  27.087  11.808
58474W        W30899  22.582  40.758  13.382
58475W        W30900  28.604   6.638  11.920
58476W        W30901  43.773  16.030   1.444
58477W        W30902  32.973  22.991  11.678
58478W        W30903  33.535  21.835  12.952
58479W        W30904  26.725  32.319  14.404
58480W        W30905  43.932  42.913  11.234
58481W        W30906  30.993  20.151  11.423
58482W        W30907  14.611  12.930  10.390
58483W        W30908  41.367   8.220   2.859
58484W        W30909   7.470  10.928  14.282
58485W        W30910  14.862   5.843  11.437
58486W        W30911   6.950  18.323  14.810
58487W        W30912  27.222  39.940  14.253
58488W        W30913  30.969  11.326  12.561
58489W        W30914  40.343   1.857   0.301
58490W        W30915  18.609  29.603   4.087
58491W        W30916   3.711  14.073   3.163
58492W        W30917  41.547  15.825  10.905
58493W        W30918   2.730  30.364   4.266
58494W        W30919  13.195  28.174  12.636
58495W        W30920  24.579  34.916   0.153
58496W        W30921  19.775  22.018   2.831
58497W        W30922  24.761  13.199  13.823
58498W        W30923   7.685  19.250   4.570
58499W        W30924   9.886  31.851   4.640
58500W        W30925  39.019  42.758  10.691
58501W        W30926   9.163  27.167   0.354
58502W        W30927   7.232   0.591  12.187
58503W        W30928   7.415   6.824   1.641
58504W        W30929  28.442   7.758  12.906
58505W        W30930  16.334   0.322  10.220
58506W        W30931  40.029   1.612  14.824
58507W        W30932  40.383  38.532  13.287
58508W        W30933  44.264  27.609  13.283
58509W        W30934  11.864   6.840  11.832
58510W        W30935  43.865  42.621  14.949
58511W        W30936   4.109  30.442  11.565
58512W        W30937  26.646  41.078   0.286
58513W        W30938   1.736  39.024  11.929
58514W        W30939   8.213   4.972  14.098
58515W        W30940  26.580   8.786  13.715
58516W        W30941   5.401  20.725   1.620
58517W        W30942  38.175  14.578  12.112
58518W        W30943  12.305  32.708   0.676
58519W        W30944  34.865  35.914  14.995
58520W        W30945  26.654  35.587  12.471
58521W        W30946  28.452  20.113   1.469
58522W        W30947   0.344  41.745   0.897
58523W        W30948   0.670   2.938   2.786
58524W        W30949   6.401  17.842  14.252
58525W        W30950  36.212  14.353   5.005
58526W        W30951  12.014  34.508   3.727
58527W        W30952  39.686  38.127   1.199
58528W        W30953  35.675  23.285   4.672
58529W        W30954  20.168   6.500  11.425
58530W        W30955  26.275  39.971   0.717
58531W        W30956  43.040  13.177   1.815
58532W        W30957  29.872  33.558  13.035
58533W        W30958  17.592  29.384  13.511
58534W        W30959  30.613  23.516  14.016
58535W        W30960  23.453   8.503  11.087
58536W        W30961  25.583  15.370  10.950
58537W        W30962  18.642  34.879  12.570
58538W        W30963  17.989  25.859   1.530
58539W        W30964  11.198  14.124   2.854
58540W        W30965  41.222   1.801  11.006
58541W        W30966  29.197  19.069  14.045
58542W        W30967  16.179  42.900  10.725
58543W        W30968  28.049   4.336   3.450
58544W        W30969   8.476  30.507   0.504
58545W        W30970   4.370   1.470   2.289
58546W        W30971   1.319  10.297   4.350
58547W        W30972  41.073   1.398   2.865
58548W        W30973  35.117  27.708  12.460
58549W        W30974  27.054   6.879  14.416
58550W        W30975  31.859  32.121   2.201
58551W        W30976  18.229  15.302   4.015
58552W        W30977  29.650  17.798  10.965
58553W        W30978  15.905   0.961  10.628
58554W        W30979  10.308  22.776   0.395
58555W        W30980  18.564   0.265   2.648
58556W        W30981  28.139  27.278  11.364
58557W        W30982   5.474  21.373  14.365
58558W        W30983  14.158  37.020   0.504
58559W        W30984  21.507  36.701   0.164
58560W        W30985  29.895  44.985  11.445
58561W        W30986   1.457  14.967  11.309
58562W        W30987  23.883  15.573  11.414
58563W        W30988  38.785   5.661   1.839
58564W        W30989  38.745  38.510   4.781
58565W        W30990  14.182  10.414   0.545
58566W        W30991  14.234  24.031  14.382
58567W        W30992   7.974  43.389  12.499
58568W        W30993  16.580  34.959  12.315
58569W        W30994  41.663  18.066  11.440
58570W        W30995  40.702   0.028  12.362
58571W        W30996  20.035   5.587  10.292
58572W        W30997  23.697  31.174   3.279
58573W        W30998  32.091   9.982  12.087
58574W        W30999  16.826  25.844   2.108
58575W        W31000  40.292  13.559   2.667
58576W        W31001  39.711  30.008  12.167
58577W        W31002  21.152   5.440  10.792
58578W        W31003  24.143  33.453   4.154
58579W        W31004   4.311  11.291   2.473
58580W        W31005  41.819  10.191  11.166
58581W        W31006  19.995   7.769   2.612
58582W        W31007  15.592  21.740  13.776
58583W        W31008  21.484  28.863   4.572
58584W        W31009  24.243  24.428  12.392
58585W        W31010  39.874   1.381  14.380
58586W        W31011  13.371  43.071  11.219
58587W        W31012  28.836  13.269  14.404
58588W        W31013  31.149  31.666   3.389
58589W        W31014  43.256  25.288   2.900
58590W        W31015  31.080  13.720   0.992
58591W        W31016  23.417  20.244   2.159
58592W        W31017   8.721  17.503  12.500
58593W        W31018  34.601  14.640   2.656
58594W        W31019  33.749   0.675   1.920
58595W        W31020  39.883  21.069  14.820
58596W        W31021  19.142  10.916   1.900
58597W        W31022  34.943  34.585  10.469
58598W        W31023  27.158  29.145  13.561
58599W        W31024  10.627  26.627  13.466
58600W        W31025  17.687  36.591   4.064
58601W        W31026  17.569  19.337  14.857
58602W        W31027  17.197  18.686  12.946
58603W        W31028  19.528  29.687  11.502
58604W        W31029   5.712  16.655  11.940
58605W        W31030   0.438   2.064   2.216
58606W        W31031  23.021  41.618   0.908
58607W        W31032  44.430  38.580   3.692
58608W        W31033  25.737  33.850  10.726
58609W        W31034   2.437   2.990   3.544
58610W        W31035   7.392   5.293  11.637
58611W        W31036   7.879  27.431   1.058
58612W        W31037  18.885  13.248  11.223
58613W        W31038  37.572  24.149   2.612
58614W        W31039   1.394  19.349  13.186
58615W        W31040  21.117  31.012  10.893
58616W        W31041  17.287  33.101   2.329
58617W        W31042  34.930  25.514   4.780
58618W        W31043  22.820  36.164   4.944
58619W        W31044  21.329  17.755   1.218
58620W        W31045  20.112  27.377   2.703
58621W        W31046  22.571   9.842   4.343
58622W        W31047  30.191  15.530  14.945
58623W        W31048  17.862   3.461  13.534
58624W        W31049  44.364  43.791  10.433
58625W        W31050   6.270   1.904   4.071
58626W        W31051  22.241  32.385   0.350
58627W        W31052  38.515  15.737   4.120
58628W        W31053  38.022  39.739   1.242
58629W        W31054  12.802  26.617   4.631
58630W        W31055  32.460  38.120   2.878
58631W        W31056   4.496  30.531   4.673
58632W        W31057  44.470  33.858   4.588
58633W        W31058   1.190  12.217  14.273
58634W        W31059  33.100   4.073   0.257
58635W        W31060  30.200  36.268  12.446
58636W        W31061   1.738  12.432   3.767
58637W        W31062  39.700  35.858  11.580
58638W        W31063  26.489  29.085   3.166
58639W        W31064  35.824  41.501   0.060
58640W        W31065  13.605   5.889  11.520
58641W        W31066   1.197  20.194  12.527
58642W        W31067  21.784  16.244  10.687
58643W        W31068   9.128  39.980   4.433
58644W        W31069   9.233  30.628  13.475
58645W        W31070  22.026  13.186   0.012
58646W        W31071  25.603  36.339  11.546
58647W        W31072   6.426   5.901  10.261
58648W        W31073  32.408  20.362   1.957
58649W        W31074  30.063  25.306   0.542
58650W        W31075  10.790  15.258   2.240
58651W        W31076  13.184  29.100  12.774
58652W        W31077  13.289  36.297  13.626
58653W        W31078  41.497  28.668  14.361
58654W        W31079  26.696  32.997  11.982
58655W        W31080  40.594  33.077  13.939
58656W        W31081  14.695   3.454  14.515
58657W        W31082  24.758  34.411  13.528
58658W        W31083   6.412  23.646   5.116
58659W        W31084  20.055  35.329  11.546
58660W        W31085  39.251  39.974  14.328
58661W        W31086  42.240   7.781   2.174
58662W        W31087   2.357  26.992  10.921
58663W        W31088  41.789  44.826  10.349
58664W        W31089  38.036  11.718  12.468
58665W        W31090  14.223   4.174  10.546
58666W        W31091  35.861  10.784   2.002
58667W        W31092   5.150  42.946  11.501
58668W        W31093   9.750  22.001   0.386
58669W        W31094  36.071  18.606  12.964
58670W        W31095  35.115  13.081  14.007
58671W        W31096  26.909  21.087   2.294
58672W        W31097  12.329  34.308   4.085
58673W        W31098  19.589  43.506   0.764
58674W        W31099  43.271  18.269  12.934
58675W        W31100  33.063  14.176  10.925
58676W        W31101  16.575  18.640   0.919
58677W        W31102  21.333  28.407  12.098
58678W        W31103  32.313  41.284   0.367
58679W        W31104  36.282   9.319   2.530
58680W        W31105  11.803   0.256   9.958
58681W        W31106  29.849  11.729  11.893
58682W        W31107   6.807  25.523  13.087
58683W        W31108  23.744  20.642   1.980
58684W        W31109  21.629  30.189  11.066
58685W        W31110  33.088  15.856   2.854
58686W        W31111  26.518  43.874  10.709
58687W        W31112   1.443  30.045  14.048
58688W        W31113  22.988  27.272  12.899
58689W        W31114  36.858   5.709  11.261
58690W        W31115  13.322  10.399  11.427
58691W        W31116  29.934   0.175  10.970
58692W        W31117  16.632  31.965  13.498
58693W        W31118  25.538  38.915   4.089
58694W        W31119   3.237   2.382  14.046
58695W        W31120  38.587  41.825   2.368
58696W        W31121  38.408   6.310   2.652
58697W        W31122  26.735  17.121  12.462
58698W        W31123   0.407  22.051  12.129
58699W        W31124  19.136  22.558   0.010
58700W        W31125  22.585  27.851  10.245
58701W        W31126  32.041  39.249   4.090
58702W        W31127  20.555   1.484  11.541
58703W        W31128   8.664  30.870   0.176
58704W        W31129  14.302  26.553  10.625
58705W        W31130  30.215  33.223   3.904
58706W        W31131   0.422  24.694   3.142
58707W        W31132  41.490  29.926  12.425
58708W        W31133  29.246  29.794   3.722
58709W        W31134  15.591  25.088   3.886
58710W        W31135  44.806  12.665   0.214
58711W        W31136  28.578  34.949   2.315
58712W        W31137  40.378  30.056   0.977
58713W        W31138  24.455  11.105  12.386
58714W        W31139  29.190  33.476   3.135
58715W        W31140  42.864   2.486  11.560
58716W        W31141  33.493   6.941   2.828
58717W        W31142  30.040  10.678  14.026
58718W        W31143  23.829  35.145   5.040
58719W        W31144  38.442   3.228   3.704
58720W        W31145  27.996  15.463   5.104
58721W        W31146  16.486  18.910   0.476
58722W        W31147   5.388   9.217  11.195
58723W        W31148  11.563   0.616  11.192
58724W        W31149  12.679   0.272   1.799
58725W        W31150  33.399  34.816   4.359
58726W        W31151  17.432  35.538   2.191
58727W        W31152  38.355   5.668   1.340
58728W        W31153   2.527   9.826  12.497
58729W        W31154   2.239  34.982   3.801
58730W        W31155   0.503   9.158   4.149
58731W        W31156  14.524  12.672   3.184
58732W        W31157  33.441  17.781  11.527
58733W        W31158  26.664  10.831  14.709
58734W        W31159  19.688  16.822   2.868
58735W        W31160  39.341  43.395  13.063
58736W        W31161   5.168  11.696  12.599
58737W        W31162  37.115  23.361   0.558
58738W        W31163  22.169  27.133   3.526
58739W        W31164  16.807   2.363  12.641
58740W        W31165  17.264  17.838   0.811
58741W        W31166  33.013  14.548  11.694
58742W        W31167  44.043  20.544   4.654
58743W        W31168  24.964  28.117  14.389
58744W        W31169  42.057  15.572   4.587
58745W        W31170  38.034  29.483  10.582
58746W        W31171   3.982  10.267   0.246
58747W        W31172   9.697   8.610  11.510
58748W        W31173  36.309  13.636   2.453
58749W        W31174  20.311   1.458   1.764
58750W        W31175  36.650  32.683   0.936
58751W        W31176  33.117  40.414  10.700
58752W        W31177  24.508  21.604   3.696
58753W        W31178  11.271   0.535   0.904
58754W        W31179  30.724  38.234   3.054
58755W        W31180   9.968  42.881   0.174
58756W        W31181  12.387   9.107  13.140
58757W        W31182  19.445   8.945   0.886
58758W        W31183  21.016  44.535   1.209
58759W        W31184  15.849  17.883  14.999
58760W        W31185  24.181  14.103  10.091
58761W        W31186   3.456  33.135  10.491
58762W        W31187   9.450  11.325  12.491
58763W        W31188  17.749   2.267   1.721
58764W        W31189  43.913  29.702   0.479
58765W        W31190  21.732  40.856  12.706
58766W        W31191  22.646  23.646  13.416
58767W        W31192  27.159  39.465   1.303
58768W        W31193  42.190  23.015   1.913
58769W        W31194  19.570  24.153  14.034
58770W        W31195  13.572  10.206  12.831
58771W        W31196  21.131  12.563   3.600
58772W        W31197  19.267  26.000  10.387
58773W        W31198  27.966  12.569   4.642
58774W        W31199  25.341  42.507  11.949
58775W        W31200  23.645   3.718   0.833
58776W        W31201  12.767  22.304  11.466
58777W        W31202  31.056  33.021  12.509
58778W        W31203  18.143  14.708   2.767
58779W        W31204  37.495  18.107  13.123
58780W        W31205  39.310  10.483  14.893
58781W        W31206  27.227  10.309  11.669
58782W        W31207   6.629  41.342   2.457
58783W        W31208  24.243  29.190  13.953
58784W        W31209   0.228  31.274   4.551
58785W        W31210  12.993   1.941   4.479
58786W        W31211  32.512  21.582   2.183
58787W        W31212  20.145   4.356   0.324
58788W        W31213  27.294  38.745   2.431
58789W        W31214  14.846  30.628   3.213
58790W        W31215  33.511  31.069  14.755
58791W        W31216  39.553  21.734  10.742
58792W        W31217  29.485  15.263   3.390
58793W        W31218  37.796   0.953   1.900
58794W        W31219  41.753  14.999   2.386
58795W        W31220  35.141  22.732   2.375
58796W        W31221  19.873  10.169   2.827
58797W        W31222  38.134  40.841   2.287
58798W        W31223  20.942   4.402   2.707
58799W        W31224  23.924  10.290  12.891
58800W        W31225  36.103  12.753   2.927
58801W        W31226  26.765  37.637   1.257
58802W        W31227  13.313  14.834   1.889
58803W        W31228   0.037  24.053  12.486
58804W        W31229  26.481  41.286   0.921
58805W        W31230  17.424  44.685   5.355
58806W        W31231  16.067  19.706   3.108
58807W        W31232   0.216  15.572   3.683
58808W        W31233  38.650  44.739   3.774
58809W        W31234   8.437   4.818   3.325
58810W        W31235  16.518  43.843  12.969
58811W        W31236  17.674  23.440   0.146
58812W        W31237  15.662  44.855   3.197
58813W        W31238   7.457  13.823  11.170
58814W        W31239   5.879  16.979   4.770
58815W        W31240  15.209  24.975  12.064
58816W        W31241  32.406   0.745   4.334
58817W        W31242  28.440  41.678   0.687
58818W        W31243  30.117  17.360  12.649
58819W        W31244   0.667  19.745  13.470
58820W        W31245  40.000  36.030   2.707
58821W        W31246  36.114  15.397  11.521
58822W        W31247   8.243  23.997  10.671
58823W        W31248   0.444  34.061  12.146
58824W        W31249  37.981  31.415   1.814
58825W        W31250  42.054  38.538   3.685
58826W        W31251   5.282   2.326  12.079
58827W        W31252  17.670   1.676   1.387
58828W        W31253  19.374   0.434  12.394
58829W        W31254   8.265   0.983  12.898
58830W        W31255  10.753   0.709   3.237
58831W        W31256  35.113   6.661   2.745
58832W        W31257  17.674  36.108  13.310
58833W        W31258   9.938  26.061  12.603
58834W        W31259   8.431  16.224  11.513
58835W        W31260  34.833  13.307  12.600
58836W        W31261  18.088  12.837   3.465
58837W        W31262  37.670   1.753  13.898
58838W        W31263  30.881   9.319   2.694
58839W        W31264   6.043   1.420  14.736
58840W        W31265  13.935  35.550  10.957
58841W        W31266   9.552  34.617  10.930
58842W        W31267  25.726  12.252  14.760
58843W        W31268  25.167   2.421   4.614
58844W        W31269  10.563  31.594  14.714
58845W        W31270  28.321   0.714  12.961
58846W        W31271  15.556   8.753   1.325
58847W        W31272  38.227  37.017   0.954
58848W        W31273  20.629  36.459   2.406
58849W        W31274  27.639   1.294  13.002
58850W        W31275   1.547  36.286   3.657
58851W        W31276  31.000  20.530   4.329
58852W        W31277  16.363   5.555  13.989
58853W        W31278   5.221   3.799  12.970
58854W        W31279  29.128  19.804  14.855
58855W        W31280   9.687  34.732  13.124
58856W        W31281  43.378  23.659   1.795
58857W        W31282  22.796  43.225   4.853
58858W        W31283  44.223  43.977   1.184
58859W        W31284  12.275   9.307   4.255
58860W        W31285  14.583  20.336   0.889
58861W        W31286  32.762  36.842  14.447
58862W        W31287  25.101   6.425   4.251
58863W        W31288   4.918  20.613   0.305
58864W        W31289  40.547  31.738   4.041
58865W        W31290  20.831  40.945   2.036
58866W        W31291  24.717  13.022   3.872
58867W        W31292  32.820  13.068  14.779
58868W        W31293  18.689  24.266   4.535
58869W        W31294  19.244  15.568  14.043
58870W        W31295  21.743  40.374   0.295
58871W        W31296  16.084   9.647   3.783
58872W        W31297   8.705   8.157   0.296
58873W        W31298  13.648  13.802  12.878
58874W        W31299  33.329  16.940   5.406
58875W        W31300  43.747  19.816  11.965
58876W        W31301  11.655   8.387  13.774
58877W        W31302  16.659  33.160   3.131
58878W        W31303  32.249  27.090  12.486
58879W        W31304  16.322  14.145   0.778
58880W        W31305  29.770   4.869   5.044
58881W        W31306   1.472  16.913  13.029
58882W        W31307  17.000   6.541  13.578
58883W        W31308  32.130  38.536   0.009
58884W        W31309  34.122  38.629  12.210
58885W        W31310   9.545  33.982   3.371
58886W        W31311   4.627  25.415   4.966
58887W        W31312   3.876  21.916   0.505
58888W        W31313  10.129  17.577  14.548
58889W        W31314  19.182  31.575  13.560
58890W        W31315  39.027  25.160   4.192
58891W        W31316  19.279  12.248  13.197
58892W        W31317  40.960  37.564   1.459
58893W        W31318  26.186   3.026  11.399
58894W        W31319  37.032  27.372   4.221
58895W        W31320   7.146  23.671  12.131
58896W        W31321  28.348  35.042  13.694
58897W        W31322  21.033  40.508  11.834
58898W        W31323  28.396  21.752   4.875
58899W        W31324  29.472  42.407  14.746
58900W        W31325  12.183  18.863   3.639
58901W        W31326   7.614  44.999  12.923
58902W        W31327  28.488  42.835  14.528
58903W        W31328  34.858  22.515  13.428
58904W        W31329   3.697  22.243   3.358
58905W        W31330   0.667  33.728  10.908
58906W        W31331  32.470  22.258  10.410
58907W        W31332  28.234  40.563  14.251
58908W        W31333   2.232  44.259   1.387
58909W        W31334  20.642  12.631   1.776
58910W        W31335  13.336   2.735  10.652
58911W        W31336  28.644  25.773  14.366
58912W        W31337  42.755  36.126   1.082
58913W        W31338   1.945  41.805   3.249
58914W        W31339  19.024  13.752   4.521
58915W        W31340  29.560  26.256   1.796
58916W        W31341  11.629  27.080   4.487
58917W        W31342  41.881   4.121  14.744
58918W        W31343  31.715   2.134   1.368
58919W        W31344  38.170  28.058   0.865
58920W        W31345  19.128  17.279   5.047
58921W        W31346  41.421  15.590  14.412
58922W        W31347  38.806  23.501   2.194
58923W        W31348   0.448   0.972   4.325
58924W        W31349   2.003  23.827   2.314
58925W        W31350  44.625  35.188  11.489
58926W        W31351  29.913  16.518  12.053
58927W        W31352  27.293  38.527  11.499
58928W        W31353  10.852  25.911  12.463
58929W        W31354  17.627  20.477   3.679
58930W        W31355   7.470  32.576   4.617
58931W        W31356   2.346  23.586   3.668
58932W        W31357  28.032  21.996   4.125
58933W        W31358   1.708  42.278   3.172
58934W        W31359  19.707  29.644   2.725
58935W        W31360  36.908  36.112   1.030
58936W        W31361  39.408   5.464   2.638
58937W        W31362   9.179  43.852   0.890
58938W        W31363  15.770  29.387  10.791
58939W        W31364   5.415  34.592   0.396
58940W        W31365  42.541  11.751   2.437
58941W        W31366   1.305  44.087  14.292
58942W        W31367   0.283  20.429  13.801
58943W        W31368   9.171  34.899   4.720
58944W        W31369  25.212  27.060   0.926
58945W        W31370  16.760  36.830   2.012
58946W        W31371   1.193  24.954  12.598
58947W        W31372  24.120  28.951   2.271
58948W        W31373   9.164  23.718   4.631
58949W        W31374  13.866   7.786   2.271
58950W        W31375  25.227  13.069   3.725
58951W        W31376  31.670  24.021   1.838
58952W        W31377  30.125  30.742   3.881
58953W        W31378   1.230  42.501   3.079
58954W        W31379  34.980  15.648  13.407
58955W        W31380  29.202   0.930  13.785
58956W        W31381  21.344  15.105  14.386
58957W        W31382  14.783  15.045  14.691
58958W        W31383  29.520  30.272   3.047
58959W        W31384   7.769   0.950  11.139
58960W        W31385   6.931  11.701   3.130
58961W        W31386  27.529  23.179   0.475
58962W        W31387  39.596  31.644  14.894
58963W        W31388   4.211   7.454  13.322
58964W        W31389  13.085   5.153  13.258
58965W        W31390   5.281  11.636   4.075
58966W        W31391  22.063  30.084  11.369
58967W        W31392  15.224   3.911   4.196
58968W        W31393   3.398  13.600   4.258
58969W        W31394  39.915  24.682   4.060
58970W        W31395  17.207  36.390   3.149
58971W        W31396  33.937  44.078   3.108
58972W        W31397  20.080  11.357   1.598
58973W        W31398   2.428   6.745   3.196
58974W        W31399   4.237  19.228  13.798
58975W        W31400  21.584   0.961   3.184
58976W        W31401   1.018  12.237  10.709
58977W        W31402  18.099  43.306  13.471
58978W        W31403  22.174   3.014   1.838
58979W        W31404  34.003  15.556   1.665
58980W        W31405  38.510  12.073  14.762
58981W        W31406  20.508  22.808  14.551
58982W        W31407  30.904  21.137  11.533
58983W        W31408  36.339   3.998   0.831
58984W        W31409  36.610  39.733  13.946
58985W        W31410  14.803  23.629  10.197
58986W        W31411  18.608  30.503  13.886
58987W        W31412  31.611  44.532  14.059
58988W        W31413  43.434   1.048   3.131
58989W        W31414  21.581  40.249   3.805
58990W        W31415  42.332  11.993  14.459
58991W        W31416   4.124  42.809   3.247
58992W        W31417  31.442  41.818  14.968
58993W        W31418  24.546  18.303   3.795
58994W        W31419  23.003  26.510  14.443
58995W        W31420   8.444  24.121  14.519
58996W        W31421   8.905  28.803  11.795
58997W        W31422   6.902  34.584   3.756
58998W        W31423   9.904  12.248   2.735
58999W        W31424  35.186   9.487  14.879
59000W        W31425  18.554  37.856  13.917
59001W        W31426  33.695  43.684   1.633
59002W        W31427   5.914  10.367   1.827
59003W        W31428   7.945  14.263  12.904
59004W        W31429  21.583   9.957  10.263
59005W        W31430   5.968  37.998  11.997
59006W        W31431  20.696  32.329  11.186
59007W        W31432  11.039  33.752   4.113
59008W        W31433   4.875   2.327  13.831
59009W        W31434  35.303   3.900  12.029
59010W        W31435  41.096  36.166  12.993
59011W        W31436  26.953   2.605  14.876
59012W        W31437   2.014  29.603   0.507
59013W        W31438  32.218  12.356  14.595
59014W        W31439  43.414  35.096  14.153
59015W        W31440  28.083  23.237  12.466
59016W        W31441  13.362  39.868  14.433
59017W        W31442  13.745  32.984   3.298
59018W        W31443  22.872   8.806   4.560
59019W        W31444  15.131  39.863  10.652
59020W        W31445   0.669  21.633  11.652
59021W        W31446   0.521  21.732  11.046
59022W        W31447  14.958  17.233  11.454
59023W        W31448  16.820  27.199   2.837
59024W        W31449  14.164   5.231  10.414
59025W        W31450  34.480  21.543   2.810
59026W        W31451   2.713  39.714   2.311
59027W        W31452  28.282  37.389  12.439
59028W        W31453  29.895  22.758   2.214
59029W        W31454  24.708   9.400  12.930
59030W        W31455  31.541  16.838  12.928
59031W        W31456  17.403   5.572   2.028
59032W        W31457  39.370  42.832   0.814
59033W        W31458  36.887  40.766   0.392
59034W        W31459  14.527  40.763  10.970
59035W        W31460  29.975  32.910   0.678
59036W        W31461  41.387   1.514   1.459
59037W        W31462  34.955  29.874  13.894
59038W        W31463  36.613  38.757  11.487
59039W        W31464   3.607  15.399  10.959
59040W        W31465  18.838  27.111  10.933
59041W        W31466  31.039  34.627  11.730
59042W        W31467  43.188  29.065  10.561
59043W        W31468   1.905  18.519  10.658
59044W        W31469  39.286   3.142  13.427
59045W        W31470   1.167   2.678   1.761
59046W        W31471  15.691  41.346   3.654
59047W        W31472  34.639  40.736   1.911
59048W        W31473  13.329   4.126  12.499
59049W        W31474  19.218  22.111  13.722
59050W        W31475  42.007   9.196  14.792
59051W        W31476   8.848  41.036  11.396
59052W        W31477  28.658  35.404   3.723
59053W        W31478  21.127  34.832  13.183
59054W        W31479  43.509  16.470   2.305
59055W        W31480  32.852  10.078  13.298
59056W        W31481  34.453  38.731  14.882
59057W        W31482  22.613  13.835   4.876
59058W        W31483   6.241  31.760   1.645
59059W        W31484  29.555  34.772   1.986
59060W        W31485   4.737  19.508   3.225
59061W        W31486  25.691  16.158   4.531
59062W        W31487  19.170  36.298   0.449
59063W        W31488  27.661  12.810  11.982
59064W        W31489  42.333  40.522  14.000
59065W        W31490  19.098  29.844  12.396
59066W        W31491  24.524  20.984   0.807
59067W        W31492  16.599   2.608   5.557
59068W        W31493  21.599  35.060  14.454
59069W        W31494  24.504  36.575   1.149
59070W        W31495  43.304  41.500   1.335
59071W        W31496  44.240  18.572  14.496
59072W        W31497  19.794  10.661   2.611
59073W        W31498  12.532  37.172   2.117
59074W        W31499  25.406   5.442   4.872
59075W        W31500   4.808  16.838   3.378
59076W        W31501  24.574   8.168   9.653
59077W        W31502   8.754  38.577   3.304
59078W        W31503  23.119  29.011  10.783
59079W        W31504  35.817   9.835  13.180
59080W        W31505  42.748  12.321   1.430
59081W        W31506  38.081  12.212  10.387
59082W        W31507  23.898  20.276   2.346
59083W        W31508  13.824  36.651   1.219
59084W        W31509  43.743   2.854   3.808
59085W        W31510   5.281  20.974   0.150
59086W        W31511  33.059  23.055   1.769
59087W        W31512  29.992  31.697   5.239
59088W        W31513   1.552  15.288   0.586
59089W        W31514  29.076  40.792  14.733
59090W        W31515   7.382   5.939   0.941
59091W        W31516  39.284  16.214  11.642
59092W        W31517  20.019  44.699  14.425
59093W        W31518  15.253   3.130  10.722
59094W        W31519  31.848  16.267   1.224
59095W        W31520  14.826   0.925   5.650
59096W        W31521  36.406  17.660   3.697
59097W        W31522  32.837   6.894  14.997
59098W        W31523   9.259  39.027  13.877
59099W        W31524  29.649   5.690  12.149
59100W        W31525  26.666   8.871   1.184
59101W        W31526  36.627  36.681  12.503
59102W        W31527  21.068  20.216  13.343
59103W        W31528  34.119   6.423   1.391
59104W        W31529  26.568  26.191   3.691
59105W        W31530  25.653  27.219   4.091
59106W        W31531  36.324  32.097   4.594
59107W        W31532  17.170  20.440  12.906
59108W        W31533  42.825  42.919  13.974
59109W        W31534  37.844  37.052   0.120
59110W        W31535  22.498  17.115   4.623
59111W        W31536  24.555   2.352   1.270
59112W        W31537  35.973   1.061   3.662
59113W        W31538  35.434  37.179  11.115
59114W        W31539  17.570  41.980  14.416
59115W        W31540  13.302  43.434   2.205
59116W        W31541  38.325  42.724  14.805
59117W        W31542  23.848   4.997   1.293
59118W        W31543  33.284  15.836  12.689
59119W        W31544  44.703  20.988   1.345
59120W        W31545  10.949  41.404   2.712
59121W        W31546  44.015  25.766   3.502
59122W        W31547  12.377   1.012   3.408
59123W        W31548  25.815   9.220   1.282
59124W        W31549  19.217  31.498   3.274
59125W        W31550  24.701   1.249   4.551
59126W        W31551  37.111   6.666  13.374
59127W        W31552   7.765   7.580   5.303
59128W        W31553   8.677  23.234  13.850
59129W        W31554  12.091   3.416   0.953
59130W        W31555   2.274  22.390  11.549
59131W        W31556  12.331   5.447  11.110
59132W        W31557  26.798  13.237  12.013
59133W        W31558  36.994  34.135   2.300
59134W        W31559  11.184  32.593  13.263
59135W        W31560  28.160  26.522   1.574
59136W        W31561   8.271  24.992  10.742
59137W        W31562  25.253   6.029   0.939
59138W        W31563  20.778  23.263  14.463
59139W        W31564   8.408   0.924   4.582
59140W        W31565  32.420  12.839  13.882
59141W        W31566  31.847  21.322   3.480
59142W        W31567  33.931  31.522  11.613
59143W        W31568  44.502  18.996  14.800
59144W        W31569  18.311   1.020   2.919
59145W        W31570  16.489  40.963   4.237
59146W        W31571  11.562  11.377   3.684
59147W        W31572  25.235  36.947  11.997
59148W        W31573  12.685  41.358   2.286
59149W        W31574   8.141  12.097   3.232
59150W        W31575  33.862  19.015  12.516
59151W        W31576  17.206  14.563  10.728
59152W        W31577   3.529  32.157   4.065
59153W        W31578  12.315   6.802   2.666
59154W        W31579  21.674  19.280  12.097
59155W        W31580  37.508  44.366  13.203
59156W        W31581  30.910  16.644  10.208
59157W        W31582  23.546  12.737   1.875
59158W        W31583  13.130  35.057   2.585
59159W        W31584   9.809  24.741  13.365
59160W        W31585  40.539  28.016  13.386
59161W        W31586  28.602  15.357  11.997
59162W        W31587  40.200  32.199   4.567
59163W        W31588  15.878  41.109  13.905
59164W        W31589  28.414  34.143   5.212
59165W        W31590  29.640  35.397  14.765
59166W        W31591   0.250   2.347  11.058
59167W        W31592  35.942  24.033  10.979
59168W        W31593   0.302  26.424  14.752
59169W        W31594   5.682   6.406  12.233
59170W        W31595  37.260  39.327  12.534
59171W        W31596  15.586  40.408   1.693
59172W        W31597  44.979  39.104  14.752
59173W        W31598   8.679   5.533  11.859
59174W        W31599   1.146  21.495  13.880
59175W        W31600   4.285   3.854  14.305
59176W        W31601  27.093  44.371  10.226
59177W        W31602  39.726  39.938   4.085
59178W        W31603  29.932  42.314  10.658
59179W        W31604  34.994   5.885   0.523
59180W        W31605   4.836   4.686  11.508
59181W        W31606  36.651  38.671   0.791
59182W        W31607   9.800   3.292  11.643
59183W        W31608  39.091  30.014  14.263
59184W        W31609  15.219  11.666   4.469
59185W        W31610  38.546  17.835  10.863
59186W        W31611  43.330  13.301  12.937
59187W        W31612  39.608   2.380   3.655
59188W        W31613  38.079  36.104   0.968
59189W        W31614  32.841  32.466  12.892
59190W        W31615   1.600  26.962  12.112
59191W        W31616  16.119  15.135   3.798
59192W        W31617   4.635  13.183   1.190
59193W        W31618  10.037   6.379   1.383
59194W        W31619  25.433   8.191  11.200
59195W        W31620   6.775  32.043   4.214
59196W        W31621  42.382   3.862   1.023
59197W        W31622  22.560  11.955  12.119
59198W        W31623  26.412  10.525  11.488
59199W        W31624  19.060  26.706  12.941
59200W        W31625   3.168  39.948   2.251
59201W        W31626   0.601  27.216  11.936
59202W        W31627  34.462  33.065   3.721
59203W        W31628  28.593  19.745   4.484
59204W        W31629  40.858  29.479  14.411
59205W        W31630   8.141  26.726  13.522
59206W        W31631   7.054  42.964   9.867
59207W        W31632  32.806  21.018   3.726
59208W        W31633  21.177  30.600  11.655
59209W        W31634  15.687  20.830  13.481
59210W        W31635  26.170  19.594  11.124
59211W        W31636   5.386  42.539  12.933
59212W        W31637  21.339  22.220  10.298
59213W        W31638  11.093  10.031   1.841
59214W        W31639  41.961  16.241   1.652
59215W        W31640  24.264  27.855  13.104
59216W        W31641  37.832  42.337   1.480
59217W        W31642  28.136  41.205  13.548
59218W        W31643  28.206  23.942   4.110
59219W        W31644  19.006  13.245   2.725
59220W        W31645  15.125  21.468  12.148
59221W        W31646  36.477  39.421  12.901
59222W        W31647   9.882   9.640   0.861
59223W        W31648  33.064  25.029   1.842
59224W        W31649  11.160   3.878  12.140
59225W        W31650  35.964  18.520   4.114
59226W        W31651  26.222  11.015   4.174
59227W        W31652  16.150   0.394  10.700
59228W        W31653  27.767  29.616  11.587
59229W        W31654   4.473  37.477   3.415
59230W        W31655   5.768  15.208   2.923
59231W        W31656   6.945  18.714  14.331
59232W        W31657  36.506  15.768  13.941
59233W        W31658  12.584  22.362  12.376
59234W        W31659   1.305   8.213   1.832
59235W        W31660  38.351  37.783  11.186
59236W        W31661  43.554  34.026  10.664
59237W        W31662  26.994  37.710   0.721
59238W        W31663   6.199   8.820  14.223
59239W        W31664  23.463  12.211  14.978
59240W        W31665  20.728  39.173  14.592
59241W        W31666   6.059  17.991  12.639
59242W        W31667  28.547  26.662   2.851
59243W        W31668  22.637  30.826  14.708
59244W        W31669  32.144  23.564   0.277
59245W        W31670  23.346   4.560   3.247
59246W        W31671  27.494   5.434   1.489
59247W        W31672   0.924  23.318   1.560
59248W        W31673   9.458  24.059   4.854
59249W        W31674  38.303  44.482  12.500
59250W        W31675  14.660  22.810  11.040
59251W        W31676  28.607  14.814   0.509
59252W        W31677  22.699  31.587   0.451
59253W        W31678  33.470  12.566  11.665
59254W        W31679   4.514   8.467  14.431
59255W        W31680  23.134  32.350  12.237
59256W        W31681  20.550  15.726   2.330
59257W        W31682  22.561  21.968   1.673
59258W        W31683  26.095  10.602  14.104
59259W        W31684  41.365   4.261  14.836
59260W        W31685   5.223   6.427  10.795
59261W        W31686  31.967  36.153   3.245
59262W        W31687   6.622  12.265  12.526
59263W        W31688  43.171  10.399   2.908
59264W        W31689  12.644   5.178  12.993
59265W        W31690  40.082  11.148  12.345
59266W        W31691  30.954   1.442   1.453
59267W        W31692  34.649   2.393  13.041
59268W        W31693   0.267  33.031  13.792
59269W        W31694  17.187  26.574  10.882
59270W        W31695  26.418  15.466   4.999
59271W        W31696  18.940  32.460   0.054
59272W        W31697   3.244   8.536   4.577
59273W        W31698  22.727  24.752   1.460
59274W        W31699  31.538  42.606   3.331
59275W        W31700  10.633  37.470   0.243
59276W        W31701  20.430  44.781  12.164
59277W        W31702  30.026  37.635  12.885
59278W        W31703   8.822  29.131   2.915
59279W        W31704  36.304  25.505   1.917
59280W        W31705  24.205  27.525  12.440
59281W        W31706   2.017   2.890  12.907
59282W        W31707  43.227   9.308   3.876
59283W        W31708  32.624  17.676  10.518
59284W        W31709   1.178  39.017  14.389
59285W        W31710  38.934   9.139   3.699
59286W        W31711  24.972  23.654   0.333
59287W        W31712  20.169   0.776  11.261
59288W        W31713  34.337  14.216  12.698
59289W        W31714  29.443  39.596   4.198
59290W        W31715   8.170   9.042   4.708
59291W        W31716  20.595  17.037   1.882
59292W        W31717   7.505   4.874  10.798
59293W        W31718  42.818  43.299   2.314
59294W        W31719  23.686   4.475  12.899
59295W        W31720   1.228  33.538  10.756
59296W        W31721   3.350  38.410   0.043
59297W        W31722  27.721  10.116  11.930
59298W        W31723  27.444   6.030   4.642
59299W        W31724  20.324  26.321   1.860
59300W        W31725  23.011  34.648   2.795
59301W        W31726  43.889  42.389   3.833
59302W        W31727  31.243   1.931  13.995
59303W        W31728  36.519  42.816  12.038
59304W        W31729   7.120  29.008   4.185
59305W        W31730  38.737  18.622   0.878
59306W        W31731  19.504   1.327  12.355
59307W        W31732  15.286  21.292   2.846
59308W        W31733  40.864  11.782  14.514
59309W        W31734  20.618  19.565   0.004
59310W        W31735  10.803  34.544  11.932
59311W        W31736   8.668  23.770   2.631
59312W        W31737  31.012  44.204   3.838
59313W        W31738  24.428   4.939  13.999
59314W        W31739  17.844  31.015  10.571
59315W        W31740  16.685  44.999   0.779
59316W        W31741  28.122  35.896   3.310
59317W        W31742   0.764   0.261   4.632
59318W        W31743  21.495  15.997   2.257
59319W        W31744  19.467  36.976  12.659
59320W        W31745  15.991   8.993  11.085
59321W        W31746  39.534  14.798   1.095
59322W        W31747  36.470  18.348   4.250
59323W        W31748  42.519  32.228   1.774
59324W        W31749  38.136  34.033   1.314
59325W        W31750  31.017   1.291  12.341
59326W        W31751  27.625   5.068   3.714
59327W        W31752  28.672  40.932   1.847
59328W        W31753  18.639  10.294  13.609
59329W        W31754  41.744  24.416   0.324
59330W        W31755  35.342  12.656   3.517
59331W        W31756   3.023   3.195  13.209
59332W        W31757  22.286   8.223   0.961
59333W        W31758   9.195  31.446  12.213
59334W        W31759  34.175  40.402   1.088
59335W        W31760   5.021  23.239  13.486
59336W        W31761   2.449  27.702  14.364
59337W        W31762  30.553  24.075  12.803
59338W        W31763   3.824  37.869   2.822
59339W        W31764  33.034  43.323   1.840
59340W        W31765  42.990  26.703   0.643
59341W        W31766  17.135  18.347  11.185
59342W        W31767  26.665  40.605  13.899
59343W        W31768  14.829   0.665  12.992
59344W        W31769  31.019  37.603  13.417
59345W        W31770  40.899  10.867   2.299
59346W        W31771   6.919  25.172  12.190
59347W        W31772   2.830   9.235  11.993
59348W        W31773  13.129  30.198   0.260
59349W        W31774   7.477   3.757  11.951
59350W        W31775  16.751   1.531  11.919
59351W        W31776  39.940   6.197   0.889
59352W        W31777  37.518  27.517  14.799
59353W        W31778   9.714  32.564  10.613
59354W        W31779  18.357   6.305  11.682
59355W        W31780  27.488  23.485  11.172
59356W        W31781  39.777  35.826   3.222
59357W        W31782  30.517  37.888  12.857
59358W        W31783  17.055  14.461  11.964
59359W        W31784  24.137  39.293   2.796
59360W        W31785   6.322  31.073   1.083
59361W        W31786   7.181  27.456   4.772
59362W        W31787   8.090  17.504   4.032
59363W        W31788  15.638  24.987   4.894
59364W        W31789  27.516  44.472   2.609
59365W        W31790  19.977  30.846  10.123
59366W        W31791   1.971  43.365  12.537
59367W        W31792   9.276  34.371  11.665
59368W        W31793  13.732  33.414  11.933
59369W        W31794  40.129   9.346  14.388
59370W        W31795  36.401  39.057  10.054
59371W        W31796  40.426  20.847   2.837
59372W        W31797   1.648   4.943  14.749
59373W        W31798  15.598  39.074   2.287
59374W        W31799   5.716  27.468   4.101
59375W        W31800  42.462   0.688  11.138
59376W        W31801  36.523  23.745  13.423
59377W        W31802   7.186  28.510   3.233
59378W        W31803  34.397  13.536  13.064
59379W        W31804   9.756  30.393   0.911
59380W        W31805   6.750  39.919   2.704
59381W        W31806   6.327   9.299  14.485
59382W        W31807   0.523  36.539   1.885
59383W        W31808  30.378  24.135   3.179
59384W        W31809  31.978  21.469   2.164
59385W        W31810   9.634   2.797   4.271
59386W        W31811  25.055  27.691   2.398
59387W        W31812  42.418  36.991   0.456
59388W        W31813  33.496  40.029  11.251
59389W        W31814  43.320  26.655  13.914
59390W        W31815  18.555   4.763   1.866
59391W        W31816  20.979  29.047  13.976
59392W        W31817  34.417  35.503  11.803
59393W        W31818  40.431  31.042  14.930
59394W        W31819  23.048  12.937  13.353
59395W        W31820   0.893  43.910   1.387
59396W        W31821  22.254  14.195   0.463
59397W        W31822  21.988  41.077   4.763
59398W        W31823  36.048   5.451  12.342
59399W        W31824  35.426  17.286  14.473
59400W        W31825  35.884  39.507  13.826
59401W        W31826  14.392  18.744   1.343
59402W        W31827  30.523  32.463   1.276
59403W        W31828  34.380   7.850  12.042
59404W        W31829  40.423   4.389   2.716
59405W        W31830  27.969  23.172   4.330
59406W        W31831  21.684  32.893   1.684
59407W        W31832  24.915  36.475   2.996
59408W        W31833  34.879  43.291   3.954
59409W        W31834  13.419  19.092  11.483
59410W        W31835   3.970  10.218  11.228
59411W        W31836   7.825  38.834  10.268
59412W        W31837  27.726  20.645  13.900
59413W        W31838  24.040   3.255   1.091
59414W        W31839  14.665   4.166   0.789
59415W        W31840  33.512  36.408  14.014
59416W        W31841  13.330  23.074   1.899
59417W        W31842  37.473  43.924  11.015
59418W        W31843  33.121  16.758   1.938
59419W        W31844  33.452  44.681  13.287
59420W        W31845  15.666  19.719  14.932
59421W        W31846   7.773  29.704   1.125
59422W        W31847  33.560  23.828   4.137
59423W        W31848  31.372  42.894  13.333
59424W        W31849  12.170  36.432   0.348
59425W        W31850  21.542  41.328   4.815
59426W        W31851  11.659  43.858  12.622
59427W        W31852   4.182  16.361   1.337
59428W        W31853  18.575  42.343  10.646
59429W        W31854  39.799   7.816   2.831
59430W        W31855  21.478  39.894   1.363
59431W        W31856  23.061  27.243  10.692
59432W        W31857  36.707  32.484  14.756
59433W        W31858  31.429  43.362  14.558
59434W        W31859   0.435   2.671  12.624
59435W        W31860  41.405  40.084   4.609
59436W        W31861  22.953  27.434  11.919
59437W        W31862  30.001  35.815  13.391
59438W        W31863  22.301  39.804  10.540
59439W        W31864  13.084   7.209   2.854
59440W        W31865  39.887  32.805  14.285
59441W        W31866   3.416  13.191   4.577
59442W        W31867  36.207  16.093  14.770
59443W        W31868  36.937   0.625   2.811
59444W        W31869   0.694  41.577   1.220
59445W        W31870   5.990  18.244   0.978
59446W        W31871   2.363  42.591   2.306
59447W        W31872   5.686  43.419  14.518
59448W        W31873  32.627   2.902   4.750
59449W        W31874  20.280   7.189  14.473
59450W        W31875  20.232  25.696  11.526
59451W        W31876  30.051   7.534  14.467
59452W        W31877  14.060  31.953   4.663
59453W        W31878  14.124  23.412   3.600
59454W        W31879  24.061  33.304  11.073
59455W        W31880  21.691  44.514   1.839
59456W        W31881  29.902  22.640   1.333
59457W        W31882  11.240  43.419   1.000
59458W        W31883  41.504  41.094   4.492
59459W        W31884  41.221   4.744  14.834
59460W        W31885   5.922  11.933  13.515
59461W        W31886   1.321  36.140  12.148
59462W        W31887  25.576   9.869   0.180
59463W        W31888  18.257   8.956  12.916
59464W        W31889  31.892   3.224  11.165
59465W        W31890  20.131  43.921  14.542
59466W        W31891  18.039  19.728  11.131
59467W        W31892  40.562  10.980   1.890
59468W        W31893  10.117  40.614   0.352
59469W        W31894  34.114  39.345  13.406
59470W        W31895  17.780  43.213   0.398
59471W        W31896  40.564   8.323   3.337
59472W        W31897  42.023  29.927  14.624
59473W        W31898  17.778  38.059   2.520
59474W        W31899   9.848  19.115  12.889
59475W        W31900  13.267   3.878   0.008
59476W        W31901  43.656  17.616   1.265
59477W        W31902   8.086  27.002   2.800
59478W        W31903  28.956  32.616   2.356
59479W        W31904  40.410  28.611  11.291
59480W        W31905  11.694   9.910   0.008
59481W        W31906  30.567  13.242   2.755
59482W        W31907  32.664  33.060  11.220
59483W        W31908  30.923   7.657  10.941
59484W        W31909  24.032  38.241  11.531
59485W        W31910  27.241  17.288   0.209
59486W        W31911   3.452  37.099  13.714
59487W        W31912  42.823   2.825  12.913
59488W        W31913   4.226  21.247   3.336
59489W        W31914  38.521   6.238   3.434
59490W        W31915  20.993   1.826   2.324
59491W        W31916   5.907  37.634  12.468
59492W        W31917  17.925  31.463   3.077
59493W        W31918  16.058  27.123   3.250
59494W        W31919  19.131  33.073   1.684
59495W        W31920  18.194  39.111  12.357
59496W        W31921  43.399  22.025  11.691
59497W        W31922  36.469   9.699   4.284
59498W        W31923  13.664  19.240   4.421
59499W        W31924  34.161  17.188   2.394
59500W        W31925  23.647  24.311   1.464
59501W        W31926  15.715   7.081  14.924
59502W        W31927  13.663   1.948   3.707
59503W        W31928  10.150   9.328  11.939
59504W        W31929  36.764  27.196  11.435
59505W        W31930  31.520  39.455   3.343
59506W        W31931  34.059   1.344   4.275
59507W        W31932  15.989  27.147   4.146
59508W        W31933  31.171   8.048   3.224
59509W        W31934  36.951  20.345  12.830
59510W        W31935  17.265   1.545   4.288
59511W        W31936  30.845  17.151   3.295
59512W        W31937  34.044  30.024   2.667
59513W        W31938  17.288   7.398   3.633
59514W        W31939  20.417  37.225   0.855
59515W        W31940  13.146  19.784  10.875
59516W        W31941  33.077   9.269   2.917
59517W        W31942  33.631  30.723   0.345
59518W        W31943  14.888  28.175   4.557
59519W        W31944  41.596   5.154  14.830
59520W        W31945   3.961   7.697  10.755
59521W        W31946  34.000  38.836  13.555
59522W        W31947  25.201  19.699  10.968
59523W        W31948  29.946   9.798  11.359
59524W        W31949  21.224  30.139  11.366
59525W        W31950  25.141   2.384   0.597
59526W        W31951  23.790  43.990   2.304
59527W        W31952  20.281  18.987  12.501
59528W        W31953  36.501  15.360  12.169
59529W        W31954  34.163  41.507  11.059
59530W        W31955  20.840  24.088   3.728
59531W        W31956  35.975   6.974  13.873
59532W        W31957  20.101  15.174  13.842
59533W        W31958   7.878  20.851  11.909
59534W        W31959  23.270  27.954  11.622
59535W        W31960  30.826  44.738   1.231
59536W        W31961  11.971  20.108   2.392
59537W        W31962   0.733  38.328  12.691
59538W        W31963   0.391  40.002   4.673
59539W        W31964  13.844  19.262  11.715
59540W        W31965  24.720  29.984  12.943
59541W        W31966  33.892  29.624   4.489
59542W        W31967  25.768  33.457   4.078
59543W        W31968  40.219  36.629  12.946
59544W        W31969  29.646  21.972   4.811
59545W        W31970   7.365   7.464  13.782
59546W        W31971  30.186  35.767   2.791
59547W        W31972  14.035  32.006   1.715
59548W        W31973   9.355   3.792  14.883
59549W        W31974  32.800   7.738   0.756
59550W        W31975  43.979  39.589   3.236
59551W        W31976  41.245  16.185  14.844
59552W        W31977   3.406  44.023   1.401
59553W        W31978  12.628   3.136   1.762
59554W        W31979  33.717  29.128   4.520
59555W        W31980  21.786  12.039  10.687
59556W        W31981  33.470  15.375  12.463
59557W        W31982  30.583  40.078  12.921
59558W        W31983  37.538  11.702  14.769
59559W        W31984  26.675   3.302   3.304
59560W        W31985   4.446   4.969   1.763
59561W        W31986  31.813  39.626  14.824
59562W        W31987   5.271  21.481   0.205
59563W        W31988  26.279   8.239  13.084
59564W        W31989  29.528  38.935   1.460
59565W        W31990   4.218  39.891  14.856
59566W        W31991  30.989  40.348  12.519
59567W        W31992   7.375  37.216  12.624
59568W        W31993  38.128  44.416   0.465
59569W        W31994  42.952  40.829   1.799
59570W        W31995   7.328  14.061   5.108
59571W        W31996  11.250   4.493  14.012
59572W        W31997  28.105   4.170  10.743
59573W        W31998  29.965  15.567  11.060
59574W        W31999  35.334  11.138  12.880
59575W        W32000  41.901   5.157  12.780
59576W        W32001  31.713  25.478   1.306
59577W        W32002  12.921  15.596   3.824
59578W        W32003   6.220  44.914  11.580
59579W        W32004  36.704  29.642  14.919
59580W        W32005   0.873   3.803  12.846
59581W        W32006  21.340   4.191   3.332
59582W        W32007  20.301  26.172  13.389
59583W        W32008  10.670  20.612   1.006
59584W        W32009  43.939   2.574  10.785
59585W        W32010  31.299   9.285   4.047
59586W        W32011  25.819  21.567   4.608
59587W        W32012  20.968  20.503   4.108
59588W        W32013  40.855  42.109  11.727
59589W        W32014  41.067  22.539  11.489
59590W        W32015   6.628  44.920   2.793
59591W        W32016  34.504   5.982  10.721
59592W        W32017  27.053  39.061  12.016
59593W        W32018  36.048   6.986   0.484
59594W        W32019  38.375  39.373  14.192
59595W        W32020   1.372   7.485   4.127
59596W        W32021  19.509   0.179   5.545
59597W        W32022  12.561   6.773  14.318
59598W        W32023  29.524  33.923  12.304
59599W        W32024  14.348   0.837  13.390
59600W        W32025  24.558   3.672   5.039
59601W        W32026  36.040   0.073   2.683
59602W        W32027  17.822  21.022  11.413
59603W        W32028  23.651  21.783  10.670
59604W        W32029  35.410  40.343  11.112
59605W        W32030   2.786  21.217  13.802
59606W        W32031  16.724  20.580   2.381
59607W        W32032   4.120  29.609   2.283
59608W        W32033   7.842  16.900  12.483
59609W        W32034  26.192  23.534  14.734
59610W        W32035  12.725  20.685   4.126
59611W        W32036  21.667   1.002  12.605
59612W        W32037  44.809  25.207   4.130
59613W        W32038  11.569  25.062   3.733
59614W        W32039  35.368  13.378  11.552
59615W        W32040  42.311  25.718   1.482
59616W        W32041  25.373   9.128  11.107
59617W        W32042  21.622  22.721   3.356
59618W        W32043   2.533   7.178  14.753
59619W        W32044  19.840   7.893  12.896
59620W        W32045  24.234  32.709  11.966
59621W        W32046  19.649  44.933   2.257
59622W        W32047  16.214   0.231   3.750
59623W        W32048  10.813  18.946   4.188
59624W        W32049  23.322   8.283   2.678
59625W        W32050  35.574  12.151  13.562
59626W        W32051  13.128   9.794   2.329
59627W        W32052  15.850  18.233  10.737
59628W        W32053  22.281  37.313   4.673
59629W        W32054   2.209  32.432   3.570
59630W        W32055  31.413   9.868  10.928
59631W        W32056  42.101   5.839   0.255
59632W        W32057  25.783  41.300   4.062
59633W        W32058  40.028  39.008  13.153
59634W        W32059  15.193   0.228  10.740
59635W        W32060   3.254  25.049  12.523
59636W        W32061  44.969   7.751   1.683
59637W        W32062  10.676  25.438   2.414
59638W        W32063  41.258  25.421   2.881
59639W        W32064  37.494   2.640  12.043
59640W        W32065  31.016  30.121  14.425
59641W        W32066  33.956  18.062   0.122
59642W        W32067   4.592   9.663   2.208
59643W        W32068  41.506  36.330   2.462
59644W        W32069  41.018  29.591  10.619
59645W        W32070   8.709  25.159  11.439
59646W        W32071   9.882   4.147   4.633
59647W        W32072  34.567  27.292  11.131
59648W        W32073  44.830  30.615   1.284
59649W        W32074   9.202  25.550   3.871
59650W        W32075   2.007  43.783  12.229
59651W        W32076   7.989  12.374  14.391
59652W        W32077  25.882   0.837   0.285
59653W        W32078  33.579  23.071   2.896
59654W        W32079  27.574  25.437   0.042
59655W        W32080  39.815   7.943  14.319
59656W        W32081  27.992  36.045   0.941
59657W        W32082  42.341  25.794  12.948
59658W        W32083  39.236  12.886   1.004
59659W        W32084  14.622  36.079  12.536
59660W        W32085  37.469  35.933  14.265
59661W        W32086  25.483  41.198  14.819
59662W        W32087  40.999  13.617  13.813
59663W        W32088   2.373  25.132   2.234
59664W        W32089  42.043  39.833  12.189
59665W        W32090  16.198  15.587  14.957
59666W        W32091  11.186  14.639   2.863
59667W        W32092  26.523  43.171  10.104
59668W        W32093  29.541   1.392  14.953
59669W        W32094  37.116   3.855  12.416
59670W        W32095  25.423   6.939  11.627
59671W        W32096  12.438  29.483  13.914
59672W        W32097   4.657  13.647   4.324
59673W        W32098  40.528   8.234   4.664
59674W        W32099  26.601  34.662   2.751
59675W        W32100   0.958  32.396  12.368
59676W        W32101  10.125   6.294  13.799
59677W        W32102  17.314  26.038   5.097
59678W        W32103  44.830  40.800   4.834
59679W        W32104  17.044   6.682   0.789
59680W        W32105  27.113  21.746   1.827
59681W        W32106  13.794  21.982   4.297
59682W        W32107  21.456   2.315  13.937
59683W        W32108   6.970  33.540  11.677
59684W        W32109  36.005   9.575   1.279
59685W        W32110  32.855   8.837  13.369
59686W        W32111  26.585   2.540   4.262
59687W        W32112  27.631  41.469   3.801
59688W        W32113   9.593  37.616  11.463
59689W        W32114   4.164  23.831  11.140
59690W        W32115  25.595  29.691  10.706
59691W        W32116   5.385  31.798   2.625
59692W        W32117  40.530  39.987   2.390
59693W        W32118  26.020  27.555   2.078
59694W        W32119   3.003  10.309  11.000
59695W        W32120  22.540   7.990  12.398
59696W        W32121  27.879  36.177  12.460
59697W        W32122  18.664   6.282   0.726
59698W        W32123  19.523   3.287  12.554
59699W        W32124  44.542  30.404   3.101
59700W        W32125  40.914  12.706   4.918
59701W        W32126  23.592  15.847  14.029
59702W        W32127   1.529  20.028   3.688
59703W        W32128   1.806  35.368   3.340
59704W        W32129  23.842  24.987   0.787
59705W        W32130  44.248  33.913   0.695
59706W        W32131  27.557  28.063   4.633
59707W        W32132   5.357  28.219   3.925
59708W        W32133   6.230  41.364  14.350
59709W        W32134  19.228   2.785   1.425
59710W        W32135  22.178  37.994   3.869
59711W        W32136  41.400  21.578  12.066
59712W        W32137  24.958  17.248   2.814
59713W        W32138   7.323  42.410   1.892
59714W        W32139   6.855  32.032  12.673
59715W        W32140  38.385  43.900   0.743
59716W        W32141   9.761  18.617  12.906
59717W        W32142  20.447  21.822   2.176
59718W        W32143   7.811  14.194  10.603
59719W        W32144  15.805   1.405  10.382
59720W        W32145  39.451   3.338   2.692
59721W        W32146  25.658  29.139   0.703
59722W        W32147  29.644  40.393  12.999
59723W        W32148  21.567   1.982   3.287
59724W        W32149  13.830  44.465  11.855
59725W        W32150   5.812  25.835   0.035
59726W        W32151  15.357   4.368  12.386
59727W        W32152   6.871  19.784   4.688
59728W        W32153  33.331   1.635  12.316
59729W        W32154  21.728  10.373   3.355
59730W        W32155  13.865  10.926  13.478
59731W        W32156  42.301  41.417   0.051
59732W        W32157  28.673  41.454   3.716
59733W        W32158  25.104   0.067   0.772
59734W        W32159  34.337  18.811  12.488
59735W        W32160  38.090  20.405   1.879
59736W        W32161  30.600  42.154  12.770
59737W        W32162  39.107  31.183  14.095
59738W        W32163   6.382   7.396   1.258
59739W        W32164   4.120  36.604  11.872
59740W        W32165   7.736  31.074   0.514
59741W        W32166   6.447  16.691  12.853
59742W        W32167   4.432  29.627   4.352
59743W        W32168   3.830  36.203   3.027
59744W        W32169  31.184  20.054   4.221
59745W        W32170   9.299  34.002   4.717
59746W        W32171  20.238  14.315   2.710
59747W        W32172  21.355   9.343   4.241
59748W        W32173  14.851   0.929  13.417
59749W        W32174  29.675  39.312   2.888
59750W        W32175  10.802  18.907   2.389
59751W        W32176  39.726  23.936   2.265
59752W        W32177  29.082  37.846  11.150
59753W        W32178   7.888   9.335   0.243
59754W        W32179  41.936  31.631   1.285
59755W        W32180  19.277  39.264  14.025
59756W        W32181   3.195  31.589  13.177
59757W        W32182  17.194   1.408  11.192
59758W        W32183  14.274   9.900   0.537
59759W        W32184   2.758  27.641  12.128
59760W        W32185  17.951  40.762   2.759
59761W        W32186  22.951   0.388  14.240
59762W        W32187  31.077  22.532   3.965
59763W        W32188  25.063  42.123   2.751
59764W        W32189  42.930   5.951   2.300
59765W        W32190  19.686   9.369  11.589
59766W        W32191  19.478   0.437   9.655
59767W        W32192   8.184  11.322   3.200
59768W        W32193  23.400  24.012   0.822
59769W        W32194   8.702  14.736   3.704
59770W        W32195  25.955  26.174  10.697
59771W        W32196  24.023  26.066   2.214
59772W        W32197  32.181  24.868  12.494
59773W        W32198  30.762  34.264   2.120
59774W        W32199  15.272  38.637   0.663
59775W        W32200  33.227  37.802   3.320
59776W        W32201  18.639  19.202   2.147
59777W        W32202  41.399  26.436   4.131
59778W        W32203  37.001  22.218  13.036
59779W        W32204  27.912  33.507  10.341
59780W        W32205  30.923  29.670   3.704
59781W        W32206  33.677   8.892  12.231
59782W        W32207  38.129  10.277  13.419
59783W        W32208   1.406  28.723  12.456
59784W        W32209   2.607  36.239  13.511
59785W        W32210  26.905  30.949  11.675
59786W        W32211  36.671  18.246   2.433
59787W        W32212  41.486   1.206  11.865
59788W        W32213  27.563  38.560   2.967
59789W        W32214  21.184   4.684   0.962
59790W        W32215  27.472  11.831  10.809
59791W        W32216  37.571   4.484  14.929
59792W        W32217  37.513  12.243  13.574
59793W        W32218   0.803   7.666   1.869
59794W        W32219  40.422  17.284   3.248
59795W        W32220  19.741  34.342   0.016
59796W        W32221  27.722  22.186   2.891
59797W        W32222  24.476  37.018  12.513
59798W        W32223  43.934  11.675  12.355
59799W        W32224   4.794   1.440  10.774
59800W        W32225  21.577  29.916   0.861
59801W        W32226  40.939  24.991  14.667
59802W        W32227  24.388  21.512   2.804
59803W        W32228  41.893  10.653  13.542
59804W        W32229  44.745  14.754  12.358
59805W        W32230   1.740  31.574   4.124
59806W        W32231  37.387  40.069  13.529
59807W        W32232  39.831  33.309   0.933
59808W        W32233  10.186  43.392   2.253
59809W        W32234  18.234  31.838   3.321
59810W        W32235   9.143  39.761  13.569
59811W        W32236   8.482  14.371  14.258
59812W        W32237   8.208   3.398   1.464
59813W        W32238  17.870   7.390  14.497
59814W        W32239  35.567  39.512  13.390
59815W        W32240  15.812   7.822  14.354
59816W        W32241  42.464  15.897  11.144
59817W        W32242  39.458   5.641  11.534
59818W        W32243  20.717  10.988   0.527
59819W        W32244   0.773  31.421   3.687
59820W        W32245  12.836  36.055   0.808
59821W        W32246  31.308  25.189  12.757
59822W        W32247  24.535  12.657  11.063
59823W        W32248  34.522  25.842  12.432
59824W        W32249  35.901   4.326  11.908
59825W        W32250  13.211   7.155  14.844
59826W        W32251   5.358  31.634  13.323
59827W        W32252  22.092  24.618   3.831
59828W        W32253  42.877   0.240   3.306
59829W        W32254  25.168  40.944   1.111
59830W        W32255  11.202  22.659   4.570
59831W        W32256  16.134  38.631   0.856
59832W        W32257  21.597  21.422   2.707
59833W        W32258  42.467  38.475   4.560
59834W        W32259  44.337  25.075   1.565
59835W        W32260  38.160  37.203   3.174
59836W        W32261  31.216  13.630   1.490
59837W        W32262   1.682  14.823  13.616
59838W        W32263   1.243  15.128   3.246
59839W        W32264   3.432  13.287   3.844
59840W        W32265  10.286  40.283   0.939
59841W        W32266   7.445   7.957  13.753
59842W        W32267  40.601   8.322  13.956
59843W        W32268  15.146  40.509  12.115
59844W        W32269  22.267  28.062  12.410
59845W        W32270   6.957   7.944  13.595
59846W        W32271  29.591  39.564  10.808
59847W        W32272  20.419   7.048   0.701
59848W        W32273  35.390  29.008   1.209
59849W        W32274  43.238  14.872   0.864
59850W        W32275  11.236  21.606   4.754
59851W        W32276  11.562  39.572  14.329
59852W        W32277  30.437  28.446   3.517
59853W        W32278   9.340  28.082  12.790
59854W        W32279  36.311  30.697   3.144
59855W        W32280  27.594  31.835   3.821
59856W        W32281  39.212  44.817  12.579
59857W        W32282  34.822   0.739  10.396
59858W        W32283   2.839   6.758  13.982
59859W        W32284  11.104   5.271   2.806
59860W        W32285   1.395   6.411   4.233
59861W        W32286  38.136   4.911   1.861
59862W        W32287  26.042  32.335  10.546
59863W        W32288  19.568  19.452   4.351
59864W        W32289  17.508   9.193   1.450
59865W        W32290  37.699  34.556   9.896
59866W        W32291  23.988  10.286   2.858
59867W        W32292  10.175  44.716  12.147
59868W        W32293  27.476   7.053  10.948
59869W        W32294  34.564  32.216  12.455
59870W        W32295  28.336  28.972   1.325
59871W        W32296  27.304   1.911   0.477
59872W        W32297   5.723  10.176   1.278
59873W        W32298   6.391  18.257   0.037
59874W        W32299  30.528   6.482   3.612
59875W        W32300  23.536  21.218  11.625
59876W        W32301  15.817  35.316  13.893
59877W        W32302  21.663  32.446  12.800
59878W        W32303  16.267   7.435   2.165
59879W        W32304  31.746   9.842   0.727
59880W        W32305   8.129  14.721  14.502
59881W        W32306  19.635  36.270  14.920
59882W        W32307  14.270  10.341   3.705
59883W        W32308  31.193  15.300  12.316
59884W        W32309  40.883   2.695   4.944
59885W        W32310  25.678  27.979   1.393
59886W        W32311  32.309   6.946   1.202
59887W        W32312  16.681  14.822   2.143
59888W        W32313  19.045  25.677   0.540
59889W        W32314  16.215  22.186  14.488
59890W        W32315  37.354  21.024   4.243
59891W        W32316   5.427  36.962  12.239
59892W        W32317  37.552  32.589  11.232
59893W        W32318  24.700  17.246   4.761
59894W        W32319   9.146  12.445  13.814
59895W        W32320  27.676  12.740   2.505
59896W        W32321   1.226  28.704  10.795
59897W        W32322  22.128  17.789   1.781
59898W        W32323  15.520  18.597   2.976
59899W        W32324  13.298  39.432  13.080
59900W        W32325   4.411  41.434   2.903
59901W        W32326  43.817  32.370  13.815
59902W        W32327   6.804  28.893  14.864
59903W        W32328   4.333  35.460  13.951
59904W        W32329   4.409  34.505   0.054
59905W        W32330  40.760  34.255   2.310
59906W        W32331  28.883  30.575   1.770
59907W        W32332  38.277  34.914   2.328
59908W        W32333   4.253  39.331  14.930
59909W        W32334  38.425   1.045  10.544
59910W        W32335  21.289  28.178   0.851
59911W        W32336  20.796  39.734   1.671
59912W        W32337  22.617  15.242  11.678
59913W        W32338  23.604  19.150   0.988
59914W        W32339  30.722  21.719   0.282
59915W        W32340   3.462  44.805  11.833
59916W        W32341   6.263   2.426  12.980
59917W        W32342  30.936   6.134  13.335
59918W        W32343   2.089  24.282   5.096
59919W        W32344  23.036  10.134   2.490
59920W        W32345  19.751   2.557  14.398
59921W        W32346  25.625  23.660   0.810
59922W        W32347  43.949  22.211   3.369
59923W        W32348  15.543  42.441   0.946
59924W        W32349  31.798  18.570   5.534
59925W        W32350  25.473  18.711  11.875
59926W        W32351  37.638  13.155  12.973
59927W        W32352  40.474  40.120   4.652
59928W        W32353  35.435  15.884   4.733
59929W        W32354  28.122   9.674  14.825
59930W        W32355   9.834  40.421  12.925
59931W        W32356  11.644  14.600  12.525
59932W        W32357  37.309  40.586  13.614
59933W        W32358   2.988  21.739   3.126
59934W        W32359   3.047  18.623  13.831
59935W        W32360   6.769  18.534   0.255
59936W        W32361  42.551  16.887  10.957
59937W        W32362  10.049   4.269   5.146
59938W        W32363  25.954  31.895  12.919
59939W        W32364  34.838  12.382   4.560
59940W        W32365  36.360   1.137   2.344
59941W        W32366  23.300  34.206   1.049
59942W        W32367  11.228  19.136   2.620
59943W        W32368  31.270  33.639  10.716
59944W        W32369  41.341  41.820  14.462
59945W        W32370  17.381  30.785  12.500
59946W        W32371  25.016   1.292   0.297
59947W        W32372  36.383  28.063  12.962
59948W        W32373  16.246   9.644   1.368
59949W        W32374  16.391  31.585  14.706
59950W        W32375  25.123  40.243  12.977
59951W        W32376  19.564   7.785  12.468
59952W        W32377   2.820  42.782  14.757
59953W        W32378  20.936   4.778  12.353
59954W        W32379  20.326  13.695   1.920
59955W        W32380   9.830  23.590   4.242
59956W        W32381  33.537  10.305   0.691
59957W        W32382  32.335  26.664   2.723
59958W        W32383  31.919  36.839   0.768
59959W        W32384  41.930  39.109   3.253
59960W        W32385  27.965  29.073  11.641
59961W        W32386   4.928  31.987  12.580
59962W        W32387   3.684  24.916  14.372
59963W        W32388   7.143  32.076  10.847
59964W        W32389  32.935  40.413   2.599
59965W        W32390  38.122  24.433  13.050
59966W        W32391   4.902  25.223  14.004
59967W        W32392   2.756  27.983   0.264
59968W        W32393  27.898  19.037   1.562
59969W        W32394  35.510  37.050   4.628
59970W        W32395  17.706   4.390  11.255
59971W        W32396   7.334  10.710   3.695
59972W        W32397  25.552  42.992   0.580
59973W        W32398  37.878   3.951   0.762
59974W        W32399  20.393  18.276  13.356
59975W        W32400  25.231  20.384  14.995
59976W        W32401   8.120  44.813   4.460
59977W        W32402  37.062  39.638   4.691
59978W        W32403  15.292  32.852  13.236
59979W        W32404  31.903  41.586  14.874
59980W        W32405  32.793   4.398   2.305
59981W        W32406  11.089  36.870  11.957
59982W        W32407  40.885  24.610   3.673
59983W        W32408  32.730  15.788  14.945
59984W        W32409  44.782  25.020  10.705
59985W        W32410  32.424   7.449   1.300
59986W        W32411  15.006  43.087  11.355
59987W        W32412  41.303  42.364   9.702
59988W        W32413   8.843  43.397  10.750
59989W        W32414  10.418  14.525   4.877
59990W        W32415  19.955  43.732   2.703
59991W        W32416  17.553  41.948  11.343
59992W        W32417  14.775  38.304   2.190
59993W        W32418  22.740  19.916  12.171
59994W        W32419  44.955  28.181   4.341
59995W        W32420  40.447   9.103  13.429
59996W        W32421  39.843  10.121  12.454
59997W        W32422   1.294  25.875  11.037
59998W        W32423  41.807  27.031   3.565
59999W        W32424  40.475   2.788   2.031
60000W        W32425   3.759   3.977  14.316
60001W        W32426  28.743   8.650  13.943
60002W        W32427  10.549   8.708  11.136
60003W        W32428  39.275   7.210  10.618
60004W        W32429  43.260  23.950  12.061
60005W        W32430  40.332  26.747   0.116
60006W        W32431  27.159  33.372  13.464
60007W        W32432  24.485  25.595  11.202
60008W        W32433  32.471  36.957  14.851
60009W        W32434  26.647  16.597  14.970
60010W        W32435   7.216  35.432   2.189
60011W        W32436  20.139  25.082  14.311
60012W        W32437   6.621  33.840   3.270
60013W        W32438   3.469  42.903   1.701
60014W        W32439  25.957  12.098   2.856
60015W        W32440  12.215  32.328   0.321
60016W        W32441  27.592  13.715   2.841
60017W        W32442  14.674  34.348   1.767
60018W        W32443  13.293   8.654   1.161
60019W        W32444  24.705  44.357  11.860
60020W        W32445   2.203  20.158  10.493
60021W        W32446  24.637  16.821   4.506
60022W        W32447   5.756  27.568   4.615
60023W        W32448   3.331  30.949   4.596
60024W        W32449   7.930  13.743  13.102
60025W        W32450  13.841   5.375   2.428
60026W        W32451   5.777   9.127  12.104
60027W        W32452  18.262  21.779  12.929
60028W        W32453  37.614  37.114  12.827
60029W        W32454   3.799  34.985  14.002
60030W        W32455   9.078   3.395  14.616
60031W        W32456  10.372  44.584  14.446
60032W        W32457  20.241   8.899  10.996
60033W        W32458  33.125  10.240  13.729
60034W        W32459   5.005  21.640   4.171
60035W        W32460  18.291  11.785  14.625
60036W        W32461  17.068  11.621  10.724
60037W        W32462  33.400  14.691  10.423
60038W        W32463  34.192  31.544   3.388
60039W        W32464  39.959  37.640  14.451
60040W        W32465   4.857  24.545  10.949
60041W        W32466   1.585  17.937   1.925
60042W        W32467   1.474  16.652   0.435
60043W        W32468  22.024   7.343   1.836
60044W        W32469   7.507  42.015  14.297
60045W        W32470  20.133  17.835   2.309
60046W        W32471  39.067   2.847   1.767
60047W        W32472   8.688  39.875   4.133
60048W        W32473   0.437  20.560   4.378
60049W        W32474  37.511  26.667   1.719
60050W        W32475  16.162  28.510  12.997
60051W        W32476   2.468  21.547   1.791
60052W        W32477  44.372  22.185   3.076
60053W        W32478  27.611  10.893   1.676
60054W        W32479  39.102  10.284  11.049
60055W        W32480  28.722  32.807   3.882
60056W        W32481   1.153  10.342  12.160
60057W        W32482  15.434  24.205   4.219
60058W        W32483  19.131  30.565   1.868
60059W        W32484  14.657  11.250   2.811
60060W        W32485  43.858  24.908  14.516
60061W        W32486  17.374  15.648  10.243
60062W        W32487  14.330  22.979  10.626
60063W        W32488   4.233  24.197   3.781
60064W        W32489  41.706   0.944   0.042
60065W        W32490  21.699  16.637  12.392
60066W        W32491  33.523  40.625   1.769
60067W        W32492  38.670  18.799  13.297
60068W        W32493   6.039   9.339  10.738
60069W        W32494   6.572   0.149  13.900
60070W        W32495  22.509  15.650   0.792
60071W        W32496   9.234  19.544   0.706
60072W        W32497  39.092   9.911   1.841
60073W        W32498  42.689  16.048  10.669
60074W        W32499  26.211  39.225  13.553
60075W        W32500  23.709   3.760  11.700
60076W        W32501  28.266   7.732  14.026
60077W        W32502  22.491  30.432  11.599
60078W        W32503   3.769   2.840   0.172
60079W        W32504  35.000  26.192  13.549
60080W        W32505   1.421  12.217   1.239
60081W        W32506  17.785  39.408  10.709
60082W        W32507  37.435  13.402   3.056
60083W        W32508   1.830   8.905  12.948
60084W        W32509  23.820  44.688   0.249
60085W        W32510  20.921  14.862  12.759
60086W        W32511  35.029   4.188  13.833
60087W        W32512  17.275  28.712   3.323
60088W        W32513  40.372  34.273   3.331
60089W        W32514  38.212  24.165   5.111
60090W        W32515  18.669  11.419  14.570
60091W        W32516   4.281  28.063  14.289
60092W        W32517  31.213  34.617  12.206
60093W        W32518  36.918  16.327   2.898
60094W        W32519  37.366  25.963  11.398
60095W        W32520  19.608  11.455  13.476
60096W        W32521   1.979  31.081   3.191
60097W        W32522  27.456  30.099  13.118
60098W        W32523  22.210  40.606  11.417
60099W        W32524  31.653  38.753   0.970
60100W        W32525  32.108  15.294   2.741
60101W        W32526  10.209  41.722   3.197
60102W        W32527  13.754  36.129   1.224
60103W        W32528   0.322  17.604   4.605
60104W        W32529  16.527  26.202   1.856
60105W        W32530   5.466  18.805   1.908
60106W        W32531  42.929  38.445   1.783
60107W        W32532  41.896   7.680  10.922
60108W        W32533  25.541  41.596  11.060
60109W        W32534  13.592  18.331  11.946
60110W        W32535  13.638  12.716   1.409
60111W        W32536  29.717  33.118  13.318
60112W        W32537  28.089  34.348   4.872
60113W        W32538   1.719  10.906  12.651
60114W        W32539  37.317  26.456  13.529
60115W        W32540  44.155   6.616  12.843
60116W        W32541  30.445  20.566  14.400
60117W        W32542  39.315  20.728   1.329
60118W        W32543  16.536  39.015   3.280
60119W        W32544  32.652   6.306  13.450
60120W        W32545   8.683   7.669  11.998
60121W        W32546   3.720   0.439  13.048
60122W        W32547  10.293  36.695  12.435
60123W        W32548  26.387  12.621  12.594
60124W        W32549  34.320   0.777  13.613
60125W        W32550   4.209  21.210  13.221
60126W        W32551  10.569   7.801   4.469
60127W        W32552  34.046  17.117   3.822
60128W        W32553  44.450  43.191   3.340
60129W        W32554   5.710  16.677   1.929
60130W        W32555  30.580  20.254   3.671
60131W        W32556  18.464  21.686  11.538
60132W        W32557  21.469  25.485  12.026
60133W        W32558  39.867   3.757  10.793
60134W        W32559  18.251  11.204   4.338
60135W        W32560  11.070  24.193  13.635
60136W        W32561   1.225   6.265  13.393
60137W        W32562  26.255  43.747   0.783
60138W        W32563  37.580  31.368   1.172
60139W        W32564  38.485  37.234   1.332
60140W        W32565   2.825  20.767   3.614
60141W        W32566   7.914  19.096   1.658
60142W        W32567  32.365   3.251   3.396
60143W        W32568  38.555  38.315  12.993
60144W        W32569  37.829  30.354   4.167
60145W        W32570   8.739   2.834  13.998
60146W        W32571  18.057   3.938   1.977
60147W        W32572  32.991   5.272  11.933
60148W        W32573  36.462  39.692  11.539
60149W        W32574  37.404  43.986  12.377
60150W        W32575  36.342  32.724   1.635
60151W        W32576  44.768  30.157   1.046
60152W        W32577   7.426   6.995  10.656
60153W        W32578  28.634  44.934  10.774
60154W        W32579  14.756  44.463   0.690
60155W        W32580  28.973   9.304  10.970
60156W        W32581  24.986  13.591   0.398
60157W        W32582  41.308  27.145   3.387
60158W        W32583  35.969   9.655  12.348
60159W        W32584  21.480  36.342  11.082
60160W        W32585  19.986   5.377   3.280
60161W        W32586  36.554  37.901   3.298
60162W        W32587  30.145   0.019   2.180
60163W        W32588  14.665  40.973  11.428
60164W        W32589   7.293  13.766   2.377
60165W        W32590  23.533  41.975   1.752
60166W        W32591  29.186  14.835   2.737
60167W        W32592  33.950  16.749   3.488
60168W        W32593  23.302  29.559   3.435
60169W        W32594   2.308  19.468   2.261
60170W        W32595   5.171  11.091   0.415
60171W        W32596  38.133  20.979  11.697
60172W        W32597   0.374  43.241  11.995
60173W        W32598  16.755  26.197  11.392
60174W        W32599   8.437  17.846  12.790
60175W        W32600   5.863   6.895   3.163
60176W        W32601   6.880  34.602  13.127
60177W        W32602  24.759  43.038   0.876
60178W        W32603  24.446  13.544  13.461
60179W        W32604  44.809  36.275  10.662
60180W        W32605   9.787  27.583  14.276
60181W        W32606  34.768  18.860   2.317
60182W        W32607  32.481   3.164  10.073
60183W        W32608  34.405  14.308  14.271
60184W        W32609  26.613  40.301   2.399
60185W        W32610  38.826   2.218   5.100
60186W        W32611  21.667   9.065   9.812
60187W        W32612   1.270  19.387  14.462
60188W        W32613  37.849   3.426   4.174
60189W        W32614  41.259  35.357  10.990
60190W        W32615   2.564  30.199  11.414
60191W        W32616  27.229  31.544  12.766
60192W        W32617  27.772  23.629  10.725
60193W        W32618   3.868   9.873   3.160
60194W        W32619   5.410  25.910  13.878
60195W        W32620  20.624  13.185   0.867
60196W        W32621   3.722  43.008  12.593
60197W        W32622   3.017   6.219  14.773
60198W        W32623   2.189  40.057  12.646
60199W        W32624  29.496  26.358  10.277
60200W        W32625  39.854  37.861  11.021
60201W        W32626  17.335  39.491  10.956
60202W        W32627   3.817  44.679   0.389
60203W        W32628  42.460  22.161   1.040
60204W        W32629  22.217   9.676  10.597
60205W        W32630  31.447  35.005   1.930
60206W        W32631  39.029  29.267  13.856
60207W        W32632  25.733   6.964   0.374
60208W        W32633  40.103  39.325   1.870
60209W        W32634   4.841  14.118   1.723
60210W        W32635  15.237  44.733  14.051
60211W        W32636  21.039   4.372  13.626
60212W        W32637  26.039  17.592   2.130
60213W        W32638  44.901   0.032  11.589
60214W        W32639  19.317  37.374  10.533
60215W        W32640  30.229   7.753   3.248
60216W        W32641  22.596  24.689   3.853
60217W        W32642  12.898  44.394   4.233
60218W        W32643   7.446  33.049   0.561
60219W        W32644  29.912  36.567  11.530
60220W        W32645   1.865   3.168   1.885
60221W        W32646   9.866  27.630  11.023
60222W        W32647  37.930   0.619  13.846
60223W        W32648  23.753  17.251   4.236
60224W        W32649  10.301  11.307  13.398
60225W        W32650  40.824  21.622  13.798
60226W        W32651  15.858  37.289   4.114
60227W        W32652  27.647   8.273  10.760
60228W        W32653  28.941  23.486   1.723
60229W        W32654  15.175   7.253   1.356
60230W        W32655  42.835  13.113  12.472
60231W        W32656  30.342  15.696  13.158
60232W        W32657  38.698  42.349  14.845
60233W        W32658   8.762  40.994  13.998
60234W        W32659   4.796  27.394   4.630
60235W        W32660   2.839  21.302  10.641
60236W        W32661  44.275  11.930   3.667
60237W        W32662  38.615  27.283   4.902
60238W        W32663  38.140  14.910   3.699
60239W        W32664  40.346   3.660  11.516
60240W        W32665  17.552  35.031   3.597
60241W        W32666  23.178  32.660   1.793
60242W        W32667   1.490  10.440  12.560
60243W        W32668  35.417  42.473   1.096
60244W        W32669  43.297  38.381   3.153
60245W        W32670  39.320  28.549   4.382
60246W        W32671   8.582  13.358   1.275
60247W        W32672  22.800  18.369  13.899
60248W        W32673  29.842  38.880   3.656
60249W        W32674  40.104  31.160  12.387
60250W        W32675  42.834  40.477   0.037
60251W        W32676  19.015  14.495   3.718
60252W        W32677  13.740  16.527  14.481
60253W        W32678  15.092  42.296  11.995
60254W        W32679  34.518  27.069  10.676
60255W        W32680  15.539  35.073  10.446
60256W        W32681  25.280  35.169   2.462
60257W        W32682  14.655  11.396   1.359
60258W        W32683  39.452   5.964   4.636
60259W        W32684  14.236  44.996  13.965
60260W        W32685  35.670  39.646   4.620
60261W        W32686  35.135  39.944  13.052
60262W        W32687  24.592  26.986   0.358
60263W        W32688  37.471  38.770   5.133
60264W        W32689  11.213  22.623   0.229
60265W        W32690  18.236  41.465  12.950
60266W        W32691  17.155  15.039   2.917
60267W        W32692  44.331  32.315  13.796
60268W        W32693  14.188  18.839  11.554
60269W        W32694  31.043  20.788  12.946
60270W        W32695  17.945  38.852  13.952
60271W        W32696  29.556  36.535  11.002
60272W        W32697  39.799  44.280   1.941
60273W        W32698  36.438  33.347   9.798
60274W        W32699  34.318  17.304  13.237
60275W        W32700  15.064  24.531  13.359
60276W        W32701  33.592  21.437  12.630
60277W        W32702  37.515  43.258   1.057
60278W        W32703  18.661  32.040  14.978
60279W        W32704  19.465  32.683   1.274
60280W        W32705  29.558  23.771   2.895
60281W        W32706  22.109   4.729   0.745
60282W        W32707   1.877   5.251  12.920
60283W        W32708  32.616  24.232   4.713
60284W        W32709  18.409  42.836  13.373
60285W        W32710  33.958  41.964  10.677
60286W        W32711  11.844  32.604  11.105
60287W        W32712  11.706  27.953  13.285
60288W        W32713  35.643  24.056   3.159
60289W        W32714  25.718  44.949  12.966
60290W        W32715  25.167  36.586   4.363
60291W        W32716  16.351  25.068  11.121
60292W        W32717   9.001  30.045   2.651
60293W        W32718  31.358  17.734   2.181
60294W        W32719  18.156  14.949   3.618
60295W        W32720  44.192  43.294   4.161
60296W        W32721  14.142  40.936   0.571
60297W        W32722  20.485  26.547   2.898
60298W        W32723  21.729  19.575  14.513
60299W        W32724   0.309  22.151   2.519
60300W        W32725  31.495  14.539   2.433
60301W        W32726   4.662  35.404  12.071
60302W        W32727  32.506  26.032  14.018
60303W        W32728  14.882  13.739  13.437
60304W        W32729  38.445  29.070   0.974
60305W        W32730  22.602   5.766   2.440
60306W        W32731  29.572  44.859   1.701
60307W        W32732  29.111  22.493  12.015
60308W        W32733  41.300  32.493   3.165
60309W        W32734  19.320  37.616   1.433
60310W        W32735  37.333   1.833  10.731
60311W        W32736  23.021  11.142   2.828
60312W        W32737  24.704  32.319   0.865
60313W        W32738  20.485  11.285  12.550
60314W        W32739   1.248  15.360   4.489
60315W        W32740  25.159  18.260  11.162
60316W        W32741  11.298  31.135   3.243
60317W        W32742  27.397  36.870  12.948
60318W        W32743  40.282  23.585  14.317
60319W        W32744  40.584  40.763   1.948
60320W        W32745  33.189   0.824  11.356
60321W        W32746  14.841  21.558   2.820
60322W        W32747   3.545  12.847  11.572
60323W        W32748   6.312  10.071   4.522
60324W        W32749  25.436  16.822  10.440
60325W        W32750  44.103   3.420  10.914
60326W        W32751  23.374   0.335  13.914
60327W        W32752  20.283  41.437   3.713
60328W        W32753  37.582   9.660   3.738
60329W        W32754   9.141  17.692   3.260
60330W        W32755  31.023  31.152  12.368
60331W        W32756  14.735  25.998  12.898
60332W        W32757  33.894  40.259   4.105
60333W        W32758   9.331  23.794   1.402
60334W        W32759  12.271  23.358  10.565
60335W        W32760   5.007  10.324   1.767
60336W        W32761   5.879  13.083   0.454
60337W        W32762  44.109  11.812   2.175
60338W        W32763  34.615  20.981   0.112
60339W        W32764   4.369   8.289  10.780
60340W        W32765  38.335  11.546   1.800
60341W        W32766  36.368  14.106  13.370
60342W        W32767  22.528  29.457   0.673
60343W        W32768  10.657  28.674   4.756
60344W        W32769  18.203  18.274  13.585
60345W        W32770   8.272  24.438  12.543
60346W        W32771  35.080  31.567   0.801
60347W        W32772  43.344  38.915   4.319
60348W        W32773  36.031  24.525  14.523
60349W        W32774  40.343  39.849  14.377
60350W        W32775   3.204  28.640   2.394
60351W        W32776  24.372  25.000   0.719
60352W        W32777  30.615   3.226  11.092
60353W        W32778  32.153  33.086   4.178
60354W        W32779  32.931   7.918  10.742
60355W        W32780  24.194  18.481  13.030
60356W        W32781  43.797  31.656  14.247
60357W        W32782  33.775  21.099   1.010
60358W        W32783  19.358  25.107  11.539
60359W        W32784  30.166  43.765   4.228
60360W        W32785  37.599  33.821  14.900
60361W        W32786  24.526   3.362  10.916
60362W        W32787  35.521  24.425  14.487
60363W        W32788  13.788  15.174   2.318
60364W        W32789  22.463  33.942  13.889
60365W        W32790   4.239  36.979  11.082
60366W        W32791  21.293  40.771   3.236
60367W        W32792  42.447   3.316  13.857
60368W        W32793  40.862  39.025   3.236
60369W        W32794  30.003  27.517   3.292
60370W        W32795  12.271  42.391  12.506
60371W        W32796   3.971   9.296  14.799
60372W        W32797  10.021  13.611   1.799
60373W        W32798  14.019  11.903  13.439
60374W        W32799  10.662  11.244   3.672
60375W        W32800  23.212  19.732  12.040
60376W        W32801  22.023   3.812  14.119
60377W        W32802  21.124  11.797  13.587
60378W        W32803  19.985  26.665  10.537
60379W        W32804   8.329   3.414  10.285
60380W        W32805  13.705  28.321   0.084
60381W        W32806  19.806  10.369  10.578
60382W        W32807  24.210  40.497  13.941
60383W        W32808  10.756   6.592   0.771
60384W        W32809  14.629  41.340   1.691
60385W        W32810  21.918  40.531   4.078
60386W        W32811   1.433  14.313  13.514
60387W        W32812  38.608   4.874  10.462
60388W        W32813  28.644  11.124  14.018
60389W        W32814  22.109  13.437   2.471
60390W        W32815  17.363   3.487  13.553
60391W        W32816   6.437  37.753  14.485
60392W        W32817  16.568  38.863   0.221
60393W        W32818  21.135  36.974  14.005
60394W        W32819  33.360  41.119   1.772
60395W        W32820   2.046   4.880   2.233
60396W        W32821  24.900  20.657   4.782
60397W        W32822  12.065  35.656   2.157
60398W        W32823  31.381   5.654  10.726
60399W        W32824  23.101  10.525  14.375
60400W        W32825  35.744  42.502  13.928
60401W        W32826  13.158  13.755   4.103
60402W        W32827  17.022  23.075  10.180
60403W        W32828  25.889  25.163   3.603
60404W        W32829  31.941  35.880   2.764
60405W        W32830  33.547  20.250   3.600
60406W        W32831  31.564  29.723   1.748
60407W        W32832  37.021  29.597  13.417
60408W        W32833  36.442  16.096   1.810
60409W        W32834   7.836   7.013   1.940
60410W        W32835  31.685  17.183   2.807
60411W        W32836  21.686  30.371  13.651
60412W        W32837  12.778  23.079  10.514
60413W        W32838  34.425  44.691  12.150
60414W        W32839   4.302  17.813   2.753
60415W        W32840  28.157  27.188  13.338
60416W        W32841  25.082  14.860   4.178
60417W        W32842  36.860  16.077  13.459
60418W        W32843  34.124  23.894   1.609
60419W        W32844   6.618  13.234   1.243
60420W        W32845   0.254  35.870  10.638
60421W        W32846  32.846  41.002   1.825
60422W        W32847  33.731  44.402   1.425
60423W        W32848   6.885   9.463   4.321
60424W        W32849  29.717  28.518   1.493
60425W        W32850  29.170  41.867   4.601
60426W        W32851  35.468  19.641   0.270
60427W        W32852  26.687  20.203   4.030
60428W        W32853  20.545  12.318  13.996
60429W        W32854  13.097  41.747  14.052
60430W        W32855  43.894  29.611   4.447
60431W        W32856  33.115   5.652   2.700
60432W        W32857  31.926  26.257   2.093
60433W        W32858  20.652  30.953  13.334
60434W        W32859  30.700  33.598   0.771
60435W        W32860  23.219  14.814  12.103
60436W        W32861  10.915  36.459  11.405
60437W        W32862  14.877   9.386   1.444
60438W        W32863  32.974   0.869  13.299
60439W        W32864  11.653   5.856   2.440
60440W        W32865  33.574  11.728  10.468
60441W        W32866  13.524  10.720  13.869
60442W        W32867  41.311  31.091   2.144
60443W        W32868   6.794  22.909   4.072
60444W        W32869  37.583  38.115   2.412
60445W        W32870  15.305  17.066   4.570
60446W        W32871   7.770  29.172  14.269
60447W        W32872   5.195  36.880  13.302
60448W        W32873  31.520  42.005  11.207
60449W        W32874   8.126  23.346   4.082
60450W        W32875  42.534  27.736  13.118
60451W        W32876  43.383  22.125   4.083
60452W        W32877  12.093  39.358   2.787
60453W        W32878  19.121  34.458   1.197
60454W        W32879  16.685   0.194  11.552
60455W        W32880  39.473  17.074  13.112
60456W        W32881  35.042  24.145   2.462
60457W        W32882  41.267  20.694  12.947
60458W        W32883  19.799  34.449  11.539
60459W        W32884  24.577  27.705   0.792
60460W        W32885   1.247  30.182  13.338
60461W        W32886   2.284  24.862   5.020
60462W        W32887   4.415   5.732   2.369
60463W        W32888  21.768  25.563   3.731
60464W        W32889  23.993  10.337   1.250
60465W        W32890   3.866   1.237   4.524
60466W        W32891  39.354   1.891   3.556
60467W        W32892   0.334  18.599   1.848
60468W        W32893  15.364  19.218  12.010
60469W        W32894  28.115  30.029  10.299
60470W        W32895  31.240   9.574  14.969
60471W        W32896  21.197  15.976  14.761
60472W        W32897  38.359  22.523  10.827
60473W        W32898  19.591  12.051   3.709
60474W        W32899   8.332  28.297  11.217
60475W        W32900   7.866  24.919   2.243
60476W        W32901  30.752  17.701  11.009
60477W        W32902  35.360  34.914   0.848
60478W        W32903   5.449  25.171   4.116
60479W        W32904  12.140  13.375   3.783
60480W        W32905  15.700  12.804   0.738
60481W        W32906  20.584  40.947   2.582
60482W        W32907  13.549  37.642  13.709
60483W        W32908   5.683  35.619   4.706
60484W        W32909   9.909   1.023   0.921
60485W        W32910  20.201  44.774  11.155
60486W        W32911  43.442   2.285  11.555
60487W        W32912  14.546   6.354   4.731
60488W        W32913  29.625   7.446   1.377
60489W        W32914  44.545  36.050  14.870
60490W        W32915  34.846  21.229  10.774
60491W        W32916  22.400  38.663   5.098
60492W        W32917   3.421  28.582   4.355
60493W        W32918  23.710   6.241   2.276
60494W        W32919  35.379  15.565   4.280
60495W        W32920  20.740  34.823   2.562
60496W        W32921  22.194   9.426   1.888
60497W        W32922  30.018  43.849  13.230
60498W        W32923  40.523  26.759  10.632
60499W        W32924   4.041   8.624  12.193
60500W        W32925  41.297  22.686   4.381
60501W        W32926   1.456  24.424  13.781
60502W        W32927  26.674  10.267   1.774
60503W        W32928  25.065  36.035   1.244
60504W        W32929  39.934  10.630   3.790
60505W        W32930  32.849  39.634  14.875
60506W        W32931  32.918  13.066  12.354
60507W        W32932  25.410  24.419   2.349
60508W        W32933  16.714  12.626  11.084
60509W        W32934  14.787  23.085  12.840
60510W        W32935  29.322  23.076   4.785
60511W        W32936  43.834  25.222   1.691
60512W        W32937  16.110  16.716  10.385
60513W        W32938  29.461  42.353  12.909
60514W        W32939  10.832  25.532  11.585
60515W        W32940  11.346  38.248  14.636
60516W        W32941  42.768  34.324  14.885
60517W        W32942  37.504   5.544   1.392
60518W        W32943  22.112  13.985  14.322
60519W        W32944   9.659   5.974  10.593
60520W        W32945  42.352  24.326  12.049
60521W        W32946  25.466  42.106  11.125
60522W        W32947  14.886  28.369   1.647
60523W        W32948  26.597  28.917   2.348
60524W        W32949   2.566  17.696   1.612
60525W        W32950  29.023  34.001  12.450
60526W        W32951  34.128  43.947  12.517
60527W        W32952   9.298   0.175  13.399
60528W        W32953  36.226  38.632   4.230
60529W        W32954  42.161  23.457  11.513
60530W        W32955   1.206   2.019  11.774
60531W        W32956  41.268  12.352   4.213
60532W        W32957  11.548  11.645   2.724
60533W        W32958  40.684  26.470  11.560
60534W        W32959  34.593  32.216   3.838
60535W        W32960  15.295  18.587   0.738
60536W        W32961  17.817  32.968   0.215
60537W        W32962  27.185  16.269   1.072
60538W        W32963  15.615   1.928   1.622
60539W        W32964  11.661  28.491  11.535
60540W        W32965   4.722  11.082   4.727
60541W        W32966  23.248  32.354  14.240
60542W        W32967  41.820  23.592  13.636
60543W        W32968  24.438  16.742   0.055
60544W        W32969  25.561   2.557  11.145
60545W        W32970  43.089  13.238   5.227
60546W        W32971   1.491   7.230   0.676
60547W        W32972  15.376  12.334  11.059
60548W        W32973  36.887   1.412   3.402
60549W        W32974  37.371   3.776   3.236
60550W        W32975  15.382   1.408   0.963
60551W        W32976  32.588  40.926   3.337
60552W        W32977  24.901  21.671  14.922
60553W        W32978  29.406  20.641  13.378
60554W        W32979  25.966  32.505   0.702
60555W        W32980  19.817  23.204  11.905
60556W        W32981   0.601  27.034   3.832
60557W        W32982   5.837  17.052   2.283
60558W        W32983  32.546  35.925  14.285
60559W        W32984   8.129  15.853  12.020
60560W        W32985  11.948  14.584   2.446
60561W        W32986  34.029  36.788  13.364
60562W        W32987  20.972  22.608  14.330
60563W        W32988  24.576  26.212  14.828
60564W        W32989   6.907  12.083   3.861
60565W        W32990  31.934  38.409  12.967
60566W        W32991   8.934   1.679  13.382
60567W        W32992  12.264  35.951  12.686
60568W        W32993  36.938  23.185   3.199
60569W        W32994  17.552  30.477  11.135
60570W        W32995  31.164   6.415  12.901
60571W        W32996  29.418  39.582   3.244
60572W        W32997  22.969  27.184  13.839
60573W        W32998  21.312  28.068  13.970
60574W        W32999  12.862  18.690   4.796
60575W        W33000  11.774  18.845   0.069
60576W        W33001  19.491  30.821  13.084
60577W        W33002  41.770  10.493   2.589
60578W        W33003   4.084  37.113   3.294
60579W        W33004  31.989  22.337  12.100
60580W        W33005  44.683  44.494   2.825
60581W        W33006  11.268  19.720   4.371
60582W        W33007  26.958  11.313   3.681
60583W        W33008  25.931  32.420   2.048
60584W        W33009  44.240   1.540   1.707
60585W        W33010  23.303  33.637   1.874
60586W        W33011  29.716  44.632  14.477
60587W        W33012  42.094  43.904  13.002
60588W        W33013  17.095  19.536   0.014
60589W        W33014   7.432  15.580  10.747
60590W        W33015  28.182   8.300   0.358
60591W        W33016  43.028  10.897   1.653
60592W        W33017  21.471  29.715   0.372
60593W        W33018  39.314   2.052  14.282
60594W        W33019   8.915  43.824  12.519
60595W        W33020  19.495  30.379   0.528
60596W        W33021  13.010  17.693  10.626
60597W        W33022   7.134   1.412   3.862
60598W        W33023   2.914  24.423  11.916
60599W        W33024  37.129  38.195  12.976
60600W        W33025  24.681   7.314  13.021
60601W        W33026  21.706  23.814   4.961
60602W        W33027  29.945  15.732  12.290
60603W        W33028  43.393  23.081   4.726
60604W        W33029  27.427  22.028  11.354
60605W        W33030   7.606  36.526   1.225
60606W        W33031  35.647  18.048   2.345
60607W        W33032  40.154  22.592   2.805
60608W        W33033  23.438  30.813   4.526
60609W        W33034  41.580  14.890   1.879
60610W        W33035  13.584   5.452   3.270
60611W        W33036  16.592  26.644   0.562
60612W        W33037  43.732  31.457  14.706
60613W        W33038   8.425  10.802  13.017
60614W        W33039   6.466   4.882   0.322
60615W        W33040   6.658  35.483   2.163
60616W        W33041   5.381  40.068  12.897
60617W        W33042   7.825  36.445   2.806
60618W        W33043   0.662  22.596  11.413
60619W        W33044  13.167   1.242   1.579
60620W        W33045  15.742  41.466  14.867
60621W        W33046  22.504  41.158   9.835
60622W        W33047   2.967  25.548  13.091
60623W        W33048  19.440  31.427   2.770
60624W        W33049  26.527  24.266  12.982
60625W        W33050  40.437  10.453  10.695
60626W        W33051  28.227  24.918  12.119
60627W        W33052  14.273   6.752   2.604
60628W        W33053  31.550  38.132  13.947
60629W        W33054   8.339  24.149   0.041
60630W        W33055  22.211  11.103  13.005
60631W        W33056  16.639   4.892   4.692
60632W        W33057  38.545   3.866  12.890
60633W        W33058  16.384  20.988   0.807
60634W        W33059   6.881   6.745  13.798
60635W        W33060  21.068  36.539   4.147
60636W        W33061  20.633   7.952  13.833
60637W        W33062   8.452  37.675   1.716
60638W        W33063  18.718  43.812  13.319
60639W        W33064  36.153  10.646  11.871
60640W        W33065  44.907   8.622  14.432
60641W        W33066  12.810   9.700  12.945
60642W        W33067  24.019   8.334   4.149
60643W        W33068  21.776  13.616  10.568
60644W        W33069  28.761  40.905  11.941
60645W        W33070  18.067  34.595   2.267
60646W        W33071  27.469   8.602  13.926
60647W        W33072  36.205  41.590  12.926
60648W        W33073  13.586  25.595   2.118
60649W        W33074  29.519  22.741  13.333
60650W        W33075  28.997  40.509   3.084
60651W        W33076  11.256  16.665   2.351
60652W        W33077  39.807  12.638  10.861
60653W        W33078   2.522   8.185   4.699
60654W        W33079  16.821  20.441  13.295
60655W        W33080  23.914  10.914   3.240
60656W        W33081  32.916  19.023  12.458
60657W        W33082  31.897  31.075   4.075
60658W        W33083  11.344  17.808   0.824
60659W        W33084  29.041  14.630   4.433
60660W        W33085  27.716  40.888  11.970
60661W        W33086  14.662  17.298  12.480
60662W        W33087  13.090   8.721   2.740
60663W        W33088  15.983  27.373  11.641
60664W        W33089  41.319  17.777   4.737
60665W        W33090  25.496  16.184  12.498
60666W        W33091   7.858   7.724  10.218
60667W        W33092  36.951  10.388   1.442
60668W        W33093  31.291  23.718  14.585
60669W        W33094  34.382  25.055  11.344
60670W        W33095  19.237  39.685   1.169
60671W        W33096   5.388   5.593   4.651
60672W        W33097  15.668  31.534   3.878
60673W        W33098  33.307  13.264  14.787
60674W        W33099  16.202   3.713   4.755
60675W        W33100  34.449  34.335  11.446
60676W        W33101  37.358  10.242  11.381
60677W        W33102  23.213  43.739  10.936
60678W        W33103  24.044   6.200  14.555
60679W        W33104  25.852  28.512  12.554
60680W        W33105   5.780  39.517  14.906
60681W        W33106  27.818   5.728  11.133
60682W        W33107  40.371  43.363  13.872
60683W        W33108  21.629  12.718  12.084
60684W        W33109   3.279  42.436  10.673
60685W        W33110  36.893  17.690  14.348
60686W        W33111  13.041  22.859   3.723
60687W        W33112  41.098  44.476   3.599
60688W        W33113   1.987  32.918  10.922
60689W        W33114  37.583  21.477  10.707
60690W        W33115   3.467  37.571  13.945
60691W        W33116  39.929  21.733  14.360
60692W        W33117   3.036  28.152   1.227
60693W        W33118   6.873  42.518  14.524
60694W        W33119   1.594  11.420  14.467
60695W        W33120  35.368  21.453   1.416
60696W        W33121   1.427  41.999  12.015
60697W        W33122  21.254   0.849  12.929
60698W        W33123   4.187  44.024  11.281
60699W        W33124  12.857  25.764   2.919
60700W        W33125   3.707   8.261  13.327
60701W        W33126  31.882  25.471  11.915
60702W        W33127   5.744  16.111  13.517
60703W        W33128  28.385  24.483  14.808
60704W        W33129   4.863  11.286  14.369
60705W        W33130  13.598  21.722   5.098
60706W        W33131  26.431  30.878  11.532
60707W        W33132   7.962  23.742   0.750
60708W        W33133   0.320  13.184   2.211
60709W        W33134  10.776  38.301   0.324
60710W        W33135   1.968  16.263  13.992
60711W        W33136  28.215  35.480  14.323
60712W        W33137   7.264  21.662  14.302
60713W        W33138   3.058  44.857   1.837
60714W        W33139  31.841  30.903  12.992
60715W        W33140  22.219   5.803   1.662
60716W        W33141  42.293  43.095  11.814
60717W        W33142   9.403  11.443   2.879
60718W        W33143   7.104  12.183  10.830
60719W        W33144   3.446  13.911   1.663
60720W        W33145   0.232  35.305   2.692
60721W        W33146  22.268   5.305  11.824
60722W        W33147  30.988  27.458  14.040
60723W        W33148  10.307  38.249  13.924
60724W        W33149  14.364  19.295  11.729
60725W        W33150  32.734   4.805  14.977
60726W        W33151  18.996  33.324  12.858
60727W        W33152   4.754  26.214  10.506
60728W        W33153   0.411  42.185   2.209
60729W        W33154  11.356  27.518   4.404
60730W        W33155   0.528  13.777   3.350
60731W        W33156  38.939  36.480   3.209
60732W        W33157   8.672  16.832   3.262
60733W        W33158  40.095   0.783   4.667
60734W        W33159  17.588   6.253   2.494
60735W        W33160  10.669  16.247  14.351
60736W        W33161  43.501  34.174   3.231
60737W        W33162  12.755  26.765   0.211
60738W        W33163  41.897  31.395  13.883
60739W        W33164  32.474  16.453   2.420
60740W        W33165  18.193  26.322   1.406
60741W        W33166  28.029  15.333  10.913
60742W        W33167   9.377   6.624   0.258
60743W        W33168  35.654  35.868  14.511
60744W        W33169  13.771   4.699  14.885
60745W        W33170  27.027   6.855   3.616
60746W        W33171  20.131  24.419   3.176
60747W        W33172   0.970  22.127  14.936
60748W        W33173   4.848  30.884   3.755
60749W        W33174   9.932  26.976  12.523
60750W        W33175  24.521   7.681  10.992
60751W        W33176  24.701   8.723   3.584
60752W        W33177   5.004   1.239  12.421
60753W        W33178  41.721  16.189   2.334
60754W        W33179   5.698  31.921   4.139
60755W        W33180  27.289  32.736   1.003
60756W        W33181  30.920  41.007  10.725
60757W        W33182  42.517  22.843  13.096
60758W        W33183  11.879  10.681  10.445
60759W        W33184   4.837  35.363  11.584
60760W        W33185  30.086   0.601   3.831
60761W        W33186  22.536   7.596  13.871
60762W        W33187  18.378  26.612   5.051
60763W        W33188  28.077  39.582  11.639
60764W        W33189  17.531  23.758   1.515
60765W        W33190  26.100  26.194   3.261
60766W        W33191  39.078   9.298  10.517
60767W        W33192  35.715   4.781  12.121
60768W        W33193  23.165  10.214  11.878
60769W        W33194   2.010  28.363   1.874
60770W        W33195  10.237   8.626  11.624
60771W        W33196  30.585  26.609  12.489
60772W        W33197   4.192  39.980   1.264
60773W        W33198   1.496  14.128  11.020
60774W        W33199  30.463  16.357  10.287
60775W        W33200  31.409  40.275  11.871
60776W        W33201   6.082  19.779   3.606
60777W        W33202  18.574  39.423   2.305
60778W        W33203  10.598   8.702   1.422
60779W        W33204  44.902  23.973   3.290
60780W        W33205  16.633  29.681   1.990
60781W        W33206   0.825  33.057  12.909
60782W        W33207  14.924   3.286  12.580
60783W        W33208   1.356  20.707   4.416
60784W        W33209  36.576  39.442   2.431
60785W        W33210  19.865  10.389  14.327
60786W        W33211  29.570  41.475  14.650
60787W        W33212  21.008  23.200   4.203
60788W        W33213  25.169  35.959   2.176
60789W        W33214  35.940   5.170  10.553
60790W        W33215   2.388  39.916   0.285
60791W        W33216  33.679  18.200   3.135
60792W        W33217  21.178  31.210   4.333
60793W        W33218  25.088   7.215   2.147
60794W        W33219  37.703  20.721  11.349
60795W        W33220  35.314  20.413   1.497
60796W        W33221  22.981   9.353  11.427
60797W        W33222   4.053  35.960   2.145
60798W        W33223  29.469  31.192  11.538
60799W        W33224  13.156  19.564  12.411
60800W        W33225   1.127  43.333  13.306
60801W        W33226  23.337   9.394   4.283
60802W        W33227  32.485  17.009  13.863
60803W        W33228  22.557  15.621  12.033
60804W        W33229  39.317  22.962  13.225
60805W        W33230  33.079   4.932  12.385
60806W        W33231   8.786  13.376  13.538
60807W        W33232  37.117  24.046  13.982
60808W        W33233  43.293  41.377  14.731
60809W        W33234   3.277  40.352  13.592
60810W        W33235  20.074  15.192  11.618
60811W        W33236   1.789  34.003  12.340
60812W        W33237  43.137  37.924  12.967
60813W        W33238  43.619  43.113   4.013
60814W        W33239  31.040   6.224  11.535
60815W        W33240   8.139   5.744  10.973
60816W        W33241   6.944  26.218  14.123
60817W        W33242   9.833   9.334   5.478
60818W        W33243  35.558  17.778   3.060
60819W        W33244  41.859  11.350   0.140
60820W        W33245  30.149  21.081  11.071
60821W        W33246  35.731  34.655  13.017
60822W        W33247  25.462  22.642   2.698
60823W        W33248  15.625  44.207  11.690
60824W        W33249  28.398  33.580  12.952
60825W        W33250  24.079  17.715  14.985
60826W        W33251  10.167  33.178   4.556
60827W        W33252   4.775  24.190   3.797
60828W        W33253  34.311  20.244   3.098
60829W        W33254   1.147   7.483  11.963
60830W        W33255   5.759  27.622   1.832
60831W        W33256  17.637  34.251  10.480
60832W        W33257  28.442  36.729   3.253
60833W        W33258  39.341  21.607  12.070
60834W        W33259  15.694   8.268  14.084
60835W        W33260  42.296  17.082   0.877
60836W        W33261  20.300  32.769  10.569
60837W        W33262  25.132  25.380  12.843
60838W        W33263  39.956  43.628  13.750
60839W        W33264  41.796  12.596   0.739
60840W        W33265  43.923  34.853  13.929
60841W        W33266  23.618  23.172  13.478
60842W        W33267  17.735  10.224  13.769
60843W        W33268  37.041   5.512  14.309
60844W        W33269  40.501  13.300  14.932
60845W        W33270  38.314  20.480   4.088
60846W        W33271  14.540  27.207   5.112
60847W        W33272  20.557  36.606  12.008
60848W        W33273  18.628  23.906  11.204
60849W        W33274  22.142  37.934   0.846
60850W        W33275   1.337   4.517   9.876
60851W        W33276  36.599  28.944   4.571
60852W        W33277  13.605  33.089   0.298
60853W        W33278  37.397  32.938  14.987
60854W        W33279  30.679  27.031  11.537
60855W        W33280  31.723   7.009   0.225
60856W        W33281  33.069  35.661   1.118
60857W        W33282  33.869  44.868  13.709
60858W        W33283  33.137  15.767   2.097
60859W        W33284  15.889  11.790   2.661
60860W        W33285  28.050  14.744  11.578
60861W        W33286  14.081  30.711   3.791
60862W        W33287  10.899  19.611  12.506
60863W        W33288  19.632  21.718  12.620
60864W        W33289  38.087  11.768  14.819
60865W        W33290  34.366   7.089   4.636
60866W        W33291  34.100  20.699   0.920
60867W        W33292  12.806   3.698   0.369
60868W        W33293  32.312  44.922   0.309
60869W        W33294  29.861  29.511   3.406
60870W        W33295  11.553  44.248  12.258
60871W        W33296  26.508   0.782   5.088
60872W        W33297  12.847  40.913   1.354
60873W        W33298   1.969  15.509  12.061
60874W        W33299  38.068  33.218  12.142
60875W        W33300  37.115  33.103  11.270
60876W        W33301  38.809  40.983  12.498
60877W        W33302  34.774  17.642  10.949
60878W        W33303  19.478  25.414   0.371
60879W        W33304  10.474  23.876  12.087
60880W        W33305  12.395   5.852  12.857
60881W        W33306  31.314  18.095  13.563
60882W        W33307   7.888   0.251   3.755
60883W        W33308   7.644   7.869   0.888
60884W        W33309  25.369  40.370  13.445
60885W        W33310  41.986  22.898   2.680
60886W        W33311   6.951  27.511   2.865
60887W        W33312  38.492  44.590  12.027
60888W        W33313  22.097  10.168  13.755
60889W        W33314  36.606  16.548   4.101
60890W        W33315   2.949  21.650  14.015
60891W        W33316  37.823  16.202   3.056
60892W        W33317  18.176  29.895   5.440
60893W        W33318  39.480  10.095  10.024
60894W        W33319  28.726  44.028  11.023
60895W        W33320   8.999  10.671   2.773
60896W        W33321  35.109  17.748   2.754
60897W        W33322  16.688  42.441   1.791
60898W        W33323   6.293  25.461  13.846
60899W        W33324  15.055  32.029   4.863
60900W        W33325  29.000  39.385  13.635
60901W        W33326   8.243  10.371   0.041
60902W        W33327  29.336  37.961  12.114
60903W        W33328  10.653  41.185   5.004
60904W        W33329  18.558  23.964   2.199
60905W        W33330  11.334  19.749   4.887
60906W        W33331  38.990  43.206   5.179
60907W        W33332  38.377   5.119   4.113
60908W        W33333  34.539  20.693  12.782
60909W        W33334  30.153  40.005  12.602
60910W        W33335   1.152  18.202   1.815
60911W        W33336  29.202  19.744   0.819
60912W        W33337   7.697  18.959   1.196
60913W        W33338  43.854  15.725   4.889
60914W        W33339  38.065  21.093   2.425
60915W        W33340  36.109  16.169  13.956
60916W        W33341  39.329  24.657   4.477
60917W        W33342  28.095  22.702   1.546
60918W        W33343  10.821  23.903   3.456
60919W        W33344  10.631  14.618  12.497
60920W        W33345  11.616  21.671  13.001
60921W        W33346  39.868  16.553   0.740
60922W        W33347  15.067  41.556   1.417
60923W        W33348  44.782  39.774  13.980
60924W        W33349  17.132  36.204  11.198
60925W        W33350  41.285  41.877   0.354
60926W        W33351  31.020   8.764   4.206
60927W        W33352  16.526   7.746  11.586
60928W        W33353  43.890  18.225   1.947
60929W        W33354  28.962  15.278   2.669
60930W        W33355   6.661  41.970   0.426
60931W        W33356  17.170  13.569  10.436
60932W        W33357   7.141  12.827  14.328
60933W        W33358  12.356   6.266   0.418
60934W        W33359  29.111   4.908   1.689
60935W        W33360  13.969   1.945   1.008
60936W        W33361  35.061  16.129  11.420
60937W        W33362  19.045  24.598   3.728
60938W        W33363  19.298  27.545  12.338
60939W        W33364  22.011   1.472  14.000
60940W        W33365   4.563  31.163   4.635
60941W        W33366  17.562  31.996   3.690
60942W        W33367  44.739  25.132   2.789
60943W        W33368  43.971  24.202   1.399
60944W        W33369   6.058   3.366  13.346
60945W        W33370  13.474  22.881  13.188
60946W        W33371  38.021  43.117   5.103
60947W        W33372  23.075  40.409   2.926
60948W        W33373  13.906  20.570  13.022
60949W        W33374   4.081   0.374  13.440
60950W        W33375  20.128  19.251  12.081
60951W        W33376  42.063  12.328   4.663
60952W        W33377  26.195   0.398  13.570
60953W        W33378   9.150  21.057  11.087
60954W        W33379  26.226  31.059  10.318
60955W        W33380   0.295  35.620   3.140
60956W        W33381  21.223   1.913   1.852
60957W        W33382   2.881   8.844   1.954
60958W        W33383  42.939   5.170   4.130
60959W        W33384  35.605  16.481  14.815
60960W        W33385  19.520  27.691  13.880
60961W        W33386  28.719  38.051  14.338
60962W        W33387  24.202  30.784  14.925
60963W        W33388  18.121   8.759   2.832
60964W        W33389  32.342   4.001   4.100
60965W        W33390  11.694  39.559  12.931
60966W        W33391  40.514   3.398   3.654
60967W        W33392  40.277   1.766  14.391
60968W        W33393  28.657  23.973  13.987
60969W        W33394  28.400   0.574   0.922
60970W        W33395  37.743   6.915  10.918
60971W        W33396  35.003  27.509  14.294
60972W        W33397  19.710   0.470   1.410
60973W        W33398   3.246  34.655   1.332
60974W        W33399  14.236  35.797  14.597
60975W        W33400  34.667   8.220  12.784
60976W        W33401  22.032  32.655   2.831
60977W        W33402  11.901   7.205  14.527
60978W        W33403  43.545  22.324   3.070
60979W        W33404  12.169   5.930   4.136
60980W        W33405  29.985  21.503  10.835
60981W        W33406  25.489  25.591  12.484
60982W        W33407   7.739  25.916   2.333
60983W        W33408  40.075  21.447  13.370
60984W        W33409  26.575  23.475   0.090
60985W        W33410  31.667  10.744  12.421
60986W        W33411   4.158   0.693  13.050
60987W        W33412  11.191  25.193  13.453
60988W        W33413  34.001  23.225   0.185
60989W        W33414  11.757   6.631   2.928
60990W        W33415  28.494  35.421  10.764
60991W        W33416   8.144  15.268   1.741
60992W        W33417  25.137   7.592   0.322
60993W        W33418  10.227  21.752   0.383
60994W        W33419   1.866  29.429   0.986
60995W        W33420  32.807  37.473  11.598
60996W        W33421   5.554  39.453   3.936
60997W        W33422  12.235   5.150  14.766
60998W        W33423  22.274  21.092   0.422
60999W        W33424  23.055  41.034  11.044
61000W        W33425  44.392  24.478  13.400
61001W        W33426  36.280  16.655   1.760
61002W        W33427  17.897  17.212  12.035
61003W        W33428  21.505  20.740   3.422
61004W        W33429  16.635  42.653  10.724
61005W        W33430  12.248   2.807  13.072
61006W        W33431  16.729  13.317   4.523
61007W        W33432  21.757  44.806   0.949
61008W        W33433  13.834  10.295  14.074
61009W        W33434  12.547  14.610   1.688
61010W        W33435  41.456   6.626  14.777
61011W        W33436  24.745  27.123  11.076
61012W        W33437  29.441   6.933   4.571
61013W        W33438  39.808  43.304  14.913
61014W        W33439  29.583  12.557   3.837
61015W        W33440  28.463  15.162  14.524
61016W        W33441  22.023  16.616   3.446
61017W        W33442  25.558  41.104  12.925
61018W        W33443  19.068  10.304   1.460
61019W        W33444  16.507  44.265   4.585
61020W        W33445   5.328  41.712  14.901
61021W        W33446   8.206  16.264   0.644
61022W        W33447  10.579  44.416   9.661
61023W        W33448  37.113  28.668   3.690
61024W        W33449  33.562  18.756  13.442
61025W        W33450  42.176  34.379  11.459
61026W        W33451  28.144  36.999  12.841
61027W        W33452   9.409  11.860   1.947
61028W        W33453  39.305  25.724  13.236
61029W        W33454  38.860  24.470   3.636
61030W        W33455  31.627   9.212   0.029
61031W        W33456   6.670   1.542  11.523
61032W        W33457  22.542  30.018  10.622
61033W        W33458  34.849  21.105  11.587
61034W        W33459  41.418  20.549  11.178
61035W        W33460  13.321  27.117  12.304
61036W        W33461  36.039  44.813  14.858
61037W        W33462  23.790  29.885  11.720
61038W        W33463   1.860  28.002   3.232
61039W        W33464  42.224  23.206  12.463
61040W        W33465   6.640  20.721   0.991
61041W        W33466  41.292  15.335   0.781
61042W        W33467  44.485   5.933   3.287
61043W        W33468  22.000  33.528  12.579
61044W        W33469  36.370  25.497  14.375
61045W        W33470  25.181  44.878  10.411
61046W        W33471  25.231  18.255  11.953
61047W        W33472  20.802  19.702   2.317
61048W        W33473  11.884  19.993   0.350
61049W        W33474  30.377   3.869   1.294
61050W        W33475  13.767  28.903  11.831
61051W        W33476  41.863  31.378   4.139
61052W        W33477  13.383   2.790   0.794
61053W        W33478   4.866  28.167   5.087
61054W        W33479   2.259  15.535  11.619
61055W        W33480  12.693  26.601   2.229
61056W        W33481  29.222  20.634   3.166
61057W        W33482  37.097  27.481  13.834
61058W        W33483  37.507  24.848   5.199
61059W        W33484  13.368  26.917  11.001
61060W        W33485  25.850  37.834   2.843
61061W        W33486  31.852  15.262   4.026
61062W        W33487  32.706  41.157   1.323
61063W        W33488   0.728  18.597   3.190
61064W        W33489  14.723  36.516   4.044
61065W        W33490  21.245   6.250  14.106
61066W        W33491  21.234   7.255  14.368
61067W        W33492  28.035   3.907   0.781
61068W        W33493  39.603  18.737   1.357
61069W        W33494  38.321   5.652  11.515
61070W        W33495  36.051  39.305  14.818
61071W        W33496  29.944  31.556  12.165
61072W        W33497   1.761  43.348  12.090
61073W        W33498  41.157  33.350   0.788
61074W        W33499  38.993  38.386  12.582
61075W        W33500  17.714  35.984  14.354
61076W        W33501   6.930   9.408  13.371
61077W        W33502  39.498  40.921  13.983
61078W        W33503  11.434  43.997   3.633
61079W        W33504  32.084  14.782  14.473
61080W        W33505  13.793  12.685  14.500
61081W        W33506  43.763  41.753   1.263
61082W        W33507  31.647   7.194  13.047
61083W        W33508  33.089   2.863  13.249
61084W        W33509  19.535   8.781  13.814
61085W        W33510   7.153  44.274   3.307
61086W        W33511   3.886   6.863  11.155
61087W        W33512  26.585  19.313   1.269
61088W        W33513  11.162  33.429   1.401
61089W        W33514  35.260  13.730  12.050
61090W        W33515   6.785  39.419   1.937
61091W        W33516  19.669  27.124   2.333
61092W        W33517  40.519  41.449  12.959
61093W        W33518  28.161  38.331   0.776
61094W        W33519  12.125  35.427  10.956
61095W        W33520  36.127  21.194   1.212
61096W        W33521  41.841  29.982   0.403
61097W        W33522  41.403  24.081   4.685
61098W        W33523  18.277  25.472  13.820
61099W        W33524  21.981  28.056   2.584
61100W        W33525  11.827  13.340   4.175
61101W        W33526  14.825  18.412  10.998
61102W        W33527  38.464  25.513   3.247
61103W        W33528   8.516  24.262  11.227
61104W        W33529  42.269  34.069  14.905
61105W        W33530  16.478  13.685   2.924
61106W        W33531  41.443  13.824   0.777
61107W        W33532  12.283  33.380  12.926
61108W        W33533  32.777  31.856   3.604
61109W        W33534  41.939  40.481   4.752
61110W        W33535   4.863  17.129   1.928
61111W        W33536   5.845  40.841   1.458
61112W        W33537  22.928   2.213   3.158
61113W        W33538  22.946  19.990  11.687
61114W        W33539  26.092  11.979   4.965
61115W        W33540  31.470  28.700   2.535
61116W        W33541  33.764  22.656   5.115
61117W        W33542  17.029  43.447   0.670
61118W        W33543  12.555   4.373   3.703
61119W        W33544  42.309  33.856  11.143
61120W        W33545   6.620  30.051   0.890
61121W        W33546  44.030  31.657   0.051
61122W        W33547  29.379   3.788   4.254
61123W        W33548  31.104  16.580   4.481
61124W        W33549  43.258  15.189   4.963
61125W        W33550  31.245  38.074  13.509
61126W        W33551  12.681   4.644  12.501
61127W        W33552  37.319  22.450   1.887
61128W        W33553   7.581  25.104  14.444
61129W        W33554  41.168  19.085  11.637
61130W        W33555  28.451   1.661  12.900
61131W        W33556  13.216  31.337  12.909
61132W        W33557   2.977   5.475  11.091
61133W        W33558   9.919   0.682  12.113
61134W        W33559  44.020  24.638   2.749
61135W        W33560   1.454  37.433  11.623
61136W        W33561  41.016  22.685  14.436
61137W        W33562   2.770  11.387   4.853
61138W        W33563  10.409  27.727  13.796
61139W        W33564  16.232  35.205   2.431
61140W        W33565  16.130  39.853  10.713
61141W        W33566  43.406  30.904  13.342
61142W        W33567  22.022  24.196  13.494
61143W        W33568  29.531  17.072  14.513
61144W        W33569  35.074  13.022   3.785
61145W        W33570  41.639  12.527  12.009
61146W        W33571  30.422   4.333  11.637
61147W        W33572  40.303  15.311   3.660
61148W        W33573  14.851   4.234   4.847
61149W        W33574  18.635  17.885  13.887
61150W        W33575  41.712  35.558   1.299
61151W        W33576  34.816   1.880   1.229
61152W        W33577  42.514  21.277  13.859
61153W        W33578  22.823  15.219  10.749
61154W        W33579  40.746  11.979  14.979
61155W        W33580  18.135   1.790  13.032
61156W        W33581  27.998  32.445  11.144
61157W        W33582  16.872  34.028   0.925
61158W        W33583  42.740  37.392  11.268
61159W        W33584  15.141  10.885  12.446
61160W        W33585  36.542  18.435  12.930
61161W        W33586  18.171  26.046   2.359
61162W        W33587   0.451   7.559  14.942
61163W        W33588  40.147   0.900   4.156
61164W        W33589  31.856   4.935  14.478
61165W        W33590  37.648  38.365   0.749
61166W        W33591   4.357  33.842  14.310
61167W        W33592  43.414   3.769  14.409
61168W        W33593  26.505  25.965   1.463
61169W        W33594  31.534  39.788  11.946
61170W        W33595  34.416  11.135  14.562
61171W        W33596  15.795  31.358   1.153
61172W        W33597   9.469  40.408   1.405
61173W        W33598  40.399  36.913  13.788
61174W        W33599  21.582  43.871  13.486
61175W        W33600   9.586  32.158  14.465
61176W        W33601  25.891  29.907   1.337
61177W        W33602   8.968  35.444  10.679
61178W        W33603  26.071   6.540  14.340
61179W        W33604  32.515  34.636   2.339
61180W        W33605  31.139  17.274   1.633
61181W        W33606  16.238  38.383  10.595
61182W        W33607  40.382   9.088  14.785
61183W        W33608  33.918  29.356   4.943
61184W        W33609  32.168   7.530  14.748
61185W        W33610  15.860  23.203  13.858
61186W        W33611  23.102  34.072  14.852
61187W        W33612  12.270  16.803  14.622
61188W        W33613  42.838  20.725  14.422
61189W        W33614  40.331  29.066  11.982
61190W        W33615  19.617  15.547   2.103
61191W        W33616  11.462  33.381  12.345
61192W        W33617  37.397   1.813   3.504
61193W        W33618   8.664   0.314   4.731
61194W        W33619  11.944  40.764   1.858
61195W        W33620  44.214  13.174  10.924
61196W        W33621   7.944  17.228   2.819
61197W        W33622  13.866  12.857   0.948
61198W        W33623  11.753  19.401   1.452
61199W        W33624   6.886   3.985  11.102
61200W        W33625  40.723   3.291  12.447
61201W        W33626  19.298  26.986  10.659
61202W        W33627  40.556  29.889  14.234
61203W        W33628  30.216   0.960  14.313
61204W        W33629  22.705   9.829   4.839
61205W        W33630   2.446  31.877   4.894
61206W        W33631  20.330  24.165  13.344
61207W        W33632  24.244  21.818   4.549
61208W        W33633  40.493  13.786   0.621
61209W        W33634  33.793  19.233   3.799
61210W        W33635  44.436  33.026   1.799
61211W        W33636  35.067   9.853   1.361
61212W        W33637  43.035  15.102   4.494
61213W        W33638  38.581   5.248  12.526
61214W        W33639  35.576  17.560   2.600
61215W        W33640  18.953   4.303  12.069
61216W        W33641   2.413   4.329  10.627
61217W        W33642  25.792  11.260  12.441
61218W        W33643  22.336  17.047  11.888
61219W        W33644  15.911  20.266  10.459
61220W        W33645   8.120   5.318  14.893
61221W        W33646  28.119  20.049   4.224
61222W        W33647   2.188  15.186  11.232
61223W        W33648  17.853  33.616   3.813
61224W        W33649  43.474  24.459  12.033
61225W        W33650  36.069  40.057  12.749
61226W        W33651   1.936  21.983   1.337
61227W        W33652  12.279  23.154  11.432
61228W        W33653   0.225  40.456   1.975
61229W        W33654   9.256   0.594   2.296
61230W        W33655   8.451   0.085   2.339
61231W        W33656  19.261  38.850  11.899
61232W        W33657   1.413  19.936  11.586
61233W        W33658  16.392   5.542  12.649
61234W        W33659   1.882  19.931   0.683
61235W        W33660  25.019  32.537   2.251
61236W        W33661  43.807  12.178   3.685
61237W        W33662  24.289  19.155  13.267
61238W        W33663  34.837  39.437   3.692
61239W        W33664   2.354  12.722   4.627
61240W        W33665  24.388  36.527  13.383
61241W        W33666  22.962  33.132   1.834
61242W        W33667  14.003  36.656  12.391
61243W        W33668  37.863  14.436   4.850
61244W        W33669   4.852  34.092   1.922
61245W        W33670   8.576  24.471   3.152
61246W        W33671  30.209  43.244  14.919
61247W        W33672  29.491  41.906   1.581
61248W        W33673  42.840  23.583  12.711
61249W        W33674   9.736   6.314   2.026
61250W        W33675   4.221  22.032  13.501
61251W        W33676  30.983   5.822   1.146
61252W        W33677  32.567  17.369   2.773
61253W        W33678  18.730  33.480  12.424
61254W        W33679   7.384  43.491  13.733
61255W        W33680   7.652  17.374  12.943
61256W        W33681  10.763  18.111   3.437
61257W        W33682  17.258   2.038   4.097
61258W        W33683   8.713  35.791  10.350
61259W        W33684  42.839  18.677  13.435
61260W        W33685  14.060  13.778  11.654
61261W        W33686  34.929  34.626  12.453
61262W        W33687   7.419  18.277  10.666
61263W        W33688  22.415  15.863   2.980
61264W        W33689   6.056  31.511   4.306
61265W        W33690   7.144  30.463   4.818
61266W        W33691   1.787  37.340   1.059
61267W        W33692  22.443  25.638  12.122
61268W        W33693  21.331  18.339   4.545
61269W        W33694  10.332  37.924   1.366
61270W        W33695   4.473  43.555   0.161
61271W        W33696  11.458  20.664  12.405
61272W        W33697  33.607   7.787   0.358
61273W        W33698  15.381  33.370   1.331
61274W        W33699  20.398  44.008   2.716
61275W        W33700  25.644   8.214  10.727
61276W        W33701  19.728  12.266   3.257
61277W        W33702  11.585  25.904  11.636
61278W        W33703  36.210   0.306   4.122
61279W        W33704  42.501   8.741  14.368
61280W        W33705  43.522  15.870   0.848
61281W        W33706  13.597  34.061  11.447
61282W        W33707  26.181  38.988  13.099
61283W        W33708  17.425  13.041  14.215
61284W        W33709  24.117  31.417   1.391
61285W        W33710  43.968  26.742   1.765
61286W        W33711  39.014  30.694  13.875
61287W        W33712   7.756   0.939  14.023
61288W        W33713  22.230   1.037  14.883
61289W        W33714   9.239  38.010  11.402
61290W        W33715  41.715   6.454  10.771
61291W        W33716  17.310  38.311   2.328
61292W        W33717  21.459  15.239  11.083
61293W        W33718  32.290  10.089  14.450
61294W        W33719  21.532  30.958   0.779
61295W        W33720  14.604  21.197  12.689
61296W        W33721  13.324  11.146   4.128
61297W        W33722  16.220  15.870  13.462
61298W        W33723  37.516  36.321  11.467
61299W        W33724  44.712  24.613   1.258
61300W        W33725   7.050  37.277  11.534
61301W        W33726  13.722  13.264  10.711
61302W        W33727  14.753  35.833  12.968
61303W        W33728  11.416  31.153   4.629
61304W        W33729  16.801  12.884  12.881
61305W        W33730  31.014   6.661  14.459
61306W        W33731  28.132  13.483  13.781
61307W        W33732  21.598  16.094  11.149
61308W        W33733  21.063   4.262  12.261
61309W        W33734   0.020  39.359  13.785
61310W        W33735   8.145  29.235  13.291
61311W        W33736  28.383  12.921   4.715
61312W        W33737  27.669  12.524  11.562
61313W        W33738  25.975  16.793   4.229
61314W        W33739  44.468  17.105  10.531
61315W        W33740  21.745   6.833  13.421
61316W        W33741  39.960  33.959  10.618
61317W        W33742  35.980   9.882   1.721
61318W        W33743  30.652  19.247  10.035
61319W        W33744   4.153  25.002   4.617
61320W        W33745   2.686   5.134   0.839
61321W        W33746   3.950   6.748   1.272
61322W        W33747  38.451  10.744   4.088
61323W        W33748  22.083   1.488   0.831
61324W        W33749   7.334  10.349   1.496
61325W        W33750  26.774   2.267   1.828
61326W        W33751  31.221  11.655  10.197
61327W        W33752  17.231  26.614   4.329
61328W        W33753  18.571  11.618   1.150
61329W        W33754  28.943  38.295   3.674
61330W        W33755   8.229  27.159   1.945
61331W        W33756  39.934  15.220  10.667
61332W        W33757  40.581  41.814   0.679
61333W        W33758  10.863  17.195   4.121
61334W        W33759  30.697  27.346  11.095
61335W        W33760  17.749  13.591  13.358
61336W        W33761  24.241  22.843  13.157
61337W        W33762  15.825   9.327  12.362
61338W        W33763  20.702  14.572   3.646
61339W        W33764  34.951   9.274  12.051
61340W        W33765  22.987  20.478  12.486
61341W        W33766  42.333  23.569  13.923
61342W        W33767  34.935  36.414   3.091
61343W        W33768  10.233  33.133   0.146
61344W        W33769   8.570  36.477   3.274
61345W        W33770   7.688  12.789   4.076
61346W        W33771  17.604  29.412  11.131
61347W        W33772  12.567  10.165  14.893
61348W        W33773  31.560  25.126  11.602
61349W        W33774  16.307  29.683   4.080
61350W        W33775  11.904  10.700   3.952
61351W        W33776  22.485  37.439   2.920
61352W        W33777   8.878  19.050  10.432
61353W        W33778   7.590  38.078   1.257
61354W        W33779   3.764  13.046  12.523
61355W        W33780  13.765  17.197  10.485
61356W        W33781  16.200  36.051  13.322
61357W        W33782  35.887  35.423  14.429
61358W        W33783  20.947  11.506   2.422
61359W        W33784  40.059  26.564  10.638
61360W        W33785  36.555  19.715  13.468
61361W        W33786  13.117  20.197  14.294
61362W        W33787  28.032  28.385   1.921
61363W        W33788  20.008  43.385  10.678
61364W        W33789  27.424   7.220  14.695
61365W        W33790  31.029  30.559   0.014
61366W        W33791  22.740   0.456   0.429
61367W        W33792  15.070  25.568  14.487
61368W        W33793  43.354  25.468   1.684
61369W        W33794  32.399   4.043   2.407
61370W        W33795  32.981  26.369  14.432
61371W        W33796  17.232  23.593   0.863
61372W        W33797  38.821  39.866  13.503
61373W        W33798  17.471  29.035  12.595
61374W        W33799   1.181  21.964   3.242
61375W        W33800  25.228  11.443   5.053
61376W        W33801   5.231  11.123   3.661
61377W        W33802  29.858   4.784   1.256
61378W        W33803  33.388  11.350   3.705
61379W        W33804   7.150  24.258   4.553
61380W        W33805  32.524   0.386   2.471
61381W        W33806   1.891   7.734  13.439
61382W        W33807  31.954   9.813   2.098
61383W        W33808  22.125   9.159   2.327
61384W        W33809  26.467  12.022  12.207
61385W        W33810  29.140  25.987   1.777
61386W        W33811  36.136  26.678  12.066
61387W        W33812  40.795  12.218  14.227
61388W        W33813  12.112   2.963   2.673
61389W        W33814  32.335   9.134  14.421
61390W        W33815  35.426  16.997  11.127
61391W        W33816  29.744  41.921  12.173
61392W        W33817  20.954  35.296  11.942
61393W        W33818  40.993  33.377  14.094
61394W        W33819  23.259   2.513  11.209
61395W        W33820  25.458  26.645  10.631
61396W        W33821  20.833  26.117  13.566
61397W        W33822  17.503  23.780   4.162
61398W        W33823  34.938  41.553   0.465
61399W        W33824  17.201  43.881  14.474
61400W        W33825  44.289  26.110   1.726
61401W        W33826   5.229   0.200  10.951
61402W        W33827  39.298  25.267   3.735
61403W        W33828   0.508  22.866   3.106
61404W        W33829  20.000  16.529   4.772
61405W        W33830   2.188   2.770   1.772
61406W        W33831  10.297  26.252  14.367
61407W        W33832   7.297  21.471   2.775
61408W        W33833   3.010  39.250   3.107
61409W        W33834  32.045  12.312   3.180
61410W        W33835  42.764   7.832   2.205
61411W        W33836   3.926  28.575  13.016
61412W        W33837  11.123   4.366  13.416
61413W        W33838  19.514  28.521   4.174
61414W        W33839  35.418  30.640   3.345
61415W        W33840  14.260   5.502   3.851
61416W        W33841   8.728  26.682   0.232
61417W        W33842  43.552   0.427   3.242
61418W        W33843   1.388  12.139  13.790
61419W        W33844  36.786  17.835  13.865
61420W        W33845  12.302   8.774   4.208
61421W        W33846  41.596   5.788   0.290
61422W        W33847   0.606  31.155   1.774
61423W        W33848  27.969  28.146  14.419
61424W        W33849   6.644  40.324   3.000
61425W        W33850  11.642   4.383   1.238
61426W        W33851  42.698  13.358  11.616
61427W        W33852  42.526  32.723   1.890
61428W        W33853  19.819  23.697  11.658
61429W        W33854  16.037  14.599   0.844
61430W        W33855  22.717   9.933   3.850
61431W        W33856  27.899  13.624   2.424
61432W        W33857  19.490   4.245  14.036
61433W        W33858   4.396  21.136   0.245
61434W        W33859  43.088  35.511   2.185
61435W        W33860  31.370  40.971   3.520
61436W        W33861  36.786  10.322  10.695
61437W        W33862  38.886  36.525  12.610
61438W        W33863  15.575   7.231   3.564
61439W        W33864  43.471  41.781  10.624
61440W        W33865  19.484   2.221  14.790
61441W        W33866  33.626  32.539  11.247
61442W        W33867  35.381  16.847   3.530
61443W        W33868  14.487  34.678   2.140
61444W        W33869   6.614  35.934   0.968
61445W        W33870  18.376  15.040  13.812
61446W        W33871   6.237  43.058  11.450
61447W        W33872  25.632  41.275  13.440
61448W        W33873   5.434  27.381  14.273
61449W        W33874  38.578  40.858  14.754
61450W        W33875  19.305  35.444   1.049
61451W        W33876  16.231  15.083  14.973
61452W        W33877  33.999  15.326  12.497
61453W        W33878   3.450  38.864  14.789
61454W        W33879  15.825  12.916   1.690
61455W        W33880  15.817   9.867  12.040
61456W        W33881   7.386   4.173   0.919
61457W        W33882   4.645  18.432   1.280
61458W        W33883  26.095  40.023   1.323
61459W        W33884  34.405  27.877  12.903
61460W        W33885  24.555   9.700   3.292
61461W        W33886  23.599  26.464  14.346
61462W        W33887  21.084   8.283   0.240
61463W        W33888  36.151  31.619  14.929
61464W        W33889  32.745  33.516  11.483
61465W        W33890   9.897  42.433   1.343
61466W        W33891  43.720  43.732  11.056
61467W        W33892  28.245  18.874  14.217
61468W        W33893  22.538   2.859  13.953
61469W        W33894   1.563   9.423   3.420
61470W        W33895  31.059  24.100   4.611
61471W        W33896  29.423  22.079  11.857
61472W        W33897  24.318  15.803  11.298
61473W        W33898  17.113  18.785  14.293
61474W        W33899   7.631  29.052   4.302
61475W        W33900  27.097   1.501   0.248
61476W        W33901  16.736   4.365  12.376
61477W        W33902  38.359  13.115  13.975
61478W        W33903  17.006  21.967   3.711
61479W        W33904  42.814   9.667  14.956
61480W        W33905  31.790  25.281  12.922
61481W        W33906  15.921  20.195   2.110
61482W        W33907  31.672  30.895   2.691
61483W        W33908  22.830   5.659  11.912
61484W        W33909  31.293  27.491   0.330
61485W        W33910  11.860  22.052  14.595
61486W        W33911  32.347  15.627   4.374
61487W        W33912  27.715  38.817  12.758
61488W        W33913   3.899  16.380   4.699
61489W        W33914  24.155  10.666  10.220
61490W        W33915  44.850  23.745  14.007
61491W        W33916  24.703  33.398  13.774
61492W        W33917  11.230  30.031   0.392
61493W        W33918  32.976  37.509  13.962
61494W        W33919  37.588  37.573   1.255
61495W        W33920  29.369  37.625   1.832
61496W        W33921  43.284  10.297   3.402
61497W        W33922  41.279  19.674  10.782
61498W        W33923   8.318   3.132   4.267
61499W        W33924  38.959  12.395  14.800
61500W        W33925   8.596  37.397   2.291
61501W        W33926  38.495   2.071   3.707
61502W        W33927   9.495   7.573   0.633
61503W        W33928  44.870  44.214   4.711
61504W        W33929  27.958  23.047  11.994
61505W        W33930  23.194  25.462   2.739
61506W        W33931  25.969  31.872  13.920
61507W        W33932   0.953  20.356  11.162
61508W        W33933  17.527  35.590   1.395
61509W        W33934  27.937  38.562   1.999
61510W        W33935  39.220   9.140   5.042
61511W        W33936   6.689   4.534  14.957
61512W        W33937  36.956   6.038  14.545
61513W        W33938   1.005  28.223  10.841
61514W        W33939  29.514  21.096  14.556
61515W        W33940  29.045   1.191  12.587
61516W        W33941  29.916   2.217   0.757
61517W        W33942  21.161  14.399  11.505
61518W        W33943  42.979   9.669   3.149
61519W        W33944  21.086   7.641  12.621
61520W        W33945   3.245  18.184  13.298
61521W        W33946  21.529  27.161  11.468
61522W        W33947  18.014  14.381   4.281
61523W        W33948  18.692  14.243  12.178
61524W        W33949  13.766  42.593  11.940
61525W        W33950  14.389  44.498  13.940
61526W        W33951   9.712   8.263   0.383
61527W        W33952  39.782  13.651  12.666
61528W        W33953  30.993  37.939  12.578
61529W        W33954  24.438   7.941   3.567
61530W        W33955  44.528  31.111  12.604
61531W        W33956  36.238  37.585   5.049
61532W        W33957  26.243   0.814   4.101
61533W        W33958  25.052  10.654   4.652
61534W        W33959  35.343  20.187  11.575
61535W        W33960  42.277   9.178  11.949
61536W        W33961   1.746   7.188   0.212
61537W        W33962  43.451  21.333  14.368
61538W        W33963  38.518  23.564   4.378
61539W        W33964  10.498  21.945   4.108
61540W        W33965  34.097  21.577   3.636
61541W        W33966  17.679  16.266   1.426
61542W        W33967  29.663  12.895   3.364
61543W        W33968   9.962  43.411   0.543
61544W        W33969  39.343  27.999  14.797
61545W        W33970   1.014  35.161  12.121
61546W        W33971   2.279  44.792   1.359
61547W        W33972  34.966   0.396  14.519
61548W        W33973   2.960  35.192  10.653
61549W        W33974   9.641   2.017  11.479
61550W        W33975   1.511  31.544  13.474
61551W        W33976  12.053  15.569   2.440
61552W        W33977  33.437  17.682   3.688
61553W        W33978   7.778  38.935   1.245
61554W        W33979  26.459  19.119  13.899
61555W        W33980  43.846  16.661   2.634
61556W        W33981  22.265  42.002   0.826
61557W        W33982  38.044  10.872   2.844
61558W        W33983  42.300  13.607   3.335
61559W        W33984   5.591  11.589  10.370
61560W        W33985  12.588   7.854  12.500
61561W        W33986  11.806   5.037  12.696
61562W        W33987  15.919  22.022   0.932
61563W        W33988   8.716  20.695   0.545
61564W        W33989  39.880  13.069   4.465
61565W        W33990  27.228  10.414  11.157
61566W        W33991  40.142  29.422   0.275
61567W        W33992  22.849  21.490  12.175
61568W        W33993  32.999  39.133   0.030
61569W        W33994  40.005  20.008   3.780
61570W        W33995  43.836   9.301  11.111
61571W        W33996   3.942  28.964  10.464
61572W        W33997  13.141   7.760  10.452
61573W        W33998  37.271  13.885   3.234
61574W        W33999  38.123  26.470  13.859
61575W        W34000  24.657  31.940  13.571
61576W        W34001  10.146  20.497  13.827
61577W        W34002  10.192  28.013   3.524
61578W        W34003  24.786  22.965  12.583
61579W        W34004  24.584   8.629  14.020
61580W        W34005  25.624  38.983   0.314
61581W        W34006  26.876  16.673   4.784
61582W        W34007  36.767   5.036  14.380
61583W        W34008  40.489  12.555   3.772
61584W        W34009  10.044  37.563   3.807
61585W        W34010  32.355  30.392   2.773
61586W        W34011   4.701  35.617  10.222
61587W        W34012   2.249  42.995   0.536
61588W        W34013  28.584  32.593   3.349
61589W        W34014  36.022   1.189   2.755
61590W        W34015  29.853  40.292   2.458
61591W        W34016  43.861  25.893   4.870
61592W        W34017  16.309  27.919  11.587
61593W        W34018  13.611  42.037  14.838
61594W        W34019  16.255  20.972   4.634
61595W        W34020  26.428   2.447  12.036
61596W        W34021  21.677  23.991   1.924
61597W        W34022  36.800  35.407   1.733
61598W        W34023  36.915  24.257  14.455
61599W        W34024  18.280  32.936  10.735
61600W        W34025  31.978   0.559  12.167
61601W        W34026  21.066   2.683  13.788
61602W        W34027  37.497  33.486   0.322
61603W        W34028  27.967   2.506  11.588
61604W        W34029  11.815  31.836  13.299
61605W        W34030  20.186  28.106   2.209
61606W        W34031  24.671  24.636   1.730
61607W        W34032   7.899  13.458   4.716
61608W        W34033  18.292  26.860  10.407
61609W        W34034  26.437  14.414   1.289
61610W        W34035  14.373   7.373   0.260
61611W        W34036  14.869  19.217  14.537
61612W        W34037  19.596  19.631   3.331
61613W        W34038  18.764  29.216   0.755
61614W        W34039  13.274  18.724  11.798
61615W        W34040  21.737  23.518   1.727
61616W        W34041  44.846  11.601  12.795
61617W        W34042  32.624   5.231   4.295
61618W        W34043  40.239  24.758  11.506
61619W        W34044   5.834  41.379   2.733
61620W        W34045  15.621  33.111  13.514
61621W        W34046  23.845  16.846  13.767
61622W        W34047   1.471  31.174  13.857
61623W        W34048  29.430  26.470   2.247
61624W        W34049  14.272   3.043   2.375
61625W        W34050  28.080  43.726  14.414
61626W        W34051   9.661  41.606  11.021
61627W        W34052  32.568  43.894   4.945
61628W        W34053  22.706  34.552   4.234
61629W        W34054  43.915  42.499  13.945
61630W        W34055   6.239  39.524  11.575
61631W        W34056  41.108  12.271  12.086
61632W        W34057   2.401  26.276   1.737
61633W        W34058  33.886   7.189   2.601
61634W        W34059  40.457   1.348  12.762
61635W        W34060  27.421   6.874   0.795
61636W        W34061  14.373  40.500  13.391
61637W        W34062   9.434  25.486   1.683
61638W        W34063  10.733   9.116   0.896
61639W        W34064  10.377  19.960  10.973
61640W        W34065  28.411  18.551  12.168
61641W        W34066  23.051  33.328   3.152
61642W        W34067  34.343  23.291  12.938
61643W        W34068  36.391  18.654  13.401
61644W        W34069   5.033  24.005   4.273
61645W        W34070   5.030  41.748   2.290
61646W        W34071  41.453   0.233  10.347
61647W        W34072   2.206   9.398   0.922
61648W        W34073  29.895  21.449   3.552
61649W        W34074  30.500  16.644   5.604
61650W        W34075   6.144  12.957   3.255
61651W        W34076  35.875  41.580  12.494
61652W        W34077  39.295  37.703  14.302
61653W        W34078  13.268  21.029   1.788
61654W        W34079  41.714   5.819  12.595
61655W        W34080  40.627  10.746   0.711
61656W        W34081  24.155   4.194  13.310
61657W        W34082  12.278  21.808   2.180
61658W        W34083  18.855  43.304   2.285
61659W        W34084   8.019  33.209  10.156
61660W        W34085  43.918  38.811   3.711
61661W        W34086  17.714  15.294  10.467
61662W        W34087  29.398  37.411  13.422
61663W        W34088  30.319  19.252  12.966
61664W        W34089  13.506   9.870   0.030
61665W        W34090   7.773  38.804   2.702
61666W        W34091   1.733  18.287   4.625
61667W        W34092  16.055  28.091   1.643
61668W        W34093  19.529  22.587  10.370
61669W        W34094  32.880   5.836   1.182
61670W        W34095  41.584  10.546   3.491
61671W        W34096  22.986   4.234  11.082
61672W        W34097  43.939  23.993   2.347
61673W        W34098  33.903  23.100   1.105
61674W        W34099  12.088   0.427   4.712
61675W        W34100   0.268  40.036  11.212
61676W        W34101  14.249   7.860   0.372
61677W        W34102   7.142  11.878   5.085
61678W        W34103  15.686   3.413  13.758
61679W        W34104  19.813  40.336  14.489
61680W        W34105  42.513  25.081   0.758
61681W        W34106   9.352  15.107  13.533
61682W        W34107  12.636  23.782   1.741
61683W        W34108  35.971   7.450  14.111
61684W        W34109  39.569   3.828   3.714
61685W        W34110  23.662   6.330  13.765
61686W        W34111  36.482   6.174   2.209
61687W        W34112  12.045   3.168   3.743
61688W        W34113  10.573  21.163   2.199
61689W        W34114  14.601  11.338  13.606
61690W        W34115  44.447  38.593  14.855
61691W        W34116   4.544   5.756  12.572
61692W        W34117  42.415  37.415  13.900
61693W        W34118  11.730  21.271  10.259
61694W        W34119   5.984  10.534   4.088
61695W        W34120  26.984  22.802   1.900
61696W        W34121   2.541  31.102  11.111
61697W        W34122  31.349   8.219   0.818
61698W        W34123   8.898   0.329  12.443
61699W        W34124   6.402  22.278  11.564
61700W        W34125  15.249  35.974  12.871
61701W        W34126  31.846  36.347  10.861
61702W        W34127  15.126   6.320  10.664
61703W        W34128  17.146   9.198   2.906
61704W        W34129  38.109  38.936  12.452
61705W        W34130  17.904  38.857   2.862
61706W        W34131  34.607  11.718   2.167
61707W        W34132   5.935   5.372  13.471
61708W        W34133  29.170  32.128   1.502
61709W        W34134  33.879  39.901  11.634
61710W        W34135   9.633  20.705   2.701
61711W        W34136  30.160  37.615   3.250
61712W        W34137  30.572  44.286   3.171
61713W        W34138  12.833  42.363  11.658
61714W        W34139  33.105  29.950  13.483
61715W        W34140  39.106  13.767  13.337
61716W        W34141  26.236  21.635   4.223
61717W        W34142  18.252   4.886  11.468
61718W        W34143  35.749  16.461   4.239
61719W        W34144  24.953  20.520   2.862
61720W        W34145   0.374   3.671   1.764
61721W        W34146  26.970  11.825  12.329
61722W        W34147  11.254  18.244  10.721
61723W        W34148  14.662  17.500   4.192
61724W        W34149  33.161  13.221  13.384
61725W        W34150  35.934   7.968  14.083
61726W        W34151  25.347  22.608  10.744
61727W        W34152   7.964  35.148   9.828
61728W        W34153  44.852  16.141  13.461
61729W        W34154  25.823  28.070   5.082
61730W        W34155  23.176  44.079  14.837
61731W        W34156  16.746  14.899  12.546
61732W        W34157  38.092  18.616   1.600
61733W        W34158  13.012  34.988  12.986
61734W        W34159   8.841  29.616   4.600
61735W        W34160  27.044   3.457   0.812
61736W        W34161  22.761   9.342   3.144
61737W        W34162  25.485  13.846   2.169
61738W        W34163  13.966   1.462   0.797
61739W        W34164  27.090  25.978  13.621
61740W        W34165  23.129   1.066  12.884
61741W        W34166  35.553  30.136   2.593
61742W        W34167  32.443  35.925   2.915
61743W        W34168  17.854   8.371  13.485
61744W        W34169  11.227  24.153   3.700
61745W        W34170  17.582  29.180  14.678
61746W        W34171  40.438  18.061  14.499
61747W        W34172  36.032  33.422  11.686
61748W        W34173  40.134  34.868   0.076
61749W        W34174  10.204  35.059  11.479
61750W        W34175  26.145   1.509  11.395
61751W        W34176   3.162  44.405   9.929
61752W        W34177  44.928   3.389   0.298
61753W        W34178  36.886  39.302  13.893
61754W        W34179  11.857  20.279   1.381
61755W        W34180   2.488   2.804  13.893
61756W        W34181   4.410   1.260  14.429
61757W        W34182  17.708   3.770   4.184
61758W        W34183  15.269  30.559   2.381
61759W        W34184  24.169  35.544   1.798
61760W        W34185   8.833  32.582   3.257
61761W        W34186  41.596  16.195  12.555
61762W        W34187  20.770  21.579  11.253
61763W        W34188  12.132  37.871  13.726
61764W        W34189  13.297  13.597   0.297
61765W        W34190  35.820  40.939   3.726
61766W        W34191  38.859  30.113   0.220
61767W        W34192  40.356  20.599   0.431
61768W        W34193  23.734  28.266  13.877
61769W        W34194  24.556  15.543   2.698
61770W        W34195  40.549  17.196  14.981
61771W        W34196  43.344  36.934   2.439
61772W        W34197  14.186  12.387   0.842
61773W        W34198   4.848  42.536   2.747
61774W        W34199  13.402  26.230  10.231
61775W        W34200  36.681  23.116   9.729
61776W        W34201  14.979  11.240  14.562
61777W        W34202  39.541  15.986   0.536
61778W        W34203  20.224  24.614   1.427
61779W        W34204  34.057  27.407  14.467
61780W        W34205  19.992  13.852  11.892
61781W        W34206  31.452   7.427   0.829
61782W        W34207   1.880  39.988   0.418
61783W        W34208  24.539  40.988  14.521
61784W        W34209   2.404  31.336  12.979
61785W        W34210  25.473   8.967   1.826
61786W        W34211  13.655  27.813   0.075
61787W        W34212  37.993  14.805  13.400
61788W        W34213  11.411   8.859  13.760
61789W        W34214  37.495  32.976  10.918
61790W        W34215  35.499  26.671   1.652
61791W        W34216  37.688  17.983  10.742
61792W        W34217  19.611  12.800   3.711
61793W        W34218  27.933  19.017  11.042
61794W        W34219  19.817  28.217   4.945
61795W        W34220  27.411   0.643  10.524
61796W        W34221  38.006   9.915   3.552
61797W        W34222  37.356  26.954   0.398
61798W        W34223  27.211  36.423   1.218
61799W        W34224  25.985  35.316  11.402
61800W        W34225   3.605  14.373  12.838
61801W        W34226   1.455  37.821   4.295
61802W        W34227  35.181  23.672  12.082
61803W        W34228  21.729   8.309   5.078
61804W        W34229  10.792   9.352   3.135
61805W        W34230   2.573  19.549   1.767
61806W        W34231  44.105  23.456   0.915
61807W        W34232  19.166  41.341   3.080
61808W        W34233  35.192  25.034   1.450
61809W        W34234  26.736  11.313  10.282
61810W        W34235  43.083  31.134  12.020
61811W        W34236  24.068   5.841  11.087
61812W        W34237  34.532  30.674  14.310
61813W        W34238  17.065   7.164  14.965
61814W        W34239   7.297  23.138  12.115
61815W        W34240  20.027  19.066  11.621
61816W        W34241  44.537  26.088  14.646
61817W        W34242   5.724  31.396  13.905
61818W        W34243  17.874  24.411  12.996
61819W        W34244  10.806  29.500  11.322
61820W        W34245  32.656  23.068  13.124
61821W        W34246  38.685  37.973  12.626
61822W        W34247   9.995  13.706  11.597
61823W        W34248  23.088  40.952  12.549
61824W        W34249  30.180  18.282  13.995
61825W        W34250  10.358  29.042   0.389
61826W        W34251  18.056  38.463  10.687
61827W        W34252  13.129  29.201   0.217
61828W        W34253  26.158  28.111   0.805
61829W        W34254  14.044  29.771  11.972
61830W        W34255  42.836   7.336  10.238
61831W        W34256   4.778  11.538  12.277
61832W        W34257  17.768  10.210   1.589
61833W        W34258   8.778   9.663  10.530
61834W        W34259   2.900  36.522   3.249
61835W        W34260  36.526  24.566   2.336
61836W        W34261  42.940  18.757  14.548
61837W        W34262  18.124   9.772   4.566
61838W        W34263  29.075   8.580  12.119
61839W        W34264  39.541  27.513   0.809
61840W        W34265  20.751   3.820   4.110
61841W        W34266   2.738  34.123  10.797
61842W        W34267   0.256  22.918  11.587
61843W        W34268  14.031   4.800  11.204
61844W        W34269  29.452  20.555  11.109
61845W        W34270  27.933  24.782  12.574
61846W        W34271  23.748  27.071   2.702
61847W        W34272  14.867   0.037  13.288
61848W        W34273  42.941   6.753  11.993
61849W        W34274  38.482   0.399   1.161
61850W        W34275  31.986  40.810  11.704
61851W        W34276  26.659  44.846   2.966
61852W        W34277  18.631   7.127   3.667
61853W        W34278  22.301  26.103  11.901
61854W        W34279  34.381   0.811  10.700
61855W        W34280  36.824  37.014  12.134
61856W        W34281   5.683  28.034   3.317
61857W        W34282  38.987  37.059  12.928
61858W        W34283  30.660   2.848   1.722
61859W        W34284  25.353  17.266  14.373
61860W        W34285  44.917   5.961  13.539
61861W        W34286   2.869   5.398  14.270
61862W        W34287  18.929  14.682   3.251
61863W        W34288  27.270   2.732   1.326
61864W        W34289   0.408  37.055   4.809
61865W        W34290  36.856  20.537  12.328
61866W        W34291   4.828   7.627  12.083
61867W        W34292  30.606  41.021   4.161
61868W        W34293  15.259  34.982   2.207
61869W        W34294  29.366   2.041  14.344
61870W        W34295  18.531  35.978  13.492
61871W        W34296  43.528  13.778   2.711
61872W        W34297   7.367  26.000   0.769
61873W        W34298  38.377  40.844  11.402
61874W        W34299  15.968   5.596   4.118
61875W        W34300   9.833  22.070   1.706
61876W        W34301   7.234  31.001  12.487
61877W        W34302   9.404  24.609  14.315
61878W        W34303  33.254  10.098  14.283
61879W        W34304  17.036  18.515   3.687
61880W        W34305  18.170   2.248   0.892
61881W        W34306  20.098  28.645   1.344
61882W        W34307  32.994  20.573   2.800
61883W        W34308  41.723   1.141  13.468
61884W        W34309   3.768  41.405   1.495
61885W        W34310  22.581   1.492  12.431
61886W        W34311  20.100  29.890  13.731
61887W        W34312  42.350  10.349   3.289
61888W        W34313  35.247  31.428   2.358
61889W        W34314  15.703   4.879  13.534
61890W        W34315  42.127  18.716   1.300
61891W        W34316  22.663  20.369  11.951
61892W        W34317  13.701   8.202  13.006
61893W        W34318  26.722  40.940  11.044
61894W        W34319  22.105   3.780   1.022
61895W        W34320  39.919  14.622  12.233
61896W        W34321  24.164   7.845   0.008
61897W        W34322   0.275   8.367   1.444
61898W        W34323  42.364  20.679   1.238
61899W        W34324  34.917  19.967   4.570
61900W        W34325  27.735  26.514   4.598
61901W        W34326   6.205   9.425  12.106
61902W        W34327  37.820  25.050   1.881
61903W        W34328  10.424   5.763   2.218
61904W        W34329  25.712   9.896  11.469
61905W        W34330  34.405  20.247  11.978
61906W        W34331  22.049   9.162   5.077
61907W        W34332  43.313  10.856  11.156
61908W        W34333  22.711  34.947   2.494
61909W        W34334  14.373  18.650  13.433
61910W        W34335  12.767   1.916  13.625
61911W        W34336  38.319  25.044  11.433
61912W        W34337  35.168  42.736  11.588
61913W        W34338  39.858   2.415   2.331
61914W        W34339  42.566   5.255  14.739
61915W        W34340  31.473   5.249  13.542
61916W        W34341  25.786  31.519   4.312
61917W        W34342  21.721  33.320  12.987
61918W        W34343  34.093  15.781  14.277
61919W        W34344  30.056  29.452  11.538
61920W        W34345  15.871  15.335  10.563
61921W        W34346  19.154  11.397   1.717
61922W        W34347  38.764  22.254   1.804
61923W        W34348  32.809  23.902   4.365
61924W        W34349  21.823   4.005  13.297
61925W        W34350   8.432   8.881   5.640
61926W        W34351  19.236  32.559   1.756
61927W        W34352  21.826  35.093   4.158
61928W        W34353  36.403  20.670   2.375
61929W        W34354  35.182  17.283   5.050
61930W        W34355  30.357  30.464  10.614
61931W        W34356  12.905  30.764   5.037
61932W        W34357  29.864  40.875  12.814
61933W        W34358  23.188  26.294   0.334
61934W        W34359   1.277   8.525  11.836
61935W        W34360  42.464  29.869   4.833
61936W        W34361   0.433  23.614   0.287
61937W        W34362   0.034  21.035  11.744
61938W        W34363   1.876  26.313  12.367
61939W        W34364  32.990   7.497   3.172
61940W        W34365  29.892  25.719  10.547
61941W        W34366   9.484  30.573   0.377
61942W        W34367  34.411  36.958   1.663
61943W        W34368   7.295  26.609   3.882
61944W        W34369  21.944  11.352  12.349
61945W        W34370  14.196  30.556  14.044
61946W        W34371  13.288  18.710   0.381
61947W        W34372  15.224  30.575  12.283
61948W        W34373  23.075  17.988   2.236
61949W        W34374  24.977  13.388   3.159
61950W        W34375  25.253  18.853   1.745
61951W        W34376  10.917  10.777   3.733
61952W        W34377   3.223  36.509   4.261
61953W        W34378   8.188  34.006   2.705
61954W        W34379  10.184   7.439   4.445
61955W        W34380   8.625  37.596   3.693
61956W        W34381  13.879  19.235   1.903
61957W        W34382   3.093  19.240  11.505
61958W        W34383   6.196  41.597   1.258
61959W        W34384  24.224  13.663  13.017
61960W        W34385  28.400  38.019   1.935
61961W        W34386  25.692  16.148   3.993
61962W        W34387  43.042  17.778   3.151
61963W        W34388   7.919   5.274  14.417
61964W        W34389  27.005  32.001   0.432
61965W        W34390  43.040   6.654  12.505
61966W        W34391  21.984  32.452  13.946
61967W        W34392   9.916  14.173   1.439
61968W        W34393  28.011  13.483   1.885
61969W        W34394  35.664   9.125   3.999
61970W        W34395  43.931  36.582  14.329
61971W        W34396   8.971  41.985   2.818
61972W        W34397  15.039  22.688   4.152
61973W        W34398   4.117  18.546   3.844
61974W        W34399  32.201  20.252   2.773
61975W        W34400  20.374  14.902  13.464
61976W        W34401   1.867  44.338  14.044
61977W        W34402  29.516  43.253  11.642
61978W        W34403  10.182  44.896   1.117
61979W        W34404  39.037   9.814   0.378
61980W        W34405  30.171  27.482  11.084
61981W        W34406  17.104  35.960   2.866
61982W        W34407  18.528  11.859  11.208
61983W        W34408  12.751   5.187  12.477
61984W        W34409  16.259  22.927  11.874
61985W        W34410  18.045  40.066  11.409
61986W        W34411   2.726   0.514  14.583
61987W        W34412  30.845  16.184   1.748
61988W        W34413   6.199  16.228  12.933
61989W        W34414  35.296   9.226   0.745
61990W        W34415  37.525  42.308   3.768
61991W        W34416   1.769  38.866   1.258
61992W        W34417  23.213  37.436  10.684
61993W        W34418  35.748   4.942  12.604
61994W        W34419  22.502  27.622   0.033
61995W        W34420  39.733  15.498  12.050
61996W        W34421  32.196  15.115  12.532
61997W        W34422   6.008  37.290   1.705
61998W        W34423  39.004  33.794  13.049
61999W        W34424   0.486   7.337  13.810
62000W        W34425  30.371  16.239   0.664
62001W        W34426  22.004  20.630   0.354
62002W        W34427  40.066  15.240   4.144
62003W        W34428  31.859  14.107   0.873
62004W        W34429  40.785  19.826  12.919
62005W        W34430  37.320  26.937  10.670
62006W        W34431   5.667  19.562  10.830
62007W        W34432  41.057  33.802  11.307
62008W        W34433  12.289  31.004  11.563
62009W        W34434  16.745   9.128   4.071
62010W        W34435  23.168   8.923  13.932
62011W        W34436  24.549  20.127   4.144
62012W        W34437  16.845  24.221  12.961
62013W        W34438  30.190  35.541   0.795
62014W        W34439  34.030  22.245  11.082
62015W        W34440  16.359  20.709   0.369
62016W        W34441   7.262  43.122   5.064
62017W        W34442  39.375  31.348   1.539
62018W        W34443  11.281  14.326  13.754
62019W        W34444   7.225   6.450  14.869
62020W        W34445  36.246   8.284   4.910
62021W        W34446  28.988  14.623   4.942
62022W        W34447   1.744  43.859  13.778
62023W        W34448   6.187  40.266  13.894
62024W        W34449  22.205  37.850   1.343
62025W        W34450   4.147  15.837  12.544
62026W        W34451  21.041  12.913   3.220
62027W        W34452  40.854  29.062  12.030
62028W        W34453  21.000  17.804   2.308
62029W        W34454  35.127   7.409   3.032
62030W        W34455  10.906   4.726  12.481
62031W        W34456  38.525  41.217   3.680
62032W        W34457  32.085  40.252  10.609
62033W        W34458   7.788  17.191  11.129
62034W        W34459  44.545  13.343   0.775
62035W        W34460  42.715  38.453   2.292
62036W        W34461  16.346  33.846   1.013
62037W        W34462  19.507  20.323   1.334
62038W        W34463  38.366  12.889  14.538
62039W        W34464  37.449  17.731   1.916
62040W        W34465  25.055  11.220   2.004
62041W        W34466  15.672   1.230   0.429
62042W        W34467  19.548  23.814  12.081
62043W        W34468   5.085  13.352  13.578
62044W        W34469  11.674  15.128   1.462
62045W        W34470  29.344  40.148   4.189
62046W        W34471  20.579  18.253   1.235
62047W        W34472  20.164  25.425   1.782
62048W        W34473  22.793  21.229  10.947
62049W        W34474  29.800  31.845   4.416
62050W        W34475   5.871  42.423   2.867
62051W        W34476  24.642   6.725   0.952
62052W        W34477  18.709  24.400  14.973
62053W        W34478   6.644  11.152   3.549
62054W        W34479   4.017  38.304   0.619
62055W        W34480  14.739  43.188   1.821
62056W        W34481   5.057   1.060  10.551
62057W        W34482  32.006  19.692  11.860
62058W        W34483   6.371  35.293  11.674
62059W        W34484   0.944  28.574  11.249
62060W        W34485  22.175  22.251  13.779
62061W        W34486  22.608  14.629   4.143
62062W        W34487   4.185  20.054  10.589
62063W        W34488  20.397  17.351  14.756
62064W        W34489  18.131  24.961   3.715
62065W        W34490   6.452  11.630   0.847
62066W        W34491  31.719  27.006  12.524
62067W        W34492   2.950  41.353   4.758
62068W        W34493   2.790  21.210   4.495
62069W        W34494   1.217  29.120   4.116
62070W        W34495  22.595  14.168  12.562
62071W        W34496   8.747  10.068   0.884
62072W        W34497  17.179  21.188   1.880
62073W        W34498  24.233  38.120   4.127
62074W        W34499   7.797  29.527   4.422
62075W        W34500   8.377  43.267  14.618
62076W        W34501  14.742  12.896  13.810
62077W        W34502  27.093  27.626   2.320
62078W        W34503  30.673  29.861  11.591
62079W        W34504  28.001  23.004  12.925
62080W        W34505  29.742  33.491  10.575
62081W        W34506  15.056  35.516  14.435
62082W        W34507  35.541  14.693  12.114
62083W        W34508   1.428  28.645   3.618
62084W        W34509  38.067  12.366  10.883
62085W        W34510  29.814  42.349  13.871
62086W        W34511  16.600  22.513   1.411
62087W        W34512  19.948   0.324   0.424
62088W        W34513  28.360   5.331  12.421
62089W        W34514  38.434  24.096   9.709
62090W        W34515  10.209  13.510   4.525
62091W        W34516   9.534  40.235  12.498
62092W        W34517  41.883  18.024   2.755
62093W        W34518   3.065  33.636  11.274
62094W        W34519  13.360  38.819   4.360
62095W        W34520  23.040  19.254  12.072
62096W        W34521   2.174  36.570  10.749
62097W        W34522  39.929  38.186  11.430
62098W        W34523  33.918  41.311  12.955
62099W        W34524  29.347  33.437   1.125
62100W        W34525  22.742  39.014   4.949
62101W        W34526  34.849  18.495  13.325
62102W        W34527  41.102  31.186   2.820
62103W        W34528  12.271  37.911  13.242
62104W        W34529  36.596  42.618   0.185
62105W        W34530  36.817   5.978  10.803
62106W        W34531  13.554  24.932   1.014
62107W        W34532  44.953  38.597  11.102
62108W        W34533  33.995  16.938   9.882
62109W        W34534   5.451  44.275  13.977
62110W        W34535  40.587  40.900   2.439
62111W        W34536  13.285  34.930   3.587
62112W        W34537  28.677  41.896  12.033
62113W        W34538  43.503   3.351   2.608
62114W        W34539  15.467  30.012   4.625
62115W        W34540  38.049  10.770  11.582
62116W        W34541  17.910  32.555   3.695
62117W        W34542   7.377  17.790   1.324
62118W        W34543  37.796  14.815   2.163
62119W        W34544  19.675  27.997   3.934
62120W        W34545  12.820  34.444   4.192
62121W        W34546  18.719   2.768  13.512
62122W        W34547   3.843   2.828   0.702
62123W        W34548   2.018  23.634  14.378
62124W        W34549   3.695   0.740  12.400
62125W        W34550  44.376  22.040  13.512
62126W        W34551   4.717  33.627  13.351
62127W        W34552  27.745  28.149  13.552
62128W        W34553   8.162  15.107   3.109
62129W        W34554  24.832  24.918  12.575
62130W        W34555  32.929   9.835   2.202
62131W        W34556  20.081   1.848   0.427
62132W        W34557  38.068   3.904  13.223
62133W        W34558  11.070  14.800  13.937
62134W        W34559  32.978  24.243   2.307
62135W        W34560  44.254  18.601  13.967
62136W        W34561   3.950  28.121   1.243
62137W        W34562  42.899  36.438   0.270
62138W        W34563  43.348  33.997   4.550
62139W        W34564  40.309  10.192  11.612
62140W        W34565  36.523   1.419   2.736
62141W        W34566   3.028  40.801  13.788
62142W        W34567  30.049   3.068  14.619
62143W        W34568  33.038  35.203   1.323
62144W        W34569   1.671  40.016   2.378
62145W        W34570  28.373  43.420  13.534
62146W        W34571  39.780   4.678  11.234
62147W        W34572   3.534  12.809   2.554
62148W        W34573  23.140  40.498   1.493
62149W        W34574  38.024  39.606  14.516
62150W        W34575  17.804  25.022  11.195
62151W        W34576   8.428  17.351   3.672
62152W        W34577  14.648  29.089  12.849
62153W        W34578   1.136  29.710  13.485
62154W        W34579  23.083  14.612  11.167
62155W        W34580   9.833   6.971  10.700
62156W        W34581   5.362   8.621   1.837
62157W        W34582  19.264   1.808  11.442
62158W        W34583  26.238  25.111  12.951
62159W        W34584  24.869   9.074  11.169
62160W        W34585  26.406  17.871   0.313
62161W        W34586   9.436  38.298   1.710
62162W        W34587   9.067   8.087   4.197
62163W        W34588  40.941  39.845   4.600
62164W        W34589   8.485  37.906   5.073
62165W        W34590  37.994  30.696  12.065
62166W        W34591  25.670  37.104   2.086
62167W        W34592  44.323  31.643  14.308
62168W        W34593  14.293  38.769  13.141
62169W        W34594  17.479  17.179   0.401
62170W        W34595  33.401  19.277  12.488
62171W        W34596   0.288   8.942   3.743
62172W        W34597  21.498   3.195  12.976
62173W        W34598  10.607  16.547   0.410
62174W        W34599  20.437  19.134  11.235
62175W        W34600   7.755  24.560   3.658
62176W        W34601  29.315  39.992  14.260
62177W        W34602   3.784  39.764   4.582
62178W        W34603  21.077  23.543  12.012
62179W        W34604   5.462  40.201  14.641
62180W        W34605   2.738   9.113  13.816
62181W        W34606   4.740   1.645   2.935
62182W        W34607  22.640   0.324   1.442
62183W        W34608  19.741  43.532  13.807
62184W        W34609  43.362  44.413   3.181
62185W        W34610  32.529  29.141   0.230
62186W        W34611  40.301  38.082  14.904
62187W        W34612  26.949   7.153  13.857
62188W        W34613  29.497  11.550  10.342
62189W        W34614   8.702  14.893  12.651
62190W        W34615  13.108  14.801  14.840
62191W        W34616  30.192  19.217   5.026
62192W        W34617   4.961   8.262   1.959
62193W        W34618  33.024  18.882   0.558
62194W        W34619  17.740  35.820   1.842
62195W        W34620  14.111  44.759  12.150
62196W        W34621   4.494  23.555  12.428
62197W        W34622  11.959   9.314   1.445
62198W        W34623   9.594  37.617  12.334
62199W        W34624  39.890  31.149   0.791
62200W        W34625  14.506  19.818  10.590
62201W        W34626  11.644  35.475  13.502
62202W        W34627  34.958  12.357  11.019
62203W        W34628   5.464  32.016   0.686
62204W        W34629   0.416   0.058  11.596
62205W        W34630  11.017  14.000  14.548
62206W        W34631  43.940   2.725   1.969
62207W        W34632  31.526  37.355   3.209
62208W        W34633  22.926  36.120  12.771
62209W        W34634  15.148  21.547  14.677
62210W        W34635  34.653  41.475  11.185
62211W        W34636  43.331  20.065  10.502
62212W        W34637  19.811   8.096  11.093
62213W        W34638  23.846  44.490   4.971
62214W        W34639  43.094  21.126  12.023
62215W        W34640  26.657  13.687   0.229
62216W        W34641   5.700  15.913  14.536
62217W        W34642  42.867   8.245   0.042
62218W        W34643  29.994  36.777  11.073
62219W        W34644   8.895   4.926  10.154
62220W        W34645   0.611  19.736  11.079
62221W        W34646  40.326  32.552   2.940
62222W        W34647  40.178  26.439  11.556
62223W        W34648  14.113  13.328   0.936
62224W        W34649  18.628  40.811   0.181
62225W        W34650   0.913   2.377  10.378
62226W        W34651  28.650  10.589   1.729
62227W        W34652  25.126  15.552  10.784
62228W        W34653  25.682   8.133  11.903
62229W        W34654  30.225  44.783  12.427
62230W        W34655  36.573  13.254  14.430
62231W        W34656  25.452  26.465  12.244
62232W        W34657   5.661  43.770   4.181
62233W        W34658  35.658   3.500   4.958
62234W        W34659   4.880   4.791  12.038
62235W        W34660  21.449  38.027  10.689
62236W        W34661  26.001   6.129   4.612
62237W        W34662  15.096  30.685   1.575
62238W        W34663  40.427  39.345  14.358
62239W        W34664  34.835  35.946   4.599
62240W        W34665  29.365   1.962  12.469
62241W        W34666  36.090   0.270  10.821
62242W        W34667  28.941  27.659  12.465
62243W        W34668  30.532  31.383  11.994
62244W        W34669  18.271   7.440   0.412
62245W        W34670  10.344  25.931   1.691
62246W        W34671  43.806  14.236  12.502
62247W        W34672  40.400  42.745  13.355
62248W        W34673  17.064   3.991   2.419
62249W        W34674  25.598   8.794   1.053
62250W        W34675   2.866   3.298  14.992
62251W        W34676  34.411  37.388  14.982
62252W        W34677  33.386  32.882   0.266
62253W        W34678  22.666  10.840  14.847
62254W        W34679  23.653  41.274  12.418
62255W        W34680  27.749  16.953   3.764
62256W        W34681  28.033   7.358   3.745
62257W        W34682   5.151  35.507   1.753
62258W        W34683  14.049  17.614  10.689
62259W        W34684  27.566  33.653  12.385
62260W        W34685  12.581  18.144   3.059
62261W        W34686  11.424  36.938   4.540
62262W        W34687  27.558  30.843   0.748
62263W        W34688  19.017   6.850   4.372
62264W        W34689  34.973  26.815  10.536
62265W        W34690  30.443  32.728   0.838
62266W        W34691  10.416  12.159  10.715
62267W        W34692  40.741  28.461   3.894
62268W        W34693  27.416  41.766   0.068
62269W        W34694  23.523  31.771   1.918
62270W        W34695   0.904  22.744   4.261
62271W        W34696  33.414  32.351   4.171
62272W        W34697  28.317  40.050   3.690
62273W        W34698  24.628  22.892   4.466
62274W        W34699  44.837  17.712   4.527
62275W        W34700   4.982  40.249   1.435
62276W        W34701   9.697  37.421   1.858
62277W        W34702  21.918   8.366   1.345
62278W        W34703   2.373  25.580  12.409
62279W        W34704  32.118  19.634  14.919
62280W        W34705  35.597  30.728  10.599
62281W        W34706  16.214  10.049   0.285
62282W        W34707  13.673  30.049   1.998
62283W        W34708  44.437  33.469   0.883
62284W        W34709   4.824  34.435  10.066
62285W        W34710   7.326  41.030   1.831
62286W        W34711  25.665  34.341   0.517
62287W        W34712  25.265   0.404  11.232
62288W        W34713   2.796  38.855  10.575
62289W        W34714  24.506  22.621  11.728
62290W        W34715  33.557  29.356  14.795
62291W        W34716  20.662  29.264  12.936
62292W        W34717  28.496  44.808  13.400
62293W        W34718   0.617  18.424  13.527
62294W        W34719  18.830  39.460  12.455
62295W        W34720  19.291  17.733   1.015
62296W        W34721  24.231   8.874  11.007
62297W        W34722  25.605  15.327   0.349
62298W        W34723  19.397   2.958   3.788
62299W        W34724  43.976  41.577   1.746
62300W        W34725  18.584  26.436  12.994
62301W        W34726   4.485   0.830   4.110
62302W        W34727  35.451  27.426   3.335
62303W        W34728  10.231  15.200  14.066
62304W        W34729  44.489   8.112   1.720
62305W        W34730  33.539  23.239   2.417
62306W        W34731  33.137  34.502  11.465
62307W        W34732  25.009  22.789  11.077
62308W        W34733   7.060  29.185  11.490
62309W        W34734  20.641  38.929   4.170
62310W        W34735   0.696   4.983  12.311
62311W        W34736  29.964  44.266   4.221
62312W        W34737  21.596  44.993   4.247
62313W        W34738  22.275  39.915  12.004
62314W        W34739  42.559   7.850   1.740
62315W        W34740  11.416  10.935  14.919
62316W        W34741  26.407   0.388  11.950
62317W        W34742  36.575  26.721   2.789
62318W        W34743  31.582   3.095   2.416
62319W        W34744  13.131  37.963  12.367
62320W        W34745  38.895   8.936  14.962
62321W        W34746  23.625   8.328  10.628
62322W        W34747   4.708  19.579   3.750
62323W        W34748  36.017  35.145  14.021
62324W        W34749  43.911  21.123  14.226
62325W        W34750  33.846  12.470  10.930
62326W        W34751   5.448  32.277   1.662
62327W        W34752   4.338  30.012  14.094
62328W        W34753  10.175  15.112  11.663
62329W        W34754  33.079  20.049  10.752
62330W        W34755  32.093  28.995   0.487
62331W        W34756  16.306  41.858   1.831
62332W        W34757  34.122  35.808  10.608
62333W        W34758   9.647   9.796   4.011
62334W        W34759  13.412  35.038  14.342
62335W        W34760  22.896  36.830   3.288
62336W        W34761  27.090  10.012   3.845
62337W        W34762  32.852   3.350   4.644
62338W        W34763   9.847  42.282  14.450
62339W        W34764  36.158  13.493   4.226
62340W        W34765  15.120  18.114   2.449
62341W        W34766  27.416  30.424   5.142
62342W        W34767  17.772   1.930   0.728
62343W        W34768  21.714  42.449   0.298
62344W        W34769  10.252  32.680   4.641
62345W        W34770  30.579  37.124  11.211
62346W        W34771  25.168  35.294  11.151
62347W        W34772  14.667  18.741  12.427
62348W        W34773  41.812   3.175  10.740
62349W        W34774  16.203  19.011  14.004
62350W        W34775  39.298  35.617  12.113
62351W        W34776  35.911  24.247  11.962
62352W        W34777  34.663  19.586   3.580
62353W        W34778  30.176   2.822  13.276
62354W        W34779  26.107  10.127  12.382
62355W        W34780  34.030  18.570   1.302
62356W        W34781  35.453  44.562  13.320
62357W        W34782   8.664  31.723  11.190
62358W        W34783  38.367   9.607   0.429
62359W        W34784  22.159  21.321   4.531
62360W        W34785  35.157   1.201  10.518
62361W        W34786  43.459   0.745  13.700
62362W        W34787  22.067   9.727   1.478
62363W        W34788   5.862  27.958   2.854
62364W        W34789  26.439  33.116   4.517
62365W        W34790  39.007  14.817  13.424
62366W        W34791   6.465  24.343   1.393
62367W        W34792  34.883  31.849  10.958
62368W        W34793   6.808  14.731   0.831
62369W        W34794  12.319  33.323   0.377
62370W        W34795  20.688  14.993   1.567
62371W        W34796   1.329  24.543   3.249
62372W        W34797  14.809  31.490   0.887
62373W        W34798  28.618   5.344  11.967
62374W        W34799   9.410   4.884  13.808
62375W        W34800   9.784  10.819  10.552
62376W        W34801  34.401  43.214   1.690
62377W        W34802  44.221  25.543   1.288
62378W        W34803  32.815   9.446  12.515
62379W        W34804  29.789  33.863   2.382
62380W        W34805  23.674  24.756   1.226
62381W        W34806  40.069  25.267   1.233
62382W        W34807  18.740  32.241  14.123
62383W        W34808  41.812   1.913   0.814
62384W        W34809   2.209  29.093  14.402
62385W        W34810  21.180  24.187   1.939
62386W        W34811  14.006  23.647  12.908
62387W        W34812  39.465   1.928   2.436
62388W        W34813  25.683  32.056  10.224
62389W        W34814   2.766  22.447   1.736
62390W        W34815   7.346   5.400   3.592
62391W        W34816  37.009   0.685   1.201
62392W        W34817  37.859   9.809  10.708
62393W        W34818  24.988  28.999  12.908
62394W        W34819  25.992  17.815  13.567
62395W        W34820   7.013   7.247   3.810
62396W        W34821   7.667   2.021   3.211
62397W        W34822  17.512  42.031   3.305
62398W        W34823  16.201  23.007   2.382
62399W        W34824  15.386  43.970  12.531
62400W        W34825  26.580  43.442  13.641
62401W        W34826  32.780  34.354  11.123
62402W        W34827  42.837  30.776   4.078
62403W        W34828  32.556  34.886  13.906
62404W        W34829  34.468  42.750   1.284
62405W        W34830  15.365  27.852   2.343
62406W        W34831  44.907  32.399  12.495
62407W        W34832  28.186  18.048  12.489
62408W        W34833  13.225  33.081  10.726
62409W        W34834  14.271  40.767   3.168
62410W        W34835   1.913  18.711  13.053
62411W        W34836  33.526   0.555  12.996
62412W        W34837  23.175  18.575  10.702
62413W        W34838  37.372  13.729  10.977
62414W        W34839  35.888   8.377   1.967
62415W        W34840  41.712  38.409  11.382
62416W        W34841  44.316   8.651   3.764
62417W        W34842  17.287  33.046   3.677
62418W        W34843   3.748   1.273   0.499
62419W        W34844  20.273  31.457   4.627
62420W        W34845  40.422  37.347   9.902
62421W        W34846   8.650  23.404  12.718
62422W        W34847  31.580  17.062   0.848
62423W        W34848  26.705   5.969   4.208
62424W        W34849  43.621  21.641   4.050
62425W        W34850  28.285  34.039  11.152
62426W        W34851  41.504   1.112  11.360
62427W        W34852  39.261  30.767  12.325
62428W        W34853  32.110  44.724  12.387
62429W        W34854  25.942   7.927   0.363
62430W        W34855   4.401  42.982  10.963
62431W        W34856  14.076  35.684   0.270
62432W        W34857  19.911  26.741   0.884
62433W        W34858   1.878  42.606   0.521
62434W        W34859  26.416  14.571  10.975
62435W        W34860  11.191  15.113  13.096
62436W        W34861  17.832  26.726  13.451
62437W        W34862  22.084  26.949   1.265
62438W        W34863  18.838  17.041  12.137
62439W        W34864  32.143  36.941   4.875
62440W        W34865  40.223   7.799   2.556
62441W        W34866  19.612  37.676   4.583
62442W        W34867  31.283   1.743   2.162
62443W        W34868  26.973   4.013  14.978
62444W        W34869  38.484  12.680  13.499
62445W        W34870   7.261  28.707   3.773
62446W        W34871  20.122   8.188  14.472
62447W        W34872  29.707  39.993   3.345
62448W        W34873   4.639  43.478   3.610
62449W        W34874  29.102  19.726   4.868
62450W        W34875   7.762   1.298  12.598
62451W        W34876  28.236   8.685  12.262
62452W        W34877   5.836  37.057  14.900
62453W        W34878  12.728   9.864  10.640
62454W        W34879   2.867  31.322  12.418
62455W        W34880  42.361  31.340   1.547
62456W        W34881  26.155  17.181   0.882
62457W        W34882  24.682  21.622   3.221
62458W        W34883   1.849  30.570   0.367
62459W        W34884   7.879  31.447  10.443
62460W        W34885   2.422  42.474   1.235
62461W        W34886  20.619  12.226   0.909
62462W        W34887  26.402  44.304   4.136
62463W        W34888  12.717  39.854  13.677
62464W        W34889  12.625  19.538   4.025
62465W        W34890  29.777  42.862  10.592
62466W        W34891  29.920  34.471   4.603
62467W        W34892  24.471   5.512  10.399
62468W        W34893   3.142  42.060  13.792
62469W        W34894  28.986   1.300   3.151
62470W        W34895  18.542  19.552  10.601
62471W        W34896  35.922  39.896   3.406
62472W        W34897   9.055  22.890  14.512
62473W        W34898   4.415   7.779   1.302
62474W        W34899  43.756   2.006  14.961
62475W        W34900  26.368  31.998   1.801
62476W        W34901  11.305  27.374  14.865
62477W        W34902  30.604  43.356  10.340
62478W        W34903  39.012   1.716   5.039
62479W        W34904  35.844  29.027  12.422
62480W        W34905  19.570  34.675   3.787
62481W        W34906   8.673   8.335   3.247
62482W        W34907  24.142  16.115   1.938
62483W        W34908  31.015   4.622   2.124
62484W        W34909  36.885  42.840   1.286
62485W        W34910  15.933   5.266   3.258
62486W        W34911   7.989  42.937   4.662
62487W        W34912  33.057  26.472   3.646
62488W        W34913   0.957  18.229   0.748
62489W        W34914  31.312  15.055   2.311
62490W        W34915  16.148  28.598   0.756
62491W        W34916  12.107  35.305  13.319
62492W        W34917   9.399  38.071   1.255
62493W        W34918  42.008   2.253   4.871
62494W        W34919  39.810  11.277  10.519
62495W        W34920  40.288  30.122   2.312
62496W        W34921   5.625   6.148   3.213
62497W        W34922  13.098  10.254  10.970
62498W        W34923   2.975  22.385  12.160
62499W        W34924  20.433  37.584   4.273
62500W        W34925   9.689   8.757  13.562
62501W        W34926  37.967  36.039   1.792
62502W        W34927  21.382  19.712  12.114
62503W        W34928  33.879  12.093  14.491
62504W        W34929  21.885  24.481  11.089
62505W        W34930   3.498  40.354  13.129
62506W        W34931  25.943  13.696   2.388
62507W        W34932  25.267   4.907   0.036
62508W        W34933  19.020  16.271   0.325
62509W        W34934  21.642  38.352   1.524
62510W        W34935  41.899  42.847  13.903
62511W        W34936  13.778   5.461  10.692
62512W        W34937  11.377   3.143  12.085
62513W        W34938  37.711  33.502   2.722
62514W        W34939   6.355   4.352  11.167
62515W        W34940  26.380  26.271   1.882
62516W        W34941  43.755  20.989   2.326
62517W        W34942  26.368  41.789   4.142
62518W        W34943  11.352  29.739   4.186
62519W        W34944  17.850  17.018  11.109
62520W        W34945  10.527  43.566  11.493
62521W        W34946  32.928   2.480  13.639
62522W        W34947  36.079   1.712   2.693
62523W        W34948  28.191  22.891  13.858
62524W        W34949  41.416  44.788   2.218
62525W        W34950  16.656  42.673   3.216
62526W        W34951  14.375  21.786   2.812
62527W        W34952  37.549  31.640  12.016
62528W        W34953  27.671  35.609  11.661
62529W        W34954  18.298  10.406  10.340
62530W        W34955   7.339  41.329  11.247
62531W        W34956  19.296  24.742   4.173
62532W        W34957  10.452  24.942  14.169
62533W        W34958  24.298   7.743   2.304
62534W        W34959   0.724  42.541   3.789
62535W        W34960  44.240  26.003  13.029
62536W        W34961  37.800  32.148  11.122
62537W        W34962   4.464   4.753   0.562
62538W        W34963  32.574  39.095   4.521
62539W        W34964  23.789  30.571  13.541
62540W        W34965  40.113  25.166  13.857
62541W        W34966   7.229  34.374   1.759
62542W        W34967  12.542  22.427   4.216
62543W        W34968  12.067  31.604   0.098
62544W        W34969  42.834  15.880   5.122
62545W        W34970  16.945  25.848  12.092
62546W        W34971  12.222   8.740   0.912
62547W        W34972   6.922  38.990  14.765
62548W        W34973  37.512  35.243   2.750
62549W        W34974  14.501  17.520  13.377
62550W        W34975  37.631  11.742   2.260
62551W        W34976  24.991  41.079  13.813
62552W        W34977  34.505  42.108  12.369
62553W        W34978  37.833  11.196   0.536
62554W        W34979  40.578  21.643  14.833
62555W        W34980   0.415  39.368   3.999
62556W        W34981  24.051  26.084   1.660
62557W        W34982  14.332  26.206   2.566
62558W        W34983  43.020  28.307   2.377
62559W        W34984  14.051  37.116  12.143
62560W        W34985   8.139   7.275   5.477
62561W        W34986  25.138   3.646   3.837
62562W        W34987  30.959  13.573   0.244
62563W        W34988  20.769  34.480   2.160
62564W        W34989   2.286  41.439   0.403
62565W        W34990   5.879  20.871   2.889
62566W        W34991  19.678  37.181   4.576
62567W        W34992  22.703  43.144   2.862
62568W        W34993  19.659  34.055  11.843
62569W        W34994  10.325  21.197  11.891
62570W        W34995  14.349   8.350   0.200
62571W        W34996   2.437  16.345   1.442
62572W        W34997  37.549   0.456  12.545
62573W        W34998  18.308  19.723   4.598
62574W        W34999  20.459  34.104  14.897
62575W        W35000   3.060  28.644   0.734
62576W        W35001  23.470  20.430   2.964
62577W        W35002  12.556  11.177   3.621
62578W        W35003   6.749   6.585  11.942
62579W        W35004  26.881  14.569  10.769
62580W        W35005  19.124  11.637  13.344
62581W        W35006  13.906  27.142  13.069
62582W        W35007  37.427  44.292   2.732
62583W        W35008  20.924  43.044   2.300
62584W        W35009  33.904  25.910  10.960
62585W        W35010   4.322  24.696   3.239
62586W        W35011   6.688  17.523   1.941
62587W        W35012   1.397  31.926   1.201
62588W        W35013   9.668  17.868  13.408
62589W        W35014  20.440  26.056  13.902
62590W        W35015  29.456  21.915   0.608
62591W        W35016  41.464  36.953   1.966
62592W        W35017  39.583  28.196   4.692
62593W        W35018  18.081  39.883   0.439
62594W        W35019  26.477  32.039   0.391
62595W        W35020  24.801  11.169   5.077
62596W        W35021  22.686  37.235  13.507
62597W        W35022  17.325  36.050   1.328
62598W        W35023  11.890  17.588  12.398
62599W        W35024  27.098  39.379   3.138
62600W        W35025  28.155  34.877  12.038
62601W        W35026  42.231  40.827   3.137
62602W        W35027  26.158   7.890  11.848
62603W        W35028   6.598   5.793  12.931
62604W        W35029  38.894   9.744   2.295
62605W        W35030  12.472  24.569   4.997
62606W        W35031  12.798  36.046   4.149
62607W        W35032  11.123  33.037  13.520
62608W        W35033  36.558  13.585   3.933
62609W        W35034  15.908   0.206   1.375
62610W        W35035  38.408   6.010   1.724
62611W        W35036  42.873  12.641   4.618
62612W        W35037   0.619   0.939   1.831
62613W        W35038  29.165  44.750   2.059
62614W        W35039  36.383   5.756   1.270
62615W        W35040  31.371  21.148   3.578
62616W        W35041  16.232  25.057   2.321
62617W        W35042  20.656  18.240  14.800
62618W        W35043  30.632  34.304   2.909
62619W        W35044  44.441   5.264   0.351
62620W        W35045  24.697  20.017   1.207
62621W        W35046  19.826  42.738  13.304
62622W        W35047  13.181  31.183   1.054
62623W        W35048   7.387  40.307   0.719
62624W        W35049   8.477   0.758   0.375
62625W        W35050  12.337  42.681  12.960
62626W        W35051  26.657   2.838  11.174
62627W        W35052   2.719  42.311   3.231
62628W        W35053  39.393   5.688  10.647
62629W        W35054  27.862   0.845  12.760
62630W        W35055  17.048  31.876   0.884
62631W        W35056  30.935  23.235  12.422
62632W        W35057  42.750  21.927  13.040
62633W        W35058   8.238   1.865  14.745
62634W        W35059   4.492  34.583   4.554
62635W        W35060  10.642   1.001   2.337
62636W        W35061  16.891  41.703  10.772
62637W        W35062   4.738   0.400  11.099
62638W        W35063   9.366  19.259   2.829
62639W        W35064  34.959  38.487   3.759
62640W        W35065   8.138  36.585  11.945
62641W        W35066  28.601  16.136   3.174
62642W        W35067  25.963   2.731   0.477
62643W        W35068  21.940   0.744   4.790
62644W        W35069  43.136  15.352  12.985
62645W        W35070  14.333  31.330   1.428
62646W        W35071  33.066  35.337  14.677
62647W        W35072   9.741   7.678   2.679
62648W        W35073   8.431  28.630   4.246
62649W        W35074  15.064  12.732   2.278
62650W        W35075  12.765  26.601   0.689
62651W        W35076   0.832   9.305   1.955
62652W        W35077  21.513  42.255  12.872
62653W        W35078  21.052  31.901   2.814
62654W        W35079  40.273  23.448   2.378
62655W        W35080  17.166   1.489   1.365
62656W        W35081  24.282  25.166   3.358
62657W        W35082  24.585  31.629   4.345
62658W        W35083  15.133  10.504  12.805
62659W        W35084  27.952  10.649   3.115
62660W        W35085  14.617  22.686  14.691
62661W        W35086  19.651  16.160   4.690
62662W        W35087  20.085  15.302   4.564
62663W        W35088  15.086  16.711  12.584
62664W        W35089   9.728  40.780   2.721
62665W        W35090  12.907   6.837   4.524
62666W        W35091   7.066   3.556  14.910
62667W        W35092  20.058  24.927  12.921
62668W        W35093  27.819   6.411  14.408
62669W        W35094  22.820  27.624   2.766
62670W        W35095  11.955  26.205   4.347
62671W        W35096  19.779   0.439   4.875
62672W        W35097  23.765  24.161  12.899
62673W        W35098  35.546  14.876   1.451
62674W        W35099  18.993   2.660  11.868
62675W        W35100   0.917  39.448  14.911
62676W        W35101  30.981  16.311  11.443
62677W        W35102  33.632  17.240  14.340
62678W        W35103  20.252  31.219   1.308
62679W        W35104   6.378   9.454   0.024
62680W        W35105   8.041  23.806  11.983
62681W        W35106  13.189  16.601  13.979
62682W        W35107   6.258  30.986  12.589
62683W        W35108  10.113  12.890  13.905
62684W        W35109  14.568  41.126  10.403
62685W        W35110  42.989  42.971   0.468
62686W        W35111   9.440  16.242   1.376
62687W        W35112  15.754  35.585  14.912
62688W        W35113   1.701  18.249   2.325
62689W        W35114  42.339  27.937   3.656
62690W        W35115  27.297  39.919   0.250
62691W        W35116  38.432  34.000   3.652
62692W        W35117  18.971   1.909  13.621
62693W        W35118  19.798  13.271   4.575
62694W        W35119   8.317  25.701  12.486
62695W        W35120  33.950  30.567   3.402
62696W        W35121  15.787  26.059   0.228
62697W        W35122  36.840  28.842   4.125
62698W        W35123  22.596  34.982  12.444
62699W        W35124  31.595  13.113  11.253
62700W        W35125  44.346  35.164   1.199
62701W        W35126  39.826  28.267  13.961
62702W        W35127  10.851  28.491   4.317
62703W        W35128  14.234  14.031   2.765
62704W        W35129   3.726  19.186  13.897
62705W        W35130  26.472  10.018   3.915
62706W        W35131   1.987   7.307   4.691
62707W        W35132  41.433  26.952   4.246
62708W        W35133  20.172   8.209   3.372
62709W        W35134  38.839  31.326  11.673
62710W        W35135  31.942  31.769  11.071
62711W        W35136  26.698  37.603  12.930
62712W        W35137  23.595  27.075   0.435
62713W        W35138  11.282  18.128   4.144
62714W        W35139  14.362   0.350  12.411
62715W        W35140  23.009  36.628  12.894
62716W        W35141  25.069  31.629   4.626
62717W        W35142  12.837  43.659  11.969
62718W        W35143  43.556  34.294  12.195
62719W        W35144   3.366  38.313   4.262
62720W        W35145  39.565  33.139  12.922
62721W        W35146  29.092  39.562  10.937
62722W        W35147  33.442  22.767   0.239
62723W        W35148  22.642   1.741   3.732
62724W        W35149  27.737  13.149  12.375
62725W        W35150  11.941   5.857   2.016
62726W        W35151  23.275   3.397  14.034
62727W        W35152   4.165  24.582  14.774
62728W        W35153  24.111   8.140  10.555
62729W        W35154  25.019  19.270   3.630
62730W        W35155   5.773  22.645   4.587
62731W        W35156  35.571  19.821  14.366
62732W        W35157   2.956  16.664   1.905
62733W        W35158  30.488   6.660   2.615
62734W        W35159  21.754  13.176   0.814
62735W        W35160  27.913  13.075  14.015
62736W        W35161  30.127  36.038  11.992
62737W        W35162  25.850  18.691  11.554
62738W        W35163  18.274  34.089  11.456
62739W        W35164  23.342  23.640   2.270
62740W        W35165  34.788   9.315   1.458
62741W        W35166  30.477  33.832   3.142
62742W        W35167  12.658  15.385  12.063
62743W        W35168  24.062  24.321  11.897
62744W        W35169   2.201   1.410   0.257
62745W        W35170  20.057  21.927  11.571
62746W        W35171  29.153  18.265   2.148
62747W        W35172   4.609  27.009   1.190
62748W        W35173  44.727  17.913  13.588
62749W        W35174  41.962  36.968  12.054
62750W        W35175  16.728  11.934   0.690
62751W        W35176  32.827  14.125   3.819
62752W        W35177  25.230  37.496  12.528
62753W        W35178  20.621  24.532   3.300
62754W        W35179   4.942   4.036   1.871
62755W        W35180  41.216   2.590   0.639
62756W        W35181  23.449  10.290   1.105
62757W        W35182   7.914  36.577   0.814
62758W        W35183  31.465   3.289  11.541
62759W        W35184   2.983   5.924  12.819
62760W        W35185   7.929  33.588  11.604
62761W        W35186   8.600   7.729   1.937
62762W        W35187  13.858   6.622  11.901
62763W        W35188  25.267  11.951   4.197
62764W        W35189  42.996   4.636   4.115
62765W        W35190  38.854  14.168  10.866
62766W        W35191   9.211  11.231  11.104
62767W        W35192  29.883   8.786   4.906
62768W        W35193  25.442  35.795  10.698
62769W        W35194  18.631  18.091   4.646
62770W        W35195  14.728  30.898   4.078
62771W        W35196  37.374  23.313   4.983
62772W        W35197  25.531  32.403  11.586
62773W        W35198  24.938  38.958  11.700
62774W        W35199  36.220  21.242  13.458
62775W        W35200  34.576  33.940  14.471
62776W        W35201  38.442  16.021  14.030
62777W        W35202  11.252  31.464   2.830
62778W        W35203  36.380   2.455   0.780
62779W        W35204  21.960  38.400   0.736
62780W        W35205  12.121   8.388  14.534
62781W        W35206  25.564  24.297   3.851
62782W        W35207  28.897  38.464   2.365
62783W        W35208  24.718  25.721   3.267
62784W        W35209  27.154  24.047  11.618
62785W        W35210   7.165  30.374  11.007
62786W        W35211   2.298  15.216  10.729
62787W        W35212  35.456  10.075   0.204
62788W        W35213  31.213  25.918  13.999
62789W        W35214  40.823  42.418  12.132
62790W        W35215  34.626   5.664  11.135
62791W        W35216   7.163  18.732  10.652
62792W        W35217  26.510   1.341   1.918
62793W        W35218  36.297  28.778   4.144
62794W        W35219  10.656   9.852   3.365
62795W        W35220  34.421  22.516  10.824
62796W        W35221   0.282  18.593  12.537
62797W        W35222  21.597   0.357   1.327
62798W        W35223  20.100   6.538  12.953
62799W        W35224   1.342  39.562   1.747
62800W        W35225  33.191   5.398   1.292
62801W        W35226  18.265  13.004  13.907
62802W        W35227  15.547  14.677   0.980
62803W        W35228   2.879   9.161   3.423
62804W        W35229  36.498  23.727  12.365
62805W        W35230   0.336  10.296   3.043
62806W        W35231  13.250   7.470   3.272
62807W        W35232  24.146  22.923  11.010
62808W        W35233  25.097  17.841  12.255
62809W        W35234   8.916  14.194   0.949
62810W        W35235   9.127  11.101   3.277
62811W        W35236   9.730   4.475  10.458
62812W        W35237   2.959  13.303   3.620
62813W        W35238   1.261  41.409   3.420
62814W        W35239  31.025  22.505   4.469
62815W        W35240   1.349   1.224  12.472
62816W        W35241   9.648  35.313  10.170
62817W        W35242  42.488   0.218  12.553
62818W        W35243  31.009  26.427   3.355
62819W        W35244  34.440  29.644  11.727
62820W        W35245  33.196   3.413  13.954
62821W        W35246  31.671   5.235   0.392
62822W        W35247  15.714  11.360  13.880
62823W        W35248  36.041  13.281   1.016
62824W        W35249   4.297  15.067   3.738
62825W        W35250  18.221  19.845  12.056
62826W        W35251  21.009   5.142  13.314
62827W        W35252  43.527  34.172   2.355
62828W        W35253  31.972   5.287  14.931
62829W        W35254  26.545   7.203  11.117
62830W        W35255  12.120  25.852  12.924
62831W        W35256   9.277   0.651  12.594
62832W        W35257  23.167  29.177   3.968
62833W        W35258  10.763  22.772   4.838
62834W        W35259  19.138  15.759  10.865
62835W        W35260  20.110  30.444   4.519
62836W        W35261  44.504  42.472   2.355
62837W        W35262  33.981   9.237   3.485
62838W        W35263   8.598   9.901   3.916
62839W        W35264  18.520  11.663   3.066
62840W        W35265   6.180   8.439  12.475
62841W        W35266   8.183  37.993   1.419
62842W        W35267  26.264  43.594  11.682
62843W        W35268  17.755  34.335  12.990
62844W        W35269   7.575  33.050   0.030
62845W        W35270  34.946  41.246  11.635
62846W        W35271   3.955  10.662  13.602
62847W        W35272  32.189  34.954  12.133
62848W        W35273   6.617  34.267  14.439
62849W        W35274  14.057  22.802   2.785
62850W        W35275  20.536  33.108  14.390
62851W        W35276  24.568  18.660   4.800
62852W        W35277  24.313  11.716   1.707
62853W        W35278  29.445   7.098   1.745
62854W        W35279  42.580  21.256   2.526
62855W        W35280  21.211  16.544  11.514
62856W        W35281  36.880  19.276  12.093
62857W        W35282  18.570  31.957   3.726
62858W        W35283  36.897  44.862   1.487
62859W        W35284  11.267  39.120  11.324
62860W        W35285   8.655   4.468  12.028
62861W        W35286  36.593   1.308  12.947
62862W        W35287  33.019   4.508  11.448
62863W        W35288   3.374  39.366  14.212
62864W        W35289  35.995  42.489   4.476
62865W        W35290  19.514   9.795   2.655
62866W        W35291   2.791   5.402  11.931
62867W        W35292   5.760  22.090   0.560
62868W        W35293  43.380  38.296   2.645
62869W        W35294  39.046   1.752  11.434
62870W        W35295  34.143  25.421   4.521
62871W        W35296  28.587  39.391   1.683
62872W        W35297  15.305  29.124   1.940
62873W        W35298  12.135  13.740  10.715
62874W        W35299  25.315  11.675   4.618
62875W        W35300  39.689  12.134   3.219
62876W        W35301  23.882  21.600   2.855
62877W        W35302  28.285  20.697   3.057
62878W        W35303   3.326  34.980  10.941
62879W        W35304  35.319  13.273   1.438
62880W        W35305  14.245  36.225  12.223
62881W        W35306  37.088   0.495  10.993
62882W        W35307  40.579   1.803  13.980
62883W        W35308  36.997  40.540  11.144
62884W        W35309  32.515  28.158  10.914
62885W        W35310  25.184   8.609   2.675
62886W        W35311  30.220  31.276  14.523
62887W        W35312  37.946  38.676  14.247
62888W        W35313  44.922  10.292   4.150
62889W        W35314  20.676  22.755   3.752
62890W        W35315  13.875   2.830  11.533
62891W        W35316  36.855  29.251  12.404
62892W        W35317  41.457  22.668  13.333
62893W        W35318  13.377  41.161   2.220
62894W        W35319  29.163  11.486  11.838
62895W        W35320  31.452   7.823  14.974
62896W        W35321  26.750  42.070  14.064
62897W        W35322  14.681  20.839   0.738
62898W        W35323  33.599   3.906  12.934
62899W        W35324  35.500   1.935   0.825
62900W        W35325  26.928   9.009  14.745
62901W        W35326  23.528  25.963  10.677
62902W        W35327  33.560  18.080   2.223
62903W        W35328  38.041  29.093   3.614
62904W        W35329  24.237  26.426  13.913
62905W        W35330  21.442  37.025   4.270
62906W        W35331  40.452  29.602  13.751
62907W        W35332  41.294   7.395   0.814
62908W        W35333   9.873   6.431  10.609
62909W        W35334  42.260  25.984  10.833
62910W        W35335  13.723   4.409   0.457
62911W        W35336  20.075  44.111   1.423
62912W        W35337   6.334  30.962   2.431
62913W        W35338  35.130  37.089   2.959
62914W        W35339   2.671   4.328  13.340
62915W        W35340  44.369  21.872   4.543
62916W        W35341  33.781  26.958   4.120
62917W        W35342  25.295  23.698  12.961
62918W        W35343  33.059  34.299   0.418
62919W        W35344   4.956  27.539  14.376
62920W        W35345  34.908  20.144  10.669
62921W        W35346  38.817  37.862   1.842
62922W        W35347   7.947  29.970   2.523
62923W        W35348  44.816  34.874   1.503
62924W        W35349  37.529  25.877   1.327
62925W        W35350  19.129  11.119   3.685
62926W        W35351   4.902  23.112   0.599
62927W        W35352   0.420  13.892  13.510
62928W        W35353  26.704  33.527   3.375
62929W        W35354  18.281  27.686  11.466
62930W        W35355  29.455  44.799  13.805
62931W        W35356  44.934  11.915   4.155
62932W        W35357  28.168  10.435   1.875
62933W        W35358  21.961  44.621  11.438
62934W        W35359  32.014   3.385  10.528
62935W        W35360  42.980  39.725  13.853
62936W        W35361  24.248  31.309  11.222
62937W        W35362   9.423   6.232  11.950
62938W        W35363   5.832  42.887  14.874
62939W        W35364  40.946  33.293   2.603
62940W        W35365   8.233  37.064  10.517
62941W        W35366  33.062  14.845   1.817
62942W        W35367   0.982  38.476  10.262
62943W        W35368  16.809  14.676   0.375
62944W        W35369  29.498  29.519  13.379
62945W        W35370  16.684   6.871  14.775
62946W        W35371  30.648   3.741   1.725
62947W        W35372  33.110  34.433  13.368
62948W        W35373   2.873  44.326  10.609
62949W        W35374  15.304  22.944   0.355
62950W        W35375   9.248  22.512   0.906
62951W        W35376  15.211  26.979   1.739
62952W        W35377  41.422   6.797  10.506
62953W        W35378  28.381  33.063   3.258
62954W        W35379  21.539  41.927  14.450
62955W        W35380   4.739   3.822  13.202
62956W        W35381  42.811  33.875  11.143
62957W        W35382  26.145  32.638   5.194
62958W        W35383   8.341  42.818  12.946
62959W        W35384   8.938  39.865  14.811
62960W        W35385  43.240  43.564  11.177
62961W        W35386   3.456   0.329  14.063
62962W        W35387  11.162  42.428  12.439
62963W        W35388  28.136   7.674  12.480
62964W        W35389  35.540  38.002  14.770
62965W        W35390  16.650  34.048   2.881
62966W        W35391  35.195  30.515   1.378
62967W        W35392  38.126  11.759  13.843
62968W        W35393  27.176  40.867  13.190
62969W        W35394   0.777   0.873   3.628
62970W        W35395  17.826  27.552  14.576
62971W        W35396  35.182  26.399   0.352
62972W        W35397  17.292  14.531   0.345
62973W        W35398  14.925   9.343   0.027
62974W        W35399   5.729  11.881   2.541
62975W        W35400  41.991   9.802   0.271
62976W        W35401  33.294  39.130   1.920
62977W        W35402   1.569  11.620  11.528
62978W        W35403  44.475   8.576  13.120
62979W        W35404  19.113   9.292  14.730
62980W        W35405  21.205  35.420   3.912
62981W        W35406  28.189   0.331  13.330
62982W        W35407   4.002  15.760   2.880
62983W        W35408  12.205  21.505   0.850
62984W        W35409  26.817  24.194   2.128
62985W        W35410  32.647  14.279  12.495
62986W        W35411  37.051  29.663   5.093
62987W        W35412  18.745  32.446  14.589
62988W        W35413  41.619  43.135  10.295
62989W        W35414  15.576  33.949  13.493
62990W        W35415   3.973   8.248  13.785
62991W        W35416  15.245  15.698   2.463
62992W        W35417   9.721  17.663  10.866
62993W        W35418  37.880  12.807   1.899
62994W        W35419   7.395  11.171  11.576
62995W        W35420  16.230  16.819  13.309
62996W        W35421  18.241  26.544   2.230
62997W        W35422  43.368  42.576   1.219
62998W        W35423  26.759   2.090   2.881
62999W        W35424  41.621  18.704  10.569
63000W        W35425  38.111  32.220  11.936
63001W        W35426  27.831   6.311   1.481
63002W        W35427   7.933  38.454   1.430
63003W        W35428   6.917   1.282   2.917
63004W        W35429  40.942  10.371   4.099
63005W        W35430  31.103  23.939   1.005
63006W        W35431  39.025  11.067   4.162
63007W        W35432  31.987  41.088   0.775
63008W        W35433  22.032  39.983   0.508
63009W        W35434  23.007   0.191  12.616
63010W        W35435  11.086  24.608   1.800
63011W        W35436  21.599  17.768   0.079
63012W        W35437  37.002  37.689   3.609
63013W        W35438   7.784  24.982  13.963
63014W        W35439   9.563  13.443  10.725
63015W        W35440  44.548  23.701   0.988
63016W        W35441  26.921  40.760   1.790
63017W        W35442  41.414   3.361   0.224
63018W        W35443  44.296  14.151  14.243
63019W        W35444  42.986  33.856  12.881
63020W        W35445  12.557  11.313  13.554
63021W        W35446  20.362   0.303  11.146
63022W        W35447  13.673  25.508   3.135
63023W        W35448  16.708  43.720   3.205
63024W        W35449   1.884  27.297  12.415
63025W        W35450  27.641  16.135   4.095
63026W        W35451  37.038  14.754   2.831
63027W        W35452  14.170  21.849  14.812
63028W        W35453  21.703  15.643   3.351
63029W        W35454  21.187  24.698   3.423
63030W        W35455   5.506  32.490  12.904
63031W        W35456  28.941  35.076   2.802
63032W        W35457  10.843  14.037   0.438
63033W        W35458   4.943  14.772  12.112
63034W        W35459  27.679  17.148  13.305
63035W        W35460  16.119   9.388   1.843
63036W        W35461  16.427  13.105   3.227
63037W        W35462  18.989  33.838  14.780
63038W        W35463   3.790  38.378  14.780
63039W        W35464  35.084   0.587   1.663
63040W        W35465  11.580  41.356   0.475
63041W        W35466   5.421  29.080   0.433
63042W        W35467   4.939  35.375  14.779
63043W        W35468  17.810  31.783   4.591
63044W        W35469  12.630  35.341   4.621
63045W        W35470  32.145  27.633   0.636
63046W        W35471   0.260  16.772   4.161
63047W        W35472  14.689  10.615  11.199
63048W        W35473   1.746  14.269   3.135
63049W        W35474  41.258   4.876  13.534
63050W        W35475   5.272   6.738  13.518
63051W        W35476   4.217  41.000  12.994
63052W        W35477  31.656  39.454   4.932
63053W        W35478   4.879  32.910  12.855
63054W        W35479   3.413  36.390  14.943
63055W        W35480  26.402  16.583   4.601
63056W        W35481  44.778  37.406   2.198
63057W        W35482  29.140  15.682   0.921
63058W        W35483  35.489  33.949  13.791
63059W        W35484  20.008  29.386  12.057
63060W        W35485  10.807  24.515  13.152
63061W        W35486   2.832  36.827  14.336
63062W        W35487  40.878   7.218  14.058
63063W        W35488  30.773   1.049   0.819
63064W        W35489  21.041  15.091   4.537
63065W        W35490  39.876  36.608   4.670
63066W        W35491  38.451  21.768   2.314
63067W        W35492  23.309  37.403   4.483
63068W        W35493   1.644  44.945  12.710
63069W        W35494  15.328   3.339  10.245
63070W        W35495  27.404  40.335  14.548
63071W        W35496  43.451  33.383   2.800
63072W        W35497  21.110  26.270  12.168
63073W        W35498  26.022  43.491  14.520
63074W        W35499  30.157  24.164   4.844
63075W        W35500  30.116   9.130   2.006
63076W        W35501  19.046  12.827   0.004
63077W        W35502  32.273   8.232  14.319
63078W        W35503  17.245  30.586  11.716
63079W        W35504  40.919   0.841   1.836
63080W        W35505  24.519  26.559  13.437
63081W        W35506  24.753  27.028  13.746
63082W        W35507  24.432   1.405  13.932
63083W        W35508  25.683  40.989   3.655
63084W        W35509  41.410  30.434  13.484
63085W        W35510   9.927  41.197  14.362
63086W        W35511  30.198  44.710  14.405
63087W        W35512  31.725  21.152   3.967
63088W        W35513  14.844   8.146   4.316
63089W        W35514   8.817   9.073   0.322
63090W        W35515  27.491   7.129  13.862
63091W        W35516   4.792  14.630  12.590
63092W        W35517   0.509  37.822   1.303
63093W        W35518   1.774   3.893   4.494
63094W        W35519  32.542   5.833   3.378
63095W        W35520  10.628  37.785  10.658
63096W        W35521   5.530   0.482  13.957
63097W        W35522  44.989  17.813  14.029
63098W        W35523   5.309  29.009   2.313
63099W        W35524  27.615  36.854  13.536
63100W        W35525  22.932  43.955   1.825
63101W        W35526  25.312  33.623  11.359
63102W        W35527   9.360  29.243   2.788
63103W        W35528  19.242  37.993   4.731
63104W        W35529  30.427  42.450  13.142
63105W        W35530  24.139  30.869  11.511
63106W        W35531  37.001   5.792  12.688
63107W        W35532  29.477   2.039   0.963
63108W        W35533   9.406  31.136  11.462
63109W        W35534  33.266  12.706   2.739
63110W        W35535   4.249   1.121   1.036
63111W        W35536  27.811  34.119  12.407
63112W        W35537  15.826  40.296   0.362
63113W        W35538  27.601  41.835  14.604
63114W        W35539   5.632  37.280  14.465
63115W        W35540  17.253  16.557   1.391
63116W        W35541  17.240  16.385   4.096
63117W        W35542   3.023  42.039   1.372
63118W        W35543  44.373   6.141   0.718
63119W        W35544  43.339   1.920   5.131
63120W        W35545  24.755   0.303  11.654
63121W        W35546  17.062   8.116  13.080
63122W        W35547   1.192  35.799  10.809
63123W        W35548  29.025   6.799  14.977
63124W        W35549   1.840  38.279  14.108
63125W        W35550   6.366   0.293   1.312
63126W        W35551  19.798  11.588  14.817
63127W        W35552  12.735  16.555  14.285
63128W        W35553   5.711  27.944  13.919
63129W        W35554  20.147  33.194  13.480
63130W        W35555   1.846  12.832  10.950
63131W        W35556   6.746   3.387   0.701
63132W        W35557  44.418  39.565   3.494
63133W        W35558  20.084  43.536   3.340
63134W        W35559   6.659  37.483   3.832
63135W        W35560  13.150  14.157   4.437
63136W        W35561  11.075  27.939   3.230
63137W        W35562  15.064  18.587   2.199
63138W        W35563  34.500  25.305   2.454
63139W        W35564  41.298   2.256  11.202
63140W        W35565   0.049   9.202   2.352
63141W        W35566  22.441   4.968  12.584
63142W        W35567   4.712  19.753   4.713
63143W        W35568  35.393  34.860  11.219
63144W        W35569  27.228  42.380   1.912
63145W        W35570   7.155   8.478   1.220
63146W        W35571  19.371  39.793   1.993
63147W        W35572  25.936  40.754   1.829
63148W        W35573  12.691  14.298  12.322
63149W        W35574  17.550  30.883  14.397
63150W        W35575  30.672  20.696   0.286
63151W        W35576  40.862  27.565  11.843
63152W        W35577  23.194   3.752  11.692
63153W        W35578  17.523  31.644   0.320
63154W        W35579  12.855  20.709  11.138
63155W        W35580  20.645  34.983   2.050
63156W        W35581  15.129  44.482   1.941
63157W        W35582  22.637  34.142  10.939
63158W        W35583  34.302  21.130  12.994
63159W        W35584  11.572  32.752  13.574
63160W        W35585  33.759  26.079   3.099
63161W        W35586   8.188   6.535   2.709
63162W        W35587  31.349  18.604   0.096
63163W        W35588   1.765  14.974  14.381
63164W        W35589  11.814  11.602  12.919
63165W        W35590  14.516  13.346   1.821
63166W        W35591  23.496  17.295   2.725
63167W        W35592  35.641   2.384  13.064
63168W        W35593   8.269  40.859  13.296
63169W        W35594  43.521   3.534  13.014
63170W        W35595   0.913  17.074   2.148
63171W        W35596   9.354  15.609  12.330
63172W        W35597  39.077  10.757  11.531
63173W        W35598  15.444  23.037  13.629
63174W        W35599  23.074  26.546   0.786
63175W        W35600  33.949  19.844  12.134
63176W        W35601   3.157   9.300  12.850
63177W        W35602  35.531  17.714   1.156
63178W        W35603  20.516  36.899  12.538
63179W        W35604  43.568   7.034   4.402
63180W        W35605  12.853  41.285  14.010
63181W        W35606   2.738   7.793   2.696
63182W        W35607  27.558  44.017   0.261
63183W        W35608  36.072  24.934   0.372
63184W        W35609  38.354   2.878   3.291
63185W        W35610  15.848   2.454   3.486
63186W        W35611  40.928   0.724   0.718
63187W        W35612  23.735  43.417  14.762
63188W        W35613  26.717   1.202   2.392
63189W        W35614  16.679  14.722  10.658
63190W        W35615  19.829  34.623  12.451
63191W        W35616   3.012  26.633  12.956
63192W        W35617  19.084  22.482   4.133
63193W        W35618   5.127   1.503  11.466
63194W        W35619  20.910  30.131   1.451
63195W        W35620  23.826  42.968   0.000
63196W        W35621  30.024  16.390   3.221
63197W        W35622  18.498  30.795   3.374
63198W        W35623  43.075  28.814  14.917
63199W        W35624   3.703  39.888  13.009
63200W        W35625  35.488  38.589   2.209
63201W        W35626  14.160  33.460  12.733
63202W        W35627  37.790   7.458   4.632
63203W        W35628  38.347  29.541   2.662
63204W        W35629  14.041   6.847  13.894
63205W        W35630  27.301  39.902   3.161
63206W        W35631   0.831  18.799   4.742
63207W        W35632  27.647   3.189   1.772
63208W        W35633  33.747  36.310   3.693
63209W        W35634  19.038  32.828   0.896
63210W        W35635  17.580  35.039  12.566
63211W        W35636  20.689   0.718  10.392
63212W        W35637  33.028  21.706  10.892
63213W        W35638  29.325  24.689   3.773
63214W        W35639  14.714  32.101   3.546
63215W        W35640  17.353  22.204   0.883
63216W        W35641  15.842   5.690  13.963
63217W        W35642  10.863  43.245   4.548
63218W        W35643   5.777  36.391   1.811
63219W        W35644  11.592   6.303   1.680
63220W        W35645  30.191  14.681   0.759
63221W        W35646  20.494  41.157   0.683
63222W        W35647  20.278  42.035   2.346
63223W        W35648  32.249   1.849  12.110
63224W        W35649  20.271  15.751   3.632
63225W        W35650  40.646  23.271   0.553
63226W        W35651   8.181   7.796  13.270
63227W        W35652  29.808  15.208  12.479
63228W        W35653  29.273   4.847   3.568
63229W        W35654  39.424  43.080   4.465
63230W        W35655  13.467  30.410  12.086
63231W        W35656  13.642  36.937  11.892
63232W        W35657  13.363  14.932  11.117
63233W        W35658  11.731   2.456   4.199
63234W        W35659   3.186  26.080  10.655
63235W        W35660  12.246  15.121   4.695
63236W        W35661  19.382  31.555  14.934
63237W        W35662   1.338  16.587  14.519
63238W        W35663  21.320  42.666   4.109
63239W        W35664   1.921  28.931   2.776
63240W        W35665  17.266  33.892  12.962
63241W        W35666  37.188  36.465  11.094
63242W        W35667  36.112  39.263   3.723
63243W        W35668   1.251  35.532   4.614
63244W        W35669   3.744  32.029   2.267
63245W        W35670  17.329  33.566   3.758
63246W        W35671  14.784  14.274   0.610
63247W        W35672  18.188  21.214  12.169
63248W        W35673  30.706  16.209  14.382
63249W        W35674  13.736  41.795   2.668
63250W        W35675  27.679  36.476   0.961
63251W        W35676  17.155  44.184  12.329
63252W        W35677  30.214  27.953   3.941
63253W        W35678  39.895  23.830  11.566
63254W        W35679  15.809  38.431  13.500
63255W        W35680  35.560  32.655  13.394
63256W        W35681  40.222   3.169  11.614
63257W        W35682  31.514  36.861  13.381
63258W        W35683  16.892  37.528  13.356
63259W        W35684  21.501  41.884   2.607
63260W        W35685  40.072  28.526   1.894
63261W        W35686  22.700  28.379  11.557
63262W        W35687  37.041  38.805  10.679
63263W        W35688  35.412  32.418   2.317
63264W        W35689  27.451   0.734  13.045
63265W        W35690  35.964  31.472  11.415
63266W        W35691  40.332   7.207   3.192
63267W        W35692  13.115  21.585   4.882
63268W        W35693  11.393  11.541   3.221
63269W        W35694   6.371  38.058  13.301
63270W        W35695  12.595  29.650  13.453
63271W        W35696  14.177  17.632   1.404
63272W        W35697  26.188  16.090   4.728
63273W        W35698  38.853  31.843  14.500
63274W        W35699   9.958  44.732   4.989
63275W        W35700  18.085  40.156  14.078
63276W        W35701  28.163   4.383  14.319
63277W        W35702  22.665  27.482   3.877
63278W        W35703  39.341  31.458  14.469
63279W        W35704  13.841  12.747   1.915
63280W        W35705  20.062  35.990  14.864
63281W        W35706  29.221  43.358  13.804
63282W        W35707  22.479   5.990  12.509
63283W        W35708  24.464   9.735   3.806
63284W        W35709  31.680  30.654   1.484
63285W        W35710  34.155  41.052  11.320
63286W        W35711  17.695  44.211   0.338
63287W        W35712  38.423  42.903  12.975
63288W        W35713  10.192  17.989  12.529
63289W        W35714  27.135  31.983  12.358
63290W        W35715   8.481   1.777   4.532
63291W        W35716  26.625   6.998   1.301
63292W        W35717   3.701  11.740   4.073
63293W        W35718  11.651   5.448  12.968
63294W        W35719  33.888  29.454   1.416
63295W        W35720  28.134   4.880  13.527
63296W        W35721  18.308  39.579  11.511
63297W        W35722   3.362   3.263  11.541
63298W        W35723  10.341  35.517   2.639
63299W        W35724  43.377  37.532  13.455
63300W        W35725  36.881  20.433   2.216
63301W        W35726  24.588  24.226  12.024
63302W        W35727   5.910  12.775   3.799
63303W        W35728  12.967   5.526  12.154
63304W        W35729   1.028  31.134   4.073
63305W        W35730  44.730   3.748  14.916
63306W        W35731  32.534  40.018   1.954
63307W        W35732  31.572  31.923   3.591
63308W        W35733   7.832   5.270   1.412
63309W        W35734   4.380  17.841  10.565
63310W        W35735  43.269  23.161   1.752
63311W        W35736  18.281   5.861  10.490
63312W        W35737  34.022  28.647   2.249
63313W        W35738   0.581  18.988  14.597
63314W        W35739   9.375  36.632   4.128
63315W        W35740  15.088  39.994  13.459
63316W        W35741  18.748  31.046  14.802
63317W        W35742  43.024  35.937  13.022
63318W        W35743  21.371  42.160   4.224
63319W        W35744  12.676  13.207   1.080
63320W        W35745  15.562   0.906  11.607
63321W        W35746  15.259   0.973   0.687
63322W        W35747  41.074  23.480  10.698
63323W        W35748  13.930   0.855  14.286
63324W        W35749  40.549  41.417   1.009
63325W        W35750  30.088   1.924  13.047
63326W        W35751  13.065  26.573  14.189
63327W        W35752  23.012   0.696  12.477
63328W        W35753  14.612  11.778  12.411
63329W        W35754  16.913  41.155  12.443
63330W        W35755  29.606  40.011   0.252
63331W        W35756  10.515  43.624   2.568
63332W        W35757  11.925   9.531   0.285
63333W        W35758   3.603  21.366  11.901
63334W        W35759  30.582  18.116   5.443
63335W        W35760  40.943   7.464  13.599
63336W        W35761   3.157  12.021  12.930
63337W        W35762  33.973  27.062   1.825
63338W        W35763  27.664  39.037  10.386
63339W        W35764   5.045  38.922   2.718
63340W        W35765   9.856  39.466  11.912
63341W        W35766  10.296  37.083  11.090
63342W        W35767  34.989  43.327   3.435
63343W        W35768  25.522   1.529   4.289
63344W        W35769   2.915  11.114   2.341
63345W        W35770  44.556  25.208   3.263
63346W        W35771  26.923   5.889   4.676
63347W        W35772  27.577   7.449   4.013
63348W        W35773   5.776  10.281   4.498
63349W        W35774  41.536   6.904  11.006
63350W        W35775  41.073   7.327  12.185
63351W        W35776  15.926  13.690  11.256
63352W        W35777   0.365   2.551  12.105
63353W        W35778  31.559  42.832  14.674
63354W        W35779  38.877   5.717  13.927
63355W        W35780  17.059  10.037  13.903
63356W        W35781  24.435   0.328  10.742
63357W        W35782  18.551  27.562  11.030
63358W        W35783   4.951  39.499   3.523
63359W        W35784  39.058  18.707   2.761
63360W        W35785  21.064   3.735  12.186
63361W        W35786  39.632  20.564  13.574
63362W        W35787  11.695  23.115   4.026
63363W        W35788  28.248  35.116   1.488
63364W        W35789  18.799  32.747  14.070
63365W        W35790  12.589  18.836   1.277
63366W        W35791  32.519  15.681  12.567
63367W        W35792   1.145  19.786  13.328
63368W        W35793   7.873  21.877  11.030
63369W        W35794   6.766  25.707  14.912
63370W        W35795  25.469  16.292   3.545
63371W        W35796   2.269  14.086  14.525
63372W        W35797   1.289  38.488   1.218
63373W        W35798  22.991  27.309   2.275
63374W        W35799  17.628  14.541   0.752
63375W        W35800   2.777   4.865  13.492
63376W        W35801  16.596  22.742  11.053
63377W        W35802  26.542  24.935   4.280
63378W        W35803  12.654   4.766  11.611
63379W        W35804  27.200   5.304  10.627
63380W        W35805  39.353  39.320  14.857
63381W        W35806  26.443  30.060   2.915
63382W        W35807  30.852  12.614   1.292
63383W        W35808  21.235  42.073   2.205
63384W        W35809  32.406  41.295   2.697
63385W        W35810  43.277  21.815  14.453
63386W        W35811  40.382  31.528   1.269
63387W        W35812  16.333  10.245  13.463
63388W        W35813  42.758  35.494  13.813
63389W        W35814   2.348  35.938   2.868
63390W        W35815  37.788  27.145  11.540
63391W        W35816  16.673  25.608   0.295
63392W        W35817  40.348   3.273   1.289
63393W        W35818  22.750  20.403  13.144
63394W        W35819  37.012  27.424  12.435
63395W        W35820  10.348  36.032  11.975
63396W        W35821  30.698  29.200   3.150
63397W        W35822   7.173  34.043   2.595
63398W        W35823  24.177  41.524  12.149
63399W        W35824  36.898  10.065  11.587
63400W        W35825   8.050  35.274  12.919
63401W        W35826  22.516   8.459   4.332
63402W        W35827  11.073   7.676  13.388
63403W        W35828  26.614  19.353  11.049
63404W        W35829   8.464  20.768  14.830
63405W        W35830  21.264  14.201   0.352
63406W        W35831  37.413   5.817   0.957
63407W        W35832  11.307  32.712   3.828
63408W        W35833  15.986  27.161  14.469
63409W        W35834  16.002  27.132  11.189
63410W        W35835  39.461  39.965  11.437
63411W        W35836   5.203  25.287  14.928
63412W        W35837  40.202  36.375  10.446
63413W        W35838  33.382  20.629  12.840
63414W        W35839   4.977  10.383   0.884
63415W        W35840  39.473  19.229  12.221
63416W        W35841   6.888  19.782  12.134
63417W        W35842  14.354   1.422   1.620
63418W        W35843  17.024  26.539  14.676
63419W        W35844  21.942  27.057   4.013
63420W        W35845  15.301  21.185   3.815
63421W        W35846  34.177  14.689   1.176
63422W        W35847  40.759  17.766  11.966
63423W        W35848  34.610   7.335   3.214
63424W        W35849  16.123  11.303  11.144
63425W        W35850  11.858  33.523   3.160
63426W        W35851  34.071  37.885  14.294
63427W        W35852   9.185   1.192  12.473
63428W        W35853  14.539  14.641  14.907
63429W        W35854  42.071  29.474   1.274
63430W        W35855  10.041  37.868  11.425
63431W        W35856   1.223  39.494  11.297
63432W        W35857   6.785  10.719   3.301
63433W        W35858   7.800  21.006   0.366
63434W        W35859  22.447  10.242   4.656
63435W        W35860  41.907  44.673   1.312
63436W        W35861  34.870  21.823  11.360
63437W        W35862   4.857  21.276   0.449
63438W        W35863  34.494  44.511  14.240
63439W        W35864  31.186  24.149   2.808
63440W        W35865  33.029  32.344  14.534
63441W        W35866  25.167  38.398   4.649
63442W        W35867  23.213  33.593   2.749
63443W        W35868  37.702  28.923  11.926
63444W        W35869  23.720  36.906   4.131
63445W        W35870  34.203  32.631   0.172
63446W        W35871  16.115  11.298  11.660
63447W        W35872  42.524   9.400  10.675
63448W        W35873  26.094  25.058   4.064
63449W        W35874  39.456  12.065  14.284
63450W        W35875   6.653  38.401  11.193
63451W        W35876  27.040  10.870  14.035
63452W        W35877  39.263  32.138   4.404
63453W        W35878  13.298  31.123   2.740
63454W        W35879  41.847  27.614  10.849
63455W        W35880  25.142  27.290  13.974
63456W        W35881  38.462   6.737   1.025
63457W        W35882  22.515  19.344   3.341
63458W        W35883   6.516  14.727   1.337
63459W        W35884  38.373  11.168  11.717
63460W        W35885   2.199  20.183   1.524
63461W        W35886   3.965   3.006  14.278
63462W        W35887  36.144  28.081  12.510
63463W        W35888  12.333  15.109  14.687
63464W        W35889  23.488   7.396  11.865
63465W        W35890   8.004   7.870   0.502
63466W        W35891  17.327  12.246   1.725
63467W        W35892  43.429  36.299   2.260
63468W        W35893  15.641   3.435   2.695
63469W        W35894   3.366  40.402   2.418
63470W        W35895   4.698  33.467   3.716
63471W        W35896  31.188   7.744   3.886
63472W        W35897  29.359   8.703  13.269
63473W        W35898  43.253   6.199  11.931
63474W        W35899  28.132  38.817   2.442
63475W        W35900   5.636   5.370  11.423
63476W        W35901  42.528  33.139  14.237
63477W        W35902  17.292  19.530   3.645
63478W        W35903  27.155  36.527   3.664
63479W        W35904  10.235   3.796  11.407
63480W        W35905  22.360  40.137  11.543
63481W        W35906  24.694  43.493   4.112
63482W        W35907  12.100  42.822   4.214
63483W        W35908   4.326  22.650   0.295
63484W        W35909  22.415  37.071  10.728
63485W        W35910   0.289  41.878   2.677
63486W        W35911  39.801  28.081   3.820
63487W        W35912   5.380   2.208   0.000
63488W        W35913  11.833   8.191   3.744
63489W        W35914   9.223  40.273   2.325
63490W        W35915  14.986   5.328  13.850
63491W        W35916  26.842  12.069  13.514
63492W        W35917  40.938  44.407  10.651
63493W        W35918   4.638   9.967   0.933
63494W        W35919  35.638  22.642   0.300
63495W        W35920  29.546   0.960  13.417
63496W        W35921  19.561  34.599   2.855
63497W        W35922   8.646   3.503   3.495
63498W        W35923  25.984  28.616  12.010
63499W        W35924  34.375   5.325   0.776
63500W        W35925  33.008   5.290  10.977
63501W        W35926   4.872  36.398  10.683
63502W        W35927  22.904  12.135   9.904
63503W        W35928  21.674  34.047   2.539
63504W        W35929  42.895  36.974   0.731
63505W        W35930  22.515  21.083   0.909
63506W        W35931  18.207  29.057   1.845
63507W        W35932  24.365  36.535   3.792
63508W        W35933   1.003   7.940  12.116
63509W        W35934  34.403  41.890   4.599
63510W        W35935  29.985   3.340  10.338
63511W        W35936  24.793  30.444  11.091
63512W        W35937  20.748  18.038  12.018
63513W        W35938  28.536  36.402  13.348
63514W        W35939  26.491  24.014  10.679
63515W        W35940  32.200  19.488  14.014
63516W        W35941  27.662  44.208  11.585
63517W        W35942   4.997  19.226   2.689
63518W        W35943   2.025  33.487  14.178
63519W        W35944  34.031  10.642  11.109
63520W        W35945  29.053  17.353  14.461
63521W        W35946  40.036  11.654   1.466
63522W        W35947  36.936   2.193   1.244
63523W        W35948  17.397  16.525   4.578
63524W        W35949   6.796  41.574   3.352
63525W        W35950  17.518   1.772  14.117
63526W        W35951  39.946  18.272   1.883
63527W        W35952  30.480  40.808   3.710
63528W        W35953   4.744  44.909  12.501
63529W        W35954   2.373  19.935  11.443
63530W        W35955  43.286   2.757  12.683
63531W        W35956  10.766  36.272  14.717
63532W        W35957  43.337  33.635  13.909
63533W        W35958  32.303  36.040   4.864
63534W        W35959  14.767   1.941  14.282
63535W        W35960  12.783  18.354   3.486
63536W        W35961  16.084   9.074   0.551
63537W        W35962  42.867  13.612  14.603
63538W        W35963  11.188   6.931  14.789
63539W        W35964   1.560  18.135  11.490
63540W        W35965  40.590  32.141  14.990
63541W        W35966  15.622  28.995   1.448
63542W        W35967  15.905   0.879  14.095
63543W        W35968  42.985  38.946  13.606
63544W        W35969  16.018  27.622  14.981
63545W        W35970  38.824  10.967  13.335
63546W        W35971  22.558   7.088   2.618
63547W        W35972  32.925   1.822   0.896
63548W        W35973  30.310  18.037  13.563
63549W        W35974  15.098  40.095   0.990
63550W        W35975   0.709  14.317  10.275
63551W        W35976  12.383   9.415   4.727
63552W        W35977   7.692  40.161   0.275
63553W        W35978  18.809  25.464  12.818
63554W        W35979  40.225   7.415  12.604
63555W        W35980  10.880  16.981   0.500
63556W        W35981   0.016   0.412  12.441
63557W        W35982  30.501  19.027  10.981
63558W        W35983   7.982   1.739   1.699
63559W        W35984  29.170  21.772  10.843
63560W        W35985   9.360  44.356  11.844
63561W        W35986   4.446  44.276   1.066
63562W        W35987   0.316  35.011  10.934
63563W        W35988  39.784  34.453  12.950
63564W        W35989   0.261  23.668  14.360
63565W        W35990   5.150  20.135   0.419
63566W        W35991   3.767  26.115   0.265
63567W        W35992  42.007  17.900  13.726
63568W        W35993  24.615  37.945  10.936
63569W        W35994   7.817  44.385   4.520
63570W        W35995   8.670  39.348  14.397
63571W        W35996  29.858   9.556  10.439
63572W        W35997  27.855  12.560  14.921
63573W        W35998  16.196   4.965  12.060
63574W        W35999   2.462  10.855   3.190
63575W        W36000  42.597  24.922  13.374
63576W        W36001  26.008   9.380   0.237
63577W        W36002  24.229  34.136   0.899
63578W        W36003   8.089  28.483  12.064
63579W        W36004  37.114   0.919  11.305
63580W        W36005  14.020   9.747  14.966
63581W        W36006  40.876  35.370  10.617
63582W        W36007   0.002  34.973  12.437
63583W        W36008   2.677  22.736  10.695
63584W        W36009  23.038  15.516  10.365
63585W        W36010  39.322  34.694  13.128
63586W        W36011   3.154  30.421  14.819
63587W        W36012  41.746  25.938  10.959
63588W        W36013  33.100  17.732  10.725
63589W        W36014  30.033  16.122  11.061
63590W        W36015   9.635  35.988  10.486
63591W        W36016  40.829   3.824  13.341
63592W        W36017  42.062  10.637  12.052
63593W        W36018  11.384  25.680   2.843
63594W        W36019   7.802  15.713   0.992
63595W        W36020  33.640  41.415   4.766
63596W        W36021  36.705  10.196  14.046
63597W        W36022  40.797  35.502   4.784
63598W        W36023   7.415  42.285  12.011
63599W        W36024   7.395  44.387   4.844
63600W        W36025  28.089   4.474   1.857
63601W        W36026  44.418   2.241  10.646
63602W        W36027  33.000  28.122  11.181
63603W        W36028  12.213  13.056   0.169
63604W        W36029  10.697  17.362  14.454
63605W        W36030  31.614  36.613   0.349
63606W        W36031  31.423  40.232   1.749
63607W        W36032   1.028   4.172   4.106
63608W        W36033  29.954  31.399  14.944
63609W        W36034  28.923  32.946  11.568
63610W        W36035  20.474   9.890  10.205
63611W        W36036  27.530  34.124  12.983
63612W        W36037  13.106  15.555  12.243
63613W        W36038  35.388  23.792   2.305
63614W        W36039   9.123   7.168   3.202
63615W        W36040  41.123  42.904  11.150
63616W        W36041  39.070  17.452   2.457
63617W        W36042   9.131  16.502   1.723
63618W        W36043   0.063  21.140  11.180
63619W        W36044  30.260  39.197   0.982
63620W        W36045   6.430  28.173   2.176
63621W        W36046  36.376   6.717   3.226
63622W        W36047  37.583  29.180  10.672
63623W        W36048  29.077  43.452  11.348
63624W        W36049  13.802  14.580   1.308
63625W        W36050  16.723   6.664  12.836
63626W        W36051   6.346  23.516   1.811
63627W        W36052  21.471  37.162  14.857
63628W        W36053  11.100  25.076   0.337
63629W        W36054  25.959  43.432   0.505
63630W        W36055   8.517   0.512  14.887
63631W        W36056   9.766   2.208   1.732
63632W        W36057  23.186  30.426  12.170
63633W        W36058  18.895  44.000  11.464
63634W        W36059  11.457  26.657   3.695
63635W        W36060  40.382   7.498   1.311
63636W        W36061  30.944   3.286   1.742
63637W        W36062  36.023   8.730   5.173
63638W        W36063  33.685  26.638   4.549
63639W        W36064  11.843  25.510   4.613
63640W        W36065   1.384  42.922   4.527
63641W        W36066  21.954   9.239  12.389
63642W        W36067   1.610  33.070   3.397
63643W        W36068  32.724  25.540  10.725
63644W        W36069   7.440  30.046   1.304
63645W        W36070  32.566   1.011  13.010
63646W        W36071  21.178  11.768   1.830
63647W        W36072  18.459  12.789   3.120
63648W        W36073  10.347  28.735  14.003
63649W        W36074   8.473   7.302   1.000
63650W        W36075   4.893  30.731  11.221
63651W        W36076  20.041  17.212  10.532
63652W        W36077   8.688  39.322  11.417
63653W        W36078  42.409  11.764   1.313
63654W        W36079  10.153   3.834  13.932
63655W        W36080  43.282  35.476  13.815
63656W        W36081  44.973   1.825   4.705
63657W        W36082  12.340  24.224   1.727
63658W        W36083  39.368  18.562   3.150
63659W        W36084  20.194   1.131  13.498
63660W        W36085  37.954   6.536  13.965
63661W        W36086  39.761  28.916  13.444
63662W        W36087  22.023  40.586   4.586
63663W        W36088  22.137  15.879  11.824
63664W        W36089  11.128  38.006   0.928
63665W        W36090  43.816  30.123   4.654
63666W        W36091  44.288  16.745  12.584
63667W        W36092   2.462  18.790   0.818
63668W        W36093  15.731  11.251   0.341
63669W        W36094  21.060   1.283   2.402
63670W        W36095   4.410  28.930  10.686
63671W        W36096   4.903  33.621  12.176
63672W        W36097  27.403  33.052   3.206
63673W        W36098  39.860  10.215   0.526
63674W        W36099  28.051  30.967  14.958
63675W        W36100  17.685  20.084  11.219
63676W        W36101  27.409   9.915   5.003
63677W        W36102   8.766  32.937  10.692
63678W        W36103   4.458  34.357   2.723
63679W        W36104  40.338  25.930  13.479
63680W        W36105  25.654  14.391   0.312
63681W        W36106  40.102  13.237  12.550
63682W        W36107  34.927   5.239  11.980
63683W        W36108   3.241  14.635  13.409
63684W        W36109  34.216  26.857   2.779
63685W        W36110   5.275  20.720   3.479
63686W        W36111  13.409  20.082   2.109
63687W        W36112  29.682  32.610  10.507
63688W        W36113  10.116  44.331  11.806
63689W        W36114  40.868  12.951  14.932
63690W        W36115  22.432   7.882  12.883
63691W        W36116  37.063  23.137   2.311
63692W        W36117   4.443   9.282  12.278
63693W        W36118  11.727  34.431  13.044
63694W        W36119   9.507  25.043   1.439
63695W        W36120   5.240  11.837  10.672
63696W        W36121  25.174  17.698   2.692
63697W        W36122   3.153  37.875  13.022
63698W        W36123   9.481  26.679  11.073
63699W        W36124   2.949  28.519   4.162
63700W        W36125  38.640  28.081   3.230
63701W        W36126  10.402  37.797  12.952
63702W        W36127  15.552  37.909   1.922
63703W        W36128  23.639  16.803  11.897
63704W        W36129  15.083  35.218   1.691
63705W        W36130  27.237  40.856  11.781
63706W        W36131  31.103  16.380   2.592
63707W        W36132  20.949   6.705   4.626
63708W        W36133  33.608   2.693  13.962
63709W        W36134  35.801  30.096  13.052
63710W        W36135  44.545  35.194  10.641
63711W        W36136   4.935  42.274   1.443
63712W        W36137  43.199   7.958   0.345
63713W        W36138  20.202  27.871   1.732
63714W        W36139  19.789  14.197  11.529
63715W        W36140  16.870  10.289  13.462
63716W        W36141  18.759  42.228   1.235
63717W        W36142  33.946  27.689   2.302
63718W        W36143  18.100  25.000  13.997
63719W        W36144  22.830  19.723   1.952
63720W        W36145  35.649  34.025  14.769
63721W        W36146   0.331  34.021  14.901
63722W        W36147  31.856   6.955  12.086
63723W        W36148  14.623  36.040   1.239
63724W        W36149   0.961  10.259   1.913
63725W        W36150  11.245  23.694   2.694
63726W        W36151  27.101   4.621  12.168
63727W        W36152  26.807  25.926   1.909
63728W        W36153   1.400  11.801  12.416
63729W        W36154   4.625  41.930  11.935
63730W        W36155   5.282  19.605  13.101
63731W        W36156   9.404  41.790   0.991
63732W        W36157  15.185   0.183  13.793
63733W        W36158   8.538  18.773   0.449
63734W        W36159  41.077  27.145  13.141
63735W        W36160  44.333  11.296   2.416
63736W        W36161   3.238   2.461  12.450
63737W        W36162  14.086  27.308  12.559
63738W        W36163   4.398   5.499   0.160
63739W        W36164  41.659  18.826   2.144
63740W        W36165  36.849  13.888  14.910
63741W        W36166  43.923  29.628  14.155
63742W        W36167  13.292  21.808   2.197
63743W        W36168  40.330  28.079   3.868
63744W        W36169  34.481  23.530   4.633
63745W        W36170   8.014   7.219  10.239
63746W        W36171   5.782  30.783  12.419
63747W        W36172  18.129   0.669   3.312
63748W        W36173  15.148   0.706   0.242
63749W        W36174   1.440  41.368   4.902
63750W        W36175  30.062  17.765   4.707
63751W        W36176   5.728  28.684   2.630
63752W        W36177  16.845  30.655   4.521
63753W        W36178   3.881   5.901  11.438
63754W        W36179  18.531   6.696   1.786
63755W        W36180  18.122   6.353   1.868
63756W        W36181  18.285  37.726  13.331
63757W        W36182  19.050   7.804  12.517
63758W        W36183  15.525  24.189  12.490
63759W        W36184  12.382  31.966  10.608
63760W        W36185  41.377  27.278  14.035
63761W        W36186  11.803   7.207   1.745
63762W        W36187  36.000  12.864   0.264
63763W        W36188  33.566  12.613   0.532
63764W        W36189  21.883  23.023  14.372
63765W        W36190  11.894  40.049   4.092
63766W        W36191  28.214  42.826  14.980
63767W        W36192  35.501   0.559  13.500
63768W        W36193  18.655   4.340   2.422
63769W        W36194  18.641   6.351   1.245
63770W        W36195  20.923  44.826  13.854
63771W        W36196  42.928   1.375  10.531
63772W        W36197  38.732  15.564  12.821
63773W        W36198   8.670  19.525  12.647
63774W        W36199  44.420  40.083   4.073
63775W        W36200  44.857  43.216   1.606
63776W        W36201  37.448  26.968  13.549
63777W        W36202  28.177  43.587  10.519
63778W        W36203  18.581   5.386   0.880
63779W        W36204  44.518  14.286  13.222
63780W        W36205  10.792   4.854   0.195
63781W        W36206   8.423  20.676   4.999
63782W        W36207   6.157  10.906   4.960
63783W        W36208  15.150  25.101   4.199
63784W        W36209  41.479   5.372   1.782
63785W        W36210  14.641   5.771   1.193
63786W        W36211   5.901  41.770  11.755
63787W        W36212  33.879  12.521   3.705
63788W        W36213   5.944  26.064   0.857
63789W        W36214  11.819  40.602   3.146
63790W        W36215  34.074  28.431   0.784
63791W        W36216  18.693  34.712  13.059
63792W        W36217  10.827  44.439  13.615
63793W        W36218  14.633  23.163   3.403
63794W        W36219  16.852   3.250   2.803
63795W        W36220  29.074  27.949   0.004
63796W        W36221  10.215  21.525  11.188
63797W        W36222  21.213  19.149  13.815
63798W        W36223  39.943  31.636  11.438
63799W        W36224  17.274   6.766  13.988
63800W        W36225  11.846  26.014  13.313
63801W        W36226  32.994  42.934  10.029
63802W        W36227  10.760  29.758  14.387
63803W        W36228   1.937  39.508  14.585
63804W        W36229  28.079  27.351  10.854
63805W        W36230  24.992  31.351  14.762
63806W        W36231   9.852  42.863   3.771
63807W        W36232  16.696  38.012  10.786
63808W        W36233  29.597  31.707  13.857
63809W        W36234  16.215   0.762  12.342
63810W        W36235  27.397   6.493   3.704
63811W        W36236   1.373  20.742   0.749
63812W        W36237  39.498   4.436   2.639
63813W        W36238  26.614  10.351  14.898
63814W        W36239  24.693  27.973  12.374
63815W        W36240   6.319  32.143   1.291
63816W        W36241  22.066  24.277  11.905
63817W        W36242  12.312  27.471  13.932
63818W        W36243  31.522  17.033  13.402
63819W        W36244  26.066  22.559   0.035
63820W        W36245  37.019  22.984   0.933
63821W        W36246  18.760  31.091   4.867
63822W        W36247   4.389  15.012  13.020
63823W        W36248  18.500   5.882   1.024
63824W        W36249  40.884  33.195  13.479
63825W        W36250  21.080  21.011   2.670
63826W        W36251  31.606  20.330   4.103
63827W        W36252  29.220  20.504   2.223
63828W        W36253  39.051  21.096   5.106
63829W        W36254  13.986  17.381  11.887
63830W        W36255  18.839   8.261  14.475
63831W        W36256  23.255  40.625   0.984
63832W        W36257  27.588  30.531  10.167
63833W        W36258  41.699  27.423  11.331
63834W        W36259  29.170  42.764  11.215
63835W        W36260   1.074  30.049   1.386
63836W        W36261  25.449  25.228  14.468
63837W        W36262  22.290  21.549  11.187
63838W        W36263   2.297  41.045  14.501
63839W        W36264   7.929   6.055  13.259
63840W        W36265  29.376  14.321   0.940
63841W        W36266  21.032  39.462   2.998
63842W        W36267  12.772  18.104  14.915
63843W        W36268  12.804  41.899   2.118
63844W        W36269   5.779  36.617   3.747
63845W        W36270  24.764  34.158  12.562
63846W        W36271  31.659  27.697  10.948
63847W        W36272  12.141  31.195   4.037
63848W        W36273  18.623  22.305   1.419
63849W        W36274  12.530  26.984  11.243
63850W        W36275   5.516  38.964   3.004
63851W        W36276  20.853  17.685  13.896
63852W        W36277  27.952  24.974   4.123
63853W        W36278   0.862  12.126  13.273
63854W        W36279  19.772  26.969   4.891
63855W        W36280  30.469  34.577   2.482
63856W        W36281  27.954  23.108  13.435
63857W        W36282  42.189   8.910  12.369
63858W        W36283   1.316  30.916  11.646
63859W        W36284  29.722   1.761  11.124
63860W        W36285  39.529   1.904   1.033
63861W        W36286   8.300   7.012   3.454
63862W        W36287  32.526  29.704   0.249
63863W        W36288  23.485  30.195  11.438
63864W        W36289  16.806  41.379  14.252
63865W        W36290  20.552  24.898  10.646
63866W        W36291  43.450  14.781   4.562
63867W        W36292  39.056   5.646   4.711
63868W        W36293   6.363  13.890  13.026
63869W        W36294  18.753   9.319  11.577
63870W        W36295  36.447  24.774  13.765
63871W        W36296  33.017  10.889  12.982
63872W        W36297  20.581  25.141  13.828
63873W        W36298  20.135  27.739   0.827
63874W        W36299  20.528  12.822  11.568
63875W        W36300  40.455   4.283  10.742
63876W        W36301  41.472  16.789  13.791
63877W        W36302  10.369  15.591  12.449
63878W        W36303  12.143  28.908  12.870
63879W        W36304  34.101  12.870   0.744
63880W        W36305  19.026  14.360   1.918
63881W        W36306  38.929  18.410   1.873
63882W        W36307  42.131  18.797  14.072
63883W        W36308  33.430  34.140  11.708
63884W        W36309  32.638   8.598   2.182
63885W        W36310   1.311   7.683  14.311
63886W        W36311   0.822  37.248   3.128
63887W        W36312  33.378  14.814  11.938
63888W        W36313   7.093   6.883  12.919
63889W        W36314  11.275  21.519  11.042
63890W        W36315  41.751  44.042  10.398
63891W        W36316  39.327  28.428  10.654
63892W        W36317  30.055  28.725   2.459
63893W        W36318  36.924   5.562   2.651
63894W        W36319  44.790  12.032   3.675
63895W        W36320  32.892   9.940  10.793
63896W        W36321   6.255  17.392  12.129
63897W        W36322  33.466   9.300   1.643
63898W        W36323  15.690  22.737  11.974
63899W        W36324  43.742  44.757   1.157
63900W        W36325  19.395  29.337   3.691
63901W        W36326  31.345  21.201  12.887
63902W        W36327  30.039  11.674  14.003
63903W        W36328  14.275   9.168  14.193
63904W        W36329   8.810  28.142  14.292
63905W        W36330  12.777   9.842  11.975
63906W        W36331  25.750  10.367  14.856
63907W        W36332  14.384  29.537   1.872
63908W        W36333  24.712   5.969   2.374
63909W        W36334  17.093  26.336   3.016
63910W        W36335   6.821  24.075   4.944
63911W        W36336  20.338  23.184   0.410
63912W        W36337  29.410  36.401  14.919
63913W        W36338  10.543  41.290  11.364
63914W        W36339  43.478  26.397   3.814
63915W        W36340   0.543  11.064   1.059
63916W        W36341  26.969   9.923   1.460
63917W        W36342  43.928  42.411   3.312
63918W        W36343  42.411  38.125  11.627
63919W        W36344   1.424  33.054   4.525
63920W        W36345  31.895  21.534   0.831
63921W        W36346  28.660  37.852  11.494
63922W        W36347  17.074  44.251  11.845
63923W        W36348  35.569  25.206  11.998
63924W        W36349  38.837  40.088  14.022
63925W        W36350  35.838  19.480   1.497
63926W        W36351  23.167  42.335   0.383
63927W        W36352   0.536  27.001  14.090
63928W        W36353   9.034  29.687   3.745
63929W        W36354  17.201   5.328  13.434
63930W        W36355  22.793  26.370  12.909
63931W        W36356  18.836  35.647   4.589
63932W        W36357  18.864  12.352  14.922
63933W        W36358  25.615  19.599  13.002
63934W        W36359  32.027  15.723  12.402
63935W        W36360   9.261  41.078   2.696
63936W        W36361   8.300  31.912  14.561
63937W        W36362  17.735   2.958  13.453
63938W        W36363   3.842  30.815  11.366
63939W        W36364  11.905  42.494   3.863
63940W        W36365   6.168  23.569   2.401
63941W        W36366   2.502  11.656  14.286
63942W        W36367  24.728  27.929  14.845
63943W        W36368  28.106  40.717   0.252
63944W        W36369   9.965   5.213  13.343
63945W        W36370   4.334  16.550  13.036
63946W        W36371  34.965  36.973   4.667
63947W        W36372  42.423  14.179  10.392
63948W        W36373  11.946  30.149  11.910
63949W        W36374  27.758  32.122   3.388
63950W        W36375  20.015   3.226  13.358
63951W        W36376  27.462  44.447   0.778
63952W        W36377  19.950  42.151   4.214
63953W        W36378  25.081   0.250  14.381
63954W        W36379  35.421  44.057  13.296
63955W        W36380  39.634  19.245   4.876
63956W        W36381  18.307  28.772  10.724
63957W        W36382  19.977  23.767  10.807
63958W        W36383  41.313   7.503  14.918
63959W        W36384  16.741  19.310  10.737
63960W        W36385  19.852   8.009  11.970
63961W        W36386  36.644  21.181   1.243
63962W        W36387  37.380  40.497   1.418
63963W        W36388   5.914  36.430  12.859
63964W        W36389   7.219  33.375  12.101
63965W        W36390  14.115  39.840  10.576
63966W        W36391   7.417  44.788   0.832
63967W        W36392  24.716  18.238  12.046
63968W        W36393  35.692  43.062  12.394
63969W        W36394  24.261  40.466   4.603
63970W        W36395  10.722   2.168   5.001
63971W        W36396   9.918  14.379  10.660
63972W        W36397  44.917  33.209  14.496
63973W        W36398   4.772  33.879   3.415
63974W        W36399  14.379  42.633   0.137
63975W        W36400  32.038  33.921   0.264
63976W        W36401   1.951   6.355   0.776
63977W        W36402  33.136  40.895   1.358
63978W        W36403  39.753  19.831  14.399
63979W        W36404  41.757  31.389  14.387
63980W        W36405  32.639  24.847   2.986
63981W        W36406  19.605   8.230  13.834
63982W        W36407   7.708  12.097  11.532
63983W        W36408  32.123  34.516  12.381
63984W        W36409  23.642  27.499   0.702
63985W        W36410  23.086  20.375  14.948
63986W        W36411   5.502   1.233  14.626
63987W        W36412  17.826  41.564  12.185
63988W        W36413  33.799   0.917  12.164
63989W        W36414  33.338  43.478   4.243
63990W        W36415  37.184  23.431  14.551
63991W        W36416  25.929  22.190  12.071
63992W        W36417  37.489   0.360   2.745
63993W        W36418  36.197  14.847   5.254
63994W        W36419  19.813  25.051   4.615
63995W        W36420   9.557   0.410  11.709
63996W        W36421  36.750   9.358  13.936
63997W        W36422  27.634  38.733   1.270
63998W        W36423  42.468   5.901  12.460
63999W        W36424   0.404  42.462  10.869
64000W        W36425  21.961  24.990  10.976
64001W        W36426  12.212   6.861   1.218
64002W        W36427   5.166  30.012   3.628
64003W        W36428  33.044  13.178  12.873
64004W        W36429  24.284  32.294  11.049
64005W        W36430  44.441  42.034   0.119
64006W        W36431  20.533   1.563  14.209
64007W        W36432  37.575   9.341  10.662
64008W        W36433  11.672  27.506   2.129
64009W        W36434   7.469  30.447  13.510
64010W        W36435  40.803  19.066   1.096
64011W        W36436   8.810   4.644  14.784
64012W        W36437  25.022  31.629   0.449
64013W        W36438  42.726  43.454   4.005
64014W        W36439  15.052  39.061   2.992
64015W        W36440  29.838  40.837   3.291
64016W        W36441  38.625  21.755  13.396
64017W        W36442  41.905  26.740  10.224
64018W        W36443  40.578  26.750   3.753
64019W        W36444   7.242   6.496  12.051
64020W        W36445   9.629  12.346  10.620
64021W        W36446  23.217  11.762  14.993
64022W        W36447  21.533  39.326   1.390
64023W        W36448  27.020  25.088   0.073
64024W        W36449  11.125   8.679  13.332
64025W        W36450  18.144  21.163   3.443
64026W        W36451   7.423  34.531   3.717
64027W        W36452   8.434  26.212   4.694
64028W        W36453  29.084  18.936  13.556
64029W        W36454  26.146  16.702   3.573
64030W        W36455   4.808  41.443  10.133
64031W        W36456   2.686  22.804   4.487
64032W        W36457  27.173  32.304  11.963
64033W        W36458  11.396  30.586   4.114
64034W        W36459  41.415  20.001  11.178
64035W        W36460  33.585  37.740   0.905
64036W        W36461  40.085   2.184   3.600
64037W        W36462  40.288  34.576  13.902
64038W        W36463  23.092   2.171  10.846
64039W        W36464  36.841  26.343  14.868
64040W        W36465   5.445   9.328  14.810
64041W        W36466  15.156  40.289  11.583
64042W        W36467  10.900  24.677  11.132
64043W        W36468  10.441  32.002  11.599
64044W        W36469  21.445   4.976  10.833
64045W        W36470  40.486   7.008   1.307
64046W        W36471  20.217  19.580   1.395
64047W        W36472   0.121   9.193  13.361
64048W        W36473  24.373  23.984  11.632
64049W        W36474  19.267  23.759   2.829
64050W        W36475  21.689  20.172   4.311
64051W        W36476  27.612  35.907   3.247
64052W        W36477  23.875  19.583   1.896
64053W        W36478   0.253  43.752  11.856
64054W        W36479  27.978  12.698  10.289
64055W        W36480   0.065  43.548  14.698
64056W        W36481  17.185  35.824   3.849
64057W        W36482  32.183  17.249  12.559
64058W        W36483  32.652  44.391   2.821
64059W        W36484  27.690  44.521  12.062
64060W        W36485  28.666  38.365  11.462
64061W        W36486   6.404  17.963   0.899
64062W        W36487   1.123  11.186   0.246
64063W        W36488  17.562   8.109   4.099
64064W        W36489  34.972  39.889   3.453
64065W        W36490  13.445  31.628   2.837
64066W        W36491  34.406  17.811  14.989
64067W        W36492  42.664  25.391   3.557
64068W        W36493  21.527  44.544  10.713
64069W        W36494  21.773  25.595  14.997
64070W        W36495  42.920  41.487  14.381
64071W        W36496  28.386  31.639  12.424
64072W        W36497   3.884  25.048   4.151
64073W        W36498  34.817  44.458  13.856
64074W        W36499   0.179  27.949  10.729
64075W        W36500   2.890  28.774   3.713
64076W        W36501   7.473  34.995   1.443
64077W        W36502  16.500  11.831  10.556
64078W        W36503  16.077   5.428  13.045
64079W        W36504  35.345  17.680  12.232
64080W        W36505  13.139  31.628   1.640
64081W        W36506  29.627  17.751   1.363
64082W        W36507   4.483   3.855   0.860
64083W        W36508  11.380  23.346   9.701
64084W        W36509  41.545   2.848  12.526
64085W        W36510  26.107  38.290  12.055
64086W        W36511  38.048  34.070  12.497
64087W        W36512  43.462  19.039  13.584
64088W        W36513   1.799  24.632   4.858
64089W        W36514  16.373  26.069   2.353
64090W        W36515  23.193  15.067   2.320
64091W        W36516  11.240  40.585  11.065
64092W        W36517  22.484  31.676  10.763
64093W        W36518  33.030   7.035   1.772
64094W        W36519  32.535  21.986   4.525
64095W        W36520  27.162  13.365   0.829
64096W        W36521   4.260  34.842  11.101
64097W        W36522   6.849  37.105   2.321
64098W        W36523  33.645  37.431  14.411
64099W        W36524  20.669  13.238   1.969
64100W        W36525  23.211   0.402   3.856
64101W        W36526  30.069  17.525   3.806
64102W        W36527  25.413   0.862   3.722
64103W        W36528  43.482  35.955  13.849
64104W        W36529  15.700  29.449  12.452
64105W        W36530  38.976  15.061  14.283
64106W        W36531  31.821   9.752  11.440
64107W        W36532  12.770   7.713  14.018
64108W        W36533  43.273   2.204  13.514
64109W        W36534  43.998  43.816  14.373
64110W        W36535   9.185  23.296   1.395
64111W        W36536   2.941  27.164  13.858
64112W        W36537  39.969  23.944  14.530
64113W        W36538  27.617  17.022   1.452
64114W        W36539  42.497  16.027  13.563
64115W        W36540  23.096   8.917   0.763
64116W        W36541   5.714   8.895  10.763
64117W        W36542  11.782  28.946  14.339
64118W        W36543  11.215  35.081   2.897
64119W        W36544  11.270  20.709   4.041
64120W        W36545   5.443  43.990   4.604
64121W        W36546  11.361  34.304  10.631
64122W        W36547  33.348   3.863   0.696
64123W        W36548  26.102  27.883  10.926
64124W        W36549  29.667   6.887  12.878
64125W        W36550  29.666  40.952  11.887
64126W        W36551  33.307  37.322  11.550
64127W        W36552   6.261  36.233   1.760
64128W        W36553  25.158   7.320  10.484
64129W        W36554  13.152  35.929  13.269
64130W        W36555  32.091   4.796  12.586
64131W        W36556   8.767  13.761  11.081
64132W        W36557  42.987  41.391   1.798
64133W        W36558  13.893   9.147   0.487
64134W        W36559   2.470  25.274  14.828
64135W        W36560  35.321   6.188  12.728
64136W        W36561  20.639   0.534  14.350
64137W        W36562  12.659  36.672   1.910
64138W        W36563  37.806   1.904  11.977
64139W        W36564  13.812  42.013  13.444
64140W        W36565  21.148  27.949   3.210
64141W        W36566  29.426  13.359   0.690
64142W        W36567   2.262  38.932   4.216
64143W        W36568  33.980  40.813  10.908
64144W        W36569   6.226   6.174   0.298
64145W        W36570  15.465  41.003  14.626
64146W        W36571  15.686  31.430   4.388
64147W        W36572  26.115  37.486   4.705
64148W        W36573  17.821  28.545  13.431
64149W        W36574  39.016  23.444  14.854
64150W        W36575   1.320  43.582  12.069
64151W        W36576  31.667  30.528   4.128
64152W        W36577  31.905  26.705  11.836
64153W        W36578  27.061   6.347   4.939
64154W        W36579  27.572  25.217  13.206
64155W        W36580   8.543  24.558   2.642
64156W        W36581   1.365   5.788  14.037
64157W        W36582  10.300  38.428   1.669
64158W        W36583  14.286   0.929   2.315
64159W        W36584  34.945  25.070   2.477
64160W        W36585  36.573  28.501   0.347
64161W        W36586  14.513   8.786  13.896
64162W        W36587  13.758   2.037   1.950
64163W        W36588   3.230  28.168   3.307
64164W        W36589  20.123  21.151  12.431
64165W        W36590   5.182  35.143   3.120
64166W        W36591  18.705   7.393  14.787
64167W        W36592  38.982   8.694  13.183
64168W        W36593   6.697  19.581  10.720
64169W        W36594  24.911  33.910  12.985
64170W        W36595  14.326  20.152   2.257
64171W        W36596   2.864  16.662   3.667
64172W        W36597  30.510  19.029   0.292
64173W        W36598  15.727  44.624   0.269
64174W        W36599  20.249  28.482  13.142
64175W        W36600  33.529  28.477  12.944
64176W        W36601  44.805   6.267  12.141
64177W        W36602  18.822  24.046   0.336
64178W        W36603  25.759  27.113  11.098
64179W        W36604   5.862  22.152   0.059
64180W        W36605  33.905  41.921  11.757
64181W        W36606  13.373  10.757   3.647
64182W        W36607   9.777   4.322  13.813
64183W        W36608   2.547   5.893  13.516
64184W        W36609  14.324  13.368  14.739
64185W        W36610  26.918  27.679  12.319
64186W        W36611  42.095   6.735   2.185
64187W        W36612   6.360  14.127  11.208
64188W        W36613  27.301  22.153  12.211
64189W        W36614   6.824   8.698  14.970
64190W        W36615  15.871  14.316   2.763
64191W        W36616  41.855  36.593  13.833
64192W        W36617  20.298  41.656   5.071
64193W        W36618  26.669  29.199  12.378
64194W        W36619  31.438  38.808  12.034
64195W        W36620   1.471   6.474  12.043
64196W        W36621  42.044  23.963  11.501
64197W        W36622  37.779  22.499   4.747
64198W        W36623  35.360  35.453  14.429
64199W        W36624   3.873   7.438   0.685
64200W        W36625  31.489  16.693  12.071
64201W        W36626  33.257  16.207   0.674
64202W        W36627   1.922   3.364  10.248
64203W        W36628  14.820  44.425   4.188
64204W        W36629  23.167  36.802  11.510
64205W        W36630  22.679  23.422   0.422
64206W        W36631  34.645  12.006   1.735
64207W        W36632  27.164  43.800   3.737
64208W        W36633  10.710  16.008  13.861
64209W        W36634   1.590  30.418   0.837
64210W        W36635  16.216  28.120  14.891
64211W        W36636   3.393   4.674  12.983
64212W        W36637  33.881  19.171  13.434
64213W        W36638  12.368  22.088  11.154
64214W        W36639  40.163  24.118   3.499
64215W        W36640  15.703  14.519   3.242
64216W        W36641  27.008  40.757   4.929
64217W        W36642  23.824  37.817   4.073
64218W        W36643  44.814  23.821   1.920
64219W        W36644  42.521  23.993   1.783
64220W        W36645   0.082  17.078   1.843
64221W        W36646  44.818   7.720   0.277
64222W        W36647  18.152  41.135  11.993
64223W        W36648  17.175  31.164   5.095
64224W        W36649  41.428   1.385  14.991
64225W        W36650   8.746   4.216  10.686
64226W        W36651   4.418  41.125  13.946
64227W        W36652  29.305   2.664   2.353
64228W        W36653   1.297  38.948  10.660
64229W        W36654  17.540  34.522   4.901
64230W        W36655   1.535  31.190   3.819
64231W        W36656  44.396   8.648  11.711
64232W        W36657  21.006  30.240   0.931
64233W        W36658   8.309  21.042  13.027
64234W        W36659  27.734  31.989  11.087
64235W        W36660   9.230  22.400  14.490
64236W        W36661  40.345  17.555  12.202
64237W        W36662  33.992  13.856  14.862
64238W        W36663  40.040   8.128  13.104
64239W        W36664  25.572   7.460   2.826
64240W        W36665  15.359  33.164   1.807
64241W        W36666  28.413   3.254   3.368
64242W        W36667  18.187  30.474   4.600
64243W        W36668  42.751  32.273  11.273
64244W        W36669   9.252  29.294   4.602
64245W        W36670  25.931  20.493  13.457
64246W        W36671  20.738  14.751  11.830
64247W        W36672   7.749  20.463   0.386
64248W        W36673  19.208  37.283   3.860
64249W        W36674   1.976  18.000   0.365
64250W        W36675   8.682   5.151  13.908
64251W        W36676  30.313  40.934  14.551
64252W        W36677   1.353  20.074   2.354
64253W        W36678  10.319  40.430  11.184
64254W        W36679  40.907  17.074   3.137
64255W        W36680  20.695  39.680  14.656
64256W        W36681  39.930  30.418   0.520
64257W        W36682  30.628   8.337   2.290
64258W        W36683   2.293  38.499  13.039
64259W        W36684  34.612   6.478  11.612
64260W        W36685   0.013  11.359   4.131
64261W        W36686  23.668  25.467  10.611
64262W        W36687  14.071  26.276  13.539
64263W        W36688   8.289  40.370   2.394
64264W        W36689  44.409  14.202   0.185
64265W        W36690  36.940  19.370   3.702
64266W        W36691  25.320  39.912  11.713
64267W        W36692   2.118  31.036   0.436
64268W        W36693  32.914  31.916   0.801
64269W        W36694  30.449  23.508   0.452
64270W        W36695  13.738   9.443   3.775
64271W        W36696  11.562  21.592  11.563
64272W        W36697   8.389   4.399  11.185
64273W        W36698  38.978   1.426   4.600
64274W        W36699  12.789   4.868   3.723
64275W        W36700  36.371  36.393   4.423
64276W        W36701   4.691   7.328  13.323
64277W        W36702  41.372  15.589   3.389
64278W        W36703  17.607  21.608  10.788
64279W        W36704  40.050  21.223   1.616
64280W        W36705  31.438  27.880   4.649
64281W        W36706  19.234  37.725   0.169
64282W        W36707   6.459   2.484   1.261
64283W        W36708  29.024  15.737  12.973
64284W        W36709   3.401  15.759   4.532
64285W        W36710  34.294  34.460   4.018
64286W        W36711   7.287  43.479  13.217
64287W        W36712  30.993   2.485   5.090
64288W        W36713  14.269  37.558   3.327
64289W        W36714  38.839  26.296  10.606
64290W        W36715   1.164  18.755   1.226
64291W        W36716   9.706  22.128  11.737
64292W        W36717  28.036   2.556  13.122
64293W        W36718  12.319  23.793   1.333
64294W        W36719   2.060  17.305  12.540
64295W        W36720   7.388  24.452  13.421
64296W        W36721  28.641  15.713  12.408
64297W        W36722  43.081  23.471   0.795
64298W        W36723  13.574  20.749   4.692
64299W        W36724   5.583  32.789   2.331
64300W        W36725  22.287   9.693  12.407
64301W        W36726   3.688  27.628  14.849
64302W        W36727  24.828  31.812   0.912
64303W        W36728  32.833   0.951  11.021
64304W        W36729  10.251  43.031   1.330
64305W        W36730  33.501  12.203   2.346
64306W        W36731  33.324  43.869  13.831
64307W        W36732  39.983  22.712  13.060
64308W        W36733   1.986   9.120   3.186
64309W        W36734  37.370  23.347  13.283
64310W        W36735  27.580  37.366  11.145
64311W        W36736  14.777  33.471  11.581
64312W        W36737  27.068  30.540   1.364
64313W        W36738  40.779  19.248  13.927
64314W        W36739  42.633   7.857  14.766
64315W        W36740   9.777  36.556  12.404
64316W        W36741  12.598   8.232   4.505
64317W        W36742  34.117  16.693  14.707
64318W        W36743  13.153  29.508   4.154
64319W        W36744  20.830  27.702   3.780
64320W        W36745   0.293  38.382  14.455
64321W        W36746  33.397  15.095  13.327
64322W        W36747  24.680   3.916  12.183
64323W        W36748  24.675  28.236  13.971
64324W        W36749  17.256  13.346  12.094
64325W        W36750   6.724  37.939  11.473
64326W        W36751   4.791   7.314   5.021
64327W        W36752   9.552  14.301   0.302
64328W        W36753  16.937  42.294  14.734
64329W        W36754  11.435  32.233   2.735
64330W        W36755   5.853  38.636  13.888
64331W        W36756  15.552   6.333   3.683
64332W        W36757  26.670  12.658   0.441
64333W        W36758  22.584  17.537   0.855
64334W        W36759  22.147  44.395   4.737
64335W        W36760  12.323  30.408   1.610
64336W        W36761  38.161   6.427   4.097
64337W        W36762  36.892   3.182   4.514
64338W        W36763   5.188  42.182  12.618
64339W        W36764  12.108  32.934   1.621
64340W        W36765  17.220  41.805  13.832
64341W        W36766  24.930   8.226  14.090
64342W        W36767  17.242   6.556  12.667
64343W        W36768  40.329  32.603   3.445
64344W        W36769  23.530   4.770  13.324
64345W        W36770  24.535  28.752  13.948
64346W        W36771  34.618   6.580   1.055
64347W        W36772  19.235  10.868  12.823
64348W        W36773   4.113  10.724  11.459
64349W        W36774  22.126  42.320   3.601
64350W        W36775  43.062  25.068   4.735
64351W        W36776  27.687  19.681  12.064
64352W        W36777  26.578   1.514  14.009
64353W        W36778  23.305  21.827  13.953
64354W        W36779  16.731  14.674   2.646
64355W        W36780  21.977   7.277  14.981
64356W        W36781  33.311  30.095  13.025
64357W        W36782  12.777  17.098   3.012
64358W        W36783   8.236  20.118   1.458
64359W        W36784  42.055  14.306  14.356
64360W        W36785  44.758  11.816  10.327
64361W        W36786  31.550  21.720   3.604
64362W        W36787   5.861  20.246   3.702
64363W        W36788  12.708  37.468   4.451
64364W        W36789  13.406  17.599  14.895
64365W        W36790  44.507   2.250   0.542
64366W        W36791  10.812  29.357   3.064
64367W        W36792   2.828  43.768   4.180
64368W        W36793   9.177  14.601   3.280
64369W        W36794  21.195   0.334  13.090
64370W        W36795  37.808  31.418  11.604
64371W        W36796  19.013   8.689   0.978
64372W        W36797  25.478  34.305  10.705
64373W        W36798   7.010  44.018   4.675
64374W        W36799  17.501  25.171   4.223
64375W        W36800  33.607  16.057  13.009
64376W        W36801  12.678  41.732  12.908
64377W        W36802   7.295   3.708  13.424
64378W        W36803  12.925  35.998  11.121
64379W        W36804  27.879  33.440   2.734
64380W        W36805  31.579  16.813  10.276
64381W        W36806  23.616   5.798  10.839
64382W        W36807  30.224  21.517  14.296
64383W        W36808  21.155  42.501   3.657
64384W        W36809   1.347  28.761  14.350
64385W        W36810  40.346  41.056   3.781
64386W        W36811  37.090  13.154   0.669
64387W        W36812  31.939  20.832   3.607
64388W        W36813   2.390   7.263   2.389
64389W        W36814   0.744  24.541  14.355
64390W        W36815   7.213  36.492   0.243
64391W        W36816  30.321  41.284   2.791
64392W        W36817  36.014  21.741  10.672
64393W        W36818  32.020  28.537  12.503
64394W        W36819  44.033   8.503   1.853
64395W        W36820  32.585  29.186  11.822
64396W        W36821  38.080  23.275  11.008
64397W        W36822   4.721  22.597   4.599
64398W        W36823  33.774   7.950   2.829
64399W        W36824  11.093  33.035  11.418
64400W        W36825  35.785   2.958  11.492
64401W        W36826  13.742  36.834  14.745
64402W        W36827  29.076  15.575   5.148
64403W        W36828  41.003   3.295  12.899
64404W        W36829  15.076  40.523   0.629
64405W        W36830   8.107  16.875  12.026
64406W        W36831  33.596   7.864  11.158
64407W        W36832  12.586  23.071  12.854
64408W        W36833   3.235  34.572  14.984
64409W        W36834  20.995   5.656   0.723
64410W        W36835   9.812  16.156   0.980
64411W        W36836  19.828   5.907   3.246
64412W        W36837  37.370  22.232  12.406
64413W        W36838   2.981  32.908   3.679
64414W        W36839  30.000  16.130  12.878
64415W        W36840   8.363  17.264   1.318
64416W        W36841  30.956  10.630  13.795
64417W        W36842   0.432  35.719   2.334
64418W        W36843  12.590  15.627   0.661
64419W        W36844  14.037   0.459   3.492
64420W        W36845  28.958  28.553  11.918
64421W        W36846  26.278  12.376   0.647
64422W        W36847   5.304  17.077  11.922
64423W        W36848  31.881  44.525   4.179
64424W        W36849  29.649  14.754   2.957
64425W        W36850  44.806  30.631   0.360
64426W        W36851  42.245   3.210   5.302
64427W        W36852  40.422  21.649  10.360
64428W        W36853   0.760   8.326   1.259
64429W        W36854  43.508   6.129   1.652
64430W        W36855  35.426  34.599  14.368
64431W        W36856  14.878  28.157   0.574
64432W        W36857  34.079  16.289  14.379
64433W        W36858  40.944  14.622  11.155
64434W        W36859  40.582  16.054   0.415
64435W        W36860   8.646   6.057   4.247
64436W        W36861  13.362  21.523  13.177
64437W        W36862   7.865  24.086   3.798
64438W        W36863  42.290  27.454  13.470
64439W        W36864  27.111  42.576  14.008
64440W        W36865   1.276  34.461  10.537
64441W        W36866  14.834   7.394  13.555
64442W        W36867  20.308  36.892  14.321
64443W        W36868   8.314  41.348  14.417
64444W        W36869  41.574  36.085   3.401
64445W        W36870   2.327  27.660   1.750
64446W        W36871   0.091   0.601   4.158
64447W        W36872  26.599   3.979  11.585
64448W        W36873  15.774  10.652   1.318
64449W        W36874  43.239  28.430   1.524
64450W        W36875  25.053  23.299  13.806
64451W        W36876  31.569  19.561  12.098
64452W        W36877  11.617   8.158   1.742
64453W        W36878   6.014  41.574  10.921
64454W        W36879  30.012  42.279  14.875
64455W        W36880  11.343  25.940  10.397
64456W        W36881  16.267  20.370  14.396
64457W        W36882  22.096   1.995   1.002
64458W        W36883  26.144  29.269   4.808
64459W        W36884  38.506  22.711   2.448
64460W        W36885   2.981  37.432  13.837
64461W        W36886  10.152  27.157   1.272
64462W        W36887   8.206  25.896  13.073
64463W        W36888  44.675  25.791   0.371
64464W        W36889  28.861  26.649  11.913
64465W        W36890   4.766  19.254   4.656
64466W        W36891  42.278  25.634  13.441
64467W        W36892  37.759  35.495  12.886
64468W        W36893  13.919  25.289   1.165
64469W        W36894  12.025   8.906  14.520
64470W        W36895  25.074   3.004   2.943
64471W        W36896  13.766  27.191   2.868
64472W        W36897  43.444  18.214  11.456
64473W        W36898  26.542  20.696   4.116
64474W        W36899  35.003   5.285   2.322
64475W        W36900  13.402  37.089   4.941
64476W        W36901  31.802   1.413   3.788
64477W        W36902  12.223  44.877   2.410
64478W        W36903  31.452  40.571  12.327
64479W        W36904  29.959   6.289  10.734
64480W        W36905   1.712  15.346   3.153
64481W        W36906   1.879  30.558  10.850
64482W        W36907  25.504   8.425  12.875
64483W        W36908  28.452  22.607   3.831
64484W        W36909   3.377  26.059  12.583
64485W        W36910   6.142  27.589   3.811
64486W        W36911   7.638  15.723  11.961
64487W        W36912  15.056   5.957   0.952
64488W        W36913  11.750  42.369  10.798
64489W        W36914  34.567  20.518   4.501
64490W        W36915  19.907  10.171   4.574
64491W        W36916  24.961   8.338  12.135
64492W        W36917  37.334   1.031  14.426
64493W        W36918  39.375  21.701   2.227
64494W        W36919  40.012   1.982  11.563
64495W        W36920  22.788  33.462   0.926
64496W        W36921  19.300   2.428  10.734
64497W        W36922   6.123   1.446  12.358
64498W        W36923  18.119  11.208  12.368
64499W        W36924  41.337   6.071   0.648
64500W        W36925  37.738   2.443  13.396
64501W        W36926  24.296  43.149   4.029
64502W        W36927  27.136  24.127   4.548
64503W        W36928   0.759  32.924   2.860
64504W        W36929  12.282  22.602  11.286
64505W        W36930  18.723  15.594  13.359
64506W        W36931   8.018  20.722   4.649
64507W        W36932  28.574  26.494   3.791
64508W        W36933   7.232  25.035  13.952
64509W        W36934   2.886   8.786   0.042
64510W        W36935   8.670  39.078   1.052
64511W        W36936  41.516  10.154  12.812
64512W        W36937  26.880  34.909   0.795
64513W        W36938  12.620  27.476   2.197
64514W        W36939   8.315  21.732   2.222
64515W        W36940  26.568  22.293  14.114
64516W        W36941  24.126  44.704  11.214
64517W        W36942  35.147   8.187  11.953
64518W        W36943  29.711  36.241  12.631
64519W        W36944  42.991  22.295   3.748
64520W        W36945   1.375  29.969  12.868
64521W        W36946  43.900   7.789   4.092
64522W        W36947  40.406  16.128   4.244
64523W        W36948   8.718  11.916  10.814
64524W        W36949  23.216  22.157   3.991
64525W        W36950  14.507  27.857  14.021
64526W        W36951  15.637  13.396   2.767
64527W        W36952  34.635  38.866   4.219
64528W        W36953  15.097  26.032  13.485
64529W        W36954   9.814  42.527   3.368
64530W        W36955  32.463  16.094   1.647
64531W        W36956  42.226  12.935   0.761
64532W        W36957  30.647  28.927  11.503
64533W        W36958   3.969  41.373  13.849
64534W        W36959  37.021  39.284   2.176
64535W        W36960  39.332  29.659   4.971
64536W        W36961  28.936  44.753  13.659
64537W        W36962  36.566   4.821  10.167
64538W        W36963   1.556  30.199  12.348
64539W        W36964  25.534  40.374  14.393
64540W        W36965  41.504  39.303   1.224
64541W        W36966  38.815  33.610  12.619
64542W        W36967   7.742  41.437  12.140
64543W        W36968  41.592  30.775   1.180
64544W        W36969  31.150   4.353   1.299
64545W        W36970   6.876  37.532  11.102
64546W        W36971  11.858   0.768   0.522
64547W        W36972  10.233   3.780  13.404
64548W        W36973  29.957  23.075  13.511
64549W        W36974  29.808  33.880   1.449
64550W        W36975   8.228  19.193   0.362
64551W        W36976  30.794  42.901   4.519
64552W        W36977  11.421  31.201  12.000
64553W        W36978  44.510  37.981   1.148
64554W        W36979  16.130  19.076   2.868
64555W        W36980   4.897  14.255   3.302
64556W        W36981   6.843   4.404  13.402
64557W        W36982   6.778  11.638  14.800
64558W        W36983   2.944  39.057   4.589
64559W        W36984  29.911   4.263  14.950
64560W        W36985  11.086  31.379  11.073
64561W        W36986  30.866  35.565   4.647
64562W        W36987  36.412   1.215  11.951
64563W        W36988  34.434  28.952   1.449
64564W        W36989   4.857  40.353  11.870
64565W        W36990  36.713  31.917  12.033
64566W        W36991  41.954  13.383  13.076
64567W        W36992  24.584  40.309  14.843
64568W        W36993  42.980  37.093   1.224
64569W        W36994   0.332  39.396   2.645
64570W        W36995  33.830  23.521  12.458
64571W        W36996  41.924   2.300  12.920
64572W        W36997  15.749  24.132  12.002
64573W        W36998  33.530   9.374   0.190
64574W        W36999  17.291  34.068  14.388
64575W        W37000  31.942  19.801   4.551
64576W        W37001  23.043  30.475   4.727
64577W        W37002  37.863  44.310   3.749
64578W        W37003   2.309  13.854  13.676
64579W        W37004  42.333   3.337  11.599
64580W        W37005  28.098  20.194   3.190
64581W        W37006  18.605  22.677   4.132
64582W        W37007  33.528  21.983   1.445
64583W        W37008  31.648  31.096  14.080
64584W        W37009   9.438  18.096   0.138
64585W        W37010   6.325   5.372  12.581
64586W        W37011  35.204   1.266   0.867
64587W        W37012  15.769  11.917   1.766
64588W        W37013   5.177  38.926  13.961
64589W        W37014  15.966   4.321  14.807
64590W        W37015  18.152  43.574  11.049
64591W        W37016  30.441  38.281  11.459
64592W        W37017   9.697  17.045   2.349
64593W        W37018   9.381  29.087  13.963
64594W        W37019  36.571   1.781   1.761
64595W        W37020  10.950  27.478   1.437
64596W        W37021  28.605  25.234  14.383
64597W        W37022  31.949  25.854  12.249
64598W        W37023  22.813  39.019  12.920
64599W        W37024  12.279  20.966  14.961
64600W        W37025  15.931  29.914  12.521
64601W        W37026  23.077  11.454   3.704
64602W        W37027  40.321  44.434  12.946
64603W        W37028   8.906   3.381   2.415
64604W        W37029  36.497  20.632  14.950
64605W        W37030  40.726   8.851  11.204
64606W        W37031  34.676  17.219  11.221
64607W        W37032  33.231  15.234   4.687
64608W        W37033  17.515  37.960   1.644
64609W        W37034  15.534  23.539  10.749
64610W        W37035  23.567  27.020  14.383
64611W        W37036  33.064   1.259   0.442
64612W        W37037  15.857  34.700   1.354
64613W        W37038  23.574  38.070  13.655
64614W        W37039  10.728   2.276   2.689
64615W        W37040  33.348  11.106   0.101
64616W        W37041  16.784  22.243  14.361
64617W        W37042  21.100  25.125  13.645
64618W        W37043  12.296   5.019   1.841
64619W        W37044  13.779  19.364  11.200
64620W        W37045  38.501   0.966  14.343
64621W        W37046  20.566  20.170   2.877
64622W        W37047  26.209  13.256   3.686
64623W        W37048  20.597  13.548  14.837
64624W        W37049  26.483  34.390   1.422
64625W        W37050  41.569  22.351   0.969
64626W        W37051  11.274  34.109  14.734
64627W        W37052  36.931  16.047   2.233
64628W        W37053  15.478  32.025  14.070
64629W        W37054  16.640  34.678   0.715
64630W        W37055  42.348   6.273   0.430
64631W        W37056  31.919   7.722   0.172
64632W        W37057  44.337  44.074   0.291
64633W        W37058  20.113  30.920  13.505
64634W        W37059  36.989  42.197  11.501
64635W        W37060  28.048  16.431   0.733
64636W        W37061  25.204  26.470   4.114
64637W        W37062   9.598  16.608  12.079
64638W        W37063  42.324   7.308   1.482
64639W        W37064  40.036  15.646  12.433
64640W        W37065   7.304  11.697   1.091
64641W        W37066  35.506  19.672   3.339
64642W        W37067   9.389  36.796   1.678
64643W        W37068   0.046  42.058   4.123
64644W        W37069  29.097  29.810  11.653
64645W        W37070  10.036  13.379  10.928
64646W        W37071  39.303  34.462  12.668
64647W        W37072  32.909  30.109  12.086
64648W        W37073  12.734  21.602  11.988
64649W        W37074  16.795  24.898   1.876
64650W        W37075  17.585   3.317  13.129
64651W        W37076   8.889  14.219  14.519
64652W        W37077  29.742  19.627  11.257
64653W        W37078  31.603   3.895   2.795
64654W        W37079  42.272  14.390   0.751
64655W        W37080  28.358  19.134   0.832
64656W        W37081  13.797  23.018  13.562
64657W        W37082  41.743   3.465  11.529
64658W        W37083   9.007  14.736  13.613
64659W        W37084  23.807  14.257  14.355
64660W        W37085  26.619  43.485  14.457
64661W        W37086  43.365  22.657   4.415
64662W        W37087  29.407  32.860  12.409
64663W        W37088   3.194  31.719  14.861
64664W        W37089  43.070  44.424  10.769
64665W        W37090  37.848   5.505   0.706
64666W        W37091   7.032  35.051   1.191
64667W        W37092   2.278   5.792  11.132
64668W        W37093  44.313  14.287  12.406
64669W        W37094  29.573  25.272   0.887
64670W        W37095  20.924  26.067  14.074
64671W        W37096  22.994  17.802   3.613
64672W        W37097   4.217  27.722  12.519
64673W        W37098  12.818  24.100   5.577
64674W        W37099  13.848   6.153   1.775
64675W        W37100  18.716   5.790  13.363
64676W        W37101  22.676   8.882  12.809
64677W        W37102  39.037  27.607  14.014
64678W        W37103  31.490   7.911  12.689
64679W        W37104  38.647  19.733   4.086
64680W        W37105  28.098  21.797   1.798
64681W        W37106  39.006  19.283  12.008
64682W        W37107  44.882   4.429  10.779
64683W        W37108  43.422  32.194  10.599
64684W        W37109  22.075  33.834  11.625
64685W        W37110   9.107   9.401   2.623
64686W        W37111  36.428  33.450   3.400
64687W        W37112  35.110  25.041   3.360
64688W        W37113  43.023  16.573  14.403
64689W        W37114  20.946  41.385   0.830
64690W        W37115  19.584  21.134  14.880
64691W        W37116  37.928  34.127   3.703
64692W        W37117  17.701  22.378   1.230
64693W        W37118  28.532  19.821   1.930
64694W        W37119  41.699  37.960   1.954
64695W        W37120  21.224  13.554   2.421
64696W        W37121   9.774   2.619   0.263
64697W        W37122  30.004  19.503  13.320
64698W        W37123  18.252  44.499  11.020
64699W        W37124  44.724  36.495   0.110
64700W        W37125  16.608  19.251   2.728
64701W        W37126  16.854  14.641   1.673
64702W        W37127   0.265  11.725  10.642
64703W        W37128  12.043   4.316   3.672
64704W        W37129   3.000   6.684  10.699
64705W        W37130  17.649  40.775  14.522
64706W        W37131  15.221   4.638  14.247
64707W        W37132   0.851   2.735   4.185
64708W        W37133  35.600   6.211  13.803
64709W        W37134   5.688  32.077  14.520
64710W        W37135  11.591  17.602  10.650
64711W        W37136  19.694   8.768   1.791
64712W        W37137  35.821  21.174   0.239
64713W        W37138  25.255   7.516  14.343
64714W        W37139  26.136  34.061   2.780
64715W        W37140  30.394  34.358  11.017
64716W        W37141  31.678  18.106  13.927
64717W        W37142  36.461  35.676   5.189
64718W        W37143   2.168  11.290  12.449
64719W        W37144   1.438  11.421   3.497
64720W        W37145  36.322  41.255  11.396
64721W        W37146  23.993   9.409   1.306
64722W        W37147   8.921   0.825   4.610
64723W        W37148  18.589  34.826  11.650
64724W        W37149   9.539   9.786  11.115
64725W        W37150  22.970   3.368  13.182
64726W        W37151  41.021  13.242  14.221
64727W        W37152  28.505  18.048   3.483
64728W        W37153  34.222  43.974   0.831
64729W        W37154   7.653  27.798  11.551
64730W        W37155  41.772  27.646  12.271
64731W        W37156  34.902  42.022   3.768
64732W        W37157   8.036  30.114  14.223
64733W        W37158  37.621  31.676   4.222
64734W        W37159  40.991  13.504  11.199
64735W        W37160  32.530  17.277   1.457
64736W        W37161  19.541  28.386   2.160
64737W        W37162  18.203  13.041   0.488
64738W        W37163  40.538   0.253   3.542
64739W        W37164  42.047  36.577   4.434
64740W        W37165   4.876  35.357  12.534
64741W        W37166  36.811  19.011  13.468
64742W        W37167   6.821  19.195  13.993
64743W        W37168  23.459  15.585  12.192
64744W        W37169  28.017  37.131  13.328
64745W        W37170  34.847  21.240  13.879
64746W        W37171  35.610  23.684   2.778
64747W        W37172   8.991  35.519  13.504
64748W        W37173   2.409  42.884  13.977
64749W        W37174  25.901   3.285  12.448
64750W        W37175  38.328   7.257   2.413
64751W        W37176  16.581  27.375   1.207
64752W        W37177  36.053  12.745   3.856
64753W        W37178  38.015  38.747   0.681
64754W        W37179  18.186  42.065  11.103
64755W        W37180  33.080  32.912  11.989
64756W        W37181  30.589  42.180   0.445
64757W        W37182   5.822  31.508   1.782
64758W        W37183  19.489   8.465  13.378
64759W        W37184  23.558  12.716   5.166
64760W        W37185  14.812  34.567   3.452
64761W        W37186   6.195  33.126  14.304
64762W        W37187  43.345  14.161   1.364
64763W        W37188   5.374  21.456   5.200
64764W        W37189  32.224   9.284  12.944
64765W        W37190   0.139  39.104   3.032
64766W        W37191   5.787   6.308   1.512
64767W        W37192  32.922   9.618   3.727
64768W        W37193  20.244  41.633   2.029
64769W        W37194   5.327  27.699   4.352
64770W        W37195  25.096  23.996  14.965
64771W        W37196  42.340  14.713   1.152
64772W        W37197   4.215   5.227  14.195
64773W        W37198  14.318  44.256   0.804
64774W        W37199  21.503  24.025   0.413
64775W        W37200  38.542   3.696   1.309
64776W        W37201  42.955   6.904   4.129
64777W        W37202  13.199  28.201  13.158
64778W        W37203  32.175  14.327   3.705
64779W        W37204   4.305  32.536  12.487
64780W        W37205  22.669  36.061   0.338
64781W        W37206  44.384  10.845  12.478
64782W        W37207  38.090  15.105   0.900
64783W        W37208  16.629  24.773   4.200
64784W        W37209  16.682  30.420   5.107
64785W        W37210  42.503   8.773   0.796
64786W        W37211  20.748  14.741   3.104
64787W        W37212   7.412  35.993   4.951
64788W        W37213   8.805   1.892  10.796
64789W        W37214  37.517   4.571  12.946
64790W        W37215  36.169  24.518  12.643
64791W        W37216  24.802   2.790   4.727
64792W        W37217  23.675  44.968  10.812
64793W        W37218   5.326  23.037  11.620
64794W        W37219   5.450  33.651   3.290
64795W        W37220  37.959  23.433   2.627
64796W        W37221  21.980  44.091  11.509
64797W        W37222  39.030  35.722   0.274
64798W        W37223  11.554  31.596   0.012
64799W        W37224  40.827   1.323   4.152
64800W        W37225  23.392  29.412   1.858
64801W        W37226   3.276  23.231  11.862
64802W        W37227  11.673  11.880   3.596
64803W        W37228  37.814  18.796  14.767
64804W        W37229  31.620  34.380  12.543
64805W        W37230  18.992   3.196  11.369
64806W        W37231   6.145   7.421   2.216
64807W        W37232  22.963  15.961  14.948
64808W        W37233  28.196  31.889  13.398
64809W        W37234  22.193  32.652  12.628
64810W        W37235   2.770   1.859   2.644
64811W        W37236  11.184  26.155   1.351
64812W        W37237  29.783  32.380   4.357
64813W        W37238  20.504  11.718  10.445
64814W        W37239  13.579  26.443  11.046
64815W        W37240   0.193  38.432  12.490
64816W        W37241   4.558  42.092   0.533
64817W        W37242  14.294   7.856   1.952
64818W        W37243   6.225  25.911   1.291
64819W        W37244  43.722  29.563  13.124
64820W        W37245  27.876  14.168   1.381
64821W        W37246  31.233  13.342  10.971
64822W        W37247  38.103  29.921   4.187
64823W        W37248  17.619  42.851  10.008
64824W        W37249  36.842  15.632  12.529
64825W        W37250  26.570  27.777  11.125
64826W        W37251  40.780   8.931  12.528
64827W        W37252  39.181  20.543  14.942
64828W        W37253   6.398  44.686  11.148
64829W        W37254   6.433  12.520   3.187
64830W        W37255  10.386   5.314  10.989
64831W        W37256  31.145  26.595   2.254
64832W        W37257  44.080  34.341  11.099
64833W        W37258  39.463  24.447   2.808
64834W        W37259   1.324   3.017   0.247
64835W        W37260   8.754  10.777  14.493
64836W        W37261   7.237   2.901  12.425
64837W        W37262  28.656  10.232   2.670
64838W        W37263   7.337  32.831  10.631
64839W        W37264  12.085  22.993  14.784
64840W        W37265  17.738  33.538  13.722
64841W        W37266  14.712  27.528  11.193
64842W        W37267  43.359  42.998  13.335
64843W        W37268  22.182   1.498   2.810
64844W        W37269  20.053  34.886   0.741
64845W        W37270   9.606  42.003  10.703
64846W        W37271  16.743   4.369   2.229
64847W        W37272   0.208   9.176  13.911
64848W        W37273  40.878  29.078  10.512
64849W        W37274  40.829  14.116   4.227
64850W        W37275  26.164   6.451  12.910
64851W        W37276  43.295  33.652  11.629
64852W        W37277  40.792  26.606   1.203
64853W        W37278  18.262  29.190   2.786
64854W        W37279  22.762  22.955   0.206
64855W        W37280  32.601   8.775   0.772
64856W        W37281   1.160  30.117  14.499
64857W        W37282  20.233   4.923  13.864
64858W        W37283   9.292  40.609   0.080
64859W        W37284   4.206  40.374   0.229
64860W        W37285   4.261  38.475   3.072
64861W        W37286  42.657  16.046   3.457
64862W        W37287  39.544   8.337  14.547
64863W        W37288  16.559  14.614   0.831
64864W        W37289   9.409  13.378   2.697
64865W        W37290  32.317   1.468   3.736
64866W        W37291   5.022  39.137   3.175
64867W        W37292  25.316  43.490   2.830
64868W        W37293  26.649  31.108  12.092
64869W        W37294   1.560  26.142   0.306
64870W        W37295   9.186  21.075   3.264
64871W        W37296  18.024   1.285   1.399
64872W        W37297  35.194   2.350  12.176
64873W        W37298   6.769   3.728  14.478
64874W        W37299  44.589  42.834   0.013
64875W        W37300  18.062  14.416   1.791
64876W        W37301  35.568  17.325   3.315
64877W        W37302  44.448   3.165   0.210
64878W        W37303  38.093  17.032  13.112
64879W        W37304  15.540  40.902   2.875
64880W        W37305  39.498  36.063  12.011
64881W        W37306  13.781  39.937   0.545
64882W        W37307  31.698   3.848  13.425
64883W        W37308  32.487  40.094  12.198
64884W        W37309  44.566  25.622  10.455
64885W        W37310  15.617  17.062  14.534
64886W        W37311   6.649   5.248  10.414
64887W        W37312   8.239  18.609   1.808
64888W        W37313  18.260   6.827   2.214
64889W        W37314  28.340  13.379  14.258
64890W        W37315  27.384  11.296   2.816
64891W        W37316  10.706  26.240   4.408
64892W        W37317  20.125  16.832  14.789
64893W        W37318   4.366  17.283  13.426
64894W        W37319  16.298  34.457  13.644
64895W        W37320   8.729  28.058   0.807
64896W        W37321  37.002  41.803   1.282
64897W        W37322  21.629  40.956   4.083
64898W        W37323  20.610  43.178  12.540
64899W        W37324  15.943   7.873  12.542
64900W        W37325  15.496  15.817   1.267
64901W        W37326   8.462   3.895  11.002
64902W        W37327  11.688  27.476   2.637
64903W        W37328   5.445  17.735   4.261
64904W        W37329  22.128  34.117   1.647
64905W        W37330  39.315   3.189   1.124
64906W        W37331  38.115  26.070   0.405
64907W        W37332  14.529   0.346   3.632
64908W        W37333  17.219  18.636  10.742
64909W        W37334  15.370  41.611  11.263
64910W        W37335  27.382  26.646  14.386
64911W        W37336  30.391  36.137  14.701
64912W        W37337  39.563   8.328  11.639
64913W        W37338  26.771  30.169  10.391
64914W        W37339  35.441  40.590   2.910
64915W        W37340   6.670  24.290   2.794
64916W        W37341  20.214  31.425   1.922
64917W        W37342  33.529  35.384   1.999
64918W        W37343   6.231   7.422   3.611
64919W        W37344   2.395  37.583   9.771
64920W        W37345  29.124  21.079  13.282
64921W        W37346  10.163   5.265   3.338
64922W        W37347  28.623   7.886   0.908
64923W        W37348  35.364   2.718   0.246
64924W        W37349  19.826   7.306  12.453
64925W        W37350  21.955  38.824   1.472
64926W        W37351  38.837  34.860   4.511
64927W        W37352  35.292  37.440  10.693
64928W        W37353  10.346   9.654   2.996
64929W        W37354  41.914  44.790  13.939
64930W        W37355   9.364  43.015   3.774
64931W        W37356  16.856  14.893  13.860
64932W        W37357  26.006  23.625  11.145
64933W        W37358  30.897  29.918  12.070
64934W        W37359   2.354   0.308   0.070
64935W        W37360  10.877  30.939  14.016
64936W        W37361  11.181   7.247   4.682
64937W        W37362   0.820  15.184  10.704
64938W        W37363   3.869  18.342  12.258
64939W        W37364   0.480  19.102   0.481
64940W        W37365  40.556  30.030  11.033
64941W        W37366  29.698   0.888  13.928
64942W        W37367  29.921   4.318  11.634
64943W        W37368  20.807  14.233   0.031
64944W        W37369  33.949  34.209   0.244
64945W        W37370  15.288  35.808  14.870
64946W        W37371  14.267  39.306  13.884
64947W        W37372  26.614  17.586   2.818
64948W        W37373  19.107  20.651   3.918
64949W        W37374  28.662  37.370   3.969
64950W        W37375   5.911  39.025  11.154
64951W        W37376  14.043   9.702   1.399
64952W        W37377  12.007  12.251  11.983
64953W        W37378  19.667   7.961  14.292
64954W        W37379  27.172  44.819   2.797
64955W        W37380  13.085  38.425  12.129
64956W        W37381   1.917  40.430  12.335
64957W        W37382  36.394   4.790   3.063
64958W        W37383  22.100   2.190  14.485
64959W        W37384  21.742   4.023  11.585
64960W        W37385   3.834  36.942   3.739
64961W        W37386  19.051  15.089   4.048
64962W        W37387  13.614  26.493   3.653
64963W        W37388  12.622   2.705  12.372
64964W        W37389   2.961  12.190   0.039
64965W        W37390  39.216  11.314  11.332
64966W        W37391  40.487  28.591  11.798
64967W        W37392  35.620  36.953  13.886
64968W        W37393  27.985  27.141   2.706
64969W        W37394  22.134   6.823   1.856
64970W        W37395  33.521   9.356  12.032
64971W        W37396  42.552  41.700   1.715
64972W        W37397  24.536  25.653  10.680
64973W        W37398  15.775   3.855  14.382
64974W        W37399  29.115  15.961  12.488
64975W        W37400   0.506   4.151   4.375
64976W        W37401   1.006  39.767   9.996
64977W        W37402  21.753  21.570   3.216
64978W        W37403  12.184  28.009  14.986
64979W        W37404  21.754   5.729   0.390
64980W        W37405  41.870   4.636  12.678
64981W        W37406  19.543  38.427  11.945
64982W        W37407  22.156   6.879  10.642
64983W        W37408  28.856   0.835   0.942
64984W        W37409   2.506  14.723  12.090
64985W        W37410  34.955  32.857   3.654
64986W        W37411  19.011  37.443  10.951
64987W        W37412  26.511  42.298   4.712
64988W        W37413   8.591   1.483  14.675
64989W        W37414  19.374   3.906   0.273
64990W        W37415  14.672   6.511  10.470
64991W        W37416  17.045   1.805   3.641
64992W        W37417  34.710  37.877  11.183
64993W        W37418   5.231  30.599   0.812
64994W        W37419  23.721  17.489  13.509
64995W        W37420  24.606  23.062   0.800
64996W        W37421  12.954   3.754  12.625
64997W        W37422  18.985   1.367  12.439
64998W        W37423  33.551  27.638  12.871
64999W        W37424  14.608  43.263   0.830
65000W        W37425  20.085  33.345  11.419
65001W        W37426   8.374   5.438   3.773
65002W        W37427  32.039  44.383   0.832
65003W        W37428  24.363   4.299  11.471
65004W        W37429  30.849  23.636   4.760
65005W        W37430   6.793   1.497  12.498
65006W        W37431  17.346  41.272  13.875
65007W        W37432   0.998  28.413   2.816
65008W        W37433  18.067   3.022   0.363
65009W        W37434  37.775  20.188   3.229
65010W        W37435  20.019  23.057   1.941
65011W        W37436   8.185  33.552   1.727
65012W        W37437  38.830   8.385  14.865
65013W        W37438  14.748  40.933   3.284
65014W        W37439  41.096  35.196  12.953
65015W        W37440  28.685  31.697  13.357
65016W        W37441  28.234  37.641   2.288
65017W        W37442  12.697   3.244  10.700
65018W        W37443   0.984   2.391  13.398
65019W        W37444   3.008   1.877  10.735
65020W        W37445  26.677  23.741  12.991
65021W        W37446  31.840  16.910  12.401
65022W        W37447  32.667  33.227   1.026
65023W        W37448  16.877  41.422   2.122
65024W        W37449   3.194   1.733  11.691
65025W        W37450  40.027  40.563  11.273
65026W        W37451  34.288  11.767  13.841
65027W        W37452  26.726  12.824  11.644
65028W        W37453  20.976  27.095  10.604
65029W        W37454  41.329  27.940   0.912
65030W        W37455  34.396   4.165  12.735
65031W        W37456  24.110  12.226   4.106
65032W        W37457  41.861  27.780  14.349
65033W        W37458  27.759  15.408   0.211
65034W        W37459  42.932  32.677   4.886
65035W        W37460  14.861  14.127   2.249
65036W        W37461  37.109  25.986  12.039
65037W        W37462  41.334  28.880  12.138
65038W        W37463  17.621   7.466  14.947
65039W        W37464  11.706  32.070  14.290
65040W        W37465  36.116  18.696   2.635
65041W        W37466  14.726  42.896   2.717
65042W        W37467  38.327  14.274  10.746
65043W        W37468  33.795  24.585   0.406
65044W        W37469  14.325  41.561  14.065
65045W        W37470  35.844  38.844  13.020
65046W        W37471  35.776  40.382   2.083
65047W        W37472  30.200  20.228  10.766
65048W        W37473   9.982   7.468   0.871
65049W        W37474  11.728  33.195  11.110
65050W        W37475  37.537   5.827   4.979
65051W        W37476  33.149   7.839  14.422
65052W        W37477  34.916  22.169  14.805
65053W        W37478  40.469   0.732  10.574
65054W        W37479  37.266  17.305  10.634
65055W        W37480  22.189   4.874   4.209
65056W        W37481  36.999   5.318   0.298
65057W        W37482  40.500  39.015  11.164
65058W        W37483  33.389   9.581   4.637
65059W        W37484  14.159  43.779   0.692
65060W        W37485  21.603  26.764   1.454
65061W        W37486  23.062  42.096   1.932
65062W        W37487  29.540  19.183  11.945
65063W        W37488   0.237  29.953   4.124
65064W        W37489  21.674  44.564   4.759
65065W        W37490  23.461   7.412  12.389
65066W        W37491  39.709  19.503   1.804
65067W        W37492   5.926  43.532  10.682
65068W        W37493  43.874   1.961  12.176
65069W        W37494  29.117  30.335   3.705
65070W        W37495  15.465  24.553  12.027
65071W        W37496  30.622  23.148  14.427
65072W        W37497  26.102  34.417  13.891
65073W        W37498  41.332  44.085   3.377
65074W        W37499   2.411  27.999  11.427
65075W        W37500  12.211  20.011  12.418
65076W        W37501  17.283  17.774  14.365
65077W        W37502  24.206  42.960  12.839
65078W        W37503  36.878  40.243   1.430
65079W        W37504  40.616  17.176   3.711
65080W        W37505  31.200  41.819   3.565
65081W        W37506   6.525   7.071   3.857
65082W        W37507  19.339   3.020  14.740
65083W        W37508  42.313   3.819  14.970
65084W        W37509  32.669  17.939  13.887
65085W        W37510  10.375  13.673   0.259
65086W        W37511  16.623  30.626  10.924
65087W        W37512   6.671  26.038   3.427
65088W        W37513  11.306   7.895   1.410
65089W        W37514  11.722  37.464   2.364
65090W        W37515  40.407  25.097  11.869
65091W        W37516   6.158  11.218  12.110
65092W        W37517  11.670   5.272   0.809
65093W        W37518  25.428  36.314  12.958
65094W        W37519  11.892  14.138   3.239
65095W        W37520  10.559  14.206  14.561
65096W        W37521  15.255  39.455   2.213
65097W        W37522  37.373  39.258  11.169
65098W        W37523  32.547  20.033  11.400
65099W        W37524  34.023   7.543   3.902
65100W        W37525  41.419  11.170  14.016
65101W        W37526  40.937  24.254  12.868
65102W        W37527  21.178  30.009  13.028
65103W        W37528  30.176  41.936  14.340
65104W        W37529  24.697  21.331  11.883
65105W        W37530  12.167   9.668   3.180
65106W        W37531  25.454  21.521  13.949
65107W        W37532   1.323  27.542   0.274
65108W        W37533  29.571  35.542  13.409
65109W        W37534  41.065   2.543  14.455
65110W        W37535  32.296   6.446  13.093
65111W        W37536  34.092  29.848  14.341
65112W        W37537  24.014  21.322   4.578
65113W        W37538  21.240  23.679   2.627
65114W        W37539  37.750   6.363   2.779
65115W        W37540  32.499  33.338   2.049
65116W        W37541  36.330  11.868  12.671
65117W        W37542  42.810  21.068  11.045
65118W        W37543  40.515  24.041  13.071
65119W        W37544  15.741  18.305   0.787
65120W        W37545  38.818  40.056   0.932
65121W        W37546   0.391   4.800   2.700
65122W        W37547   2.272   5.261   3.182
65123W        W37548  40.602  13.311  10.702
65124W        W37549  24.225  27.052   1.246
65125W        W37550   5.071  32.548  13.169
65126W        W37551  42.544  27.696   1.942
65127W        W37552   8.333  24.933  13.988
65128W        W37553   6.283  38.552   0.888
65129W        W37554  41.940  31.896   4.114
65130W        W37555  15.594  44.179  14.471
65131W        W37556  44.382  25.655   4.521
65132W        W37557  41.006  20.658   1.837
65133W        W37558  34.446  25.686   1.754
65134W        W37559   1.905  41.891  12.690
65135W        W37560  25.169  25.734   1.005
65136W        W37561  16.071  21.505   3.178
65137W        W37562   3.323  12.195  10.676
65138W        W37563  39.014  31.920  12.758
65139W        W37564  25.236  43.885  11.582
65140W        W37565  37.806  23.351   9.712
65141W        W37566  18.310   6.643  11.160
65142W        W37567  27.891  35.818  12.099
65143W        W37568  43.373  30.428   2.462
65144W        W37569  44.516  38.958  13.534
65145W        W37570  30.012  31.005   9.737
65146W        W37571   5.254  44.878  12.632
65147W        W37572  23.661  42.325   1.346
65148W        W37573  36.060  37.072   2.906
65149W        W37574  37.054  37.544   1.154
65150W        W37575  25.451  18.565  10.653
65151W        W37576  26.496  16.123  12.393
65152W        W37577  23.003  39.463   4.410
65153W        W37578  44.829  20.185   1.903
65154W        W37579   2.584  23.532  14.363
65155W        W37580  23.927   1.788   1.755
65156W        W37581  11.159  13.832  13.560
65157W        W37582   7.238   4.254   4.991
65158W        W37583   5.907  10.369  10.384
65159W        W37584  11.165  15.707  14.883
65160W        W37585  44.033  12.772   0.944
65161W        W37586  25.492  28.927  12.953
65162W        W37587   1.055   1.846   4.266
65163W        W37588  15.291   6.777   4.519
65164W        W37589  10.832  25.011  13.806
65165W        W37590  42.111  26.819   0.413
65166W        W37591  20.060  24.162  14.247
65167W        W37592  26.397  25.943   4.111
65168W        W37593  33.917  22.087  12.718
65169W        W37594  30.616  43.825   4.511
65170W        W37595  19.931  34.708   2.119
65171W        W37596  16.112  36.524  12.959
65172W        W37597  44.048   2.808  13.070
65173W        W37598  27.211  42.998   1.391
65174W        W37599  41.480   8.638   0.902
65175W        W37600  40.203  17.177  11.466
65176W        W37601  23.677  31.851   3.791
65177W        W37602  26.937  37.595  12.036
65178W        W37603  34.034  39.421   0.902
65179W        W37604  26.550  40.977   2.819
65180W        W37605  21.670  12.732   2.850
65181W        W37606  34.594  28.142  11.123
65182W        W37607  37.403  31.695   2.807
65183W        W37608   1.838  15.986  14.407
65184W        W37609   0.739  22.616   3.792
65185W        W37610  29.552  17.628   2.391
65186W        W37611  22.824  15.685  13.004
65187W        W37612  44.236  40.637   0.740
65188W        W37613  15.674  13.253  10.926
65189W        W37614  40.914  36.388  10.442
65190W        W37615   2.764  18.690   3.554
65191W        W37616   9.309  20.120  12.860
65192W        W37617   0.897  42.014  10.658
65193W        W37618   8.434   9.329   3.209
65194W        W37619  23.782  33.947  12.507
65195W        W37620   1.983   1.746  13.031
65196W        W37621  25.043  40.588   2.659
65197W        W37622  26.251  31.941  14.922
65198W        W37623  28.707   8.144   4.078
65199W        W37624   7.945  17.578  11.483
65200W        W37625   4.509   2.850  12.520
65201W        W37626  40.350  38.082  11.139
65202W        W37627  22.391  19.552   2.880
65203W        W37628  33.062   3.434  10.645
65204W        W37629  13.024   1.935  11.115
65205W        W37630  26.724  32.246   4.137
65206W        W37631  20.725  12.602  11.979
65207W        W37632  19.613  18.693   3.858
65208W        W37633  17.299  37.976   2.716
65209W        W37634   4.704  32.417  12.784
65210W        W37635  41.892  34.568  13.652
65211W        W37636  28.701  43.353  13.926
65212W        W37637   4.230  41.782  10.708
65213W        W37638  41.206  34.445   3.164
65214W        W37639  11.111  39.575  11.496
65215W        W37640  13.605  35.124   2.819
65216W        W37641  12.736  16.080  14.511
65217W        W37642   1.413   0.315   3.556
65218W        W37643  41.290  21.814   3.356
65219W        W37644   5.513  13.533  12.019
65220W        W37645  33.179  27.536   1.587
65221W        W37646   2.909  34.859  13.479
65222W        W37647  34.941  14.043  14.889
65223W        W37648  12.486  34.617  12.414
65224W        W37649  44.867  22.663  13.153
65225W        W37650  35.472   7.429   1.274
65226W        W37651  19.578   0.753   1.821
65227W        W37652   1.887  32.844  13.415
65228W        W37653  29.257  14.453  13.743
65229W        W37654  11.605  19.475  11.758
65230W        W37655  21.120  31.691   4.129
65231W        W37656   7.853  20.358  11.087
65232W        W37657  19.254   9.822  11.054
65233W        W37658  15.855  34.389  14.014
65234W        W37659   4.285   0.956  11.736
65235W        W37660  39.504  34.824   2.226
65236W        W37661  29.039   6.242  13.275
65237W        W37662  42.121  26.369  12.057
65238W        W37663  21.610  20.752  13.837
65239W        W37664   8.196  11.945  11.657
65240W        W37665  21.190  29.685   1.274
65241W        W37666  31.691  24.975  10.756
65242W        W37667  16.899  10.334   5.189
65243W        W37668  33.955  20.918   2.328
65244W        W37669  18.205   0.757  12.507
65245W        W37670  20.864  23.907  11.692
65246W        W37671  14.649   7.332   2.199
65247W        W37672  15.384   7.428  14.726
65248W        W37673  12.843  38.007  11.929
65249W        W37674  14.194  15.054  11.003
65250W        W37675  33.344  25.752   3.128
65251W        W37676  35.654  37.558   4.568
65252W        W37677  30.034  19.061  12.152
65253W        W37678  24.954  16.065  14.072
65254W        W37679   8.868   7.105   2.753
65255W        W37680   8.026   8.002   5.394
65256W        W37681  37.396  14.215  11.163
65257W        W37682  31.060  23.937  11.964
65258W        W37683  43.923  15.735  12.005
65259W        W37684  24.218  10.332  12.467
65260W        W37685  10.869  37.435  12.035
65261W        W37686  24.621  11.072   2.813
65262W        W37687  29.539  23.176   0.085
65263W        W37688  38.872  42.699   5.008
65264W        W37689  11.340   1.183  11.957
65265W        W37690  42.918   6.258   2.708
65266W        W37691  40.065  26.703   1.888
65267W        W37692   7.702  24.265   1.654
65268W        W37693  23.547   8.863  10.257
65269W        W37694  22.569   7.125  11.509
65270W        W37695  19.001  20.696   4.890
65271W        W37696  36.904  23.070  11.875
65272W        W37697  23.786   4.216   1.697
65273W        W37698  27.027   5.334  11.655
65274W        W37699  33.882  35.029   1.788
65275W        W37700  36.521  35.970  13.823
65276W        W37701  32.018  33.503   0.551
65277W        W37702  39.127  36.160   1.578
65278W        W37703  36.196  21.038  11.149
65279W        W37704  43.061  11.510  13.969
65280W        W37705  21.561  25.998  12.009
65281W        W37706  17.781   0.824  11.465
65282W        W37707  14.345  16.180   0.202
65283W        W37708   8.198  13.574   4.139
65284W        W37709  35.323  26.031  13.926
65285W        W37710  37.076   5.224   1.276
65286W        W37711  39.517   0.220   9.765
65287W        W37712  27.443  34.886  10.488
65288W        W37713  38.847   8.181   0.856
65289W        W37714  17.096  25.979   2.616
65290W        W37715  41.709  12.375   3.917
65291W        W37716  42.035  12.363   3.063
65292W        W37717  34.597  35.680  13.771
65293W        W37718  32.511  18.052   4.662
65294W        W37719  18.208  19.009  10.812
65295W        W37720  24.892  35.883  12.696
65296W        W37721  21.751  32.546   0.262
65297W        W37722  14.062   3.685   4.120
65298W        W37723  29.577  41.467   1.915
65299W        W37724  12.268  14.454  11.133
65300W        W37725  17.175  37.047  14.579
65301W        W37726   5.324  42.623   1.422
65302W        W37727  28.504  12.519  14.013
65303W        W37728  15.415  41.229  11.601
65304W        W37729  38.403  44.868  11.079
65305W        W37730  27.659   7.320   1.378
65306W        W37731  29.935  12.109   0.435
65307W        W37732  26.945  23.775  12.520
65308W        W37733  22.326  22.166   3.773
65309W        W37734  41.390  37.346   2.355
65310W        W37735  30.445   5.104   3.539
65311W        W37736  26.648  28.050  12.582
65312W        W37737  21.443  32.616  11.881
65313W        W37738  29.104  36.808  14.392
65314W        W37739   4.906  12.849  13.479
65315W        W37740  16.797  24.554   2.828
65316W        W37741  42.402  40.938  11.911
65317W        W37742  15.301  16.232   2.605
65318W        W37743  31.747  42.063  10.742
65319W        W37744  15.266   3.746  13.055
65320W        W37745   0.500  11.357   3.434
65321W        W37746   2.247  15.386   1.917
65322W        W37747  40.797  25.131  13.214
65323W        W37748  12.773  36.544   0.978
65324W        W37749   5.364  36.650  10.907
65325W        W37750  40.426  31.927  11.550
65326W        W37751   7.614  44.956  10.589
65327W        W37752  38.458  27.993   1.871
65328W        W37753  30.576   8.856  13.306
65329W        W37754  20.589  33.276  11.131
65330W        W37755  10.902  40.016  11.612
65331W        W37756  21.791  29.495  13.901
65332W        W37757  33.672  10.874  11.437
65333W        W37758  25.912  39.027   0.936
65334W        W37759  31.182  33.435  11.172
65335W        W37760  24.644  17.618  14.908
65336W        W37761   4.040   7.219   0.255
65337W        W37762   7.398  38.583  14.331
65338W        W37763  26.681  19.024   2.785
65339W        W37764   4.794  28.710   0.796
65340W        W37765  13.324  11.520   1.730
65341W        W37766  31.107  41.505  12.145
65342W        W37767   9.419  19.696   5.130
65343W        W37768  38.403  35.545  11.694
65344W        W37769  18.295   8.175   2.020
65345W        W37770  40.197  29.963  12.278
65346W        W37771  10.626  28.976   4.206
65347W        W37772  19.938  11.382  11.233
65348W        W37773  15.899  12.502  14.389
65349W        W37774  32.081  38.849  14.601
65350W        W37775  33.364   6.201   3.357
65351W        W37776   9.417  22.576   4.187
65352W        W37777  29.452   7.209   3.233
65353W        W37778  14.695   0.255  10.593
65354W        W37779  34.189   7.254   0.729
65355W        W37780  42.055  32.348  14.141
65356W        W37781  25.673  30.637   0.811
65357W        W37782  20.231  36.876  11.468
65358W        W37783   9.864   0.057  11.486
65359W        W37784  11.690  12.043   4.604
65360W        W37785  15.090  33.035   3.800
65361W        W37786  15.769  29.867   1.872
65362W        W37787  37.436  40.512  14.462
65363W        W37788  24.901  20.778   0.116
65364W        W37789  42.531  32.521   2.386
65365W        W37790  30.007  30.089   2.907
65366W        W37791  40.824  22.018   4.749
65367W        W37792  34.835   6.218  10.406
65368W        W37793  24.432  19.080   1.387
65369W        W37794  10.822  13.626   2.181
65370W        W37795   0.339  26.728  13.709
65371W        W37796  12.067  28.775  13.389
65372W        W37797   0.693   6.780   4.753
65373W        W37798  17.155  28.387  12.027
65374W        W37799  19.632  40.268  12.722
65375W        W37800  22.598  19.183   2.493
65376W        W37801  26.548  11.400  13.011
65377W        W37802  37.388  31.017  14.411
65378W        W37803  42.384  30.880   2.379
65379W        W37804  41.079  27.866   0.048
65380W        W37805  34.271   4.177  11.238
65381W        W37806  34.714  16.393  13.761
65382W        W37807  11.149  35.858   4.186
65383W        W37808  20.281  32.955   3.589
65384W        W37809  10.727  24.681  11.924
65385W        W37810  37.904   7.228  11.356
65386W        W37811  22.074  26.931  12.899
65387W        W37812  25.591   6.747  14.376
65388W        W37813  17.039  13.811  11.987
65389W        W37814  43.960   0.833   3.847
65390W        W37815  10.252  25.423  12.141
65391W        W37816  11.225  44.800   4.608
65392W        W37817  38.509  14.188  13.876
65393W        W37818  14.336  31.036   2.755
65394W        W37819   1.545   5.808   4.134
65395W        W37820  21.542  10.713  13.470
65396W        W37821  25.781  30.622  12.177
65397W        W37822  12.493  16.342  14.939
65398W        W37823  35.017  37.052   0.911
65399W        W37824  37.361  23.562  14.078
65400W        W37825   4.265  19.789   5.051
65401W        W37826  23.041  42.553  14.882
65402W        W37827   0.937  12.439  11.169
65403W        W37828  43.864   2.345   3.357
65404W        W37829  36.408  33.452   4.379
65405W        W37830  15.593   4.273   0.245
65406W        W37831  18.026   8.274   4.330
65407W        W37832   9.524  14.111   2.377
65408W        W37833  43.306  36.978  11.865
65409W        W37834  10.407   7.157   0.771
65410W        W37835   0.685  26.362   1.011
65411W        W37836  13.096  35.367   4.841
65412W        W37837   7.794  24.883   3.241
65413W        W37838  39.311   1.556   2.753
65414W        W37839  43.428  11.824   3.553
65415W        W37840  22.757  22.964   1.379
65416W        W37841  13.121  29.611  12.036
65417W        W37842  37.454  22.360  13.271
65418W        W37843  16.731  11.751  13.027
65419W        W37844  22.070   7.411  14.020
65420W        W37845  19.596  33.556   1.293
65421W        W37846  23.692  42.818   4.718
65422W        W37847  19.521   1.390   2.952
65423W        W37848  42.459  35.493  11.462
65424W        W37849  43.743  39.990  11.098
65425W        W37850  14.319  34.222   1.357
65426W        W37851  42.168   3.289  14.298
65427W        W37852   8.407  26.734   1.168
65428W        W37853  25.235  44.313   1.414
65429W        W37854  39.985  39.589   1.389
65430W        W37855  12.830  29.121  10.619
65431W        W37856  20.107  29.400   3.455
65432W        W37857  37.069   4.170  14.772
65433W        W37858  25.520  10.788  10.025
65434W        W37859  27.372  15.108  12.977
65435W        W37860  34.235  28.553   2.725
65436W        W37861  36.796  32.013  14.279
65437W        W37862   2.931  32.552   3.291
65438W        W37863  18.991  41.219   0.255
65439W        W37864  37.826  43.366   3.270
65440W        W37865  33.696  18.584  11.764
65441W        W37866  16.099  19.027  14.758
65442W        W37867  35.326  22.155   4.405
65443W        W37868   7.939  33.074  11.503
65444W        W37869   8.669  12.975  10.391
65445W        W37870  30.956  12.617  10.586
65446W        W37871  21.039  22.320  12.416
65447W        W37872  21.197   0.506   2.740
65448W        W37873  35.868  31.988   4.272
65449W        W37874  35.298  18.302  14.339
65450W        W37875  43.490  24.071   2.076
65451W        W37876  22.815  11.291   4.158
65452W        W37877  40.564  18.163   1.800
65453W        W37878  34.019  34.393  12.163
65454W        W37879  41.233  31.501  14.418
65455W        W37880  28.093  10.652  14.904
65456W        W37881  12.826   8.556   0.206
65457W        W37882  18.131  31.442   4.850
65458W        W37883  43.425  29.373   1.145
65459W        W37884  22.181  35.974   2.288
65460W        W37885  42.991   1.785  10.860
65461W        W37886  15.324  36.335  11.911
65462W        W37887  22.043   0.694  13.371
65463W        W37888  12.511  12.298   3.315
65464W        W37889  23.168  29.511  12.562
65465W        W37890  41.488  36.964   3.480
65466W        W37891  37.609  21.744  12.484
65467W        W37892  15.804  39.430  11.654
65468W        W37893   1.814  25.932  13.305
65469W        W37894  41.494   2.456  13.120
65470W        W37895   2.361   8.190  12.992
65471W        W37896  35.873  37.074   1.849
65472W        W37897  15.618  10.753  12.681
65473W        W37898  11.425   9.596   4.761
65474W        W37899   0.502  23.500  13.445
65475W        W37900  12.181  19.099   1.443
65476W        W37901  41.335  10.657  14.590
65477W        W37902  20.548  17.311  11.429
65478W        W37903  39.552   5.374   1.719
65479W        W37904  43.433  18.551  14.780
65480W        W37905  38.569  32.866   0.902
65481W        W37906  34.898  17.021   3.562
65482W        W37907  14.457  30.476  13.026
65483W        W37908  14.125  29.718  14.131
65484W        W37909   0.518  18.116   0.439
65485W        W37910   4.486  28.627   4.468
65486W        W37911  22.613   8.919   2.377
65487W        W37912  30.489  42.421   3.243
65488W        W37913  12.320  28.457  12.184
65489W        W37914   6.675  35.418  13.418
65490W        W37915  14.761  38.793   4.669
65491W        W37916  13.494  12.182  11.547
65492W        W37917  14.922  40.746  13.023
65493W        W37918  31.549  10.816   0.307
65494W        W37919  18.561  20.424   0.989
65495W        W37920  20.569  36.961   2.186
65496W        W37921   5.741  11.771  10.824
65497W        W37922  20.796  39.326  13.764
65498W        W37923  43.209  21.742   4.404
65499W        W37924  38.283  20.100  14.498
65500W        W37925   1.570   0.936   1.878
65501W        W37926   6.414   7.891   4.061
65502W        W37927   3.239  25.263  11.077
65503W        W37928  22.776  44.033   0.939
65504W        W37929  13.210   4.322   0.279
65505W        W37930  12.258   3.291   3.047
65506W        W37931  23.790  10.567  10.604
65507W        W37932  33.481  42.813  11.362
65508W        W37933  12.652  36.557   0.481
65509W        W37934  11.630  35.769   2.924
65510W        W37935  13.873  26.396  12.459
65511W        W37936  36.673   9.051  11.607
65512W        W37937   0.318  37.452   2.953
65513W        W37938  20.186  34.373   1.455
65514W        W37939  29.667   9.115  12.428
65515W        W37940  43.321  16.210  12.422
65516W        W37941  12.181  17.149  12.448
65517W        W37942  22.244   9.315  10.240
65518W        W37943  16.815  27.126  12.890
65519W        W37944  19.715  38.506   4.060
65520W        W37945   5.300  11.230  12.404
65521W        W37946  10.834  40.529  12.532
65522W        W37947  39.909  29.457   4.304
65523W        W37948  41.906  17.309   3.207
65524W        W37949  27.829  21.285  10.800
65525W        W37950  21.504   4.320   4.221
65526W        W37951  39.375   3.924   2.800
65527W        W37952  25.846  25.900  11.996
65528W        W37953  33.802  39.486   1.414
65529W        W37954  26.104  43.988  13.309
65530W        W37955  15.907  20.950   3.414
65531W        W37956  38.395  42.509  11.904
65532W        W37957   2.273   0.499  13.376
65533W        W37958  37.266   8.337   2.205
65534W        W37959   0.541  27.396   0.908
65535W        W37960   9.252  21.883  14.433
65536W        W37961  32.420  11.139  10.555
65537W        W37962  14.870   4.457  13.619
65538W        W37963  36.466  26.320  10.004
65539W        W37964   8.878  35.576   1.250
65540W        W37965  12.885   6.655  13.056
65541W        W37966   0.516  19.018   4.239
65542W        W37967  38.801  40.762   3.527
65543W        W37968  23.683  10.239   0.607
65544W        W37969  25.959  35.917  13.561
65545W        W37970  15.260  41.548   4.286
65546W        W37971  24.580  26.502  12.528
65547W        W37972  16.661   5.193   3.703
65548W        W37973  27.023  37.197   0.610
65549W        W37974  31.620  38.471   1.416
65550W        W37975  44.358  40.785  11.437
65551W        W37976   1.248  16.159  13.733
65552W        W37977  20.178  41.887  13.062
65553W        W37978  37.837  30.182   3.232
65554W        W37979   4.511  36.386   4.796
65555W        W37980  44.912  22.525   2.498
65556W        W37981  24.028  24.162   4.615
65557W        W37982  34.316   2.238  12.652
65558W        W37983   9.439   3.264   3.229
65559W        W37984   1.359  34.060  13.108
65560W        W37985  29.020  27.401   3.772
65561W        W37986   2.780  35.022   3.568
65562W        W37987  10.402  36.458  11.475
65563W        W37988   5.157  19.857   1.335
65564W        W37989  28.416  40.965   1.402
65565W        W37990  28.131  39.044   5.013
65566W        W37991  24.765   4.995  13.507
65567W        W37992  10.570  43.517   3.063
65568W        W37993   4.529  40.076   1.631
65569W        W37994   3.214  15.703   5.056
65570W        W37995   2.803  26.357  12.512
65571W        W37996  23.777  13.941   3.876
65572W        W37997  20.935  19.103  14.297
65573W        W37998  15.234  37.330  14.487
65574W        W37999   6.833  19.622  14.492
65575W        W38000  11.903  19.851   1.646
65576W        W38001  43.576   9.533  13.224
65577W        W38002   9.227   1.997   4.137
65578W        W38003   4.967  19.116   1.763
65579W        W38004  40.469  40.400  10.371
65580W        W38005  23.108  17.021  12.862
65581W        W38006  39.889  44.033   3.624
65582W        W38007  10.172  28.679  13.030
65583W        W38008  30.653  10.774  13.369
65584W        W38009  19.532   0.388  11.542
65585W        W38010   1.989  26.127  14.320
65586W        W38011  44.288  15.779  12.373
65587W        W38012  34.990  35.851  14.061
65588W        W38013   0.500   3.287   4.270
65589W        W38014   1.249  17.370  12.865
65590W        W38015  30.572  42.697   0.403
65591W        W38016  17.809  42.425  14.694
65592W        W38017   4.347   7.670   2.285
65593W        W38018  21.455  16.936  12.754
65594W        W38019  15.591  16.257  14.908
65595W        W38020  13.767  44.041  12.130
65596W        W38021  19.166  19.233   3.531
65597W        W38022  17.235   2.806  11.158
65598W        W38023   7.141  12.151   3.262
65599W        W38024  25.918   5.142  14.336
65600W        W38025  15.524  14.815  14.942
65601W        W38026  33.820  25.213   3.594
65602W        W38027  10.118   2.921  10.620
65603W        W38028   4.517  30.591  12.485
65604W        W38029   1.198   7.232   1.660
65605W        W38030   2.390   4.488  14.951
65606W        W38031  38.583  28.441  13.586
65607W        W38032  43.034  12.721   3.710
65608W        W38033  31.794  37.952  12.153
65609W        W38034   7.789  24.424   2.141
65610W        W38035  33.494  19.634   0.768
65611W        W38036  24.259  22.181  11.612
65612W        W38037   3.415  21.116   0.534
65613W        W38038   0.243  30.421   2.351
65614W        W38039   4.069  11.091  13.342
65615W        W38040   2.324  17.455   4.613
65616W        W38041  13.676   6.909  13.505
65617W        W38042  27.662  12.717   1.996
65618W        W38043   0.764  10.383  14.842
65619W        W38044  32.161   1.409   0.823
65620W        W38045  34.388  21.863   0.437
65621W        W38046  20.549   8.884   2.729
65622W        W38047  36.598  23.030   0.000
65623W        W38048  22.984  14.915   0.952
65624W        W38049  31.186   2.377   0.768
65625W        W38050  43.149  20.761   4.190
65626W        W38051   5.382  14.418  11.072
65627W        W38052   4.015  43.416   0.799
65628W        W38053   4.056  17.818   2.265
65629W        W38054  34.841  22.323   2.234
65630W        W38055  32.660  26.520  11.709
65631W        W38056  32.413  17.488   3.994
65632W        W38057  41.238  43.962   2.364
65633W        W38058  26.531   0.249  12.416
65634W        W38059  38.406   5.499  14.022
65635W        W38060  18.838  25.067  12.481
65636W        W38061   4.029  38.816  10.186
65637W        W38062  16.522   0.671   0.423
65638W        W38063   7.979  22.275   4.369
65639W        W38064  39.885  15.705   0.182
65640W        W38065  10.326  34.781  11.923
65641W        W38066  34.877  34.451   2.773
65642W        W38067  15.967  18.395  14.835
65643W        W38068  23.545  35.847  12.390
65644W        W38069   8.497  23.951  12.871
65645W        W38070  16.617  30.853   3.290
65646W        W38071  29.830  11.206  14.881
65647W        W38072  42.457  21.572  10.783
65648W        W38073   8.623  42.351  13.456
65649W        W38074   8.437  40.409  13.513
65650W        W38075  23.033   3.144  14.446
65651W        W38076   8.867  13.434  10.300
65652W        W38077  34.663  19.864   5.061
65653W        W38078   2.923  27.965   4.641
65654W        W38079  15.714  18.721   4.897
65655W        W38080  10.263  43.416  13.949
65656W        W38081  14.831  17.163  14.117
65657W        W38082  19.071  23.451  12.179
65658W        W38083  29.364  39.805   1.781
65659W        W38084  28.452  23.034   4.131
65660W        W38085  22.165  18.692  12.221
65661W        W38086  10.441  29.512   4.229
65662W        W38087   6.848   3.950   3.474
65663W        W38088   4.609  29.496   2.348
65664W        W38089  40.782  13.075   4.167
65665W        W38090  38.904   8.785  11.187
65666W        W38091  30.752  36.205  12.439
65667W        W38092  41.970   6.484  14.913
65668W        W38093  32.939   6.440  12.409
65669W        W38094  10.650  41.305   0.779
65670W        W38095  38.214  15.385   2.862
65671W        W38096   3.065  15.654   2.439
65672W        W38097  34.554  24.801   2.248
65673W        W38098  20.752  10.563  14.819
65674W        W38099   8.029  10.682   4.306
65675W        W38100  41.807   4.384   1.384
65676W        W38101  25.395  20.781  11.639
65677W        W38102  12.490  12.277   4.698
65678W        W38103  29.003  19.562   1.813
65679W        W38104  41.020  15.547  12.682
65680W        W38105  44.446  14.469   4.723
65681W        W38106  27.616  37.718   3.292
65682W        W38107  30.531  17.170   2.679
65683W        W38108  20.787   9.668   0.003
65684W        W38109  17.868  12.202  13.288
65685W        W38110  32.013  42.490  14.074
65686W        W38111  14.088  41.499  11.044
65687W        W38112  44.224  13.848  13.842
65688W        W38113  13.288  34.520  14.829
65689W        W38114  10.061   4.270  13.358
65690W        W38115  17.259  35.832  12.111
65691W        W38116  17.760  38.645  14.828
65692W        W38117   4.368  10.909   1.756
65693W        W38118  23.969  37.402  13.265
65694W        W38119  22.583   9.628   0.897
65695W        W38120  25.984   9.518   2.588
65696W        W38121  41.592  23.090   3.684
65697W        W38122  18.960  44.738   1.421
65698W        W38123  10.347  10.593   4.895
65699W        W38124  36.472  40.529  12.130
65700W        W38125  21.011  40.334   3.325
65701W        W38126  13.116   3.461  11.488
65702W        W38127  11.320   1.687   2.705
65703W        W38128  21.990  18.595   2.817
65704W        W38129  29.275  13.192  11.061
65705W        W38130   8.108  15.585   2.161
65706W        W38131  40.781  32.872   2.304
65707W        W38132  32.585  36.118  10.915
65708W        W38133  27.058   1.694  14.088
65709W        W38134   4.664   6.320   3.485
65710W        W38135   9.465  16.945  13.514
65711W        W38136  25.079  26.863   1.869
65712W        W38137  25.647  41.723   2.301
65713W        W38138   6.412  17.440   4.150
65714W        W38139   6.168  16.750  10.698
65715W        W38140  11.134  43.560  12.373
65716W        W38141  37.768  34.479  12.377
65717W        W38142  16.805   9.700   4.080
65718W        W38143  42.368  26.883   4.696
65719W        W38144  36.453  15.824   0.541
65720W        W38145   7.283  39.637   3.555
65721W        W38146   8.670  14.284  13.282
65722W        W38147   3.620  14.259  14.649
65723W        W38148  28.550   2.297  10.482
65724W        W38149  44.236  39.215   4.303
65725W        W38150  21.275   3.761  14.945
65726W        W38151  36.416  17.168   0.925
65727W        W38152  20.878  36.930   2.609
65728W        W38153  11.580  14.949   2.938
65729W        W38154  36.430  39.934  12.403
65730W        W38155  36.401  29.006   0.394
65731W        W38156  13.240  17.065   1.402
65732W        W38157  27.783  29.526  12.457
65733W        W38158  23.085  19.485  11.579
65734W        W38159  30.540  26.515   1.812
65735W        W38160  43.148  39.874  13.160
65736W        W38161  10.827  19.725   3.646
65737W        W38162  33.427   6.335   4.223
65738W        W38163  10.199   0.482  14.422
65739W        W38164   6.323  40.593   1.428
65740W        W38165  21.587  13.623   1.010
65741W        W38166   5.298  24.395   4.581
65742W        W38167  43.321  12.922  12.581
65743W        W38168  40.896  33.413  12.035
65744W        W38169  30.923  24.055   3.228
65745W        W38170  25.185  30.083  12.007
65746W        W38171  26.055  13.415  14.534
65747W        W38172  29.901  37.109  14.686
65748W        W38173  43.052   1.055   3.718
65749W        W38174   9.240   4.339  10.564
65750W        W38175  30.868  25.212  14.548
65751W        W38176   9.666  39.076   3.334
65752W        W38177  40.124  29.840   1.901
65753W        W38178  33.620  16.601   3.099
65754W        W38179  38.055  44.704  11.405
65755W        W38180  36.360  36.304  14.431
65756W        W38181  38.346   0.019   4.118
65757W        W38182  12.013  14.271  10.715
65758W        W38183  33.552   4.811   0.225
65759W        W38184  37.238  24.688  10.089
65760W        W38185  34.964   3.154   3.671
65761W        W38186  36.539  32.444  10.929
65762W        W38187   8.927  18.895   1.282
65763W        W38188  25.464   2.214   3.708
65764W        W38189  34.907  20.793   0.577
65765W        W38190   6.730   4.313   3.107
65766W        W38191  24.685   7.225   4.032
65767W        W38192  37.544  14.142   2.596
65768W        W38193  39.059  29.361  11.615
65769W        W38194  44.210  24.421  10.093
65770W        W38195  35.812   2.999   3.699
65771W        W38196  28.795   0.080   2.861
65772W        W38197  34.967  42.361  12.560
65773W        W38198  14.572  29.154   4.604
65774W        W38199  20.160  42.962  12.371
65775W        W38200  26.299  25.745  12.968
65776W        W38201   4.203  16.534   4.104
65777W        W38202   5.360  30.464  13.472
65778W        W38203  36.508  44.221  13.906
65779W        W38204   8.990   5.308   1.694
65780W        W38205  24.551  44.363  11.380
65781W        W38206  43.815  44.927   0.155
65782W        W38207  42.497  25.601  12.500
65783W        W38208  40.486  28.881  10.782
65784W        W38209  23.391   5.268   2.326
65785W        W38210  25.632  21.282  14.749
65786W        W38211  42.837   2.129   1.916
65787W        W38212  23.714  23.172  10.875
65788W        W38213  12.370  34.454   4.573
65789W        W38214  23.618  43.219   2.795
65790W        W38215  32.230  11.457   4.235
65791W        W38216  29.851  27.545   1.311
65792W        W38217  16.021  35.323  13.416
65793W        W38218  10.713  39.766  12.981
65794W        W38219  27.774  12.022  14.781
65795W        W38220  25.653  14.234   4.461
65796W        W38221  38.282  23.538  12.392
65797W        W38222   2.143  28.141  14.396
65798W        W38223  28.854  28.632   3.292
65799W        W38224  16.692  35.357   1.685
65800W        W38225  32.914  26.835  13.524
65801W        W38226  29.311   6.777   2.954
65802W        W38227   8.925  36.873  13.912
65803W        W38228  12.691  13.172   3.144
65804W        W38229   7.274   4.629  13.582
65805W        W38230   2.279   2.009   0.759
65806W        W38231  32.459  14.822   4.912
65807W        W38232  29.104  39.188  11.486
65808W        W38233  33.455  10.574  12.920
65809W        W38234   3.324  40.773  14.765
65810W        W38235  23.344  10.558  10.988
65811W        W38236  24.220   6.180   3.391
65812W        W38237  15.649  17.854  10.378
65813W        W38238  37.336  22.768  11.002
65814W        W38239  32.750  27.985   2.283
65815W        W38240  17.885  22.583   4.648
65816W        W38241  37.109  26.642   4.274
65817W        W38242  20.090  37.161   2.280
65818W        W38243  34.061  11.652  10.253
65819W        W38244  37.799  12.658   0.754
65820W        W38245  24.228  31.264   4.436
65821W        W38246  26.029  37.368   2.693
65822W        W38247  15.022  35.455  10.681
65823W        W38248   7.304   2.155   0.972
65824W        W38249   0.764   7.774   4.521
65825W        W38250  22.048  27.082  11.529
65826W        W38251  31.927   1.339  14.112
65827W        W38252  28.131   1.909   0.927
65828W        W38253  24.483  24.470   3.292
65829W        W38254  18.612   0.098  12.060
65830W        W38255  21.818  30.156   0.436
65831W        W38256  25.651  33.122   3.625
65832W        W38257  19.068   4.255  13.709
65833W        W38258  29.603  19.209   2.324
65834W        W38259  36.406  35.413  10.632
65835W        W38260  44.174  21.780  11.120
65836W        W38261  38.358  15.138   3.292
65837W        W38262  26.179  20.066  11.637
65838W        W38263  19.110  30.013   0.363
65839W        W38264  28.122  31.995  10.301
65840W        W38265  29.906   0.399   1.330
65841W        W38266  16.729  11.833   2.911
65842W        W38267  24.997  41.472   1.779
65843W        W38268  41.353   0.856   4.726
65844W        W38269  28.535  18.158  14.222
65845W        W38270  11.609   6.788  13.496
65846W        W38271  33.956  29.800   0.483
65847W        W38272  33.957  10.052   4.159
65848W        W38273  31.377  14.687   3.347
65849W        W38274  20.533  19.511  11.855
65850W        W38275  17.593  36.432   2.335
65851W        W38276  21.177  44.549  11.989
65852W        W38277   7.837  36.576  13.354
65853W        W38278  26.632  34.027   0.693
65854W        W38279  18.543  36.959   4.182
65855W        W38280   0.768  18.642  12.640
65856W        W38281  32.352   7.849   0.984
65857W        W38282  42.013  40.832   0.047
65858W        W38283  14.372  21.702   1.398
65859W        W38284  38.537  31.323   3.252
65860W        W38285   6.241  12.222   0.321
65861W        W38286  23.460  42.999  11.136
65862W        W38287  24.741  23.586  10.785
65863W        W38288  23.692   6.712   0.787
65864W        W38289  37.886   9.433  11.068
65865W        W38290  26.975  44.017  12.706
65866W        W38291   6.881  19.224   0.857
65867W        W38292  36.978  17.017  12.594
65868W        W38293  14.153  22.567  10.883
65869W        W38294  22.509  40.240  14.894
65870W        W38295  15.309  36.693  13.573
65871W        W38296  24.998  19.603   2.654
65872W        W38297  10.694  10.467   3.351
65873W        W38298  38.062   4.012  10.649
65874W        W38299  43.406   1.885   2.734
65875W        W38300  20.781  10.432   0.693
65876W        W38301  32.603  16.734   0.717
65877W        W38302  15.348  24.119  14.306
65878W        W38303  30.862  12.122   3.259
65879W        W38304   7.551  22.123  11.450
65880W        W38305  14.768  34.827  12.869
65881W        W38306   7.991  21.033  14.263
65882W        W38307  22.108  15.356  11.928
65883W        W38308  23.600  12.525  12.056
65884W        W38309   2.884  41.253  13.125
65885W        W38310  27.971   0.883   2.487
65886W        W38311  32.545  27.000   2.133
65887W        W38312  13.203  27.482   4.385
65888W        W38313  15.664  32.129  13.599
65889W        W38314   7.782  20.860  11.007
65890W        W38315  13.329  16.544   3.384
65891W        W38316  12.725  27.081   0.899
65892W        W38317  29.729   3.536   5.313
65893W        W38318  44.869  43.214   3.628
65894W        W38319  17.998   7.209  14.006
65895W        W38320  16.337   3.164  12.449
65896W        W38321  11.572  23.554  14.383
65897W        W38322  40.848  15.534   0.576
65898W        W38323   7.370   5.005  14.889
65899W        W38324  23.114  41.930   3.763
65900W        W38325  12.090  14.762  13.991
65901W        W38326  28.858  25.179  13.432
65902W        W38327  38.505  13.686   2.408
65903W        W38328   4.889  37.843  13.409
65904W        W38329  32.335  38.057   3.644
65905W        W38330  27.968  41.887   0.650
65906W        W38331  16.176  22.388  14.024
65907W        W38332  16.453  40.066   3.727
65908W        W38333  40.457  44.544   1.330
65909W        W38334  36.724  39.727   1.470
65910W        W38335  38.937   9.334   4.627
65911W        W38336  32.172  30.605   4.148
65912W        W38337  22.291   1.907  13.922
65913W        W38338  10.784  34.903  10.754
65914W        W38339  34.411  41.908   3.685
65915W        W38340  14.855   1.555   4.868
65916W        W38341  36.142   2.062   3.695
65917W        W38342  30.143   3.387   4.382
65918W        W38343  21.087   4.646   3.337
65919W        W38344  36.845  29.880  13.829
65920W        W38345  11.166  39.706   4.567
65921W        W38346  22.103  33.004   4.693
65922W        W38347  27.706  19.174  11.933
65923W        W38348  36.613  10.698   2.265
65924W        W38349  14.738   7.617   3.281
65925W        W38350  40.596  39.331  12.398
65926W        W38351  13.644  43.468  11.427
65927W        W38352  10.625  39.892  13.511
65928W        W38353   4.913  40.692   4.148
65929W        W38354  21.786   2.777  12.894
65930W        W38355  16.117  29.910   1.278
65931W        W38356  36.941  19.238  12.986
65932W        W38357  13.236   5.652   2.921
65933W        W38358  38.084  29.412  12.432
65934W        W38359   5.027  30.687  13.804
65935W        W38360  36.331  33.010   1.191
65936W        W38361  19.328  36.617  14.440
65937W        W38362   8.936  17.195   0.294
65938W        W38363   5.305  23.958  11.875
65939W        W38364  37.641   6.320   3.289
65940W        W38365  32.521  30.936   1.429
65941W        W38366   8.193  14.804   2.684
65942W        W38367  40.747  26.788  12.350
65943W        W38368  38.603  18.805  13.799
65944W        W38369   8.692  16.564   0.785
65945W        W38370   5.757  44.043  11.520
65946W        W38371  27.510   5.958  14.434
65947W        W38372  15.797   8.840  13.066
65948W        W38373  24.710  33.909  13.461
65949W        W38374   0.430   6.909  14.280
65950W        W38375  28.517  27.524  11.126
65951W        W38376  15.092   8.257  11.385
65952W        W38377  19.141  18.212   4.582
65953W        W38378  36.365  42.398  11.162
65954W        W38379  25.683  26.737  11.896
65955W        W38380  26.088  11.356  10.627
65956W        W38381   5.749  13.601  14.387
65957W        W38382   0.432   2.691   0.431
65958W        W38383  38.348  18.876   2.407
65959W        W38384  43.947  17.122   0.818
65960W        W38385  16.651  32.255   3.613
65961W        W38386  10.900  44.727   3.363
65962W        W38387  33.857  40.865  13.594
65963W        W38388   1.191  29.197  13.501
65964W        W38389  23.138  23.704  13.536
65965W        W38390  10.959  42.447  13.883
65966W        W38391  15.772  40.215  13.425
65967W        W38392  37.999  26.536   3.138
65968W        W38393   0.851  17.324  11.095
65969W        W38394  12.353   1.266  14.992
65970W        W38395   1.473   5.657  11.467
65971W        W38396  43.337  36.207  11.211
65972W        W38397  37.866   8.710   4.052
65973W        W38398   7.611  27.477  12.422
65974W        W38399  27.524  35.365   0.446
65975W        W38400  13.639  28.471   2.339
65976W        W38401  28.950  24.921   2.799
65977W        W38402  36.442   9.831   1.386
65978W        W38403  18.586  31.862  13.812
65979W        W38404  18.308  16.866   3.290
65980W        W38405  15.123  19.371   3.475
65981W        W38406   3.836  40.535   3.219
65982W        W38407  40.962  31.483   1.444
65983W        W38408   6.875   5.979  14.845
65984W        W38409  24.484  40.314  11.190
65985W        W38410   6.337  37.043   3.980
65986W        W38411  30.389  28.984   2.761
65987W        W38412   8.220   0.387  10.718
65988W        W38413  25.939   1.483  10.398
65989W        W38414  37.081  18.584   4.556
65990W        W38415  30.108  13.684   0.229
65991W        W38416  30.576  36.578   2.847
65992W        W38417   5.048  10.148  13.556
65993W        W38418  28.502  34.419   0.543
65994W        W38419  44.027  20.668  14.945
65995W        W38420  41.306  30.962   0.773
65996W        W38421  19.998  31.493   0.510
65997W        W38422  33.295  16.002  10.813
65998W        W38423   2.754  40.266  10.498
65999W        W38424   5.840  21.721  14.250
66000W        W38425   1.493  37.422   0.311
66001W        W38426  25.434  35.960   4.961
66002W        W38427  35.361  36.826  12.526
66003W        W38428   0.194   4.714   3.746
66004W        W38429  42.907  35.840   0.082
66005W        W38430  29.882  41.610  12.573
66006W        W38431  40.485  15.880  12.033
66007W        W38432  23.202  42.273   2.424
66008W        W38433  35.495   2.995   0.669
66009W        W38434  10.736   0.003   0.505
66010W        W38435   1.337   3.201  13.831
66011W        W38436  40.815  34.510   4.629
66012W        W38437   7.332  14.803  12.035
66013W        W38438  17.169  42.587   1.655
66014W        W38439  20.518   4.685  10.558
66015W        W38440   8.876  43.225   3.716
66016W        W38441   9.809  26.215  14.086
66017W        W38442  33.504  35.682  12.148
66018W        W38443  27.389  19.707  10.598
66019W        W38444  36.190  41.461   4.762
66020W        W38445  29.657  17.504  12.842
66021W        W38446   1.731  20.722   3.721
66022W        W38447  14.061  28.214   3.353
66023W        W38448  36.125  28.633  12.861
66024W        W38449  35.705   2.286  12.172
66025W        W38450  34.110  13.155  14.339
66026W        W38451  10.804  44.723  11.034
66027W        W38452   9.951   1.777   2.627
66028W        W38453  44.976   6.468  13.641
66029W        W38454   1.333  39.733  12.566
66030W        W38455  42.465  44.857  11.084
66031W        W38456  29.223  35.833  11.293
66032W        W38457   6.143  42.879   4.220
66033W        W38458   3.642  24.957  11.008
66034W        W38459  32.258  38.536   2.647
66035W        W38460  41.428   8.655   3.149
66036W        W38461   4.148   2.917  14.816
66037W        W38462  39.580  38.086  14.474
66038W        W38463  44.280  42.056   3.668
66039W        W38464  31.043  43.301   0.927
66040W        W38465  38.133   9.684   0.951
66041W        W38466  44.928  14.093   2.739
66042W        W38467   1.622  17.351  11.765
66043W        W38468  30.969  15.309  13.547
66044W        W38469  13.860  10.817   1.921
66045W        W38470  26.223  16.203   3.708
66046W        W38471  11.174   7.111  11.868
66047W        W38472  39.840   6.211   2.402
66048W        W38473  15.043  27.890  11.093
66049W        W38474  27.934  19.566  13.462
66050W        W38475  24.647  10.438  12.889
66051W        W38476  24.966  18.819  13.267
66052W        W38477  10.727  20.504   0.505
66053W        W38478   9.355  28.865   4.958
66054W        W38479   0.387   8.401  14.342
66055W        W38480  32.915  30.549  12.346
66056W        W38481  11.570  10.993   4.551
66057W        W38482  41.909  21.461  12.107
66058W        W38483  35.292   5.963   3.305
66059W        W38484   4.430  24.198  14.140
66060W        W38485   1.665  35.389  12.854
66061W        W38486   4.104  12.996   1.087
66062W        W38487   0.808  25.994   4.295
66063W        W38488  44.302  29.341   4.656
66064W        W38489  10.540  13.341   1.805
66065W        W38490  28.823  10.671   3.504
66066W        W38491  41.381  14.097   2.301
66067W        W38492  21.176  10.137  13.434
66068W        W38493   4.286   1.342  12.981
66069W        W38494  20.566  34.134   0.818
66070W        W38495  25.786  30.689  14.354
66071W        W38496  31.651  36.501   1.360
66072W        W38497  43.967  29.634   3.936
66073W        W38498  31.511  20.238  13.099
66074W        W38499  10.134  42.493  11.489
66075W        W38500   9.852  14.966  13.432
66076W        W38501  32.235   6.689   2.764
66077W        W38502  13.637  40.416  11.388
66078W        W38503  37.907  33.364  12.851
66079W        W38504  18.082  11.704  13.404
66080W        W38505   2.267  12.857  14.991
66081W        W38506  30.087  31.923   3.263
66082W        W38507  31.562  10.557  14.798
66083W        W38508  24.623  23.281   0.287
66084W        W38509  34.153  41.439   4.712
66085W        W38510  14.696  12.412  10.527
66086W        W38511  32.512  30.407   1.188
66087W        W38512  11.346   9.768  13.425
66088W        W38513  11.791  19.688  12.586
66089W        W38514  17.463  10.361   3.609
66090W        W38515  31.363  11.577   4.042
66091W        W38516   1.451   2.732   2.274
66092W        W38517  10.711  42.447   1.765
66093W        W38518  43.067   9.389  10.655
66094W        W38519  35.165   5.410  13.831
66095W        W38520  37.816  40.705   4.021
66096W        W38521  33.378  14.868   4.110
66097W        W38522   5.462  30.553  14.062
66098W        W38523  18.355   1.596  14.476
66099W        W38524  35.435  27.195   1.750
66100W        W38525   4.201  10.579  14.560
66101W        W38526  35.978  19.800   3.590
66102W        W38527  21.592   9.792  13.028
66103W        W38528  30.882  26.651   0.257
66104W        W38529  13.091  36.800  13.449
66105W        W38530  29.700  34.544  13.940
66106W        W38531  11.660  34.385  13.543
66107W        W38532   5.463  40.503  10.656
66108W        W38533  12.285   0.257   3.727
66109W        W38534  19.050   4.861  14.369
66110W        W38535  10.587  20.629  13.117
66111W        W38536  44.196  37.133   3.352
66112W        W38537  27.224  27.112   0.272
66113W        W38538  44.650  37.907  12.924
66114W        W38539  14.409  25.279  13.474
66115W        W38540  31.645  37.234   0.156
66116W        W38541  13.765  33.883   0.759
66117W        W38542  14.675  18.015   0.431
66118W        W38543  44.320  17.674   4.744
66119W        W38544  22.436  42.799  11.538
66120W        W38545  38.130  10.580   3.265
66121W        W38546  12.586  21.805  11.539
66122W        W38547  31.753  12.648   0.973
66123W        W38548  26.626  40.202   3.291
66124W        W38549  10.704   6.298  12.348
66125W        W38550  43.282  26.770  11.115
66126W        W38551  19.833  37.395  10.607
66127W        W38552  30.420  17.139  13.538
66128W        W38553  14.116  15.869  11.179
66129W        W38554  42.729  41.956  14.696
66130W        W38555  22.532  38.615  12.600
66131W        W38556  41.954   9.286  13.867
66132W        W38557  35.181  33.604  13.530
66133W        W38558  25.609  18.838   2.957
66134W        W38559  11.636  39.010  13.465
66135W        W38560   1.419  26.940   4.660
66136W        W38561  19.829   1.913   4.584
66137W        W38562  12.328   4.747   3.411
66138W        W38563  24.217  34.935   2.205
66139W        W38564  15.126  13.592   4.808
66140W        W38565  25.562  26.016   1.380
66141W        W38566  44.890  16.436   4.115
66142W        W38567  29.364  33.025   3.316
66143W        W38568  41.437  29.541   3.514
66144W        W38569  34.820   4.451   1.088
66145W        W38570  22.796  21.216   9.912
66146W        W38571   8.912  12.055   1.780
66147W        W38572  20.793  10.341   2.809
66148W        W38573  37.870  44.006  10.157
66149W        W38574   9.413  37.908   0.362
66150W        W38575  29.582   2.261  12.089
66151W        W38576  14.081  43.345  11.712
66152W        W38577  14.277  34.530  11.666
66153W        W38578  12.638  18.560   2.755
66154W        W38579  38.511  37.511   4.080
66155W        W38580  35.037   7.976   4.054
66156W        W38581  16.706  44.305  13.090
66157W        W38582   8.323  42.115   1.751
66158W        W38583  39.583  43.312   0.382
66159W        W38584  42.333  42.574  13.115
66160W        W38585  43.399  19.932   1.283
66161W        W38586  29.643  10.295   0.240
66162W        W38587  41.562  11.591   4.204
66163W        W38588   8.405  32.040  12.564
66164W        W38589  43.221  24.556  11.577
66165W        W38590  34.048  13.165  13.076
66166W        W38591  11.162   2.428   1.821
66167W        W38592  31.139  28.918   4.591
66168W        W38593  37.077  20.946   3.800
66169W        W38594  32.926  17.209  12.947
66170W        W38595  32.399   7.887  12.934
66171W        W38596  31.961  41.286  11.921
66172W        W38597  16.379  21.184   1.273
66173W        W38598  22.605  30.918  10.671
66174W        W38599  13.199  35.044  10.620
66175W        W38600  20.159   3.746   1.198
66176W        W38601  39.945  39.913   0.046
66177W        W38602  26.653  14.198   3.892
66178W        W38603  19.223  42.550  14.725
66179W        W38604  41.520  29.535  10.772
66180W        W38605  38.027  38.820   2.173
66181W        W38606  29.492   3.415  13.528
66182W        W38607  15.680   3.875  14.907
66183W        W38608  35.464  18.620   3.954
66184W        W38609  16.840   4.755  11.529
66185W        W38610  22.684   7.886   0.307
66186W        W38611  37.177  40.884   2.639
66187W        W38612  21.796  31.965  13.970
66188W        W38613  38.917  20.339  12.044
66189W        W38614  32.668  30.472   1.680
66190W        W38615  27.102  19.494  10.965
66191W        W38616  27.527  41.242   2.453
66192W        W38617  14.433  17.707   0.071
66193W        W38618  39.145   4.449   1.173
66194W        W38619  22.043  37.245   3.646
66195W        W38620  29.711  38.130  12.450
66196W        W38621   3.352   0.867   5.160
66197W        W38622  43.543   3.677  11.809
66198W        W38623   8.336  39.361   3.710
66199W        W38624  21.094  12.615  12.886
66200W        W38625  37.382  31.642   0.725
66201W        W38626  30.629  43.537   2.647
66202W        W38627  43.923  16.775  10.931
66203W        W38628  34.092   9.770   1.197
66204W        W38629  14.442  33.861  12.914
66205W        W38630   4.332   1.702   1.831
66206W        W38631  41.013  34.685  12.816
66207W        W38632  29.656  23.104   1.326
66208W        W38633  23.621  26.004   0.387
66209W        W38634   1.015  37.323  14.057
66210W        W38635  22.029  37.892  11.788
66211W        W38636   3.010   4.944  12.005
66212W        W38637  24.876  18.097  11.569
66213W        W38638  43.328  38.675  11.499
66214W        W38639  17.556   7.741  11.542
66215W        W38640  10.153  22.564   5.212
66216W        W38641  26.564  28.473   4.919
66217W        W38642  27.708  19.665  14.799
66218W        W38643  19.083  16.842   4.657
66219W        W38644  14.230   4.955  14.712
66220W        W38645  41.502  42.116   2.722
66221W        W38646  22.054  42.019   1.738
66222W        W38647  26.730  25.269  12.935
66223W        W38648  13.317  32.093  13.950
66224W        W38649  18.072  13.668  11.502
66225W        W38650  12.249  42.454   4.607
66226W        W38651  10.295  24.622   0.047
66227W        W38652  26.829   3.735  11.181
66228W        W38653  26.644  36.844   5.110
66229W        W38654  22.650  20.091   4.138
66230W        W38655   6.319   5.604  10.677
66231W        W38656  36.477  41.020   4.674
66232W        W38657  29.588   6.505   2.593
66233W        W38658  23.222  40.018   3.291
66234W        W38659  21.248  43.524  13.701
66235W        W38660  22.013  23.024   3.233
66236W        W38661   6.994  38.049  11.927
66237W        W38662  17.684  11.885   0.718
66238W        W38663  17.258  25.504  12.325
66239W        W38664  24.696  25.715   4.295
66240W        W38665  20.485  32.618  14.060
66241W        W38666   3.299  34.118   1.711
66242W        W38667  40.142  26.432   3.713
66243W        W38668  30.499  18.724  13.955
66244W        W38669   7.910   0.919   4.734
66245W        W38670   2.135  24.857   2.616
66246W        W38671   4.338   6.433  13.077
66247W        W38672   5.890  28.155   1.922
66248W        W38673  37.974   2.792   4.845
66249W        W38674  25.050  32.380  13.886
66250W        W38675  42.229  40.235   2.772
66251W        W38676  37.470  36.771   2.751
66252W        W38677  41.829  37.974  13.314
66253W        W38678  33.273  30.902  11.023
66254W        W38679  23.208  22.813  13.156
66255W        W38680   5.123  26.559   1.965
66256W        W38681  33.806  28.075  14.764
66257W        W38682  28.912  43.765   3.745
66258W        W38683  32.824   8.909   2.586
66259W        W38684  23.179  16.659  14.431
66260W        W38685   2.853  35.118  13.906
66261W        W38686   3.649  20.499   2.323
66262W        W38687  32.774  41.791  13.992
66263W        W38688  28.606  17.186  14.807
66264W        W38689  26.441  31.299  12.523
66265W        W38690  19.522  14.701  14.415
66266W        W38691  31.634  36.025   4.068
66267W        W38692  13.450  11.339  14.423
66268W        W38693  16.520  35.972   4.583
66269W        W38694  14.676  29.708   1.435
66270W        W38695  15.143  18.859   2.693
66271W        W38696  13.918   3.253  14.951
66272W        W38697  29.175  12.598   2.209
66273W        W38698  21.273   3.869   4.175
66274W        W38699   7.776  37.992  14.714
66275W        W38700  43.951  25.109   1.206
66276W        W38701  27.010   6.343   4.416
66277W        W38702   2.798  18.391  13.422
66278W        W38703  29.051  25.473   1.757
66279W        W38704  20.732  34.139   3.108
66280W        W38705  23.488  19.695   0.418
66281W        W38706  34.640   3.243   0.974
66282W        W38707  17.631   9.631  12.086
66283W        W38708  41.951   9.584  12.027
66284W        W38709  38.095  34.919  11.520
66285W        W38710  31.528  38.067   0.543
66286W        W38711  26.532  44.629  10.696
66287W        W38712  11.293  21.830  11.978
66288W        W38713   5.008   1.791   0.242
66289W        W38714  44.450  43.950  13.347
66290W        W38715   9.178   9.427  13.969
66291W        W38716  42.519   7.899  12.922
66292W        W38717  25.662   9.431   4.704
66293W        W38718   9.370   0.997   5.033
66294W        W38719  17.213   3.142  12.522
66295W        W38720  18.292  28.351  13.858
66296W        W38721  13.123   7.776  13.332
66297W        W38722  23.088  38.625   3.799
66298W        W38723   2.302  19.475  14.506
66299W        W38724  19.091  19.584   4.130
66300W        W38725  34.561   5.722  13.478
66301W        W38726  29.652  43.064  13.787
66302W        W38727  26.531  37.231  14.400
66303W        W38728  12.615  11.783   1.373
66304W        W38729  10.138  33.350  12.184
66305W        W38730  24.525  44.748   2.296
66306W        W38731  28.612  38.792   2.740
66307W        W38732  26.917  41.357   4.819
66308W        W38733   6.880  14.833  14.898
66309W        W38734   9.450  29.063   1.456
66310W        W38735  31.038  19.979   2.377
66311W        W38736  17.553  33.374  10.942
66312W        W38737  10.244  18.790  13.069
66313W        W38738   0.492   5.916  12.958
66314W        W38739  27.029  15.329  11.092
66315W        W38740  38.308  11.298   2.782
66316W        W38741  21.305  24.446  11.072
66317W        W38742   9.145   1.726  13.856
66318W        W38743  24.194  16.948  12.108
66319W        W38744  21.240  11.717   0.878
66320W        W38745  14.804   2.362   0.558
66321W        W38746  28.195  39.515   3.686
66322W        W38747  33.528   8.145   4.429
66323W        W38748  14.696  28.605   0.242
66324W        W38749  39.156  35.248   0.451
66325W        W38750  22.508  10.478   2.374
66326W        W38751  42.562   8.762  12.778
66327W        W38752  43.911  27.350  14.483
66328W        W38753  33.056  19.140   2.907
66329W        W38754  44.918  36.661   3.893
66330W        W38755  16.147   6.600  13.481
66331W        W38756  44.390  39.639   0.755
66332W        W38757   5.960   7.350  10.613
66333W        W38758  35.095  23.715   2.765
66334W        W38759  42.508  26.450   3.522
66335W        W38760  34.573  40.542  13.812
66336W        W38761  35.695  43.278  12.860
66337W        W38762   3.290  34.389   3.224
66338W        W38763  26.706  34.577  10.103
66339W        W38764  19.962  12.692   0.520
66340W        W38765  38.743   4.835  10.986
66341W        W38766  40.768   7.820   3.213
66342W        W38767  24.458  10.849  14.481
66343W        W38768  34.835  41.906  14.710
66344W        W38769   5.159  23.675   2.196
66345W        W38770   8.623  24.615   4.332
66346W        W38771  34.348  36.869   4.030
66347W        W38772  32.830   2.807  12.789
66348W        W38773  36.058  41.470  11.014
66349W        W38774  15.502   2.946   4.182
66350W        W38775  41.610  29.902  11.132
66351W        W38776  28.120  39.579   1.806
66352W        W38777  21.714  30.000   4.658
66353W        W38778   0.392  14.828  13.115
66354W        W38779   2.325  15.315   1.422
66355W        W38780  17.153   0.005  11.495
66356W        W38781   8.617  12.282  11.500
66357W        W38782  40.494  28.664   0.692
66358W        W38783  21.546  25.702  14.523
66359W        W38784  23.110  14.599   4.074
66360W        W38785  26.758  43.959   3.994
66361W        W38786  25.872  34.189  14.287
66362W        W38787  25.534  22.555   0.817
66363W        W38788  12.601  43.732   5.071
66364W        W38789  37.067  41.007  14.966
66365W        W38790  14.690  26.961  11.906
66366W        W38791   2.939  26.593   3.690
66367W        W38792   9.545  24.595   0.654
66368W        W38793  18.953  25.523   3.245
66369W        W38794  11.623  10.312  11.821
66370W        W38795   9.321   6.184  13.490
66371W        W38796  16.074  15.046  12.844
66372W        W38797  13.674  17.114  13.130
66373W        W38798  21.940   2.534  14.842
66374W        W38799  16.240  26.896   0.269
66375W        W38800  32.131  11.817   3.334
66376W        W38801   7.649  22.160   3.306
66377W        W38802  26.425  31.190   0.860
66378W        W38803   3.794  10.607  11.924
66379W        W38804  20.006   5.868  11.963
66380W        W38805  17.274  40.724   1.238
66381W        W38806   6.756   8.833   2.188
66382W        W38807   5.471  14.395  13.877
66383W        W38808  34.465  26.300  12.222
66384W        W38809  20.646  27.208  10.987
66385W        W38810  34.484  24.156  11.128
66386W        W38811  22.018  23.702   1.141
66387W        W38812  30.125   6.132  13.426
66388W        W38813  10.876  43.850   3.340
66389W        W38814  30.371   1.504   1.585
66390W        W38815  24.547  40.446   2.698
66391W        W38816   1.485   7.788   1.309
66392W        W38817  27.940   9.670  12.037
66393W        W38818   5.362   2.981  11.361
66394W        W38819  30.335  17.154   4.119
66395W        W38820  32.107  34.712   1.317
66396W        W38821  35.560  18.596  13.914
66397W        W38822  20.812  43.847   4.495
66398W        W38823  26.037   9.498  11.548
66399W        W38824  25.675  28.891   3.404
66400W        W38825   8.325  18.306  14.319
66401W        W38826   8.680  30.440   4.197
66402W        W38827  13.807  17.030  14.611
66403W        W38828  26.285  30.812   1.321
66404W        W38829   8.934   6.886  12.541
66405W        W38830  31.437  14.637  10.557
66406W        W38831   8.964   5.890  14.985
66407W        W38832  22.197  42.273   3.093
66408W        W38833   4.994  37.961  11.194
66409W        W38834   7.827  36.959   1.403
66410W        W38835  27.712  35.083  10.067
66411W        W38836  35.142  31.100  11.429
66412W        W38837  15.467  42.977  11.553
66413W        W38838  39.121  16.564  13.937
66414W        W38839  31.833   6.797   1.145
66415W        W38840   6.209  25.474  14.968
66416W        W38841  21.397  17.845  10.136
66417W        W38842  33.648  27.651   3.835
66418W        W38843   2.765  31.547   2.639
66419W        W38844   4.597  36.632   2.526
66420W        W38845  25.257  35.519  13.513
66421W        W38846  13.582  29.657   0.777
66422W        W38847   4.342  19.338  14.318
66423W        W38848  22.813  19.228  10.251
66424W        W38849   4.980  27.333   1.336
66425W        W38850  34.821   8.340   3.266
66426W        W38851  22.792  13.326  10.678
66427W        W38852  23.483   0.888  12.547
66428W        W38853   9.094  32.482   0.932
66429W        W38854  33.993  10.019   0.744
66430W        W38855  35.693   2.510  14.429
66431W        W38856   0.712  12.802   4.527
66432W        W38857  11.627  26.509  14.029
66433W        W38858  36.646  14.085   0.858
66434W        W38859  11.879  40.921   2.347
66435W        W38860   7.809  38.105  14.197
66436W        W38861  35.830  44.299  13.550
66437W        W38862  29.644  37.431   3.635
66438W        W38863   3.047  42.768   0.217
66439W        W38864  37.957  31.685   1.349
66440W        W38865  15.606  37.936  14.934
66441W        W38866  25.427   6.427  12.516
66442W        W38867  40.379  25.579   0.303
66443W        W38868  36.969  16.580   0.029
66444W        W38869  17.853   7.958  14.879
66445W        W38870   4.073  29.982  13.246
66446W        W38871  12.574  26.100  11.573
66447W        W38872  42.914  27.744   1.567
66448W        W38873  44.683  39.787   4.878
66449W        W38874  12.650  12.803   0.270
66450W        W38875  19.607  42.402   0.065
66451W        W38876  34.389  40.348  11.966
66452W        W38877  26.985  32.179  11.496
66453W        W38878  21.184  18.089  13.877
66454W        W38879  25.449  38.620  12.881
66455W        W38880   6.244  26.812  11.088
66456W        W38881  23.138  14.807   3.595
66457W        W38882  31.192  26.969  12.453
66458W        W38883  34.919   8.947  13.401
66459W        W38884   7.769  28.397   0.750
66460W        W38885  12.226  13.480   1.116
66461W        W38886  10.735  12.740   3.556
66462W        W38887  25.724  38.370   1.728
66463W        W38888   3.381  16.301   4.599
66464W        W38889  42.945  24.995  12.533
66465W        W38890  44.025  28.984  12.100
66466W        W38891  22.275   5.718   0.648
66467W        W38892  33.414  31.352  12.548
66468W        W38893   3.824  25.717  10.291
66469W        W38894  36.087  27.903  14.892
66470W        W38895  34.968  24.091   4.300
66471W        W38896  27.194   6.046   2.016
66472W        W38897  21.003  12.124  12.737
66473W        W38898  39.291  17.050   4.061
66474W        W38899  25.619  25.788   4.741
66475W        W38900  36.593  42.335  10.693
66476W        W38901   6.293  31.137  14.592
66477W        W38902  34.007   7.794   1.366
66478W        W38903  32.853  21.445   4.982
66479W        W38904  19.140   5.975  12.505
66480W        W38905  16.071  19.628  12.779
66481W        W38906  25.472   2.992  12.601
66482W        W38907  25.242  23.676  10.765
66483W        W38908  42.420  12.725  14.035
66484W        W38909   8.132  19.141   3.401
66485W        W38910   8.125  19.736   3.760
66486W        W38911  23.542  44.585   3.984
66487W        W38912  18.713   6.984  14.484
66488W        W38913  22.698  25.448   2.202
66489W        W38914  35.854  24.765  10.507
66490W        W38915   3.248  13.752  12.051
66491W        W38916  19.111  31.662   0.385
66492W        W38917  14.145  34.998   3.234
66493W        W38918   8.924  35.012   5.189
66494W        W38919  20.629  25.634  11.145
66495W        W38920  23.199  26.253  12.385
66496W        W38921   2.662   5.921   2.775
66497W        W38922  12.200  11.853  10.986
66498W        W38923  19.487   0.074  12.872
66499W        W38924  41.230  22.029   4.124
66500W        W38925   8.532   3.140  11.706
66501W        W38926  35.336  28.267  12.999
66502W        W38927  11.315  10.621  14.481
66503W        W38928  16.255  40.114   0.924
66504W        W38929  13.127  16.886  14.423
66505W        W38930  18.316  41.598   3.725
66506W        W38931  42.839  19.725   2.627
66507W        W38932  42.161  15.046  13.790
66508W        W38933  25.218  10.851   3.498
66509W        W38934  30.132  34.030   4.415
66510W        W38935  15.428  10.322  11.830
66511W        W38936  11.797   4.493   3.210
66512W        W38937  43.848   8.215  14.036
66513W        W38938   3.056  18.010   1.645
66514W        W38939  18.148  42.447   4.991
66515W        W38940  24.543  21.127   3.153
66516W        W38941  38.293  16.399   2.797
66517W        W38942  22.595  23.109  10.576
66518W        W38943  38.587  33.539  14.529
66519W        W38944  17.676  33.339  11.465
66520W        W38945   8.218   5.451  13.963
66521W        W38946  33.495   4.613   4.246
66522W        W38947  40.556  42.897   2.731
66523W        W38948   1.010  13.234   4.586
66524W        W38949  23.213  12.383  10.223
66525W        W38950  16.588  16.046  11.990
66526W        W38951  13.209  35.387   3.824
66527W        W38952  15.833  35.532   2.395
66528W        W38953  22.146  40.281  10.658
66529W        W38954  15.860  11.819   0.828
66530W        W38955  16.691  14.807   3.986
66531W        W38956   5.598  38.884  14.269
66532W        W38957   3.597  20.316   1.436
66533W        W38958  17.474  30.547   0.963
66534W        W38959  16.213  35.601  13.011
66535W        W38960  21.668  38.134   2.338
66536W        W38961  19.802   2.291  10.768
66537W        W38962  17.130  38.807  10.332
66538W        W38963  26.700   7.293  13.064
66539W        W38964  17.046  37.373  14.197
66540W        W38965  41.985  30.465   0.280
66541W        W38966  40.409  19.686  10.708
66542W        W38967  44.359   1.054   3.629
66543W        W38968   8.924  20.869  10.022
66544W        W38969  37.399  29.025   1.369
66545W        W38970  16.161  21.587  13.068
66546W        W38971  25.182  24.951   0.036
66547W        W38972  22.471  36.445  14.603
66548W        W38973  19.337  26.347   0.053
66549W        W38974  20.048  39.949   2.765
66550W        W38975   1.306  19.565   3.783
66551W        W38976  26.696  41.752   1.056
66552W        W38977  38.440  36.644   4.620
66553W        W38978  20.602  39.547  13.321
66554W        W38979  43.381  17.309   2.087
66555W        W38980   6.661  16.042   0.513
66556W        W38981   8.539   7.382   4.163
66557W        W38982  32.149  41.400  13.558
66558W        W38983  10.762  15.841  12.921
66559W        W38984  27.927  16.768  11.969
66560W        W38985   8.480  19.739   1.194
66561W        W38986  42.516  42.894   2.172
66562W        W38987   4.901  28.435   3.757
66563W        W38988  17.596  13.301   0.169
66564W        W38989   2.136   6.031   2.757
66565W        W38990  44.943  40.269  13.825
66566W        W38991  14.682   7.017  10.598
66567W        W38992  32.541  36.610  11.058
66568W        W38993  39.936  22.054  14.800
66569W        W38994  10.859  13.165  13.061
66570W        W38995  39.550  14.195  13.044
66571W        W38996  27.151  44.837   1.796
66572W        W38997  22.526  25.794   3.322
66573W        W38998  14.675  35.971   0.726
66574W        W38999   6.894  29.716   3.675
66575W        W39000  10.328  33.574   0.413
66576W        W39001  25.151   7.840   4.672
66577W        W39002  23.722  20.031   2.782
66578W        W39003  26.532  22.110   4.329
66579W        W39004  39.894  19.183  11.186
66580W        W39005  42.371  13.674  10.521
66581W        W39006   0.265  25.481   1.220
66582W        W39007   4.140  34.965   3.338
66583W        W39008  29.564  35.328   3.759
66584W        W39009  10.624  23.302  14.290
66585W        W39010  18.826  13.259   4.544
66586W        W39011  41.557  20.662  12.525
66587W        W39012  15.188  19.270  11.535
66588W        W39013  31.669  21.199  12.466
66589W        W39014  44.479  10.804  10.985
66590W        W39015  38.526   0.216   1.818
66591W        W39016  16.657  12.077   2.117
66592W        W39017   4.487  19.513   4.278
66593W        W39018  31.016  36.771   0.679
66594W        W39019  20.660  44.902  10.946
66595W        W39020   7.765   7.313   9.804
66596W        W39021  35.870  28.518  13.622
66597W        W39022   8.721   6.608   2.667
66598W        W39023   4.929  27.476   4.108
66599W        W39024  40.300  38.590  14.888
66600W        W39025   9.496   7.982  12.594
66601W        W39026  14.084   0.911   2.851
66602W        W39027  36.358  20.940  13.923
66603W        W39028  29.496   3.320  14.076
66604W        W39029   9.719  44.808  11.900
66605W        W39030  27.182  22.768   1.415
66606W        W39031  27.928  28.669   4.330
66607W        W39032  13.162  31.637  12.457
66608W        W39033  20.856  11.863   4.991
66609W        W39034   0.297  10.149   0.033
66610W        W39035  41.551   6.190   2.806
66611W        W39036  18.922  21.609   0.885
66612W        W39037  26.188  34.714  10.548
66613W        W39038  27.250  36.016  12.886
66614W        W39039  17.255  18.657   4.126
66615W        W39040  12.786  18.795  11.209
66616W        W39041  14.655  32.448  11.754
66617W        W39042  25.204  20.617   1.930
66618W        W39043  28.968  31.556   0.742
66619W        W39044  40.699  38.123  13.092
66620W        W39045   0.862  38.663  13.080
66621W        W39046   7.962  33.501  12.669
66622W        W39047  38.065  43.282   1.666
66623W        W39048  19.979  29.561   4.959
66624W        W39049   9.347  38.052   4.067
66625W        W39050   4.245  21.265   4.318
66626W        W39051  30.013  24.977  11.486
66627W        W39052   8.215   9.919  11.489
66628W        W39053  34.291  16.304  13.461
66629W        W39054   6.393  36.850  14.188
66630W        W39055  35.146  24.526  11.359
66631W        W39056  15.552   1.251   4.175
66632W        W39057  12.530  39.055   4.977
66633W        W39058  35.446  32.759  12.575
66634W        W39059   1.326  37.516   2.286
66635W        W39060   6.823  13.645   2.187
66636W        W39061  33.405  34.040   3.192
66637W        W39062  37.503   8.120   0.393
66638W        W39063  30.036  44.975   4.335
66639W        W39064  17.209  23.176   0.562
66640W        W39065   0.251  23.162  11.124
66641W        W39066  42.256  31.360   2.617
66642W        W39067  22.819  17.672   2.829
66643W        W39068  28.628   7.442  12.491
66644W        W39069  17.192   3.536   1.901
66645W        W39070  36.882  11.442   4.750
66646W        W39071  30.705  18.638   5.466
66647W        W39072  21.056  39.358  14.225
66648W        W39073  26.267  36.494   3.133
66649W        W39074  27.625  41.983  12.012
66650W        W39075  24.447  28.062  14.426
66651W        W39076  35.375  11.209  14.354
66652W        W39077   0.211  16.073  12.083
66653W        W39078   1.728  18.799   3.699
66654W        W39079  27.476  28.594   0.452
66655W        W39080  29.870  38.518   3.274
66656W        W39081   4.332  11.063  14.384
66657W        W39082   2.766  33.971  14.588
66658W        W39083   3.483  39.997   3.735
66659W        W39084   7.418  39.964  11.445
66660W        W39085  17.033  15.841   3.182
66661W        W39086  23.728   1.857   4.529
66662W        W39087  30.657   3.237   3.676
66663W        W39088  28.615  12.403  14.526
66664W        W39089  44.569  10.324  10.791
66665W        W39090  44.366  32.444   1.849
66666W        W39091  10.124  18.186   1.197
66667W        W39092  13.942  18.072  13.888
66668W        W39093  39.426  22.175  13.926
66669W        W39094  11.488  30.005   2.635
66670W        W39095  21.627  37.683  12.099
66671W        W39096  27.076  28.555  13.019
66672W        W39097   8.901  35.194  12.469
66673W        W39098  24.874  34.470   3.537
66674W        W39099  19.281  41.861  12.896
66675W        W39100  21.096  42.365   1.805
66676W        W39101  30.963  13.851   2.728
66677W        W39102  30.505  27.095   0.706
66678W        W39103  40.625  20.633  13.453
66679W        W39104  39.359  25.640   4.632
66680W        W39105  14.196  17.527   2.694
66681W        W39106  28.689  12.561   3.821
66682W        W39107  25.774  24.947   3.108
66683W        W39108   8.940  13.103   3.618
66684W        W39109  43.774  40.439   1.820
66685W        W39110  35.968  41.099   4.393
66686W        W39111   0.339  43.011   3.203
66687W        W39112  15.361   6.850  12.366
66688W        W39113  32.440  35.825  11.823
66689W        W39114  25.612  41.262  11.436
66690W        W39115  18.226   4.877  13.817
66691W        W39116  15.109  38.989  13.261
66692W        W39117  14.761   8.675   4.237
66693W        W39118  34.131  37.105  10.651
66694W        W39119   8.948   9.203  10.344
66695W        W39120   6.166   4.929  14.401
66696W        W39121  41.887  43.612   5.510
66697W        W39122   1.336  14.102   0.011
66698W        W39123  14.699  22.290   4.308
66699W        W39124   4.303  12.290   2.517
66700W        W39125   2.554  35.879   5.008
66701W        W39126   3.293   2.512   4.005
66702W        W39127   4.360  33.974  11.105
66703W        W39128   3.805   4.494   0.915
66704W        W39129  12.755   5.131   0.446
66705W        W39130  28.892  42.686   3.658
66706W        W39131  22.512  20.294  12.449
66707W        W39132   9.651  37.604   2.763
66708W        W39133   8.991  16.709  13.852
66709W        W39134  14.563   1.569   0.550
66710W        W39135   5.808  38.362   1.783
66711W        W39136  19.193   0.864   0.845
66712W        W39137  18.200   4.434   3.198
66713W        W39138  32.522   3.361  11.493
66714W        W39139  33.998  37.270   3.297
66715W        W39140   2.939   3.904  13.098
66716W        W39141  12.220   5.780  14.271
66717W        W39142  38.954  38.169   3.552
66718W        W39143  19.730   1.596  14.259
66719W        W39144  28.560  38.753   0.407
66720W        W39145  42.821  42.548  12.961
66721W        W39146  38.827  22.028  10.319
66722W        W39147  23.205  18.007   4.041
66723W        W39148  26.523  31.902  11.631
66724W        W39149  12.798   7.494   2.280
66725W        W39150   9.073  26.088  12.092
66726W        W39151  18.795  20.754  14.906
66727W        W39152  40.775  27.735   4.072
66728W        W39153   2.651  20.819  14.545
66729W        W39154  42.777  40.477   5.073
66730W        W39155  12.344  36.453   1.270
66731W        W39156  39.841  41.146   0.421
66732W        W39157  35.576  15.310   3.090
66733W        W39158  25.990  41.575   4.443
66734W        W39159  22.703  44.421   1.895
66735W        W39160  17.695  10.819   4.392
66736W        W39161   6.696  30.993  14.876
66737W        W39162  25.915  22.128   2.258
66738W        W39163  25.694   0.382   4.793
66739W        W39164  28.166   0.388   0.457
66740W        W39165  26.540  44.295   0.802
66741W        W39166  21.767  43.719   0.062
66742W        W39167  25.550  26.222  11.523
66743W        W39168   7.257   2.714   1.617
66744W        W39169   9.943  14.673   1.300
66745W        W39170  24.181  18.876  14.257
66746W        W39171  14.871  29.948  10.709
66747W        W39172   5.740  32.942  14.927
66748W        W39173  14.904  32.541   3.792
66749W        W39174  32.214  22.635   4.651
66750W        W39175   9.402  18.322  10.660
66751W        W39176  17.594  28.089  13.555
66752W        W39177   8.172  14.509   0.923
66753W        W39178   8.924  18.063  14.961
66754W        W39179  39.887  22.045   3.545
66755W        W39180   6.450  24.175  12.911
66756W        W39181  20.311  13.809   5.070
66757W        W39182  26.442  10.250  14.297
66758W        W39183  28.276  42.603   5.112
66759W        W39184  42.328  10.648  13.279
66760W        W39185  27.442  32.006   4.514
66761W        W39186  33.585  26.686   3.704
66762W        W39187   8.625  41.454  13.775
66763W        W39188  18.712  44.160   1.959
66764W        W39189  23.993  15.537   1.003
66765W        W39190  26.951  26.374   0.788
66766W        W39191   9.633  29.382   2.329
66767W        W39192  17.715  37.548  14.914
66768W        W39193  12.926  34.889  14.866
66769W        W39194  25.983   9.890   2.219
66770W        W39195   8.880  13.154   4.523
66771W        W39196  42.297  28.597   1.278
66772W        W39197   1.351  19.806  12.861
66773W        W39198   9.231   5.657   4.128
66774W        W39199  17.637  40.733  13.496
66775W        W39200   1.912   8.682  14.989
66776W        W39201  37.253  13.508   2.205
66777W        W39202  30.926  15.552  11.013
66778W        W39203  39.061  28.800   2.750
66779W        W39204  18.474   6.114   3.869
66780W        W39205  16.713   7.376  12.464
66781W        W39206  28.022  27.725   3.393
66782W        W39207  14.086  24.966   2.144
66783W        W39208   1.781  26.626   2.643
66784W        W39209  31.625  34.131  12.073
66785W        W39210  11.828  18.693   2.301
66786W        W39211  44.801  32.542   2.668
66787W        W39212  31.984  23.931   2.260
66788W        W39213   2.969  39.348   1.112
66789W        W39214  14.307  35.291   4.136
66790W        W39215  19.834  14.650   1.879
66791W        W39216  31.483  11.814  14.404
66792W        W39217  21.476  42.917   2.348
66793W        W39218  29.174  19.824   2.698
66794W        W39219  39.298  28.318  12.728
66795W        W39220  11.880   2.977  11.907
66796W        W39221   6.343   7.941   1.274
66797W        W39222  40.569  23.592  13.347
66798W        W39223  27.625  41.467   4.323
66799W        W39224  24.976  37.370  11.957
66800W        W39225  20.480  40.918  12.876
66801W        W39226  34.936  29.192  13.473
66802W        W39227  24.808  43.288   5.085
66803W        W39228  10.156  30.880   2.694
66804W        W39229   1.691  14.553   0.023
66805W        W39230  20.413  24.132  11.163
66806W        W39231  19.544  19.276  11.494
66807W        W39232  34.701  41.260   1.951
66808W        W39233   1.910  11.812  14.304
66809W        W39234  24.493   3.417  14.950
66810W        W39235  14.324   2.395  13.456
66811W        W39236  10.844  27.952  14.000
66812W        W39237  13.853  13.675   4.886
66813W        W39238   6.128   0.535   4.740
66814W        W39239  37.951  43.558  14.838
66815W        W39240  31.388  11.131  13.981
66816W        W39241  24.014  34.486  12.400
66817W        W39242   7.226  33.623  11.242
66818W        W39243  30.395  32.973   3.176
66819W        W39244   0.792  13.324   0.911
66820W        W39245  44.944   5.973   4.114
66821W        W39246  24.966  14.832  12.994
66822W        W39247  40.556  20.108  14.311
66823W        W39248   7.373   7.462  11.925
66824W        W39249  43.937   8.762  12.905
66825W        W39250   7.897  35.283   0.805
66826W        W39251  33.081  35.467  13.011
66827W        W39252  34.864  25.585  13.168
66828W        W39253   7.621  19.215   3.282
66829W        W39254  33.019  17.072   0.734
66830W        W39255  29.248  31.574   5.260
66831W        W39256  16.303  12.181  13.447
66832W        W39257  10.170   8.388   1.228
66833W        W39258   3.279  32.515  13.076
66834W        W39259  43.339   0.582   0.479
66835W        W39260  35.565  24.190   2.649
66836W        W39261  36.803  13.685  14.015
66837W        W39262  23.695  16.808  10.575
66838W        W39263   2.745  14.334  12.370
66839W        W39264  40.191  44.264   4.539
66840W        W39265  42.718   5.783   1.852
66841W        W39266  28.825  38.489   3.171
66842W        W39267  11.443   4.517  14.868
66843W        W39268   8.399  42.394   0.434
66844W        W39269  31.979  39.958   9.859
66845W        W39270  18.378  23.654   1.824
66846W        W39271  30.160   5.209   0.325
66847W        W39272  37.089   3.706   3.656
66848W        W39273  24.731  33.552   2.805
66849W        W39274   0.683  21.224  11.960
66850W        W39275   4.788  15.534   0.617
66851W        W39276  14.799   4.470   2.204
66852W        W39277  35.030  18.975   3.380
66853W        W39278  42.472  22.811   2.320
66854W        W39279   3.781   0.828  13.388
66855W        W39280  21.246  43.553   1.649
66856W        W39281  27.768  33.285  10.880
66857W        W39282   5.168  14.392   4.701
66858W        W39283  17.164  16.574   2.762
66859W        W39284  27.143  26.579   2.596
66860W        W39285  10.422  20.687   4.157
66861W        W39286  14.729  35.073   3.684
66862W        W39287  13.572  43.700  14.409
66863W        W39288  34.137  18.836  11.998
66864W        W39289  36.770  31.209  11.052
66865W        W39290   0.047  36.050  11.079
66866W        W39291  30.076  13.899   0.681
66867W        W39292  44.245   7.161  14.578
66868W        W39293   9.948  15.573   1.769
66869W        W39294  11.278   8.808   1.196
66870W        W39295   1.769  23.908   1.192
66871W        W39296  11.171  28.054   1.941
66872W        W39297  11.281  33.489  10.299
66873W        W39298  42.694   2.103   4.312
66874W        W39299  15.318  40.379   2.162
66875W        W39300  23.082  44.536   0.097
66876W        W39301  29.939  10.673   4.880
66877W        W39302   5.216  36.998   4.685
66878W        W39303  11.694  15.588   1.714
66879W        W39304  11.627   2.712   2.740
66880W        W39305  40.770  40.798   3.634
66881W        W39306   0.350   5.663   4.142
66882W        W39307  26.832   3.769  11.978
66883W        W39308  17.816  41.502   4.062
66884W        W39309  39.998  10.141  12.940
66885W        W39310  38.149  35.999  11.682
66886W        W39311  39.482  16.330   2.304
66887W        W39312  26.162   3.381   2.086
66888W        W39313  11.408  12.355  10.806
66889W        W39314  33.719  28.734  11.364
66890W        W39315  43.852  44.544   3.260
66891W        W39316  36.583   8.295   0.407
66892W        W39317  21.256  40.995  12.552
66893W        W39318   2.508  12.819   1.448
66894W        W39319  40.422  11.892   4.722
66895W        W39320  19.676  39.217  10.721
66896W        W39321  19.497  27.201   1.393
66897W        W39322  20.408   9.621   0.456
66898W        W39323  36.674  19.825   1.347
66899W        W39324  22.621   3.093   0.330
66900W        W39325  40.558  21.464   1.496
66901W        W39326   5.935  35.030  11.140
66902W        W39327   0.373  43.240   0.468
66903W        W39328  28.172  34.134   3.694
66904W        W39329  20.227  22.412   5.048
66905W        W39330  28.922  27.525   0.272
66906W        W39331   9.116  26.515   0.536
66907W        W39332  17.098  33.906   1.949
66908W        W39333  11.687   3.445  11.691
66909W        W39334  25.240  42.574  11.110
66910W        W39335  22.422  32.160  14.559
66911W        W39336  16.300  10.710   1.312
66912W        W39337  28.146  20.684   5.031
66913W        W39338  28.416  22.453   2.334
66914W        W39339  15.630  33.937   4.393
66915W        W39340  33.868  24.189  12.985
66916W        W39341  37.054  34.413   1.675
66917W        W39342   6.559  25.856  14.049
66918W        W39343  13.133  12.861   3.158
66919W        W39344  27.479  29.217  11.605
66920W        W39345  22.882  40.591  14.758
66921W        W39346  38.670   8.865   4.723
66922W        W39347  38.822  26.713  11.928
66923W        W39348  13.807  24.891   0.287
66924W        W39349  35.909  20.755  14.081
66925W        W39350  14.088  12.403   3.384
66926W        W39351  35.087  39.523   0.745
66927W        W39352  18.700  10.699   1.737
66928W        W39353  11.758  24.885  12.435
66929W        W39354  44.722  30.156   0.543
66930W        W39355  20.816   4.286   0.986
66931W        W39356  43.941  11.330   3.158
66932W        W39357  28.690   1.339  10.700
66933W        W39358  30.845   5.750   3.149
66934W        W39359  17.612  20.845  14.967
66935W        W39360  32.585  31.520  14.334
66936W        W39361   0.819  28.622   2.382
66937W        W39362  20.764  33.072   2.367
66938W        W39363   2.440  38.651  11.753
66939W        W39364  33.426  13.653  13.517
66940W        W39365  12.378  23.753   3.266
66941W        W39366   6.684  33.367   0.987
66942W        W39367  16.998  27.455  11.757
66943W        W39368  23.027  21.453  11.693
66944W        W39369  28.871  37.009  11.980
66945W        W39370  30.121  21.729  13.269
66946W        W39371   5.268   4.790   2.379
66947W        W39372  36.821  11.899  11.788
66948W        W39373  16.464  41.116  13.904
66949W        W39374  29.152  38.290   2.781
66950W        W39375   4.178  40.587  14.355
66951W        W39376  34.282  14.912  13.499
66952W        W39377   7.954  12.263   4.856
66953W        W39378  28.993  17.608   4.579
66954W        W39379  43.983   1.356   4.563
66955W        W39380  32.947  14.655  10.699
66956W        W39381   1.923  10.873  12.164
66957W        W39382  20.927  44.848  12.356
66958W        W39383  21.053  29.255  12.558
66959W        W39384   6.685   5.191   4.178
66960W        W39385  41.443  37.626  13.482
66961W        W39386  16.790  35.056   1.283
66962W        W39387   1.222  24.120   1.829
66963W        W39388  19.669  31.396  14.523
66964W        W39389  14.577   4.902   2.401
66965W        W39390  38.113  44.788  14.768
66966W        W39391  17.331  27.393   2.826
66967W        W39392  44.660  11.875  14.856
66968W        W39393  26.074   1.410  14.533
66969W        W39394  34.938  30.966   2.807
66970W        W39395  13.172  22.098  13.650
66971W        W39396   5.274  10.862  13.659
66972W        W39397  33.910  37.337   0.848
66973W        W39398   8.822  25.604   0.920
66974W        W39399  15.932   3.443  14.679
66975W        W39400  14.827  35.167  14.762
66976W        W39401  39.489  38.047   0.289
66977W        W39402  12.669  42.604  11.223
66978W        W39403  17.317  31.655  14.832
66979W        W39404  26.208   7.452  12.186
66980W        W39405  42.348  19.226  12.407
66981W        W39406  39.585  16.226   3.688
66982W        W39407  10.056  14.785   2.234
66983W        W39408   8.135   6.314  12.154
66984W        W39409  38.789  42.340   5.424
66985W        W39410  23.653  39.425   1.897
66986W        W39411   9.181  18.000  13.311
66987W        W39412  21.023  35.123   0.330
66988W        W39413  33.878  15.707   3.674
66989W        W39414  41.401  14.805  13.358
66990W        W39415   3.371  23.950   4.608
66991W        W39416  12.051   6.725  14.370
66992W        W39417  21.774  42.834  13.692
66993W        W39418  37.840  13.988  11.887
66994W        W39419  27.798  38.097   2.846
66995W        W39420  16.533  19.743  10.887
66996W        W39421   5.146  22.812  12.565
66997W        W39422  14.745  41.544  14.733
66998W        W39423   4.708  13.369  10.384
66999W        W39424  31.977  28.141  14.419
67000W        W39425  40.442  19.096   2.815
67001W        W39426  23.658  22.759   2.069
67002W        W39427   7.384  16.613  12.527
67003W        W39428   9.712  12.532  11.113
67004W        W39429  41.448  37.004  12.087
67005W        W39430  18.570   4.281  13.512
67006W        W39431  31.444  16.087  11.431
67007W        W39432  21.484  14.836   4.767
67008W        W39433   7.768  12.711   2.651
67009W        W39434   4.738  31.925   3.103
67010W        W39435   8.384  43.514   1.469
67011W        W39436  19.819   5.211  13.981
67012W        W39437  14.687  15.021   4.169
67013W        W39438  44.346   7.436   2.683
67014W        W39439  21.751  38.756   3.710
67015W        W39440  39.494  23.232   1.165
67016W        W39441  16.834   7.818   2.404
67017W        W39442  13.333  34.022   4.638
67018W        W39443  44.026  28.462  11.945
67019W        W39444  15.571  25.646   0.413
67020W        W39445   9.274  34.615  13.657
67021W        W39446  22.715  43.853   2.309
67022W        W39447  24.972  40.098  12.069
67023W        W39448  34.662  44.933  13.562
67024W        W39449  40.220   9.607  14.814
67025W        W39450   1.860  37.795   3.985
67026W        W39451  42.403  31.578   3.059
67027W        W39452  19.143  33.116  14.291
67028W        W39453  44.184  41.446   3.053
67029W        W39454  24.071  22.988   1.312
67030W        W39455   2.796   0.926  13.422
67031W        W39456   9.287   3.339   0.097
67032W        W39457  25.489  19.533  14.863
67033W        W39458  31.561  44.550  11.132
67034W        W39459   9.237   6.721  10.261
67035W        W39460  25.278   3.920   0.904
67036W        W39461   9.905  15.272   0.952
67037W        W39462  25.724  11.780  12.618
67038W        W39463  35.575   8.159  13.394
67039W        W39464  24.128  44.891  12.036
67040W        W39465   0.099  21.724   3.662
67041W        W39466   6.431  32.571  10.026
67042W        W39467  43.779  42.462   2.800
67043W        W39468  10.113  18.098  14.310
67044W        W39469  15.305  18.188  10.583
67045W        W39470  31.157  18.712   0.542
67046W        W39471  25.172  19.525   1.265
67047W        W39472   2.969  33.098  14.001
67048W        W39473  28.940  39.752  13.990
67049W        W39474  34.794  30.034  11.785
67050W        W39475  26.531  13.377  14.823
67051W        W39476   6.138   0.780   2.699
67052W        W39477  40.525   1.225   2.818
67053W        W39478  34.952   8.975  14.023
67054W        W39479  42.804  44.784  12.421
67055W        W39480   2.827  29.319  11.427
67056W        W39481  33.514  25.549  14.497
67057W        W39482  11.151  10.190  10.549
67058W        W39483   8.273  13.818  11.998
67059W        W39484   1.438   6.629  10.795
67060W        W39485  20.700  37.104   3.586
67061W        W39486   1.979  19.829   3.688
67062W        W39487  29.550   5.705  14.303
67063W        W39488  34.873  27.717  11.050
67064W        W39489  36.143  44.934  13.963
67065W        W39490  15.065  12.172  14.238
67066W        W39491  21.712  33.545   3.259
67067W        W39492   8.419  30.997   4.576
67068W        W39493  44.371   1.649   2.449
67069W        W39494   9.676  23.205   2.423
67070W        W39495   0.557  40.812   1.703
67071W        W39496   5.746   6.276   4.569
67072W        W39497  14.592   6.917   0.172
67073W        W39498  40.710  24.212   1.855
67074W        W39499  19.629  23.729   2.383
67075W        W39500  30.820  15.073   2.475
67076W        W39501  25.709  37.346   1.312
67077W        W39502  36.127  19.039   1.716
67078W        W39503  28.859  21.166   2.628
67079W        W39504  16.024  32.324   1.375
67080W        W39505   4.778   9.185   1.489
67081W        W39506  19.843   8.149   2.246
67082W        W39507  21.627   8.300  11.454
67083W        W39508  15.519  12.800  13.599
67084W        W39509   9.345  15.674  11.509
67085W        W39510  28.098  33.623   3.617
67086W        W39511  23.107  17.536  12.825
67087W        W39512   4.215  38.825   3.825
67088W        W39513  22.543  34.765   4.681
67089W        W39514  23.140  10.874   1.405
67090W        W39515  15.751  31.837  12.504
67091W        W39516  34.002  37.421  14.003
67092W        W39517   6.698   6.922   0.700
67093W        W39518  44.742  33.697  13.887
67094W        W39519  40.214   7.838   4.564
67095W        W39520  35.597   7.537   1.800
67096W        W39521   0.828   1.929   1.204
67097W        W39522  16.258  22.328   0.277
67098W        W39523  35.905  26.870   5.076
67099W        W39524   9.100  20.654   1.463
67100W        W39525   0.405  36.880   3.797
67101W        W39526   8.319  25.128   2.003
67102W        W39527   9.273  28.704  12.155
67103W        W39528  14.842  44.990   3.391
67104W        W39529   2.768   7.408   1.683
67105W        W39530  15.868  13.795   1.905
67106W        W39531   8.327  10.389  13.754
67107W        W39532  12.204  25.121  11.819
67108W        W39533  37.123   5.336   3.225
67109W        W39534  22.132   3.248   0.312
67110W        W39535  15.327   2.397   1.236
67111W        W39536   1.799   1.791   2.650
67112W        W39537  28.422  19.677  13.289
67113W        W39538  11.653   8.075   0.877
67114W        W39539   0.020  13.462  14.065
67115W        W39540   3.589  10.265  11.593
67116W        W39541  19.918  24.057  11.314
67117W        W39542  20.596  22.452  13.525
67118W        W39543   8.051   6.809  11.955
67119W        W39544  24.140  20.690   1.025
67120W        W39545  21.678   2.816   1.944
67121W        W39546   0.825  16.047   3.249
67122W        W39547  24.216   0.709  10.440
67123W        W39548  13.750  13.838   2.792
67124W        W39549  22.332  27.946  13.836
67125W        W39550  26.726   2.839  12.160
67126W        W39551   7.449  21.010  13.400
67127W        W39552   2.273   5.797   0.041
67128W        W39553   1.408  23.646  10.967
67129W        W39554   6.252  35.626   3.306
67130W        W39555  42.086  35.792  11.640
67131W        W39556  42.017  41.566  12.047
67132W        W39557  36.699  22.775   3.457
67133W        W39558   5.962  19.111   2.761
67134W        W39559   2.583  35.976  13.958
67135W        W39560   1.795  20.429   0.742
67136W        W39561  43.755  36.644   2.450
67137W        W39562  41.616  39.350  12.438
67138W        W39563  19.183   7.405   0.518
67139W        W39564  43.622  40.396  10.834
67140W        W39565  36.613  14.634  11.442
67141W        W39566  29.298  44.144   0.969
67142W        W39567  31.236  13.810   3.848
67143W        W39568  33.573   7.558  14.637
67144W        W39569  17.655   1.380  11.443
67145W        W39570   3.253  43.021  14.556
67146W        W39571  43.873  39.762  12.054
67147W        W39572   0.568  35.977  12.589
67148W        W39573  12.670  35.810  14.920
67149W        W39574  38.036   0.476   1.856
67150W        W39575  15.373  14.600  14.085
67151W        W39576   0.039  22.988   3.335
67152W        W39577  22.077  26.665  13.411
67153W        W39578  44.283   6.731   0.509
67154W        W39579  20.804   5.423   3.722
67155W        W39580  28.076  32.483   4.642
67156W        W39581  37.464  38.392   4.775
67157W        W39582  28.368  17.083   3.228
67158W        W39583  42.769  39.060  10.729
67159W        W39584  24.285  21.149   0.352
67160W        W39585  25.715  23.626  14.908
67161W        W39586  38.873   1.947   4.597
67162W        W39587  20.123  29.615   2.189
67163W        W39588  44.645  14.493  12.783
67164W        W39589  28.463   1.490  11.139
67165W        W39590  10.319  21.107   4.783
67166W        W39591  12.663  42.492   1.302
67167W        W39592  33.555   6.719   3.288
67168W        W39593  24.847  35.191   4.050
67169W        W39594   6.755  31.866   4.702
67170W        W39595  39.065   2.435   4.547
67171W        W39596  16.747  43.524   1.943
67172W        W39597  14.634   1.666   3.729
67173W        W39598   9.162   7.923  11.849
67174W        W39599  15.007  43.783  12.885
67175W        W39600   7.883  40.622  10.258
67176W        W39601   2.031  40.829   2.641
67177W        W39602   8.343  43.544   1.996
67178W        W39603   8.236  30.837   1.838
67179W        W39604   4.324  37.116   1.816
67180W        W39605  27.607  25.216   0.531
67181W        W39606  11.040  18.243   2.116
67182W        W39607  18.596  38.807  13.050
67183W        W39608  33.960   5.810   3.145
67184W        W39609   6.876   4.939  13.549
67185W        W39610  39.439  24.941  12.422
67186W        W39611  38.246  19.526  12.928
67187W        W39612  27.294  14.580   3.359
67188W        W39613   1.392  22.305   0.444
67189W        W39614  41.281  40.516  14.021
67190W        W39615  38.979  10.675   0.866
67191W        W39616  32.570  28.374  14.044
67192W        W39617   3.522  13.731   3.585
67193W        W39618  29.392  37.891   3.700
67194W        W39619  38.846  39.354  11.402
67195W        W39620  42.140  39.056   3.722
67196W        W39621  19.284  13.742  12.563
67197W        W39622   7.969  38.137   9.684
67198W        W39623   9.590  10.220   2.253
67199W        W39624   2.727  44.518   3.719
67200W        W39625  38.264  32.649   1.616
67201W        W39626   5.320  44.559  13.522
67202W        W39627  16.177  15.981  11.647
67203W        W39628  36.052  22.838   1.415
67204W        W39629  19.869  38.048  12.086
67205W        W39630  39.854   7.078  13.451
67206W        W39631   0.377  13.371   1.691
67207W        W39632  37.391  15.349  12.131
67208W        W39633  26.545  24.669   4.720
67209W        W39634  31.620  16.545  13.543
67210W        W39635   7.337  37.379  14.876
67211W        W39636   7.291   8.314   1.690
67212W        W39637  11.635  20.792   2.890
67213W        W39638  14.781  37.927  11.602
67214W        W39639  18.533  43.408  10.702
67215W        W39640  17.852  34.933   3.184
67216W        W39641   1.255  38.403   0.671
67217W        W39642  30.549   3.515   2.275
67218W        W39643  30.865   0.826  14.941
67219W        W39644  23.652  29.063  10.761
67220W        W39645   2.712  18.020   2.436
67221W        W39646  24.912   6.352  11.325
67222W        W39647  25.233   2.861  13.558
67223W        W39648  13.866  27.755   0.727
67224W        W39649   5.549   0.955   0.682
67225W        W39650   9.389  40.403  10.754
67226W        W39651  37.909  17.634   3.119
67227W        W39652   2.728   1.372   0.334
67228W        W39653  32.445  37.539   1.674
67229W        W39654  33.326  18.723   0.952
67230W        W39655  29.145  44.878  10.992
67231W        W39656  36.479   7.259   0.366
67232W        W39657  39.825   5.257   1.291
67233W        W39658  41.721  42.995   2.835
67234W        W39659  22.614  20.757  12.718
67235W        W39660  23.200  24.111  11.643
67236W        W39661  10.741   6.825   2.723
67237W        W39662  22.510  14.644   0.285
67238W        W39663   4.067   1.065  14.812
67239W        W39664  40.063  38.914   3.389
67240W        W39665  28.110  27.848  10.973
67241W        W39666  39.920  17.814  12.824
67242W        W39667  22.187  36.340  10.756
67243W        W39668  17.133  22.681   2.258
67244W        W39669  24.695  18.388  12.926
67245W        W39670  30.140  33.922   1.871
67246W        W39671  34.327  20.773  12.257
67247W        W39672  19.646  19.582  12.859
67248W        W39673  20.735   0.368  13.354
67249W        W39674   9.340  20.981  13.958
67250W        W39675   4.919  36.499   2.091
67251W        W39676   1.504  19.299   2.954
67252W        W39677  35.928   7.242  10.560
67253W        W39678  35.148   4.825  11.688
67254W        W39679   8.256   6.291  13.586
67255W        W39680  28.956  31.084   5.231
67256W        W39681  33.634   1.269  12.516
67257W        W39682  29.594  23.272   2.832
67258W        W39683  34.091  10.743  12.112
67259W        W39684  28.047   0.805   4.351
67260W        W39685  28.770  31.288   1.158
67261W        W39686  41.700   0.965   5.104
67262W        W39687  40.474  32.836  13.316
67263W        W39688  38.139   6.926   3.708
67264W        W39689   7.324   9.786  10.585
67265W        W39690   5.917   3.939  13.621
67266W        W39691   0.194  44.403   2.897
67267W        W39692  40.554  38.024   3.272
67268W        W39693  12.096  26.952  13.055
67269W        W39694  11.814   9.964  10.982
67270W        W39695  27.998  23.217   2.416
67271W        W39696  38.205  12.149  14.328
67272W        W39697  27.117   7.327   4.812
67273W        W39698  10.670  36.017  11.570
67274W        W39699   7.789   2.205  11.431
67275W        W39700  19.101   7.790  13.515
67276W        W39701  15.044  37.934  13.759
67277W        W39702  25.665  23.135   2.638
67278W        W39703  16.630  26.456   3.557
67279W        W39704  27.142   3.780  13.626
67280W        W39705  18.783  13.941  12.600
67281W        W39706  30.654  31.849  13.952
67282W        W39707  36.535  16.780  12.972
67283W        W39708  19.820  41.015   1.439
67284W        W39709  27.265   1.354   4.856
67285W        W39710  42.060  34.693  11.089
67286W        W39711  17.068  24.663  12.835
67287W        W39712  24.206  16.344   3.863
67288W        W39713  39.088  16.990   1.609
67289W        W39714   0.509  20.287   2.699
67290W        W39715   8.751  19.673  14.457
67291W        W39716   3.696   0.736  11.882
67292W        W39717  15.762  37.311   0.963
67293W        W39718  10.366   5.390  12.858
67294W        W39719  10.576  35.184  11.138
67295W        W39720  18.934  31.847  14.419
67296W        W39721  37.154  26.246   1.616
67297W        W39722  16.293  30.720   2.599
67298W        W39723  20.752  37.734  10.526
67299W        W39724  37.356  41.832  14.407
67300W        W39725  15.833  11.725  13.059
67301W        W39726  27.314  20.647   0.962
67302W        W39727  43.960  11.360  13.078
67303W        W39728  21.351  43.665   4.450
67304W        W39729   0.407  15.113  12.338
67305W        W39730  38.562  13.102  13.170
67306W        W39731  16.841  25.309  11.077
67307W        W39732   5.812  44.592  10.826
67308W        W39733  11.809   3.850  14.419
67309W        W39734  14.090  14.122  14.376
67310W        W39735  41.793  23.515   3.101
67311W        W39736  34.653  20.122  13.454
67312W        W39737  30.619  24.716  12.077
67313W        W39738  36.947  41.283   1.301
67314W        W39739  13.773  22.479  12.931
67315W        W39740  21.320  23.764  12.419
67316W        W39741  44.826  10.173   3.227
67317W        W39742   7.671  26.074  12.107
67318W        W39743   4.016  20.732  13.417
67319W        W39744  29.465  20.227   1.738
67320W        W39745  28.178   2.873   4.555
67321W        W39746  24.702  24.569   0.709
67322W        W39747  19.182  21.575  13.044
67323W        W39748  14.063  18.812   2.250
67324W        W39749  10.627  42.613  14.227
67325W        W39750  38.757  11.193   0.291
67326W        W39751  35.285  32.379  13.897
67327W        W39752  27.231  28.074  12.873
67328W        W39753   2.346  29.646  12.211
67329W        W39754  27.139   1.087  12.804
67330W        W39755   2.169  12.603   0.477
67331W        W39756  12.684  34.044   3.220
67332W        W39757  14.196  27.070  10.656
67333W        W39758   8.434  28.944   1.177
67334W        W39759   1.478  30.955   4.285
67335W        W39760   6.865  30.807  10.949
67336W        W39761  34.777  13.312   0.539
67337W        W39762  24.091   9.873   4.157
67338W        W39763  23.040   3.726   4.533
67339W        W39764  27.759  10.857  10.582
67340W        W39765  39.590  32.428   3.644
67341W        W39766  35.988  26.694   0.691
67342W        W39767  43.834  36.426   3.438
67343W        W39768  19.736   6.042  13.580
67344W        W39769  16.118   3.344  12.870
67345W        W39770  17.670  15.652  13.411
67346W        W39771  10.960  40.607  13.399
67347W        W39772  13.906  37.098  10.922
67348W        W39773  11.558   8.923  12.036
67349W        W39774  29.405  41.232   9.911
67350W        W39775  27.102  23.792   1.363
67351W        W39776  35.833  33.457   2.832
67352W        W39777  35.470  12.873   0.325
67353W        W39778  21.038   1.667   1.430
67354W        W39779  11.378   4.004   2.022
67355W        W39780  28.227  26.241   2.920
67356W        W39781   2.826   1.712   3.665
67357W        W39782   0.535   3.520  10.884
67358W        W39783   2.320  42.269   4.705
67359W        W39784  21.108  37.100   1.367
67360W        W39785  32.477   1.425  14.362
67361W        W39786   0.332  36.869   4.314
67362W        W39787   7.657   7.944   1.797
67363W        W39788  18.046  19.629   4.158
67364W        W39789  36.960   8.671  12.576
67365W        W39790   4.173   9.829  13.503
67366W        W39791  11.323  23.980   4.205
67367W        W39792  32.401   7.300   0.804
67368W        W39793  12.751  10.620  11.044
67369W        W39794  44.043  15.367   0.351
67370W        W39795  12.530  25.526  11.956
67371W        W39796  14.323   6.751   1.268
67372W        W39797  12.168  36.324   2.691
67373W        W39798  42.413   6.344   3.800
67374W        W39799   3.304   1.504  14.764
67375W        W39800  11.855   3.627  13.503
67376W        W39801  21.123  24.044   4.153
67377W        W39802  21.067  42.540  13.900
67378W        W39803  10.159  34.329   2.751
67379W        W39804   7.669  13.922  14.534
67380W        W39805  21.418  26.884   0.536
67381W        W39806   6.383  40.615  14.279
67382W        W39807  33.735  34.000   4.711
67383W        W39808  30.912  10.789   4.553
67384W        W39809  22.638  20.337   3.215
67385W        W39810  24.151  39.763  12.481
67386W        W39811  43.234   4.727  10.226
67387W        W39812   2.416  22.101   2.828
67388W        W39813  30.769  26.564  14.326
67389W        W39814   5.750  20.743   4.266
67390W        W39815   0.232   1.408   4.483
67391W        W39816  36.395  10.188  14.474
67392W        W39817  32.765  27.443  12.480
67393W        W39818   8.814  39.589  12.347
67394W        W39819  30.646  24.051   1.920
67395W        W39820   8.670  25.680  11.537
67396W        W39821   1.812  22.934   3.789
67397W        W39822  22.909  13.699  12.157
67398W        W39823   7.706  29.716   0.620
67399W        W39824  34.672  40.874  12.342
67400W        W39825  41.084   5.784   0.294
67401W        W39826  20.784  33.920  12.849
67402W        W39827  43.190  31.081  12.901
67403W        W39828  41.585  42.474  14.099
67404W        W39829  26.204  10.418   3.694
67405W        W39830  22.407   4.906   2.213
67406W        W39831  43.813  37.066  11.732
67407W        W39832  35.046   3.478   1.232
67408W        W39833  39.416  24.606   5.633
67409W        W39834  11.764  14.543  14.402
67410W        W39835  42.657  12.379  14.376
67411W        W39836  15.761  43.288  14.040
67412W        W39837  22.372  17.524  13.389
67413W        W39838   2.248  40.417  11.937
67414W        W39839   3.220  11.146   4.557
67415W        W39840  31.213  12.560  13.424
67416W        W39841  30.963  17.310  11.547
67417W        W39842  32.464   9.035   1.218
67418W        W39843  10.334   3.249  14.311
67419W        W39844  17.544  26.133   2.818
67420W        W39845   9.784  10.835  14.416
67421W        W39846  39.264  44.315  13.517
67422W        W39847  23.797   5.945  12.953
67423W        W39848  27.413  29.492   4.071
67424W        W39849  40.992  14.739   2.725
67425W        W39850  44.882  21.623   4.554
67426W        W39851  15.755  41.769   1.251
67427W        W39852  25.259  26.951  12.972
67428W        W39853   3.170  27.680  10.905
67429W        W39854  43.358  19.929   4.773
67430W        W39855  40.711   3.303  11.600
67431W        W39856  42.736  39.649  14.319
67432W        W39857  14.131  25.917  14.061
67433W        W39858  18.139   3.626  11.097
67434W        W39859  37.310   4.372   1.692
67435W        W39860  38.930  12.805   1.406
67436W        W39861  42.918  36.300  14.776
67437W        W39862  24.487   9.324  14.339
67438W        W39863  13.887  31.655   1.336
67439W        W39864  19.118   8.298  13.693
67440W        W39865  29.005  13.318   2.775
67441W        W39866  32.882  27.688  10.772
67442W        W39867  36.648  20.858   3.437
67443W        W39868  10.125  14.302   3.318
67444W        W39869  16.630   0.793  11.543
67445W        W39870  28.939  35.912   2.940
67446W        W39871  43.434  33.954   0.639
67447W        W39872  23.925  37.012   3.194
67448W        W39873  24.931  29.076   2.831
67449W        W39874  18.879  15.259  13.813
67450W        W39875   6.192   5.915  11.998
67451W        W39876  42.686  37.629   2.852
67452W        W39877  28.002  11.676   2.381
67453W        W39878  12.770  30.034   1.033
67454W        W39879   5.965  19.982   4.139
67455W        W39880  39.449  14.432  12.131
67456W        W39881   7.403  40.075  12.182
67457W        W39882  44.309  18.521   0.001
67458W        W39883  35.487  27.217  13.000
67459W        W39884  21.335  30.658   1.291
67460W        W39885  40.979  38.308   1.849
67461W        W39886  35.594  14.285   2.321
67462W        W39887  20.229  26.821   1.749
67463W        W39888  15.096  39.228   4.648
67464W        W39889  30.844  44.241   1.185
67465W        W39890  15.193  41.391  12.023
67466W        W39891  16.585  30.917  13.504
67467W        W39892  43.037  33.877   4.128
67468W        W39893   1.312  29.398   3.147
67469W        W39894  15.795  33.511   2.703
67470W        W39895   7.643  13.058   4.968
67471W        W39896  23.013  12.639   1.099
67472W        W39897  35.153  37.502   3.758
67473W        W39898  29.495  11.506   5.116
67474W        W39899  10.063  34.418  12.888
67475W        W39900  26.004   6.654   2.878
67476W        W39901  25.042  16.781   1.745
67477W        W39902  29.928  11.684   2.333
67478W        W39903  23.742  44.755  14.250
67479W        W39904  30.384  43.189   2.995
67480W        W39905  25.712  19.147   0.418
67481W        W39906  20.724   3.210   3.287
67482W        W39907  14.098  31.566   3.423
67483W        W39908   8.121   6.491  14.962
67484W        W39909  12.277   0.347  13.463
67485W        W39910  13.312  40.935  14.694
67486W        W39911  41.064  39.484  11.091
67487W        W39912   2.482  13.191   2.827
67488W        W39913  40.647   8.893   0.194
67489W        W39914  14.179  27.444   4.498
67490W        W39915  34.128  18.278  12.005
67491W        W39916  33.806  19.049   0.175
67492W        W39917  19.648  21.152  11.028
67493W        W39918  20.716  29.421  14.261
67494W        W39919  40.163  23.082   0.479
67495W        W39920  12.264  36.548  13.548
67496W        W39921   1.433  34.382  14.885
67497W        W39922  41.874   3.491   1.260
67498W        W39923  28.585  43.201   4.158
67499W        W39924   2.488  29.906  14.987
67500W        W39925  40.097   7.291  12.133
67501W        W39926  12.863  40.111   0.317
67502W        W39927  11.653  33.646  11.954
67503W        W39928  35.339  21.052  11.539
67504W        W39929  31.949   4.761   0.481
67505W        W39930  11.841  35.906  13.904
67506W        W39931  28.160  22.224   0.829
67507W        W39932   8.077  29.343   0.898
67508W        W39933  16.710  44.830   1.292
67509W        W39934  44.674  37.123   3.142
67510W        W39935  37.312   9.324   0.862
67511W        W39936  38.987   5.224  11.234
67512W        W39937  13.568  34.296   2.469
67513W        W39938   2.739  42.428  10.664
67514W        W39939  40.335  14.567   3.126
67515W        W39940  31.339  10.222  13.571
67516W        W39941  17.569  15.555   0.878
67517W        W39942  40.672  24.524   0.726
67518W        W39943  15.139   6.230  13.645
67519W        W39944  28.850   3.945   4.476
67520W        W39945  29.661  32.605  11.979
67521W        W39946   5.848  12.565  14.347
67522W        W39947   0.771  23.979   3.465
67523W        W39948  11.195  39.758   0.678
67524W        W39949  14.902  43.546   4.298
67525W        W39950   0.861  13.591   0.432
67526W        W39951   0.728  11.059  11.399
67527W        W39952   0.934  31.649  13.420
67528W        W39953  16.181  14.297  14.441
67529W        W39954  15.710  34.153   2.988
67530W        W39955   1.417  38.947  11.537
67531W        W39956  10.671   8.638  14.532
67532W        W39957  27.981  44.753   3.338
67533W        W39958  43.314  37.590   4.664
67534W        W39959  13.540  31.144   4.612
67535W        W39960  18.745  19.236  12.518
67536W        W39961   7.898  41.675  11.266
67537W        W39962  36.103  17.382  13.415
67538W        W39963  43.548  16.936  10.142
67539W        W39964  36.353  27.490   0.340
67540W        W39965  32.627  26.190   3.859
67541W        W39966   8.745  22.465   1.062
67542W        W39967  25.424  33.943  12.945
67543W        W39968   9.257   8.682   1.798
67544W        W39969   0.164  28.220   3.788
67545W        W39970  40.430  41.841  11.541
67546W        W39971  15.057  10.740   4.878
67547W        W39972  35.677  41.876   2.891
67548W        W39973  44.278  28.903   1.268
67549W        W39974  29.944  20.252   3.195
67550W        W39975  20.364  40.973   0.200
67551W        W39976   3.943  38.585  13.305
67552W        W39977  29.641  22.587   1.788
67553W        W39978   1.902  38.331  11.220
67554W        W39979  19.089  34.159   0.753
67555W        W39980   0.404   4.196  11.477
67556W        W39981   3.911  16.234  12.244
67557W        W39982  13.408  34.941   4.082
67558W        W39983   3.003   7.190   0.704
67559W        W39984  20.953  12.794   5.103
67560W        W39985   4.906  28.979  10.783
67561W        W39986   7.160  20.548  14.572
67562W        W39987  12.352  17.777   0.839
67563W        W39988   0.192  19.793  14.831
67564W        W39989   5.637  24.209  10.644
67565W        W39990  26.021  42.482  13.997
67566W        W39991  29.727  21.560  14.427
67567W        W39992   4.598  43.507  12.085
67568W        W39993  37.765  17.435   0.639
67569W        W39994   6.429  24.695  11.583
67570W        W39995  11.993  24.697  14.466
67571W        W39996  39.763  37.352  11.094
67572W        W39997  14.092  18.055   2.762
67573W        W39998  30.598   8.268  13.050
67574W        W39999  37.163   8.881   0.574
67575W        W40000   1.244  36.630  11.972
67576W        W40001  31.738  18.897   5.134
67577W        W40002  42.438  40.423   0.929
67578W        W40003  21.268  27.574   0.387
67579W        W40004  27.272  27.597  12.687
67580W        W40005  15.205  23.252   3.384
67581W        W40006   5.497   3.979   1.873
67582W        W40007  19.179  44.702   2.350
67583W        W40008  19.073  32.285  11.450
67584W        W40009  30.529  26.124  12.663
67585W        W40010  44.905  44.033  14.890
67586W        W40011  42.969  44.687  14.645
67587W        W40012   6.781  26.563   0.421
67588W        W40013   9.870  19.996  11.080
67589W        W40014   8.428  32.043   0.364
67590W        W40015  24.520  26.224  13.022
67591W        W40016   2.647   4.106   0.663
67592W        W40017  19.360  34.031   4.912
67593W        W40018  31.029  14.107   0.285
67594W        W40019   8.776   4.705   4.606
67595W        W40020  38.565  23.441  13.321
67596W        W40021  24.935   7.929   4.200
67597W        W40022   2.796  36.654   2.315
67598W        W40023   3.724   5.984   0.966
67599W        W40024  26.252  23.554  10.699
67600W        W40025  18.746  37.899   4.861
67601W        W40026   9.842   7.090  13.557
67602W        W40027  38.754  37.074   2.284
67603W        W40028  20.015  39.672   1.246
67604W        W40029   9.141   2.679  13.292
67605W        W40030  38.063  20.993  10.179
67606W        W40031  16.280  33.151  10.663
67607W        W40032  35.748  29.641   3.832
67608W        W40033  35.551   8.021   0.276
67609W        W40034  27.592   9.703  14.900
67610W        W40035  12.080  18.744   1.009
67611W        W40036  21.221  30.684   2.350
67612W        W40037  20.562  34.909  11.477
67613W        W40038  39.859  44.988   2.318
67614W        W40039  30.906  29.497   2.359
67615W        W40040  29.607  29.465   4.574
67616W        W40041  35.830   3.386  10.778
67617W        W40042  30.365   5.713   0.358
67618W        W40043  22.062  32.669  13.486
67619W        W40044   6.905  11.203  10.679
67620W        W40045  41.870  30.417  10.724
67621W        W40046  24.817  35.133   5.181
67622W        W40047   2.994  19.043  12.398
67623W        W40048  22.078   8.288   3.797
67624W        W40049  11.687   9.467   3.280
67625W        W40050  39.087  35.104   1.315
67626W        W40051  43.725  41.069  14.070
67627W        W40052  15.504  30.666   3.706
67628W        W40053   5.766   7.677   4.687
67629W        W40054   2.430  18.965   2.306
67630W        W40055   2.108  16.703   0.783
67631W        W40056  14.385  26.646  11.627
67632W        W40057  22.749  19.983  12.802
67633W        W40058  25.942  44.431   3.937
67634W        W40059  10.323  18.742  10.585
67635W        W40060  28.137  16.302   4.882
67636W        W40061  39.071  24.176   4.297
67637W        W40062  35.543  18.283   1.840
67638W        W40063  27.920  18.747   5.058
67639W        W40064  23.796  16.647   3.887
67640W        W40065   7.736   1.464  12.081
67641W        W40066   2.414  32.589   3.132
67642W        W40067  32.823  33.451  14.926
67643W        W40068  30.885   4.500   0.865
67644W        W40069  32.222  29.035   4.667
67645W        W40070  18.706   4.502   1.439
67646W        W40071   2.075  13.828   4.170
67647W        W40072  44.815  36.825  13.404
67648W        W40073   4.669  43.225  13.454
67649W        W40074  15.289  42.446  12.443
67650W        W40075  16.189  25.450   2.718
67651W        W40076   2.947  33.655  14.949
67652W        W40077  17.476  15.811  12.976
67653W        W40078  18.257  37.867   3.776
67654W        W40079   6.242  12.555  10.450
67655W        W40080  31.158  43.560  14.990
67656W        W40081  31.920   9.806  13.830
67657W        W40082  12.661   6.448   3.757
67658W        W40083  36.100  43.102   2.910
67659W        W40084   0.580  18.080  11.661
67660W        W40085  25.013   9.791  10.663
67661W        W40086  34.579  20.684  14.353
67662W        W40087  27.635  31.796   0.770
67663W        W40088  24.213  30.674  13.870
67664W        W40089  31.970   9.285  10.751
67665W        W40090  18.108  36.308  13.544
67666W        W40091   9.945  43.021  12.038
67667W        W40092  18.802  11.207  13.116
67668W        W40093  12.821  25.692   1.497
67669W        W40094  38.648   0.913   2.239
67670W        W40095  34.587  20.911  11.201
67671W        W40096  39.081  37.067  10.583
67672W        W40097  37.963   5.356   1.216
67673W        W40098  20.974  11.076   4.639
67674W        W40099  21.113   2.459   3.888
67675W        W40100   3.872   4.419  12.905
67676W        W40101  10.754   2.600  12.845
67677W        W40102   2.945  21.721  13.512
67678W        W40103  40.122  36.807   3.356
67679W        W40104  40.310  17.027   0.406
67680W        W40105  38.797  31.639   0.363
67681W        W40106   4.654   3.678  12.713
67682W        W40107   4.367  38.533  13.028
67683W        W40108  29.484  39.400  12.724
67684W        W40109   7.452  27.884   0.443
67685W        W40110   4.199   6.846   1.692
67686W        W40111   1.883  21.071  10.159
67687W        W40112   9.930   9.265   2.269
67688W        W40113  18.135  33.344  12.100
67689W        W40114  33.141   8.262  13.101
67690W        W40115  19.064  27.609  11.035
67691W        W40116  42.970   2.259  14.280
67692W        W40117  22.111  21.000  12.583
67693W        W40118  29.150  41.145  12.227
67694W        W40119  40.522  28.513   2.620
67695W        W40120   7.696  14.331  12.449
67696W        W40121  18.521  25.662  13.400
67697W        W40122  34.120  29.202   2.253
67698W        W40123  39.785  14.816   0.427
67699W        W40124   8.692  38.439   2.830
67700W        W40125  11.350  43.871  11.966
67701W        W40126  21.278  23.791  13.965
67702W        W40127  44.813  33.551   9.698
67703W        W40128  12.603   2.663   1.962
67704W        W40129  39.142  44.630   5.514
67705W        W40130  33.815   2.774   2.308
67706W        W40131   5.765  25.134   1.360
67707W        W40132  26.063  26.246   1.435
67708W        W40133   3.561  22.446  14.337
67709W        W40134  14.917  39.610  14.748
67710W        W40135  33.205  11.042   3.316
67711W        W40136  26.210  20.151   1.479
67712W        W40137  11.564   3.894   1.452
67713W        W40138  39.236  15.587   0.699
67714W        W40139  16.584  33.041   0.863
67715W        W40140  31.023   9.805  13.455
67716W        W40141   0.367  32.002   2.247
67717W        W40142  35.626  19.128  13.815
67718W        W40143  28.510  16.661  13.391
67719W        W40144  20.369   2.915  11.498
67720W        W40145  15.312  12.385   0.897
67721W        W40146  27.717   2.950   0.933
67722W        W40147  37.793  42.827   3.048
67723W        W40148   3.308  35.799  13.026
67724W        W40149   2.718   2.474  12.492
67725W        W40150  32.510  38.294   1.685
67726W        W40151  30.519  39.789  13.836
67727W        W40152  18.497   9.770   1.788
67728W        W40153  21.054  33.414  10.907
67729W        W40154  18.480  33.449  14.771
67730W        W40155  24.561  35.980  14.983
67731W        W40156  34.776  12.563  11.583
67732W        W40157   4.061  15.801  13.492
67733W        W40158   1.321   4.713   3.632
67734W        W40159  32.935  11.093  14.799
67735W        W40160  12.270  32.013  13.516
67736W        W40161  33.103  32.835  11.091
67737W        W40162  37.974  26.144  12.469
67738W        W40163   4.968  15.840   3.183
67739W        W40164  36.177  22.176  14.239
67740W        W40165  40.438  34.512  14.865
67741W        W40166  28.144  24.782  13.881
67742W        W40167  29.272   9.451  12.443
67743W        W40168   9.073  39.928   3.710
67744W        W40169  39.067   0.687  11.489
67745W        W40170  26.588  11.508  12.132
67746W        W40171  10.478  22.616  10.516
67747W        W40172  23.156  28.493   4.302
67748W        W40173  17.596  34.506   1.401
67749W        W40174  28.395  38.274   0.310
67750W        W40175  37.855  22.653   5.669
67751W        W40176  25.463   3.880   2.152
67752W        W40177  16.023  31.929  12.052
67753W        W40178  41.485  13.129  12.882
67754W        W40179  19.080  43.280  12.179
67755W        W40180  15.206  44.316  11.014
67756W        W40181  13.658  17.114  12.613
67757W        W40182  42.198  35.560  12.153
67758W        W40183  41.056  32.002   4.315
67759W        W40184  29.557  31.829   2.343
67760W        W40185  23.491  11.109   3.590
67761W        W40186   2.180  42.298   0.242
67762W        W40187  15.341  10.289   1.207
67763W        W40188   0.199  16.588  12.633
67764W        W40189  16.238  38.110   4.195
67765W        W40190  41.946  21.444   2.608
67766W        W40191  39.954   2.662   2.824
67767W        W40192  19.512  17.273   0.851
67768W        W40193  29.850  31.355  10.118
67769W        W40194  16.900  44.959   2.806
67770W        W40195  42.904   3.223   1.413
67771W        W40196  29.644  39.927   3.840
67772W        W40197  35.523  17.767  10.351
67773W        W40198   0.261  36.292   1.512
67774W        W40199  42.868  14.212  10.670
67775W        W40200  28.030  23.333   4.834
67776W        W40201   4.917  12.808  10.026
67777W        W40202  20.002  10.950   3.393
67778W        W40203   2.142  24.262   1.339
67779W        W40204  18.157  43.758  10.565
67780W        W40205   3.545  11.902   2.750
67781W        W40206  23.619  27.515  11.338
67782W        W40207   0.331  14.915  11.039
67783W        W40208  32.575   7.201  10.948
67784W        W40209  12.028  20.539   2.075
67785W        W40210  20.379  38.501  12.862
67786W        W40211  13.792  44.453   0.446
67787W        W40212  18.549  40.347   1.365
67788W        W40213  20.296   9.264   4.319
67789W        W40214   8.677   8.864  12.465
67790W        W40215   4.799   0.331  14.682
67791W        W40216  21.248  17.011   0.087
67792W        W40217  19.052  25.813  13.355
67793W        W40218  31.108  30.632  13.443
67794W        W40219  11.736   6.357   3.546
67795W        W40220  41.420  23.958   5.178
67796W        W40221  32.133   5.335   1.332
67797W        W40222   3.006  41.879   3.195
67798W        W40223  11.915  23.222   1.784
67799W        W40224  37.905   1.465   1.768
67800W        W40225  26.133  39.216   1.772
67801W        W40226  19.044  39.400   4.675
67802W        W40227  16.693  14.420   3.653
67803W        W40228  13.269  30.037  13.449
67804W        W40229  26.577  18.844   0.983
67805W        W40230  32.673  23.609   0.265
67806W        W40231  35.960  19.480  14.100
67807W        W40232  25.606   9.702  12.390
67808W        W40233  43.912   3.752   1.697
67809W        W40234  15.525  38.971   2.812
67810W        W40235   4.527  18.139  10.146
67811W        W40236  20.227  16.175   2.925
67812W        W40237  44.807  18.715   0.724
67813W        W40238  37.613  44.448   0.476
67814W        W40239  10.689  26.224  12.075
67815W        W40240  39.347  11.862  13.416
67816W        W40241   2.250  16.060   2.887
67817W        W40242  18.505  26.102   2.781
67818W        W40243  32.538  35.335  12.016
67819W        W40244  44.259  13.105   4.219
67820W        W40245  41.695  39.386  13.511
67821W        W40246  17.156  26.708   3.825
67822W        W40247  33.964  42.202   3.662
67823W        W40248  27.238  16.201  13.863
67824W        W40249  16.611  38.833   1.177
67825W        W40250  19.729  12.618   1.880
67826W        W40251  17.484  35.804  11.160
67827W        W40252  17.198  44.988   1.448
67828W        W40253  16.059   7.472  14.951
67829W        W40254   7.561  43.081  12.424
67830W        W40255  36.954  22.710  13.272
67831W        W40256   2.255  25.131  13.523
67832W        W40257  12.279  30.356   2.513
67833W        W40258  39.152  35.976   3.789
67834W        W40259   1.045   0.747  11.588
67835W        W40260  17.724  43.872   3.271
67836W        W40261  25.040  20.067   3.278
67837W        W40262  30.034  33.883  12.402
67838W        W40263  25.145  27.415  12.066
67839W        W40264  32.808  16.043   2.383
67840W        W40265  10.209   7.831   4.107
67841W        W40266  32.088  32.334  13.785
67842W        W40267  38.840  10.416   1.903
67843W        W40268  12.845  19.074   3.840
67844W        W40269  19.600  15.149  11.088
67845W        W40270   9.559  43.042  12.401
67846W        W40271  37.291  21.605  13.147
67847W        W40272  17.176   4.081  12.558
67848W        W40273  31.900   1.935  13.339
67849W        W40274  44.878  44.497   0.092
67850W        W40275   1.027  37.840  14.096
67851W        W40276  25.191   7.384  11.486
67852W        W40277  36.583  29.436  13.939
67853W        W40278  12.772  32.080   4.128
67854W        W40279  39.182  18.504  10.347
67855W        W40280  40.582  27.957  10.643
67856W        W40281   7.028  30.031  13.153
67857W        W40282  42.918  13.799  13.081
67858W        W40283  38.439   6.464  13.716
67859W        W40284  26.981  39.344  10.439
67860W        W40285  10.861  10.801   4.615
67861W        W40286  42.875  18.763  10.624
67862W        W40287  38.905  10.177  12.904
67863W        W40288  24.733  26.475   0.450
67864W        W40289  43.103  17.060  11.926
67865W        W40290  30.424   3.669  14.053
67866W        W40291  41.200   6.299  13.531
67867W        W40292   0.403  11.321   2.527
67868W        W40293  30.663  29.870  12.528
67869W        W40294  36.370  36.429   0.978
67870W        W40295  21.098   6.332  14.577
67871W        W40296  33.969  38.354   3.998
67872W        W40297   2.797  17.795   0.268
67873W        W40298  36.565  12.657   3.848
67874W        W40299  38.666  17.168   0.701
67875W        W40300  14.787  19.220   2.850
67876W        W40301  40.272  19.054   0.334
67877W        W40302  42.708  43.779   3.205
67878W        W40303  29.642  12.090   0.855
67879W        W40304  42.994  27.511  14.995
67880W        W40305  44.116  15.669  11.499
67881W        W40306  28.608  31.321   2.368
67882W        W40307   0.194   2.976   2.496
67883W        W40308   7.589  23.533   4.164
67884W        W40309  43.164  22.155  12.145
67885W        W40310  14.896  37.152  14.837
67886W        W40311  21.610  25.484   0.485
67887W        W40312   4.704  26.925   0.334
67888W        W40313  25.228   8.649   3.597
67889W        W40314  16.850  19.483  12.415
67890W        W40315  10.918  21.527  13.528
67891W        W40316  30.583  22.723  11.026
67892W        W40317  16.344  12.596  11.450
67893W        W40318  32.082  25.946  14.303
67894W        W40319  24.460  16.355   2.260
67895W        W40320  18.870  26.885  14.003
67896W        W40321  20.955  16.577  11.967
67897W        W40322  16.101  32.057   1.843
67898W        W40323   0.427  30.016   3.289
67899W        W40324  17.116  36.889  13.048
67900W        W40325  24.095   0.922  11.491
67901W        W40326   7.503  31.395  14.114
67902W        W40327  14.186  32.671  11.657
67903W        W40328  31.823  42.940   3.650
67904W        W40329   6.207  19.549  13.215
67905W        W40330  42.829  16.678   1.662
67906W        W40331  16.165   8.176  13.436
67907W        W40332  41.927  31.339  14.895
67908W        W40333  14.769   7.230   2.696
67909W        W40334  35.607  34.021   4.190
67910W        W40335  31.165  39.877  12.623
67911W        W40336  19.848  18.695  13.002
67912W        W40337   0.402  37.742  11.069
67913W        W40338  12.437  21.026  12.506
67914W        W40339  13.284  19.738   0.186
67915W        W40340   3.234  23.078   1.295
67916W        W40341  37.294   4.704   0.333
67917W        W40342  10.346  25.654  11.668
67918W        W40343  26.565  17.644  10.850
67919W        W40344  19.601   3.014  11.149
67920W        W40345  29.062  37.875   1.171
67921W        W40346  11.571  29.654   0.460
67922W        W40347  13.104  33.083   4.646
67923W        W40348  28.186  16.857  14.775
67924W        W40349  28.107  37.432   0.728
67925W        W40350  40.139  19.718   2.127
67926W        W40351  33.362  39.987  14.253
67927W        W40352  44.723  28.035  10.963
67928W        W40353  29.854  18.296   1.383
67929W        W40354  11.278  22.074  13.349
67930W        W40355  25.243  43.800   0.492
67931W        W40356  42.894  36.595   1.250
67932W        W40357  44.941  22.680   4.658
67933W        W40358  12.232   4.126  12.558
67934W        W40359  12.671  16.054  10.668
67935W        W40360  27.608  24.310  11.536
67936W        W40361  15.709   8.439  13.592
67937W        W40362  40.334   4.896  14.521
67938W        W40363   7.218  30.870   4.044
67939W        W40364  37.246  42.345  13.771
67940W        W40365  37.937   8.915  11.036
67941W        W40366  39.860  40.874   0.841
67942W        W40367   2.521  11.776  12.348
67943W        W40368  14.177   2.833   2.843
67944W        W40369  42.274  29.419   0.801
67945W        W40370  43.978  41.294   2.188
67946W        W40371  38.768   3.367   0.357
67947W        W40372  18.749  28.962  11.614
67948W        W40373  31.627  23.810   0.472
67949W        W40374   5.782  10.825  11.094
67950W        W40375  11.848  43.275   4.140
67951W        W40376  12.252   9.770  10.819
67952W        W40377  14.942  20.890  11.070
67953W        W40378  27.279  43.071  14.062
67954W        W40379  17.744  11.251   3.630
67955W        W40380  31.528  40.025  14.602
67956W        W40381  23.652  41.408  13.845
67957W        W40382  19.236  22.655  13.872
67958W        W40383   8.107   9.614  11.114
67959W        W40384   6.243  25.928  12.069
67960W        W40385  27.620  41.814   1.345
67961W        W40386  10.701   7.472  13.063
67962W        W40387  43.852  14.580  14.894
67963W        W40388  11.406  33.875  14.286
67964W        W40389  10.399  40.026  11.677
67965W        W40390  18.182  18.582   4.205
67966W        W40391  28.233  21.494   0.315
67967W        W40392   9.357  37.591  12.993
67968W        W40393  25.482  44.987  13.827
67969W        W40394  13.240  27.181   2.697
67970W        W40395   1.798  35.571  14.792
67971W        W40396  33.759  13.213   0.487
67972W        W40397  37.923  19.274  14.527
67973W        W40398   5.352  42.220  14.903
67974W        W40399  30.679  10.392   0.432
67975W        W40400  43.789  37.053   0.298
67976W        W40401  42.876   6.687   3.086
67977W        W40402  25.030  12.406  13.518
67978W        W40403  36.725  29.630   1.716
67979W        W40404  24.642  44.546  14.899
67980W        W40405  15.812  34.585  10.311
67981W        W40406  14.597  24.075   5.215
67982W        W40407  43.447   1.869  11.097
67983W        W40408  18.717  40.594  13.567
67984W        W40409  20.349  16.586   3.248
67985W        W40410  40.969   2.257   0.309
67986W        W40411  38.486  35.260  10.733
67987W        W40412  19.178  26.634  11.484
67988W        W40413  24.886   9.290  10.198
67989W        W40414   5.771   7.023  12.842
67990W        W40415  17.023   7.867   0.890
67991W        W40416  28.275  41.916   0.239
67992W        W40417   4.813  10.616  13.724
67993W        W40418  16.657  37.730  12.942
67994W        W40419  13.181  23.927   2.807
67995W        W40420  12.703  35.391  12.970
67996W        W40421  33.998  31.875   4.539
67997W        W40422  34.475  15.339   1.930
67998W        W40423  40.748  42.097  11.223
67999W        W40424  25.671  17.847  11.402
68000W        W40425  37.445   2.764   4.133
68001W        W40426  36.158  42.021   0.856
68002W        W40427   7.784  25.411   2.354
68003W        W40428  25.221  43.544   4.869
68004W        W40429  32.092  44.123  12.356
68005W        W40430   5.870  31.557   3.328
68006W        W40431  37.977  21.632   3.108
68007W        W40432  27.561  12.181   1.171
68008W        W40433  19.522  14.136   4.130
68009W        W40434   3.781  39.160   3.149
68010W        W40435  19.151  19.073   0.015
68011W        W40436  11.136  21.539  14.445
68012W        W40437  36.231  25.003  14.428
68013W        W40438   8.116  32.486   0.429
68014W        W40439  28.176  20.995   1.452
68015W        W40440   5.425  23.675  12.806
68016W        W40441  22.306  39.824   2.857
68017W        W40442  38.559  19.295   2.160
68018W        W40443  10.450  38.928  14.732
68019W        W40444   3.909  10.854   3.067
68020W        W40445  17.755  43.450  12.083
68021W        W40446  38.481  26.148  13.627
68022W        W40447  33.001  14.632  11.203
68023W        W40448   7.654  43.324   2.757
68024W        W40449  26.233  25.465  10.695
68025W        W40450  17.217   0.255  10.154
68026W        W40451   3.457  37.927  12.231
68027W        W40452   9.340  25.052   2.840
68028W        W40453  36.526  41.579   1.407
68029W        W40454   4.675  24.174  13.260
68030W        W40455   6.928   1.275   4.335
68031W        W40456  21.174  18.280  14.855
68032W        W40457  19.255  19.760   1.759
68033W        W40458  25.925  36.036   0.363
68034W        W40459   2.548  34.672  12.920
68035W        W40460  22.826  44.917  10.225
68036W        W40461  42.443  28.452  10.635
68037W        W40462  23.780  16.888  14.776
68038W        W40463  18.571   3.972   1.436
68039W        W40464   8.777  38.092   1.523
68040W        W40465  20.763   6.355  12.467
68041W        W40466  10.602  13.693   3.074
68042W        W40467   2.308  23.000   4.817
68043W        W40468  38.476  14.944  14.215
68044W        W40469  44.457  27.784  10.162
68045W        W40470  35.320  33.364  11.180
68046W        W40471  40.115  30.349   1.858
68047W        W40472  39.308  28.977  11.951
68048W        W40473   1.937  42.524   1.017
68049W        W40474   5.712  15.254   1.770
68050W        W40475   3.968   0.656   2.280
68051W        W40476  29.461  28.469  11.956
68052W        W40477  14.568   0.756  10.395
68053W        W40478  26.871  38.956   1.044
68054W        W40479  43.040  16.101  11.036
68055W        W40480  34.798  15.610   1.206
68056W        W40481   6.874  32.324  13.595
68057W        W40482  25.973  34.334  10.839
68058W        W40483  31.356  40.698   2.040
68059W        W40484  32.674   2.369   3.223
68060W        W40485  39.247   9.465  13.890
68061W        W40486  21.948   7.177   0.885
68062W        W40487  21.237  11.820   2.743
68063W        W40488  32.532  26.983   0.659
68064W        W40489  42.081  28.963  14.963
68065W        W40490  27.048  17.945  13.449
68066W        W40491  39.591  32.643   0.208
68067W        W40492  31.147  42.082  12.978
68068W        W40493   3.716  20.539  11.187
68069W        W40494   9.301   5.665   1.944
68070W        W40495  43.293  36.924  14.171
68071W        W40496  42.498  27.905   1.139
68072W        W40497   5.202   9.040   3.689
68073W        W40498  42.270  14.582  12.052
68074W        W40499   2.232   0.680   3.202
68075W        W40500  41.237  20.037   1.456
68076W        W40501  31.080  22.435   2.148
68077W        W40502   6.946  25.762  11.161
68078W        W40503  28.840  23.017   4.943
68079W        W40504  35.613   1.354  14.878
68080W        W40505   7.223  42.039   4.175
68081W        W40506  36.556   7.881   2.864
68082W        W40507  44.864  41.278   3.657
68083W        W40508  18.640  27.054   2.819
68084W        W40509  34.872  14.806   4.015
68085W        W40510   9.483  33.488   2.744
68086W        W40511  35.113  20.619   1.953
68087W        W40512  39.844   0.701  11.130
68088W        W40513  35.553  21.243  11.944
68089W        W40514  13.839  10.393  11.415
68090W        W40515  13.105   3.845   3.894
68091W        W40516  35.748  15.995  14.985
68092W        W40517  40.596  31.777   0.845
68093W        W40518  18.006   3.946   0.013
68094W        W40519  17.204   6.164   0.839
68095W        W40520  19.313  39.565  12.383
68096W        W40521   8.205  33.210  13.619
68097W        W40522  16.781  17.954  14.397
68098W        W40523   1.825  30.017  13.134
68099W        W40524  20.826  13.620   1.658
68100W        W40525  30.588  22.055   3.262
68101W        W40526  28.154   3.159   4.979
68102W        W40527  16.725  36.027  13.367
68103W        W40528  24.483   9.247  11.517
68104W        W40529   9.304  44.510  10.588
68105W        W40530  34.094  19.147  12.963
68106W        W40531  23.552  26.768   3.725
68107W        W40532  12.982  19.846   4.194
68108W        W40533   8.270  21.536  10.884
68109W        W40534  18.561   3.959   3.159
68110W        W40535  20.429  26.606  10.246
68111W        W40536   7.651  10.607  13.335
68112W        W40537  17.719  41.909  14.905
68113W        W40538  35.386  20.920   1.443
68114W        W40539  35.651  22.957   9.772
68115W        W40540  31.693  29.058   4.587
68116W        W40541  41.842  40.978  11.878
68117W        W40542  17.262   3.172  11.993
68118W        W40543   7.245  31.678   4.666
68119W        W40544  32.685  43.841   0.802
68120W        W40545  37.423  21.038   0.080
68121W        W40546  30.271   9.230  13.503
68122W        W40547   0.984  25.198  14.773
68123W        W40548  35.083  11.631  10.588
68124W        W40549   0.509  42.060   1.287
68125W        W40550   4.425   4.493  10.533
68126W        W40551  40.519   6.954   3.607
68127W        W40552  28.610  27.028   3.238
68128W        W40553  44.494   4.154   0.476
68129W        W40554  16.528   0.291   2.303
68130W        W40555  16.352  16.032   3.209
68131W        W40556  21.818  23.632   0.642
68132W        W40557  18.232  28.961   2.336
68133W        W40558  43.590   3.408  10.998
68134W        W40559  11.833  32.442  14.955
68135W        W40560  10.563  38.318  13.068
68136W        W40561  30.129  23.307  13.964
68137W        W40562  35.006   3.698   2.694
68138W        W40563  13.370  41.903   0.260
68139W        W40564  29.944  29.870  12.951
68140W        W40565  12.088   8.767  11.109
68141W        W40566  27.092  27.472   3.902
68142W        W40567   1.364   7.708  13.456
68143W        W40568  30.474   3.181  10.466
68144W        W40569  27.996  18.283  10.580
68145W        W40570  15.594  29.495   0.929
68146W        W40571  32.474  35.753  12.867
68147W        W40572  16.883  43.206   2.324
68148W        W40573  34.291  15.439   2.419
68149W        W40574  26.435  23.468   0.972
68150W        W40575  27.312  32.183   0.910
68151W        W40576  12.317  17.776   2.808
68152W        W40577   8.410  38.564   4.601
68153W        W40578  40.571  26.865   1.925
68154W        W40579  24.221   4.803  12.144
68155W        W40580  15.479   5.592  14.983
68156W        W40581  38.131   8.858   2.818
68157W        W40582  21.225  24.413  14.899
68158W        W40583  23.479  28.508  12.679
68159W        W40584  36.534  28.417   4.428
68160W        W40585  10.287  32.154   4.717
68161W        W40586   5.740  10.127   2.683
68162W        W40587  12.694   8.617   0.699
68163W        W40588  22.834  27.982   0.741
68164W        W40589  18.747  14.814  11.427
68165W        W40590  34.095  20.732  10.449
68166W        W40591  28.929  41.470  11.867
68167W        W40592  21.656   3.457  13.417
68168W        W40593  17.129  29.180   1.375
68169W        W40594  10.215   2.205   1.454
68170W        W40595  37.119  41.763   2.603
68171W        W40596   3.383  44.376  12.450
68172W        W40597  37.090  28.499   2.680
68173W        W40598  33.083  17.142   2.304
68174W        W40599   7.918  31.972   0.384
68175W        W40600  23.816  40.797  11.196
68176W        W40601  11.211  24.997  11.903
68177W        W40602   5.039  30.850  13.299
68178W        W40603  32.177  17.837  10.746
68179W        W40604  41.972  16.524  12.409
68180W        W40605  35.345   7.884   3.128
68181W        W40606  35.349   1.872   4.076
68182W        W40607  33.927   4.175  14.804
68183W        W40608  34.333  30.081  12.977
68184W        W40609  10.766  26.734  12.960
68185W        W40610  13.178   0.122   3.627
68186W        W40611   1.620  21.738   2.373
68187W        W40612  18.753  23.987   3.036
68188W        W40613  28.118   7.969  11.529
68189W        W40614  15.479  41.060   4.386
68190W        W40615  16.571   3.406  13.101
68191W        W40616  16.312   5.841  11.837
68192W        W40617  26.134  26.984   4.016
68193W        W40618   8.495  14.566   1.542
68194W        W40619  20.775  22.108  10.427
68195W        W40620   2.094   0.963  10.651
68196W        W40621  14.282  12.169   4.257
68197W        W40622  11.731  30.547   0.848
68198W        W40623   9.667  12.895  10.737
68199W        W40624  28.059  18.811  14.710
68200W        W40625  18.826  30.156   1.980
68201W        W40626   1.454  41.780   0.095
68202W        W40627  42.446   6.272  14.908
68203W        W40628  29.742   6.166  12.623
68204W        W40629  38.419  42.826  11.483
68205W        W40630   7.436   1.759   3.644
68206W        W40631  19.524  14.153   3.288
68207W        W40632   4.979  34.396   3.817
68208W        W40633  18.471  14.245   4.096
68209W        W40634  25.721  39.375   3.855
68210W        W40635  16.306  16.011   3.746
68211W        W40636   0.757  10.149   0.300
68212W        W40637  40.761  16.090  14.940
68213W        W40638   4.168  30.991  13.364
68214W        W40639  12.148  23.747   1.893
68215W        W40640   4.590   1.122  14.886
68216W        W40641  44.567   8.423  10.549
68217W        W40642  36.458  13.674  13.051
68218W        W40643  32.426  41.454  12.094
68219W        W40644  18.702  42.140  11.084
68220W        W40645  42.674   4.441   2.853
68221W        W40646  19.435  17.834  14.322
68222W        W40647   0.352   3.731  12.891
68223W        W40648   1.394  21.980  14.004
68224W        W40649   2.825  17.901  14.366
68225W        W40650  37.907  42.567  11.079
68226W        W40651   6.824  37.956  14.782
68227W        W40652   8.985   9.891  14.341
68228W        W40653  15.797  11.640   1.328
68229W        W40654  30.958  44.201   9.892
68230W        W40655  12.795   0.027  13.851
68231W        W40656  39.848   3.326  14.248
68232W        W40657  44.942  10.055  11.045
68233W        W40658  13.320  41.030  11.678
68234W        W40659  13.203  40.529  11.663
68235W        W40660   9.204  40.221   0.421
68236W        W40661  29.639  43.404   4.190
68237W        W40662  36.456  32.033  14.776
68238W        W40663   5.803  27.088  13.404
68239W        W40664   2.995   7.681   0.017
68240W        W40665   4.144  27.316  11.162
68241W        W40666  40.538  11.680   1.352
68242W        W40667   8.640  38.870  12.211
68243W        W40668  24.132  14.628  14.562
68244W        W40669   7.200  18.647   2.631
68245W        W40670  18.508  30.023  13.576
68246W        W40671  15.727  17.265   3.701
68247W        W40672  41.736   1.803   3.695
68248W        W40673  41.968  22.695  14.496
68249W        W40674  36.004  44.794  13.408
68250W        W40675  15.792   8.776   2.684
68251W        W40676  42.449  30.166  14.450
68252W        W40677  11.587  24.480   2.904
68253W        W40678  36.622  35.067   1.395
68254W        W40679   3.534  30.388  12.675
68255W        W40680  29.714  29.038   3.288
68256W        W40681  44.397   9.766  13.542
68257W        W40682  33.642  27.196  14.167
68258W        W40683   3.445   4.874  10.643
68259W        W40684  13.348  12.793   0.963
68260W        W40685  27.362  40.282   2.721
68261W        W40686  14.195  22.246   9.724
68262W        W40687  21.176  39.756  13.464
68263W        W40688  39.576  18.254   3.625
68264W        W40689   2.284   0.256  11.883
68265W        W40690   9.960  33.557  11.750
68266W        W40691  23.328  38.544  13.950
68267W        W40692  36.230  30.709   3.675
68268W        W40693  26.794  14.867  11.183
68269W        W40694  44.750  39.875   0.460
68270W        W40695  41.539  26.568   2.314
68271W        W40696   8.236  16.555   3.257
68272W        W40697  11.939  37.860  14.190
68273W        W40698   6.163  14.593   2.908
68274W        W40699  15.219  14.028   3.842
68275W        W40700  38.543  21.488  12.465
68276W        W40701  19.617  19.033  14.757
68277W        W40702  32.428  21.349  11.503
68278W        W40703   5.922   0.910  10.837
68279W        W40704  19.085  44.906   4.638
68280W        W40705  34.499  43.913   4.592
68281W        W40706  15.662  19.105  10.663
68282W        W40707  12.152  17.624   4.210
68283W        W40708   3.739   4.440  14.102
68284W        W40709  37.470   5.167   0.446
68285W        W40710   1.490   5.442  14.869
68286W        W40711   3.099  18.719   5.058
68287W        W40712  34.536  16.498   4.145
68288W        W40713   0.260  27.696   3.776
68289W        W40714  23.067  28.068  10.260
68290W        W40715  15.327  33.460  14.215
68291W        W40716  11.430  22.386  11.115
68292W        W40717  36.801  28.582   0.843
68293W        W40718   3.955  19.551   3.414
68294W        W40719   6.534   7.256  12.025
68295W        W40720  30.801   4.560  13.853
68296W        W40721   8.061  22.068  11.501
68297W        W40722  12.267  11.708  11.552
68298W        W40723   7.802  28.662  14.379
68299W        W40724  17.050  16.800  11.869
68300W        W40725  18.824  25.924   4.923
68301W        W40726  34.021  14.644   1.683
68302W        W40727  38.587  24.157  14.906
68303W        W40728  23.131   2.642   2.388
68304W        W40729   2.377   9.635   1.820
68305W        W40730   4.433   2.755  14.410
68306W        W40731   5.827  44.799  13.284
68307W        W40732  19.589  20.710   1.739
68308W        W40733  35.242  40.877   0.755
68309W        W40734  17.596  14.276   1.989
68310W        W40735   1.447  12.924  10.524
68311W        W40736  35.004  11.574  14.314
68312W        W40737  21.768  10.482  10.316
68313W        W40738  43.886  33.049   2.965
68314W        W40739  44.045  35.596   0.740
68315W        W40740  25.391  37.430  13.378
68316W        W40741  32.442  22.663   3.342
68317W        W40742  13.650  34.543   0.399
68318W        W40743   1.491  39.486   1.236
68319W        W40744   5.940  20.187   0.873
68320W        W40745  21.722  34.470   1.742
68321W        W40746   3.114  20.114   1.410
68322W        W40747  28.280  20.314  12.092
68323W        W40748  36.194   4.178   0.062
68324W        W40749  31.428  13.807   0.159
68325W        W40750   9.124   2.827   0.771
68326W        W40751  19.118  18.107   3.212
68327W        W40752   5.119  31.069  12.155
68328W        W40753   5.650  17.979   4.667
68329W        W40754  39.859   7.240  14.969
68330W        W40755  26.659  16.335  10.477
68331W        W40756   2.856  12.825   3.361
68332W        W40757  21.753  41.006   3.197
68333W        W40758   4.591  39.837  14.491
68334W        W40759   7.953  26.659  11.845
68335W        W40760   1.724  11.161  10.637
68336W        W40761  19.334  11.904  11.961
68337W        W40762  34.175   1.159  11.904
68338W        W40763  21.274   9.190  14.135
68339W        W40764  41.573  32.403   0.824
68340W        W40765  20.236  40.524  12.173
68341W        W40766   0.138  33.580   1.748
68342W        W40767  41.592  16.285  13.597
68343W        W40768  20.308   3.366  14.778
68344W        W40769  35.835  25.493   5.005
68345W        W40770  32.623  32.959  12.211
68346W        W40771  34.019   4.971   0.428
68347W        W40772  40.141  27.990   1.311
68348W        W40773   0.801  10.076  11.427
68349W        W40774  15.045  16.453   0.819
68350W        W40775  17.584   7.214  13.705
68351W        W40776  20.596   5.717  11.433
68352W        W40777  14.755  10.145   1.066
68353W        W40778  35.501  10.646  11.119
68354W        W40779  36.126  12.185   4.117
68355W        W40780  11.349  36.394  12.673
68356W        W40781   9.125  19.166  14.514
68357W        W40782   2.687  10.831   2.717
68358W        W40783  10.323  31.394  13.987
68359W        W40784  10.005  13.835  12.501
68360W        W40785   5.727   9.024   1.396
68361W        W40786   9.817  17.150  13.903
68362W        W40787  40.263   9.871  10.791
68363W        W40788  16.645  38.435  11.083
68364W        W40789  35.505  28.139   2.104
68365W        W40790  35.149   5.720   0.037
68366W        W40791  10.251  11.431   2.663
68367W        W40792  43.313  21.802  10.911
68368W        W40793  16.712  28.995  12.007
68369W        W40794  15.583  44.432   1.688
68370W        W40795  29.049  15.567  12.094
68371W        W40796  20.903  33.163  11.682
68372W        W40797  11.408   9.073   4.871
68373W        W40798   2.264  19.003  14.762
68374W        W40799  25.468  26.602   3.636
68375W        W40800  35.464  27.777  12.890
68376W        W40801  29.073  40.903   0.250
68377W        W40802  43.877  15.497   0.825
68378W        W40803  41.181  18.506  14.004
68379W        W40804  39.579  19.673   0.772
68380W        W40805  17.637  37.449   1.643
68381W        W40806  43.542  42.246  13.691
68382W        W40807   4.313  31.165  10.631
68383W        W40808  29.073  36.854  12.456
68384W        W40809  38.180   7.203   3.254
68385W        W40810   7.405   5.975  12.067
68386W        W40811  14.133   3.411   0.910
68387W        W40812  34.488  41.024   3.198
68388W        W40813  42.901  21.591   3.237
68389W        W40814   4.950  32.092   2.655
68390W        W40815  12.123   1.461   4.801
68391W        W40816  10.182   9.300  12.920
68392W        W40817   2.138  14.450  12.885
68393W        W40818   3.975  19.116   0.901
68394W        W40819  42.400  44.156   3.405
68395W        W40820   5.865  35.095   0.433
68396W        W40821  31.156  34.284  10.857
68397W        W40822  24.442  42.827  10.930
68398W        W40823  32.587  21.152   4.629
68399W        W40824   6.413   1.261  14.361
68400W        W40825  12.628  19.105   1.785
68401W        W40826  37.652  37.050   3.189
68402W        W40827  17.282   1.511   1.856
68403W        W40828  43.992  19.537   0.816
68404W        W40829  31.338  43.279   2.300
68405W        W40830  32.499  22.529   1.199
68406W        W40831  13.049  11.139   3.698
68407W        W40832  23.533  22.426   3.088
68408W        W40833  39.757  36.974   0.899
68409W        W40834   3.292  42.971   4.167
68410W        W40835  41.044   8.644  12.867
68411W        W40836  17.515  38.408   3.724
68412W        W40837  30.989  24.365  14.135
68413W        W40838   8.328  15.437   1.253
68414W        W40839  40.504   2.635  13.871
68415W        W40840  24.953  43.450  14.397
68416W        W40841  30.105  33.445   1.398
68417W        W40842   1.589  12.818   0.063
68418W        W40843  18.909   1.530  10.085
68419W        W40844  14.818  36.425   0.437
68420W        W40845  36.356   3.956   3.244
68421W        W40846   3.268  26.099   4.186
68422W        W40847   8.331   9.397   1.179
68423W        W40848  17.857  29.150  12.927
68424W        W40849  16.906  32.589   5.289
68425W        W40850   3.942  17.539   1.828
68426W        W40851  10.610  29.400   0.111
68427W        W40852  14.899  13.053   4.282
68428W        W40853  29.162  10.604   1.592
68429W        W40854  10.170  36.451   4.677
68430W        W40855  23.593  27.596  12.361
68431W        W40856  44.927  37.631   1.258
68432W        W40857  37.455  10.286  10.890
68433W        W40858  26.228  12.273   2.391
68434W        W40859  12.061  42.314   2.641
68435W        W40860  38.300  11.729  11.887
68436W        W40861   1.101   3.837   3.145
68437W        W40862  25.650  18.546   1.980
68438W        W40863  23.785  44.840   0.741
68439W        W40864  14.889   6.869   2.303
68440W        W40865  15.908  15.212  11.532
68441W        W40866   5.414  36.810  14.339
68442W        W40867  16.017   1.735  10.712
68443W        W40868  26.133  10.612   0.946
68444W        W40869   6.316  25.492  13.332
68445W        W40870  43.872  19.493  11.568
68446W        W40871  25.754  30.417  11.325
68447W        W40872  28.128  17.268   4.627
68448W        W40873  37.597   4.949  12.566
68449W        W40874  32.659  12.618   3.356
68450W        W40875  14.340  42.921  11.888
68451W        W40876  43.301   4.471   0.823
68452W        W40877  11.401  36.998   0.278
68453W        W40878  30.706  33.752   2.141
68454W        W40879   2.289   5.876   4.632
68455W        W40880  14.241  16.187   3.715
68456W        W40881  40.263  43.979   0.241
68457W        W40882   6.970  40.346   4.085
68458W        W40883  15.203   0.486  14.271
68459W        W40884  17.220  11.763  12.885
68460W        W40885  27.877  43.407   4.627
68461W        W40886  36.580  12.387   0.722
68462W        W40887  39.734   3.997   1.699
68463W        W40888  31.873  41.057   3.697
68464W        W40889  33.070  26.414   4.588
68465W        W40890  35.389  27.664  12.003
68466W        W40891  26.637   8.849   4.618
68467W        W40892  29.036   0.764  14.242
68468W        W40893   9.671  35.381   4.210
68469W        W40894  16.256  29.061   3.320
68470W        W40895  18.771  13.575  13.476
68471W        W40896  36.432  40.061   4.142
68472W        W40897  30.185   4.177   4.989
68473W        W40898  16.498  18.711   2.791
68474W        W40899  33.870  14.707  10.652
68475W        W40900  23.274  11.907  11.536
68476W        W40901  42.516  10.779   4.432
68477W        W40902  17.056  22.682  13.272
68478W        W40903  13.755   5.054  12.073
68479W        W40904  36.336  37.393  11.592
68480W        W40905   9.725  22.112  14.512
68481W        W40906  12.329  24.748   2.413
68482W        W40907  13.632  10.571   2.306
68483W        W40908  31.086   7.215  11.698
68484W        W40909  23.607  21.634   0.533
68485W        W40910  33.776  19.082  11.541
68486W        W40911  17.539  15.965   3.256
68487W        W40912  27.487  31.125  13.575
68488W        W40913  21.066  26.661  14.388
68489W        W40914  20.102  41.577  10.271
68490W        W40915  27.069  21.152   0.982
68491W        W40916  19.714   6.232  13.100
68492W        W40917   1.453   0.903  14.720
68493W        W40918  29.637  16.760  14.930
68494W        W40919  25.445  27.136  14.383
68495W        W40920   9.631  38.175   5.153
68496W        W40921   5.458  43.260  13.931
68497W        W40922  37.751  43.743   4.159
68498W        W40923  19.188  13.646   4.024
68499W        W40924  29.427  40.948   1.011
68500W        W40925  41.411  10.260  10.867
68501W        W40926   2.355  22.107   4.695
68502W        W40927   1.429  32.446   1.911
68503W        W40928   8.841  12.233   1.306
68504W        W40929  20.014   7.438   1.828
68505W        W40930  26.337  10.494   1.405
68506W        W40931  18.288   9.434   2.176
68507W        W40932  40.830  35.637   0.019
68508W        W40933  10.820  33.963   0.409
68509W        W40934  35.368  12.376   4.580
68510W        W40935  31.614   7.851   1.034
68511W        W40936   4.484  18.084  14.942
68512W        W40937   4.087  26.733  14.498
68513W        W40938  35.261  44.476   2.420
68514W        W40939   8.378  39.525   0.584
68515W        W40940  22.693  39.262  14.760
68516W        W40941  22.398  15.363   1.451
68517W        W40942  15.978  37.688  11.135
68518W        W40943  15.549   4.993  12.478
68519W        W40944  21.489   4.198  11.194
68520W        W40945   6.615  32.000  14.040
68521W        W40946  14.761  33.110  11.129
68522W        W40947  42.630  20.993  12.882
68523W        W40948   8.181  31.457  13.214
68524W        W40949  36.568  25.992  14.339
68525W        W40950   2.025  39.694  13.524
68526W        W40951  29.162   8.811  14.235
68527W        W40952   2.728  12.495   2.206
68528W        W40953  29.381  36.819   2.232
68529W        W40954   6.647  20.046   3.235
68530W        W40955  30.054  39.050   2.632
68531W        W40956  30.685  14.542  13.930
68532W        W40957  39.770  18.590   2.304
68533W        W40958  20.108  35.568  14.026
68534W        W40959  23.666  40.419   1.300
68535W        W40960  42.855   9.982   1.772
68536W        W40961  12.223  42.323  11.580
68537W        W40962  10.733  27.462   2.353
68538W        W40963  21.241  30.110  11.873
68539W        W40964  17.567  10.906  12.041
68540W        W40965  41.299  36.507  11.828
68541W        W40966  11.361  36.837  12.402
68542W        W40967  43.608  24.887   0.896
68543W        W40968   0.672  16.838  11.016
68544W        W40969   2.699  14.411  14.334
68545W        W40970  17.180  26.056  11.669
68546W        W40971  27.032  39.118  12.929
68547W        W40972  25.699  29.535  12.509
68548W        W40973  44.784  44.896   4.201
68549W        W40974  29.637   8.259   0.385
68550W        W40975  41.527  18.490  11.187
68551W        W40976  39.855  19.326   4.039
68552W        W40977   1.730  16.537  11.989
68553W        W40978   4.796  40.515   2.803
68554W        W40979  39.275  26.172  13.502
68555W        W40980  26.006  10.608   3.254
68556W        W40981  30.047   5.822   4.559
68557W        W40982  35.290  25.198   4.611
68558W        W40983  42.743  38.766   0.007
68559W        W40984   1.261  32.959  14.771
68560W        W40985   2.965  43.246  14.989
68561W        W40986  35.811  32.787   2.386
68562W        W40987  29.989  30.365   5.234
68563W        W40988  36.994  12.694   2.028
68564W        W40989   5.360  30.524   4.591
68565W        W40990  20.954   9.786  11.054
68566W        W40991  33.466  20.305  11.008
68567W        W40992  18.028  17.315  13.398
68568W        W40993  44.331  15.250  13.319
68569W        W40994   0.458  12.151   1.808
68570W        W40995  42.038  25.099  10.012
68571W        W40996  35.145  31.430  14.681
68572W        W40997  20.297  29.425  13.461
68573W        W40998  22.491  20.709   3.583
68574W        W40999  24.663  44.955   4.116
68575W        W41000  38.417  44.573   5.009
68576W        W41001  38.421  38.099   4.914
68577W        W41002   3.728  41.371  14.310
68578W        W41003  21.340  19.827  13.584
68579W        W41004  42.375  10.176   2.774
68580W        W41005  18.019   8.882  13.389
68581W        W41006  22.332  23.747  12.567
68582W        W41007  23.984  23.186   3.156
68583W        W41008   6.268  21.828  13.914
68584W        W41009  19.795  31.531  10.247
68585W        W41010  36.813  40.402  12.994
68586W        W41011   1.528  34.950  12.483
68587W        W41012  16.075  19.767  10.610
68588W        W41013  44.433  23.944   2.244
68589W        W41014   6.885   8.724  13.149
68590W        W41015  27.278  39.928   0.779
68591W        W41016  10.642  25.740   4.208
68592W        W41017  20.036  32.061   2.924
68593W        W41018  20.501   6.196   2.402
68594W        W41019  36.359   3.963  11.942
68595W        W41020   1.346  35.600   0.813
68596W        W41021  28.562   8.870  12.603
68597W        W41022   0.990  15.712   4.790
68598W        W41023   5.710   9.818   3.109
68599W        W41024  37.866  14.361  10.975
68600W        W41025   1.651   1.233  10.613
68601W        W41026  39.130  30.207   2.991
68602W        W41027  33.645  42.109   4.170
68603W        W41028   9.410  35.527  11.595
68604W        W41029   9.560   9.250   0.790
68605W        W41030  38.381  22.973   2.863
68606W        W41031  12.622  31.885  14.512
68607W        W41032   5.847  32.589   2.754
68608W        W41033  33.341   1.892  13.340
68609W        W41034   3.184  23.943  13.256
68610W        W41035  30.470  29.062  12.623
68611W        W41036  13.756  20.848   1.786
68612W        W41037  43.964  36.131  11.984
68613W        W41038  15.378  28.086  11.467
68614W        W41039   0.402   2.489   3.666
68615W        W41040  17.469   6.297  13.777
68616W        W41041  32.425  25.673   4.828
68617W        W41042  11.398   0.311  11.566
68618W        W41043  30.019  36.573  12.876
68619W        W41044  20.702  34.176   4.541
68620W        W41045  38.595  14.883   4.644
68621W        W41046   6.177  26.855   2.172
68622W        W41047  13.824  41.039  13.866
68623W        W41048  11.481  34.466   2.349
68624W        W41049  17.000  27.501   2.440
68625W        W41050  28.495  10.099   1.658
68626W        W41051  27.566  32.869   1.496
68627W        W41052  13.015  17.998  12.508
68628W        W41053  22.255  44.306  11.123
68629W        W41054  30.994  33.386  13.493
68630W        W41055   8.587   2.264   4.850
68631W        W41056  28.652  26.158   4.623
68632W        W41057  22.605  29.134  10.982
68633W        W41058  37.651   9.312   4.327
68634W        W41059  26.827  39.991  13.345
68635W        W41060  35.780   7.020   1.214
68636W        W41061  42.311  35.135  14.882
68637W        W41062  11.753  11.161   4.095
68638W        W41063   6.128  37.809  14.047
68639W        W41064  15.390  39.395  10.691
68640W        W41065  18.727   8.182  11.648
68641W        W41066   0.701  39.893   0.777
68642W        W41067   6.638  10.707   2.168
68643W        W41068  15.364  11.275   3.201
68644W        W41069  44.747  30.416   2.179
68645W        W41070  22.223   3.925  11.482
68646W        W41071  12.726   1.815   3.216
68647W        W41072   8.181  25.499  10.715
68648W        W41073   8.275  23.101  12.928
68649W        W41074  34.609  13.765  12.662
68650W        W41075  20.055  13.684  11.380
68651W        W41076   7.228  18.267   0.381
68652W        W41077  25.130  10.074  11.074
68653W        W41078  44.518   7.339   4.096
68654W        W41079   5.297   3.475  11.219
68655W        W41080   5.044   3.892   3.260
68656W        W41081   9.861  36.208  14.731
68657W        W41082   8.354   1.356   1.016
68658W        W41083  29.702  33.962   0.943
68659W        W41084  17.676  17.535   0.750
68660W        W41085  37.252  26.455   0.372
68661W        W41086  27.143  28.378  11.596
68662W        W41087  29.137  23.029   2.859
68663W        W41088   1.399  33.885  12.010
68664W        W41089  21.357  16.977   3.318
68665W        W41090  15.713  42.632  10.524
68666W        W41091   2.156  29.533   2.287
68667W        W41092  15.125  41.092  11.205
68668W        W41093  37.423  44.101  10.498
68669W        W41094  22.691   4.671  14.334
68670W        W41095  23.132  25.658   4.847
68671W        W41096  33.000  14.516   4.095
68672W        W41097  25.531  36.829  10.694
68673W        W41098   8.291  11.647   0.732
68674W        W41099  38.909  13.480   4.602
68675W        W41100  36.061  28.072  13.382
68676W        W41101  25.181  28.038  12.954
68677W        W41102  21.141  16.233  13.725
68678W        W41103   6.599  27.691  11.560
68679W        W41104  33.880  32.526  11.909
68680W        W41105  20.300  25.273   0.882
68681W        W41106  41.441  17.717  13.488
68682W        W41107   2.381  11.283  13.836
68683W        W41108  28.172  20.654  14.924
68684W        W41109  23.708  30.981  10.581
68685W        W41110  38.008  31.497  13.329
68686W        W41111  26.403  43.061   0.306
68687W        W41112  20.653  10.266   4.990
68688W        W41113  26.617   0.866   0.819
68689W        W41114  28.562  30.076   4.073
68690W        W41115  44.357  12.897   2.411
68691W        W41116  21.584   0.479  11.517
68692W        W41117  28.928  23.103  14.960
68693W        W41118  38.440  32.529   4.900
68694W        W41119  11.191   9.345   3.929
68695W        W41120  40.784   3.744  12.824
68696W        W41121  41.354  34.464  12.484
68697W        W41122  11.121   6.243   3.393
68698W        W41123  26.764  28.491   2.141
68699W        W41124  21.971  44.858  13.960
68700W        W41125   9.821  39.343  13.517
68701W        W41126  39.322  32.834   3.409
68702W        W41127  27.685  42.549   4.164
68703W        W41128  28.709  26.220  11.351
68704W        W41129  16.126   6.384   3.109
68705W        W41130  40.909  12.256   2.175
68706W        W41131  19.772  16.220  11.556
68707W        W41132  17.594   4.953   1.206
68708W        W41133  44.523   8.270   2.208
68709W        W41134   9.238  24.504  12.517
68710W        W41135  43.014  30.576   0.210
68711W        W41136   4.874  37.537  13.823
68712W        W41137  26.689   4.513   2.803
68713W        W41138  16.119  34.820  12.474
68714W        W41139  42.992  36.791   3.699
68715W        W41140   7.312  40.406  11.803
68716W        W41141  43.694  29.898  14.832
68717W        W41142   8.148  25.461   2.753
68718W        W41143  17.686  28.444  13.944
68719W        W41144  31.898  27.765  14.782
68720W        W41145  44.957  16.197  11.183
68721W        W41146  24.239  15.863  14.676
68722W        W41147  40.905  33.520   4.355
68723W        W41148  25.255  15.733   2.279
68724W        W41149  28.211  34.946  14.477
68725W        W41150   4.281   3.237  13.942
68726W        W41151  21.718  42.298  12.382
68727W        W41152  28.206  18.641   1.730
68728W        W41153   0.350  17.205  11.195
68729W        W41154  15.525  43.018   3.931
68730W        W41155  22.415   7.969   3.560
68731W        W41156  25.373   0.138   9.987
68732W        W41157   5.387  38.039  10.379
68733W        W41158  35.473  20.511  14.974
68734W        W41159  17.780  43.971   3.770
68735W        W41160  41.563  19.644   4.127
68736W        W41161   7.265  44.612  12.902
68737W        W41162  24.215  27.830   1.158
68738W        W41163  21.339   7.200  12.671
68739W        W41164   8.147  14.067  12.442
68740W        W41165  19.647   9.910  14.334
68741W        W41166  20.619  38.668  14.507
68742W        W41167   6.378  17.361   3.650
68743W        W41168  15.497  26.933   2.188
68744W        W41169  14.323   9.663  13.258
68745W        W41170  35.327  20.552  12.428
68746W        W41171  12.382  17.158   4.196
68747W        W41172  12.348  29.666   0.266
68748W        W41173   1.173  43.829   0.942
68749W        W41174   3.840  43.570  11.426
68750W        W41175  30.626   8.297   5.016
68751W        W41176  28.151   1.211  13.009
68752W        W41177  23.576  33.086   1.331
68753W        W41178  16.251   9.072  13.049
68754W        W41179  29.988  33.951  10.600
68755W        W41180  25.020  39.735   3.757
68756W        W41181  17.512  38.402  12.973
68757W        W41182  15.945  38.713   2.169
68758W        W41183  35.320  40.280   1.824
68759W        W41184   3.867  31.987  13.316
68760W        W41185  36.189  27.151  11.844
68761W        W41186  24.183  16.762   4.224
68762W        W41187  14.593   1.401  13.468
68763W        W41188  20.585  25.351   4.903
68764W        W41189  35.063  39.839   3.948
68765W        W41190  42.622  22.533  11.515
68766W        W41191  40.309  23.119  14.048
68767W        W41192  16.388  15.395  12.598
68768W        W41193  36.542   1.544  13.442
68769W        W41194  38.488  30.609  13.997
68770W        W41195  11.928   7.474  11.719
68771W        W41196  29.003  31.811  11.927
68772W        W41197  32.908  13.015  13.892
68773W        W41198  10.087   2.784  12.468
68774W        W41199   2.224  43.820   0.753
68775W        W41200  32.439  36.394   3.184
68776W        W41201  38.331   8.281  13.641
68777W        W41202  18.065  38.926  11.455
68778W        W41203   5.159  12.326  10.156
68779W        W41204  39.913   3.223   2.851
68780W        W41205  23.810   7.011   5.211
68781W        W41206  30.456   1.292   2.834
68782W        W41207  14.503   5.299   2.743
68783W        W41208  35.717  42.253   0.712
68784W        W41209  14.647  43.489  11.082
68785W        W41210  26.585  39.456  14.896
68786W        W41211  39.831   1.778   3.791
68787W        W41212   4.198  25.961   0.544
68788W        W41213  23.668  42.301   0.465
68789W        W41214   3.938  14.174   0.646
68790W        W41215  42.326  37.928  13.889
68791W        W41216   5.293  33.625  14.418
68792W        W41217   4.931   7.301   3.214
68793W        W41218  17.409  32.485   5.230
68794W        W41219  28.127  17.991   3.076
68795W        W41220   0.434  21.262   3.723
68796W        W41221  11.751  25.212  14.681
68797W        W41222  35.360  18.243  11.586
68798W        W41223  20.370  40.891   3.645
68799W        W41224  15.384   2.136  12.230
68800W        W41225  44.891  23.638   2.877
68801W        W41226   4.405  43.311   4.374
68802W        W41227  15.316   6.251   1.287
68803W        W41228  44.873  32.599  11.914
68804W        W41229  30.973   1.911   0.738
68805W        W41230  12.165   9.415  13.524
68806W        W41231   3.662  16.626  13.508
68807W        W41232   8.901   0.440   0.218
68808W        W41233   6.719  30.789   4.726
68809W        W41234  42.610  41.885  12.237
68810W        W41235   3.144  13.827   2.072
68811W        W41236  29.555  18.341  14.999
68812W        W41237  30.045  31.048   1.920
68813W        W41238  25.401   0.924   4.587
68814W        W41239  28.570   5.199   0.259
68815W        W41240  43.608  33.572   1.893
68816W        W41241  39.357  20.125   0.713
68817W        W41242   8.097  19.615   2.314
68818W        W41243  29.368  39.072   0.801
68819W        W41244  31.235  15.670  10.116
68820W        W41245  36.350  20.156   0.771
68821W        W41246   2.194  43.839  14.613
68822W        W41247  13.136  40.094  10.730
68823W        W41248  15.688  42.526  11.467
68824W        W41249  35.397  11.697  12.429
68825W        W41250  42.939  20.519   0.837
68826W        W41251   3.513  32.026   0.713
68827W        W41252   6.801   0.533   3.418
68828W        W41253  14.728  23.954   2.431
68829W        W41254  30.687  28.135   2.267
68830W        W41255   6.635   4.769  14.513
68831W        W41256  19.985  16.520  12.371
68832W        W41257   9.361   2.929   1.231
68833W        W41258  42.422  28.671   2.812
68834W        W41259  24.292  10.861   3.725
68835W        W41260   3.438  19.126  11.104
68836W        W41261   2.378  27.100  11.437
68837W        W41262   4.277  34.007   0.186
68838W        W41263  39.791  16.028   3.230
68839W        W41264   5.398  27.657   1.304
68840W        W41265  41.519  19.141   3.299
68841W        W41266  40.098  18.118  11.760
68842W        W41267  21.125   4.896   2.740
68843W        W41268  17.986   9.185   1.243
68844W        W41269  33.461   0.015  12.868
68845W        W41270  20.408  14.270  14.282
68846W        W41271  14.284  35.967  10.761
68847W        W41272  23.435  41.838  13.064
68848W        W41273  16.072  10.886   3.969
68849W        W41274  44.524  32.113  14.251
68850W        W41275   8.247  31.382  11.176
68851W        W41276  27.179  28.863  10.949
68852W        W41277  31.466   3.641  11.913
68853W        W41278  27.096  33.087   1.659
68854W        W41279  17.179  23.626   0.294
68855W        W41280  39.835  18.783   0.460
68856W        W41281  10.121  16.597  12.941
68857W        W41282  27.112  25.879   4.710
68858W        W41283  38.387  38.851   3.773
68859W        W41284  38.409  15.215  13.747
68860W        W41285  31.203  23.226   0.392
68861W        W41286  34.490  13.729  13.528
68862W        W41287  24.757  35.570   2.642
68863W        W41288  27.080   5.770  14.243
68864W        W41289  40.003   0.844  13.981
68865W        W41290  44.835  23.602  11.719
68866W        W41291  42.922  17.046   3.588
68867W        W41292  23.283   8.270  13.051
68868W        W41293  12.670  40.887  14.980
68869W        W41294   2.435   0.715  12.089
68870W        W41295  43.371  37.072  13.699
68871W        W41296  29.383  38.975   3.861
68872W        W41297  20.335   2.694   2.842
68873W        W41298  37.757  31.931  11.618
68874W        W41299  27.020  23.929   0.434
68875W        W41300   8.434   6.755  14.387
68876W        W41301  12.549   2.886  13.492
68877W        W41302  40.020  36.409   2.310
68878W        W41303   0.914  30.409   5.075
68879W        W41304  20.263  37.400  14.357
68880W        W41305   7.246  25.566  10.721
68881W        W41306   6.878  36.963   2.846
68882W        W41307  13.230  14.233   3.883
68883W        W41308  29.680  19.961   0.882
68884W        W41309  21.190  22.404  14.790
68885W        W41310   3.319  13.673   4.781
68886W        W41311   0.947  34.637  14.301
68887W        W41312  10.081  43.933   4.600
68888W        W41313   0.766  36.093   1.984
68889W        W41314   3.188  39.906   3.256
68890W        W41315  32.318  39.940   3.955
68891W        W41316  42.494   6.615   0.811
68892W        W41317  10.775  28.013  11.140
68893W        W41318   8.986  22.999  12.501
68894W        W41319  42.787  26.270   0.446
68895W        W41320  17.198  33.689   1.480
68896W        W41321  43.224  32.932  12.658
68897W        W41322  31.179  26.270  10.454
68898W        W41323  26.440  23.523   3.263
68899W        W41324  36.823   9.365   1.791
68900W        W41325  10.300  32.461  11.369
68901W        W41326   3.296  12.860   3.071
68902W        W41327  29.008  20.646   4.181
68903W        W41328   3.687  39.022   3.800
68904W        W41329  21.273  21.649   1.775
68905W        W41330   5.947  38.949   3.299
68906W        W41331  32.018  19.505   4.125
68907W        W41332   8.733  16.811  11.185
68908W        W41333   2.055  13.172   4.585
68909W        W41334  34.391  39.331   4.071
68910W        W41335  38.443  24.143   3.581
68911W        W41336  44.626  41.626  14.870
68912W        W41337  15.373  34.538   3.173
68913W        W41338  30.258  22.135  12.521
68914W        W41339  17.347  27.069   2.422
68915W        W41340  28.977   6.604  12.632
68916W        W41341   9.731  28.116  14.327
68917W        W41342   6.814  36.068  13.869
68918W        W41343   8.634  34.090  13.967
68919W        W41344  11.592   7.570  12.567
68920W        W41345   1.682  40.894   4.900
68921W        W41346  16.903   6.468   4.178
68922W        W41347  25.651   9.235  14.365
68923W        W41348  24.041   4.033  12.823
68924W        W41349   2.382  23.058  14.301
68925W        W41350  14.553  38.313  12.932
68926W        W41351  12.224  25.260   0.718
68927W        W41352  18.717  26.006  11.978
68928W        W41353   3.994  10.221   1.750
68929W        W41354   6.618  11.205  13.069
68930W        W41355  33.422   3.901  14.312
68931W        W41356  34.653  38.917  11.569
68932W        W41357  31.209  28.056   3.647
68933W        W41358   0.361   7.966   1.983
68934W        W41359  37.588  35.825   4.904
68935W        W41360   5.825  23.253   2.837
68936W        W41361  27.123   0.330  13.158
68937W        W41362   3.773  22.986   1.334
68938W        W41363  18.640  27.714  13.373
68939W        W41364   6.733  25.299   4.953
68940W        W41365  22.336  39.635  11.565
68941W        W41366  39.925  10.376  10.753
68942W        W41367  33.895  18.058  10.678
68943W        W41368  27.066  20.110  10.721
68944W        W41369  44.226  42.508   1.899
68945W        W41370  32.080   6.621   3.252
68946W        W41371  38.377  19.295   4.199
68947W        W41372   3.263   1.005   4.131
68948W        W41373  30.782   1.413  11.336
68949W        W41374  20.724  31.200   5.673
68950W        W41375  26.610  12.773  12.148
68951W        W41376  40.198  29.647  11.021
68952W        W41377   6.343  28.063   3.070
68953W        W41378  25.039  19.962   4.285
68954W        W41379  37.481   8.607   2.662
68955W        W41380  38.282  34.535  12.422
68956W        W41381  20.678  41.119  13.852
68957W        W41382  11.686  19.617   2.051
68958W        W41383   9.823   2.726   1.632
68959W        W41384  26.104  29.687   0.906
68960W        W41385  19.348  14.656   1.634
68961W        W41386  29.224  11.355   3.141
68962W        W41387  29.223  44.640   0.816
68963W        W41388   1.165  33.127   3.669
68964W        W41389  43.700  44.056   3.335
68965W        W41390  43.318   6.728  11.267
68966W        W41391  10.966   1.096  13.950
68967W        W41392  18.779   4.874   3.364
68968W        W41393   8.352  17.086  12.476
68969W        W41394  24.649  17.482   4.232
68970W        W41395   2.768  12.063   4.241
68971W        W41396  10.490  15.164   3.742
68972W        W41397  32.577  17.788   3.071
68973W        W41398  41.602   7.262  12.013
68974W        W41399  35.435  40.758   1.979
68975W        W41400  40.538   7.464   4.415
68976W        W41401  39.505  11.791  12.494
68977W        W41402  19.085  19.055  12.860
68978W        W41403  33.860  44.991  14.873
68979W        W41404  33.328   6.085   2.457
68980W        W41405  34.131  32.180  13.184
68981W        W41406  27.607  19.625   2.387
68982W        W41407  13.113  44.360  12.419
68983W        W41408  11.801  35.177  12.506
68984W        W41409  25.765   3.759  14.195
68985W        W41410  17.066   4.511  10.076
68986W        W41411  31.594   5.764  11.167
68987W        W41412  20.505  24.805  11.458
68988W        W41413  14.776  33.910  10.451
68989W        W41414   9.686  42.867   1.176
68990W        W41415  13.777  43.316  12.903
68991W        W41416  36.097  26.963   1.139
68992W        W41417  15.195  35.513  13.146
68993W        W41418   6.457   4.171   1.359
68994W        W41419  32.027   3.914  11.906
68995W        W41420  27.007  16.228   0.097
68996W        W41421  32.554  19.422  12.412
68997W        W41422  39.396  25.734   3.158
68998W        W41423  32.169   9.362  13.943
68999W        W41424   3.817  14.809   4.214
69000W        W41425  20.222  14.011  10.990
69001W        W41426  38.831  27.479  13.491
69002W        W41427  23.554  17.818  10.714
69003W        W41428  40.458  41.140  13.982
69004W        W41429  24.988  34.663   0.323
69005W        W41430   8.955  34.932  11.969
69006W        W41431  39.792  14.067  12.337
69007W        W41432   0.343   1.006  10.958
69008W        W41433  20.261  38.570  11.473
69009W        W41434  42.939   8.917   2.793
69010W        W41435  40.050  20.710   1.773
69011W        W41436   4.204  36.481  12.362
69012W        W41437  37.341  15.807   1.032
69013W        W41438  25.482   9.827  10.440
69014W        W41439  15.046  31.071   0.650
69015W        W41440  32.139   0.845  14.135
69016W        W41441   3.749   8.330   0.842
69017W        W41442   2.934  25.377   3.197
69018W        W41443  12.123  24.768   5.338
69019W        W41444  37.473  30.404   4.520
69020W        W41445  38.424   0.993   4.228
69021W        W41446  11.524  34.642  11.182
69022W        W41447  20.322  43.412   3.793
69023W        W41448  33.623   6.921  14.551
69024W        W41449  20.913  20.074  11.392
69025W        W41450  20.892  28.100   1.166
69026W        W41451  28.931  19.030  14.926
69027W        W41452  22.030  30.592  11.732
69028W        W41453  11.387  34.314   3.156
69029W        W41454   3.438  11.393  12.094
69030W        W41455  17.541  17.780   4.550
69031W        W41456  21.167  13.053  14.250
69032W        W41457   2.707   1.838   1.682
69033W        W41458  20.758  34.636   1.683
69034W        W41459  34.395  10.849  11.420
69035W        W41460   0.973   5.715  11.539
69036W        W41461  20.073  33.404   4.689
69037W        W41462  12.380  41.992   2.891
69038W        W41463  11.445  41.853  11.590
69039W        W41464  34.117  11.181  11.089
69040W        W41465   2.811   9.634  13.514
69041W        W41466  33.149  35.892   3.771
69042W        W41467   4.371  28.836   2.719
69043W        W41468   4.651  20.154  14.482
69044W        W41469  37.100   5.647  13.654
69045W        W41470  13.088   0.468  12.933
69046W        W41471  29.947  42.048   1.376
69047W        W41472   4.259  44.032  13.667
69048W        W41473  12.560  14.866  12.182
69049W        W41474  35.872  30.362   3.285
69050W        W41475  27.787  44.479   4.127
69051W        W41476  21.074  20.687   0.800
69052W        W41477  33.788  26.383  11.183
69053W        W41478  11.315  24.631  13.071
69054W        W41479  37.052   8.653  11.679
69055W        W41480  37.692  36.539  11.038
69056W        W41481  20.320  21.773  11.105
69057W        W41482  21.501   5.208  13.090
69058W        W41483   3.198   1.471   4.558
69059W        W41484  28.652  22.223  10.948
69060W        W41485   8.125  33.387   0.813
69061W        W41486  28.635  19.573  12.037
69062W        W41487  29.404  29.979  10.506
69063W        W41488  31.987  27.292   1.499
69064W        W41489  20.141  41.450  10.768
69065W        W41490   5.313  32.824  14.079
69066W        W41491  37.548  40.430   2.808
69067W        W41492  16.336  23.033   4.130
69068W        W41493  34.215  44.932   3.364
69069W        W41494  33.981  39.077   4.527
69070W        W41495  20.983  28.547   0.621
69071W        W41496  21.641  12.587  12.931
69072W        W41497  14.721  40.521   2.269
69073W        W41498  23.164  22.920   1.808
69074W        W41499  40.330  37.997  12.662
69075W        W41500  13.103  12.963   4.038
69076W        W41501  13.363  27.647   0.882
69077W        W41502  25.672  22.148  14.909
69078W        W41503  34.545  21.482   1.897
69079W        W41504  32.083   7.306   4.899
69080W        W41505  22.234  14.842  14.761
69081W        W41506  34.908  24.142  12.044
69082W        W41507  20.967  37.579  11.715
69083W        W41508   1.361  23.982  12.871
69084W        W41509  24.215  10.053  14.898
69085W        W41510  19.944  44.011   1.953
69086W        W41511  41.148  43.296   5.473
69087W        W41512  14.368  44.201  14.395
69088W        W41513  23.329   6.612   2.157
69089W        W41514   4.014  23.669  14.463
69090W        W41515   4.547  20.247  13.922
69091W        W41516   1.408  26.763  13.320
69092W        W41517  43.947   3.223  13.886
69093W        W41518  23.583   4.540   1.306
69094W        W41519   2.462   0.500  14.143
69095W        W41520  19.779  31.035   2.810
69096W        W41521   9.563  26.136  11.652
69097W        W41522  16.184  25.832  13.057
69098W        W41523   5.249  37.022  11.270
69099W        W41524  27.410  32.303  13.239
69100W        W41525  21.502  14.653   2.366
69101W        W41526  21.227  42.993   3.641
69102W        W41527  17.447   1.748   0.332
69103W        W41528  32.341  17.979   4.174
69104W        W41529   3.152  15.733   9.984
69105W        W41530  31.845  27.278  14.567
69106W        W41531  19.300  20.275   2.672
69107W        W41532  11.861  25.632   3.737
69108W        W41533   4.177  40.297  12.327
69109W        W41534  31.334  32.966   0.855
69110W        W41535  19.746   0.385  12.003
69111W        W41536  22.934  37.539  11.119
69112W        W41537  32.970  38.149   2.918
69113W        W41538  29.962  21.323  14.869
69114W        W41539  39.377  10.383  14.040
69115W        W41540   6.133   9.360  13.996
69116W        W41541   1.545  42.242   0.356
69117W        W41542  26.047  20.819   0.104
69118W        W41543  32.623  39.392  14.442
69119W        W41544   7.028  44.920  14.438
69120W        W41545  15.474   2.781  14.333
69121W        W41546  39.426   1.271  10.467
69122W        W41547   9.409  35.885  14.044
69123W        W41548  33.187  26.949   2.689
69124W        W41549   8.131  44.904   2.737
69125W        W41550   3.599  26.723   4.898
69126W        W41551  12.121  23.314   3.179
69127W        W41552  31.592  17.157   1.367
69128W        W41553  43.436  37.466  10.132
69129W        W41554  26.537   4.458   0.319
69130W        W41555  32.489  27.514  12.935
69131W        W41556  34.762  12.826  11.135
69132W        W41557   8.397  44.366  11.032
69133W        W41558  39.923  16.584   2.306
69134W        W41559  19.189  26.555   4.399
69135W        W41560  24.437  24.699  11.153
69136W        W41561   5.739  17.086   3.298
69137W        W41562  43.048   3.593   2.688
69138W        W41563  27.537  37.795   0.629
69139W        W41564  25.873  43.456  13.109
69140W        W41565  31.817  24.514   2.772
69141W        W41566   5.485  15.660  13.531
69142W        W41567  37.398  33.738   0.798
69143W        W41568  27.184   9.259   2.756
69144W        W41569  12.796   0.489  11.394
69145W        W41570  37.162  17.248  14.471
69146W        W41571   2.990  31.778  11.578
69147W        W41572  28.467  25.405   3.473
69148W        W41573   0.681  28.575  11.705
69149W        W41574  25.504  22.960   3.137
69150W        W41575  15.625   0.184  14.340
69151W        W41576  26.961   8.426  13.899
69152W        W41577  28.085  13.365   1.046
69153W        W41578  37.756  11.284  12.428
69154W        W41579  30.031   5.226   1.736
69155W        W41580  36.311  24.640  13.286
69156W        W41581  19.559  32.000   5.235
69157W        W41582  18.257  23.990   3.727
69158W        W41583  16.397  12.685   0.161
69159W        W41584  28.980   0.726  12.354
69160W        W41585  30.392  11.801   1.348
69161W        W41586  39.898  22.619   4.675
69162W        W41587  44.461   4.706   0.462
69163W        W41588  38.337  14.000  11.181
69164W        W41589  23.425  13.027  14.948
69165W        W41590   1.674   2.899  10.920
69166W        W41591  19.297  28.266   4.584
69167W        W41592  21.723  32.968   3.338
69168W        W41593  22.455  26.065  12.638
69169W        W41594  33.630  13.234   2.216
69170W        W41595  20.173  10.269   0.001
69171W        W41596  12.706  16.228   2.862
69172W        W41597  32.862  41.021   3.768
69173W        W41598  35.563  44.203  14.204
69174W        W41599   9.797  32.544   3.836
69175W        W41600  40.814  10.435  12.335
69176W        W41601  14.093  19.139   4.659
69177W        W41602  28.616  26.562  13.300
69178W        W41603  24.251   6.254   2.312
69179W        W41604  15.725  37.334  10.247
69180W        W41605   6.965   5.750   1.358
69181W        W41606   8.223  15.158  13.612
69182W        W41607  25.424  27.076   4.563
69183W        W41608   3.264  10.245   4.026
69184W        W41609  21.050   8.200  14.724
69185W        W41610  10.350  33.909   1.629
69186W        W41611  26.085  37.240   0.948
69187W        W41612  36.710  41.464   4.806
69188W        W41613   3.946  24.555   2.837
69189W        W41614  25.617  42.977   3.697
69190W        W41615   5.667   3.825  12.661
69191W        W41616  10.748  17.434   2.242
69192W        W41617  39.025   3.960  10.222
69193W        W41618  36.668  22.109   4.654
69194W        W41619  37.552  10.665  11.618
69195W        W41620   6.957  10.807  14.341
69196W        W41621  38.334  19.026   0.697
69197W        W41622   4.747  35.877   1.389
69198W        W41623  30.511  18.565   1.639
69199W        W41624   5.876  39.072   3.793
69200W        W41625  38.983   2.442  14.996
69201W        W41626  32.819   7.808   1.290
69202W        W41627   7.682  32.573  12.754
69203W        W41628  13.143  42.300  11.100
69204W        W41629   7.203   6.961  14.777
69205W        W41630  25.228  28.861   0.732
69206W        W41631   9.283  11.595   3.356
69207W        W41632  35.106  17.820   5.051
69208W        W41633  20.069  34.558   2.906
69209W        W41634   4.023   7.264  13.839
69210W        W41635  20.110  28.002   3.625
69211W        W41636  15.189   2.381  11.262
69212W        W41637  42.765  40.908   1.323
69213W        W41638  27.493  25.648  12.483
69214W        W41639  25.670  10.354   3.710
69215W        W41640   7.780  21.984   1.347
69216W        W41641  18.580  41.077   2.191
69217W        W41642  23.469   7.362  10.384
69218W        W41643   9.117  35.147   9.878
69219W        W41644  16.817  37.080  14.965
69220W        W41645  31.496   0.388   2.122
69221W        W41646   7.259  37.576   1.616
69222W        W41647  16.520  14.323   4.147
69223W        W41648  10.572  28.581   0.396
69224W        W41649  35.327  35.314  12.466
69225W        W41650  42.858   7.715  11.642
69226W        W41651  36.598  10.594   3.228
69227W        W41652   2.483   0.626  10.628
69228W        W41653   4.378  30.329  14.487
69229W        W41654  11.394   6.258  12.225
69230W        W41655   1.863  23.743   0.322
69231W        W41656   0.960  13.392  14.430
69232W        W41657  23.273  18.182  12.917
69233W        W41658  26.868  34.021   1.185
69234W        W41659  18.679  35.382  14.788
69235W        W41660   6.907  26.273   0.858
69236W        W41661   6.690  40.558  13.096
69237W        W41662  39.138   4.562  14.355
69238W        W41663  23.699  28.116   3.246
69239W        W41664  13.642  28.134   4.279
69240W        W41665   4.190  43.062  11.436
69241W        W41666  34.501  41.538   2.381
69242W        W41667  33.309   9.686  14.797
69243W        W41668  35.044  41.587   0.981
69244W        W41669  21.918  13.849  13.232
69245W        W41670  26.986  30.865   5.185
69246W        W41671  35.386   3.305   4.591
69247W        W41672  44.981  24.609  10.941
69248W        W41673  32.180  20.579  12.044
69249W        W41674   6.914  34.614   2.807
69250W        W41675  25.040  32.612   0.618
69251W        W41676  28.345   5.345  11.543
69252W        W41677  10.557   4.625   2.245
69253W        W41678  21.905  40.829  11.769
69254W        W41679  13.313  29.982   3.131
69255W        W41680  13.591   6.342   2.196
69256W        W41681  36.030  22.624  11.551
69257W        W41682   7.821   7.620  13.592
69258W        W41683  18.782  38.944   2.102
69259W        W41684  11.137  22.241  12.299
69260W        W41685  32.645  15.717  10.138
69261W        W41686   1.556  21.036  14.716
69262W        W41687   5.835   8.184   1.744
69263W        W41688   6.848  18.552   4.232
69264W        W41689   7.356  38.412  12.079
69265W        W41690   0.142  12.556  13.035
69266W        W41691  21.207  15.371   3.293
69267W        W41692  29.956  38.013   0.232
69268W        W41693  37.405  12.979   2.183
69269W        W41694  41.353   2.622   2.388
69270W        W41695  18.067   2.444  14.480
69271W        W41696   8.781  34.287  10.280
69272W        W41697   9.382   8.403   2.256
69273W        W41698  44.467   8.415  14.778
69274W        W41699   2.831  11.691  10.935
69275W        W41700  42.745  41.724  12.724
69276W        W41701   6.654  12.099   2.873
69277W        W41702  14.727  32.442  10.420
69278W        W41703  21.135  32.893  13.577
69279W        W41704   1.820  34.408  13.362
69280W        W41705  21.627  14.284  11.300
69281W        W41706  19.338   6.865   1.349
69282W        W41707  44.353   9.271  10.958
69283W        W41708  17.345  12.100   3.711
69284W        W41709  31.357   4.488   1.754
69285W        W41710  36.860  15.290  14.896
69286W        W41711  23.118  10.310   0.676
69287W        W41712   7.254  43.383   4.588
69288W        W41713  21.265   0.495   3.636
69289W        W41714   8.694  41.787   3.745
69290W        W41715  11.655  14.401   2.845
69291W        W41716  36.350  17.543  12.564
69292W        W41717   4.126  20.162   0.412
69293W        W41718  16.786   5.764   2.159
69294W        W41719   4.326  39.881   0.351
69295W        W41720  13.059  22.371   3.530
69296W        W41721  36.521  19.209  11.607
69297W        W41722  24.537  35.456  12.545
69298W        W41723  13.330  34.013  13.588
69299W        W41724  35.500   4.611  10.134
69300W        W41725  25.709   1.351   4.716
69301W        W41726  11.241  14.388  11.362
69302W        W41727  31.838  30.791  10.953
69303W        W41728  33.207   1.775   0.312
69304W        W41729  13.210  44.540  14.817
69305W        W41730  20.153   4.148  11.250
69306W        W41731  31.934  12.586   1.966
69307W        W41732  24.103  39.129   1.980
69308W        W41733   4.170  28.242   3.230
69309W        W41734  44.776  29.182   4.056
69310W        W41735   2.188  24.839   4.263
69311W        W41736  28.705  11.176  10.596
69312W        W41737   2.945  20.638  11.704
69313W        W41738   0.967  25.987   0.769
69314W        W41739   8.765   9.687   3.461
69315W        W41740  27.912  10.822   2.134
69316W        W41741  41.157  22.352   3.309
69317W        W41742  44.352  21.340  12.886
69318W        W41743  44.596  27.989  14.238
69319W        W41744  22.603   2.155  14.425
69320W        W41745  18.313  26.051   0.038
69321W        W41746  10.716  14.342  12.074
69322W        W41747  33.359  29.494   1.157
69323W        W41748  35.356  31.616  13.414
69324W        W41749  24.725   9.431   1.814
69325W        W41750  44.458  38.115   0.651
69326W        W41751  36.944  33.619   2.493
69327W        W41752  39.270  23.489   0.748
69328W        W41753  31.899  22.100   1.788
69329W        W41754  44.809  27.462  11.974
69330W        W41755  43.535  22.597   4.910
69331W        W41756   1.682  29.170  14.399
69332W        W41757   2.852  13.269  11.207
69333W        W41758  22.556  36.826   2.295
69334W        W41759   1.746  24.652   2.345
69335W        W41760  22.023  15.739  10.618
69336W        W41761  21.170  24.786   4.752
69337W        W41762  33.420  28.029  13.202
69338W        W41763  15.718   8.997  13.544
69339W        W41764  37.681  40.845   2.543
69340W        W41765  38.606  15.350  14.534
69341W        W41766   4.326  41.308   0.203
69342W        W41767   6.751  19.836   3.715
69343W        W41768   2.031  29.118  11.610
69344W        W41769  29.164   5.305  12.829
69345W        W41770  40.466  10.803  12.405
69346W        W41771   7.918  14.480   4.277
69347W        W41772  26.913  32.396  13.710
69348W        W41773  23.226   0.686   3.314
69349W        W41774  18.045  28.436  14.309
69350W        W41775   4.158  26.258   2.970
69351W        W41776  32.090   2.184   2.168
69352W        W41777  27.202  28.178  13.391
69353W        W41778  19.338  35.861  11.593
69354W        W41779  39.954  31.115  13.283
69355W        W41780  42.390  31.532   0.049
69356W        W41781  43.096  22.269   2.807
69357W        W41782  31.112  23.410   2.363
69358W        W41783  34.806  40.297  12.894
69359W        W41784  18.757  15.855  11.173
69360W        W41785   5.886  24.868  11.540
69361W        W41786  30.053  40.112  10.735
69362W        W41787  16.868  44.360  10.884
69363W        W41788  11.275  17.749  14.005
69364W        W41789  30.556  30.378  14.305
69365W        W41790  24.557  11.283  10.661
69366W        W41791  40.852   2.042   3.573
69367W        W41792  41.459  33.378   1.209
69368W        W41793   9.734  29.081   4.623
69369W        W41794  19.638  40.899   4.125
69370W        W41795   7.759  19.141  13.400
69371W        W41796  17.007  24.446   4.405
69372W        W41797  37.817  11.345   0.020
69373W        W41798  13.685  41.866   3.717
69374W        W41799  42.660  31.436   3.563
69375W        W41800  28.476  40.396   1.869
69376W        W41801  16.364  31.480   9.842
69377W        W41802  22.715  28.959  12.560
69378W        W41803  16.643  31.417  10.688
69379W        W41804  33.838  30.532   0.773
69380W        W41805   0.031   4.214   4.545
69381W        W41806  27.603  40.427   4.183
69382W        W41807  11.797  23.100  13.962
69383W        W41808   5.974  20.073   1.801
69384W        W41809  31.552  41.399   0.860
69385W        W41810   6.864  43.642  13.841
69386W        W41811  26.109  38.389  11.547
69387W        W41812  36.408  41.065   2.244
69388W        W41813  25.452  17.644   0.374
69389W        W41814   7.830  41.600   5.080
69390W        W41815  13.209  25.069   4.738
69391W        W41816  26.202  41.002   2.207
69392W        W41817  13.816   9.666  12.570
69393W        W41818   5.472  10.119  10.201
69394W        W41819   4.382  19.859   3.393
69395W        W41820  42.520  44.654  14.418
69396W        W41821  43.257  30.988   1.405
69397W        W41822  21.703  33.031   3.863
69398W        W41823   1.776  30.379   1.651
69399W        W41824  33.840  12.211  10.485
69400W        W41825  34.967  38.061   2.045
69401W        W41826  18.006  15.096   3.146
69402W        W41827  22.684   0.964   0.181
69403W        W41828   7.641  35.676   3.179
69404W        W41829  27.375  16.746   4.675
69405W        W41830  42.995  25.505  12.625
69406W        W41831   4.246  26.022  10.508
69407W        W41832  26.578  27.496   2.221
69408W        W41833  36.193  25.210  13.924
69409W        W41834  17.127  13.821   3.360
69410W        W41835  32.159  30.546  11.904
69411W        W41836  44.581  18.134  11.642
69412W        W41837  11.604   2.872   1.149
69413W        W41838  21.639   2.820   3.905
69414W        W41839  10.689  24.212  14.535
69415W        W41840  34.993   5.819  10.743
69416W        W41841  19.284  36.406  12.938
69417W        W41842  15.106   7.635   4.746
69418W        W41843  22.088  39.326   2.697
69419W        W41844  19.549  42.510   4.420
69420W        W41845  36.421  37.298   4.635
69421W        W41846   8.028  19.639  10.349
69422W        W41847  38.268  39.048   0.346
69423W        W41848   5.521  14.799   4.655
69424W        W41849  32.979  19.070  10.790
69425W        W41850  37.996  31.753  14.790
69426W        W41851   3.331   9.332  11.891
69427W        W41852  32.308   4.442  11.075
69428W        W41853  20.568   2.809   0.872
69429W        W41854  14.356  22.567  14.276
69430W        W41855  16.327   0.417   3.188
69431W        W41856  23.089  24.425  10.999
69432W        W41857  24.089  12.359  13.832
69433W        W41858  19.467  24.241  12.352
69434W        W41859  12.306  14.262  14.867
69435W        W41860  11.727  39.009  12.965
69436W        W41861   1.946   5.701   3.214
69437W        W41862  41.839  41.950   0.335
69438W        W41863  40.971  22.057   3.697
69439W        W41864  11.152  19.648   2.401
69440W        W41865  29.985  10.297  11.516
69441W        W41866  22.559  29.128   4.610
69442W        W41867   8.121  38.992  13.384
69443W        W41868  26.781  27.580  12.804
69444W        W41869  32.408  25.573   0.285
69445W        W41870  34.495  34.564   2.406
69446W        W41871  27.503  11.094  11.895
69447W        W41872   9.794  40.927   3.713
69448W        W41873  11.642  16.873  11.087
69449W        W41874   0.880  14.114  13.370
69450W        W41875  22.565  25.181   3.681
69451W        W41876   1.690  43.032   1.844
69452W        W41877  36.817  21.344  14.320
69453W        W41878  21.648   1.982   4.821
69454W        W41879   0.941  19.607   0.369
69455W        W41880  14.692   0.782   4.192
69456W        W41881  22.744   8.728   1.385
69457W        W41882  36.290  16.657  13.899
69458W        W41883  26.898  17.183  12.971
69459W        W41884  20.405  15.584  11.485
69460W        W41885  41.484  35.966   3.909
69461W        W41886   5.717   2.993  13.435
69462W        W41887  35.978  10.424  13.497
69463W        W41888  38.555   8.583  14.477
69464W        W41889   3.891  33.935  11.370
69465W        W41890   4.314   5.898  11.739
69466W        W41891  28.417  19.095  14.991
69467W        W41892   0.389  24.721   0.685
69468W        W41893  30.478  40.077   0.792
69469W        W41894   0.856  39.236  10.650
69470W        W41895   1.868  40.461   4.132
69471W        W41896  36.507  16.514  14.811
69472W        W41897  15.303  27.612  12.420
69473W        W41898   8.618  35.653   3.319
69474W        W41899   8.918  42.264   1.320
69475W        W41900  20.428  19.871   3.271
69476W        W41901  37.534   9.871  14.035
69477W        W41902  19.330  26.978   3.142
69478W        W41903  37.917   3.817   0.225
69479W        W41904  28.962  42.321  14.873
69480W        W41905  36.393   2.663  10.733
69481W        W41906  10.186  42.790  13.210
69482W        W41907  12.088   9.348   3.780
69483W        W41908  32.894  20.686   1.447
69484W        W41909  20.481  35.863   0.146
69485W        W41910   9.649  26.900  11.535
69486W        W41911  25.670  15.138   4.757
69487W        W41912  18.441  31.648   2.895
69488W        W41913  14.115   6.848  14.414
69489W        W41914  31.105  40.347   1.219
69490W        W41915   5.170  27.004  11.077
69491W        W41916   8.629  18.955  14.979
69492W        W41917   7.707  35.935   2.749
69493W        W41918  34.849  44.632  11.809
69494W        W41919  17.066  42.340  11.473
69495W        W41920  13.524   5.182  12.940
69496W        W41921  23.219  37.776  14.361
69497W        W41922   8.334  23.649  14.808
69498W        W41923   1.872  41.979   4.503
69499W        W41924   1.082  42.500  12.096
69500W        W41925  22.478  21.725  13.494
69501W        W41926  40.325  10.562  11.983
69502W        W41927  34.888  41.767  11.536
69503W        W41928   2.201   5.983  12.213
69504W        W41929  14.165  18.814  12.584
69505W        W41930  17.440  34.042  11.892
69506W        W41931  32.073  25.067  11.519
69507W        W41932  14.810   1.692   1.259
69508W        W41933   0.752  29.675  10.663
69509W        W41934  17.905  16.987  13.782
69510W        W41935  10.333  15.507   4.577
69511W        W41936  36.384  19.137  12.095
69512W        W41937  20.303   1.695   4.580
69513W        W41938  28.102  27.198   3.227
69514W        W41939  35.188   7.997   3.576
69515W        W41940  34.159   1.003   2.725
69516W        W41941  13.639  34.431  12.313
69517W        W41942  17.209  28.426   0.882
69518W        W41943  10.190  38.088   2.050
69519W        W41944  10.238  23.378   2.867
69520W        W41945  24.386  29.204   1.195
69521W        W41946  36.522   3.883   4.091
69522W        W41947  11.958   8.134  10.451
69523W        W41948   6.312   0.993   2.239
69524W        W41949  10.616   3.022  10.703
69525W        W41950  23.586  19.936   3.280
69526W        W41951  44.622  25.703   4.082
69527W        W41952  12.678  15.786   3.119
69528W        W41953  19.138   4.345   2.661
69529W        W41954   2.206  39.158  11.783
69530W        W41955  33.394   7.824   3.166
69531W        W41956  14.120  40.242  14.920
69532W        W41957  25.002  25.452  14.990
69533W        W41958  25.629  33.444   4.603
69534W        W41959  15.882   4.266  13.782
69535W        W41960   0.582  28.224  10.520
69536W        W41961  40.332   7.900  12.700
69537W        W41962  22.197  12.357   1.311
69538W        W41963   9.203  18.713  12.993
69539W        W41964  28.924  27.694  13.283
69540W        W41965  25.548  19.426   0.902
69541W        W41966  33.075   4.167   1.913
69542W        W41967   8.465  12.725  11.234
69543W        W41968   0.570  27.322   0.028
69544W        W41969   7.149  43.417  11.056
69545W        W41970  24.535  41.672  13.377
69546W        W41971  22.952  18.743   0.438
69547W        W41972   3.911  26.298   4.796
69548W        W41973  33.496  19.020  10.176
69549W        W41974   2.787  15.651  13.839
69550W        W41975   4.057  11.864   2.749
69551W        W41976  32.980  16.008   4.212
69552W        W41977  24.200  23.386   0.644
69553W        W41978  39.590  33.099   2.621
69554W        W41979  20.587  29.684  13.836
69555W        W41980  24.060  11.430  10.661
69556W        W41981  41.337  31.454  13.566
69557W        W41982   4.979  16.285  11.488
69558W        W41983  25.962  44.261  14.059
69559W        W41984   4.762  30.520  14.755
69560W        W41985  39.955  25.957  11.559
69561W        W41986  38.911   5.090   2.420
69562W        W41987  33.423   5.654  13.320
69563W        W41988  37.537  39.973   1.262
69564W        W41989  12.146  44.768  14.605
69565W        W41990   3.466  41.892   0.373
69566W        W41991  31.538  19.989  14.520
69567W        W41992  29.094  40.863   2.725
69568W        W41993   8.430  42.445   2.139
69569W        W41994  15.865  13.712  14.885
69570W        W41995  19.027   8.406   4.122
69571W        W41996  16.130   4.431   0.805
69572W        W41997  18.994  10.113  12.382
69573W        W41998  32.127  35.405   2.852
69574W        W41999  36.457  27.847   2.649
69575W        W42000  31.410   5.347  12.392
69576W        W42001  23.741  16.005  12.198
69577W        W42002  40.103  10.660  11.518
69578W        W42003  20.034  39.392  11.974
69579W        W42004  37.778  10.808   4.562
69580W        W42005  40.560  29.201  12.437
69581W        W42006  23.470  14.841  14.260
69582W        W42007  42.498  23.455   3.809
69583W        W42008  18.205  12.356  11.852
69584W        W42009   6.267   9.636   2.968
69585W        W42010  40.059  19.550   4.451
69586W        W42011  33.416  40.347   3.890
69587W        W42012  20.259  35.797  11.724
69588W        W42013  42.335  14.843   4.557
69589W        W42014  17.149  14.203   1.724
69590W        W42015   2.690  31.414   1.727
69591W        W42016  43.513  11.139  12.979
69592W        W42017   3.032  34.651  13.026
69593W        W42018  43.849  40.775  12.053
69594W        W42019   5.348  44.421  11.505
69595W        W42020  34.381  31.551   4.308
69596W        W42021   2.505  12.399  14.891
69597W        W42022  43.968  41.392   4.037
69598W        W42023  21.400   9.734  12.083
69599W        W42024  31.762  30.381   0.630
69600W        W42025   6.650  43.663   2.814
69601W        W42026  19.304   9.320  11.139
69602W        W42027   6.585  18.341   2.327
69603W        W42028   3.187  18.939   3.725
69604W        W42029  44.533  44.830  13.941
69605W        W42030   3.463  42.901  10.865
69606W        W42031  15.056  24.739   0.436
69607W        W42032  41.972  30.085  12.508
69608W        W42033   9.942  23.093  14.508
69609W        W42034  12.337  41.625  12.510
69610W        W42035  40.013   8.824   1.412
69611W        W42036   5.803  22.393  13.008
69612W        W42037   2.790  21.816   2.627
69613W        W42038  42.756  32.173   2.714
69614W        W42039   9.164   3.026   4.042
69615W        W42040  36.448  27.096  13.455
69616W        W42041   3.391   5.945  10.208
69617W        W42042  31.918  13.021  12.390
69618W        W42043  31.870   3.693   4.656
69619W        W42044  43.731  35.373  11.118
69620W        W42045  30.462  15.277   2.782
69621W        W42046  21.004  14.169   3.840
69622W        W42047  17.160  44.924   0.500
69623W        W42048  16.256  15.507   4.725
69624W        W42049   3.224  26.153  14.345
69625W        W42050  41.844  34.705   5.007
69626W        W42051  10.842  16.096   1.803
69627W        W42052  38.781  17.527   2.042
69628W        W42053  42.253  16.568   0.961
69629W        W42054   6.269   2.469  10.773
69630W        W42055   6.416  23.177  10.683
69631W        W42056  43.701   8.404  11.531
69632W        W42057  41.644  35.350   3.135
69633W        W42058  23.412   6.937  13.116
69634W        W42059  19.261  11.354   3.227
69635W        W42060   8.354   0.799   1.739
69636W        W42061   9.635  39.933  12.090
69637W        W42062  11.827  17.095   0.274
69638W        W42063  30.724  12.597   3.126
69639W        W42064  29.117  32.929   0.483
69640W        W42065   4.289  29.763   0.580
69641W        W42066  13.382   3.898  11.420
69642W        W42067  35.076   3.663  12.417
69643W        W42068   8.247   8.499   4.652
69644W        W42069   9.035  24.734   2.555
69645W        W42070   2.482  12.298   1.285
69646W        W42071  25.530  34.544  11.144
69647W        W42072  21.790  16.381   4.785
69648W        W42073   7.419   0.731   2.208
69649W        W42074  28.646  12.803   4.275
69650W        W42075  24.750  35.516  13.488
69651W        W42076  14.847  29.877   0.591
69652W        W42077  42.495  18.298  14.867
69653W        W42078  39.778  16.038  12.071
69654W        W42079  15.199  30.099  13.953
69655W        W42080  21.068  20.555   3.613
69656W        W42081   2.382  22.611   4.046
69657W        W42082  15.116  35.486   4.155
69658W        W42083  16.881   9.144   2.459
69659W        W42084   2.917  22.593   4.091
69660W        W42085  16.066  27.203  13.302
69661W        W42086  40.966  24.708   2.217
69662W        W42087   8.214  30.877  14.562
69663W        W42088  40.802  14.544  13.853
69664W        W42089  25.760  28.105  13.858
69665W        W42090  10.413  23.106  11.063
69666W        W42091  13.563  26.061   1.443
69667W        W42092   9.688  43.486  13.125
69668W        W42093  10.217   8.210   0.226
69669W        W42094  37.947  40.698   3.038
69670W        W42095  16.222   6.140   1.720
69671W        W42096  15.514  25.396   3.210
69672W        W42097  13.120  13.065   0.387
69673W        W42098  41.506  42.851   1.804
69674W        W42099  10.565  10.681   0.915
69675W        W42100  25.343  36.378  14.577
69676W        W42101  19.958  21.801  14.241
69677W        W42102  37.971   8.325   0.261
69678W        W42103  32.120  26.199  12.573
69679W        W42104  24.246  35.591   2.718
69680W        W42105   3.149  19.590   2.371
69681W        W42106   8.192  30.340  11.065
69682W        W42107  14.604  19.699   2.327
69683W        W42108  16.824   5.918   0.105
69684W        W42109  10.074   5.161  14.264
69685W        W42110  37.870  13.845  11.041
69686W        W42111  39.994  24.936  14.311
69687W        W42112   5.165  31.699   4.062
69688W        W42113  16.134  43.414  10.770
69689W        W42114  13.648   0.403   1.181
69690W        W42115  32.652   9.114   2.129
69691W        W42116  40.611   5.932   3.693
69692W        W42117  13.860  28.685  14.734
69693W        W42118  30.838  41.345   2.716
69694W        W42119  21.990  40.340  14.395
69695W        W42120  44.251  44.276  10.598
69696W        W42121  32.322  41.784   2.143
69697W        W42122  41.288  28.708   3.768
69698W        W42123  41.496  44.803  11.234
69699W        W42124  23.084  10.881   3.265
69700W        W42125  44.426   3.433   4.661
69701W        W42126   9.175  19.023  14.005
69702W        W42127  29.212  44.284  13.647
69703W        W42128   2.876  17.294   0.337
69704W        W42129  23.591  30.038  10.923
69705W        W42130  38.377  42.523   4.159
69706W        W42131   1.876  21.056  10.683
69707W        W42132  12.001  40.794   3.591
69708W        W42133  35.164  43.989  12.541
69709W        W42134   5.460  33.457  11.047
69710W        W42135  12.358  34.421   1.860
69711W        W42136  41.118  40.909   4.769
69712W        W42137  29.990   2.003   3.696
69713W        W42138   4.509  30.106   4.113
69714W        W42139  17.770  43.689  13.471
69715W        W42140  37.588   7.590   1.125
69716W        W42141  23.066  35.942  11.789
69717W        W42142  28.651  42.765   0.876
69718W        W42143  44.793  18.060   3.232
69719W        W42144  20.120  11.219   4.044
69720W        W42145  33.554  19.101   2.709
69721W        W42146  26.663  10.716   2.601
69722W        W42147  36.486   0.718   1.369
69723W        W42148  35.014   5.560  11.588
69724W        W42149  38.798  39.835   4.522
69725W        W42150  37.384  36.930   1.889
69726W        W42151  10.224  22.171   3.637
69727W        W42152  19.706  37.846  14.555
69728W        W42153  15.336  30.106   1.668
69729W        W42154  14.632  35.881   3.196
69730W        W42155  26.104  13.306  10.728
69731W        W42156  26.541  44.643  11.567
69732W        W42157  39.377   0.741   2.936
69733W        W42158  26.666   1.242  12.587
69734W        W42159  27.910  34.160  13.349
69735W        W42160  29.377  11.849   0.484
69736W        W42161   8.903  18.261  12.103
69737W        W42162  44.491   6.244   4.183
69738W        W42163  16.910  19.247  11.215
69739W        W42164  11.723  19.095   1.853
69740W        W42165  14.778  30.304  11.063
69741W        W42166  41.989  39.218  14.966
69742W        W42167  29.587  34.122   2.870
69743W        W42168  42.599   2.378   2.300
69744W        W42169   1.005   5.399  12.305
69745W        W42170  38.059  38.385   2.447
69746W        W42171   7.745  32.892  10.993
69747W        W42172  33.561  42.683   5.145
69748W        W42173   7.179  39.578   2.704
69749W        W42174   7.703  44.544  13.188
69750W        W42175  11.337  24.995  13.939
69751W        W42176  43.845   6.439   2.853
69752W        W42177   8.725  24.169   1.759
69753W        W42178  39.848  34.349   3.614
69754W        W42179   3.726  21.729   3.613
69755W        W42180  25.974  39.402  12.433
69756W        W42181  19.700  14.816  12.974
69757W        W42182   2.305  42.929   3.043
69758W        W42183  30.660  22.587   0.849
69759W        W42184  25.487  32.918  14.456
69760W        W42185  14.565  29.737  13.435
69761W        W42186  38.248   8.740  13.358
69762W        W42187  18.641  32.566  12.180
69763W        W42188  35.640  25.120   1.222
69764W        W42189  28.755  34.815   0.371
69765W        W42190  37.004   4.635  13.995
69766W        W42191  37.061  24.808   4.019
69767W        W42192  17.691  35.834   0.955
69768W        W42193  40.147  24.033  14.034
69769W        W42194  29.591   4.721  14.259
69770W        W42195  43.126  41.771   4.142
69771W        W42196  37.792  19.759  12.882
69772W        W42197   5.413  31.522   3.077
69773W        W42198  39.572  25.427  12.508
69774W        W42199   8.417  43.453  11.035
69775W        W42200  13.834   3.483   3.447
69776W        W42201   9.927  42.825   1.686
69777W        W42202  14.599  36.416  13.864
69778W        W42203  33.358  33.108  13.383
69779W        W42204   0.335  39.915   1.198
69780W        W42205  23.377  29.526  13.048
69781W        W42206  29.436   8.141   1.772
69782W        W42207  10.120  37.994  14.935
69783W        W42208   5.916  11.026   4.174
69784W        W42209  28.431  42.349  14.956
69785W        W42210   6.372  28.042  10.562
69786W        W42211  12.838  30.218   4.999
69787W        W42212  33.763  41.871  14.262
69788W        W42213  11.398  33.758   1.777
69789W        W42214  18.084  39.852   1.793
69790W        W42215   0.961  27.522   3.244
69791W        W42216  18.257  44.340  13.357
69792W        W42217  35.822  36.484  13.807
69793W        W42218  28.450  13.865   1.752
69794W        W42219  15.555  43.833   3.347
69795W        W42220   7.434  42.176  12.579
69796W        W42221   2.551   8.512   1.736
69797W        W42222  42.780   2.050  13.334
69798W        W42223  29.540  19.077  14.448
69799W        W42224   9.580  36.807   9.834
69800W        W42225  27.318   2.050  11.160
69801W        W42226   4.759  23.322   3.230
69802W        W42227  42.453  27.186  10.370
69803W        W42228   8.794  30.137   1.726
69804W        W42229  11.783  30.028  14.488
69805W        W42230   0.300  29.904   2.406
69806W        W42231  37.632  19.677  11.205
69807W        W42232  39.500   5.731  12.505
69808W        W42233  34.030  16.069  13.846
69809W        W42234  11.877  23.025   0.830
69810W        W42235   6.128  12.545  11.927
69811W        W42236  42.805  10.382   4.158
69812W        W42237   8.176   8.264   4.189
69813W        W42238  31.483  15.773   0.422
69814W        W42239  30.528  10.640   2.846
69815W        W42240  28.631   9.159   4.383
69816W        W42241   7.504  34.986   3.990
69817W        W42242  10.703  41.869   0.354
69818W        W42243  25.459   5.849   1.850
69819W        W42244  24.979  40.832  14.283
69820W        W42245  25.662   3.034   4.158
69821W        W42246  26.612  24.808  13.926
69822W        W42247  39.537   7.238   3.761
69823W        W42248   4.669   4.003  12.281
69824W        W42249   4.354  19.240   1.253
69825W        W42250   0.943  27.240  13.880
69826W        W42251  29.105  31.304  11.895
69827W        W42252  43.203  29.559  12.145
69828W        W42253  38.091   1.887   3.258
69829W        W42254  42.910  36.877   1.706
69830W        W42255  14.708   1.327   2.412
69831W        W42256  28.459   7.758   4.304
69832W        W42257   9.674   0.345   3.642
69833W        W42258  21.894  12.515  14.484
69834W        W42259   9.452  32.049  11.488
69835W        W42260   6.424  19.664   4.942
69836W        W42261  40.051  17.152  12.462
69837W        W42262  34.035  23.045   3.136
69838W        W42263  22.246   7.654   2.186
69839W        W42264  18.266  33.860   0.937
69840W        W42265  37.525  37.418   1.745
69841W        W42266  21.816  23.031  13.557
69842W        W42267  11.788  28.237   0.824
69843W        W42268   5.671  37.726  11.612
69844W        W42269   7.782  10.934   1.861
69845W        W42270  25.471  22.602   3.627
69846W        W42271  40.188   7.327  11.631
69847W        W42272  15.531  36.444  12.361
69848W        W42273  24.145  40.699   4.139
69849W        W42274  10.233  39.590  13.347
69850W        W42275   2.364  29.666   1.824
69851W        W42276  22.387  24.622  11.138
69852W        W42277  44.014  39.317  14.879
69853W        W42278  28.055   5.396  14.381
69854W        W42279  32.350  27.101   4.832
69855W        W42280  13.273  36.025   1.688
69856W        W42281  35.988  28.426  14.139
69857W        W42282  16.901  31.711  13.880
69858W        W42283  37.048  16.761  13.034
69859W        W42284   5.181  10.156  14.435
69860W        W42285  10.151  11.191   0.314
69861W        W42286   6.263  14.364  14.216
69862W        W42287  25.215   4.312   2.615
69863W        W42288  29.130  10.290  13.951
69864W        W42289  16.554   2.800   4.231
69865W        W42290  27.210   4.884   2.723
69866W        W42291  13.117   5.959  14.254
69867W        W42292   0.992  16.276   4.098
69868W        W42293  11.282  44.528  11.139
69869W        W42294  29.092  38.662  11.559
69870W        W42295  37.280  38.284  13.504
69871W        W42296  24.799   6.780   0.046
69872W        W42297  13.776   3.977  12.277
69873W        W42298  37.773  22.382   1.328
69874W        W42299  21.133  33.506  13.979
69875W        W42300  22.252  12.225  11.827
69876W        W42301  28.695  39.665   3.640
69877W        W42302  41.975  11.400  11.408
69878W        W42303  38.104  16.641   2.358
69879W        W42304  15.399  20.153  10.587
69880W        W42305  35.892  14.048   1.389
69881W        W42306   9.731  41.111  11.126
69882W        W42307  35.210  44.262  11.658
69883W        W42308  29.825   5.685   3.263
69884W        W42309  16.392  44.544  14.993
69885W        W42310  37.293  22.299   9.794
69886W        W42311  17.426  37.541  14.493
69887W        W42312  22.381  44.829  11.248
69888W        W42313  12.465  27.002   3.313
69889W        W42314  27.509  28.342   0.904
69890W        W42315  11.435  22.107   0.971
69891W        W42316  40.158  32.904   0.869
69892W        W42317  15.240  25.743  11.006
69893W        W42318  23.430  21.392   2.814
69894W        W42319  17.913  34.688   3.971
69895W        W42320  11.931  24.397   0.804
69896W        W42321  36.872  15.094   4.716
69897W        W42322  12.251  43.384  11.136
69898W        W42323   6.239  21.462   4.837
69899W        W42324  35.296  23.088   0.582
69900W        W42325   3.846  19.717   0.479
69901W        W42326  30.758  34.956  14.292
69902W        W42327  38.295  39.513  12.389
69903W        W42328  44.414  14.918   2.793
69904W        W42329  15.393  21.453   1.371
69905W        W42330  42.527  24.005  13.747
69906W        W42331  27.215  29.669   4.514
69907W        W42332   2.897   2.657   0.267
69908W        W42333  13.671  20.486   2.888
69909W        W42334  32.369   8.941   2.843
69910W        W42335   5.764   4.568   2.336
69911W        W42336  25.082  25.359   1.374
69912W        W42337  19.601  16.353   2.674
69913W        W42338  30.927  30.475  13.918
69914W        W42339  20.253  27.480   0.375
69915W        W42340  11.816  40.772  10.765
69916W        W42341  27.185   6.054  10.639
69917W        W42342  12.291  13.558  13.027
69918W        W42343   4.737  11.116  11.908
69919W        W42344  42.033  24.257   1.319
69920W        W42345  23.564  18.613   0.971
69921W        W42346   2.507   6.377   1.243
69922W        W42347  44.160   8.802  14.897
69923W        W42348  38.435  11.788   2.681
69924W        W42349  19.480  39.442   0.709
69925W        W42350  26.653   0.036  12.862
69926W        W42351  23.121  37.908   4.575
69927W        W42352  25.984  22.995   4.206
69928W        W42353  31.522  18.203   4.626
69929W        W42354  30.992  43.408   4.494
69930W        W42355  15.351  17.987  13.432
69931W        W42356   7.206  39.411  14.908
69932W        W42357  15.613  16.510   4.162
69933W        W42358  29.030  12.368  14.195
69934W        W42359  16.665  28.953   0.391
69935W        W42360  42.191  13.290  13.549
69936W        W42361  13.723  11.127   0.539
69937W        W42362  21.570   8.879  11.133
69938W        W42363  43.852  42.757   0.459
69939W        W42364  24.944  28.481   0.928
69940W        W42365   4.766  21.931   1.309
69941W        W42366  28.691   6.593  11.358
69942W        W42367  33.085   0.926  13.780
69943W        W42368  23.108  19.381  14.807
69944W        W42369   3.889  39.774   2.733
69945W        W42370  44.616  13.356   3.309
69946W        W42371  24.736  44.336   4.784
69947W        W42372  26.943  10.750   4.857
69948W        W42373  33.108  20.463  11.925
69949W        W42374  16.608  40.554  13.902
69950W        W42375  22.793  29.031   3.638
69951W        W42376  43.307  13.835  14.790
69952W        W42377  19.141   3.862  11.171
69953W        W42378   0.241   8.597  11.119
69954W        W42379  42.961  11.882   1.242
69955W        W42380   6.204  17.274  11.640
69956W        W42381  10.781  14.292  12.979
69957W        W42382  11.698   0.004  14.501
69958W        W42383   9.484   2.030   2.132
69959W        W42384  31.828  43.557  11.573
69960W        W42385  30.516  39.985  14.325
69961W        W42386  17.045  18.617   1.116
69962W        W42387   9.033  31.000   1.607
69963W        W42388   3.776  44.909  10.388
69964W        W42389  40.736   4.160   1.209
69965W        W42390  43.466  32.928   4.257
69966W        W42391  25.120  35.952  13.777
69967W        W42392  43.372  34.138  13.832
69968W        W42393  30.440  18.392  12.595
69969W        W42394  11.164   6.285   2.211
69970W        W42395  12.577  24.645  11.839
69971W        W42396  35.730  29.778   5.199
69972W        W42397  21.210   0.256  12.561
69973W        W42398  29.123   8.354   1.391
69974W        W42399  17.783  40.109  11.888
69975W        W42400  28.512  23.789  12.998
69976W        W42401  13.840   2.360  12.142
69977W        W42402  16.583  27.105  13.354
69978W        W42403  41.979  10.830   0.195
69979W        W42404   8.852  32.080   4.826
69980W        W42405  24.024   3.330  11.619
69981W        W42406  33.589  19.055  12.994
69982W        W42407  42.617  11.567   2.935
69983W        W42408  20.572   3.736   2.334
69984W        W42409   9.694  13.672  11.174
69985W        W42410  26.259   2.476  11.141
69986W        W42411  40.059  21.784  11.654
69987W        W42412  20.753  13.286   5.026
69988W        W42413  43.586   7.562  14.820
69989W        W42414  15.776  28.118   0.181
69990W        W42415   7.904  40.811   0.867
69991W        W42416   1.460   2.818   0.709
69992W        W42417   4.935  31.554  13.022
69993W        W42418  26.937  17.136  14.806
69994W        W42419  21.948  15.211   1.254
69995W        W42420  30.383  20.000   3.256
69996W        W42421  43.584  14.135  13.563
69997W        W42422  36.051   4.027   1.277
69998W        W42423   3.249  15.143  13.375
69999W        W42424  36.922  13.217   4.447
70000W        W42425   5.521  21.059  12.182
70001W        W42426  27.679  43.489  12.837
70002W        W42427  41.523  15.426   1.803
70003W        W42428  42.062  12.270  11.851
70004W        W42429  11.272  14.313  14.866
70005W        W42430   4.293   9.584   3.285
70006W        W42431  21.258   8.369  13.975
70007W        W42432  36.489  14.761  14.356
70008W        W42433  41.658  43.035   4.935
70009W        W42434  17.631  32.935  10.660
70010W        W42435  23.498  35.894  14.889
70011W        W42436  36.990  14.158   3.653
70012W        W42437   5.022   0.730   3.250
70013W        W42438  33.451  31.695  11.653
70014W        W42439   0.282  41.923  13.001
70015W        W42440  11.144  20.305   0.801
70016W        W42441  11.229  10.554   1.245
70017W        W42442  38.033  43.235  13.045
70018W        W42443  37.492  42.329  11.566
70019W        W42444  35.686  31.667   1.536
70020W        W42445   6.429  38.291  14.729
70021W        W42446  18.516  39.111  11.606
70022W        W42447   3.182   7.794   1.838
70023W        W42448  32.162  43.092   4.871
70024W        W42449   2.231  24.930   0.666
70025W        W42450  42.465  41.474  14.061
70026W        W42451  17.611  36.316   0.804
70027W        W42452  32.551  37.922  11.631
70028W        W42453  20.931  23.987  11.169
70029W        W42454  18.057  15.284   1.830
70030W        W42455  44.330  15.517  12.871
70031W        W42456  34.715   6.895  13.175
70032W        W42457  12.704   6.470   0.062
70033W        W42458  32.164   6.144  13.490
70034W        W42459  44.232  37.843   0.255
70035W        W42460  20.628  34.666   4.663
70036W        W42461  18.698  31.018  13.866
70037W        W42462  41.312   4.269  13.939
70038W        W42463  15.080   7.012   0.876
70039W        W42464  20.232  31.409  12.788
70040W        W42465   0.882  41.425  13.968
70041W        W42466  26.103  23.680  12.122
70042W        W42467  34.704   8.889   3.802
70043W        W42468  26.934  19.694   0.504
70044W        W42469  28.324  37.270   2.938
70045W        W42470   7.102  31.681   1.732
70046W        W42471  10.218  18.505  14.860
70047W        W42472  10.401  30.699   3.118
70048W        W42473  33.378  18.792  12.615
70049W        W42474  17.617   2.130  13.746
70050W        W42475  41.242  17.666   0.375
70051W        W42476  34.107  28.600  11.757
70052W        W42477  24.010   4.889   0.431
70053W        W42478  14.249   6.176  10.479
70054W        W42479  41.312  25.582   1.960
70055W        W42480  17.801  13.227   4.917
70056W        W42481  22.768   2.641  14.368
70057W        W42482  15.351  28.586  13.320
70058W        W42483  17.127  29.099   3.766
70059W        W42484  11.285  35.976   0.084
70060W        W42485  23.414  32.070   4.163
70061W        W42486  27.187  41.670   4.510
70062W        W42487   9.797  36.641  13.400
70063W        W42488  32.936  22.580  10.879
70064W        W42489  23.456  21.131  12.941
70065W        W42490  31.084  20.428  13.325
70066W        W42491  10.857   3.386   3.327
70067W        W42492   6.531  40.412  12.591
70068W        W42493  43.715   5.457  13.842
70069W        W42494  19.869  18.129  14.298
70070W        W42495   4.268  38.509  14.574
70071W        W42496  35.417  29.208   2.866
70072W        W42497  13.118  27.618   2.954
70073W        W42498   7.361  26.444   2.980
70074W        W42499  18.575  19.581   1.241
70075W        W42500  40.747  35.570  11.080
70076W        W42501  22.518  20.144   1.841
70077W        W42502  37.940  10.705   0.839
70078W        W42503   4.600  25.008  14.371
70079W        W42504   2.770  28.941   2.236
70080W        W42505   2.446  35.449  14.017
70081W        W42506  43.886  19.620  12.434
70082W        W42507  31.672   2.377   0.914
70083W        W42508   3.415  30.138   1.230
70084W        W42509  31.400  28.141   1.756
70085W        W42510  10.145   9.956  10.113
70086W        W42511  33.514  29.951   3.941
70087W        W42512   8.541  44.788   4.758
70088W        W42513  41.517  11.603   1.367
70089W        W42514  16.722  39.333   0.421
70090W        W42515  18.700  17.219   3.427
70091W        W42516   8.350  32.624   5.111
70092W        W42517  44.555  10.794  11.971
70093W        W42518  19.446  37.557  12.837
70094W        W42519  36.443   1.261  14.465
70095W        W42520  18.535  31.896   1.892
70096W        W42521  16.012  19.924   1.681
70097W        W42522  15.885   6.331   0.324
70098W        W42523  13.754  42.742   0.855
70099W        W42524  41.410  10.385   4.766
70100W        W42525  22.225   3.695   3.302
70101W        W42526  24.546  44.335   0.876
70102W        W42527  19.480  38.071   2.760
70103W        W42528   7.812  42.304   1.663
70104W        W42529  20.170  20.718   0.274
70105W        W42530   7.322  15.795  14.166
70106W        W42531  44.144  18.039  13.222
70107W        W42532  19.209  37.907  11.059
70108W        W42533  36.407  12.319  12.884
70109W        W42534  31.542  26.047   2.845
70110W        W42535  25.502  23.453   3.331
70111W        W42536  17.083  44.379   1.382
70112W        W42537  30.233   2.456   0.415
70113W        W42538  16.777  21.270  14.882
70114W        W42539  39.296  19.357   2.134
70115W        W42540   1.231   1.407  12.966
70116W        W42541  42.421  27.598  11.680
70117W        W42542  37.403  23.740  10.304
70118W        W42543  32.704  11.128   3.259
70119W        W42544  24.760  24.382  12.494
70120W        W42545  20.669  25.555   2.362
70121W        W42546  32.690  27.081  11.634
70122W        W42547  31.012  43.202   2.705
70123W        W42548  10.761  41.296   4.512
70124W        W42549  32.154   9.647  11.077
70125W        W42550  21.667  39.342   0.496
70126W        W42551   9.705  36.784  13.918
70127W        W42552  35.087  13.076  13.020
70128W        W42553  14.925  17.751  14.841
70129W        W42554  34.481  43.088   2.216
70130W        W42555  30.839  35.304  13.894
70131W        W42556  28.138   8.862  14.635
70132W        W42557   1.294  16.281   3.303
70133W        W42558   0.788  15.590   1.466
70134W        W42559  22.665  25.044  14.106
70135W        W42560   9.121   0.358   4.462
70136W        W42561  43.848  26.561  13.041
70137W        W42562  13.087  38.531  13.017
70138W        W42563  36.676  23.471  14.735
70139W        W42564  31.865  10.366  14.402
70140W        W42565  18.499  44.907   3.648
70141W        W42566  18.118  16.541  12.347
70142W        W42567  24.579   5.478  13.530
70143W        W42568  20.168  15.377  14.775
70144W        W42569  23.552  11.233   2.757
70145W        W42570   2.955  36.098  11.685
70146W        W42571   4.216  21.716   4.586
70147W        W42572   1.346  15.233  12.596
70148W        W42573   0.192  42.847  11.101
70149W        W42574   9.771   4.814   0.639
70150W        W42575  25.061  10.107   5.233
70151W        W42576  27.289  38.983  11.240
70152W        W42577  44.453  43.339   0.884
70153W        W42578  36.543  34.366  10.517
70154W        W42579  42.413  14.598   5.245
70155W        W42580   6.327  21.014   1.266
70156W        W42581  38.393   0.245  14.805
70157W        W42582  19.951  20.536  14.016
70158W        W42583  31.988   1.408  12.034
70159W        W42584  31.800  38.054   2.262
70160W        W42585  38.495   7.560  14.827
70161W        W42586  42.995  10.041  13.078
70162W        W42587  32.757   0.454   4.546
70163W        W42588  26.046  12.205  11.170
70164W        W42589  24.109  34.380   1.367
70165W        W42590  29.868  40.445  12.535
70166W        W42591  40.836  30.027   1.264
70167W        W42592  43.539  42.761   2.224
70168W        W42593  34.727  16.171   0.027
70169W        W42594   2.390   9.869   1.302
70170W        W42595  21.202   8.122  11.197
70171W        W42596   8.294  31.466   3.779
70172W        W42597  25.533   9.903   2.919
70173W        W42598  33.735  31.410  13.451
70174W        W42599  35.947  14.546   1.255
70175W        W42600  13.237   3.822  10.521
70176W        W42601  10.448  18.808   5.077
70177W        W42602   5.867  17.416  13.720
70178W        W42603   5.328  36.698   4.227
70179W        W42604  14.000   5.730   3.374
70180W        W42605  21.935  36.893   4.176
70181W        W42606   2.370  36.581  14.355
70182W        W42607  33.328  20.438   3.176
70183W        W42608  44.330  12.440  12.592
70184W        W42609  29.180  15.486   1.868
70185W        W42610  26.809   1.433   1.470
70186W        W42611  44.790  16.622  10.930
70187W        W42612  38.961  28.696  14.657
70188W        W42613  25.046  31.563   4.102
70189W        W42614  34.132  29.179   1.036
70190W        W42615  31.920  26.692   0.274
70191W        W42616  15.312  24.583   4.963
70192W        W42617  28.323  31.344  13.405
70193W        W42618  17.433  33.173   4.813
70194W        W42619  28.927  38.627  10.631
70195W        W42620  14.797  44.871   2.468
70196W        W42621   3.982  10.727  14.119
70197W        W42622  42.941  40.814   0.472
70198W        W42623  23.069  10.406  10.111
70199W        W42624  29.332   5.401   0.777
70200W        W42625  36.934  23.378   1.295
70201W        W42626   2.976  34.585   0.430
70202W        W42627  30.157   9.308   3.300
70203W        W42628  44.469  40.866   0.325
70204W        W42629  21.720  10.136   5.177
70205W        W42630  20.094  18.112   1.178
70206W        W42631   7.738  36.018  14.743
70207W        W42632   9.613  39.064  10.729
70208W        W42633  34.642  13.662   3.657
70209W        W42634  17.686  29.996   3.861
70210W        W42635  27.469  28.874   0.913
70211W        W42636  31.951  14.651  10.479
70212W        W42637   7.659  38.304   1.828
70213W        W42638  41.831  15.481   2.658
70214W        W42639  32.150  43.864   0.848
70215W        W42640   6.351  20.745  12.349
70216W        W42641  35.146  18.259  12.937
70217W        W42642  22.288  11.347   4.186
70218W        W42643   5.824  42.697  12.029
70219W        W42644   7.529  32.459   1.737
70220W        W42645  20.584  10.666  11.161
70221W        W42646  23.401   2.227  12.525
70222W        W42647  30.418  22.624  11.510
70223W        W42648   1.029  26.409   4.544
70224W        W42649   0.458  23.086  14.267
70225W        W42650  32.790  17.829  12.849
70226W        W42651  12.437  41.853  13.386
70227W        W42652  34.189  16.708   4.567
70228W        W42653  12.279  21.738   3.734
70229W        W42654   0.396   1.748   3.127
70230W        W42655  23.037   8.553   4.158
70231W        W42656  44.486  13.592   4.961
70232W        W42657  28.763  29.909   3.640
70233W        W42658  43.528   5.498  14.863
70234W        W42659  11.635  10.021  10.467
70235W        W42660  10.160   0.378   3.414
70236W        W42661  24.682  17.049  10.974
70237W        W42662   2.013  40.023  14.904
70238W        W42663  13.250  34.513  11.973
70239W        W42664  20.796   3.460  13.449
70240W        W42665  28.872  32.449  13.894
70241W        W42666  27.764  43.323  10.673
70242W        W42667  12.066  17.067  11.962
70243W        W42668   3.177  32.022  12.894
70244W        W42669   9.950   6.426  11.934
70245W        W42670  10.781  39.470   3.354
70246W        W42671  33.289  17.307   2.759
70247W        W42672  22.425  31.896   4.248
70248W        W42673  15.836  14.857  12.416
70249W        W42674  41.133   5.458   0.724
70250W        W42675   6.613  24.940  14.422
70251W        W42676  10.856  24.435   2.333
70252W        W42677  37.812  38.550   3.417
70253W        W42678   4.422  10.985   1.151
70254W        W42679  43.235  14.838   3.130
70255W        W42680  24.939   6.919  11.432
70256W        W42681  13.547   0.941  10.437
70257W        W42682  24.664   3.324   2.294
70258W        W42683  15.182  29.191   3.408
70259W        W42684   1.945  31.336  13.286
70260W        W42685  18.632  34.216   0.427
70261W        W42686  10.664   5.434   4.253
70262W        W42687  25.897   3.669   1.324
70263W        W42688  37.700  24.265   2.137
70264W        W42689  37.483   4.543  10.034
70265W        W42690   2.423  39.475  13.289
70266W        W42691  34.868  21.493   4.582
70267W        W42692  38.056  13.056   3.338
70268W        W42693  37.242  21.168   2.744
70269W        W42694  29.139  17.071   0.773
70270W        W42695  24.126  40.270   5.080
70271W        W42696  18.299  24.555   0.449
70272W        W42697  30.571   5.970  11.676
70273W        W42698   0.778  16.767   4.002
70274W        W42699  42.904  23.209   0.341
70275W        W42700  18.732   2.459  14.397
70276W        W42701  43.830  14.729   3.265
70277W        W42702  32.379  22.316   1.660
70278W        W42703  20.707  16.579   2.880
70279W        W42704  18.676  10.766  12.898
70280W        W42705   8.328  43.868  13.844
70281W        W42706  30.979  17.321  12.408
70282W        W42707  37.094  38.863  12.373
70283W        W42708  41.996  26.661   3.240
70284W        W42709  10.595   8.809  14.052
70285W        W42710  14.413  44.006  12.543
70286W        W42711  40.505  12.694   2.833
70287W        W42712  33.134   8.669  12.392
70288W        W42713   3.324   8.714  14.750
70289W        W42714  28.745  26.710  14.292
70290W        W42715   9.463   4.718   3.276
70291W        W42716  32.999  25.537   4.001
70292W        W42717  29.653  17.964  12.616
70293W        W42718  44.988  12.201  10.673
70294W        W42719  32.886  13.711  11.674
70295W        W42720  23.158  24.943  14.985
70296W        W42721  28.156  35.703   4.546
70297W        W42722  44.425  24.850   2.039
70298W        W42723  39.940  12.761  10.367
70299W        W42724  13.687   0.924   1.064
70300W        W42725  42.849  32.852  13.892
70301W        W42726  35.191  40.418  12.345
70302W        W42727  21.519   0.063  10.786
70303W        W42728  38.764  44.272   4.216
70304W        W42729   4.736  34.868  10.868
70305W        W42730  44.480  18.244   0.403
70306W        W42731  32.581  27.288   3.386
70307W        W42732  28.879  30.854  14.678
70308W        W42733  24.503   1.540  11.213
70309W        W42734  25.298  26.661   2.808
70310W        W42735   7.879  41.575   2.170
70311W        W42736   1.015  34.558  13.005
70312W        W42737  34.984   2.436  11.726
70313W        W42738  15.609  14.616   2.402
70314W        W42739  20.243   8.241  11.721
70315W        W42740  34.832  29.544   2.839
70316W        W42741  30.080  39.921  13.104
70317W        W42742   0.817  42.953  12.085
70318W        W42743  34.531  22.529  12.518
70319W        W42744  23.526  16.747   4.297
70320W        W42745  40.373  11.784  13.521
70321W        W42746   2.966   0.312   3.526
70322W        W42747  33.588  35.622  12.997
70323W        W42748  11.917  15.391   2.931
70324W        W42749  15.729   8.575  10.827
70325W        W42750  15.132  30.390  11.814
70326W        W42751  19.823  44.440   4.475
70327W        W42752   3.197  38.887  14.297
70328W        W42753   7.712  36.958  14.750
70329W        W42754  35.950  30.934  13.771
70330W        W42755  23.248  31.051  11.512
70331W        W42756  16.019  21.685  11.526
70332W        W42757  19.570  24.560   3.742
70333W        W42758   9.272  39.623   4.098
70334W        W42759  11.720  42.776   0.445
70335W        W42760  22.546  24.480  11.861
70336W        W42761  34.616  42.252   4.280
70337W        W42762  35.869   6.635  12.173
70338W        W42763  14.203   0.391   1.341
70339W        W42764  27.958   8.810  11.842
70340W        W42765  28.453  43.355  14.418
70341W        W42766   2.780  17.324   1.309
70342W        W42767   1.926  23.664   4.328
70343W        W42768  28.945  11.613   4.373
70344W        W42769   7.837   6.411  12.846
70345W        W42770  44.288  36.439   1.465
70346W        W42771  32.004  15.268  13.394
70347W        W42772  33.379  41.378   1.302
70348W        W42773   9.390  42.336   0.406
70349W        W42774   4.747  41.780  14.199
70350W        W42775  11.134   1.413  12.402
70351W        W42776  31.936  14.867   1.266
70352W        W42777  34.698  36.592   3.734
70353W        W42778  15.415  29.374  11.601
70354W        W42779  33.896  36.463   2.695
70355W        W42780  12.321  31.144  14.955
70356W        W42781  35.496  32.877   0.169
70357W        W42782  29.945  42.372   2.315
70358W        W42783  20.541  24.627   0.288
70359W        W42784  19.838  43.082   1.007
70360W        W42785  23.894  14.724   0.472
70361W        W42786  26.226  25.018  10.978
70362W        W42787  11.463  42.645  12.061
70363W        W42788  11.326  23.537  11.021
70364W        W42789  17.598  18.067  12.427
70365W        W42790  42.871  20.781   1.361
70366W        W42791  42.777  26.713  11.145
70367W        W42792  25.037  18.780   4.611
70368W        W42793   9.076   0.275  11.960
70369W        W42794  15.777  30.724  12.992
70370W        W42795   8.860  36.933   2.165
70371W        W42796   5.590  13.194  13.658
70372W        W42797  26.244  40.520   1.482
70373W        W42798  34.341  22.518  13.439
70374W        W42799  22.786  10.680  13.947
70375W        W42800  36.480  43.872  11.118
70376W        W42801   9.847   7.391   4.067
70377W        W42802   9.569   5.303  14.921
70378W        W42803   5.900   0.933  12.422
70379W        W42804  12.673  30.092   0.535
70380W        W42805  19.504  40.566  13.562
70381W        W42806  11.916  39.904  11.671
70382W        W42807  23.715   0.365  14.990
70383W        W42808  17.848   9.133   2.289
70384W        W42809   2.432  13.106   0.970
70385W        W42810  18.711   7.355  10.378
70386W        W42811   1.355  20.584   2.210
70387W        W42812  23.988  19.234   0.040
70388W        W42813  26.331  12.084  13.495
70389W        W42814  30.557  20.782   3.698
70390W        W42815  25.987  41.054   4.487
70391W        W42816  12.307  22.139  13.064
70392W        W42817  43.642  22.409  11.495
70393W        W42818   9.781  32.971  12.919
70394W        W42819   0.882  24.292  11.578
70395W        W42820  27.883  40.374   2.764
70396W        W42821  29.236  23.825  10.595
70397W        W42822  26.507   8.540  10.874
70398W        W42823  26.499   5.707  12.398
70399W        W42824  30.021  37.890   0.766
70400W        W42825  27.765  43.062  11.109
70401W        W42826   1.719   9.252  14.009
70402W        W42827  18.536  33.532   2.906
70403W        W42828  38.031  19.756  13.346
70404W        W42829   3.631  37.446  10.464
70405W        W42830  20.068  35.200   4.287
70406W        W42831  28.927  36.923   3.886
70407W        W42832  18.297  11.273  10.750
70408W        W42833  26.143   8.850   1.143
70409W        W42834  18.014  25.635   2.071
70410W        W42835  40.462   1.197   2.149
70411W        W42836  41.585  16.531   3.377
70412W        W42837  25.789  42.891   1.538
70413W        W42838  21.339  14.612  14.521
70414W        W42839  23.482  13.872  13.333
70415W        W42840  31.018  39.797   3.246
70416W        W42841  19.731  15.775   3.565
70417W        W42842  28.154  17.798   4.793
70418W        W42843  19.074  30.042  14.309
70419W        W42844   0.514  19.167  11.536
70420W        W42845  25.550  23.095  10.718
70421W        W42846  21.584   2.282  14.500
70422W        W42847   1.347  32.946   1.801
70423W        W42848  18.934  35.640  13.404
70424W        W42849  28.617  10.913   2.670
70425W        W42850  34.030  27.560  13.122
70426W        W42851  43.275  24.518   0.743
70427W        W42852  41.436  36.712  10.527
70428W        W42853  42.443  23.106   2.856
70429W        W42854  20.278  30.497  14.365
70430W        W42855  29.113  32.489   0.769
70431W        W42856  33.028  14.534  12.206
70432W        W42857   4.701  33.101  13.311
70433W        W42858  42.541  30.387   2.266
70434W        W42859  24.781   0.464  11.089
70435W        W42860  14.102  41.085  14.317
70436W        W42861  43.324   5.332  12.412
70437W        W42862  20.050  30.902   9.615
70438W        W42863  16.958  38.709   2.358
70439W        W42864  23.168  34.912   4.625
70440W        W42865  24.079  39.066   3.661
70441W        W42866  17.196   9.738   3.104
70442W        W42867  15.240  14.877  13.660
70443W        W42868  16.275   6.664  12.090
70444W        W42869  20.164  23.093   2.789
70445W        W42870   8.901  24.604  11.190
70446W        W42871   0.793  31.480   0.341
70447W        W42872   3.418   0.152  10.685
70448W        W42873   6.347  18.798   0.449
70449W        W42874  34.082  43.601  14.020
70450W        W42875  14.161  39.330  10.697
70451W        W42876   5.276   2.544   4.725
70452W        W42877   1.244  41.500   2.900
70453W        W42878  38.308  15.578  11.080
70454W        W42879   1.225   7.717  10.732
70455W        W42880   6.480   5.843   4.608
70456W        W42881   1.447  11.112  11.085
70457W        W42882  26.995  41.866   4.986
70458W        W42883  30.529  11.799  14.313
70459W        W42884   2.464  19.493  14.989
70460W        W42885  27.621   3.709   1.906
70461W        W42886  33.842   2.898  14.387
70462W        W42887  40.997  18.763  12.031
70463W        W42888  36.880   9.916   1.683
70464W        W42889   3.292  35.989  10.672
70465W        W42890  40.355  37.449   4.943
70466W        W42891  37.575  18.786   0.237
70467W        W42892  13.158  18.518   0.878
70468W        W42893   2.018  36.110   4.172
70469W        W42894  20.103   0.070  10.742
70470W        W42895  10.634  40.844   4.197
70471W        W42896  24.127  11.256   2.788
70472W        W42897   3.404  31.562  12.193
70473W        W42898   7.860  21.603  10.559
70474W        W42899   1.262  41.012   3.092
70475W        W42900   4.291  30.056   4.605
70476W        W42901  16.307  41.826   2.729
70477W        W42902  21.603  44.881   0.451
70478W        W42903   5.838  21.434  10.759
70479W        W42904  11.262  29.582  14.437
70480W        W42905  17.083  13.759  11.418
70481W        W42906  23.574  14.216  11.576
70482W        W42907  17.352  12.130   1.155
70483W        W42908   4.272  11.342   4.654
70484W        W42909  25.675  15.041  10.576
70485W        W42910  17.268   4.032   1.390
70486W        W42911  30.555   7.021   1.389
70487W        W42912  29.168   9.302  11.491
70488W        W42913   1.407  13.804   1.332
70489W        W42914  44.891   2.389   4.917
70490W        W42915   8.229   6.253  14.522
70491W        W42916  16.191  35.934  10.345
70492W        W42917  29.345  11.338  14.986
70493W        W42918  44.431  14.583   4.224
70494W        W42919   6.862   3.311  13.247
70495W        W42920  41.980  12.862   3.794
70496W        W42921  39.536  14.737  11.176
70497W        W42922  24.697  17.306  13.924
70498W        W42923  37.911  14.693  12.562
70499W        W42924   4.310   6.725   2.703
70500W        W42925  17.099  31.861  11.529
70501W        W42926   6.820  24.960   3.946
70502W        W42927  28.370  37.117   4.788
70503W        W42928   2.405  11.189  12.935
70504W        W42929  33.086  28.556  14.793
70505W        W42930  15.543  18.185  12.085
70506W        W42931  27.708  41.834   4.688
70507W        W42932   4.819  19.535  13.333
70508W        W42933   1.227   0.022  11.047
70509W        W42934  30.014  38.531  11.625
70510W        W42935  10.795  35.057  12.028
70511W        W42936  23.088  11.250   0.067
70512W        W42937  31.953  23.048   3.812
70513W        W42938   4.161   0.690  12.160
70514W        W42939  18.573   3.261  12.616
70515W        W42940  24.767  19.726   3.886
70516W        W42941  27.050  14.577  11.508
70517W        W42942  44.057  15.574   2.269
70518W        W42943   5.149   5.495  14.297
70519W        W42944  40.527  24.787   4.647
70520W        W42945  24.414  35.010   2.713
70521W        W42946  31.317  40.301   2.368
70522W        W42947  43.750  38.921  14.143
70523W        W42948  18.756  19.112   4.094
70524W        W42949  29.261  39.079   4.360
70525W        W42950  16.986   6.515  11.478
70526W        W42951  44.525  17.300  14.702
70527W        W42952  19.023  20.685   0.894
70528W        W42953  15.104  10.334   3.342
70529W        W42954  30.427   4.181   3.407
70530W        W42955  26.441   5.147  14.234
70531W        W42956   8.545  31.364   4.242
70532W        W42957  42.534  17.197   4.531
70533W        W42958  29.671   9.374  11.986
70534W        W42959   5.247  41.506  12.657
70535W        W42960  17.181  25.156  13.042
70536W        W42961  18.269   8.816   4.301
70537W        W42962  34.332  22.383   0.525
70538W        W42963  42.075   3.205   1.661
70539W        W42964  39.539   0.226   0.118
70540W        W42965  25.487  40.036  10.858
70541W        W42966  42.530   9.755   0.390
70542W        W42967  33.027   8.723  12.890
70543W        W42968  38.040  29.582  14.882
70544W        W42969  11.281  11.023  11.134
70545W        W42970  10.427   9.849  12.606
70546W        W42971  22.235   3.603  14.963
70547W        W42972  35.263  19.611   2.810
70548W        W42973   4.890  29.671   2.731
70549W        W42974  18.425   0.769   4.303
70550W        W42975  16.087  18.765   3.290
70551W        W42976   6.470   1.049  11.563
70552W        W42977   2.215  37.115   3.722
70553W        W42978  14.637  17.501   0.515
70554W        W42979   0.298  10.141   0.558
70555W        W42980  25.911   4.210  13.363
70556W        W42981  37.793  25.499  10.635
70557W        W42982  25.119  27.198   1.429
70558W        W42983  41.287   4.869   1.702
70559W        W42984  27.180  32.805  12.014
70560W        W42985  37.446  13.661  11.964
70561W        W42986  22.019  30.964   1.779
70562W        W42987  31.548   0.042   0.848
70563W        W42988  21.780  24.263  14.428
70564W        W42989  26.759  36.734   4.451
70565W        W42990  40.262   7.710   3.064
70566W        W42991   3.371  12.004   3.265
70567W        W42992   1.890  28.111  10.729
70568W        W42993  14.174   1.302  14.232
70569W        W42994  38.509   5.835   0.340
70570W        W42995  22.784   1.679  14.499
70571W        W42996  33.306   8.338   3.028
70572W        W42997  24.980  28.130   2.718
70573W        W42998  13.805   3.243   3.938
70574W        W42999  20.146  24.657  13.385
70575W        W43000  17.773  36.502  14.067
70576W        W43001  19.003  28.734   0.415
70577W        W43002  38.429  14.254   0.310
70578W        W43003  11.833  16.095  10.718
70579W        W43004   5.672  38.069   1.357
70580W        W43005  22.679  44.233  14.911
70581W        W43006  34.061  18.465   4.189
70582W        W43007  43.687  33.134  12.503
70583W        W43008  12.973  12.790   2.280
70584W        W43009  22.017  25.801   3.313
70585W        W43010  18.839   2.178  10.741
70586W        W43011   3.697  36.347   2.559
70587W        W43012   6.338  25.256   0.421
70588W        W43013  20.584  20.009   1.932
70589W        W43014  27.036   0.245   0.850
70590W        W43015   4.691   3.491   4.654
70591W        W43016  26.542  14.707  14.387
70592W        W43017  13.804   6.717  11.136
70593W        W43018   3.435  28.055   4.630
70594W        W43019  13.230  10.664   0.226
70595W        W43020   0.961   9.317   1.445
70596W        W43021  15.635  20.765   1.321
70597W        W43022   7.587  13.163   2.489
70598W        W43023  43.546  44.814   3.611
70599W        W43024  30.347  20.820  11.830
70600W        W43025  19.631  28.010   1.006
70601W        W43026  12.423  44.823  13.543
70602W        W43027  12.140   5.692   4.583
70603W        W43028  23.485  15.817  11.708
70604W        W43029  25.546  32.875  11.332
70605W        W43030   6.798  23.214   1.850
70606W        W43031  24.960   5.454  11.440
70607W        W43032  11.539  33.851   2.952
70608W        W43033  36.923  17.360   2.715
70609W        W43034  40.208  29.520   5.106
70610W        W43035   5.358  29.929   0.305
70611W        W43036  37.808  39.862   3.655
70612W        W43037   4.516  37.034   0.535
70613W        W43038   2.908  39.057  11.048
70614W        W43039  10.191  32.891   4.122
70615W        W43040  34.170  12.797  10.680
70616W        W43041   0.487   2.168   0.452
70617W        W43042  29.371  27.630   0.490
70618W        W43043  40.526   1.998  12.175
70619W        W43044   4.717  22.105   4.291
70620W        W43045  16.259  44.749   2.376
70621W        W43046   4.850  39.020  12.525
70622W        W43047   8.435   6.007   3.767
70623W        W43048   2.805  36.972   0.463
70624W        W43049  41.862  25.117  12.311
70625W        W43050  13.597  26.274  14.828
70626W        W43051   9.851  15.625  12.328
70627W        W43052  12.712  14.157   1.993
70628W        W43053  29.477  39.132   0.280
70629W        W43054   4.485  17.459  13.918
70630W        W43055  10.810  12.528   0.345
70631W        W43056  21.711  38.600   3.225
70632W        W43057   4.167  41.787   4.213
70633W        W43058  39.136  20.162   2.827
70634W        W43059  22.683  44.049  13.608
70635W        W43060  29.682  11.779  14.829
70636W        W43061  37.804   0.947  11.876
70637W        W43062   8.171  21.281  12.500
70638W        W43063  39.114  27.883   3.229
70639W        W43064   4.361  31.033  14.958
70640W        W43065  37.855  38.894  11.976
70641W        W43066   6.679   0.563  11.484
70642W        W43067   9.645  42.556   2.434
70643W        W43068  44.000  25.249   0.721
70644W        W43069   2.965   6.329   3.788
70645W        W43070  29.460  36.056  13.379
70646W        W43071   8.719   1.367   0.177
70647W        W43072  38.722  40.690  12.075
70648W        W43073  29.727  23.674  10.668
70649W        W43074  38.424  19.224   1.166
70650W        W43075  18.913  13.410  12.582
70651W        W43076  18.776   2.251  11.626
70652W        W43077  26.007  10.236  13.739
70653W        W43078  19.796  24.160  13.309
70654W        W43079  34.116  34.101   0.749
70655W        W43080  34.866  17.523  14.460
70656W        W43081  17.625  14.104   3.278
70657W        W43082  42.183  37.544   2.820
70658W        W43083  12.733  27.053   2.488
70659W        W43084  27.944   2.996   3.247
70660W        W43085  13.370  32.664  12.460
70661W        W43086  37.539  33.115   1.719
70662W        W43087  14.795  25.518   1.755
70663W        W43088  34.703  16.428   0.878
70664W        W43089   3.759  18.815  12.106
70665W        W43090  28.227  21.982  14.442
70666W        W43091  42.743  28.897  13.340
70667W        W43092  38.948  27.050  11.551
70668W        W43093   9.823   4.138   2.657
70669W        W43094  27.897  17.844   0.801
70670W        W43095  11.129  32.598  13.806
70671W        W43096   7.596  37.362  11.631
70672W        W43097   1.946  28.439  11.134
70673W        W43098  24.137  40.817   2.378
70674W        W43099  25.210  36.927   2.801
70675W        W43100  34.957   4.431   2.082
70676W        W43101  26.922   5.516   0.878
70677W        W43102  33.422  19.378   0.324
70678W        W43103  35.843   3.800   1.738
70679W        W43104  33.177  26.042   0.363
70680W        W43105  35.021  38.129  12.060
70681W        W43106   0.928  34.485  14.943
70682W        W43107  11.826  18.761   3.215
70683W        W43108  13.437  16.141   1.415
70684W        W43109  11.554  21.624   2.654
70685W        W43110  22.429   8.527  14.723
70686W        W43111  34.835  28.945  12.671
70687W        W43112  14.345  44.934   4.776
70688W        W43113  32.102   4.343  14.455
70689W        W43114  24.620   9.178   2.819
70690W        W43115   6.369  32.851  12.790
70691W        W43116  41.456  34.025   2.356
70692W        W43117  15.786  44.116   2.657
70693W        W43118  38.432  17.903  10.341
70694W        W43119   1.470  25.591   3.025
70695W        W43120  20.570  11.930  11.421
70696W        W43121  39.155   9.307   2.238
70697W        W43122   5.614  37.371   2.063
70698W        W43123  33.855  32.574  12.875
70699W        W43124  41.415   1.023   2.843
70700W        W43125  11.406  16.438  13.414
70701W        W43126  36.961   0.987  12.184
70702W        W43127  26.067   2.476   2.586
70703W        W43128  11.984   4.405  13.851
70704W        W43129  30.263  10.658  11.142
70705W        W43130  20.099   1.935  12.907
70706W        W43131  32.599  38.446  10.753
70707W        W43132  12.119  25.609  13.798
70708W        W43133   6.775   0.881  11.109
70709W        W43134   1.564  40.932   1.742
70710W        W43135  32.218  12.463   0.135
70711W        W43136  22.337  10.348  12.470
70712W        W43137  26.035  24.213   3.095
70713W        W43138  17.338   3.169  10.438
70714W        W43139  16.120  22.144  11.347
70715W        W43140  28.576  38.930  13.442
70716W        W43141  16.540  32.789  14.414
70717W        W43142  30.484  19.300  13.438
70718W        W43143  28.505  36.917  13.421
70719W        W43144  24.950  21.057  11.508
70720W        W43145  28.577   3.931  11.938
70721W        W43146  16.195  32.914   3.250
70722W        W43147   7.535   5.790  11.614
70723W        W43148  29.111  34.561   3.591
70724W        W43149   6.436  15.270   3.594
70725W        W43150  14.187   0.692  11.931
70726W        W43151  10.919  28.973  11.088
70727W        W43152  17.679  39.585   0.115
70728W        W43153  18.717  13.251  13.893
70729W        W43154   2.618  16.518  12.369
70730W        W43155  39.236  36.455   2.782
70731W        W43156  31.675  27.074  11.552
70732W        W43157   0.001  10.527   0.346
70733W        W43158  17.164  12.722  14.524
70734W        W43159   6.854  34.411  12.663
70735W        W43160  29.833   7.786   2.028
70736W        W43161  18.807  28.076  13.002
70737W        W43162  35.192  41.479   4.548
70738W        W43163   7.651  44.325  11.677
70739W        W43164  26.721   9.303  14.366
70740W        W43165  39.653  40.292   1.840
70741W        W43166  10.923  17.626  12.959
70742W        W43167  39.858   3.763  13.669
70743W        W43168  41.781   3.740  13.158
70744W        W43169  25.549   4.847   4.154
70745W        W43170  31.586  12.787  12.071
70746W        W43171  15.569  37.392   4.526
70747W        W43172  16.779   4.866  12.523
70748W        W43173  39.314  18.090  10.668
70749W        W43174   4.908  36.319   0.673
70750W        W43175  15.644  15.821  11.471
70751W        W43176  17.784   6.354   4.401
70752W        W43177  18.018  27.621  11.926
70753W        W43178   2.830  42.418   4.605
70754W        W43179  29.515  10.913   1.924
70755W        W43180  24.299   5.946  14.927
70756W        W43181   4.275  26.041   0.037
70757W        W43182  44.537  26.557   4.538
70758W        W43183  29.155  25.459   4.139
70759W        W43184  17.470   1.456   2.796
70760W        W43185  16.117  22.591   1.608
70761W        W43186  42.158   5.608   4.599
70762W        W43187  38.563  35.568  12.522
70763W        W43188  32.312  29.443  11.066
70764W        W43189  13.545  34.339  11.014
70765W        W43190   9.203   8.626   5.539
70766W        W43191   9.882  20.234   2.761
70767W        W43192  24.433  36.811  11.617
70768W        W43193  24.942   6.786  13.850
70769W        W43194  31.305  42.857   2.941
70770W        W43195  10.763  36.135   3.082
70771W        W43196   4.145   7.740   3.831
70772W        W43197  43.790  16.305  13.800
70773W        W43198  20.606   0.819  14.791
70774W        W43199  17.617   2.484  10.946
70775W        W43200  21.923  35.596   1.871
70776W        W43201   6.160  43.861   2.941
70777W        W43202  15.760   9.927   3.207
70778W        W43203   7.415   6.168   3.188
70779W        W43204   3.985   2.847  13.772
70780W        W43205  20.244  20.780  11.115
70781W        W43206  15.607  38.975  12.366
70782W        W43207  14.194  23.061  14.299
70783W        W43208  32.327   3.449  12.506
70784W        W43209  35.022  35.350  12.963
70785W        W43210  38.855  27.084   1.978
70786W        W43211  23.651   9.204  13.185
70787W        W43212  27.537   0.669  13.576
70788W        W43213  33.360  44.850   0.070
70789W        W43214  26.064  40.595  14.399
70790W        W43215  42.811  21.047   3.945
70791W        W43216  26.043  10.876  11.266
70792W        W43217  38.973  27.116  14.923
70793W        W43218   9.246  32.904  14.962
70794W        W43219  21.505  27.552   1.622
70795W        W43220   4.818  32.240  10.310
70796W        W43221  41.308  17.670  12.941
70797W        W43222  28.679   6.328  14.037
70798W        W43223  34.117  40.272   3.071
70799W        W43224  20.051  32.455  12.815
70800W        W43225  17.543  43.976  13.989
70801W        W43226   4.552  37.021  14.639
70802W        W43227  10.648  26.723   4.184
70803W        W43228  39.302  34.197   2.575
70804W        W43229   5.403   2.178  12.568
70805W        W43230  13.702   3.764  11.810
70806W        W43231  31.213   4.762  13.583
70807W        W43232  43.862  33.948   1.456
70808W        W43233  33.603  42.276  13.033
70809W        W43234  22.950  43.936   4.870
70810W        W43235  16.133   1.316  12.426
70811W        W43236  26.516  38.393   3.885
70812W        W43237  12.188  15.096   2.205
70813W        W43238  36.689   6.851   1.971
70814W        W43239  12.391   9.871  14.422
70815W        W43240  11.715  18.157   3.876
70816W        W43241  19.764   1.862   2.871
70817W        W43242  36.111  37.082  14.517
70818W        W43243  17.171  29.408  14.840
70819W        W43244   2.610  14.271   2.211
70820W        W43245  17.781  21.159  10.929
70821W        W43246  13.083  31.991   2.856
70822W        W43247  35.597   1.753  13.930
70823W        W43248  21.727  24.046   1.427
70824W        W43249   9.932  19.980   3.691
70825W        W43250  32.476  28.008  13.073
70826W        W43251  22.331   2.783  12.034
70827W        W43252  25.986  16.062  11.027
70828W        W43253  43.409  40.140  13.980
70829W        W43254  20.545  25.584   1.360
70830W        W43255   4.997  20.618  14.423
70831W        W43256  33.339  34.896  14.615
70832W        W43257   3.226  17.590  11.189
70833W        W43258  29.108   9.670   1.890
70834W        W43259  13.084  24.078   3.600
70835W        W43260  41.237  26.537   4.630
70836W        W43261  29.648  28.074  10.609
70837W        W43262  30.783   1.325   3.660
70838W        W43263   1.436  37.971  14.399
70839W        W43264  40.021  30.508  13.977
70840W        W43265   9.475  14.782   4.126
70841W        W43266  33.932  31.354  14.303
70842W        W43267   1.013  38.370  14.051
70843W        W43268  23.286   5.898  13.744
70844W        W43269   6.487   8.024  12.408
70845W        W43270  36.989  27.621  14.711
70846W        W43271  27.442  13.320  14.028
70847W        W43272  39.758   4.378  13.077
70848W        W43273   2.751  37.625  12.102
70849W        W43274  34.830  21.121   2.777
70850W        W43275   8.607   5.638   0.855
70851W        W43276  17.897  32.562  10.968
70852W        W43277  24.143  38.314   0.356
70853W        W43278  44.811  20.033   2.899
70854W        W43279  10.936   2.356  11.186
70855W        W43280  43.804  43.756  13.491
70856W        W43281  27.728   0.426   1.673
70857W        W43282  18.596   5.673  14.997
70858W        W43283   6.768   9.755  14.814
70859W        W43284  36.147   2.515   0.295
70860W        W43285   3.280  32.469   0.553
70861W        W43286   6.411  43.723   4.790
70862W        W43287  12.958  40.357   3.050
70863W        W43288  24.203  10.681   5.512
70864W        W43289  26.584  41.006   3.759
70865W        W43290   6.823  25.725   4.642
70866W        W43291  36.990  14.633   0.339
70867W        W43292  38.576   3.801  11.880
70868W        W43293  33.024  22.558  11.396
70869W        W43294   1.321  42.720  11.632
70870W        W43295  23.990  16.205  14.373
70871W        W43296  14.298  25.908  11.225
70872W        W43297  36.039  44.007  12.768
70873W        W43298  30.429  27.117  14.204
70874W        W43299  18.913  11.623   5.251
70875W        W43300  42.590  41.283  13.597
70876W        W43301  23.536  40.522   1.809
70877W        W43302  10.743  38.071   2.261
70878W        W43303  21.017  38.860  13.773
70879W        W43304   4.332  38.275  12.550
70880W        W43305  16.853  32.995  12.372
70881W        W43306  35.686   8.602  11.221
70882W        W43307  19.135  25.297   2.816
70883W        W43308  28.079   7.628   0.058
70884W        W43309  41.773  12.400   1.228
70885W        W43310  12.056  30.523  11.568
70886W        W43311  28.319  29.479   3.051
70887W        W43312   8.951  37.584   3.272
70888W        W43313  42.866  19.937  11.150
70889W        W43314   7.403  42.735  12.779
70890W        W43315  37.850   8.328  13.442
70891W        W43316  24.626  12.422   2.842
70892W        W43317   6.171  31.939  13.023
70893W        W43318   7.509  34.854   9.866
70894W        W43319  30.472   6.450  11.452
70895W        W43320  14.291  28.847   4.255
70896W        W43321  20.630  21.254  14.027
70897W        W43322   5.359  15.353  12.415
70898W        W43323   0.591  42.870   4.197
70899W        W43324   7.148  30.040  13.667
70900W        W43325  35.084  17.050   3.070
70901W        W43326  44.590  37.006  13.923
70902W        W43327  39.454  36.311  11.552
70903W        W43328  16.269  16.371   0.632
70904W        W43329  22.959  22.435   1.849
70905W        W43330  14.814  39.537   1.445
70906W        W43331   8.972  10.818   3.873
70907W        W43332  27.997   8.866  13.284
70908W        W43333  19.322  11.801  14.880
70909W        W43334  26.629   6.689   4.936
70910W        W43335   6.185  15.817   0.382
70911W        W43336  22.728  27.068   3.485
70912W        W43337  27.553  11.776   2.847
70913W        W43338  23.337  40.758  11.348
70914W        W43339   3.110  20.735   0.777
70915W        W43340  19.758  34.527   4.264
70916W        W43341  29.190  35.806  14.131
70917W        W43342  27.199   4.710   4.716
70918W        W43343  10.350   6.384   9.750
70919W        W43344  31.410  25.655  12.994
70920W        W43345  39.898  28.722  14.943
70921W        W43346  10.669  20.948  12.206
70922W        W43347  38.414  37.595   1.687
70923W        W43348  32.066  37.993  13.890
70924W        W43349   9.003   7.318   0.889
70925W        W43350   6.823   1.862   0.989
70926W        W43351  15.185  11.144  13.840
70927W        W43352  20.702   3.373   4.624
70928W        W43353  18.489   4.743  12.562
70929W        W43354  28.419  30.372  11.707
70930W        W43355  32.254   5.121  14.080
70931W        W43356  24.269  44.411  12.142
70932W        W43357   8.941   5.755   4.548
70933W        W43358  28.153   3.267   4.231
70934W        W43359   5.298  27.037  14.638
70935W        W43360  38.810   8.328   4.740
70936W        W43361  20.143  31.915   3.813
70937W        W43362  26.762  41.721  12.887
70938W        W43363   3.012  39.680  12.510
70939W        W43364  24.387  12.452   2.106
70940W        W43365  28.916  43.212   3.759
70941W        W43366  42.415  43.008   0.213
70942W        W43367  38.079  11.176   1.003
70943W        W43368  18.034  15.859   0.819
70944W        W43369  10.276  30.221  14.998
70945W        W43370   8.203  19.006  12.073
70946W        W43371  27.928  25.784  13.794
70947W        W43372  26.015  31.097   0.565
70948W        W43373  16.174  17.014   3.661
70949W        W43374   3.245  40.328   1.874
70950W        W43375   4.984  21.116  11.312
70951W        W43376  32.630  42.334   4.621
70952W        W43377   4.041  40.453   1.449
70953W        W43378   3.240  19.403   0.621
70954W        W43379  40.905  15.620   1.098
70955W        W43380  20.686  19.192  13.832
70956W        W43381  15.468   9.960   1.582
70957W        W43382  31.012  19.265   3.625
70958W        W43383  11.586  42.444   1.978
70959W        W43384   9.477  24.742  12.922
70960W        W43385  16.197   8.640   0.304
70961W        W43386  31.005   3.296   2.275
70962W        W43387  43.881   0.775   1.396
70963W        W43388  36.490   5.187   0.426
70964W        W43389  12.718   0.993  13.516
70965W        W43390  12.291  28.022  11.219
70966W        W43391  28.289  14.393   5.038
70967W        W43392  39.461  34.064  13.040
70968W        W43393  25.732  34.941   3.355
70969W        W43394   2.675  27.957  12.573
70970W        W43395  44.059  27.012  13.840
70971W        W43396  30.017   3.421  13.346
70972W        W43397   3.385  22.112  12.322
70973W        W43398  14.228  25.228   9.999
70974W        W43399  43.290  40.960   1.275
70975W        W43400  18.006  44.810   3.540
70976W        W43401  32.370  18.485   1.649
70977W        W43402  27.679   8.426  12.105
70978W        W43403  38.285  20.157   3.290
70979W        W43404  15.815  20.100  11.893
70980W        W43405   5.725   7.233   4.963
70981W        W43406  34.859  35.326  13.480
70982W        W43407  16.774   7.950  11.968
70983W        W43408   7.570  36.973   0.899
70984W        W43409  18.363   7.902   4.463
70985W        W43410  17.485  11.633   2.237
70986W        W43411  44.897  25.962  13.552
70987W        W43412  16.846  22.629   2.812
70988W        W43413  21.416   7.145   0.872
70989W        W43414  15.404   8.145   0.315
70990W        W43415  31.995  38.291   0.452
70991W        W43416  16.251  36.793  14.434
70992W        W43417  11.546  18.956  14.275
70993W        W43418  30.790   9.321  13.497
70994W        W43419  10.618   4.283  12.491
70995W        W43420  38.766   1.969  11.028
70996W        W43421  10.197   1.071   3.813
70997W        W43422  35.158   7.130  10.290
70998W        W43423  30.086  34.498   3.612
70999W        W43424  43.928  34.551   2.302
71000W        W43425   0.377  11.650   1.676
71001W        W43426  21.004  29.178   3.551
71002W        W43427  29.942  32.346   2.732
71003W        W43428   7.798  20.595  12.980
71004W        W43429  18.862  43.137  11.003
71005W        W43430  36.924  22.895   1.476
71006W        W43431  39.597  34.590   2.737
71007W        W43432  15.185  11.755   3.147
71008W        W43433   9.834  21.621  13.607
71009W        W43434  26.176  32.023  11.076
71010W        W43435  41.367  39.788   0.311
71011W        W43436  22.966  10.164  10.973
71012W        W43437  13.584   6.181   4.258
71013W        W43438  32.949  14.571   2.277
71014W        W43439  32.176  26.921   3.437
71015W        W43440  41.877  12.864  13.075
71016W        W43441  42.378   1.969   2.034
71017W        W43442  14.316   2.696  14.307
71018W        W43443  30.416  10.729   1.838
71019W        W43444  31.368  36.472  14.881
71020W        W43445  27.975   3.563   4.647
71021W        W43446   7.786  24.621  14.376
71022W        W43447   9.329  39.748  12.520
71023W        W43448  13.641  40.811  13.364
71024W        W43449  31.113  38.947  14.180
71025W        W43450  14.318  37.488   1.127
71026W        W43451  42.104  19.820   3.190
71027W        W43452  14.066  29.254  12.113
71028W        W43453  23.742  26.168   1.089
71029W        W43454  21.920  21.263   4.064
71030W        W43455  10.435  20.025   3.758
71031W        W43456  42.899  12.909  11.430
71032W        W43457   6.785  43.404   2.053
71033W        W43458  39.013  11.396  14.891
71034W        W43459  13.587  20.381  12.031
71035W        W43460  13.706  18.684  10.642
71036W        W43461  30.854   3.806  14.325
71037W        W43462  12.069  11.204  11.583
71038W        W43463  38.481   6.757  13.265
71039W        W43464  16.609  28.271   1.464
71040W        W43465  33.880  16.884   2.080
71041W        W43466  12.091  18.794  10.673
71042W        W43467  28.044   0.287   4.508
71043W        W43468   0.084  34.799   4.536
71044W        W43469  12.391  34.856   0.000
71045W        W43470   5.375  22.278   3.760
71046W        W43471  15.748   1.279  14.381
71047W        W43472  14.932  29.537  14.743
71048W        W43473  19.919  20.773   2.343
71049W        W43474  34.479  36.450  11.697
71050W        W43475  12.093  17.192  14.342
71051W        W43476  21.232  41.570   3.549
71052W        W43477  43.322  42.336  12.280
71053W        W43478  38.366  17.613   0.839
71054W        W43479  25.335  28.128  10.296
71055W        W43480  31.503  42.467   0.743
71056W        W43481  23.907  24.171  10.667
71057W        W43482  20.288  28.915   1.758
71058W        W43483  33.347  32.455  12.908
71059W        W43484   7.518  23.627  13.420
71060W        W43485  25.203   9.307  13.101
71061W        W43486  13.925  30.082  14.546
71062W        W43487  42.701   0.143  14.425
71063W        W43488  36.330  22.710   3.810
71064W        W43489  44.357  43.844  12.332
71065W        W43490   1.765   5.368   4.310
71066W        W43491   4.179  16.588   2.636
71067W        W43492  12.730  33.636  12.969
71068W        W43493  15.694   9.344   0.320
71069W        W43494  34.952   8.671   4.586
71070W        W43495  37.808  37.144  11.155
71071W        W43496  18.543  35.369  12.515
71072W        W43497  19.221  44.896   3.197
71073W        W43498  21.035  14.886   5.033
71074W        W43499  22.701  25.216  14.989
71075W        W43500  42.797  22.440   2.130
71076W        W43501  40.534  36.940   4.821
71077W        W43502  20.097   0.114   3.156
71078W        W43503  43.725   6.364   3.676
71079W        W43504   4.252  35.352  11.106
71080W        W43505   2.170   2.435   4.532
71081W        W43506  38.483  21.211  11.374
71082W        W43507   6.310   0.855   5.091
71083W        W43508  20.564  13.281  13.531
71084W        W43509  21.564  30.440   0.867
71085W        W43510  19.714  44.764   3.118
71086W        W43511   7.058   5.684  11.746
71087W        W43512  28.678  29.431   1.301
71088W        W43513  21.417   1.229  11.260
71089W        W43514  23.770  42.875   1.829
71090W        W43515  18.202  27.211  11.645
71091W        W43516   1.864  37.845  10.988
71092W        W43517  37.660  35.504   3.381
71093W        W43518  22.296  39.953   0.941
71094W        W43519  25.877  33.729   1.316
71095W        W43520   8.172  12.770   0.527
71096W        W43521  37.143  34.919   1.343
71097W        W43522   8.616  28.557   1.504
71098W        W43523   3.361  10.693   0.479
71099W        W43524  41.182  43.300   4.174
71100W        W43525  39.819  37.805  14.925
71101W        W43526   5.815  10.373  11.378
71102W        W43527   1.734  17.818   2.779
71103W        W43528  26.024  42.478   4.888
71104W        W43529  39.393   2.480   1.597
71105W        W43530   0.195   1.872   1.795
71106W        W43531  27.086  43.853  10.890
71107W        W43532  42.790   5.282   3.243
71108W        W43533  19.755  19.976   4.172
71109W        W43534   1.476  40.342   0.935
71110W        W43535  22.908  26.597  12.094
71111W        W43536  33.051   2.465  14.827
71112W        W43537   6.654  17.091   0.709
71113W        W43538  41.004  18.431   2.659
71114W        W43539  36.515  32.326  10.428
71115W        W43540  22.246   2.746  13.111
71116W        W43541  23.096  39.550   0.745
71117W        W43542  23.756  10.771  13.040
71118W        W43543  22.101  41.023   2.410
71119W        W43544  44.018   1.383  11.653
71120W        W43545  27.426  11.741  12.507
71121W        W43546  14.085  41.979   1.348
71122W        W43547  38.545   1.767   3.055
71123W        W43548  18.664   7.351  11.259
71124W        W43549  30.116  18.440  10.558
71125W        W43550  34.714   4.416  14.185
71126W        W43551  27.702  43.765  14.817
71127W        W43552  33.136  17.328  14.450
71128W        W43553   1.889   8.716  13.526
71129W        W43554  34.329  20.572   2.349
71130W        W43555  43.366   8.156   0.800
71131W        W43556  13.136  21.128  11.049
71132W        W43557  32.936  34.131  10.669
71133W        W43558  16.981  23.916  12.148
71134W        W43559  34.394  33.844   1.117
71135W        W43560   8.683  40.293   1.662
71136W        W43561  12.143  10.951  12.118
71137W        W43562  13.536   9.849  13.511
71138W        W43563  22.517  33.982  11.410
71139W        W43564  30.393  35.605  11.905
71140W        W43565  26.400  32.449  10.893
71141W        W43566  14.338  10.166   2.851
71142W        W43567  13.855  12.298   1.643
71143W        W43568  24.426  19.646   0.367
71144W        W43569  18.670  28.185   4.065
71145W        W43570  22.107  31.982  10.903
71146W        W43571  31.364   0.816  12.124
71147W        W43572  41.487  25.543   0.263
71148W        W43573   8.458  18.350   2.871
71149W        W43574  25.446  32.916   0.703
71150W        W43575  35.559  21.297  13.462
71151W        W43576   2.968  41.306  13.908
71152W        W43577  16.267  37.619  13.937
71153W        W43578  27.505  10.014  13.029
71154W        W43579  17.641  34.018  13.924
71155W        W43580  31.507  25.625   1.774
71156W        W43581   6.141  29.857  13.335
71157W        W43582  22.454  12.152  13.852
71158W        W43583  22.114   9.718  12.893
71159W        W43584  21.161   5.829   2.786
71160W        W43585  30.390   4.759   0.404
71161W        W43586  19.936   7.365  10.677
71162W        W43587  24.772  15.848  11.534
71163W        W43588  22.475  11.588   0.394
71164W        W43589  10.877  14.138  10.581
71165W        W43590  36.966  43.294  10.508
71166W        W43591  28.993  42.351   4.500
71167W        W43592  31.874  26.976   3.861
71168W        W43593  14.150   0.708   0.922
71169W        W43594  22.675  39.818   1.912
71170W        W43595   9.353  25.105   2.327
71171W        W43596  28.980  11.057  11.018
71172W        W43597  17.048  42.382  10.548
71173W        W43598  32.945  18.476   0.075
71174W        W43599  36.101  13.838  11.437
71175W        W43600  31.570  43.426  14.063
71176W        W43601  33.818  37.578   4.174
71177W        W43602  15.182  32.122   0.172
71178W        W43603  23.706  43.048  13.051
71179W        W43604  29.359  37.476  14.885
71180W        W43605  15.831  19.657  13.477
71181W        W43606  38.863  29.667  12.931
71182W        W43607   6.303  30.150  11.155
71183W        W43608  11.596  10.395  10.804
71184W        W43609  40.077  38.178  14.425
71185W        W43610   3.442  44.320   0.976
71186W        W43611  23.309  31.453  13.944
71187W        W43612   9.865  36.971  10.796
71188W        W43613  20.697  43.703   0.792
71189W        W43614   4.897  22.566   2.451
71190W        W43615  42.943   0.750   4.557
71191W        W43616  14.800  16.822   3.838
71192W        W43617  28.588  37.631  11.997
71193W        W43618  17.771   1.556  10.983
71194W        W43619   8.212  25.393  12.891
71195W        W43620  18.666  20.979  12.910
71196W        W43621  23.133  28.877  12.048
71197W        W43622  42.054  26.275  11.211
71198W        W43623  21.533  37.070  10.696
71199W        W43624  22.931   8.448   0.012
71200W        W43625  39.562  11.618  11.638
71201W        W43626  36.621   3.280   2.637
71202W        W43627  28.896   9.308   2.179
71203W        W43628  13.329  19.090  14.336
71204W        W43629   7.670   7.674   2.260
71205W        W43630  33.566  24.762  14.945
71206W        W43631  36.571  14.881  12.331
71207W        W43632  15.091  29.449   0.783
71208W        W43633  22.099  13.722  11.266
71209W        W43634  26.131  13.840  10.731
71210W        W43635  16.045  30.249  11.433
71211W        W43636  43.207  20.402   1.296
71212W        W43637  17.168  29.931  14.794
71213W        W43638  22.163  28.531   2.777
71214W        W43639  33.671  27.844  11.149
71215W        W43640   3.750  24.130   0.811
71216W        W43641  33.089  22.950  14.879
71217W        W43642  26.484  28.022  14.336
71218W        W43643   4.437  22.115   3.835
71219W        W43644  25.576  16.533   1.459
71220W        W43645   6.084  15.562  11.289
71221W        W43646   5.897  41.371   4.240
71222W        W43647  20.642  19.657   2.814
71223W        W43648  23.606  20.505  13.781
71224W        W43649  21.174   5.917   2.264
71225W        W43650  39.799  21.638   1.870
71226W        W43651  14.280  40.031  11.439
71227W        W43652  38.299  40.329  14.996
71228W        W43653   8.501  12.070   0.963
71229W        W43654   9.631  39.336  12.606
71230W        W43655  19.298  32.826   3.740
71231W        W43656   1.082  38.080   3.267
71232W        W43657  40.660  36.493  11.190
71233W        W43658  36.997  34.106  10.403
71234W        W43659  11.512  35.482   0.010
71235W        W43660  18.186   6.149  11.234
71236W        W43661  25.468  17.702  13.581
71237W        W43662  11.861  40.361  11.926
71238W        W43663  33.755  42.052  13.771
71239W        W43664  43.391   7.386   3.076
71240W        W43665  13.572   8.898   3.677
71241W        W43666   8.797   1.504   1.217
71242W        W43667  22.113  21.668   1.032
71243W        W43668  13.827   6.934   1.295
71244W        W43669  25.104  38.370   3.250
71245W        W43670  41.950  25.581  10.617
71246W        W43671  42.097  39.828   3.070
71247W        W43672  41.138  11.795  14.068
71248W        W43673   7.937  33.531   2.780
71249W        W43674  22.096  32.957  11.529
71250W        W43675   5.108  42.897   0.461
71251W        W43676  27.224   2.941  12.221
71252W        W43677   9.508  19.603   1.169
71253W        W43678  26.567   4.875  12.871
71254W        W43679   2.872   4.256   1.123
71255W        W43680  33.001  26.696  10.430
71256W        W43681  12.716  14.168   1.466
71257W        W43682  39.797  13.597  14.081
71258W        W43683  15.192   3.865   1.194
71259W        W43684  30.553   3.361   4.711
71260W        W43685  30.423  35.757   3.282
71261W        W43686  16.082  10.552   0.400
71262W        W43687  17.887  16.079  14.605
71263W        W43688  26.250  43.606   2.453
71264W        W43689  13.037  32.928   1.417
71265W        W43690  33.884   7.923  10.721
71266W        W43691  32.147  12.074   0.528
71267W        W43692  32.371   4.399   0.713
71268W        W43693  34.904  17.230   0.681
71269W        W43694  38.486   4.250  12.548
71270W        W43695  44.098  25.273  13.561
71271W        W43696  42.346  32.550   4.585
71272W        W43697  38.986  11.634   2.601
71273W        W43698   1.544  32.928   2.279
71274W        W43699  38.142  43.506  11.939
71275W        W43700  19.416   5.379  14.348
71276W        W43701  14.561   6.083  11.789
71277W        W43702  20.260  16.216  10.738
71278W        W43703   3.577  17.472   3.219
71279W        W43704   3.245  36.404   2.298
71280W        W43705  34.126  30.971  10.715
71281W        W43706  40.894  18.234   1.299
71282W        W43707   1.744  35.862  12.023
71283W        W43708   5.824   1.266   2.121
71284W        W43709   5.093  21.691   3.245
71285W        W43710  30.972  30.963  10.859
71286W        W43711  44.436   2.842   1.957
71287W        W43712  15.067  19.653  12.131
71288W        W43713  20.167  38.966  13.073
71289W        W43714  16.644  41.894  14.529
71290W        W43715  41.288  38.225   4.128
71291W        W43716  28.990   8.814  10.745
71292W        W43717  23.547  10.435  13.697
71293W        W43718  26.041  10.703   4.556
71294W        W43719  11.134   3.504  14.905
71295W        W43720   0.558   6.684  11.016
71296W        W43721  24.194  16.627  14.581
71297W        W43722   8.958  26.872   3.744
71298W        W43723   1.942  43.810   1.214
71299W        W43724  37.415  21.122   3.257
71300W        W43725  34.885  37.771   3.332
71301W        W43726  34.052   6.814   0.479
71302W        W43727   4.749  34.353   3.194
71303W        W43728  17.185  11.164   2.674
71304W        W43729  11.860  28.317  12.959
71305W        W43730  17.604  22.068  13.192
71306W        W43731  14.706   1.435  14.507
71307W        W43732  23.522   8.429   4.069
71308W        W43733  20.154   2.950   2.426
71309W        W43734  33.680  32.460  13.806
71310W        W43735   9.261   8.875  11.460
71311W        W43736  32.233  31.418   1.360
71312W        W43737  40.709  36.040  11.454
71313W        W43738   5.180  17.641  13.442
71314W        W43739  24.226  40.250   2.336
71315W        W43740  18.941  30.515  11.657
71316W        W43741  43.859  12.805  13.479
71317W        W43742  42.257  36.762   3.278
71318W        W43743  23.171  25.737   2.300
71319W        W43744  30.026   5.268  11.611
71320W        W43745  14.091  23.279   4.827
71321W        W43746   9.277  33.041  13.218
71322W        W43747  14.525   5.683   3.414
71323W        W43748   6.363  13.320   0.411
71324W        W43749  42.916  13.668   4.966
71325W        W43750  31.516  40.388  12.787
71326W        W43751  36.533  42.914  14.068
71327W        W43752  19.331  43.006  10.807
71328W        W43753  31.209  37.659  11.543
71329W        W43754  11.636  28.796  13.015
71330W        W43755  11.361  32.074  13.779
71331W        W43756   2.852  18.016   3.340
71332W        W43757  39.029   0.389   2.784
71333W        W43758  43.435  38.173  14.534
71334W        W43759  44.947  35.517   4.125
71335W        W43760  30.066  12.384   0.908
71336W        W43761  39.060   9.438  14.839
71337W        W43762   0.503  20.542   0.838
71338W        W43763  29.892  30.066   4.827
71339W        W43764   8.662   8.444   4.103
71340W        W43765  30.517   5.190  14.468
71341W        W43766  18.105   8.448  11.168
71342W        W43767  10.231  16.831   4.452
71343W        W43768  13.586  33.975   1.745
71344W        W43769  41.602  42.875  13.417
71345W        W43770   8.690  26.601  14.729
71346W        W43771  19.266  18.107  11.193
71347W        W43772   8.923  36.018   0.343
71348W        W43773  35.656  33.596  12.573
71349W        W43774   0.252  29.710  13.506
71350W        W43775  25.967  43.476   5.054
71351W        W43776  23.224  15.248   0.350
71352W        W43777  38.718  30.357  11.574
71353W        W43778  41.647  27.924  11.475
71354W        W43779  20.793   6.366   3.332
71355W        W43780  44.418  35.931  12.095
71356W        W43781  20.902   8.866   3.148
71357W        W43782  20.296  35.587  12.557
71358W        W43783   2.011   2.244  13.259
71359W        W43784  19.832  39.042   0.789
71360W        W43785  21.929  44.060   1.947
71361W        W43786  35.427   9.158   2.685
71362W        W43787  19.276  34.947  14.782
71363W        W43788  18.294   9.827  13.120
71364W        W43789  31.600  30.378  11.137
71365W        W43790  21.508   9.105  14.891
71366W        W43791  15.053  26.549   0.236
71367W        W43792   9.209   7.385   4.844
71368W        W43793   6.335  24.454  12.373
71369W        W43794   0.129   1.984   4.239
71370W        W43795  39.055  18.148  12.824
71371W        W43796  11.381   9.779   2.882
71372W        W43797   0.791  42.249   4.761
71373W        W43798  40.557   6.216   1.807
71374W        W43799  42.502  25.921  14.672
71375W        W43800  10.658  13.776  13.312
71376W        W43801  32.512   7.186   2.135
71377W        W43802   9.232  21.036  12.649
71378W        W43803  40.356  29.428  14.256
71379W        W43804  10.042  17.786  11.230
71380W        W43805  41.646   5.884   1.816
71381W        W43806   0.040  29.744  14.873
71382W        W43807  20.116   1.388   2.367
71383W        W43808  20.215  15.785   4.781
71384W        W43809  17.128  12.186   5.107
71385W        W43810   3.904  19.230   2.628
71386W        W43811   7.968   1.814   4.529
71387W        W43812  44.530  12.267   9.860
71388W        W43813  13.837  25.555   3.624
71389W        W43814  41.832  32.709   1.165
71390W        W43815  30.494   0.817   2.635
71391W        W43816  39.311  39.933   4.450
71392W        W43817  13.050  10.144   4.021
71393W        W43818  23.661   1.933  14.930
71394W        W43819  19.802   6.687   1.205
71395W        W43820  44.534  26.247  12.068
71396W        W43821  38.956  34.583   1.225
71397W        W43822  24.872  34.630   2.747
71398W        W43823   3.495  10.215   2.750
71399W        W43824  41.059  31.492  14.922
71400W        W43825  34.897  13.314  11.093
71401W        W43826  41.955   7.293   2.897
71402W        W43827  40.815  24.712   1.707
71403W        W43828  41.559  25.286   3.271
71404W        W43829  26.459  40.203  11.081
71405W        W43830  39.483  15.754  13.311
71406W        W43831  37.534  37.860  10.901
71407W        W43832   9.718   5.139  10.214
71408W        W43833  26.848  29.539  13.471
71409W        W43834  18.159   7.861   3.992
71410W        W43835   6.732   0.884  14.211
71411W        W43836  25.908  12.389  13.594
71412W        W43837   3.420  44.762  11.006
71413W        W43838  12.064   7.176  12.286
71414W        W43839  18.029  27.368   3.223
71415W        W43840  12.404  21.845   1.205
71416W        W43841  14.560  12.352   1.612
71417W        W43842  23.961  44.133   2.796
71418W        W43843  28.635  13.621   1.313
71419W        W43844  13.472   9.922  11.207
71420W        W43845  44.973  27.229   4.451
71421W        W43846   0.270   6.161   0.888
71422W        W43847  24.439  43.942   2.641
71423W        W43848  25.557  18.700  11.140
71424W        W43849  39.875  11.917   3.679
71425W        W43850  44.751  17.220   2.244
71426W        W43851  25.747  39.292  13.362
71427W        W43852  19.910  25.156  14.770
71428W        W43853  42.749  36.877  12.453
71429W        W43854  19.530  14.232   1.891
71430W        W43855  10.812  20.806   1.432
71431W        W43856  16.845   9.702  11.641
71432W        W43857  23.770  39.697   1.341
71433W        W43858   9.687  36.869  11.263
71434W        W43859  35.746  35.007   4.417
71435W        W43860  29.018   9.730  11.734
71436W        W43861   1.199  15.109   0.954
71437W        W43862  14.729   3.783  11.865
71438W        W43863  36.044  22.499   1.030
71439W        W43864   1.388  28.184  13.932
71440W        W43865  33.121   0.721   0.402
71441W        W43866   4.784  18.934   1.274
71442W        W43867  24.051  23.056   2.128
71443W        W43868  38.414   7.855  13.319
71444W        W43869  42.679  34.512   2.133
71445W        W43870  24.359  14.179   2.037
71446W        W43871  22.846  36.938   1.747
71447W        W43872   9.543  24.122   0.988
71448W        W43873  43.410  34.449   2.773
71449W        W43874  27.394  33.201  12.615
71450W        W43875   7.879  23.311   1.084
71451W        W43876  16.797  29.092  11.213
71452W        W43877  18.504   8.507  13.029
71453W        W43878  35.440  43.778  13.888
71454W        W43879   7.779  42.886   2.410
71455W        W43880  42.341  22.587  11.080
71456W        W43881  16.601   8.773   0.657
71457W        W43882  28.625  36.369   0.362
71458W        W43883   8.358  44.473  14.757
71459W        W43884   9.092  12.437   0.900
71460W        W43885   3.349  43.425  12.176
71461W        W43886  29.650  30.657  13.062
71462W        W43887   6.702  34.361   4.200
71463W        W43888  17.038  39.807  11.226
71464W        W43889  23.281  19.494  12.502
71465W        W43890  43.220  37.106   3.391
71466W        W43891  20.656  24.789  13.402
71467W        W43892  13.884  32.964  13.901
71468W        W43893  10.183  23.539  14.875
71469W        W43894   5.415  42.955   3.652
71470W        W43895  31.561  44.395   2.701
71471W        W43896  18.803  37.486   2.232
71472W        W43897  34.928  40.119  14.972
71473W        W43898  29.182   7.017   0.435
71474W        W43899  13.608  16.590  12.884
71475W        W43900  29.921  27.613  10.654
71476W        W43901  23.506  42.873  12.134
71477W        W43902  10.256   5.487   0.376
71478W        W43903   7.251  34.917  13.810
71479W        W43904  36.473  20.005   1.811
71480W        W43905  34.930  26.585   2.381
71481W        W43906   8.930  41.343   1.311
71482W        W43907   2.313  32.971   1.652
71483W        W43908  22.083  30.067  12.405
71484W        W43909  10.497   0.985   1.833
71485W        W43910   9.356  29.781   0.905
71486W        W43911   5.524   3.267   4.071
71487W        W43912  43.907  34.719   4.952
71488W        W43913  22.047  25.661  14.376
71489W        W43914  44.802  10.721  12.905
71490W        W43915  24.658  18.361  11.015
71491W        W43916  29.259  22.198   3.436
71492W        W43917   3.803   8.788   1.447
71493W        W43918  28.360   5.152  14.758
71494W        W43919   3.811   6.406  13.339
71495W        W43920  34.421  44.983  11.733
71496W        W43921  18.102  10.279  12.391
71497W        W43922  17.173  34.275  10.698
71498W        W43923  30.657  24.259   0.970
71499W        W43924  37.767  44.417   4.707
71500W        W43925  17.991  33.869  14.992
71501W        W43926  17.128   9.462  12.098
71502W        W43927  18.269   3.705  14.640
71503W        W43928  38.435  37.083   1.833
71504W        W43929   7.173  36.433  10.575
71505W        W43930  39.523  19.850  11.033
71506W        W43931  37.859  24.241  10.869
71507W        W43932  28.072   7.122   0.024
71508W        W43933  36.143  43.518  12.945
71509W        W43934  14.006  13.116   1.405
71510W        W43935  20.474   7.161  13.069
71511W        W43936  29.683  21.033   5.051
71512W        W43937  11.892  16.249  13.519
71513W        W43938  15.063  40.502  14.798
71514W        W43939  15.328  32.536   2.809
71515W        W43940  37.630  20.729   0.990
71516W        W43941  28.061  24.095  10.758
71517W        W43942  25.648  36.389   0.889
71518W        W43943   9.864  28.944  14.003
71519W        W43944  39.457  19.009   0.205
71520W        W43945  29.540  24.061   4.098
71521W        W43946  40.777  42.306   3.225
71522W        W43947   5.185  28.119   3.454
71523W        W43948  37.913  23.010  13.956
71524W        W43949  36.332  23.038   5.458
71525W        W43950  17.215  35.881  14.612
71526W        W43951  23.257  42.501  11.466
71527W        W43952  26.702  42.927  11.049
71528W        W43953  34.946  26.129  12.443
71529W        W43954  22.909  15.784   2.846
71530W        W43955  30.540   5.140   1.631
71531W        W43956  42.825  44.919   0.620
71532W        W43957  40.213  42.202  11.229
71533W        W43958  22.658   5.213  12.145
71534W        W43959   8.441   0.699  12.507
71535W        W43960   0.229   2.836   4.422
71536W        W43961  31.444  31.944   0.787
71537W        W43962  20.169  35.811   3.177
71538W        W43963   2.364  27.409  10.595
71539W        W43964   5.189  35.000  10.670
71540W        W43965   7.524  25.061   0.919
71541W        W43966  21.520  11.755   3.357
71542W        W43967  22.229  13.212  12.477
71543W        W43968  10.353   3.299  13.279
71544W        W43969   6.744  18.020   1.966
71545W        W43970  23.503  38.964  11.835
71546W        W43971  38.450  32.518  11.666
71547W        W43972  40.080  21.673  10.769
71548W        W43973  41.466   9.882  13.241
71549W        W43974  42.015  13.746  14.872
71550W        W43975  34.180  23.739  11.118
71551W        W43976  10.348  29.627   3.197
71552W        W43977  38.572  34.732   0.898
71553W        W43978  33.554  29.582  10.090
71554W        W43979   6.492   8.565  12.082
71555W        W43980  28.941  12.650  13.154
71556W        W43981  25.599   7.200   3.269
71557W        W43982   0.266  41.568   3.467
71558W        W43983  30.875  24.620  10.570
71559W        W43984  33.978  23.495   0.733
71560W        W43985  35.508   0.755   1.924
71561W        W43986   6.313  18.292   1.883
71562W        W43987  18.231  18.999  12.606
71563W        W43988  21.223  37.357  12.141
71564W        W43989  40.924  38.839   0.851
71565W        W43990  29.630  24.209   0.854
71566W        W43991  35.457  40.805   3.363
71567W        W43992  16.655   0.314  10.653
71568W        W43993  39.777   1.309   1.272
71569W        W43994  20.214   5.727  11.056
71570W        W43995   5.848  33.071  13.342
71571W        W43996  28.552  14.672   4.169
71572W        W43997  31.852  32.927   0.832
71573W        W43998  14.580   4.837   4.817
71574W        W43999  19.044  32.417  12.503
71575W        W44000  23.485   4.712  12.427
71576W        W44001  39.398   3.840  13.879
71577W        W44002   9.516  10.255  10.803
71578W        W44003  23.135  21.744   4.594
71579W        W44004  30.796  16.119  12.599
71580W        W44005  18.229   0.239   2.230
71581W        W44006  31.032  30.934   1.230
71582W        W44007  40.824  21.110   4.650
71583W        W44008   5.332  39.307   1.216
71584W        W44009   8.019  16.232   0.144
71585W        W44010  40.313   5.407   4.899
71586W        W44011  21.552   1.271   2.243
71587W        W44012  19.066   0.733  13.887
71588W        W44013  29.668  20.254   2.229
71589W        W44014  25.659  30.309   3.019
71590W        W44015  33.421  23.213  11.057
71591W        W44016  37.969  38.162   2.001
71592W        W44017   5.446   2.725  12.366
71593W        W44018  24.040  40.114  12.101
71594W        W44019  38.615  16.846  10.610
71595W        W44020  13.405  44.907  11.181
71596W        W44021  19.356  29.417  11.091
71597W        W44022  27.714   0.812  14.897
71598W        W44023  16.728  26.615  12.194
71599W        W44024  38.502  41.278  13.884
71600W        W44025   1.364  27.979   4.475
71601W        W44026  36.314  43.014  10.640
71602W        W44027   5.783  17.209  12.020
71603W        W44028  23.605  32.602   3.177
71604W        W44029  27.897  19.772  10.658
71605W        W44030  42.862  36.508   4.109
71606W        W44031  25.388  35.017  14.416
71607W        W44032  23.111  11.547   5.469
71608W        W44033   4.841  43.270   2.186
71609W        W44034  32.990  32.954   4.425
71610W        W44035  33.885  38.933  10.579
71611W        W44036  34.914  35.526  11.587
71612W        W44037  34.022   3.465  12.525
71613W        W44038  27.194  18.168   0.840
71614W        W44039  16.552  17.978  12.217
71615W        W44040  33.443   0.814  10.371
71616W        W44041   3.279  39.902  13.322
71617W        W44042  41.858   9.103   1.763
71618W        W44043  24.110  39.816  13.420
71619W        W44044   7.353   6.726   2.124
71620W        W44045  21.046  30.086  14.840
71621W        W44046  44.432  26.235  12.607
71622W        W44047  33.874  34.182  14.423
71623W        W44048  31.154  39.807   4.348
71624W        W44049   4.263  15.135   2.737
71625W        W44050  40.325  19.327  10.328
71626W        W44051  34.495  36.446   0.042
71627W        W44052  17.180  27.657  12.718
71628W        W44053  44.923   9.219  11.639
71629W        W44054  28.919  11.055  14.788
71630W        W44055  40.994  44.785   0.405
71631W        W44056  26.565  28.038   4.559
71632W        W44057  23.725  11.316  11.895
71633W        W44058  34.978   7.369  12.940
71634W        W44059  36.867  10.472  12.111
71635W        W44060  43.018  15.755   0.918
71636W        W44061  40.228  10.778   4.757
71637W        W44062  23.511  13.741  13.830
71638W        W44063  27.065   6.717   1.251
71639W        W44064  40.808  16.263  10.358
71640W        W44065  35.924  13.147   4.692
71641W        W44066  39.142  18.056   0.928
71642W        W44067  19.469  21.675   3.563
71643W        W44068  29.189  15.901  14.405
71644W        W44069  43.802  21.567   3.096
71645W        W44070  31.439  20.289   4.597
71646W        W44071   4.408   1.711  10.561
71647W        W44072  34.392  32.464  14.215
71648W        W44073   4.857  28.810  12.147
71649W        W44074  42.105  23.715   2.132
71650W        W44075  10.530  12.060  12.864
71651W        W44076  22.001  25.141  14.420
71652W        W44077  31.668  22.655   4.522
71653W        W44078  31.937  41.312  12.453
71654W        W44079  29.109   8.962  12.452
71655W        W44080  27.404  39.026  14.841
71656W        W44081  16.638  27.498  12.157
71657W        W44082   1.716  40.284  14.540
71658W        W44083  34.966   9.360  13.089
71659W        W44084  14.251  41.208   3.949
71660W        W44085  33.844  18.192  13.358
71661W        W44086  37.435  37.344   0.824
71662W        W44087  24.044  18.643   2.680
71663W        W44088  16.415  11.007  14.572
71664W        W44089  16.710  21.555   3.596
71665W        W44090  13.232  29.882   2.235
71666W        W44091  43.209  21.327   4.770
71667W        W44092  17.106  18.025   4.772
71668W        W44093  30.651  14.247  10.795
71669W        W44094  21.756  11.416   1.379
71670W        W44095  12.217   0.040   0.848
71671W        W44096  25.624   3.383  12.912
71672W        W44097  36.644   4.406  14.973
71673W        W44098   6.805  26.167  10.696
71674W        W44099  17.006  37.333   4.929
71675W        W44100  38.847  15.152   1.358
71676W        W44101  16.992   6.522  12.016
71677W        W44102   3.886   9.840  11.606
71678W        W44103  17.797  32.076   0.388
71679W        W44104   1.817  42.514  11.549
71680W        W44105  24.937   1.832  11.167
71681W        W44106  22.497   0.748   1.691
71682W        W44107   9.539   4.823   2.442
71683W        W44108   0.047  40.456  11.040
71684W        W44109  11.096  19.157  14.359
71685W        W44110  15.273  15.169   2.326
71686W        W44111  41.384  34.989  12.450
71687W        W44112  44.835  36.022  13.918
71688W        W44113  16.123  13.879  12.041
71689W        W44114   8.905  24.518  12.119
71690W        W44115  41.805  22.850  12.491
71691W        W44116   7.358  43.818   3.210
71692W        W44117   7.142   7.803   0.931
71693W        W44118   9.415  35.551   9.751
71694W        W44119  18.738  32.408   5.492
71695W        W44120   7.596  27.190   0.302
71696W        W44121  35.873  35.496   0.336
71697W        W44122  42.798  13.993  14.970
71698W        W44123  36.147   8.028   1.427
71699W        W44124  16.509  27.142  11.085
71700W        W44125  41.072   5.234  14.815
71701W        W44126  44.151  12.260   1.107
71702W        W44127   6.163  27.129   3.220
71703W        W44128  21.263  32.744   0.960
71704W        W44129  28.673  16.843  11.427
71705W        W44130   1.716  20.082  12.600
71706W        W44131  43.368  16.852   4.187
71707W        W44132  25.190  31.982  14.364
71708W        W44133  37.830  40.153  12.327
71709W        W44134  38.343   9.416  12.437
71710W        W44135  41.321  26.707  12.983
71711W        W44136  38.469  18.522  12.055
71712W        W44137  18.189   6.310   0.947
71713W        W44138  12.919  16.550   3.720
71714W        W44139  37.398   9.356  14.947
71715W        W44140  14.975   5.940   2.287
71716W        W44141  27.867  44.412  13.152
71717W        W44142  25.858   3.427  11.454
71718W        W44143  26.439  32.353  11.398
71719W        W44144  22.006  11.795   4.156
71720W        W44145  29.402  39.004  13.754
71721W        W44146  16.597  39.832   0.272
71722W        W44147  33.400  39.690  11.615
71723W        W44148  40.308  34.789   3.394
71724W        W44149  43.313  12.457   2.343
71725W        W44150  15.576  33.398  11.203
71726W        W44151  16.994  14.791  12.994
71727W        W44152  10.802  18.361   1.517
71728W        W44153  27.212  16.093  12.942
71729W        W44154  16.174  31.380  10.390
71730W        W44155  38.863  36.490  10.759
71731W        W44156   1.722  36.921  13.417
71732W        W44157  37.426  28.103   0.292
71733W        W44158  41.430  13.464   0.424
71734W        W44159  39.502  18.392   0.780
71735W        W44160  14.901  31.364   0.212
71736W        W44161  17.543  27.119   0.291
71737W        W44162  20.486  17.353  12.468
71738W        W44163  27.035   9.972  10.996
71739W        W44164   8.248   9.677   3.562
71740W        W44165  39.238  28.921  13.382
71741W        W44166   4.115  26.462   1.775
71742W        W44167  10.383  44.747   3.273
71743W        W44168  33.632  33.976   4.198
71744W        W44169  38.163  14.067   5.045
71745W        W44170  23.193   8.770   2.770
71746W        W44171  19.200   1.803   0.965
71747W        W44172  40.746  32.359   3.183
71748W        W44173  22.970  27.746  14.464
71749W        W44174  41.300  21.753   4.881
71750W        W44175  22.479  43.611  11.118
71751W        W44176  26.566  10.774  14.214
71752W        W44177  43.417  39.379   0.453
71753W        W44178  13.885   1.542   1.843
71754W        W44179   7.883  44.077  13.006
71755W        W44180  29.051  35.951   4.342
71756W        W44181  41.569   4.317   0.309
71757W        W44182   1.848  22.600  11.424
71758W        W44183  44.801   1.895  11.701
71759W        W44184  44.826  35.371   1.412
71760W        W44185  19.485  21.702  14.009
71761W        W44186  20.910  30.466   0.424
71762W        W44187  14.129  42.527   1.171
71763W        W44188   2.028  22.629  14.363
71764W        W44189  39.619  24.174  14.049
71765W        W44190  36.472  14.157  11.626
71766W        W44191  33.140   8.215  11.698
71767W        W44192   1.334  41.001   4.528
71768W        W44193  19.226  43.909   0.824
71769W        W44194  26.887  10.407   2.224
71770W        W44195  11.712   8.207   2.611
71771W        W44196  19.321  36.775   2.744
71772W        W44197   4.919  44.007   4.546
71773W        W44198  39.810  22.911   2.360
71774W        W44199   5.480  39.517  12.886
71775W        W44200   5.867  22.752   2.090
71776W        W44201  17.144  24.076   0.712
71777W        W44202  21.575   8.390   5.568
71778W        W44203  20.153  36.309  11.862
71779W        W44204   0.099   4.458   2.061
71780W        W44205  37.379  13.393   5.083
71781W        W44206  30.351  25.693   3.143
71782W        W44207  36.092   1.063   1.634
71783W        W44208  13.102  33.407   2.280
71784W        W44209   7.398   2.756  10.453
71785W        W44210  20.660  42.323   3.755
71786W        W44211  43.877  31.525   4.123
71787W        W44212  24.146  41.224   4.143
71788W        W44213  10.664  38.977   3.205
71789W        W44214  11.787   4.952   1.685
71790W        W44215  30.079   5.870   0.925
71791W        W44216  37.118   9.127  10.768
71792W        W44217  39.907   3.049  10.758
71793W        W44218  10.888   6.926   4.333
71794W        W44219  33.405   7.162  13.425
71795W        W44220  35.427   4.746  14.405
71796W        W44221  29.898  30.869  11.484
71797W        W44222  30.006   5.853   4.040
71798W        W44223  35.393  22.586  14.292
71799W        W44224  22.778  35.458  13.866
71800W        W44225  38.250   4.760  14.446
71801W        W44226  13.428  37.075   4.382
71802W        W44227  43.920  21.715  13.493
71803W        W44228  15.544  22.583  14.395
71804W        W44229   8.700  40.888  10.516
71805W        W44230  22.520  43.230   3.345
71806W        W44231  27.015   3.983   0.828
71807W        W44232  37.305  37.995  12.501
71808W        W44233  17.822  19.526   3.701
71809W        W44234  18.858  43.329  13.120
71810W        W44235  19.173   8.231   1.887
71811W        W44236  32.899   3.877   2.328
71812W        W44237  27.244  25.546  12.042
71813W        W44238   1.790  10.727   2.141
71814W        W44239  30.087   8.180   4.108
71815W        W44240  18.480  27.884  13.860
71816W        W44241   2.223  37.130  13.410
71817W        W44242  21.118  29.660   2.226
71818W        W44243  11.855   6.751   2.457
71819W        W44244   5.971  24.283  13.991
71820W        W44245  20.790   0.932   2.768
71821W        W44246  22.514  30.203  11.119
71822W        W44247  24.313   5.866  12.923
71823W        W44248  21.926  23.012   0.019
71824W        W44249  24.262  39.711   3.063
71825W        W44250  24.690  43.136   3.706
71826W        W44251  18.989  20.471  12.087
71827W        W44252  30.723   6.342  14.153
71828W        W44253  40.421  15.292   0.809
71829W        W44254  17.904  41.730   2.741
71830W        W44255   8.683  12.162  13.838
71831W        W44256  32.567  11.050  13.451
71832W        W44257  19.480  32.456   2.198
71833W        W44258  23.208  44.273  10.988
71834W        W44259   9.037  22.536  11.047
71835W        W44260   5.312   7.726   2.362
71836W        W44261  30.665  23.048  13.029
71837W        W44262   1.438  17.530  14.119
71838W        W44263  12.492  19.644   0.835
71839W        W44264  33.553   5.696   0.683
71840W        W44265  39.184   8.863   4.601
71841W        W44266  39.627  41.724   2.166
71842W        W44267  29.685  28.115  13.257
71843W        W44268  15.825  44.119  10.383
71844W        W44269  41.836  23.333   1.726
71845W        W44270  39.474  27.184  11.615
71846W        W44271  10.189  24.872  13.726
71847W        W44272  10.925  37.804  12.911
71848W        W44273   3.774   6.303  10.299
71849W        W44274   5.369  34.472  10.800
71850W        W44275   0.684  44.721   1.066
71851W        W44276  20.862  22.275   3.863
71852W        W44277   0.019  13.062  13.198
71853W        W44278  22.955   3.959   2.763
71854W        W44279  16.246  21.012  11.872
71855W        W44280  29.873  39.058   0.651
71856W        W44281  36.880   9.595   0.745
71857W        W44282  25.723  41.419  14.431
71858W        W44283  30.057   5.474  14.365
71859W        W44284  27.394  20.658  12.037
71860W        W44285  40.374  23.544  12.349
71861W        W44286   1.022   3.988  14.504
71862W        W44287   4.969  18.083   2.805
71863W        W44288  16.331   6.772   4.341
71864W        W44289  26.784   1.333   4.614
71865W        W44290   0.075   3.010   3.033
71866W        W44291  33.889   3.440   5.055
71867W        W44292  42.052   4.180   0.235
71868W        W44293  19.621   4.666  10.749
71869W        W44294  13.838   2.444  14.379
71870W        W44295  23.963  40.345  11.366
71871W        W44296  14.616  44.716  12.961
71872W        W44297  11.892  13.136  11.925
71873W        W44298   0.743  36.616  12.024
71874W        W44299   3.538  23.888  14.441
71875W        W44300  21.791  24.127  11.481
71876W        W44301  17.857  34.035   0.648
71877W        W44302  25.068  44.353  13.156
71878W        W44303  28.540  12.199  11.655
71879W        W44304   4.803  29.047   1.200
71880W        W44305   2.287  32.463   4.099
71881W        W44306  31.371  26.471   5.101
71882W        W44307  14.823  41.423   2.665
71883W        W44308   0.455  12.562   1.484
71884W        W44309   4.742  38.360   4.764
71885W        W44310  28.690  29.969   0.698
71886W        W44311   8.504   3.769   3.937
71887W        W44312  20.360   0.151  12.544
71888W        W44313  15.557  35.462  10.783
71889W        W44314   0.989   7.240   0.708
71890W        W44315  35.951  18.092  13.986
71891W        W44316   0.553   7.886   3.688
71892W        W44317  11.066  43.353   3.199
71893W        W44318  33.402  29.426  13.518
71894W        W44319  10.811   5.919   4.735
71895W        W44320   0.994  35.972   2.988
71896W        W44321  36.951  19.647   3.245
71897W        W44322   1.014   6.801   1.408
71898W        W44323   1.369  18.394  10.685
71899W        W44324   9.925   5.633   5.442
71900W        W44325  41.564  35.360  11.465
71901W        W44326  18.749   3.503   0.826
71902W        W44327  36.458  41.092   1.264
71903W        W44328  11.120  30.666  10.749
71904W        W44329  16.697  42.376  14.235
71905W        W44330  24.623  41.413  12.428
71906W        W44331  43.762  24.602  14.084
71907W        W44332  44.634  26.990  10.421
71908W        W44333  12.240  44.139   1.260
71909W        W44334  36.856  36.848  11.107
71910W        W44335  13.624  44.501  13.808
71911W        W44336  15.044  16.728   0.358
71912W        W44337  30.008  19.568   2.646
71913W        W44338  14.493  21.321   0.727
71914W        W44339  36.636   3.257  11.947
71915W        W44340  15.230  43.468   1.443
71916W        W44341  29.417  14.748  14.885
71917W        W44342  19.010  31.396  11.622
71918W        W44343   2.804   4.459  14.283
71919W        W44344  25.686  16.681   3.811
71920W        W44345  29.279  22.723  14.999
71921W        W44346   7.749  17.211  14.299
71922W        W44347  35.194  13.817   1.756
71923W        W44348  13.167  43.548  11.178
71924W        W44349  13.029  41.367  13.062
71925W        W44350  10.313   5.760  11.702
71926W        W44351  44.276  38.457  14.347
71927W        W44352  11.787  22.068   1.349
71928W        W44353  39.430  22.294   3.543
71929W        W44354   1.759   3.713  11.066
71930W        W44355  22.608  16.561  11.171
71931W        W44356  44.488   1.431  13.388
71932W        W44357  35.589   8.937  14.281
71933W        W44358   1.676  11.797  12.854
71934W        W44359   9.231  36.998  10.564
71935W        W44360  30.356  16.807   5.125
71936W        W44361  23.955  32.134   4.162
71937W        W44362  28.992  41.837   1.735
71938W        W44363  12.108  10.290   4.219
71939W        W44364  28.492  11.628   2.208
71940W        W44365  12.334  17.491  11.160
71941W        W44366  44.215   9.826   2.432
71942W        W44367  29.746  32.272  14.835
71943W        W44368  21.579   7.635   0.840
71944W        W44369  11.992  44.472   4.575
71945W        W44370   8.825  14.248  10.785
71946W        W44371  26.501   8.239  12.610
71947W        W44372   1.504   7.217  14.759
71948W        W44373   8.809  34.581   4.491
71949W        W44374  11.911  10.875   0.131
71950W        W44375  24.720  26.068  11.099
71951W        W44376  22.170  28.569  11.519
71952W        W44377   9.405  13.583  14.784
71953W        W44378  44.036  26.798  11.890
71954W        W44379  13.754  26.486  13.881
71955W        W44380  19.768  25.490   5.132
71956W        W44381  30.874   4.001  11.224
71957W        W44382   9.391  31.594   3.392
71958W        W44383  15.342  21.271   4.739
71959W        W44384  26.560  17.623  11.854
71960W        W44385  43.297   6.626   3.824
71961W        W44386  29.456  10.656   0.580
71962W        W44387   2.795  15.403  13.369
71963W        W44388   1.107   0.483   4.324
71964W        W44389  38.513  14.831   2.871
71965W        W44390  15.010  28.598  14.790
71966W        W44391   4.756  11.627  13.964
71967W        W44392  11.837  10.369  14.359
71968W        W44393  19.704   2.449   1.262
71969W        W44394  22.810  10.119   0.255
71970W        W44395  34.929  38.864  10.573
71971W        W44396  43.887  44.210   2.376
71972W        W44397   0.262  29.929  11.692
71973W        W44398  34.908  21.735  10.861
71974W        W44399  20.631   4.415  12.569
71975W        W44400  44.787   1.084  14.510
71976W        W44401  30.788  12.848  13.372
71977W        W44402   4.935   7.720  10.406
71978W        W44403  40.068  13.884   3.727
71979W        W44404  39.934  20.017   4.639
71980W        W44405  13.155  16.714   4.229
71981W        W44406  25.286  38.405  14.605
71982W        W44407  30.513  43.825   1.237
71983W        W44408  25.048  39.912  11.240
71984W        W44409   3.527  18.378  10.636
71985W        W44410  11.126   5.322   3.355
71986W        W44411  33.645   0.227   1.693
71987W        W44412  22.879  22.678   0.926
71988W        W44413   5.067  41.513  11.106
71989W        W44414  27.227  13.318   3.647
71990W        W44415  25.685  43.035  13.874
71991W        W44416  23.572  28.080   4.775
71992W        W44417  11.626  10.216  13.332
71993W        W44418  41.378  15.545   1.287
71994W        W44419  36.485  44.182  11.886
71995W        W44420  29.412  13.744   4.594
71996W        W44421  21.941  23.519  12.870
71997W        W44422  38.049  41.779   2.293
71998W        W44423  28.878  32.553  14.876
71999W        W44424  14.873  41.797  11.989
72000W        W44425  33.055  42.791   3.222
72001W        W44426  19.008  12.875   2.364
72002W        W44427  25.228  24.250  11.232
72003W        W44428  38.287  31.362   3.698
72004W        W44429   3.370  15.771   0.415
72005W        W44430  41.088   2.420  10.760
72006W        W44431  35.332   9.363   2.189
72007W        W44432  12.875  25.919  11.959
72008W        W44433  16.410  31.007   0.394
72009W        W44434  10.985  30.115   2.669
72010W        W44435  10.286  16.605  14.455
72011W        W44436  21.169  13.408   3.341
72012W        W44437  41.351   4.718  12.560
72013W        W44438  10.896  43.559   1.716
72014W        W44439  26.222  33.425   3.157
72015W        W44440  34.600   6.228   2.300
72016W        W44441  12.612   0.448  12.279
72017W        W44442  15.537   7.546   2.610
72018W        W44443  42.843   1.542   3.469
72019W        W44444   9.846  18.601   4.372
72020W        W44445  27.890  38.019   4.628
72021W        W44446  29.930   2.211   3.210
72022W        W44447  11.077   2.171  12.946
72023W        W44448  32.971   6.794   0.469
72024W        W44449   0.038  25.584   1.690
72025W        W44450  37.778  25.418  14.388
72026W        W44451  40.061  23.633  13.338
72027W        W44452  32.912   3.455  12.371
72028W        W44453   3.297  11.850  11.871
72029W        W44454  34.294  25.267   0.497
72030W        W44455  41.364  28.150  14.293
72031W        W44456  32.086  26.511   3.734
72032W        W44457  13.671  35.304   2.284
72033W        W44458  32.489  36.366   5.256
72034W        W44459  30.286   8.307  11.393
72035W        W44460  24.416   0.981  12.555
72036W        W44461  34.824  21.153   9.805
72037W        W44462  42.449  30.469   3.793
72038W        W44463  24.123   4.225   4.591
72039W        W44464  23.408   9.846   0.789
72040W        W44465  42.425  36.597  12.758
72041W        W44466  34.853  41.885  10.676
72042W        W44467  39.788  28.227  14.945
72043W        W44468  27.326  21.959  13.485
72044W        W44469   1.267  43.836   2.383
72045W        W44470  17.367  23.484   4.959
72046W        W44471  42.656  20.252  11.486
72047W        W44472  25.020   7.242  11.013
72048W        W44473   0.971   3.161   1.279
72049W        W44474  14.815  19.856  12.576
72050W        W44475  16.633  31.446  13.506
72051W        W44476  16.780   5.402   4.662
72052W        W44477  11.107  14.803   2.050
72053W        W44478  35.968  41.346   3.175
72054W        W44479  18.330  20.579   0.469
72055W        W44480   6.259  36.913  12.843
72056W        W44481  26.427  23.019  13.629
72057W        W44482  28.733   1.954  11.096
72058W        W44483  33.191  20.608   0.193
72059W        W44484   5.704  26.102  11.986
72060W        W44485  40.368  21.965  13.845
72061W        W44486   9.204  21.970  12.145
72062W        W44487  28.484  43.271  14.955
72063W        W44488  20.788  38.475   3.077
72064W        W44489  26.535  31.659   1.045
72065W        W44490   5.458  35.883   1.972
72066W        W44491  37.142  12.178   4.262
72067W        W44492  21.225  29.383   1.750
72068W        W44493   2.532  36.903  14.765
72069W        W44494  42.756   1.967  11.564
72070W        W44495  40.421  40.552   1.502
72071W        W44496   3.747  43.495   2.718
72072W        W44497  30.533  28.380  11.176
72073W        W44498  41.852   1.231  13.944
72074W        W44499  21.055  19.644   3.812
72075W        W44500  29.392  25.484  13.935
72076W        W44501  10.601  25.272  14.552
72077W        W44502   4.750  22.397   5.098
72078W        W44503  10.881  29.454  11.821
72079W        W44504   1.600  42.501  12.036
72080W        W44505  20.587  14.624   4.601
72081W        W44506  12.867  34.843  12.134
72082W        W44507  11.179  14.384   0.695
72083W        W44508  30.064  21.023  10.074
72084W        W44509  16.537   0.583  12.963
72085W        W44510  25.734  29.098  13.369
72086W        W44511  26.525  41.552   0.475
72087W        W44512  29.547  37.856  12.843
72088W        W44513   7.435  22.645   0.580
72089W        W44514  15.625  40.991  12.472
72090W        W44515  23.439  12.450  11.545
72091W        W44516  43.901  44.612   4.190
72092W        W44517  43.918   7.878  10.999
72093W        W44518  19.784  13.776  14.003
72094W        W44519  36.702  35.271  11.471
72095W        W44520  40.055   9.402  10.686
72096W        W44521  16.051  25.043  12.380
72097W        W44522  11.240  33.599   2.468
72098W        W44523  37.583  40.116   0.310
72099W        W44524   7.981   9.675  13.469
72100W        W44525  15.394  22.163   0.935
72101W        W44526  16.595  32.210   2.620
72102W        W44527  43.783  43.760   0.920
72103W        W44528  26.280   1.407   3.264
72104W        W44529   0.985  21.724  13.441
72105W        W44530  10.313  41.028   4.638
72106W        W44531  40.317   0.221  13.544
72107W        W44532  37.814  20.975   5.163
72108W        W44533   9.404  37.712  11.006
72109W        W44534  10.353  23.742   2.521
72110W        W44535  28.873  18.012   4.243
72111W        W44536   6.107  43.080  14.470
72112W        W44537  25.638  33.513  13.125
72113W        W44538  21.474  10.797   4.121
72114W        W44539  41.549   0.367  13.858
72115W        W44540  26.568  23.144  10.542
72116W        W44541  29.576   3.883  13.825
72117W        W44542   7.019   4.917   1.733
72118W        W44543   5.708  32.881  12.006
72119W        W44544  25.063  15.098  12.385
72120W        W44545  33.131  34.163   2.113
72121W        W44546   2.949  30.403   3.392
72122W        W44547  35.883  26.995   4.185
72123W        W44548  35.531  25.768  14.386
72124W        W44549  34.364  12.342   0.339
72125W        W44550  28.428  18.103   0.236
72126W        W44551   0.106  36.642   2.506
72127W        W44552   4.823  20.690   4.883
72128W        W44553  44.799  43.099  11.412
72129W        W44554  36.795   1.990   2.189
72130W        W44555  13.639  34.063   4.175
72131W        W44556  14.916   4.670  11.504
72132W        W44557  38.358  24.069  12.415
72133W        W44558  12.159  36.371  12.380
72134W        W44559   1.721   4.779  12.519
72135W        W44560  32.604  29.508  14.778
72136W        W44561  44.293  36.893  11.563
72137W        W44562   8.757  42.045  11.164
72138W        W44563   5.167   4.162  14.069
72139W        W44564   5.740  23.015   4.177
72140W        W44565  30.324  22.616  12.945
72141W        W44566  11.179  17.272   3.648
72142W        W44567  36.129  32.417   2.865
72143W        W44568  42.275  16.127  14.791
72144W        W44569  25.959  40.070  14.445
72145W        W44570  14.778  19.721   4.753
72146W        W44571  12.740  39.823   3.742
72147W        W44572  22.552  21.932  13.966
72148W        W44573  40.844   0.742   4.607
72149W        W44574   8.353  10.949   2.299
72150W        W44575  20.983  35.945   4.671
72151W        W44576  33.395  27.091  13.345
72152W        W44577  23.164  19.612   2.351
72153W        W44578  12.669   5.882  14.499
72154W        W44579  40.892   1.650   1.581
72155W        W44580  22.826  14.661   2.262
72156W        W44581  14.955  23.118  13.368
72157W        W44582  33.630  11.388   0.860
72158W        W44583  41.355  42.006   1.123
72159W        W44584  20.758   4.470   3.712
72160W        W44585   4.919  41.968  14.685
72161W        W44586  36.114  14.692  11.700
72162W        W44587  24.739  11.846  14.863
72163W        W44588   1.216  39.111   3.129
72164W        W44589  35.077  10.207  12.427
72165W        W44590   4.741  15.221  13.427
72166W        W44591  20.059  23.346  12.556
72167W        W44592  32.210  42.899  11.868
72168W        W44593   7.093  21.287  10.558
72169W        W44594  42.909  33.561   4.746
72170W        W44595  18.104  25.683   4.750
72171W        W44596  34.852   5.934   4.137
72172W        W44597   5.272   9.391  13.912
72173W        W44598  44.240  31.884   4.159
72174W        W44599  36.851  24.139   2.289
72175W        W44600  13.622  42.519  11.019
72176W        W44601  38.433   8.997   1.799
72177W        W44602  20.571  39.510  14.189
72178W        W44603  44.688  38.591  12.448
72179W        W44604  31.674  20.740  14.088
72180W        W44605   5.806  11.790   1.533
72181W        W44606  36.295  44.626  14.437
72182W        W44607  22.336  35.122  12.882
72183W        W44608   8.845  33.241  14.306
72184W        W44609  35.518   0.987   2.931
72185W        W44610   7.826  16.801   4.634
72186W        W44611  36.949  24.992   9.723
72187W        W44612  22.309   4.195  12.835
72188W        W44613  37.741  30.567  11.573
72189W        W44614   4.697  26.506   4.095
72190W        W44615  21.186   3.214  12.158
72191W        W44616  25.456  19.023  14.971
72192W        W44617  38.505  37.123   4.816
72193W        W44618  17.278  11.347  12.052
72194W        W44619   7.176  41.476   0.946
72195W        W44620  34.390   4.213   0.936
72196W        W44621   4.383  27.077  11.562
72197W        W44622  15.351  36.464   2.229
72198W        W44623  22.207   4.744  11.037
72199W        W44624  16.696  16.674  13.500
72200W        W44625  21.759  38.233   3.631
72201W        W44626  42.687  40.897  11.455
72202W        W44627  34.080  15.157  10.799
72203W        W44628   7.672  27.043  12.043
72204W        W44629  30.690  19.621   3.390
72205W        W44630  17.118  40.918  10.516
72206W        W44631  28.974  29.817  10.268
72207W        W44632  11.584  43.712   4.075
72208W        W44633  16.525  31.440   4.195
72209W        W44634  43.020  33.986   3.243
72210W        W44635  38.288   0.328   2.293
72211W        W44636   8.111   9.238   2.671
72212W        W44637  20.728  10.612   4.611
72213W        W44638  22.998  27.031  11.574
72214W        W44639  15.564  40.365  11.859
72215W        W44640  35.456  39.271   4.308
72216W        W44641   6.361  11.241  12.587
72217W        W44642  24.191   8.755   4.969
72218W        W44643  17.501  35.626   2.737
72219W        W44644  38.277  36.839   2.265
72220W        W44645  38.137  26.635  12.539
72221W        W44646  41.984  23.639  12.306
72222W        W44647  39.994  36.731  14.806
72223W        W44648  41.905  19.597   4.528
72224W        W44649  43.728  13.088  11.661
72225W        W44650  17.881  14.553  11.353
72226W        W44651  29.255   2.787  10.661
72227W        W44652  11.619   1.576  10.702
72228W        W44653  29.931  43.292   0.924
72229W        W44654   9.926  24.831  14.191
72230W        W44655   7.752  41.138  12.617
72231W        W44656  43.376  28.726   2.400
72232W        W44657  42.918  39.925   2.734
72233W        W44658  38.026  20.941  12.925
72234W        W44659  37.466  37.395   3.619
72235W        W44660  40.481  42.909   4.690
72236W        W44661  11.281  25.090   2.229
72237W        W44662  26.219  22.222   2.679
72238W        W44663  12.724  17.576   1.824
72239W        W44664  14.259   8.848   4.307
72240W        W44665  40.010   6.730  12.972
72241W        W44666  26.112   7.380   0.360
72242W        W44667  44.580   4.730   2.661
72243W        W44668  32.697  17.257  11.193
72244W        W44669  40.831  11.730  10.911
72245W        W44670  31.023  19.273  10.828
72246W        W44671   0.303  17.908   0.000
72247W        W44672  35.790   3.826  11.119
72248W        W44673  44.993   8.348   5.107
72249W        W44674  42.414  22.444  14.514
72250W        W44675  26.710  31.353  10.500
72251W        W44676   8.878  11.320  10.129
72252W        W44677  27.505  29.865   3.176
72253W        W44678   8.759  20.963  12.445
72254W        W44679  25.765  32.305   5.374
72255W        W44680  19.091  41.431  13.098
72256W        W44681  20.037   3.508  12.885
72257W        W44682  32.543   4.852   0.479
72258W        W44683  25.678  24.454  10.978
72259W        W44684  17.503  26.520  14.878
72260W        W44685   5.349  18.356  12.112
72261W        W44686   1.329   7.129   3.671
72262W        W44687   7.466  25.405  12.546
72263W        W44688   0.226  44.024  12.824
72264W        W44689   5.507   3.766  14.926
72265W        W44690  20.654  28.893   4.893
72266W        W44691  15.104  25.613  11.472
72267W        W44692  43.023  42.306  14.383
72268W        W44693  22.031  33.066  12.380
72269W        W44694  15.684  42.018  11.488
72270W        W44695  37.012   8.876  14.431
72271W        W44696  37.338  32.895   1.283
72272W        W44697  16.132   6.421  12.521
72273W        W44698  13.205  25.440   1.795
72274W        W44699  43.918  16.092  13.326
72275W        W44700   3.316   6.242   0.211
72276W        W44701  29.714  33.124  12.026
72277W        W44702  38.798   4.917  13.438
72278W        W44703  17.672  29.957   0.352
72279W        W44704  32.020  14.354  13.286
72280W        W44705  16.669  25.476   1.284
72281W        W44706  36.379  30.555  11.830
72282W        W44707  26.738  36.619   2.935
72283W        W44708  43.264  23.035  11.910
72284W        W44709  10.875  26.211   3.117
72285W        W44710   8.477  21.682   1.733
72286W        W44711  41.030  44.721  12.602
72287W        W44712  23.516  26.666  12.307
72288W        W44713  11.223  21.943  11.326
72289W        W44714   9.768  16.531   0.089
72290W        W44715   7.922  10.867  12.932
72291W        W44716  25.978  36.328  11.902
72292W        W44717  10.265  20.700  12.020
72293W        W44718  39.496   8.325   0.383
72294W        W44719  27.177   0.940   4.295
72295W        W44720  22.933   2.509  11.626
72296W        W44721  43.227  29.564  12.967
72297W        W44722  25.376   0.459  13.978
72298W        W44723   1.331  24.961   2.318
72299W        W44724  22.234   2.498   1.897
72300W        W44725   6.375  27.180   1.338
72301W        W44726   8.332  33.164  10.564
72302W        W44727   9.759  39.491  10.464
72303W        W44728  18.930  17.689   4.757
72304W        W44729  10.847  44.560   0.758
72305W        W44730  29.929  26.707   2.801
72306W        W44731  17.779   4.848   4.156
72307W        W44732   8.666   6.691  14.836
72308W        W44733  20.206   5.962   4.612
72309W        W44734  21.238  12.407  11.901
72310W        W44735  29.127  21.523  11.892
72311W        W44736   1.567  24.776  11.842
72312W        W44737  21.948  24.128   4.544
72313W        W44738   6.053   6.351  13.469
72314W        W44739  27.954  13.011   3.339
72315W        W44740  23.094   7.305  10.721
72316W        W44741  34.693  15.800   4.906
72317W        W44742   5.767  16.640  14.245
72318W        W44743  37.755  16.177  14.736
72319W        W44744  24.478  17.143   2.619
72320W        W44745  37.292  44.489  14.483
72321W        W44746  15.126  39.255  11.498
72322W        W44747  13.797   0.424  11.508
72323W        W44748  25.397  14.846   0.375
72324W        W44749  44.521  20.437  11.983
72325W        W44750  29.496  32.140   4.714
72326W        W44751  17.570  28.882  11.032
72327W        W44752   0.472  11.579  13.871
72328W        W44753  38.993  31.555  10.440
72329W        W44754  44.679  33.937   0.997
72330W        W44755   6.185  31.174  14.063
72331W        W44756  31.889  34.924  11.712
72332W        W44757  36.120  21.364   4.910
72333W        W44758  34.108  30.360  14.454
72334W        W44759  13.044  11.907   4.103
72335W        W44760  33.915   6.808  14.973
72336W        W44761  35.287  33.069  10.757
72337W        W44762  38.663   1.942   2.045
72338W        W44763   3.391  24.172  11.891
72339W        W44764  20.153  40.440   4.881
72340W        W44765  15.816  34.560  14.933
72341W        W44766  23.197  33.670   3.748
72342W        W44767  14.755   6.723   2.813
72343W        W44768  15.625  27.578   0.918
72344W        W44769  44.489  15.774   1.468
72345W        W44770  30.006  24.618  13.840
72346W        W44771   4.582  17.973   2.278
72347W        W44772  13.702  20.067   1.371
72348W        W44773  31.039  19.978  13.881
72349W        W44774  28.647  39.144   3.628
72350W        W44775  13.111  33.672   1.831
72351W        W44776   5.166  14.168   1.321
72352W        W44777  26.253  28.072  14.790
72353W        W44778   2.242  33.542   0.999
72354W        W44779  39.965  36.591   1.758
72355W        W44780  18.029  38.515  12.974
72356W        W44781  32.687  24.979  12.502
72357W        W44782   3.185   3.829  13.539
72358W        W44783  38.363  17.516  12.254
72359W        W44784  27.198  36.603  11.152
72360W        W44785   9.344  35.106   3.271
72361W        W44786  27.155  34.043  12.628
72362W        W44787  35.853  43.470   0.409
72363W        W44788  30.556   2.001   1.740
72364W        W44789  22.740   1.361  10.791
72365W        W44790  44.266  19.661  10.789
72366W        W44791  13.704  29.044  12.836
72367W        W44792  20.255  42.958   4.719
72368W        W44793   7.936  40.351   4.531
72369W        W44794   8.699   3.237   0.366
72370W        W44795   4.494  13.227   4.569
72371W        W44796  28.221  13.825  14.524
72372W        W44797  16.766  30.458  13.317
72373W        W44798  29.659  17.565   2.891
72374W        W44799  19.257  33.735  13.465
72375W        W44800  27.551   9.821  13.531
72376W        W44801  15.404  14.091   3.352
72377W        W44802  27.704   3.365  12.860
72378W        W44803  29.241  17.477   0.429
72379W        W44804  26.295  33.072  13.531
72380W        W44805  42.377   5.317   4.215
72381W        W44806  35.906  32.504   1.381
72382W        W44807  39.375  11.796   1.852
72383W        W44808   7.854  16.683  14.917
72384W        W44809  23.948  17.346   1.167
72385W        W44810  34.601   5.805   0.871
72386W        W44811  38.126   4.330   1.230
72387W        W44812  24.769  10.192   0.009
72388W        W44813  11.680   4.618  12.947
72389W        W44814   1.826   2.230  11.400
72390W        W44815  34.584   7.826   0.283
72391W        W44816  20.236   7.435   2.297
72392W        W44817  19.955  13.586   4.151
72393W        W44818  11.126   7.286   1.090
72394W        W44819  25.309  30.473  11.053
72395W        W44820  15.547  19.763   1.468
72396W        W44821   6.278  17.203  13.980
72397W        W44822  15.003  13.250  12.071
72398W        W44823  31.366  19.599  10.626
72399W        W44824  11.633  17.700  13.514
72400W        W44825  36.836  40.176  12.060
72401W        W44826   4.983  23.465   2.754
72402W        W44827   3.013  38.096  11.119
72403W        W44828  29.112   7.978   0.760
72404W        W44829  21.349  23.580   4.073
72405W        W44830  15.846  16.439   1.903
72406W        W44831  35.339   0.730  10.630
72407W        W44832  31.866  44.824  11.570
72408W        W44833  29.161   3.053  12.401
72409W        W44834  37.995  15.614   0.388
72410W        W44835  34.559   3.761  11.513
72411W        W44836  29.360   7.272   2.228
72412W        W44837  22.674  38.041  12.782
72413W        W44838  10.345  43.022   3.777
72414W        W44839  20.012  11.927   1.399
72415W        W44840  36.931  24.078   4.586
72416W        W44841   3.759  12.442   4.175
72417W        W44842  17.599  31.921  14.432
72418W        W44843   6.548  31.489  13.874
72419W        W44844  12.267  41.541   3.133
72420W        W44845  42.449   0.794  12.144
72421W        W44846  32.980  44.296  11.064
72422W        W44847  21.190  31.016   3.357
72423W        W44848  38.397  23.787   4.817
72424W        W44849   5.705  25.995  13.446
72425W        W44850   0.896  13.832   1.395
72426W        W44851  39.557  26.632  10.742
72427W        W44852  15.809  26.942  13.669
72428W        W44853  44.198  44.368   2.764
72429W        W44854  16.824  40.486  10.562
72430W        W44855   4.734  11.394   1.001
72431W        W44856  15.664   3.137  12.831
72432W        W44857  41.402  12.138  13.108
72433W        W44858  17.018  34.077   3.860
72434W        W44859  30.135  40.107  11.627
72435W        W44860  13.234  28.789   3.809
72436W        W44861  18.588  30.746   1.202
72437W        W44862  30.685  13.682  14.422
72438W        W44863  22.717  28.215  10.630
72439W        W44864   4.967   9.845  12.577
72440W        W44865  35.019   1.535  11.593
72441W        W44866  17.772  28.759   1.910
72442W        W44867  12.841  42.752   0.897
72443W        W44868  40.842  15.012   0.498
72444W        W44869   8.687  10.149  14.009
72445W        W44870  31.576  14.602  14.502
72446W        W44871  16.022  44.203   3.847
72447W        W44872  22.664  32.392  12.501
72448W        W44873  35.656  27.927  12.426
72449W        W44874   9.036  24.875   1.289
72450W        W44875  25.981  13.728   3.788
72451W        W44876  43.137  40.039   3.744
72452W        W44877   8.079  35.047  11.555
72453W        W44878  14.203   6.221   1.176
72454W        W44879  39.327  33.082  13.397
72455W        W44880   7.122  22.130  13.430
72456W        W44881  24.993   1.540   2.767
72457W        W44882   3.050  27.619  12.856
72458W        W44883  28.553  16.789   2.796
72459W        W44884  22.437  16.271  11.584
72460W        W44885   0.221   1.333  12.978
72461W        W44886  42.738  24.798   1.358
72462W        W44887  22.983  26.764   4.849
72463W        W44888  12.767  18.351  12.785
72464W        W44889  43.558  38.993   0.748
72465W        W44890   4.629   8.171  12.634
72466W        W44891  23.976  39.599   0.758
72467W        W44892   3.774  43.805   1.689
72468W        W44893  40.426  36.886   1.287
72469W        W44894  39.997  17.518   3.448
72470W        W44895  27.961  26.030  14.802
72471W        W44896  28.176  30.595   2.377
72472W        W44897  11.209  24.993   4.145
72473W        W44898  12.225  12.133   3.769
72474W        W44899  25.193   1.318   3.633
72475W        W44900   8.456   5.968  12.412
72476W        W44901  30.453  21.393   0.693
72477W        W44902  22.745  30.454  12.440
72478W        W44903  39.211  31.340   3.594
72479W        W44904  24.229   2.493  11.283
72480W        W44905  19.596  33.123  13.054
72481W        W44906  16.737  20.544   3.290
72482W        W44907  21.536  37.610  14.542
72483W        W44908   7.740  28.647   4.657
72484W        W44909  11.650  28.134  10.032
72485W        W44910  39.924   4.630  13.850
72486W        W44911  20.200  29.001   4.165
72487W        W44912  19.172  43.848   3.632
72488W        W44913  36.911  43.002   2.763
72489W        W44914  34.138  25.246  13.303
72490W        W44915  11.827  24.144   2.034
72491W        W44916   5.350  41.374   2.953
72492W        W44917   8.269   4.391  11.681
72493W        W44918   3.018  31.477   3.456
72494W        W44919  39.819  17.140  13.955
72495W        W44920  30.452   0.148  10.772
72496W        W44921  39.968  28.428   2.425
72497W        W44922  14.366  12.819  11.497
72498W        W44923  36.003  29.610   2.320
72499W        W44924  27.564   9.963  11.159
72500W        W44925  39.927  19.111   2.745
72501W        W44926  37.621  22.007   4.582
72502W        W44927  40.273  29.065   3.429
72503W        W44928  40.110  16.530   4.110
72504W        W44929  38.443  29.871   0.007
72505W        W44930  41.225   5.215  11.038
72506W        W44931   7.911   4.756   3.382
72507W        W44932  16.183  43.849  14.396
72508W        W44933  10.642  24.209   0.913
72509W        W44934  22.075  36.670  12.983
72510W        W44935  11.278   2.222   3.966
72511W        W44936   4.246  17.380   4.732
72512W        W44937  26.965  15.683   2.258
72513W        W44938  33.957  21.060  13.361
72514W        W44939  34.083  40.117   3.598
72515W        W44940  10.155   4.466   2.911
72516W        W44941   4.495  33.421   1.815
72517W        W44942  15.325  36.432   0.217
72518W        W44943  18.730   5.777   0.551
72519W        W44944  25.227  21.596  14.526
72520W        W44945  25.763  33.150  10.532
72521W        W44946   7.923   8.332   5.017
72522W        W44947  33.961  20.439   0.488
72523W        W44948  26.987   1.030  11.465
72524W        W44949  38.608  13.784  11.563
72525W        W44950  18.786   6.216   1.790
72526W        W44951  42.010  10.860   3.695
72527W        W44952   1.748   8.635  11.640
72528W        W44953  10.962  19.072  12.537
72529W        W44954  34.062  19.333  12.107
72530W        W44955  36.349  40.056  14.911
72531W        W44956  37.999  24.061   4.641
72532W        W44957  22.316  14.866  12.566
72533W        W44958  28.480  16.823   0.223
72534W        W44959  43.402   7.104   3.906
72535W        W44960   1.980   2.809   2.254
72536W        W44961  40.374  41.150   1.689
72537W        W44962  28.580  21.575   1.892
72538W        W44963   0.621  39.801  14.281
72539W        W44964  33.578  36.785   2.415
72540W        W44965  42.234  17.721   0.374
72541W        W44966   4.174   8.146  14.800
72542W        W44967  37.347  34.553   0.352
72543W        W44968  38.803  41.266  10.666
72544W        W44969  36.036  37.904  11.913
72545W        W44970  27.643  43.859   1.764
72546W        W44971   5.772  17.560   2.122
72547W        W44972   7.783  13.955   1.492
72548W        W44973  43.243  13.008  13.379
72549W        W44974   5.647  28.539  10.766
72550W        W44975  23.563   2.863   2.695
72551W        W44976   7.110  38.385   9.901
72552W        W44977  21.785  34.433   3.618
72553W        W44978  28.584  41.095  10.445
72554W        W44979   1.372  39.405  11.774
72555W        W44980   0.018   3.854   0.851
72556W        W44981  41.777  11.118  13.287
72557W        W44982   9.956  38.954  14.814
72558W        W44983  22.725  19.207   0.790
72559W        W44984  23.050  14.378   2.647
72560W        W44985   5.194  13.203   0.368
72561W        W44986  28.038  31.460   1.948
72562W        W44987  26.284  20.635   0.981
72563W        W44988   3.885  18.305  14.895
72564W        W44989  21.080  35.243   2.509
72565W        W44990  36.194  44.240   4.600
72566W        W44991  10.343   7.129  10.717
72567W        W44992  41.801  44.887   0.838
72568W        W44993  43.360  16.519   3.770
72569W        W44994  24.983  10.443   4.198
72570W        W44995  17.731   6.676   3.503
72571W        W44996  25.808  20.340   3.773
72572W        W44997  17.774   4.293   4.178
72573W        W44998   4.669   4.189   3.844
72574W        W44999  15.567   2.397  10.051
72575W        W45000   8.512  27.263   2.919
72576W        W45001  10.167  32.995   5.062
72577W        W45002  35.929   7.071  11.914
72578W        W45003  30.892  22.051   1.845
72579W        W45004  30.594  20.753   2.355
72580W        W45005  41.054   0.237   9.987
72581W        W45006   1.968  17.694  10.980
72582W        W45007  42.801  20.734  11.450
72583W        W45008  17.613  25.126  14.159
72584W        W45009   9.729  18.427   1.759
72585W        W45010  11.703   5.790   1.002
72586W        W45011  16.274   3.221  10.476
72587W        W45012   3.800  28.593  13.536
72588W        W45013   4.966  23.703  14.468
72589W        W45014  21.607  22.626   0.223
72590W        W45015  39.829  36.173  12.370
72591W        W45016  19.191  29.287   4.587
72592W        W45017  40.313  29.015   1.899
72593W        W45018  44.095  28.079  11.609
72594W        W45019  28.611  12.338   4.486
72595W        W45020   3.997  18.232   2.646
72596W        W45021  28.611  39.829  13.405
72597W        W45022  41.320  42.239  12.319
72598W        W45023  11.647  11.010   3.309
72599W        W45024  19.765  38.479   2.178
72600W        W45025   6.787  44.863  14.905
72601W        W45026   9.964  21.770  10.809
72602W        W45027   8.466  36.024  11.930
72603W        W45028  23.345  30.407  14.816
72604W        W45029   0.806   5.093  13.773
72605W        W45030   7.711  25.325  10.841
72606W        W45031  37.954  33.860  12.957
72607W        W45032  11.673  34.966  13.329
72608W        W45033  16.273  16.261   1.148
72609W        W45034  37.131  18.683  11.236
72610W        W45035  24.195   7.390   2.702
72611W        W45036  32.683  19.785  10.984
72612W        W45037  22.224   2.646  10.692
72613W        W45038   8.390  11.771  11.210
72614W        W45039  25.234  26.032  11.063
72615W        W45040   5.173  25.959  13.400
72616W        W45041  39.929  27.415  11.551
72617W        W45042  22.187  33.322  14.849
72618W        W45043  32.620  10.300  13.766
72619W        W45044   3.909  19.647  13.825
72620W        W45045  12.593   2.223   4.701
72621W        W45046  23.233  13.222  12.492
72622W        W45047  25.624  35.035  11.153
72623W        W45048  41.945  14.537   3.732
72624W        W45049  28.201  39.476  14.773
72625W        W45050  26.104  14.911   1.885
72626W        W45051   5.703  24.177   2.963
72627W        W45052  32.548  25.164   1.688
72628W        W45053  23.504  41.757  12.557
72629W        W45054  29.735  25.390  11.231
72630W        W45055   5.397  32.375   1.039
72631W        W45056  38.824  17.574   3.504
72632W        W45057  44.095  26.974  13.270
72633W        W45058   6.473  25.758   0.344
72634W        W45059  19.356  18.596   0.381
72635W        W45060   2.482  44.750  11.085
72636W        W45061  35.479  38.167   1.325
72637W        W45062  21.857  14.282   2.271
72638W        W45063  39.395  43.032   2.304
72639W        W45064   9.648  34.981   2.323
72640W        W45065  15.681  33.919   1.674
72641W        W45066  43.180  34.076  14.701
72642W        W45067  12.675  31.356   1.705
72643W        W45068  25.411  40.763  11.400
72644W        W45069  32.650  17.339   4.989
72645W        W45070  42.012  21.225  11.492
72646W        W45071  23.475   3.385   4.470
72647W        W45072  42.242  25.587   0.949
72648W        W45073  28.117  19.724   4.683
72649W        W45074  18.095  41.309  11.461
72650W        W45075  21.961  39.566   3.148
72651W        W45076  40.143  16.270  13.563
72652W        W45077  10.172  10.369   0.850
72653W        W45078  24.739  28.591   3.848
72654W        W45079   2.453  19.262   4.138
72655W        W45080   8.928  30.958  11.631
72656W        W45081  27.501  16.674  14.009
72657W        W45082  41.391  39.165  12.003
72658W        W45083   2.357  14.638   0.341
72659W        W45084  15.597  25.473  14.489
72660W        W45085   7.847  23.040  11.146
72661W        W45086  41.272  41.522   4.680
72662W        W45087  34.085  27.031  14.917
72663W        W45088  11.302  14.148  12.761
72664W        W45089  39.895  29.696   2.337
72665W        W45090   9.815  43.207  14.523
72666W        W45091  24.574  39.908  10.829
72667W        W45092  42.815  16.844   3.130
72668W        W45093  38.920   2.723  10.637
72669W        W45094  20.709  24.361  11.930
72670W        W45095  36.300  44.694   4.178
72671W        W45096   6.168  39.044  10.621
72672W        W45097  33.737  22.557  10.160
72673W        W45098   2.391  35.485   4.697
72674W        W45099  42.419  39.346   4.297
72675W        W45100   5.276   6.810  14.033
72676W        W45101  19.460  41.880  13.812
72677W        W45102  17.208   3.019  14.532
72678W        W45103   5.766  30.682  14.906
72679W        W45104  11.860  42.133  14.209
72680W        W45105  23.189  34.869  14.135
72681W        W45106   8.710   1.387  10.706
72682W        W45107  38.179   7.456  13.851
72683W        W45108   2.159  30.089  13.600
72684W        W45109  31.503   2.755   3.393
72685W        W45110   5.871  27.031   1.754
72686W        W45111  31.878  21.692   4.942
72687W        W45112  42.833  37.523  12.915
72688ION    NA+45113  32.672  21.307  12.273
72689ION    NA+45114  11.755  28.908  11.247
72690ION    NA+45115  24.949  37.018   0.038
72691ION    NA+45116  18.207  17.770   3.601
72692ION    NA+45117  29.621  29.768   3.034
72693ION    NA+45118  41.169  24.145  13.822
72694ION    NA+45119  10.445  26.493   3.003
72695ION    NA+45120  34.411  33.904   0.341
72696ION    NA+45121  24.570   5.110  11.508
72697ION    NA+45122  28.517  11.429   2.694
72698ION    NA+45123  42.413  24.998   4.685
72699ION    NA+45124  17.116  32.420   2.981
72700ION    NA+45125  19.079  23.953   2.358
72701ION    NA+45126  23.721  38.744   4.585
72702ION    NA+45127  25.736  37.262   4.437
72703ION    NA+45128  35.612  14.828   2.358
72704ION    NA+45129  26.733  19.343   1.876
72705ION    NA+45130  19.045   8.203  10.793
72706ION    NA+45131  39.924  33.602   4.643
72707ION    NA+45132  15.511  33.527  13.188
72708ION    NA+45133  14.868  24.811   5.413
72709ION    NA+45134   1.221   9.845   4.616
72710ION    NA+45135  16.703  17.608   2.226
72711ION    NA+45136  13.615   1.084   1.810
72712ION    NA+45137  20.485  26.059   2.347
72713ION    NA+45138  31.454  11.103   1.889
72714ION    NA+45139  25.179  24.819   0.542
72715ION    NA+45140  11.311  43.784   0.075
72716ION    NA+45141  41.483  42.079  12.767
72717ION    NA+45142   1.385   7.978   2.723
72718ION    NA+45143  34.863  29.934   4.105
72719ION    NA+45144  32.777  31.373   1.335
72720ION    NA+45145  36.241  31.542   2.224
72721ION    NA+45146  17.729   5.439  13.345
72722ION    NA+45147  22.025  38.854  13.569
72723ION    NA+45148  22.534  31.836   1.737
72724ION    NA+45149  31.406  39.429  13.516
72725ION    NA+45150  13.460  17.186   4.131
72726ION    NA+45151  31.649   2.561   2.568
72727ION    NA+45152  43.925  35.403   1.748
72728ION    NA+45153  38.338  36.410  14.788
72729ION    NA+45154  36.422  41.589  13.427
72730ION    NA+45155  11.156  12.450  12.395
72731ION    NA+45156   1.038  33.830   4.975
72732ION    NA+45157  27.743   9.090   2.484
72733ION    NA+45158  19.735  19.454   1.673
72734ION    NA+45159  30.671  20.192  11.850
72735ION    NA+45160  37.599  26.065   0.419
72736ION    NA+45161  31.322  12.041   2.548
72737ION    NA+45162  16.726  19.153   0.923
72738ION    NA+45163   4.001  30.176  10.641
72739ION    NA+45164  34.494  34.430  10.665
72740ION    NA+45165  30.101  23.558  11.011
72741ION    NA+45166  16.013  20.754   2.644
72742ION    NA+45167  15.620  24.285   5.245
72743ION    NA+45168  29.024   5.729  13.069
72744ION    NA+45169  14.111  38.203   2.726
72745ION    NA+45170  37.287  11.832   0.227
72746ION    NA+45171  15.080  43.216  11.831
72747ION    NA+45172  11.703  31.796   2.978
72748ION    NA+45173  10.337  24.068   4.852
72749ION    NA+45174  21.785  24.104   2.807
72750ION    NA+45175  28.673   9.010  10.145
72751ION    NA+45176  21.108  24.129  10.707
72752ION    NA+45177   1.149  17.536   4.634
72753ION    NA+45178  25.285  10.736   1.206
72754ION    NA+45179  28.898   3.863   2.737
72755ION    NA+45180  16.367  15.492   3.056
72756ION    NA+45181   4.968  44.661   0.885
72757ION    NA+45182   0.675  30.697   9.938
72758ION    NA+45183  22.188  10.986   5.370
72759ION    NA+45184  19.069  36.975  11.608
72760ION    NA+45185   4.808  38.063  12.534
72761ION    NA+45186  25.722  21.140  13.709
72762ION    NA+45187  20.046  17.279  11.256
72763ION    NA+45188  19.305  14.965   3.030
72764ION    NA+45189  17.389  41.364  12.411
72765ION    NA+45190  35.421  36.139   2.368
72766ION    NA+45191   1.750  16.899   3.865
72767ION    NA+45192   8.433  27.226   4.598
72768ION    NA+45193   1.086  26.678   1.052
72769ION    NA+45194  18.668  43.627  11.147
72770ION    NA+45195  23.561  37.757   1.706
72771ION    NA+45196  12.544  38.644  13.231
72772ION    NA+45197   0.576  26.875  11.426
72773ION    NA+45198  10.791  14.816  12.951
72774ION    NA+45199  34.028   2.261   4.676
72775ION    NA+45200  35.027  16.459   4.336
72776ION    NA+45201  39.961  15.247   1.301
72777ION    NA+45202  37.442   1.207   0.413
72778ION    NA+45203  41.634   4.399   3.009
72779ION    NA+45204   9.584  43.508  12.618
72780ION    NA+45205  10.336  44.883  10.787
72781ION    NA+45206   1.196  17.241  11.490
72782ION    NA+45207  36.877  18.298  14.913
72783ION    NA+45208  20.327  10.639  14.058
72784ION    NA+45209   8.408  12.555  10.506
72785ION    NA+45210  43.778   6.032  11.564
72786ION    NA+45211  36.089   6.729   2.804
72787ION    NA+45212  13.181   4.611  12.333
72788ION    NA+45213  30.282   0.205  13.682
72789ION    NA+45214  23.893   3.004  10.872
72790ION    NA+45215  23.636   9.828   4.436
72791ION    NA+45216  26.647   6.931   3.949
72792ION    NA+45217  21.947  25.632  12.087
72793ION    NA+45218   1.752  37.660  12.145
72794ION    NA+45219  30.490  10.471  10.301
72795ION    NA+45220  36.697   6.658  12.566
72796ION    NA+45221  36.085   4.124   4.248
72797ION    NA+45222   0.608   6.830   2.776
72798ION    NA+45223  39.393   7.173   1.334
72799ION    NA+45224  41.758  33.547  14.462
72800ION    NA+45225  31.721  32.989   1.829
72801ION    NA+45226  21.303  33.545   3.723
72802ION    NA+45227  38.543  31.412  14.971
72803ION    NA+45228   7.184   0.702  10.842
72804ION    NA+45229  28.821  31.254  14.356
72805ION    NA+45230  34.107   4.847   0.946
72806ION    NA+45231  25.570  19.554  12.495
72807ION    NA+45232  33.463  31.196   1.918
72808ION    NA+45233  43.254   0.878   0.899
72809ION    NA+45234  43.396   1.095  11.218
72810ION    NA+45235   3.292   4.987  13.433
72811ION    NA+45236  12.617   4.633   1.017
72812ION    NA+45237   4.585  25.725   3.998
72813ION    NA+45238   0.932  32.734  13.349
72814ION    NA+45239  42.785   1.212  12.001
72815ION    NA+45240  25.376  27.679   2.802
72816ION    NA+45241  41.188  15.778  11.274
72817ION    NA+45242  34.598  44.448   4.736
72818ION    NA+45243  18.864   3.671   1.853
72819ION    NA+45244   2.939  44.650   4.385
72820ION    NA+45245  24.245   3.219   3.657
72821ION    NA+45246  11.042  37.721  10.269
72822ION    NA+45247  29.767  23.483  14.479
72823ION    NA+45248   3.730  26.542   3.072
72824ION    NA+45249  40.530   8.007  13.179
72825ION    NA+45250   7.249  41.597  14.529
72826ION    NA+45251   7.662  21.113  14.869
72827ION    NA+45252  44.585  20.483   3.043
72828ION    NA+45253  38.049  32.961   2.804
72829ION    NA+45254   9.554  28.915   3.640
72830ION    NA+45255   6.390  19.450  14.202
72831ION    NA+45256  17.577  36.674   2.809
72832ION    NA+45257  32.025  33.077  10.727
72833ION    NA+45258  19.462  37.038   0.810
72834ION    NA+45259  14.380  41.361  13.401
72835ION    NA+45260  44.403  33.873  14.659
72836ION    NA+45261  40.668  10.183   9.525
72837ION    NA+45262  36.769  30.006   4.678
72838ION    NA+45263  23.889   1.311  14.801
72839ION    NA+45264  12.073   1.439   3.457
72840ION    NA+45265   2.205  42.064   3.673
72841ION    NA+45266  41.445  25.054  11.316
72842ION    NA+45267  17.680   2.987   0.723
72843ION    NA+45268  33.134  30.066   2.652
72844ION    NA+45269   1.628   3.230   3.975
72845ION    NA+45270  20.674   5.947  10.985
72846ION    NA+45271  30.194  33.399  11.391
72847ION    NA+45272  33.080  19.210  12.927
72848ION    NA+45273  10.824  41.914   2.493
72849ION    NA+45274  43.735  14.672  12.864
72850ION    NA+45275  27.117  26.587  14.847
72851ION    NA+45276  25.047  28.581  14.128
72852ION    NA+45277  12.651  21.290  11.123
72853ION    NA+45278  27.354  16.009   3.674
72854ION    NA+45279  25.283  20.128   1.895
72855ION    NA+45280   6.865  40.757  14.031
72856ION    NA+45281  23.496  16.989  11.034
72857ION    NA+45282  24.062  26.743   3.689
72858ION    NA+45283  21.343  34.821  11.929
72859ION    NA+45284  31.972   0.623   0.336
72860ION    NA+45285  31.097  33.867  13.697
72861ION    NA+45286   8.510  37.884  12.535
72862ION    NA+45287  20.140  15.369   2.245
72863ION    NA+45288   8.853  23.417   4.916
72864ION    NA+45289  11.302  22.077   3.732
72865ION    NA+45290  37.310   6.201   2.491
72866ION    NA+45291  25.223   2.929   9.836
72867ION    NA+45292   2.890  19.518   3.341
72868ION    NA+45293   4.052   4.991  12.049
72869ION    NA+45294  38.350  27.075   3.934
72870ION    NA+45295   6.784  44.763   4.091
72871ION    NA+45296   4.833   6.986  14.288
72872ION    NA+45297  25.202  23.501  14.832
72873ION    NA+45298  10.425  12.607   2.593
72874ION    NA+45299  14.668  40.608   2.858
72875ION    NA+45300  14.046  24.704   5.551
72876ION    NA+45301  38.084  28.163   3.905
72877ION    NA+45302  11.884  20.260  11.531
72878ION    NA+45303  35.393  22.771   2.826
72879ION    NA+45304   4.208  13.392  14.725
72880ION    NA+45305   2.958  38.020  14.965
72881ION    NA+45306  22.437  30.573   3.231
72882ION    NA+45307  20.024  30.980  14.368
72883ION    NA+45308  34.355  34.110  12.827
72884ION    NA+45309  17.123  19.321   5.206
72885ION    NA+45310  21.305  11.526  11.506
72886ION    NA+45311  14.388  21.270   2.756
72887ION    NA+45312  14.418   4.946   3.748
72888ION    NA+45313  24.070  44.298   0.499
72889ION    NA+45314  38.002  15.644   4.013
72890ION    NA+45315   4.731  16.337   2.321
72891ION    NA+45316  29.130   3.333  10.008
72892ION    NA+45317  36.806  38.423  13.721
72893ION    NA+45318  39.986   2.934   1.045
72894ION    NA+45319  40.763  12.730   0.459
72895ION    NA+45320   6.252  40.574   2.766
72896ION    NA+45321  23.135   7.076  14.401
72897ION    NA+45322  33.732  17.149   3.028
72898ION    NA+45323   7.969   3.999   4.611
72899ION    NA+45324  33.651  11.493  14.942
72900ION    NA+45325  36.249  24.816   4.600
72901ION    NA+45326  39.417  23.116  14.698
72902ION    NA+45327  10.282   4.724  13.506
72903ION    NA+45328  12.507   9.533  11.188
72904ION    NA+45329  16.083  18.864  12.366
72905ION    NA+45330   6.524  14.480  13.794
72906ION    NA+45331   3.854  39.996   4.124
72907ION    NA+45332  14.884  31.650   4.539
72908ION    NA+45333  32.006   9.374  11.764
72909ION    NA+45334  42.291  42.522   3.757
72910ION    NA+45335   9.048   8.794  10.975
72911ION    NA+45336   1.864  12.824  14.623
72912ION    NA+45337   4.573  35.583   5.209
72913ION    NA+45338   3.712  10.300   1.342
72914ION    NA+45339  30.661  25.662  13.419
72915ION    NA+45340   1.605   0.709   0.182
72916ION    NA+45341  42.946  36.458  13.306
72917ION    NA+45342  25.159  10.368   2.811
72918ION    NA+45343  12.556  17.041   3.650
72919ION    NA+45344  33.524  27.158   4.538
72920ION    NA+45345  25.329   7.327  11.977
72921ION    NA+45346  29.185  34.134   4.492
72922ION    NA+45347  21.388  40.535  13.831
72923ION    NA+45348  40.846  21.129   2.731
72924ION    NA+45349   7.911   4.961   1.847
72925ION    NA+45350   5.235  39.804   0.016
72926ION    NA+45351  29.741  36.060   4.110
72927ION    NA+45352  29.198  44.631  13.247
72928ION    NA+45353  33.081   4.725  14.179
72929ION    NA+45354  37.611  26.554  10.922
72930ION    NA+45355  30.554  19.190   2.382
72931ION    NA+45356  36.270   2.137   2.442
72932ION    NA+45357  27.959  31.366  12.539
72933ION    NA+45358  29.103   4.321   0.344
72934ION    NA+45359  27.916  43.203   0.770
72935ION    NA+45360  28.084   3.262   0.446
72936ION    NA+45361  31.548  21.709   4.117
72937ION    NA+45362  37.940  35.430   5.037
72938ION    NA+45363  40.814  32.491   2.678
72939ION    NA+45364  32.201  39.907   1.345
72940ION    NA+45365   1.354  34.330   1.347
72941ION    NA+45366  24.486  15.624  11.949
72942ION    NA+45367   0.306  43.909  12.337
72943ION    NA+45368  35.694  25.028  13.745
72944ION    NA+45369  27.037  40.518  11.460
72945ION    NA+45370  41.638   5.838   4.560
72946ION    NA+45371  15.976  44.128  11.230
72947ION    NA+45372  21.296  34.580  12.746
72948ION    NA+45373  24.209  31.358   2.217
72949ION    NA+45374  14.638   6.380  11.393
72950ION    NA+45375  32.866  34.881   1.713
72951ION    NA+45376   1.660  21.261  12.967
72952ION    NA+45377  12.969   1.840  12.003
72953ION    NA+45378  27.082  14.122   3.238
72954ION    NA+45379  22.767   9.460  12.400
72955ION    NA+45380  41.982  39.181  11.966
72956ION    NA+45381  42.486  38.410   0.782
72957ION    NA+45382  12.575  36.976   1.224
72958ION    NA+45383  11.395  40.141   0.987
72959ION    NA+45384  17.328  41.098  13.281
72960ION    NA+45385  17.114  22.907  11.025
72961ION    NA+45386  32.603  11.798   3.600
72962ION    NA+45387  21.943  35.600   0.917
72963ION    NA+45388   7.182  18.812  13.868
72964ION    NA+45389   4.842  18.820   4.439
72965ION    NA+45390  43.008   7.373   2.262
72966ION    NA+45391  28.664  37.421   2.589
72967ION    NA+45392   8.801  41.719   3.244
72968ION    NA+45393  17.788   9.936   3.672
72969ION    NA+45394   4.839  18.614  13.419
72970ION    NA+45395  11.095  43.005  10.709
72971ION    NA+45396   8.745  32.744  12.025
72972ION    NA+45397  13.321   2.285  10.906
72973ION    NA+45398  39.954  27.223  14.890
72974ION    NA+45399  35.360  10.627   0.247
72975ION    NA+45400  12.674  11.139  14.834
72976ION    NA+45401  42.841  12.639  12.643
72977ION    NA+45402  22.063  42.753   1.211
72978ION    NA+45403  19.305  10.647  11.209
72979ION    NA+45404  15.796  41.719  13.292
72980ION    NA+45405  32.590  38.928   2.470
72981ION    NA+45406  39.963   8.900  13.343
72982ION    NA+45407  44.464  12.279   4.979
72983ION    NA+45408  26.438   6.814   5.419
72984ION    NA+45409   7.880  11.289   1.489
72985ION    NA+45410   0.937  27.586  12.147
72986ION    NA+45411  41.038  25.193  12.219
72987ION    NA+45412  25.183   3.424   2.217
72988ION    NA+45413  20.653  19.060  12.089
72989ION    NA+45414   9.357  29.079  12.502
72990ION    NA+45415  28.577  27.048  13.945
72991ION    NA+45416  32.654  31.910  14.004
72992ION    NA+45417  33.209  40.401   0.012
72993ION    NA+45418   7.510  24.685   2.817
72994ION    NA+45419   8.854  17.808  11.151
72995ION    NA+45420  15.405  15.535  12.066
72996ION    NA+45421  25.871  31.620  12.469
72997ION    NA+45422  12.650   7.962   0.088
72998ION    NA+45423  31.240  24.658  12.460
72999ION    NA+45424  21.514  23.572   1.264
73000ION    NA+45425  37.667  27.014  14.986
73001ION    NA+45426  40.583  42.045   3.837
73002ION    NA+45427  12.350  40.301   3.667
73003ION    NA+45428  18.798  42.196  14.442
73004ION    NA+45429  16.996   8.745  12.611
73005ION    NA+45430  15.704  22.104  14.532
73006ION    NA+45431  30.239  29.385  14.416
73007ION    NA+45432  26.454  15.577   3.736
73008ION    NA+45433  15.455  33.589   0.847
73009ION    NA+45434   6.154  12.330   2.174
73010ION    NA+45435  26.869  34.375  10.972
73011ION    NA+45436  26.406  43.706   4.897
73012ION    NA+45437  17.724  20.635   4.207
73013ION    NA+45438  14.705  15.718   2.554
73014ION    NA+45439  17.267  22.448  14.789
73015ION    NA+45440   3.161  34.063  12.055
73016ION    NA+45441  35.859  13.223  11.667
73017ION    NA+45442   1.846  33.349   2.391
73018ION    NA+45443  39.519  20.498   1.783
73019ION    NA+45444  34.689  38.525  14.430
73020ION    NA+45445  14.852  31.149  10.776
73021ION    NA+45446  28.370  37.954  13.981
73022ION    NA+45447  28.834  19.645  10.585
73023ION    NA+45448  44.713  29.679  14.080
73024ION    NA+45449   8.978  29.730  11.846
73025ION    NA+45450  31.103  11.151  12.055
73026ION    NA+45451   6.105  32.645  14.139
73027ION    NA+45452  13.661  21.359   1.781
73028ION    NA+45453  36.359  19.738  10.845
73029ION    NA+45454  35.641  18.059   0.194
73030ION    NA+45455  42.802   2.692  11.065
73031ION    NA+45456   3.324   0.976  11.143
73032ION    NA+45457  35.560  33.371   0.370
73033ION    NA+45458   7.345  19.137   2.851
73034ION    NA+45459   9.724  17.713  11.634
73035ION    NA+45460  34.105  10.687   4.936
73036ION    NA+45461  44.017  41.196  11.163
73037ION    NA+45462  40.378  25.402  13.433
73038ION    NA+45463  43.207  15.178   2.724
73039ION    NA+45464  16.955   3.990   0.500
73040ION    NA+45465  38.543  43.424   3.038
73041ION    NA+45466  41.556  15.177  12.069
73042ION    NA+45467   8.821  44.268   2.389
73043ION    NA+45468  25.637   9.856   4.390
73044ION    NA+45469  13.254  30.839  14.627
73045ION    NA+45470  38.954  16.929   9.864
73046ION    NA+45471  20.853  15.489   4.157
73047ION    NA+45472  15.863  44.081  12.342
73048ION    NA+45473  28.664  36.989   1.808
73049ION    NA+45474  14.339  41.581   2.531
73050ION    NA+45475   5.409  16.107  14.912
73051ION    NA+45476   4.311   9.142  10.202
73052ION    NA+45477  35.807   8.519   3.132
73053ION    NA+45478  11.133  31.215  13.401
73054ION    NA+45479  18.623   2.271   0.291
73055ION    NA+45480  41.848  25.072  12.833
73056ION    NA+45481  41.131  16.933  11.071
73057ION    NA+45482  27.874   2.519   0.144
73058ION    NA+45483  35.974   5.080   4.518
73059ION    NA+45484  20.107   3.159  11.037
73060ION    NA+45485  37.044   4.812   1.667
73061ION    NA+45486  44.913  39.638  14.727
73062ION    NA+45487  44.609   1.185   1.555
73063ION    NA+45488  27.215  12.692   1.784
73064ION    NA+45489  26.459  27.188  14.229
73065ION    NA+45490   2.380   5.652  11.682
73066ION    NA+45491   0.939   4.149  12.477
73067ION    NA+45492  14.259  28.326   4.679
73068ION    NA+45493   1.040   5.911   1.888
73069ION    NA+45494  41.086  40.053   2.413
73070ION    NA+45495   0.694  13.850   3.841
73071ION    NA+45496  15.883   8.170  11.138
73072ION    NA+45497  35.761  33.559   1.944
73073ION    NA+45498   4.896  40.796   3.248
73074ION    NA+45499  22.852  25.613   3.705
73075ION    NA+45500   7.234   7.867  14.962
73076ION    NA+45501  44.664  34.426   5.095
73077ION    NA+45502  10.795  39.152  11.530
73078ION    NA+45503  12.569   1.358  10.133
73079ION    NA+45504  36.324  41.621  11.752
73080ION    NA+45505  22.561  38.060  13.282
73081ION    NA+45506  22.518  17.981   3.132
73082ION    NA+45507  28.585  14.931   4.627
73083ION    NA+45508  32.850  30.926  13.038
73084ION    NA+45509  17.182  40.527   4.378
73085ION    NA+45510  31.250   5.512  12.866
73086ION    NA+45511  12.647  26.530  12.503
73087ION    NA+45512  37.846  14.862   1.314
73088ION    NA+45513  36.293  12.825  14.466
73089ION    NA+45514   5.805   4.616  14.569
73090ION    NA+45515  30.924   1.954  11.463
73091ION    NA+45516  41.406  38.374  10.876
73092ION    NA+45517  11.978  18.779  14.449
73093ION    NA+45518  19.953  14.351  10.711
73094ION    NA+45519   2.820  25.703   4.721
73095ION    NA+45520  17.080  20.689   1.615
73096ION    NA+45521  40.788  42.921  11.614
73097ION    NA+45522  22.394  13.637  13.338
73098ION    NA+45523  16.854  16.463   0.466
73099ION    NA+45524  15.421  38.165  14.099
73100ION    NA+45525   5.552   1.641  12.980
73101ION    NA+45526   9.398   8.592  14.646
73102ION    NA+45527  28.113  14.245  11.451
73103ION    NA+45528   4.601  34.850  13.341
73104ION    NA+45529  41.051  37.796  10.052
73105ION    NA+45530   7.619   0.209  14.864
73106ION    NA+45531   8.362   1.002   2.225
73107ION    NA+45532  44.020  14.703  11.661
73108ION    NA+45533  38.162  44.901   0.708
73109ION    NA+45534  12.162  14.567  13.150
73110ION    NA+45535  26.441  20.659  13.446
73111ION    NA+45536  18.009  11.685   3.034
73112ION    NA+45537  16.539  41.861  11.112
73113ION    NA+45538  20.957  33.579   1.046
73114ION    NA+45539   8.173  35.197   2.184
73115ION    NA+45540  36.701  38.416   1.581
73116ION    NA+45541  36.965   5.757   1.251
73117ION    NA+45542  10.087  44.253   4.166
73118ION    NA+45543  11.347  42.694  13.654
73119ION    NA+45544  26.964  18.975  10.962
73120ION    NA+45545  28.568  21.465  14.876
73121ION    NA+45546  13.955  33.108   2.834
73122ION    NA+45547  12.918  28.604  10.731
73123ION    NA+45548  23.569  24.767  13.309
73124ION    NA+45549  42.304  27.984  12.718
73125ION    NA+45550  21.542  26.730   3.393
73126ION    NA+45551  44.106  43.074   0.114
73127ION    NA+45552  13.454  26.348  12.878
73128ION    NA+45553  32.067   8.668   0.350
73129ION    NA+45554  38.211  43.187  12.377
73130ION    NA+45555  13.757   9.880   1.803
73131ION    NA+45556  31.552   3.120  13.084
73132ION    NA+45557  25.228   1.677  11.565
73133ION    NA+45558  20.314  14.617   4.147
73134ION    NA+45559  44.995  26.485  12.149
73135ION    NA+45560   5.122  19.527  14.916
73136ION    NA+45561  21.678  44.250  13.880
73137ION    NA+45562   8.970  22.515   1.518
73138ION    NA+45563   7.696  37.275  10.753
73139ION    NA+45564  35.726  26.480   0.280
73140ION    NA+45565  11.566   2.301  13.061
73141ION    NA+45566  20.428  25.913   4.620
73142ION    NA+45567  21.156  30.807  12.149
73143ION    NA+45568  37.212  21.381  11.355
73144ION    NA+45569  18.850   2.696  10.649
73145ION    NA+45570  36.455  24.692   1.246
73146ION    NA+45571  28.128   3.096  14.614
73147ION    NA+45572  13.238  39.295   0.381
73148ION    NA+45573   5.566  35.375  11.141
73149ION    NA+45574  37.829  24.378  12.638
73150ION    NA+45575   2.934   3.155   0.487
73151ION    NA+45576  24.745   1.286   1.867
73152ION    NA+45577  21.489  41.823   0.400
73153ION    NA+45578  34.413   4.020   5.071
73154ION    NA+45579   5.786  29.747   4.668
73155ION    NA+45580  17.680  30.387  14.421
73156ION    NA+45581  21.309  23.708  13.443
73157ION    NA+45582  11.395  27.960   2.811
73158ION    NA+45583  13.880  13.985  10.791
73159ION    NA+45584  17.237  27.896   2.685
73160ION    NA+45585   1.737   6.818   0.878
73161ION    NA+45586  19.438   8.677   0.118
73162ION    NA+45587   9.758  28.305  12.992
73163ION    NA+45588  14.140  20.610  11.096
73164ION    NA+45589  32.994  14.051  14.027
73165ION    NA+45590  42.829  38.915  14.481
73166ION    NA+45591   4.823  24.716   2.924
73167ION    NA+45592  16.655  11.364  12.394
73168ION    NA+45593  39.682  23.261   4.190
73169ION    NA+45594  31.517   8.672   0.968
73170ION    NA+45595   8.731   1.722   2.661
73171ION    NA+45596   0.953  36.307  11.657
73172ION    NA+45597   2.185  22.189  13.497
73173ION    NA+45598  29.766  35.357   1.041
73174ION    NA+45599  43.554  42.346   0.779
73175ION    NA+45600  19.547  22.584   2.383
73176ION    NA+45601   5.118   6.599   4.741
73177ION    NA+45602  24.481  13.708   0.362
73178ION    NA+45603  39.588  13.142  10.321
73179ION    NA+45604   2.761  27.672   1.479
73180ION    NA+45605  34.358  13.649  11.836
73181ION    NA+45606  19.196  29.577  10.601
73182ION    NA+45607  27.778  20.868  14.632
73183ION    NA+45608   9.816  14.139  11.363
73184ION    NA+45609  37.942   7.180   1.788
73185ION    NA+45610  28.270   7.472  10.718
73186ION    NA+45611  28.666  34.936  12.135
73187ION    NA+45612   9.690  40.347  13.421
73188ION    NA+45613  29.232  13.611  14.396
73189ION    NA+45614  22.470   5.290   2.562
73190ION    NA+45615  19.969  10.512  12.340
73191ION    NA+45616  43.861  39.619   0.327
73192ION    NA+45617  36.372  10.804   0.817
73193ION    NA+45618  35.755  17.455  11.958
73194ION    NA+45619  33.549  11.642  12.134
73195ION    NA+45620  32.035  29.913   1.952
73196ION    NA+45621  26.511  38.249  14.187
73197ION    NA+45622  15.525  13.932  12.144
73198ION    NA+45623  35.798  39.280   0.276
73199ION    NA+45624   6.009  32.056  14.941
73200ION    NA+45625  24.263  17.572   2.662
73201ION    NA+45626   4.902  43.002   0.011
73202ION    NA+45627  27.268  34.924   3.438
73203ION    NA+45628  28.112  28.714   2.302
73204ION    NA+45629   4.713  28.474   2.587
73205ION    NA+45630  39.560  21.835   1.423
73206ION    NA+45631  13.376  12.072   1.752
73207ION    NA+45632  36.503  19.106   4.602
73208ION    NA+45633  24.456  21.856  13.326
73209ION    NA+45634  35.974   9.584   4.127
73210ION    NA+45635  27.193   9.029   1.760
73211ION    NA+45636  13.414  16.309  11.164
73212ION    NA+45637  20.736  35.601  14.282
73213ION    NA+45638   6.908  26.633   2.805
73214ION    NA+45639  21.242   6.221   3.115
73215ION    NA+45640  14.820   7.952   1.077
73216ION    NA+45641  43.745  28.098  12.634
73217ION    NA+45642  42.911  43.831  10.745
73218ION    NA+45643  38.875  12.660   0.268
73219ION    NA+45644  11.274  19.492   3.437
73220ION    NA+45645  17.588  12.462   2.824
73221ION    NA+45646   4.964  14.409  10.536
73222ION    NA+45647  39.778  14.467  13.771
73223ION    NA+45648  15.385  22.978  13.123
73224ION    NA+45649  37.661  28.624  13.141
73225ION    NA+45650   9.808   7.132  12.383
73226ION    NA+45651  35.806  17.251   4.264
73227ION    NA+45652  35.639   9.892  14.526
73228ION    NA+45653   5.187  44.356  11.982
73229ION    NA+45654   8.836  42.396  14.476
73230ION    NA+45655   0.632  22.603  14.171
73231ION    NA+45656   8.753  17.332   3.260
73232ION    NA+45657  40.955  18.631   3.707
73233ION    NA+45658  28.394  15.650  10.681
73234ION    NA+45659   2.346  26.079  12.470
73235ION    NA+45660  42.966   8.878  14.535
73236ION    NA+45661  11.099  11.395  14.007
73237ION    NA+45662   0.837  41.084   1.260
73238ION    NA+45663   6.972  43.054   3.860
73239ION    NA+45664   0.892  13.327   2.908
73240ION    NA+45665  30.531  23.086   0.806
73241ION    NA+45666  36.487  23.576   1.137
73242ION    NA+45667   1.780  33.764   4.057
73243ION    NA+45668   4.476  31.683   3.520
73244ION    NA+45669  13.550  25.075  13.989
73245ION    NA+45670  39.973  32.003  12.191
73246ION    NA+45671  17.023   4.598   4.894
73247ION    NA+45672  24.225  31.712  12.002
73248ION    NA+45673  21.402  34.132  14.014
73249ION    NA+45674   8.420  12.876  11.707
73250ION    NA+45675  18.770  20.067   1.971
73251ION    NA+45676  21.809  12.354   4.863
73252ION    NA+45677  41.645  42.763   0.955
73253ION    NA+45678  24.623  40.805   0.013
73254ION    NA+45679  34.167  28.715  14.021
73255ION    NA+45680  41.830  37.595  14.731
73256ION    NA+45681  23.090   5.095   0.423
73257ION    NA+45682  17.665  33.664   1.200
73258ION    NA+45683  29.636   9.367   3.315
73259ION    NA+45684   4.772  23.350  11.084
73260ION    NA+45685  30.135   4.304   0.419
73261ION    NA+45686   5.250  31.817  14.314
73262ION    NA+45687  17.835  37.042  14.955
73263ION    NA+45688  20.051  38.122   2.458
73264ION    NA+45689  43.519  28.569   1.932
73265ION    NA+45690  15.613  19.833  12.639
73266ION    NA+45691  44.503   3.765   0.854
73267ION    NA+45692  13.652  34.204  10.538
73268ION    NA+45693  15.167  24.507  11.575
73269ION    NA+45694  16.363  21.318  11.443
73270ION    NA+45695   3.733  24.562   2.353
73271ION    NA+45696  36.018   7.598  11.921
73272ION    NA+45697   6.011  22.227   1.719
73273ION    NA+45698   6.992  42.548  13.593
73274ION    NA+45699  11.859  19.388  13.623
73275ION    NA+45700   7.627  42.398   0.900
73276ION    NA+45701  30.320  14.268  11.193
73277ION    NA+45702  11.731   0.566  12.022
73278ION    NA+45703  10.271  35.507  14.925
73279ION    NA+45704  24.958  39.824   0.383
73280ION    NA+45705  41.624  34.056   0.349
73281ION    NA+45706   6.411   1.037  12.510
73282ION    NA+45707   9.582  15.812  11.937
73283ION    NA+45708  24.260  23.768  10.680
73284ION    NA+45709   9.862  33.360   0.390
73285ION    NA+45710  33.013  35.093  14.205
73286ION    NA+45711  44.373  21.267  10.979
73287ION    NA+45712  28.468  14.255  14.347
73288ION    NA+45713  38.650   7.085   3.798
73289ION    NA+45714  31.654  24.093   0.917
73290ION    NA+45715  23.733  19.236   4.652
73291ION    NA+45716   0.722  30.019   0.983
73292ION    NA+45717   6.316  34.408  14.929
73293ION    NA+45718  10.463  36.943  12.859
73294ION    NA+45719  32.600  24.705   3.986
73295ION    NA+45720  38.914   6.949  10.329
73296ION    NA+45721  14.001  28.488   1.004
73297ION    NA+45722   0.558  38.845   2.927
73298ION    NA+45723   6.789  29.987   2.609
73299ION    NA+45724  11.007  35.142  14.783
73300ION    NA+45725  44.052  13.776   2.326
73301ION    NA+45726  23.984  15.027   4.591
73302ION    NA+45727  11.228  30.642  14.215
73303ION    NA+45728  32.073  40.405  14.394
73304ION    NA+45729  43.148  25.684   4.640
73305ION    NA+45730  36.323  26.215  12.154
73306ION    NA+45731  33.135  21.638  14.487
73307ION    NA+45732  41.475   1.467   4.758
73308ION    NA+45733  38.607  25.004   1.469
73309ION    NA+45734  40.305  33.937  13.561
73310ION    NA+45735  10.375  25.631  13.434
73311ION    NA+45736  40.213  14.045   1.485
73312ION    NA+45737  12.125  39.254  12.772
73313ION    NA+45738  33.461  27.881   3.038
73314ION    NA+45739   1.366  44.526  11.631
73315ION    NA+45740  21.888   0.625  11.115
73316ION    NA+45741  32.739  39.821   0.506
73317ION    NA+45742   9.821  25.616  12.368
73318ION    NA+45743  19.410  16.959   1.268
73319ION    NA+45744  38.382  11.360  12.606
73320ION    NA+45745  13.089  28.073   1.062
73321ION    NA+45746  41.441  30.461  12.405
73322ION    NA+45747  36.628  36.489   3.957
73323ION    NA+45748  37.853  30.140  12.928
73324ION    NA+45749   6.990  14.877   4.210
73325ION    NA+45750  14.848  30.875  13.036
73326ION    NA+45751  13.930  11.384  10.948
73327ION    NA+45752  23.013  31.169   3.791
73328ION    NA+45753   8.117   5.976  10.512
73329ION    NA+45754  20.671  15.490  14.663
73330ION    NA+45755  21.248  16.894  12.265
73331ION    NA+45756  30.623  15.775  12.218
73332ION    NA+45757  39.599  34.865  12.664
73333ION    NA+45758   8.695   1.095   4.186
73334ION    NA+45759  11.537  12.180  11.712
73335ION    NA+45760  12.030  21.899   5.347
73336ION    NA+45761  33.651   9.708  11.316
73337ION    NA+45762  36.895  20.321  14.812
73338ION    NA+45763  33.343  26.463   2.790
73339ION    NA+45764  33.668  39.260  11.593
73340ION    NA+45765  13.210  38.782  11.119
73341ION    NA+45766  19.001  22.596  12.476
73342ION    NA+45767   5.279  36.472   1.704
73343ION    NA+45768  44.365   4.665  11.972
73344ION    NA+45769  38.825   6.073   3.822
73345ION    NA+45770  43.015  39.051   4.699
73346ION    NA+45771  26.134  38.556   1.025
73347ION    NA+45772  15.192  13.916   4.384
73348ION    NA+45773  42.590   1.711  11.156
73349ION    NA+45774  22.640   5.355   4.308
73350ION    NA+45775   7.971  34.326  10.242
73351ION    NA+45776  14.991   1.269   3.555
73352ION    NA+45777  28.048  16.601   2.495
73353ION    NA+45778  41.126  10.372   2.211
73354ION    NA+45779  26.258   6.273   1.147
73355ION    NA+45780  16.951  12.683   0.002
73356ION    NA+45781  30.844  34.627   1.312
73357ION    NA+45782   0.239  10.302  12.113
73358ION    NA+45783  44.910  25.553   4.517
73359ION    NA+45784  30.942   2.393  14.287
73360ION    NA+45785  32.226   2.607  12.151
73361ION    NA+45786  42.112  40.926   4.574
73362ION    NA+45787  33.923   5.325  14.918
73363ION    NA+45788   7.166  11.283   0.752
73364ION    NA+45789   2.061  11.317  14.242
73365ION    NA+45790  42.374   1.361  10.350
73366ION    NA+45791  16.617  37.598  10.449
73367ION    NA+45792   6.842  37.364   3.376
73368ION    NA+45793  28.879  21.369  10.691
73369ION    NA+45794   3.843  43.992  10.489
73370ION    NA+45795  15.034   6.713  14.331
73371ION    NA+45796  22.343  23.694   0.718
73372ION    NA+45797  38.206  34.885   0.461
73373ION    NA+45798  37.294  15.832   4.706
73374ION    NA+45799  19.680  32.730   0.330
73375ION    NA+45800   3.899  38.533  11.782
73376ION    NA+45801   6.253  33.836  13.186
73377ION    NA+45802  10.192   6.319   0.027
73378ION    NA+45803  30.417  33.445   1.830
73379ION    NA+45804  24.286  18.233   1.248
73380ION    NA+45805   4.993  15.421   1.097
73381ION    NA+45806  26.132  30.487   2.851
73382ION    NA+45807  23.977   8.410  10.986
73383ION    NA+45808  42.542  25.980   3.791
73384ION    NA+45809  22.259  19.188   2.082
73385ION    NA+45810  34.756  28.407  14.775
73386ION    NA+45811  24.921  15.094  14.998
73387ION    NA+45812   7.061  42.526  11.646
73388ION    NA+45813  29.129  38.839  14.958
73389ION    NA+45814  42.762  23.653   2.754
73390ION    NA+45815  16.610  23.822  13.943
73391ION    NA+45816  41.946   6.777  11.814
73392ION    NA+45817  11.830   3.788   1.902
73393ION    NA+45818   4.343  22.497  12.115
73394ION    NA+45819  35.475   0.777   0.458
73395ION    NA+45820  19.946  37.229  11.699
73396ION    NA+45821  23.129  37.315  11.535
73397ION    NA+45822  28.173  25.967  11.969
73398ION    NA+45823  43.953  19.458  12.918
73399ION    NA+45824  44.913  35.694   3.589
73400ION    NA+45825   3.084  30.916   2.449
73401ION    NA+45826  39.786  20.763   3.275
73402ION    NA+45827  26.399  34.481   3.659
73403ION    NA+45828  38.205  32.136  11.434
73404ION    NA+45829   9.916  31.784   2.748
73405ION    NA+45830  43.065  31.434  11.595
73406ION    NA+45831  23.348  42.279  12.797
73407ION    NA+45832  20.016   6.009   2.380
73408ION    NA+45833   4.221  14.359  12.813
73409ION    NA+45834  37.281   0.838   1.983
73410ION    NA+45835  43.451   2.791   0.926
73411ION    NA+45836  40.128  30.037  14.507
73412ION    NA+45837  28.890   0.218   2.373
73413ION    NA+45838  17.498  18.484   1.868
73414ION    NA+45839   2.838  23.524  12.976
73415ION    NA+45840  43.572   2.689  13.456
73416ION    NA+45841   6.944  30.780  12.111
73417ION    NA+45842  18.791  28.471   3.627
73418ION    NA+45843  14.935  12.220   2.503
73419ION    NA+45844  25.390  10.184  14.360
73420ION    NA+45845   2.362  19.485  12.166
73421ION    NA+45846  27.125  37.830   3.507
73422ION    NA+45847  41.782  32.716   2.791
73423ION    NA+45848  44.853  31.290  12.239
73424ION    NA+45849   2.153  23.001   2.413
73425ION    NA+45850  26.569  13.163   0.319
73426ION    NA+45851  26.445   6.410   0.171
73427ION    NA+45852  42.037  41.921   1.648
73428ION    NA+45853   9.276  16.101   4.704
73429ION    NA+45854  15.672  10.414   1.773
73430ION    NA+45855   9.860  13.051  12.151
73431ION    NA+45856   8.012  29.349  11.878
73432ION    NA+45857  34.235  24.086  10.676
73433ION    NA+45858  27.804   4.003  14.346
73434ION    NA+45859  31.154  36.832  11.389
73435ION    NA+45860  28.249  16.725  10.213
73436ION    NA+45861  44.464  25.242   2.372
73437ION    NA+45862  21.483  28.956   3.148
73438ION    NA+45863  28.943   4.276  10.763
73439ION    NA+45864  38.815  41.431  11.175
73440ION    NA+45865  16.005  14.865  11.930
73441ION    NA+45866  44.116  33.551  11.621
73442ION    NA+45867   7.602  36.601   5.048
73443ION    NA+45868   3.483  44.582   3.183
73444ION    NA+45869  42.094  22.224   1.912
73445ION    NA+45870  23.656  27.636  13.294
73446ION    NA+45871  40.577  38.439   1.584
73447ION    NA+45872   3.382  15.101  12.043
73448ION    NA+45873  26.528   9.339  14.833
73449ION    NA+45874  39.401  43.614  14.986
73450ION    NA+45875   8.361  26.162   3.784
73451ION    NA+45876  38.806  23.964  10.640
73452ION    NA+45877  25.229  35.979   4.133
73453ION    NA+45878  21.747  12.841  14.115
73454ION    NA+45879  38.692  19.722   1.904
73455ION    NA+45880  17.599   0.588  13.771
73456ION    NA+45881  17.125  40.456   5.607
73457ION    NA+45882  39.634  36.515   0.242
73458ION    NA+45883  15.684  19.071   3.144
73459ION    NA+45884  11.156  18.556  11.112
73460ION    NA+45885  15.654  17.133  13.006
73461ION    NA+45886  24.781   3.399  13.967
73462ION    NA+45887  15.168  33.918   3.551
73463ION    NA+45888  43.784  18.314  14.503
73464ION    NA+45889  14.424  38.698  11.580
73465ION    NA+45890   2.859  17.820   1.195
73466ION    NA+45891  23.249  12.211   9.551
73467ION    NA+45892  19.023   7.465   3.736
73468ION    NA+45893  37.089   2.065   3.887
73469ION    NA+45894  19.758  30.917   3.333
73470ION    NA+45895  23.280   9.426  14.116
73471ION    NA+45896   7.643  18.351   2.310
73472ION    NA+45897  10.974  19.890  11.720
73473ION    NA+45898   4.048  35.466   0.628
73474ION    NA+45899   1.330   2.692   1.252
73475ION    NA+45900  21.281   3.311  11.221
73476ION    NA+45901  28.461  11.143  12.270
73477ION    NA+45902  29.928   9.871   0.328
73478ION    NA+45903  38.074  12.988  13.375
73479ION    NA+45904  19.321  10.681  14.812
73480ION    NA+45905  25.069   2.583   3.789
73481ION    NA+45906  15.423   1.542   1.933
73482ION    NA+45907  35.008  43.477  13.975
73483ION    NA+45908   1.158  13.701  11.026
73484ION    NA+45909  34.612  12.094  11.705
73485ION    NA+45910  30.725  39.598   4.761
73486ION    NA+45911   4.439  11.246   3.370
73487ION    NA+45912  27.432  40.864   1.667
73488ION    NA+45913  38.781   1.059  12.125
73489ION    NA+45914  15.036  32.152   2.064
73490ION    NA+45915  36.021  17.568   1.253
73491ION    NA+45916  17.924  40.822   3.777
73492ION    NA+45917  41.512  23.117   5.080
73493ION    NA+45918  12.558   8.398   1.493
73494ION    NA+45919  32.586  43.271  12.867
73495ION    NA+45920   0.079  30.818  14.979
73496ION    NA+45921  29.132  43.859   2.401
73497ION    NA+45922  14.806  14.796   3.705
73498ION    NA+45923   9.004  13.069  14.765
73499ION    NA+45924  33.709  27.330  11.053
73500ION    NA+45925  33.640  19.127   0.755
73501ION    NA+45926   8.491   4.679   5.092
73502ION    NA+45927   1.428  25.241   0.034
73503ION    NA+45928  43.976  12.270   1.951
73504ION    NA+45929  35.933  39.068   4.177
73505ION    NA+45930  29.860  20.721   0.720
73506ION    NA+45931   8.936  37.491  11.077
73507ION    NA+45932   5.958  36.541  14.865
73508ION    NA+45933  25.584  11.197   4.733
73509ION    NA+45934  22.120  31.979  14.982
73510ION    NA+45935  40.306  40.234   3.227
73511ION    NA+45936  32.024  22.841  12.000
73512ION    NA+45937  24.029  11.850   0.451
73513ION    NA+45938  44.627  40.871  12.691
73514ION    NA+45939  22.436  44.468  12.694
73515ION    NA+45940  25.545  43.291  13.463
73516ION    NA+45941  13.372   3.329  11.953
73517ION    NA+45942  12.871  24.199   2.478
73518ION    NA+45943  28.810  19.977   1.116
73519ION    NA+45944  37.523   0.761  11.059
73520ION    NA+45945  42.647   0.893   4.072
73521ION    NA+45946  19.224  14.587  13.011
73522ION    NA+45947  19.388  21.146   3.565
73523ION    NA+45948  12.535  33.901  13.399
73524ION    NA+45949  11.136  39.764   1.876
73525ION    NA+45950  36.988   2.960   4.022
73526ION    NA+45951  43.033  31.420   0.268
73527ION    NA+45952  41.153  36.924   0.034
73528ION    NA+45953  42.559  42.359   0.879
73529ION    NA+45954  11.410  21.196   3.877
73530ION    NA+45955  43.350   3.273   3.107
73531ION    NA+45956  18.787  13.902   2.255
73532ION    NA+45957  44.799   4.222   3.075
73533ION    NA+45958  15.225  35.408  11.663
73534ION    NA+45959  14.410  42.332  13.640
73535ION    NA+45960  30.272  39.422   0.515
73536ION    NA+45961  15.936  24.578  14.614
73537ION    NA+45962  37.379  23.915  13.271
73538ION    NA+45963  19.517  20.057  12.699
73539ION    NA+45964  44.373  24.097  10.753
73540ION    NA+45965   3.969  14.287   4.295
73541ION    NA+45966  44.988  39.761   4.419
73542ION    NA+45967  12.899  29.879  13.835
73543ION    NA+45968  38.782  14.397   3.445
73544ION    NA+45969  29.372  40.287  12.568
73545ION    NA+45970  41.228   2.759  11.164
73546ION    NA+45971   2.029  41.056  13.537
73547ION    NA+45972  23.713   9.867   1.243
73548ION    NA+45973  39.904  40.088  12.475
73549ION    NA+45974  28.960  13.598  11.215
73550ION    NA+45975  15.904  39.230   3.910
73551ION    NA+45976  17.149   5.779   3.949
73552ION    NA+45977   5.227   6.627  12.108
73553ION    NA+45978  15.460   7.475  14.170
73554ION    NA+45979   4.728  31.355  11.975
73555ION    NA+45980  11.642  21.967   2.249
73556ION    NA+45981  39.774  40.360   0.823
73557ION    NA+45982  31.201  22.957   4.235
73558ION    NA+45983  23.351  11.054  11.138
73559ION    NA+45984  26.868   4.987   0.933
73560ION    NA+45985  31.450  30.417   3.666
73561ION    NA+45986  10.015  41.687  10.660
73562ION    NA+45987  13.854  23.404   1.309
73563ION    NA+45988   3.487  43.724  13.012
73564ION    NA+45989  22.830  41.432   3.695
73565ION    NA+45990   4.963   3.945  13.672
73566ION    NA+45991  36.076  19.778   2.333
73567ION    NA+45992  16.235  18.211   0.994
73568ION    NA+45993  27.890  34.984   2.849
73569ION    NA+45994  17.835  31.672  13.976
73570ION    NA+45995  29.396   9.794  12.079
73571ION    NA+45996  20.465  26.491  11.171
73572ION    NA+45997  10.343   2.797   0.952
73573ION    NA+45998  41.785  28.862   3.317
73574ION    NA+45999  26.506  13.588  12.475
73575ION    NA+46000  43.295  25.471   3.674
73576ION    NA+46001   9.153  40.863   1.445
73577ION    NA+46002  32.002  34.027   0.748
73578ION    NA+46003  19.265   9.356   4.903
73579ION    NA+46004  22.019  22.542  12.437
73580ION    NA+46005  38.836  40.396   1.341
73581ION    NA+46006  43.017  22.617   1.677
73582ION    NA+46007   8.655   4.084  12.431
73583ION    NA+46008  18.223   0.849   0.079
73584ION    NA+46009  43.481   8.276   2.471
73585ION    NA+46010   8.240   9.471  14.844
73586ION    NA+46011  34.207   9.861  13.569
73587ION    NA+46012   4.494  18.942  14.626
73588ION    NA+46013  13.682   7.290   4.684
73589ION    NA+46014   6.823  21.580  14.590
73590ION    NA+46015   0.066  31.644  13.149
73591ION    NA+46016  15.526   5.908   4.022
73592ION    NA+46017  23.209  30.022   3.730
73593ION    NA+46018   9.749  27.944   3.779
73594ION    NA+46019  39.432  14.493   1.919
73595ION    NA+46020  11.049   8.094  10.000
73596ION    NA+46021  41.331  32.451   4.867
73597ION    NA+46022  20.277  27.941  12.179
73598ION    NA+46023  37.444  26.475   2.609
73599ION    NA+46024  38.708  42.388   2.802
73600ION    NA+46025  33.467   0.944   2.255
73601ION    NA+46026  43.025   6.150  14.757
73602ION    NA+46027   3.850  19.353   1.354
73603ION    NA+46028  21.510  32.909   0.550
73604ION    NA+46029   3.834  27.142  14.247
73605ION    NA+46030  13.160   2.946   2.582
73606ION    NA+46031   3.140  14.513   3.783
73607ION    NA+46032  38.416   2.554  10.710
73608ION    NA+46033  16.449  20.761   5.067
73609ION    NA+46034  24.418  20.336   2.365
73610ION    NA+46035  35.152  10.825   3.079
73611ION    NA+46036   3.231   7.503  14.326
73612ION    NA+46037   6.302   3.474   1.004
73613ION    NA+46038  30.502  15.658   0.524
73614ION    NA+46039   2.446   5.774   3.220
73615ION    NA+46040  32.319  31.737  12.792
73616ION    NA+46041  26.433  36.651  11.485
73617ION    NA+46042  39.578  39.293  12.199
73618ION    NA+46043  16.786  41.611  14.974
73619ION    NA+46044   2.928  31.178  12.922
73620ION    NA+46045  33.146  27.639  13.479
73621ION    NA+46046  34.603  32.073  12.959
73622ION    NA+46047  36.027  27.872   1.753
73623ION    NA+46048  25.062   9.567   3.196
73624ION    NA+46049  40.424  43.491  10.855
73625ION    NA+46050  40.413  13.830   4.142
73626ION    NA+46051  40.254  20.040  12.901
73627ION    NA+46052   5.321   4.724  13.869
73628ION    NA+46053  27.124   8.661   4.542
73629ION    NA+46054   7.082  24.161  11.381
73630ION    NA+46055  27.925  16.199  13.448
73631ION    NA+46056  21.501  27.235   4.255
73632ION    NA+46057  36.422  14.777  12.820
73633ION    NA+46058  10.698  35.103   0.558
73634ION    NA+46059   4.472   8.645   3.308
73635ION    NA+46060  42.653  36.374  12.354
73636ION    NA+46061  27.808  26.126   1.634
73637ION    NA+46062  42.344  40.015  11.400
73638ION    NA+46063  32.841  16.765   5.127
73639ION    NA+46064  28.320  44.118  13.237
73640ION    NA+46065   8.313  34.083   1.034
73641ION    NA+46066  24.051  20.114   4.295
73642ION    NA+46067   5.986  28.658  11.135
73643ION    NA+46068  18.969  23.695  11.519
73644ION    NA+46069  15.844  30.394  13.395
73645ION    NA+46070   1.642  41.837  13.648
73646ION    NA+46071  38.427  34.884  13.073
73647ION    NA+46072  19.649  40.869  12.639
73648ION    NA+46073  29.246  35.263   1.945
73649ION    NA+46074  30.046  30.354  12.854
73650ION    NA+46075  32.174   3.886  12.917
73651ION    NA+46076  37.163   3.270   4.957
73652ION    NA+46077  38.033  19.358  12.057
73653ION    NA+46078  40.574   9.528   2.545
73654ION    NA+46079  20.166  41.084   4.081
73655ION    NA+46080  40.031  25.164  12.270
73656ION    NA+46081  16.364  42.583   1.357
73657ION    NA+46082  10.188  11.153  14.342
73658ION    NA+46083  11.394   0.998  14.710
73659ION    NA+46084  31.615  37.625   4.564
73660ION    NA+46085  28.336  43.554   2.923
73661ION    NA+46086  14.132  44.101   0.290
73662ION    NA+46087   2.523  39.757  12.450
73663ION    NA+46088   0.326  12.196   4.426
73664ION    NA+46089  23.963  25.169   1.686
73665ION    NA+46090   4.337   6.828  11.593
73666ION    NA+46091  29.354  24.412  12.918
73667ION    NA+46092   3.305  32.768   0.133
73668ION    NA+46093  17.040  33.538  12.603
73669ION    NA+46094   9.434  22.945  11.146
73670ION    NA+46095  31.866  31.876  13.673
73671ION    NA+46096  20.966  10.822   4.182
73672ION    NA+46097  32.913  36.471   0.858
73673ION    NA+46098  41.342  23.514   3.367
73674ION    NA+46099  42.791  19.680  12.141
73675ION    NA+46100  25.583  31.632   5.467
73676ION    NA+46101  23.166   0.186   2.307
73677ION    NA+46102   9.449  14.359  12.598
73678ION    NA+46103  17.261  35.917  14.097
73679ION    NA+46104  22.451  21.224  11.943
73680ION    NA+46105  28.751   4.363   4.810
73681ION    NA+46106   2.786   1.687   3.129
73682ION    NA+46107  29.712   2.629  13.162
73683ION    NA+46108  26.385  34.148  14.230
73684ION    NA+46109  33.174   8.398   0.338
73685ION    NA+46110  31.956  10.742  14.016
73686ION    NA+46111   3.468  22.156   3.813
73687ION    NA+46112   2.646  22.716  11.617
73688ION    NA+46113   5.437  29.987   2.327
73689ION    NA+46114  39.077  33.070   2.624
73690ION    NA+46115  38.143  15.315  13.309
73691ION    NA+46116  29.025  32.400   2.821
73692ION    NA+46117   2.513   7.816  11.171
73693ION    NA+46118  27.018  37.078   2.991
73694ION    NA+46119  39.205  32.381  13.816
73695ION    NA+46120  23.654  29.333   4.112
73696ION    NA+46121   5.414  43.004  12.032
73697ION    NA+46122  22.682  33.460  13.821
73698ION    NA+46123  38.386  11.775   3.579
73699ION    NA+46124  11.438  40.677   3.506
73700ION    NA+46125  20.166  38.022  11.380
73701ION    NA+46126  15.755  22.155  12.669
73702ION    NA+46127  12.138  40.864  13.106
73703ION    NA+46128  44.253  23.046   2.153
73704ION    NA+46129  19.186   9.939   0.470
73705ION    NA+46130  24.613   6.314  13.796
73706ION    NA+46131  14.356   8.915  11.593
73707ION    NA+46132  20.707  43.602   1.657
73708ION    NA+46133  40.310  25.225  11.312
73709ION    NA+46134  16.989  18.028   0.250
73710ION    NA+46135   7.242  22.418  12.509
73711ION    NA+46136  15.145  38.229  11.316
73712ION    NA+46137  31.926  17.834  14.764
73713ION    NA+46138  41.541  13.668  12.915
73714ION    NA+46139  38.573  24.585  11.598
73715ION    NA+46140   8.635  31.453  12.346
73716ION    NA+46141  31.521   7.843   0.495
73717ION    NA+46142  32.922  44.871   4.085
73718ION    NA+46143  39.476  22.962  12.382
73719ION    NA+46144  21.883  43.726   1.033
73720ION    NA+46145   7.419  19.184  10.669
73721ION    NA+46146  15.548  24.107  10.839
73722ION    NA+46147  25.458  32.506   4.997
73723ION    NA+46148  24.115  39.985  11.043
73724ION    NA+46149   7.199  31.978   2.967
73725ION    NA+46150  34.479  35.504  11.311
73726ION    NA+46151  13.561  27.456   0.432
73727ION    NA+46152  27.507  24.987   2.019
73728ION    NA+46153   5.424   4.684  10.704
73729ION    NA+46154  34.646  26.623   0.550
73730ION    NA+46155  36.176  22.005   1.175
73731ION    NA+46156  35.407   3.168   2.047
73732ION    NA+46157  32.272  20.840  11.613
73733ION    NA+46158  33.412   3.923  11.980
73734ION    NA+46159  43.528  14.619   0.325
73735ION    NA+46160  13.509  15.324  12.025
73736ION    NA+46161  15.652  18.801  14.890
73737ION    NA+46162   7.196  38.507   1.820
73738ION    NA+46163  31.414  41.094  10.613
73739ION    NA+46164   0.524  12.625  14.834
73740ION    NA+46165  42.235  17.856  12.526
73741ION    NA+46166  20.580  36.672   4.409
73742ION    NA+46167  33.486   5.595   3.986
73743ION    NA+46168  41.125  18.061  11.510
73744ION    NA+46169   9.899  43.090   2.868
73745ION    NA+46170  23.649  17.984  11.195
73746ION    NA+46171   3.487   2.460   3.113
73747ION    NA+46172  29.916  38.465   5.219
73748ION    NA+46173   7.296  28.625  10.653
73749ION    NA+46174   9.940  15.280  12.704
73750ION    NA+46175  43.546   3.573  13.929
73751ION    NA+46176  14.631  29.105   0.531
73752ION    NA+46177  27.251  37.128   1.078
73753ION    NA+46178  22.763  35.629   3.660
73754ION    NA+46179  38.446  38.893  14.386
73755ION    NA+46180  10.498  42.379  13.228
73756ION    NA+46181  11.144  20.823  12.038
73757ION    NA+46182  29.055  42.549   3.077
73758ION    NA+46183  18.762  40.485   2.863
73759ION    NA+46184  12.352  21.209  13.060
73760ION    NA+46185  22.972   7.366   0.788
73761ION    NA+46186   9.570  11.645   1.117
73762ION    NA+46187  20.451  11.534  11.123
73763ION    NA+46188  42.903  36.968   0.217
73764ION    NA+46189  22.696  33.716   2.349
73765ION    NA+46190  42.057   5.985  14.742
73766ION    NA+46191  29.447   4.412  12.532
73767ION    NA+46192  43.839  27.352  10.643
73768ION    NA+46193   5.045   1.846  13.968
73769ION    NA+46194  42.625   8.386   1.902
73770ION    NA+46195  37.539  32.368   3.428
73771ION    NA+46196  26.075  42.573  11.628
73772ION    NA+46197  23.954  35.042  13.398
73773ION    NA+46198  43.399  12.137  11.601
73774ION    NA+46199  23.672  27.560   2.315
73775ION    NA+46200  41.551  32.341  12.440
73776ION    NA+46201  41.577   1.503   2.916
73777ION    NA+46202   3.145  17.040   5.200
73778ION    NA+46203  11.681  21.545  14.514
73779ION    NA+46204  12.139  12.294  12.471
73780ION    NA+46205  42.488  22.723  10.584
73781ION    NA+46206   5.451   8.138  14.295
73782ION    NA+46207  31.241  10.396   9.789
73783ION    NA+46208  16.406   1.458   0.788
73784ION    NA+46209  40.940  32.678  13.472
73785ION    NA+46210  27.255  20.007  12.114
73786ION    NA+46211  38.078  19.697   4.073
73787ION    NA+46212  17.668  44.120   1.222
73788ION    NA+46213  10.602  31.670   1.452
73789ION    NA+46214  41.323  25.090   4.562
73790ION    NA+46215  14.046  39.431   2.134
73791ION    NA+46216  39.884  36.089   4.728
73792ION    NA+46217  10.176  37.301   1.642
73793ION    NA+46218  20.806  40.258   1.851
73794ION    NA+46219  10.319  26.494  10.723
73795ION    NA+46220  26.475  33.271  10.641
73796ION    NA+46221  14.319  33.667   2.226
73797ION    NA+46222  26.240   5.637   1.751
73798ION    NA+46223  15.854  27.927  14.596
73799ION    NA+46224  29.392  43.847  12.656
73800ION    NA+46225  22.083  39.562   3.673
73801ION    NA+46226   5.836   0.727  14.335
73802ION    NA+46227  35.661  30.931   4.162
73803ION    NA+46228  34.370  22.038  12.465
73804ION    NA+46229  41.681   8.119   1.709
73805ION    NA+46230  19.360  40.059  14.123
73806ION    NA+46231  23.907  24.023   0.930
73807ION    NA+46232  39.159  43.468   4.737
73808ION    NA+46233   4.871  10.043  13.077
73809ION    NA+46234  38.472  26.057  12.365
73810ION    NA+46235  43.813  27.561   4.366
73811ION    NA+46236  14.148  32.401  14.493
73812ION    NA+46237   9.871  34.031   1.418
73813ION    NA+46238  36.978  11.416   1.519
73814ION    NA+46239  21.517  15.284   3.683
73815ION    NA+46240  36.015   7.967  12.731
73816ION    NA+46241  18.386   0.885  10.646
73817ION    NA+46242   1.831  15.006  10.872
73818ION    NA+46243  42.063  35.939   1.286
73819ION    NA+46244  32.170  22.229   3.233
73820ION    NA+46245  42.148  42.151  12.163
73821ION    NA+46246   2.415  23.635   4.167
73822ION    NA+46247  12.529   2.982   3.848
73823ION    NA+46248  44.384  12.771  11.199
73824ION    NA+46249   8.903  44.286   1.392
73825ION    NA+46250  33.797  16.014   1.752
73826ION    NA+46251  32.223   8.974   3.722
73827ION    NA+46252   0.867  27.889  11.197
73828ION    NA+46253  15.823   0.813   2.528
73829ION    NA+46254  22.642  27.442  13.544
73830ION    NA+46255  24.416  14.729   0.662
73831ION    NA+46256  35.670  29.863   0.118
73832ION    NA+46257  37.519  11.903   4.060
73833ION    NA+46258  32.683  41.037  12.465
73834ION    NA+46259  13.346  43.885   3.347
73835ION    NA+46260  44.316  16.217  13.795
73836ION    NA+46261  42.606  33.852   1.249
73837ION    NA+46262  16.264  11.512  14.509
73838ION    NA+46263   1.576  14.065   4.359
73839ION    NA+46264  38.429  37.353  12.124
73840ION    NA+46265  19.643  31.829   0.345
73841ION    NA+46266   1.646  13.354   0.711
73842ION    NA+46267   9.404   0.989   0.793
73843ION    NA+46268  29.651   8.435   1.393
73844ION    NA+46269  41.466  23.160   0.309
73845ION    NA+46270  42.711   7.836   5.377
73846ION    NA+46271   0.855   3.171  12.136
73847ION    NA+46272   9.242   4.403   4.493
73848ION    NA+46273  34.377  19.961  11.553
73849ION    NA+46274  14.211  39.799   3.336
73850ION    NA+46275  25.967  18.099   1.989
73851ION    NA+46276  28.347  43.613  12.301
73852ION    NA+46277   0.074  31.122  10.423
73853ION    NA+46278  39.549  21.252  13.017
73854ION    NA+46279  11.545  17.796  12.708
73855ION    NA+46280  12.268   8.380  10.767
73856ION    NA+46281  39.775   3.263   3.420
73857ION    NA+46282  28.723  12.162  10.736
73858ION    NA+46283  26.042  43.605  12.152
73859ION    NA+46284   2.828  37.404   2.394
73860ION    NA+46285   1.118  18.554  13.512
73861ION    NA+46286  17.036  19.219   3.263
73862ION    NA+46287  18.759  41.754  12.776
73863ION    NA+46288  36.474  16.360   4.929
73864ION    NA+46289  10.270  44.806   1.996
73865ION    NA+46290  28.111  41.781  12.087
73866ION    NA+46291  16.820  20.691   3.783
73867ION    NA+46292  42.609  43.202   4.418
73868ION    NA+46293  24.805  17.603  12.637
73869ION    NA+46294  32.953   1.845  12.988
73870ION    NA+46295  25.150  33.934   2.739
73871ION    NA+46296  31.663   4.599  12.795
73872ION    NA+46297  10.040   4.602   1.035
73873ION    NA+46298   5.925  20.109  12.021
73874ION    NA+46299  15.256  36.623   1.734
73875ION    NA+46300  36.514  37.506   0.127
73876ION    NA+46301  40.789  18.778  11.045
73877ION    NA+46302  36.698  34.520   2.048
73878ION    NA+46303  32.058  15.753  14.309
73879ION    NA+46304  12.275  36.730  11.330
73880ION    NA+46305  31.558  42.062  14.088
73881ION    NA+46306  37.420  36.938  13.797
73882ION    NA+46307  22.685  28.343  13.977
73883ION    NA+46308  37.016  13.790   5.028
73884ION    NA+46309  33.937   3.251  14.892
73885ION    NA+46310   5.242  14.843   3.026
73886ION    NA+46311  27.381  15.386   1.995
73887ION    NA+46312  38.619  44.087  12.531
73888ION    NA+46313  16.184   8.934  11.566
73889ION    NA+46314   3.247  29.580  11.300
73890ION    NA+46315  20.281  39.680   1.648
73891ION    NA+46316  37.480  37.599   0.373
73892ION    NA+46317  18.137  37.102  14.003
73893ION    NA+46318  12.586  17.950   4.066
73894ION    NA+46319  29.203  39.843   2.864
73895ION    NA+46320  40.947   5.814   2.544
73896ION    NA+46321   9.029  30.665   3.417
73897ION    NA+46322  34.408  35.574  13.290
73898ION    NA+46323  11.460   3.697   0.256
73899ION    NA+46324  17.162   5.226   1.014
73900ION    NA+46325  33.105  15.371   3.796
73901ION    NA+46326  17.183   9.310   3.403
73902ION    NA+46327   8.983  35.997  13.787
73903ION    NA+46328   9.252  13.669   2.276
73904ION    NA+46329   8.807  18.911  13.682
73905ION    NA+46330  37.473  40.744  11.004
73906ION    NA+46331  37.957  29.745  12.014
73907ION    NA+46332   9.894  26.379   2.176
73908ION    NA+46333  44.873   0.363   2.616
73909ION    NA+46334  10.561  40.425   0.159
73910ION    NA+46335   1.147  23.646   4.519
73911ION    NA+46336  42.309  38.351   4.096
73912ION    NA+46337  42.129  33.588   3.235
73913ION    NA+46338  14.371   6.082  14.743
73914ION    NA+46339  36.588   5.855   2.915
73915ION    NA+46340  24.522  41.700   1.925
73916ION    NA+46341  23.930   1.520   2.503
73917ION    NA+46342  11.473   3.973  13.453
73918ION    NA+46343  34.082  22.309  14.746
73919ION    NA+46344  28.402  19.093   1.374
73920ION    NA+46345  35.471  27.944  11.178
73921ION    NA+46346  25.614  24.123  12.720
73922ION    NA+46347  37.952   3.703  13.695
73923ION    NA+46348  39.566  35.665   3.696
73924ION    NA+46349  15.230  10.519   3.820
73925ION    NA+46350  40.933  27.422  14.837
73926ION    NA+46351  38.158   7.087  14.258
73927ION    NA+46352   3.507  42.627  11.656
73928ION    NA+46353  37.493  25.387   1.147
73929ION    NA+46354   7.716  13.986   0.114
73930ION    NA+46355  10.156  10.242   1.755
73931ION    NA+46356   7.660  34.078   1.603
73932ION    NA+46357  42.382  31.859   3.504
73933ION    NA+46358  10.269   0.331   9.752
73934ION    NA+46359  38.506   8.023   1.301
73935ION    NA+46360  20.840  25.171  11.537
73936ION    NA+46361  34.646  35.542   1.382
73937ION    NA+46362  31.956  37.145  13.450
73938ION    NA+46363  18.612  29.651   0.348
73939ION    NA+46364  12.177  43.796  12.470
73940ION    NA+46365  10.828  30.922   3.333
73941ION    NA+46366  28.158  22.488  12.012
73942ION    NA+46367  38.170  18.142  10.721
73943ION    NA+46368  12.829  30.498   3.307
73944ION    NA+46369   4.059  31.694   1.754
73945ION    NA+46370  36.914  41.652  12.559
73946ION    NA+46371  22.882  31.368   2.820
73947ION    NA+46372   9.892   9.092  11.506
73948ION    NA+46373  26.439  42.365  12.536
73949ION    NA+46374  33.929  36.052   4.113
73950ION    NA+46375   7.653   4.644   2.622
73951ION    NA+46376  43.649  26.994  14.178
73952ION    NA+46377  41.966  27.620  10.341
73953ION    NA+46378  27.775  13.058  11.082
73954ION    NA+46379  31.283  34.332   2.160
73955ION    NA+46380  36.255  12.122  13.754
73956ION    NA+46381  14.525   8.093   3.236
73957ION    NA+46382  26.521  33.861  13.282
73958ION    NA+46383  36.657   2.376  11.092
73959ION    NA+46384  26.490   6.547   2.081
73960ION    NA+46385  39.259  35.448  13.856
73961ION    NA+46386  22.881  17.314  13.656
73962ION    NA+46387  36.426  32.426   0.189
73963ION    NA+46388  41.946  37.606  13.696
73964ION    NA+46389  43.874  26.544  11.465
73965ION    NA+46390  33.433   6.226   5.144
73966ION    NA+46391   6.276  24.996  14.044
73967ION    NA+46392   1.990   8.230  14.035
73968ION    NA+46393  22.146  27.019  10.702
73969ION    NA+46394  37.863  31.646   4.691
73970ION    NA+46395  12.015  19.322  12.099
73971ION    NA+46396   9.884  14.455  13.494
73972ION    NA+46397   8.337  29.663   3.270
73973ION    NA+46398  31.269   0.514   3.544
73974ION    NA+46399   1.191  20.286  13.423
73975ION    NA+46400   1.875   6.473   2.652
73976ION    NA+46401  40.598  27.808   1.518
73977ION    NA+46402   0.750   1.783  11.932
73978ION    NA+46403  41.711  41.669   2.559
73979ION    NA+46404  14.180  22.114  10.214
73980ION    NA+46405  18.129   3.920   0.889
73981ION    NA+46406  10.887   8.210   2.352
73982ION    NA+46407   5.525  14.555   1.336
73983ION    NA+46408  17.744  14.806   0.281
73984ION    NA+46409  16.881   0.959  10.521
73985ION    NA+46410   0.224  11.173   1.460
73986ION    NA+46411  40.300  44.198  10.200
73987ION    NA+46412  19.257  18.575  14.845
73988ION    NA+46413  19.891  23.467  14.842
73989ION    NA+46414   5.704  16.152   2.045
73990ION    NA+46415  22.643  38.505   3.530
73991ION    NA+46416   6.892  33.969  10.624
73992ION    NA+46417  10.119  25.333  14.244
73993ION    NA+46418  14.088  40.629  14.060
73994ION    NA+46419  23.840  32.989   4.129
73995ION    NA+46420  26.919  32.519  10.728
73996ION    NA+46421  17.344  30.995  10.597
73997ION    NA+46422  28.142   3.103  10.780
73998ION    NA+46423   8.062  38.507   3.501
73999ION    NA+46424  11.363  30.472   2.799
74000ION    NA+46425  15.711  10.861  13.156
74001ION    NA+46426  27.261  23.533  10.713
74002ION    NA+46427  19.016  19.455   0.846
74003ION    NA+46428  29.939  36.276   1.879
74004ION    NA+46429  30.062   1.314   2.087
74005ION    NA+46430  10.356  12.113  14.119
74006ION    NA+46431  18.060  20.770   1.927
74007ION    NA+46432  43.743  30.497   4.234
74008ION    NA+46433  16.795  32.180   0.530
74009ION    NA+46434  39.440   2.589   0.282
74010ION    NA+46435  44.401   7.847   4.005
74011ION    NA+46436  30.457  22.110  13.049
74012ION    NA+46437  27.443  27.283   2.169
74013ION    NA+46438   0.388  32.365  11.201
74014ION    NA+46439  10.179  35.816   1.054
74015ION    NA+46440   8.446   5.359  14.428
74016ION    NA+46441  27.269  14.050   0.540
74017ION    NA+46442  39.689  44.941   0.797
74018ION    NA+46443  30.012  40.976   0.274
74019ION    NA+46444  36.957  44.923  12.142
74020ION    NA+46445  10.887  29.037   0.393
74021ION    NA+46446  29.164  20.860   1.425
74022ION    NA+46447  12.872   0.895   0.436
74023ION    NA+46448  32.863   9.434  10.764
74024ION    NA+46449  30.607  11.957   0.121
74025ION    NA+46450  11.123   3.729   1.197
74026ION    NA+46451   7.130  33.936  12.007
74027ION    NA+46452   6.514  42.226   3.537
74028ION    NA+46453  15.103  20.665   2.237
74029ION    NA+46454  14.364  30.316  11.331
74030ION    NA+46455   0.993  30.381  12.913
74031ION    NA+46456  19.077  27.960  12.569
74032ION    NA+46457  31.294  33.083  14.420
74033ION    NA+46458  40.463  13.790  14.826
74034ION    NA+46459   3.884   8.861  13.475
74035ION    NA+46460  19.120   7.577   4.945
74036ION    NA+46461  28.647  15.344  12.977
74037ION    NA+46462  12.944  17.883   3.275
74038ION    NA+46463  43.848  42.153  12.158
74039ION    NA+46464  38.474  23.987   3.044
74040ION    NA+46465  40.051  23.414   3.077
74041ION    NA+46466   0.689  12.123  11.509
74042ION    NA+46467  21.090  39.853   2.601
74043ION    NA+46468  19.061  17.295   4.374
74044ION    NA+46469  16.369  44.051  14.855
74045ION    NA+46470   2.019  14.835   4.565
74046ION    NA+46471  40.157  19.570   1.489
74047ION    NA+46472  32.573  19.199   4.700
74048ION    NA+46473  35.972  42.536   2.115
74049ION    NA+46474  35.378  29.688  10.694
74050ION    NA+46475   1.197   8.859  11.000
74051ION    NA+46476  17.100  43.476   2.953
74052ION    NA+46477  36.814  31.242  12.645
74053ION    NA+46478  37.349   5.055  10.937
74054ION    NA+46479  28.778  11.375  11.350
74055ION    NA+46480   8.942  38.973   3.592
74056ION    NA+46481  12.929  22.630   0.082
74057ION    NA+46482  11.848  38.788   0.914
74058ION    NA+46483  21.665  19.130  14.775
74059ION    NA+46484  17.181  12.992  13.760
74060ION    NA+46485  10.216  14.867   3.152
74061ION    NA+46486  14.514  37.752  14.018
74062ION    NA+46487  38.729   2.384  12.574
74063ION    NA+46488  29.098  30.653  12.966
74064ION    NA+46489  28.584  21.526  13.393
74065ION    NA+46490  27.375  25.791   4.228
74066ION    NA+46491   1.461  14.081  11.783
74067ION    NA+46492   4.922  41.872  11.465
74068ION    NA+46493  38.135  41.528  11.765
74069ION    NA+46494  18.542  10.034   4.767
74070ION    NA+46495  42.300  41.696   4.112
74071ION    NA+46496  25.628  15.888   2.614
74072ION    NA+46497   5.849  11.644   1.013
74073ION    NA+46498   6.442  22.799  13.408
74074ION    NA+46499   7.848  36.340  11.587
74075ION    NA+46500  39.234  14.314  11.171
74076ION    NA+46501  32.464   0.709   1.754
74077ION    NA+46502  10.697  19.053  11.850
74078ION    NA+46503  41.507  27.203  12.851
74079ION    NA+46504  11.137  35.494  13.808
74080ION    NA+46505  26.108  35.851  12.144
74081ION    NA+46506  22.047   8.861  14.534
74082ION    NA+46507   4.365  10.920   0.634
74083ION    NA+46508  17.064   6.032  13.522
74084ION    NA+46509  36.863  38.617  12.741
74085ION    NA+46510  14.271  23.803  10.292
74086ION    NA+46511  30.070   0.021   1.667
74087ION    NA+46512  30.679   4.479  12.925
74088ION    NA+46513   6.660  35.499   1.652
74089ION    NA+46514  34.738  12.522   1.705
74090ION    NA+46515   4.270   4.207   4.151
74091ION    NA+46516   1.393  18.489  11.178
74092ION    NA+46517   9.914  33.744  11.275
74093ION    NA+46518  16.266  13.514  11.620
74094ION    NA+46519  25.284  18.800  12.324
74095ION    NA+46520   5.299  21.815   2.073
74096ION    NA+46521  31.635  14.058   2.261
74097ION    NA+46522   3.464  14.388   0.574
74098ION    NA+46523   3.703  12.795  12.050
74099ION    NA+46524  33.489  28.322  11.101
74100ION    NA+46525  14.053  24.423   3.883
74101ION    NA+46526  18.709  16.435   0.683
74102ION    NA+46527  23.641  43.295  13.524
74103ION    NA+46528  20.560   4.051   1.395
74104ION    NA+46529  41.051  28.180   4.212
74105ION    NA+46530  42.828   0.200   2.378
74106ION    NA+46531   9.742   0.538  11.254
74107ION    NA+46532  26.094   0.860   1.629
74108ION    NA+46533  10.169  13.941   3.792
74109ION    NA+46534  26.441  38.012  12.562
74110ION    NA+46535  17.618  36.631  10.685
74111ION    NA+46536  29.176  42.900   2.122
74112ION    NA+46537  16.838  11.169  13.750
74113ION    NA+46538  13.973  39.587  11.503
74114ION    NA+46539  44.574  26.939   2.803
74115ION    NA+46540  33.224  42.880   0.854
74116ION    NA+46541   3.642  35.062  13.531
74117ION    NA+46542  29.200  23.611  11.168
74118ION    NA+46543  38.316  11.217   2.254
74119ION    NA+46544  40.745  10.128   3.136
74120ION    NA+46545  19.297  44.397  11.254
74121ION    NA+46546  12.537  36.495   4.059
74122ION    NA+46547   7.328  37.542   9.863
74123ION    NA+46548  30.566  44.252  10.218
74124ION    NA+46549  40.870  22.012  12.552
74125ION    NA+46550  44.441  17.498  11.029
74126ION    NA+46551   9.570  16.700   0.550
74127ION    NA+46552  38.602  30.485   1.172
74128ION    NA+46553  42.068  22.294   4.954
74129ION    NA+46554  33.937   2.502   1.866
74130ION    NA+46555  33.360   4.118   4.850
74131ION    NA+46556  35.579  25.097   3.161
74132ION    NA+46557  26.870  39.755   3.402
74133ION    NA+46558  39.302  44.536   4.633
74134ION    NA+46559  42.220  29.915  12.067
74135ION    NA+46560  43.583   3.454   4.063
74136ION    NA+46561  28.236  40.117   0.914
74137ION    NA+46562  14.007  22.998  11.578
74138ION    NA+46563  20.571   4.997  14.280
74139ION    NA+46564  22.508  41.899   2.061
74140ION    NA+46565  44.420  26.129  10.375
74141ION    NA+46566  12.209  22.758  12.324
74142ION    NA+46567  30.600  40.923  11.607
74143ION    NA+46568  41.005  43.538  14.998
74144ION    NA+46569  44.043   6.993  11.482
74145ION    NA+46570  12.549  39.535  14.520
74146ION    NA+46571  26.283  27.862   2.423
74147ION    NA+46572  42.824  10.528  13.090
74148ION    NA+46573  41.498   6.558   4.036
74149ION    NA+46574  25.624  28.492   5.380
74150ION    NA+46575  37.858  35.227  13.851
74151ION    NA+46576  42.286  44.373  14.816
74152ION    NA+46577  41.975  26.064   2.818
74153ION    NA+46578  30.803   9.182   9.607
74154ION    NA+46579  44.967   0.645  12.907
74155ION    NA+46580  35.080  35.333  13.990
74156ION    NA+46581  19.645  40.202  10.827
74157ION    NA+46582  44.281   2.386  11.117
74158ION    NA+46583  40.193  28.987  14.498
74159ION    NA+46584  37.782   6.482  11.245
74160ION    NA+46585   1.802  14.096  14.798
74161ION    NA+46586   3.158  20.083   4.691
74162ION    NA+46587   8.889  35.639   9.850
74163ION    NA+46588   3.481   3.997   0.901
74164ION    NA+46589  18.431  28.689  14.546
74165ION    NA+46590   3.014  23.641  11.523
74166ION    NA+46591   7.107  26.407  12.353
74167ION    NA+46592  17.510   6.704   4.067
74168ION    NA+46593  11.697  25.980   4.729
74169ION    NA+46594  38.102  18.065   0.831
74170ION    NA+46595  15.817  22.637   3.689
74171ION    NA+46596  42.417  11.115  10.287
74172ION    NA+46597  36.426  19.830   4.111
74173ION    NA+46598  10.461   1.210   4.261
74174ION    NA+46599  44.898  29.881  13.118
74175ION    NA+46600  24.915  31.480  12.724
74176ION    NA+46601  41.988  36.349  14.982
74177ION    NA+46602   0.197  36.310  12.743
74178ION    NA+46603   6.747  38.950   4.378
74179ION    NA+46604   8.335  38.299  14.264
74180ION    NA+46605  32.311   5.646   4.299
74181ION    NA+46606  34.811   6.450   5.604
74182ION    NA+46607   5.216  38.439   2.814
74183ION    NA+46608  14.652   0.499  12.029
74184ION    NA+46609  35.117  21.695   4.157
74185ION    NA+46610  42.305  30.750  13.619
74186ION    NA+46611  38.802  19.458   5.334
74187ION    NA+46612  17.024  21.866   2.901
74188ION    NA+46613  10.973  38.309  11.328
74189ION    NA+46614   5.155  37.379   3.632
74190ION    NA+46615  12.890  28.538   0.006
74191ION    NA+46616  25.742  34.696   0.136
74192ION    NA+46617  38.554   4.746  12.419
74193ION    NA+46618   1.016  37.571  14.552
74194ION    NA+46619  18.669  26.132   2.284
74195ION    NA+46620  10.718  24.992   4.874
74196ION    NA+46621  40.535  23.640  14.791
74197ION    NA+46622  13.031  31.252  13.744
74198ION    NA+46623   2.774  33.349  13.471
74199ION    NA+46624  19.655  22.734  11.730
74200ION    NA+46625  43.978   4.860   4.131
74201ION    NA+46626  39.427  41.290   4.494
74202ION    NA+46627  30.085  36.601  13.768
74203ION    NA+46628  28.437  24.090  12.066
74204ION    NA+46629  20.754   6.313   1.683
74205ION    NA+46630  41.869  36.902   4.810
74206ION    NA+46631  42.291   5.060   4.695
74207ION    NA+46632  18.359  42.275   1.568
74208ION    NA+46633  36.294  20.804   9.823
74209ION    NA+46634   3.845  38.336   4.454
74210ION    NA+46635  14.216  25.932  13.209
74211ION    NA+46636  10.644  28.089   4.617
74212ION    NA+46637  31.477  25.585   0.835
74213ION    NA+46638  14.837  43.177  13.320
74214ION    NA+46639  23.726  22.199  13.750
74215ION    NA+46640   5.389  25.715  11.847
74216ION    NA+46641  40.806  27.946  13.805
74217ION    NA+46642  15.989  39.839   0.567
74218ION    NA+46643  17.157   7.019   3.297
74219ION    NA+46644  17.309  34.360   1.824
74220ION    NA+46645  12.581   5.586   1.517
74221ION    NA+46646   2.231  44.475  12.812
74222ION    NA+46647  44.434  21.921  11.733
74223ION    NA+46648  43.916   1.579   4.085
74224ION    NA+46649  14.276  24.431  11.676
74225ION    NA+46650  30.071  25.097  14.035
74226ION    NA+46651  27.347   5.347  13.329
74227ION    NA+46652  25.229  10.228  11.995
74228ION    NA+46653  26.553  41.506   2.868
74229ION    NA+46654  31.793  43.638  12.380
74230ION    NA+46655  30.510  23.724   4.389
74231ION    NA+46656   7.251  43.356   0.722
74232ION    NA+46657   0.992  19.301   1.358
74233ION    NA+46658  32.649  10.550  13.250
74234ION    NA+46659   8.163  12.768  14.966
74235ION    NA+46660  19.204   6.413   3.839
74236ION    NA+46661  29.880  34.378   1.216
74237ION    NA+46662  23.797  39.766   0.007
74238ION    NA+46663  18.092  15.196   4.496
74239ION    NA+46664  18.030  36.946   4.230
74240ION    NA+46665  20.947  24.451  13.057
74241ION    NA+46666  15.195  30.598   4.624
74242ION    NA+46667  10.648  34.817   3.516
74243ION    NA+46668   4.742  39.339   4.356
74244ION    NA+46669  18.028  28.534  12.041
74245ION    NA+46670  38.231  11.768   4.781
74246ION    NA+46671  36.610  41.786   3.895
74247ION    NA+46672  31.085   2.307   0.273
74248ION    NA+46673  11.047  32.121   4.072
74249ION    NA+46674  12.134  15.741   1.958
74250ION    NA+46675   7.632  28.369  11.773
74251ION    NA+46676  27.140  38.488   1.236
74252ION    NA+46677  31.475  29.506   0.791
74253ION    NA+46678  14.585  29.203  14.537
74254ION    NA+46679   2.644  14.447  10.706
74255ION    NA+46680  41.418   3.358   4.650
74256ION    NA+46681  31.485  18.491   2.023
74257ION    NA+46682  27.810  16.208  11.667
74258ION    NA+46683  24.744  26.912   1.218
74259ION    NA+46684  44.496   6.931  10.592
74260ION    NA+46685  24.200  16.527  14.002
74261ION    NA+46686  42.139  29.568   2.689
74262ION    NA+46687  25.522  43.421   0.247
74263ION    NA+46688  44.999  41.269   0.074
74264ION    NA+46689  16.225  29.750  11.743
74265ION    NA+46690   1.050  33.613  11.237
74266ION    NA+46691  40.495  27.652   0.613
74267ION    NA+46692  32.982  38.933  12.657
74268ION    NA+46693  33.075  19.748   1.836
74269ION    NA+46694  10.258   9.821  12.085
74270ION    NA+46695   0.548   7.090  14.758
74271ION    NA+46696  14.672  31.889  10.310
74272ION    NA+46697   9.720  36.383   1.739
74273ION    NA+46698   0.018   1.378   2.446
74274ION    NA+46699  20.430  40.414  12.638
74275ION    NA+46700  19.089   5.827  12.028
74276ION    NA+46701   1.541  30.814   3.342
74277ION    NA+46702  21.934  32.852  13.025
74278ION    NA+46703   8.879  28.081   4.310
74279ION    NA+46704  40.729  37.116  14.149
74280ION    NA+46705   0.983  12.757  10.748
74281ION    NA+46706  20.780  15.268   3.026
74282ION    NA+46707  19.736  20.490  11.785
74283ION    NA+46708  34.400  31.037  12.044
74284ION    NA+46709  14.421   6.170   3.266
74285ION    NA+46710  32.676  24.512  13.721
74286ION    NA+46711  22.851  23.052  11.356
74287ION    NA+46712  11.893  20.221   3.744
74288ION    NA+46713  10.860  30.709   1.846
74289ION    NA+46714  30.116   2.480  10.871
74290ION    NA+46715   6.526  39.856  12.003
74291ION    NA+46716   3.299  13.758   3.082
74292ION    NA+46717  35.915  43.499   3.625
74293ION    NA+46718   7.766  22.849  14.793
74294ION    NA+46719  24.440   5.759   4.466
74295ION    NA+46720  34.380  12.346   3.730
74296ION    NA+46721  21.066   6.125  13.638
74297ION    NA+46722   2.568  37.416   1.407
74298ION    NA+46723  42.986   6.867   0.903
74299ION    NA+46724  18.957  43.469  12.644
74300ION    NA+46725  14.860  36.892  10.638
74301ION    NA+46726  31.944  23.427   2.154
74302ION    NA+46727  37.639  22.736   0.031
74303ION    NA+46728  37.904  35.457  14.687
74304ION    NA+46729  38.057  35.901   4.122
74305ION    NA+46730  28.786   7.302  11.557
74306ION    NA+46731   7.998  39.917  10.751
74307ION    NA+46732   6.894   6.432  10.947
74308ION    NA+46733   0.690   9.318  14.038
74309ION    NA+46734  10.322  34.265  11.917
74310ION    NA+46735  29.021  14.207   0.016
74311ION    NA+46736  37.400  27.486   9.963
74312ION    NA+46737  21.226  29.928  12.373
74313ION    NA+46738  28.055   1.153  12.403
74314ION    NA+46739  19.846  11.389   0.286
74315ION    NA+46740  20.615  31.905  13.356
74316ION    NA+46741   4.146  33.005   0.407
74317ION    NA+46742  22.559  32.955  14.675
74318ION    NA+46743  10.971  40.883  10.751
74319ION    NA+46744   5.192  12.440   0.886
74320ION    NA+46745   2.926  22.957   1.722
74321ION    NA+46746  28.046  35.294  11.438
74322ION    NA+46747   3.935  18.200  13.996
74323ION    NA+46748  15.749  11.723  10.578
74324ION    NA+46749   0.918   0.971  12.612
74325ION    NA+46750  18.343  31.782  11.265
74326ION    NA+46751  40.650  19.790   2.330
74327ION    NA+46752  25.989   2.191  11.960
74328ION    NA+46753  21.655  16.028  12.556
74329ION    NA+46754  21.030  17.482   1.519
74330ION    NA+46755  23.923  42.266   4.098
74331ION    NA+46756  43.587  27.765   2.559
74332ION    NA+46757  20.154  38.980  10.755
74333ION    NA+46758   4.256  16.095   3.705
74334ION    NA+46759  38.413  41.420   4.146
74335ION    NA+46760  22.648  23.317  12.605
74336ION    NA+46761  29.546  31.559  12.799
74337ION    NA+46762  27.703   7.158   2.570
74338ION    NA+46763  38.385   2.160  13.485
74339ION    NA+46764  40.791  37.677  12.098
74340ION    NA+46765  27.525   9.586   3.348
74341ION    NA+46766  28.413  33.967   0.328
74342ION    NA+46767  38.528  31.336   2.226
74343ION    NA+46768  21.268  30.594   3.657
74344ION    NA+46769  27.532   0.511   0.867
74345ION    NA+46770   6.147   0.898   9.731
74346ION    NA+46771  15.889  25.741   3.688
74347ION    NA+46772  27.598  15.796   2.880
74348ION    NA+46773   2.693  42.775   1.947
74349ION    NA+46774  16.021   1.019   4.153
74350ION    NA+46775  22.442   8.897  10.999
74351ION    NA+46776  21.674   1.649   0.312
74352ION    NA+46777  41.106   4.355   3.762
74353ION    NA+46778  39.790   5.182  12.015
74354ION    NA+46779  16.745  35.872   1.670
74355ION    NA+46780   6.718  42.301  15.000
74356ION    NA+46781   2.416   7.677  12.895
74357ION    NA+46782  29.944  33.610   3.697
74358ION    NA+46783  24.447  25.527  11.713
74359ION    NA+46784   8.191  43.780   4.657
74360ION    NA+46785  21.766  40.965  11.315
74361ION    NA+46786  35.083   3.045  14.798
74362ION    NA+46787  17.357  28.708   4.045
74363ION    NA+46788   4.535  44.775   1.665
74364ION    NA+46789  43.866  17.370  12.273
74365ION    NA+46790   7.677  28.100   2.325
74366ION    NA+46791  24.619  16.691  11.925
74367ION    NA+46792   4.163  23.059   2.322
74368ION    NA+46793  24.743  19.300  12.609
74369ION    NA+46794   9.684  26.362   0.127
74370ION    NA+46795  28.296  27.461   1.922
74371ION    NA+46796  16.153  37.838   1.192
74372ION    NA+46797  12.905  19.093  11.617
74373ION    NA+46798   2.028  20.285  13.970
74374ION    NA+46799  27.972  43.272   3.811
74375ION    NA+46800   8.961  38.773  12.604
74376ION    NA+46801   8.050  12.134   0.731
74377ION    NA+46802   1.861  25.343   4.146
74378ION    NA+46803   9.837  10.458  13.399
74379ION    NA+46804  32.084  14.505  11.776
74380ION    NA+46805  13.355   6.741   2.775
74381ION    NA+46806  30.805  38.805   1.659
74382ION    NA+46807  43.944  41.460  14.296
74383ION    NA+46808  30.597   9.823   2.381
74384ION    NA+46809  40.822   0.845  12.427
74385ION    NA+46810  11.834  23.011  10.585
74386ION    NA+46811  23.939  11.563   2.423
74387ION    NA+46812  29.543  13.693   3.003
74388ION    NA+46813  26.127   5.502  12.050
74389ION    NA+46814  16.335  25.694  12.007
74390ION    NA+46815   7.677   9.222  11.913
74391ION    NA+46816  40.980  14.190   1.942
74392ION    NA+46817  36.128  35.068   0.481
74393ION    NA+46818   4.880  35.809   0.597
74394ION    NA+46819  38.119  15.189  14.494
74395ION    NA+46820  39.954  10.813  14.578
74396ION    NA+46821  35.744  12.044  12.782
74397ION    NA+46822   0.428  27.428   4.216
74398ION    NA+46823  44.583  31.314  11.179
74399ION    NA+46824  22.980  14.742  14.060
74400ION    NA+46825  39.962  32.965  12.646
74401ION    NA+46826  39.587   0.638  11.566
74402ION    NA+46827   8.414  35.458  11.588
74403ION    NA+46828  32.580  42.879   4.642
74404ION    NA+46829   3.838  15.313   2.460
74405ION    NA+46830   6.407  30.272  10.330
74406ION    NA+46831   6.142  14.063   2.916
74407ION    NA+46832  32.423  31.826   0.517
74408ION    NA+46833  26.699   4.789   4.671
74409ION    NA+46834  41.434  11.443  14.880
74410ION    NA+46835   6.258   3.852   4.077
74411ION    NA+46836   6.689  20.414   2.295
74412ION    NA+46837   9.240  26.516   2.920
74413ION    NA+46838   5.087  42.796   4.032
74414ION    NA+46839  17.554  14.081  11.553
74415ION    NA+46840  17.176  26.691   2.112
74416ION    NA+46841  26.055   4.728   0.583
74417ION    NA+46842  20.447  16.401   4.091
74418ION    NA+46843  24.139  18.656  10.640
74419ION    NA+46844  29.563  36.615  12.294
74420ION    NA+46845   8.269  13.477   2.286
74421ION    NA+46846  21.972  25.704   4.186
74422ION    NA+46847   0.709  35.446   4.670
74423ION    NA+46848  31.049  32.183   4.104
74424ION    NA+46849  12.804  16.892  10.627
74425ION    NA+46850  40.619   4.456  14.364
74426ION    NA+46851  21.335  21.847   4.546
74427ION    NA+46852   3.460  16.633   0.171
74428ION    NA+46853  39.667  14.327   0.268
74429ION    NA+46854  36.910  29.804   2.548
74430ION    NA+46855  44.539  35.854   2.395
74431ION    NA+46856   2.911  15.166  12.923
74432ION    NA+46857  35.658  24.663  11.386
74433ION    NA+46858  30.743   2.366   2.484
74434ION    NA+46859  24.895  34.735  14.769
74435ION    NA+46860  42.950  29.285   0.081
74436ION    NA+46861  31.401  30.990  11.142
74437ION    NA+46862  13.008  17.581  13.234
74438ION    NA+46863  37.569  38.311  14.380
74439ION    NA+46864  38.438   1.194   0.507
74440ION    NA+46865   4.203  37.836   0.753
74441ION    NA+46866   6.369   3.154   0.058
74442ION    NA+46867  18.971  21.651  13.897
74443ION    NA+46868   4.247   6.942   0.872
74444ION    NA+46869  19.763  34.482   3.339
74445ION    NA+46870  31.398  36.802   3.386
74446ION    NA+46871  40.329  16.981   4.234
74447ION    NA+46872   9.248  12.318   0.408
74448ION    NA+46873  28.679   9.829  13.270
74449ION    NA+46874  16.691  40.171  12.502
74450ION    NA+46875  18.047  17.707   4.586
74451ION    NA+46876  40.395  20.805   4.668
74452ION    NA+46877   0.711  41.721  10.283
74453ION    NA+46878  20.049  38.062  12.916
74454ION    NA+46879  14.800  19.765   3.788
74455ION    NA+46880  28.776  37.295   3.476
74456ION    NA+46881  32.403  33.082   0.003
74457ION    NA+46882   1.213  34.341   3.380
74458ION    NA+46883  19.094  30.722   1.361
74459ION    NA+46884  23.367  36.697  13.691
74460ION    NA+46885  12.163  28.281  13.560
74461ION    NA+46886  13.639   2.510   1.745
74462ION    NA+46887  18.230  12.717  14.575
74463ION    NA+46888  27.603  36.997  11.930
74464ION    NA+46889  19.981   4.110   3.586
74465ION    NA+46890  39.933  13.599  11.147
74466ION    NA+46891  22.580   3.284  11.094
74467ION    NA+46892  13.219  22.917  14.250
74468ION    NA+46893   9.873  27.476  12.404
74469ION    NA+46894  39.510  21.178   2.534
74470ION    NA+46895   9.116   4.906   0.802
74471ION    NA+46896  28.954  31.375   3.656
74472ION    NA+46897  40.593  29.143  13.541
74473ION    NA+46898  40.351   3.849  11.018
74474ION    NA+46899  33.669  37.074  12.933
74475ION    NA+46900   3.020  26.467   4.745
74476ION    NA+46901  23.463  17.135  14.449
74477ION    NA+46902  23.143  14.000  11.811
74478ION    NA+46903  36.880   2.518  12.241
74479ION    NA+46904   6.471  15.429   2.438
74480ION    NA+46905  37.146   8.866   1.075
74481ION    NA+46906  30.613  15.106  13.864
74482ION    NA+46907   5.027  36.660  12.520
74483ION    NA+46908  24.413   8.218  14.296
74484ION    NA+46909  20.154  38.089  14.545
74485ION    NA+46910  16.376  32.371  11.097
74486ION    NA+46911  19.111  34.768  12.392
74487ION    NA+46912  35.845   8.480  14.041
74488ION    NA+46913  34.318  19.742   1.990
74489ION    NA+46914  17.156  19.086  13.276
74490ION    NA+46915  27.452  28.750  11.781
74491ION    NA+46916   4.624  26.134   2.801
74492ION    NA+46917  32.448  34.384  14.628
74493ION    NA+46918  36.413   9.639  12.041
74494ION    NA+46919  24.512  26.910   2.191
74495ION    NA+46920  19.642  40.140  13.259
74496ION    NA+46921  24.014  38.640   1.828
74497ION    NA+46922  37.815  31.089  13.604
74498ION    NA+46923  20.534  20.985   0.027
74499ION    NA+46924  11.360  42.013  14.237
74500ION    NA+46925  31.446  43.403  13.544
74501ION    NA+46926  12.023  23.819  14.298
74502ION    NA+46927  42.985  13.133  14.457
74503ION    NA+46928   9.392  24.616  11.107
74504ION    NA+46929  25.616   0.841  11.139
74505ION    NA+46930  29.135  28.178   0.505
74506ION    NA+46931   7.558  14.991   3.559
74507ION    NA+46932  42.595  39.850  13.457
74508ION    NA+46933  10.086  12.547  10.713
74509ION    NA+46934   4.968   8.829   0.549
74510ION    NA+46935  42.510   5.899  13.366
74511ION    NA+46936  43.471   4.266   3.123
74512ION    NA+46937  43.509  41.009  13.517
74513ION    NA+46938  43.849  36.873   1.140
74514ION    NA+46939  13.314  35.825   4.127
74515ION    NA+46940  21.287  17.613  12.726
74516ION    NA+46941  14.662  42.187   4.763
74517ION    NA+46942  38.539  10.568  10.649
74518ION    NA+46943  13.136  29.201   9.715
74519ION    NA+46944  28.386   9.620   0.509
74520ION    CL-46945  22.205  15.300   2.802
74521ION    CL-46946   7.758  20.456   3.313
74522ION    CL-46947  13.660  19.968   2.836
74523ION    CL-46948  44.156  14.555  12.958
74524ION    CL-46949   0.578  29.945   1.400
74525ION    CL-46950  37.811  32.631   1.356
74526ION    CL-46951  22.169  31.488  12.868
74527ION    CL-46952  15.450   5.999   4.474
74528ION    CL-46953  26.656   9.927   9.714
74529ION    CL-46954  41.245   3.257  12.437
74530ION    CL-46955  28.389  24.016   2.192
74531ION    CL-46956  19.710  12.100   1.802
74532ION    CL-46957  10.465  26.323   3.416
74533ION    CL-46958  24.409  22.768   5.041
74534ION    CL-46959  16.375  17.028   1.421
74535ION    CL-46960   9.381  37.820   4.866
74536ION    CL-46961  13.820  12.895  13.052
74537ION    CL-46962  19.163  13.888   2.010
74538ION    CL-46963   9.320  35.933  13.486
74539ION    CL-46964  20.619  34.753  10.986
74540ION    CL-46965  10.226  12.230  14.530
74541ION    CL-46966  40.785   3.001  14.461
74542ION    CL-46967  30.426  11.289   1.278
74543ION    CL-46968  12.594  22.007   5.332
74544ION    CL-46969   6.560  42.641  13.664
74545ION    CL-46970  18.599   0.414   3.536
74546ION    CL-46971  24.747  12.193   5.038
74547ION    CL-46972   0.084  10.675  11.921
74548ION    CL-46973   2.160   9.910   0.778
74549ION    CL-46974  30.543  10.442  14.061
74550ION    CL-46975  24.798  21.587  13.200
74551ION    CL-46976  38.695  41.363  10.132
74552ION    CL-46977  41.077  10.407   3.279
74553ION    CL-46978  28.559  10.260   3.686
74554ION    CL-46979  27.763   2.079   0.179
74555ION    CL-46980  27.456  15.504   1.572
74556ION    CL-46981  11.422  31.994  12.388
74557ION    CL-46982  27.888  27.369   2.127
74558ION    CL-46983  12.369  19.002  14.569
74559ION    CL-46984  25.510  21.485  12.245
74560ION    CL-46985  43.092  44.991   2.673
74561ION    CL-46986  32.475  16.315  12.156
74562ION    CL-46987  27.705  10.338  11.471
74563ION    CL-46988  20.643  31.700  12.961
74564ION    CL-46989  22.941  41.931  14.073
74565ION    CL-46990   0.149  34.486   5.017
74566ION    CL-46991  35.881   8.087   3.251
74567ION    CL-46992  16.232  18.151  13.441
74568ION    CL-46993  38.720   0.837  13.473
74569ION    CL-46994  26.157  14.396   1.962
74570ION    CL-46995   0.133  24.596  12.360
74571ION    CL-46996  40.934  18.408  11.260
74572ION    CL-46997   6.940   0.946   1.362
74573ION    CL-46998  30.396  21.227  11.534
74574ION    CL-46999  22.685  31.590   1.394
74575ION    CL-47000  43.463  17.421  12.071
74576ION    CL-47001  36.254  19.608   2.705
74577ION    CL-47002   1.744  25.524   0.167
74578ION    CL-47003  26.483   4.793   0.774
74579ION    CL-47004  40.749  37.287   3.555
74580ION    CL-47005  18.452  12.572   9.726
74581ION    CL-47006   8.117  12.870  10.329
74582ION    CL-47007  16.305  34.839   1.092
74583ION    CL-47008   4.504  32.126   3.572
74584ION    CL-47009   6.450  23.574   0.932
74585ION    CL-47010  32.196  31.872  13.985
74586ION    CL-47011  39.393   3.717   2.323
74587ION    CL-47012  32.019  39.123   0.041
74588ION    CL-47013  10.671  22.745   0.814
74589ION    CL-47014  25.936  14.861   1.104
74590ION    CL-47015  43.752  17.903  14.675
74591ION    CL-47016  12.753  34.470   3.665
74592ION    CL-47017   9.761  37.224   4.158
74593ION    CL-47018   4.998  13.365  12.180
74594ION    CL-47019  22.969  35.471   4.022
74595ION    CL-47020  14.825  35.486  11.485
74596ION    CL-47021   0.331  18.245   2.220
74597ION    CL-47022  13.068  22.764  14.671
74598ION    CL-47023  40.800   5.408   2.431
74599ION    CL-47024  11.151  30.650   3.161
74600ION    CL-47025  17.035  35.494   3.077
74601ION    CL-47026   0.912  26.660   0.642
74602ION    CL-47027   3.077  14.550  10.738
74603ION    CL-47028  34.350  19.706   2.447
74604ION    CL-47029  19.757  32.286   4.868
74605ION    CL-47030  35.450  15.700  14.107
74606ION    CL-47031  37.407   9.101   1.347
74607ION    CL-47032  26.018  18.211   0.410
74608ION    CL-47033   5.287  43.229   0.043
74609ION    CL-47034  23.444  32.112  14.720
74610ION    CL-47035  12.459   4.721   0.601
74611ION    CL-47036  44.363  43.511   1.385
74612ION    CL-47037   8.543   1.358   2.446
74613ION    CL-47038  39.359  35.530  14.283
74614ION    CL-47039  41.336  39.012  13.405
74615ION    CL-47040  27.189  19.339   1.914
74616ION    CL-47041   3.837  19.801  14.301
74617ION    CL-47042  23.670  12.081  12.304
74618ION    CL-47043  13.868  10.942  11.056
74619ION    CL-47044  36.106   7.382  11.534
74620ION    CL-47045  40.696   8.151  10.807
74621ION    CL-47046   9.181  43.379  12.470
74622ION    CL-47047  41.540  11.040  12.430
74623ION    CL-47048   4.915   5.762  14.717
74624ION    CL-47049   8.130  28.505   1.336
74625ION    CL-47050   9.532  39.967   1.003
74626ION    CL-47051  27.396   4.148  14.240
74627ION    CL-47052  35.266  34.260   1.126
74628ION    CL-47053  39.669  21.056   2.946
74629ION    CL-47054  35.035  20.708  14.617
74630ION    CL-47055  12.782  17.870  12.969
74631ION    CL-47056   8.015  24.088  12.944
74632ION    CL-47057  20.573  36.761   4.858
74633ION    CL-47058  43.791  35.433   4.175
74634ION    CL-47059   2.603   9.629   4.591
74635ION    CL-47060  14.189  34.983  14.135
74636ION    CL-47061  31.790   8.429   0.657
74637ION    CL-47062  26.122  34.571   0.356
74638ION    CL-47063  24.951  12.608   3.702
74639ION    CL-47064   0.492  22.340  13.836
74640ION    CL-47065  40.146   8.593   4.678
74641ION    CL-47066  44.438  22.567  13.534
74642ION    CL-47067  42.512  21.056  10.628
74643ION    CL-47068  18.413  43.722  11.500
74644ION    CL-47069  11.749  18.590   1.799
74645ION    CL-47070   2.862   2.803   0.752
74646ION    CL-47071  27.195  25.983   3.863
74647ION    CL-47072  44.343  23.096   2.589
74648ION    CL-47073   1.513  44.864   1.829
74649ION    CL-47074  24.318   5.434   2.643
74650ION    CL-47075  31.708  25.469  10.634
74651ION    CL-47076  10.416   4.474  12.048
74652ION    CL-47077   3.033  17.125   4.483
74653ION    CL-47078  27.533  13.711   0.664
74654ION    CL-47079  22.446  23.450  12.982
74655ION    CL-47080   6.922   9.705   2.240
74656ION    CL-47081  42.251  41.323   4.392
74657ION    CL-47082  17.280  13.706   4.006
74658ION    CL-47083  44.663  20.369  10.212
74659ION    CL-47084  19.483   4.209  13.080
74660ION    CL-47085   0.741  15.549   3.599
74661ION    CL-47086  18.031  14.556   3.269
74662ION    CL-47087  17.530  18.904   1.684
74663ION    CL-47088  39.274  23.172   4.028
74664ION    CL-47089  25.249  20.190   4.943
74665ION    CL-47090   1.857   3.619   4.040
74666ION    CL-47091  13.342  23.051  13.830
74667ION    CL-47092  13.931  18.857  11.085
74668ION    CL-47093   8.951  25.741  11.099
74669ION    CL-47094   0.824  23.173  12.941
74670ION    CL-47095  42.209  10.329   1.162
74671ION    CL-47096   8.177  38.778   3.146
74672ION    CL-47097  27.518  33.415  10.007
74673ION    CL-47098   3.980  14.657  13.059
74674ION    CL-47099  10.342  40.145   0.431
74675ION    CL-47100  17.561  42.200  13.930
74676ION    CL-47101  18.639  16.909  13.011
74677ION    CL-47102  42.198  27.977  12.286
74678ION    CL-47103  42.911  20.618   3.677
74679ION    CL-47104  43.783   4.253   1.833
74680ION    CL-47105  44.669  17.315  11.368
74681ION    CL-47106  34.370  38.951   3.166
74682ION    CL-47107  15.363  24.301   3.263
74683ION    CL-47108   5.247  25.197  10.598
74684ION    CL-47109  19.454  40.070  13.675
74685ION    CL-47110  13.720  20.743  11.198
74686ION    CL-47111  35.351   7.639   2.238
74687ION    CL-47112  20.283  27.807  11.756
74688ION    CL-47113  17.056   4.611   2.959
74689ION    CL-47114   3.333  34.994  11.439
74690ION    CL-47115  24.540  42.481   0.044
74691ION    CL-47116  19.689   0.631  14.639
74692ION    CL-47117  15.712  28.216   5.218
74693ION    CL-47118  35.605  21.581  14.169
74694ION    CL-47119  33.022  21.503   2.950
74695ION    CL-47120  17.868  38.231  12.580
74696ION    CL-47121  35.944  15.819  13.246
74697ION    CL-47122  10.259   9.177  10.030
74698ION    CL-47123  41.822  28.123   1.815
74699ION    CL-47124  34.045  21.043   3.199
74700ION    CL-47125  37.331  30.670   0.979
74701ION    CL-47126  42.955  25.753   3.787
74702ION    CL-47127  13.405   7.361  13.493
74703ION    CL-47128  29.942  27.433  11.586
74704ION    CL-47129   7.448  39.879  13.977
74705ION    CL-47130   7.604   0.557  10.781
74706ION    CL-47131  38.715  23.484   9.680
74707ION    CL-47132   2.020   5.593  11.940
74708ION    CL-47133  34.850  37.533   2.860
74709ION    CL-47134  39.106  28.576   1.664
74710ION    CL-47135  17.422   5.794  13.364
74711ION    CL-47136  21.921  41.374  11.403
74712ION    CL-47137  41.352  27.469  12.524
74713ION    CL-47138  44.777  20.883   2.924
74714ION    CL-47139  20.469  40.092   1.552
74715ION    CL-47140  44.911   3.476  11.469
74716ION    CL-47141  24.122  18.355  14.367
74717ION    CL-47142  24.285  39.939   1.386
74718ION    CL-47143  29.492  19.652  13.389
74719ION    CL-47144   0.221  38.822   2.616
74720ION    CL-47145  11.382  26.909  14.647
74721ION    CL-47146  41.437  13.649   3.754
74722ION    CL-47147  23.918  25.043  13.413
74723ION    CL-47148  10.954  38.730  11.496
74724ION    CL-47149  21.728  27.286   0.360
74725ION    CL-47150  26.132  30.470   3.294
74726ION    CL-47151   0.646  44.142  12.508
74727ION    CL-47152   0.810  43.320  10.399
74728ION    CL-47153  44.649  40.989  12.259
74729ION    CL-47154  30.627  39.180   1.843
74730ION    CL-47155  30.607   5.633  12.097
74731ION    CL-47156  24.378  25.085  11.800
74732ION    CL-47157  22.075  24.299   1.810
74733ION    CL-47158  23.001   3.620  13.637
74734ION    CL-47159  22.505  11.640  13.953
74735ION    CL-47160  27.457  14.053   1.974
74736ION    CL-47161  38.605  38.927  11.547
74737ION    CL-47162  33.037   6.819  11.566
74738ION    CL-47163  37.269  10.724  11.186
74739ION    CL-47164  20.073  18.787  11.174
74740ION    CL-47165  41.211  34.050   1.892
74741ION    CL-47166  14.952   7.536   0.973
74742ION    CL-47167   1.345   2.874   4.010
74743ION    CL-47168  26.431  32.060   2.714
74744ION    CL-47169  42.718   6.343  14.497
74745ION    CL-47170  11.788  14.238  14.844
74746ION    CL-47171  32.454  32.234   0.698
74747ION    CL-47172  20.635  25.942  12.397
74748ION    CL-47173  22.989   5.568  10.094
74749ION    CL-47174  41.709   7.612  13.904
74750ION    CL-47175  38.869  28.868   4.112
74751ION    CL-47176  22.460  27.891   4.111
74752ION    CL-47177  18.646  12.711   4.011
74753ION    CL-47178   5.800  43.222  12.070
74754ION    CL-47179   8.852   2.352   3.779
74755ION    CL-47180  24.108  25.489  14.851
74756ION    CL-47181  18.528  43.489  12.781
74757ION    CL-47182  23.047  31.083   2.520
74758ION    CL-47183   3.660   9.709  14.923
74759ION    CL-47184  32.232  11.803   3.849
74760ION    CL-47185  30.038  41.409  10.713
74761ION    CL-47186  41.904  13.674  12.652
74762ION    CL-47187  10.782  34.785   0.875
74763ION    CL-47188   6.362   0.974  12.072
74764ION    CL-47189  35.484  24.305   2.166
74765ION    CL-47190  29.105  14.003  14.605
74766ION    CL-47191   2.701  26.173   3.478
74767ION    CL-47192   5.367  40.585  13.120
74768ION    CL-47193  35.681  42.702   1.819
74769ION    CL-47194  12.086  18.975   4.588
74770ION    CL-47195  33.132  41.500   0.663
74771ION    CL-47196  25.047  10.007   3.070
74772ION    CL-47197  15.943  27.831  14.166
74773ION    CL-47198  41.002  16.348   0.349
74774ION    CL-47199  28.428  41.931  10.963
74775ION    CL-47200   8.249  17.422  13.710
74776ION    CL-47201  23.908  43.007  13.735
74777ION    CL-47202  25.554  29.984  13.389
74778ION    CL-47203  17.924   1.921  14.446
74779ION    CL-47204  41.171  35.063  13.439
74780ION    CL-47205  13.320  25.316  10.097
74781ION    CL-47206  17.423  22.041  14.895
74782ION    CL-47207  40.371  43.784  10.500
74783ION    CL-47208  21.397  21.119  13.044
74784ION    CL-47209   1.915  35.857   3.179
74785ION    CL-47210  20.989  12.000   2.280
74786ION    CL-47211  35.300  20.992   2.414
74787ION    CL-47212  23.417  11.330  11.480
74788ION    CL-47213  40.966  43.530   5.035
74789ION    CL-47214  12.715  19.989  14.051
74790ION    CL-47215   4.885  28.456   2.165
74791ION    CL-47216  28.358  14.421  14.751
74792ION    CL-47217  19.516  37.054  11.638
74793ION    CL-47218  12.083  43.302   2.337
74794ION    CL-47219   7.072  44.064   2.826
74795ION    CL-47220  23.932  17.370   2.441
74796ION    CL-47221  11.898  33.903  10.408
74797ION    CL-47222  27.703  42.810   0.796
74798ION    CL-47223  23.155  28.606   1.888
74799ION    CL-47224   6.602  15.375   2.012
74800ION    CL-47225  19.647  12.043   2.799
74801ION    CL-47226  16.916  35.809   4.280
74802ION    CL-47227  34.742   5.690  10.303
74803ION    CL-47228   8.671  11.762  12.571
74804ION    CL-47229   4.317  26.809   0.787
74805ION    CL-47230  37.262  39.996   2.699
74806ION    CL-47231  28.985   0.140  14.987
74807ION    CL-47232  10.708   7.962  10.276
74808ION    CL-47233  31.544  22.579  10.644
74809ION    CL-47234   0.278  14.188  11.559
74810ION    CL-47235  25.810   1.124   1.408
74811ION    CL-47236  43.813  12.287   1.532
74812ION    CL-47237  13.027  26.506  12.754
74813ION    CL-47238  26.125  20.974  13.578
74814ION    CL-47239  43.652  35.038  12.770
74815ION    CL-47240  25.557  20.196  14.254
74816ION    CL-47241  36.359  22.879  10.588
74817ION    CL-47242  28.579  30.867   1.438
74818ION    CL-47243  35.910  42.242   5.104
74819ION    CL-47244  36.681  31.589   2.350
74820ION    CL-47245  31.985  27.375   3.282
74821ION    CL-47246  41.393   6.833   3.687
74822ION    CL-47247   0.301  25.565   0.325
74823ION    CL-47248  24.672  26.495   2.129
74824ION    CL-47249  31.595  24.940   4.836
74825ION    CL-47250  33.439  10.185  14.754
74826ION    CL-47251  37.542  16.284   0.724
74827ION    CL-47252  19.222  14.173  12.837
74828ION    CL-47253  23.043  24.938  10.492
74829ION    CL-47254  15.333  28.040   0.883
74830ION    CL-47255  43.118  29.561   0.385
74831ION    CL-47256  21.110  24.047  13.188
74832ION    CL-47257   4.586  16.134   4.013
74833ION    CL-47258  22.138  16.736   2.418
74834ION    CL-47259  20.722  39.155   0.476
74835ION    CL-47260  44.367  20.091   3.135
74836ION    CL-47261   9.155  42.807  13.290
74837ION    CL-47262  35.716  14.632   1.955
74838ION    CL-47263  15.351  24.026   0.614
74839ION    CL-47264   1.168   9.201  10.714
74840ION    CL-47265  37.242  22.414  10.649
74841ION    CL-47266  34.532  25.227   1.944
74842ION    CL-47267  42.376  31.693   3.920
74843ION    CL-47268  21.250  34.296  14.402
74844ION    CL-47269  22.558  44.892  12.583
74845ION    CL-47270  22.021   8.452  14.361
74846ION    CL-47271  23.802  33.574   1.882
74847ION    CL-47272  36.888  16.857   2.816
74848ION    CL-47273  35.344  12.170  12.622
74849ION    CL-47274  34.559  39.074   1.232
74850ION    CL-47275   3.014  43.874  12.074
74851ION    CL-47276  39.310  26.232   3.919
74852ION    CL-47277   5.908   5.325   3.893
74853ION    CL-47278  16.659  21.562  11.670
74854ION    CL-47279  39.468  42.511  10.602
74855ION    CL-47280   1.449  42.488   0.829
74856ION    CL-47281  31.804  10.827   1.900
74857ION    CL-47282  14.069  18.125   1.300
74858ION    CL-47283   1.322  22.461   3.229
74859ION    CL-47284  30.724  35.903  12.893
74860ION    CL-47285  20.286  23.489   4.112
74861ION    CL-47286   8.995   8.457  14.482
74862ION    CL-47287  36.913  32.631  10.602
74863ION    CL-47288   8.705  33.981   2.513
74864ION    CL-47289  12.890   9.349  11.328
74865ION    CL-47290  16.092  22.644  11.143
74866ION    CL-47291   2.932  29.815  11.511
74867ION    CL-47292   0.828  17.814   5.098
74868ION    CL-47293   3.338  43.486   1.334
74869ION    CL-47294  11.076  10.107  12.589
74870ION    CL-47295  39.841  31.093  10.592
74871ION    CL-47296   1.931  44.706  13.082
74872ION    CL-47297  33.308  41.723   4.042
74873ION    CL-47298   4.887  26.024   4.166
74874ION    CL-47299   6.197  16.816  14.480
74875ION    CL-47300  28.270  31.905   1.392
74876ION    CL-47301  35.107  36.375   2.583
74877ION    CL-47302   3.473   3.343  12.048
74878ION    CL-47303  13.375  42.115   4.323
74879ION    CL-47304  32.444  15.382  11.039
74880ION    CL-47305  28.546  37.213   2.187
74881ION    CL-47306  25.204   5.403   1.689
74882ION    CL-47307  14.060   1.055   1.837
74883ION    CL-47308  11.256  44.196   1.315
74884ION    CL-47309   0.374   1.971   0.944
74885ION    CL-47310  19.504  44.922  12.389
74886ION    CL-47311  36.431  43.749  12.584
74887ION    CL-47312  19.804  14.750  10.844
74888ION    CL-47313  42.925  37.339  14.971
74889ION    CL-47314  39.879  16.120  12.945
74890ION    CL-47315  37.248   0.558   2.342
74891ION    CL-47316   5.385   8.581  14.283
74892ION    CL-47317  27.545  44.853   5.024
74893ION    CL-47318  44.204  25.307  12.258
74894ION    CL-47319  37.648  24.182  13.015
74895ION    CL-47320  24.663  14.940   0.339
74896ION    CL-47321  27.609  28.805  11.362
74897ION    CL-47322  38.812  18.069  13.681
74898ION    CL-47323   7.746  19.924   1.381
74899ION    CL-47324  42.447  17.274   2.186
74900ION    CL-47325  17.051  44.692   3.239
74901ION    CL-47326  38.517  23.164   0.727
74902ION    CL-47327  14.831  28.100  13.660
74903ION    CL-47328  43.961  18.532   2.343
74904ION    CL-47329  39.839   1.076   1.727
74905ION    CL-47330   0.741  39.007   3.314
74906ION    CL-47331  12.410  25.765   0.682
74907ION    CL-47332   9.718  40.544   4.066
74908ION    CL-47333  10.059  39.848   5.049
74909ION    CL-47334  26.490  21.657  12.144
74910ION    CL-47335  16.276  41.527   4.383
74911ION    CL-47336  36.802  12.649  12.056
74912ION    CL-47337  43.509  42.125   4.071
74913ION    CL-47338  31.975  19.167   0.476
74914ION    CL-47339  17.163  10.459  13.028
74915ION    CL-47340  14.413  17.579  12.102
74916ION    CL-47341   9.379  26.112   0.337
74917ION    CL-47342  18.593   1.639   4.091
74918ION    CL-47343  36.919  12.222   2.233
74919ION    CL-47344  33.748   6.417   0.346
74920ION    CL-47345  39.203  14.313   2.257
74921ION    CL-47346  38.674   7.192   3.369
74922ION    CL-47347  33.110   4.630   1.695
74923ION    CL-47348  19.527   0.100  13.807
74924ION    CL-47349  13.068  29.191   1.813
74925ION    CL-47350   9.964  32.057  13.460
74926ION    CL-47351  12.633   5.660   3.284
74927ION    CL-47352  41.609  31.921  12.272
74928ION    CL-47353  42.154  38.344   1.091
74929ION    CL-47354  31.668  30.292   3.297
74930ION    CL-47355  28.222  22.060  11.897
74931ION    CL-47356   9.844  38.075  12.084
74932ION    CL-47357  35.616   0.863   0.044
74933ION    CL-47358  28.223   0.832  14.747
74934ION    CL-47359  24.953  39.743   4.645
74935ION    CL-47360  19.887  37.142   0.708
74936ION    CL-47361   1.429  18.216  13.578
74937ION    CL-47362  42.876  28.275  11.614
74938ION    CL-47363   2.086  28.844   4.584
74939ION    CL-47364  36.068  18.241  13.485
74940ION    CL-47365  15.900  25.452  14.055
74941ION    CL-47366  30.952  44.556   0.314
74942ION    CL-47367   6.250  17.357   2.175
74943ION    CL-47368  11.402  21.634   3.749
74944ION    CL-47369  14.816  36.841   3.094
74945ION    CL-47370  30.402  38.298  14.169
74946ION    CL-47371  37.589  16.763  12.943
74947ION    CL-47372   1.322  40.018  13.077
74948ION    CL-47373  43.055  43.157   4.408
74949ION    CL-47374  28.496   2.044   2.808
74950ION    CL-47375  26.001  31.098  11.352
74951ION    CL-47376  42.610  12.681  12.263
74952ION    CL-47377  36.058   8.552   1.442
74953ION    CL-47378   1.981  13.042   0.710
74954ION    CL-47379  25.610  32.366   4.578
74955ION    CL-47380  36.016  17.143  11.771
74956ION    CL-47381   3.369   3.591  13.078
74957ION    CL-47382  34.290   2.613   2.118
74958ION    CL-47383  37.066   2.829   5.035
74959ION    CL-47384  27.519  31.355   3.633
74960ION    CL-47385  29.365  31.190   4.931
74961ION    CL-47386  33.443  42.500   0.939
74962ION    CL-47387   9.926  21.760  14.974
74963ION    CL-47388  31.282  33.763  13.300
74964ION    CL-47389  18.428  42.016   1.926
74965ION    CL-47390   3.959  37.513   0.944
74966ION    CL-47391  27.716  30.442  14.261
74967ION    CL-47392  43.266  41.079  13.890
74968ION    CL-47393  44.295  10.291   3.326
74969ION    CL-47394  23.216  24.508  13.183
74970ION    CL-47395  27.725  20.453  14.791
74971ION    CL-47396   5.663   4.808  14.180
74972ION    CL-47397   1.750  14.464   4.499
74973ION    CL-47398  37.875  24.912  13.739
74974ION    CL-47399   9.262   7.417   3.641
74975ION    CL-47400  24.195  35.649   0.945
74976ION    CL-47401   1.886  15.132  10.436
74977ION    CL-47402   6.995  39.518   0.384
74978ION    CL-47403  19.857  30.497   3.468
74979ION    CL-47404  15.857  42.887  11.134
74980ION    CL-47405   0.624  37.444  14.725
74981ION    CL-47406   5.085   3.589  13.933
74982ION    CL-47407  17.753   4.183   2.384
74983ION    CL-47408  40.097  17.583  14.832
74984ION    CL-47409  23.726  44.200   1.744
74985ION    CL-47410  39.326  42.909  13.306
74986ION    CL-47411  43.808  42.587  12.067
74987ION    CL-47412  17.382  39.476  13.644
74988ION    CL-47413  44.245  17.557  12.432
74989ION    CL-47414  35.975  28.247   1.498
74990ION    CL-47415  11.915  40.294   3.564
74991ION    CL-47416   8.334   1.347   4.265
74992ION    CL-47417  24.989  23.549   4.811
74993ION    CL-47418  38.565   9.988   1.980
74994ION    CL-47419  23.096  12.105  14.612
74995ION    CL-47420  23.985  39.445   0.257
74996ION    CL-47421  22.056  25.640   0.701
74997ION    CL-47422  18.815  35.409   3.716
74998ION    CL-47423   3.055  16.418   0.146
74999ION    CL-47424   4.002  23.078   2.738
75000ION    CL-47425  13.434  22.516   4.972
75001ION    CL-47426   3.366   9.011   1.281
75002ION    CL-47427   2.538  15.242  12.688
75003ION    CL-47428  14.106  33.469   2.578
75004ION    CL-47429   3.991  21.621  14.429
75005ION    CL-47430  25.650   7.792   1.149
75006ION    CL-47431  32.989  39.211  13.007
75007ION    CL-47432  19.070   8.440  14.986
75008ION    CL-47433  25.950  17.147   3.853
75009ION    CL-47434  30.946  10.549   0.849
75010ION    CL-47435   2.736  20.652  12.595
75011ION    CL-47436  21.034  40.156   2.259
75012ION    CL-47437  17.592  41.402   1.220
75013ION    CL-47438  23.027  25.607   1.805
75014ION    CL-47439  39.397   4.076   4.152
75015ION    CL-47440  17.194   3.113   5.260
75016ION    CL-47441  35.069  13.837   3.923
75017ION    CL-47442  15.923  15.420   3.086
75018ION    CL-47443  20.010  40.591  12.690
75019ION    CL-47444   1.338  22.423  12.305
75020ION    CL-47445   3.723   8.741  13.872
75021ION    CL-47446  12.427   7.716   4.180
75022ION    CL-47447  25.322  34.726  14.932
75023ION    CL-47448  14.713  31.584  10.668
75024ION    CL-47449   4.440  16.911   4.661
75025ION    CL-47450  33.906  31.245   2.025
75026ION    CL-47451  18.823  26.963   3.312
75027ION    CL-47452  10.802  35.464   5.304
75028ION    CL-47453  18.790  23.712   2.600
75029ION    CL-47454  42.358  42.808  14.720
75030ION    CL-47455  22.624  14.591   1.755
75031ION    CL-47456  21.981  32.637   3.703
75032ION    CL-47457  27.947  12.802  14.465
75033ION    CL-47458  12.390  42.977  13.842
75034ION    CL-47459  42.553  27.006  13.415
75035ION    CL-47460  39.099  33.179   0.610
75036ION    CL-47461  12.706   2.877   1.245
75037ION    CL-47462   1.164  20.079  12.012
75038ION    CL-47463   9.614  36.012  11.464
75039ION    CL-47464  15.309  34.609  10.475
75040ION    CL-47465  34.312  12.786   3.764
75041ION    CL-47466  31.435  41.935  13.676
75042ION    CL-47467  41.072   8.240   3.377
75043ION    CL-47468  30.520   8.845  11.695
75044ION    CL-47469  43.719  34.466  13.588
75045ION    CL-47470  32.292   6.155  11.624
75046ION    CL-47471  21.128   7.795   0.050
75047ION    CL-47472   4.333  42.298   3.495
75048ION    CL-47473  42.248  26.427   2.837
75049ION    CL-47474  36.317  40.142   4.633
75050ION    CL-47475  27.079   5.681  10.957
75051ION    CL-47476  16.503  12.734  12.377
75052ION    CL-47477  23.443   8.582   5.344
75053ION    CL-47478   4.932  22.407   1.180
75054ION    CL-47479  17.561  26.546   1.940
75055ION    CL-47480  21.995   4.901  11.675
75056ION    CL-47481  10.595  32.864   0.348
75057ION    CL-47482  15.503  38.131   4.854
75058ION    CL-47483   3.215  41.491  14.335
75059ION    CL-47484  13.198  37.487  12.937
75060ION    CL-47485  43.243  10.908   0.387
75061ION    CL-47486  12.888   4.525  12.004
75062ION    CL-47487  39.648  34.745  14.932
75063ION    CL-47488  13.168  20.573  14.724
75064ION    CL-47489  22.850  23.711   2.127
75065ION    CL-47490   2.540  27.997   1.249
75066ION    CL-47491   5.028  12.845   0.984
75067ION    CL-47492  34.094  16.165   1.443
75068ION    CL-47493  12.570  11.541  10.745
75069ION    CL-47494  28.674  39.106  12.403
75070ION    CL-47495   2.480  10.169   1.810
75071ION    CL-47496  33.301  26.855   4.277
75072ION    CL-47497  23.434   7.651   1.881
75073ION    CL-47498  33.424   7.741   1.267
75074ION    CL-47499   7.764  34.355  13.124
75075ION    CL-47500   4.879  22.324  13.907
75076ION    CL-47501  14.236  34.355   3.592
75077ION    CL-47502  37.031  33.506  13.004
75078ION    CL-47503  16.030   9.312  11.769
75079ION    CL-47504  18.965   1.177   4.896
75080ION    CL-47505  37.560   6.118  11.108
75081ION    CL-47506   1.854  21.670  11.400
75082ION    CL-47507  29.059  40.240  14.694
75083ION    CL-47508  43.930  10.776   1.214
75084ION    CL-47509  36.102  30.655   1.440
75085ION    CL-47510  23.150  33.259   4.941
75086ION    CL-47511  17.366  17.643  12.845
75087ION    CL-47512   4.835   3.409   3.288
75088ION    CL-47513  44.408  23.538  14.205
75089ION    CL-47514   7.200  26.411  13.528
75090ION    CL-47515  28.427  11.631   3.081
75091ION    CL-47516  37.355   1.057   1.591
75092ION    CL-47517   4.360   0.124  14.864
75093ION    CL-47518  27.709  18.452  13.460
75094ION    CL-47519  44.558  10.730  13.455
75095ION    CL-47520  32.673   1.640   2.782
75096ION    CL-47521   4.672  13.264  11.240
75097ION    CL-47522  43.857  23.781  13.343
75098ION    CL-47523   9.189  16.278   2.866
75099ION    CL-47524  36.677  31.394  13.042
75100ION    CL-47525  17.431  33.433  12.791
75101ION    CL-47526   4.241  25.433   4.080
75102ION    CL-47527  11.956   1.210   3.831
75103ION    CL-47528  14.003  25.121   1.649
75104ION    CL-47529  41.243  11.275   0.259
75105ION    CL-47530  17.074  33.305   5.175
75106ION    CL-47531  26.393  33.052  12.405
75107ION    CL-47532  30.886   5.409   1.912
75108ION    CL-47533  22.175  17.031  14.841
75109ION    CL-47534  26.627  38.170  12.186
75110ION    CL-47535  34.841  32.454  12.948
75111ION    CL-47536  44.321  44.311  13.934
75112ION    CL-47537  11.503  32.804  14.782
75113ION    CL-47538  27.094  24.996  13.185
75114ION    CL-47539  41.779  24.087   2.367
75115ION    CL-47540  26.933   5.825   3.758
75116ION    CL-47541  26.711  38.100  14.558
75117ION    CL-47542   7.798   4.399   2.979
75118ION    CL-47543  20.236   6.332  11.917
75119ION    CL-47544   4.200  27.416   1.756
75120ION    CL-47545  42.205  38.794  11.931
75121ION    CL-47546  15.600   7.797  13.883
75122ION    CL-47547  24.520   8.376   3.257
75123ION    CL-47548  25.641   4.722   0.390
75124ION    CL-47549   3.348  34.915   5.114
75125ION    CL-47550  26.726  20.311  13.381
75126ION    CL-47551  37.342  26.165   2.300
75127ION    CL-47552  18.784  26.094   0.259
75128ION    CL-47553   3.696  40.016   2.290
75129ION    CL-47554  23.150  43.726  11.840
75130ION    CL-47555  41.817  42.173  12.472
75131ION    CL-47556   4.610  36.811  12.466
75132ION    CL-47557  35.746  27.049  11.610
75133ION    CL-47558  35.997  27.559   2.083
75134ION    CL-47559  33.962  32.282   2.215
75135ION    CL-47560  18.435  16.084  13.870
75136ION    CL-47561  11.281  24.030  10.860
75137ION    CL-47562  42.019  14.268  10.732
75138ION    CL-47563  27.572  16.471  13.508
75139ION    CL-47564  19.571  10.302  11.104
75140ION    CL-47565  23.844  23.579   0.967
75141ION    CL-47566  14.592  18.767  11.893
75142ION    CL-47567  44.259   2.721  11.407
75143ION    CL-47568   1.952  37.496  11.772
75144ION    CL-47569  43.397  37.401   2.691
75145ION    CL-47570  18.518   0.256  12.547
75146ION    CL-47571  27.833  38.488  12.369
75147ION    CL-47572  33.470  42.339  12.122
75148ION    CL-47573  31.832  21.114  13.417
75149ION    CL-47574   9.466   1.905   4.579
75150ION    CL-47575  21.106  25.424  11.265
75151ION    CL-47576  44.211  38.378  12.411
75152ION    CL-47577   3.766  34.015  14.959
75153ION    CL-47578  14.119  32.723  12.175
75154ION    CL-47579  38.645  42.088  12.114
75155ION    CL-47580   1.280  24.080   4.560
75156ION    CL-47581  23.836  38.511  13.811
75157ION    CL-47582  43.855  30.385   1.165
75158ION    CL-47583  42.122  33.852  13.109
75159ION    CL-47584   3.508   5.216   2.149
75160ION    CL-47585  13.050  43.020  12.504
75161ION    CL-47586  21.989  15.136  11.085
75162ION    CL-47587  10.883  19.472  11.871
75163ION    CL-47588  26.372  20.572  14.797
75164ION    CL-47589  31.226  43.533   5.014
75165ION    CL-47590  24.053  22.052  13.454
75166ION    CL-47591  21.333  14.349  13.884
75167ION    CL-47592  25.212  19.244  12.456
75168ION    CL-47593  15.650   1.874   2.128
75169ION    CL-47594  11.502  41.030   3.212
75170ION    CL-47595  42.621  26.162  12.054
75171ION    CL-47596  30.080   8.196  12.591
75172ION    CL-47597   4.743  44.661   1.280
75173ION    CL-47598  41.606  25.799   2.801
75174ION    CL-47599  16.073   8.543  11.323
75175ION    CL-47600   3.414  39.399   0.854
75176ION    CL-47601  30.590  22.291  10.724
75177ION    CL-47602  44.971  16.756   3.678
75178ION    CL-47603   2.543  38.276  12.131
75179ION    CL-47604  44.265  21.948   5.028
75180ION    CL-47605  42.132  32.915   0.739
75181ION    CL-47606  40.649   0.835   4.112
75182ION    CL-47607  42.827  44.029   2.755
75183ION    CL-47608  13.555  27.755  13.590
75184ION    CL-47609   5.228  34.250   1.164
75185ION    CL-47610  28.087  30.403   5.305
75186ION    CL-47611  11.967  26.499   2.755
75187ION    CL-47612  21.005  35.362   2.008
75188ION    CL-47613  34.342  23.938  10.254
75189ION    CL-47614  43.947  43.993  12.026
75190ION    CL-47615  29.824  43.878  12.766
75191ION    CL-47616  17.573  16.170  13.370
75192ION    CL-47617   9.436  42.914  11.140
75193ION    CL-47618  18.541  16.808  10.992
75194ION    CL-47619  36.020  29.662   1.353
75195ION    CL-47620  44.241   1.192  12.111
75196ION    CL-47621  12.681  17.813   3.641
75197ION    CL-47622  35.568   8.906   3.127
75198ION    CL-47623  15.869  24.701   2.500
75199ION    CL-47624   1.243  23.963   2.361
75200ION    CL-47625  36.526  34.296   2.392
75201ION    CL-47626   8.041  43.002   2.876
75202ION    CL-47627  44.802  14.320  14.188
75203ION    CL-47628  44.600  31.322   2.917
75204ION    CL-47629   1.047  20.051  13.774
75205ION    CL-47630   2.697  39.514  12.106
75206ION    CL-47631  18.472  29.767   3.190
75207ION    CL-47632  31.147  30.646  12.142
75208ION    CL-47633  11.444   1.104  14.276
75209ION    CL-47634  19.334  42.723  13.466
75210ION    CL-47635   3.483  24.961   1.131
75211ION    CL-47636  40.449  34.046  13.971
75212ION    CL-47637  32.617   3.302   0.688
75213ION    CL-47638  26.177  12.115  12.635
75214ION    CL-47639  11.409   1.938  13.272
75215ION    CL-47640  14.104   4.147   1.401
75216ION    CL-47641   9.659  21.482  11.105
75217ION    CL-47642  28.476  37.807  13.574
75218ION    CL-47643  39.936  33.882   5.009
75219ION    CL-47644  33.628   0.164  13.349
75220ION    CL-47645  17.228  40.502  14.353
75221ION    CL-47646  32.710  21.234  12.726
75222ION    CL-47647  25.106  25.396   3.208
75223ION    CL-47648  10.852  18.872   1.458
75224ION    CL-47649  11.919  24.352  12.603
75225ION    CL-47650   3.614  38.961  13.953
75226ION    CL-47651  25.581  25.928   2.331
75227ION    CL-47652   9.266  42.805   0.831
75228ION    CL-47653  21.810  29.878   1.335
75229ION    CL-47654  34.588  44.373   0.252
75230ION    CL-47655  33.587  23.124  11.845
75231ION    CL-47656  43.062  19.998  11.978
75232ION    CL-47657   2.457  40.394  12.405
75233ION    CL-47658  20.454  43.341   1.378
75234ION    CL-47659  32.654  28.583   1.953
75235ION    CL-47660  15.613  18.277   9.714
75236ION    CL-47661  27.756   0.814   5.203
75237ION    CL-47662  23.848  15.407  10.040
75238ION    CL-47663  43.544  39.647   1.959
75239ION    CL-47664   0.291   3.240  10.531
75240ION    CL-47665  29.224  31.830  12.648
75241ION    CL-47666  22.022  21.208  12.072
75242ION    CL-47667   0.024  39.315   4.320
75243ION    CL-47668  40.502   2.511   4.636
75244ION    CL-47669  38.867  27.072  12.933
75245ION    CL-47670   7.669   4.902   2.229
75246ION    CL-47671  26.290  19.250   1.828
75247ION    CL-47672  44.372  33.765  11.322
75248ION    CL-47673  36.640  38.484   2.020
75249ION    CL-47674   8.075  34.118   1.421
75250ION    CL-47675  14.200  22.531  10.368
75251ION    CL-47676  36.936  17.729  13.060
75252ION    CL-47677  38.498  28.592  10.425
75253ION    CL-47678  30.450   6.131   2.649
75254ION    CL-47679  27.105   8.763  11.514
75255ION    CL-47680   5.909   0.748   1.254
75256ION    CL-47681  13.388  15.139  12.413
75257ION    CL-47682  24.603   0.293   2.339
75258ION    CL-47683  36.324  14.269  14.260
75259ION    CL-47684  14.743  38.421  11.412
75260ION    CL-47685  15.002  30.366   1.977
75261ION    CL-47686  33.143  43.755  10.334
75262ION    CL-47687  30.476  38.624   3.770
75263ION    CL-47688   3.216  25.690   5.018
75264ION    CL-47689   7.492  26.291  12.548
75265ION    CL-47690  12.085  23.527   0.691
75266ION    CL-47691   1.764   4.155  10.784
75267ION    CL-47692  27.486  16.046   3.241
75268ION    CL-47693  15.414  24.323  11.219
75269ION    CL-47694   2.443  35.065   2.258
75270ION    CL-47695  34.581  35.501  14.871
75271ION    CL-47696  20.871  17.321   1.116
75272ION    CL-47697  20.109  28.255   0.855
75273ION    CL-47698  29.648  23.511  11.142
75274ION    CL-47699  29.625  29.974   3.432
75275ION    CL-47700  13.895   9.978   3.739
75276ION    CL-47701  34.494  19.768   1.570
75277ION    CL-47702  15.525   8.791  13.969
75278ION    CL-47703  42.678  28.950   4.833
75279ION    CL-47704  30.595  14.819   3.741
75280ION    CL-47705  10.699  37.323  12.871
75281ION    CL-47706  34.746   3.688   5.120
75282ION    CL-47707  41.962   5.357   1.922
75283ION    CL-47708  31.867  38.402  14.273
75284ION    CL-47709  39.155   7.276  12.335
75285ION    CL-47710   1.932  18.834   0.135
75286ION    CL-47711  40.468  20.604  14.464
75287ION    CL-47712  15.557   5.683   3.623
75288ION    CL-47713  14.576  20.542  10.986
75289ION    CL-47714  20.404  33.777  11.033
75290ION    CL-47715  36.862  28.625  14.912
75291ION    CL-47716   5.857  30.831   1.159
75292ION    CL-47717  16.150   2.737   1.384
75293ION    CL-47718  27.031  38.347  10.423
75294ION    CL-47719  37.651  23.735   4.292
75295ION    CL-47720   2.802  10.060   3.534
75296ION    CL-47721  20.187  37.612  11.576
75297ION    CL-47722   3.451  24.215   2.388
75298ION    CL-47723  32.919  23.565   1.880
75299ION    CL-47724  31.478  44.359   5.106
75300ION    CL-47725  38.446   9.633  14.035
75301ION    CL-47726  19.848   8.842   0.240
75302ION    CL-47727   7.165   5.261  10.650
75303ION    CL-47728  40.602   9.716   2.959
75304ION    CL-47729  18.362  10.738  12.482
75305ION    CL-47730  39.114  32.010  13.582
75306ION    CL-47731  15.260  22.059  14.543
75307ION    CL-47732  26.925  36.818   1.001
75308ION    CL-47733  44.370  33.839  14.214
75309ION    CL-47734   3.153  15.195  14.265
75310ION    CL-47735  27.603  33.644   3.839
75311ION    CL-47736   5.365   1.377   1.897
75312ION    CL-47737   9.068  13.753   0.711
75313ION    CL-47738  13.846  11.811  10.810
75314ION    CL-47739  27.527   2.698   1.925
75315ION    CL-47740  33.793   2.447   5.028
75316ION    CL-47741  19.879  21.219   3.233
75317ION    CL-47742  29.523   9.610   2.956
75318ION    CL-47743  19.996  38.056   2.900
75319ION    CL-47744  33.126   3.855  10.952
75320ION    CL-47745  24.439   6.723  13.900
75321ION    CL-47746   1.275  13.568   0.874
75322ION    CL-47747  12.714  10.858  14.488
75323ION    CL-47748  16.516  17.147  13.632
75324ION    CL-47749   0.037  31.251  14.876
75325ION    CL-47750  40.736  27.773   1.954
75326ION    CL-47751  38.767  12.356   1.702
75327ION    CL-47752  40.171  40.508   0.671
75328ION    CL-47753  27.497  33.753   2.851
75329ION    CL-47754  22.883  17.339   9.896
75330ION    CL-47755  28.459  12.610   1.311
75331ION    CL-47756   8.388   3.728  12.396
75332ION    CL-47757  44.829  42.996  10.748
75333ION    CL-47758  41.627   6.250   4.368
75334ION    CL-47759  17.363  29.629  11.598
75335ION    CL-47760   9.203  21.478  11.995
75336ION    CL-47761  26.036  24.131  12.870
75337ION    CL-47762   0.390  24.456  10.667
75338ION    CL-47763  34.130  40.926   2.759
75339ION    CL-47764  17.191  28.659   4.456
75340ION    CL-47765  24.791   5.904  13.703
75341ION    CL-47766   0.527  38.486  13.998
75342ION    CL-47767   7.257  37.694  12.441
75343ION    CL-47768  18.560  32.230  12.563
75344ION    CL-47769  12.697  16.246  13.215
75345ION    CL-47770  13.383   9.168   0.447
75346ION    CL-47771  36.937   6.065   2.713
75347ION    CL-47772  24.043  31.153  14.040
75348ION    CL-47773  14.208   8.380  12.930
75349ION    CL-47774  28.117  22.792   2.067
75350ION    CL-47775  17.017  23.934   4.157
75351ION    CL-47776  35.299   2.888   2.378
75352ION    CL-47777  37.496  24.720   0.283
75353ION    CL-47778  44.607  15.554  11.411
75354ION    CL-47779  29.027  21.223   3.314
75355ION    CL-47780   6.375  28.451  13.555
75356ION    CL-47781  27.570  25.008   1.568
75357ION    CL-47782  10.096  34.041  11.570
75358ION    CL-47783  17.282  38.276   3.262
75359ION    CL-47784  39.906  28.817   0.823
75360ION    CL-47785  14.398  25.854  13.624
75361ION    CL-47786  16.435  29.934  11.385
75362ION    CL-47787  42.290  24.200  10.739
75363ION    CL-47788   2.858  27.286   1.701
75364ION    CL-47789  43.078  28.633   1.977
75365ION    CL-47790  40.572  43.397   1.892
75366ION    CL-47791  29.909  20.957   3.702
75367ION    CL-47792   9.526  24.570   1.677
75368ION    CL-47793  15.320   7.064  14.333
75369ION    CL-47794  41.428   4.408   3.417
75370ION    CL-47795  40.621  14.137   1.665
75371ION    CL-47796  32.971  33.326   3.714
75372ION    CL-47797  40.091  19.376   1.089
75373ION    CL-47798  16.318   1.698   1.154
75374ION    CL-47799  15.118  21.055  13.937
75375ION    CL-47800  36.428  17.420   1.361
75376ION    CL-47801  28.256   2.791   3.619
75377ION    CL-47802  14.245  32.734   4.186
75378ION    CL-47803  37.273  28.083  11.568
75379ION    CL-47804  16.050  29.577  12.122
75380ION    CL-47805  41.723  13.091   0.642
75381ION    CL-47806  11.679  30.151   4.123
75382ION    CL-47807  17.499   9.617   3.518
75383ION    CL-47808   1.912   9.082   1.428
75384ION    CL-47809   3.494  30.924   2.633
75385ION    CL-47810  44.851  32.215  13.865
75386ION    CL-47811  29.447  13.899   3.391
75387ION    CL-47812  36.150  25.089   4.940
75388ION    CL-47813  30.201  32.099  10.765
75389ION    CL-47814  34.877  31.678   1.661
75390ION    CL-47815  17.385  41.256  12.854
75391ION    CL-47816  20.778   1.774  13.801
75392ION    CL-47817   2.224  35.668   1.018
75393ION    CL-47818  28.894  11.698   0.411
75394ION    CL-47819  41.757  11.592  14.591
75395ION    CL-47820   7.708  33.403  11.167
75396ION    CL-47821  16.802  17.828  14.897
75397ION    CL-47822  33.080   6.523   5.037
75398ION    CL-47823  40.395  42.403   4.022
75399ION    CL-47824   0.938  18.748  13.134
75400ION    CL-47825  38.224   7.497  12.046
75401ION    CL-47826   1.864  35.335  11.197
75402ION    CL-47827   9.881  20.868   0.458
75403ION    CL-47828  20.687  24.922  11.897
75404ION    CL-47829   8.815  22.908   1.372
75405ION    CL-47830  12.089  31.805   3.224
75406ION    CL-47831  27.716  29.073   4.109
75407ION    CL-47832   8.512  20.333   2.313
75408ION    CL-47833  22.451  31.835  11.650
75409ION    CL-47834   7.628   8.233   1.280
75410ION    CL-47835  13.511  13.727  10.855
75411ION    CL-47836   2.412  40.874   1.289
75412ION    CL-47837  31.698  34.249   0.504
75413ION    CL-47838  41.821  11.594  13.593
75414ION    CL-47839  26.408  10.585   5.175
75415ION    CL-47840   3.808  38.521  11.344
75416ION    CL-47841  13.041   0.236  11.007
75417ION    CL-47842   9.774  19.546   4.781
75418ION    CL-47843   0.556   1.470  11.679
75419ION    CL-47844   2.985  44.780  14.902
75420ION    CL-47845  32.181  16.592  10.511
75421ION    CL-47846  25.039  17.452  12.988
75422ION    CL-47847  36.509  31.456  14.397
75423ION    CL-47848  27.331  14.247  13.696
75424ION    CL-47849   7.710  40.122  10.461
75425ION    CL-47850  31.905  31.099   2.180
75426ION    CL-47851  16.438   8.417  13.811
75427ION    CL-47852  40.290   0.645   9.730
75428ION    CL-47853  28.783  19.236  10.752
75429ION    CL-47854  44.997  17.778   3.647
75430ION    CL-47855   0.830  31.307   4.574
75431ION    CL-47856  26.004   3.812   3.318
75432ION    CL-47857   8.152  22.609  14.810
75433ION    CL-47858  21.015  38.573   4.241
75434ION    CL-47859  42.277  26.295   3.980
75435ION    CL-47860  17.226   7.800  13.698
75436ION    CL-47861  26.993  18.080   4.195
75437ION    CL-47862  31.920  14.327   4.170
75438ION    CL-47863  24.710  16.742   2.482
75439ION    CL-47864  24.208  30.099  10.771
75440ION    CL-47865  36.579  22.550   0.244
75441ION    CL-47866  34.053  34.417   4.760
75442ION    CL-47867   6.695  15.598  11.957
75443ION    CL-47868  32.362  15.496  14.106
75444ION    CL-47869  43.831  24.440  12.589
75445ION    CL-47870  43.464   9.709  14.974
75446ION    CL-47871  26.168   5.200   1.864
75447ION    CL-47872  27.958  18.255   0.461
75448ION    CL-47873  27.058  43.554  14.127
75449ION    CL-47874  21.562  14.234  11.810
75450ION    CL-47875  34.578  18.053   0.881
75451ION    CL-47876  19.219  11.128  13.403
75452ION    CL-47877  32.215  27.620   4.518
75453ION    CL-47878  38.913  27.165   0.936
75454ION    CL-47879   9.462   6.220  11.045
75455ION    CL-47880  20.321   7.768  11.918
75456ION    CL-47881   0.923  12.780   1.379
75457ION    CL-47882  18.035  12.200  10.991
75458ION    CL-47883  20.436  21.217  11.954
75459ION    CL-47884  35.820  31.479   2.052
75460ION    CL-47885  32.167  33.223  11.124
75461ION    CL-47886   3.360  10.130  12.518
75462ION    CL-47887  44.953   0.200  12.941
75463ION    CL-47888  29.372  43.474   3.756
75464ION    CL-47889  35.657  10.566  11.997
75465ION    CL-47890   1.743  12.936   3.831
75466ION    CL-47891  14.163   3.425  14.514
75467ION    CL-47892  25.473  26.185   4.442
75468ION    CL-47893  35.878  10.251  14.411
75469ION    CL-47894  26.646  32.878  10.793
75470ION    CL-47895  15.045  16.287   4.949
75471ION    CL-47896  27.973  36.107  13.375
75472ION    CL-47897  15.683  15.177  12.004
75473ION    CL-47898  24.736   1.272   1.418
75474ION    CL-47899  18.637  34.825  10.832
75475ION    CL-47900  36.981  25.571   5.702
75476ION    CL-47901  29.356  44.041   2.744
75477ION    CL-47902  43.745  12.077  14.272
75478ION    CL-47903   8.458  34.876   5.618
75479ION    CL-47904  19.726  32.278   0.349
75480ION    CL-47905  32.084   2.434   2.635
75481ION    CL-47906  30.682  42.679  12.493
75482ION    CL-47907  17.164  41.323   2.571
75483ION    CL-47908  37.847  21.524  13.766
75484ION    CL-47909  15.670  26.117   3.791
75485ION    CL-47910  31.216   6.738   2.437
75486ION    CL-47911  19.779  25.802   0.906
75487ION    CL-47912   4.600  28.482   3.029
75488ION    CL-47913  27.734  35.847   0.523
75489ION    CL-47914  11.527  25.689  12.125
75490ION    CL-47915  37.744   6.934  14.337
75491ION    CL-47916   3.394  39.867  10.756
75492ION    CL-47917  25.307  24.470   0.791
75493ION    CL-47918  40.068  30.995   0.323
75494ION    CL-47919  20.800  17.517   1.920
75495ION    CL-47920  27.139  18.144  11.932
75496ION    CL-47921  15.174  30.731   1.030
75497ION    CL-47922  21.036  40.766  13.680
75498ION    CL-47923   9.353  21.290   1.662
75499ION    CL-47924  24.261  20.220  13.912
75500ION    CL-47925  25.743  22.266  11.606
75501ION    CL-47926   4.273  16.031  13.038
75502ION    CL-47927  13.758  43.609  13.937
75503ION    CL-47928  34.921  27.635   1.189
75504ION    CL-47929  23.387  22.342  14.015
75505ION    CL-47930  11.183  12.335   0.958
75506ION    CL-47931  24.556  32.440   0.386
75507ION    CL-47932  27.222  35.533  14.724
75508ION    CL-47933  28.467  11.981  14.228
75509ION    CL-47934   4.577  14.174  12.591
75510ION    CL-47935  12.110  17.262  14.861
75511ION    CL-47936  40.768   4.290   4.060
75512ION    CL-47937  40.831   7.970  13.505
75513ION    CL-47938  21.534  43.890  11.706
75514ION    CL-47939   5.183  38.636   3.212
75515ION    CL-47940   9.193  30.681   2.993
75516ION    CL-47941  10.988  34.635   3.743
75517ION    CL-47942  10.149   0.961  14.179
75518ION    CL-47943  26.754  13.958  12.533
75519ION    CL-47944  26.024  22.475  13.604
75520ION    CL-47945   4.565  14.343  10.724
75521ION    CL-47946  30.221  29.611  12.586
75522ION    CL-47947  41.355  23.865  13.528
75523ION    CL-47948  12.334  31.955  14.023
75524ION    CL-47949  33.698  32.809   3.166
75525ION    CL-47950   3.610  44.093  13.237
75526ION    CL-47951   6.925  36.528  12.956
75527ION    CL-47952   0.124  41.696   0.017
75528ION    CL-47953  42.490   1.487  10.778
75529ION    CL-47954  29.555  36.827  12.698
75530ION    CL-47955  23.404  29.667   3.941
75531ION    CL-47956  10.588   2.756  12.387
75532ION    CL-47957   8.105  19.963  11.890
75533ION    CL-47958  19.075  38.623  14.342
75534ION    CL-47959  38.490  39.920  11.503
75535ION    CL-47960  34.361   5.406  14.960
75536ION    CL-47961  10.965  31.778   4.349
75537ION    CL-47962  28.227  43.985   2.965
75538ION    CL-47963  16.466  40.333  12.859
75539ION    CL-47964  23.198  26.610   5.279
75540ION    CL-47965  36.814  32.634   1.427
75541ION    CL-47966  13.948   6.008  14.617
75542ION    CL-47967  26.713  21.190   4.158
75543ION    CL-47968   4.965  37.476   5.128
75544ION    CL-47969  25.778  29.188   0.212
75545ION    CL-47970  19.135  25.608   3.728
75546ION    CL-47971  19.585   4.009   3.768
75547ION    CL-47972  12.243  38.847  12.950
75548ION    CL-47973  28.539  33.051   1.743
75549ION    CL-47974  40.531  27.817   1.049
75550ION    CL-47975  31.946   4.247  12.757
75551ION    CL-47976  34.134  16.145  12.971
75552ION    CL-47977  31.837  14.878  11.790
75553ION    CL-47978   4.706   3.010   1.785
75554ION    CL-47979  41.680  43.195   0.847
75555ION    CL-47980  29.079  24.064  12.974
75556ION    CL-47981  15.659  44.438  11.232
75557ION    CL-47982  31.652  30.854   0.843
75558ION    CL-47983  25.392  10.705   1.637
75559ION    CL-47984  18.330  32.480   2.670
75560ION    CL-47985   9.358  12.439   3.834
75561ION    CL-47986  17.106  19.759  12.031
75562ION    CL-47987  14.911  35.096  13.327
75563ION    CL-47988   7.009  40.919  11.190
75564ION    CL-47989  19.776  28.424  11.090
75565ION    CL-47990  16.019   2.022  14.015
75566ION    CL-47991  18.725  41.527  12.393
75567ION    CL-47992  31.143  44.993  11.076
75568ION    CL-47993  44.808   2.836   4.075
75569ION    CL-47994  12.224  23.716   4.447
75570ION    CL-47995   8.752  29.856   2.172
75571ION    CL-47996  20.251  25.553  14.055
75572ION    CL-47997  41.006  18.971   3.422
75573ION    CL-47998  13.356  34.115  10.189
75574ION    CL-47999  29.996   6.628  12.585
75575ION    CL-48000   3.744  41.796   1.856
75576ION    CL-48001  29.738   3.072  13.102
75577ION    CL-48002   3.724  18.081   4.536
75578ION    CL-48003  23.822  11.985   2.334
75579ION    CL-48004  32.445  20.687   2.931
75580ION    CL-48005   5.033  39.521   0.301
75581ION    CL-48006   4.338   0.265   4.691
75582ION    CL-48007   1.258  13.906  11.419
75583ION    CL-48008   0.321  18.674  11.603
75584ION    CL-48009  35.576  10.760   2.526
75585ION    CL-48010  21.074  30.358   3.987
75586ION    CL-48011  28.436  31.095  14.528
75587ION    CL-48012  19.608  17.373  11.221
75588ION    CL-48013  14.789  18.298  12.754
75589ION    CL-48014   5.123   6.675   2.833
75590ION    CL-48015  11.916  14.732  13.486
75591ION    CL-48016  19.681  17.033  14.539
75592ION    CL-48017  22.391  13.930  13.000
75593ION    CL-48018  40.325  10.714  14.351
75594ION    CL-48019   5.924   7.589   1.154
75595ION    CL-48020  27.978   6.813   2.641
75596ION    CL-48021   4.551  17.754  11.451
75597ION    CL-48022  32.821  24.462  13.300
75598ION    CL-48023  12.239  13.092  11.422
75599ION    CL-48024  43.046  19.179  13.313
75600ION    CL-48025  33.164  26.693   3.130
75601ION    CL-48026   8.627  12.302   3.162
75602ION    CL-48027  42.812  22.992  11.650
75603ION    CL-48028  21.802  22.144   2.375
75604ION    CL-48029  16.681  22.112   2.755
75605ION    CL-48030  17.103  31.521  12.911
75606ION    CL-48031  42.249   1.838  14.452
75607ION    CL-48032  33.420   9.842  11.671
75608ION    CL-48033  18.698  31.792  11.537
75609ION    CL-48034   1.703  14.687  12.602
75610ION    CL-48035  38.461  41.360  11.454
75611ION    CL-48036   5.725  21.960   1.954
75612ION    CL-48037  44.815  31.208  10.801
75613ION    CL-48038  23.393  15.774  10.694
75614ION    CL-48039  24.706  44.885  14.515
75615ION    CL-48040   4.952  23.826  12.958
75616ION    CL-48041  33.195  21.678  11.972
75617ION    CL-48042  30.803  11.616   0.340
75618ION    CL-48043   8.344   8.634   1.852
75619ION    CL-48044  37.835  42.601  14.996
75620ION    CL-48045  12.318  39.161  14.600
75621ION    CL-48046  32.309   0.739   0.063
75622ION    CL-48047  38.753  37.535  12.370
75623ION    CL-48048   7.172  25.520  11.610
75624ION    CL-48049   2.325   7.412  11.174
75625ION    CL-48050  31.041  43.800   1.019
75626ION    CL-48051  17.632  38.664  10.455
75627ION    CL-48052  18.009   5.076  13.363
75628ION    CL-48053  38.969  25.669  11.179
75629ION    CL-48054   9.366  42.724   5.242
75630ION    CL-48055  25.702  36.442  13.394
75631ION    CL-48056  36.473  26.379  11.763
75632ION    CL-48057  41.538  32.786  12.547
75633ION    CL-48058  18.294  43.908   2.613
75634ION    CL-48059   7.926  40.309   0.739
75635ION    CL-48060  15.995  22.232   3.750
75636ION    CL-48061   2.168  26.559  14.857
75637ION    CL-48062  30.849  12.186  13.555
75638ION    CL-48063  17.213  32.683   4.792
75639ION    CL-48064   9.262  40.246  13.498
75640ION    CL-48065  36.025  11.850   4.974
75641ION    CL-48066  20.529  33.078   1.882
75642ION    CL-48067  42.820  10.495   1.936
75643ION    CL-48068  44.465  44.571   0.388
75644ION    CL-48069  16.717  29.543   0.006
75645ION    CL-48070   0.608  23.797  14.774
75646ION    CL-48071  11.150  35.554   1.397
75647ION    CL-48072  21.301  31.161  11.903
75648ION    CL-48073  12.070   1.712   3.092
75649ION    CL-48074   9.911   8.853  12.972
75650ION    CL-48075  32.900  18.447  11.426
75651ION    CL-48076   5.898  17.707  14.137
75652ION    CL-48077  36.107  21.636   0.931
75653ION    CL-48078  30.782  15.569  12.583
75654ION    CL-48079  23.245  40.135   1.135
75655ION    CL-48080  41.929  37.328   4.991
75656ION    CL-48081  23.033  42.004   5.071
75657ION    CL-48082   6.791  17.343  13.871
75658ION    CL-48083  13.366   9.948   2.760
75659ION    CL-48084  31.989  35.833  12.696
75660ION    CL-48085   7.164  23.730   4.410
75661ION    CL-48086   0.019  28.008  14.768
75662ION    CL-48087  11.815  18.956  13.738
75663ION    CL-48088  21.374  17.312  12.399
75664ION    CL-48089  39.521  12.431   1.050
75665ION    CL-48090  27.913  23.188   0.122
75666ION    CL-48091  34.652  13.132   2.890
75667ION    CL-48092  21.779  14.517  14.773
75668ION    CL-48093  17.319  42.551   2.544
75669ION    CL-48094  13.619  44.451  12.370
75670ION    CL-48095  12.247  37.157  11.203
75671ION    CL-48096   9.911  33.610   4.637
75672ION    CL-48097  17.593   0.192  13.984
75673ION    CL-48098  14.286  34.448   4.587
75674ION    CL-48099  24.436  35.862  11.649
75675ION    CL-48100  15.324  26.073   2.260
75676ION    CL-48101   6.651  41.448   0.702
75677ION    CL-48102  16.114   0.679   2.214
75678ION    CL-48103  11.429  22.459   1.400
75679ION    CL-48104   5.434  17.343   2.956
75680ION    CL-48105  14.710  24.574  11.670
75681ION    CL-48106  31.151  41.983  11.573
75682ION    CL-48107   9.335  29.035   0.496
75683ION    CL-48108  39.904  24.633  13.897
75684ION    CL-48109   6.653   2.719   3.034
75685ION    CL-48110  39.685  39.718  12.325
75686ION    CL-48111   6.203  16.937   4.213
75687ION    CL-48112  21.530  25.241   1.452
75688ION    CL-48113  33.901   1.917  10.794
75689ION    CL-48114  30.031  19.423   3.917
75690ION    CL-48115  32.188  35.369   0.724
75691ION    CL-48116  17.353   7.292  14.550
75692ION    CL-48117   4.860  21.930   2.103
75693ION    CL-48118  11.448  42.355  13.945
75694ION    CL-48119  39.250  30.426   0.404
75695ION    CL-48120   6.101  44.285   1.205
75696ION    CL-48121  33.414  12.851  13.117
75697ION    CL-48122  19.280  24.092  13.275
75698ION    CL-48123  43.761  29.848  10.989
75699ION    CL-48124  21.024  17.027  14.631
75700ION    CL-48125   0.288   8.461  12.057
75701ION    CL-48126   0.714  42.726  11.197
75702ION    CL-48127   9.656   8.657   0.017
75703ION    CL-48128  27.897  39.375  12.972
75704ION    CL-48129   8.246  11.088  11.966
75705ION    CL-48130  25.578  16.989  14.749
75706ION    CL-48131   9.763  30.400  11.593
75707ION    CL-48132  21.103  15.467   3.773
75708ION    CL-48133   4.730  29.159  12.522
75709ION    CL-48134  17.295   6.871   3.702
75710ION    CL-48135  37.630  34.111   5.145
75711ION    CL-48136   2.376  43.466  14.302
75712ION    CL-48137   8.591  31.433  11.899
75713ION    CL-48138  44.451  13.171  11.393
75714ION    CL-48139  29.058  32.576  11.236
75715ION    CL-48140  28.839  42.672  13.108
75716ION    CL-48141   1.043  18.975  14.103
75717ION    CL-48142  34.403   2.083   4.898
75718ION    CL-48143   4.759   1.202  11.745
75719ION    CL-48144   6.945  31.621   2.882
75720ION    CL-48145  33.720  27.444   4.871
75721ION    CL-48146  30.832  37.399   1.842
75722ION    CL-48147  20.069  10.941  12.421
75723ION    CL-48148   6.418  33.463   5.339
75724ION    CL-48149  10.226  25.423  13.809
75725ION    CL-48150  35.461  21.751  13.194
75726ION    CL-48151  24.493  33.095  14.633
75727ION    CL-48152  30.268  36.574   1.830
75728ION    CL-48153  14.737  43.443  10.581
75729ION    CL-48154  17.530  34.535  14.434
75730ION    CL-48155  13.143  13.269  12.417
75731ION    CL-48156  41.743  25.368  11.433
75732ION    CL-48157   1.992   0.823  14.985
75733ION    CL-48158  24.640   6.740   3.300
75734ION    CL-48159  27.507  25.014   2.478
75735ION    CL-48160  33.911   1.771   0.801
75736ION    CL-48161  26.964  33.242  14.835
75737ION    CL-48162   1.499  37.888  12.450
75738ION    CL-48163  22.657  19.598   4.267
75739ION    CL-48164   2.510  34.545  11.090
75740ION    CL-48165  43.479  21.413  14.918
75741ION    CL-48166  16.826  39.990  12.111
75742ION    CL-48167  24.502  25.964  11.590
75743ION    CL-48168  36.818  24.482   9.842
75744ION    CL-48169  25.601   6.471  10.731
75745ION    CL-48170  28.786  37.426   3.042
75746ION    CL-48171  29.603   0.737   3.653
75747ION    CL-48172  14.259  12.627  11.979
75748ION    CL-48173   3.979  16.053   3.343
75749ION    CL-48174  42.335  35.592   3.382
75750ION    CL-48175  37.876  11.521  11.131
75751ION    CL-48176  28.682   4.254   2.778
75752ION    CL-48177   3.244   7.830   2.763
75753ION    CL-48178  44.588  41.060   2.595
75754ION    CL-48179  29.952  42.415  14.370
75755ION    CL-48180   7.372  14.878   3.958
75756ION    CL-48181  44.960  21.037  14.018
75757ION    CL-48182   2.263  33.321  10.689
75758ION    CL-48183  25.302  44.341  12.120
75759ION    CL-48184   3.008  33.322   1.805
75760ION    CL-48185  10.303   8.221   3.712
75761ION    CL-48186   5.659  10.846  14.885
75762ION    CL-48187  25.153  22.445   0.445
75763ION    CL-48188  16.764  38.241   2.407
75764ION    CL-48189   8.474  36.446  12.795
75765ION    CL-48190  27.533  24.487  12.445
75766ION    CL-48191   3.915  22.154   3.834
75767ION    CL-48192  35.179   8.391  10.654
75768ION    CL-48193  26.646   0.182  11.540
75769ION    CL-48194  33.213  11.563  14.888
75770ION    CL-48195  14.960  32.550   2.251
75771ION    CL-48196  33.250  20.114   2.779
75772ION    CL-48197  28.834  15.307  14.896
75773ION    CL-48198   6.440   6.410   3.349
75774ION    CL-48199  18.417  17.837  11.297
75775ION    CL-48200  41.938  40.223   1.443
75776ION    CL-48201  17.354  31.106   1.132
75777ION    CL-48202  38.885  34.047   2.302
75778ION    CL-48203   5.608   4.872   0.772
75779ION    CL-48204  31.974  10.088   2.954
75780ION    CL-48205  18.756   3.750  12.570
75781ION    CL-48206  10.193   7.778   4.838
75782ION    CL-48207   1.482  16.539   3.874
75783ION    CL-48208  20.238   2.519   5.113
75784ION    CL-48209  15.506  40.334  11.186
75785ION    CL-48210  42.512   2.947   0.454
75786ION    CL-48211  31.898  33.343   1.620
75787ION    CL-48212  29.971   0.005  13.936
75788ION    CL-48213  42.352   9.738   2.443
75789ION    CL-48214  37.768  41.615  12.035
75790ION    CL-48215  39.646   2.036   1.526
75791ION    CL-48216  28.436  27.554   1.498
75792ION    CL-48217  16.673  44.587   9.539
75793ION    CL-48218   3.753  44.821  11.389
75794ION    CL-48219  32.862  38.512   0.754
75795ION    CL-48220  11.660  18.195  12.878
75796ION    CL-48221  34.364  23.486   3.767
75797ION    CL-48222  16.749  16.318  12.816
75798ION    CL-48223  32.115  10.186   1.188
75799ION    CL-48224  35.094  21.353  12.138
75800ION    CL-48225  42.393  18.348  13.986
75801ION    CL-48226  14.519   5.102   4.155
75802ION    CL-48227   7.396  23.262   2.700
75803ION    CL-48228  37.802  17.136   4.248
75804ION    CL-48229   9.920   7.775   0.407
75805ION    CL-48230  20.733  32.988  12.325
75806ION    CL-48231  38.842  34.355   3.748
75807ION    CL-48232  15.494  24.594  14.675
75808ION    CL-48233   1.939   2.268  14.902
75809ION    CL-48234  26.261  17.842  10.436
75810ION    CL-48235  15.490  10.177   3.700
75811ION    CL-48236  16.614  27.788   5.101
75812ION    CL-48237  36.768   6.902  12.198
75813ION    CL-48238   5.801  34.809   4.396
75814ION    CL-48239  19.971   0.818   2.206
75815ION    CL-48240  36.855  26.967   3.980
75816ION    CL-48241   9.887  15.262   4.575
75817ION    CL-48242  16.869  22.953   1.343
75818ION    CL-48243   9.465  22.683  10.785
75819ION    CL-48244  15.882   1.435   5.520
75820ION    CL-48245  30.494  32.017  13.465
75821ION    CL-48246  19.731  38.839  12.175
75822ION    CL-48247   4.599  13.505   5.270
75823ION    CL-48248  15.813  16.264   2.561
75824ION    CL-48249  22.854  40.983  11.563
75825ION    CL-48250   8.543  34.932   2.128
75826ION    CL-48251  23.205  44.794  11.480
75827ION    CL-48252  15.744   2.228  11.861
75828ION    CL-48253  21.300   7.458  13.578
75829ION    CL-48254  39.374  20.212  11.836
75830ION    CL-48255  30.554  17.617  12.352
75831ION    CL-48256  21.436  28.322   0.345
75832ION    CL-48257  28.796   5.435   0.797
75833ION    CL-48258  22.886  22.883  10.944
75834ION    CL-48259  41.293  17.739  11.784
75835ION    CL-48260  31.365  42.810   3.803
75836ION    CL-48261  28.519  16.305   4.142
75837ION    CL-48262  34.489  35.142   1.256
75838ION    CL-48263  39.201  41.182   4.897
75839ION    CL-48264  25.041  42.501   0.960
75840ION    CL-48265  30.411   6.717   1.775
75841ION    CL-48266   4.507  31.778   1.783
75842ION    CL-48267  12.046  24.903   0.327
75843ION    CL-48268   4.437  36.258  11.592
75844ION    CL-48269  30.740  30.932  14.113
75845ION    CL-48270  40.674  27.490   0.204
75846ION    CL-48271  20.705  15.310   0.070
75847ION    CL-48272  10.121  13.324  12.391
75848ION    CL-48273  20.729  20.258   1.500
75849ION    CL-48274  21.450  12.300  12.513
75850ION    CL-48275  38.413  14.625   3.336
75851ION    CL-48276  19.597  32.230  11.518
75852ION    CL-48277  20.770   1.234   1.622
75853ION    CL-48278  11.633  18.522  14.620
75854ION    CL-48279  17.770  12.053   2.919
75855ION    CL-48280  11.922  24.791  10.760
75856ION    CL-48281  28.337  30.458   4.338
75857ION    CL-48282   1.012  25.199  13.038
75858ION    CL-48283  10.008  18.325  13.429
75859ION    CL-48284  12.143  32.617   2.232
75860ION    CL-48285  43.839  44.225  10.946
75861ION    CL-48286  35.805  18.426  10.667
75862ION    CL-48287  33.311  22.292   2.274
75863ION    CL-48288  23.090   9.688  12.610
75864ION    CL-48289  41.662  29.102   3.673
75865ION    CL-48290  41.946  36.839   2.199
75866ION    CL-48291  41.771  44.449  10.703
75867ION    CL-48292  23.041  14.754  10.645
75868ION    CL-48293  27.056  19.049  12.530
75869ION    CL-48294  17.488  32.231   3.149
75870ION    CL-48295  17.033   1.710  14.922
75871ION    CL-48296   3.758  16.969   0.246
75872ION    CL-48297  35.819   5.311   4.172
75873ION    CL-48298  37.872  32.946  14.555
75874ION    CL-48299  20.141  19.750   0.073
75875ION    CL-48300  23.696  32.880   3.715
75876ION    CL-48301  31.794  39.636  13.389
75877ION    CL-48302  10.232   0.250   2.032
75878ION    CL-48303  41.068  35.935  13.918
75879ION    CL-48304  30.952  16.686   0.353
75880ION    CL-48305  39.562  30.949   3.604
75881ION    CL-48306  11.078  40.649   3.808
75882ION    CL-48307  44.508  18.998   3.344
75883ION    CL-48308   6.241  20.100   4.653
75884ION    CL-48309  16.619  11.123  12.014
75885ION    CL-48310  44.217  25.351   2.017
75886ION    CL-48311  34.202  26.608   0.605
75887ION    CL-48312   7.339  22.983  14.884
75888ION    CL-48313  35.155  36.760  14.503
75889ION    CL-48314  32.572  22.213  13.512
75890ION    CL-48315  27.718  42.804  14.083
75891ION    CL-48316  43.379  43.586   1.214
75892ION    CL-48317   9.773  39.171  14.002
75893ION    CL-48318  26.555  39.129  11.815
75894ION    CL-48319  44.363   3.019   2.901
75895ION    CL-48320  11.755  38.395  14.913
75896ION    CL-48321  21.615  32.147  10.734
75897ION    CL-48322  44.288   7.251   0.429
75898ION    CL-48323  27.537  34.826  13.501
75899ION    CL-48324  39.184  17.926  14.609
75900ION    CL-48325  11.766  36.654  10.326
75901ION    CL-48326  30.509   2.705   4.901
75902ION    CL-48327  33.386  23.775  12.576
75903ION    CL-48328   7.731  35.271   2.277
75904ION    CL-48329  44.774  29.882  12.689
75905ION    CL-48330   4.308  23.031  13.427
75906ION    CL-48331  32.861  38.875   2.116
75907ION    CL-48332  38.868  12.776   5.234
75908ION    CL-48333  32.468  32.463   3.658
75909ION    CL-48334  13.872  26.140  12.954
75910ION    CL-48335  26.955  44.433  14.592
75911ION    CL-48336   2.643  22.561   0.775
75912ION    CL-48337   4.027  40.860   0.285
75913ION    CL-48338  19.178  29.575  13.468
75914ION    CL-48339  12.027  35.909  10.067
75915ION    CL-48340  42.579  12.752   4.132
75916ION    CL-48341  40.388  31.922   9.912
75917ION    CL-48342   9.802   9.353   1.276
75918ION    CL-48343  26.782  36.237   4.528
75919ION    CL-48344   6.301  14.744  11.547
75920ION    CL-48345  40.260  43.315   2.839
75921ION    CL-48346  11.839  34.868   2.312
75922ION    CL-48347   6.019   2.921  14.912
75923ION    CL-48348  28.005   2.994   0.064
75924ION    CL-48349   7.283  25.312   4.841
75925ION    CL-48350  18.441   3.570   1.987
75926ION    CL-48351  14.539  38.073   2.736
75927ION    CL-48352  17.260   5.055   2.069
75928ION    CL-48353  12.406  35.633   3.394
75929ION    CL-48354   6.897  20.202  11.137
75930ION    CL-48355   8.865  30.738   3.832
75931ION    CL-48356  14.303   1.768   2.946
75932ION    CL-48357   2.370  30.210   4.842
75933ION    CL-48358   9.501  22.067   4.177
75934ION    CL-48359  27.050  15.132  11.585
75935ION    CL-48360   7.325  16.772  14.912
75936ION    CL-48361  39.890  27.403  13.524
75937ION    CL-48362  37.632  34.095   4.144
75938ION    CL-48363   1.019  25.774   2.174
75939ION    CL-48364  44.803  11.685  13.292
75940ION    CL-48365  14.577  15.982   2.904
75941ION    CL-48366  11.530  12.298  12.159
75942ION    CL-48367   4.305   4.625  12.104
75943ION    CL-48368  36.087  36.653  12.340
75944ION    CL-48369  24.751   9.923   1.624
75945ION    CL-48370  31.948  42.805   0.535
75946ION    CL-48371   2.825  44.278   4.166
75947ION    CL-48372  31.761  37.030   2.138
75948ION    CL-48373  15.363  16.579   1.725
75949ION    CL-48374  40.085  39.395  11.008
75950ION    CL-48375   5.377  21.210  10.795
75951ION    CL-48376  40.332   7.901   1.646
75952ION    CL-48377  24.496  13.201   2.238
75953ION    CL-48378  27.633  37.341   0.938
75954ION    CL-48379  16.344  25.228   0.468
75955ION    CL-48380  30.929  37.927   2.686
75956ION    CL-48381   6.972  43.405   4.135
75957ION    CL-48382  37.978  43.036   9.799
75958ION    CL-48383  21.757   1.021  14.089
75959ION    CL-48384  28.387  43.166  12.300
75960ION    CL-48385  38.536   4.276   2.483
75961ION    CL-48386  10.655  35.276   0.077
75962ION    CL-48387  26.059   9.908   4.527
75963ION    CL-48388  28.832  29.118  14.426
75964ION    CL-48389  33.142   7.265   0.291
75965ION    CL-48390  20.943  43.939   1.853
75966ION    CL-48391  32.070  17.496   2.912
75967ION    CL-48392  32.218  20.432  11.421
75968ION    CL-48393  31.192   2.466   2.484
75969ION    CL-48394   6.776  42.245  11.446
75970ION    CL-48395  25.615  33.614  12.122
75971ION    CL-48396  18.084  44.274  10.585
75972ION    CL-48397   8.773  13.138  11.783
75973ION    CL-48398  15.782  41.097   0.807
75974ION    CL-48399  43.384  38.707   1.658
75975ION    CL-48400  13.835  38.009   0.491
75976ION    CL-48401   1.472  31.485  10.225
75977ION    CL-48402  33.742  21.012  12.914
75978ION    CL-48403  20.304   1.310   3.362
75979ION    CL-48404  43.108  28.499   4.050
75980ION    CL-48405  21.638  23.504  13.686
75981ION    CL-48406  26.438   8.919  14.713
75982ION    CL-48407  14.783  12.328   2.097
75983ION    CL-48408  19.093   6.533  13.835
75984ION    CL-48409  37.456  39.769  13.958
75985ION    CL-48410   3.105  42.600   1.924
75986ION    CL-48411  24.335  19.356  12.800
75987ION    CL-48412   5.342  35.008   1.830
75988ION    CL-48413  21.508  23.205  10.462
75989ION    CL-48414   8.472  22.640  12.780
75990ION    CL-48415  15.860  39.941  13.864
75991ION    CL-48416  15.592  35.526   0.945
75992ION    CL-48417  23.123  14.206   0.468
75993ION    CL-48418  11.711   3.471   4.968
75994ION    CL-48419  41.548  23.039  12.996
75995ION    CL-48420   3.604  31.723   1.793
75996ION    CL-48421  19.674  29.881   0.464
75997ION    CL-48422  15.760  17.729   3.145
75998ION    CL-48423  25.012  44.944  11.376
75999ION    CL-48424  12.951  21.435  11.421
76000ION    CL-48425  13.320   5.466  11.390
76001ION    CL-48426  35.414  26.197  11.205
76002ION    CL-48427  18.158  14.878  14.250
76003ION    CL-48428  23.224  12.515  13.592
76004ION    CL-48429  33.975  18.538  12.721
76005ION    CL-48430  11.596  24.641  11.697
76006ION    CL-48431  29.971  23.317  14.838
76007ION    CL-48432  35.593  12.915  11.488
76008ION    CL-48433  40.180   0.510   3.249
76009ION    CL-48434  25.613  30.165   0.347
76010ION    CL-48435  35.858   0.622  12.801
76011ION    CL-48436   8.959  24.228   2.676
76012ION    CL-48437  35.484  15.197   2.592
76013ION    CL-48438  11.662  25.274  13.660
76014ION    CL-48439  23.371   0.110   2.697
76015ION    CL-48440   4.149  36.444   2.333
76016ION    CL-48441  19.583  30.366   4.421
76017ION    CL-48442  21.130   8.235  10.704
76018ION    CL-48443  13.920  32.661   2.938
76019ION    CL-48444  14.958   8.111   3.130
76020ION    CL-48445  38.885  37.379  13.350
76021ION    CL-48446  41.406  28.624   0.421
76022ION    CL-48447   8.796  22.527  13.719
76023ION    CL-48448  19.996  33.522  11.912
76024ION    CL-48449  31.441   7.440   0.317
76025ION    CL-48450  20.753   9.819   3.684
76026ION    CL-48451  23.305  42.343  13.238
76027ION    CL-48452   2.561   4.314   4.185
76028ION    CL-48453  31.921  22.983   2.186
76029ION    CL-48454  20.622  31.143   4.846
76030ION    CL-48455  11.365  23.702  11.954
76031ION    CL-48456   8.591  12.896  14.867
76032ION    CL-48457  41.036   9.146  10.766
76033ION    CL-48458  29.892  30.451   0.895
76034ION    CL-48459   2.868  26.106   4.498
76035ION    CL-48460   4.760  19.272  14.797
76036ION    CL-48461  13.214  17.200  13.387
76037ION    CL-48462  38.907  43.105   4.664
76038ION    CL-48463  26.201   7.324  10.724
76039ION    CL-48464  16.637  14.168   1.765
76040ION    CL-48465  42.791  31.224  14.947
76041ION    CL-48466  43.454  44.535  13.488
76042ION    CL-48467  12.582  42.454   2.161
76043ION    CL-48468  26.334   6.072   1.556
76044ION    CL-48469  19.364  23.903  11.471
76045ION    CL-48470  27.703  31.465  12.891
76046ION    CL-48471  29.980  43.308  11.940
76047ION    CL-48472  19.299   3.785   1.780
76048ION    CL-48473  27.190  43.024  14.965
76049ION    CL-48474  41.471   7.160   2.735
76050ION    CL-48475  35.975  12.357   0.899
76051ION    CL-48476  36.247  25.924   3.269
76052ION    CL-48477  13.102  32.974   1.934
76053ION    CL-48478  22.788  17.223  13.230
76054ION    CL-48479  38.416   4.778   0.985
76055ION    CL-48480  42.984  44.123   4.657
76056ION    CL-48481  14.968  30.752  10.968
76057ION    CL-48482  27.006  38.252   3.636
76058ION    CL-48483  28.230  32.875   3.710
76059ION    CL-48484  28.891   4.227   0.726
76060ION    CL-48485  32.447  28.591  11.172
76061ION    CL-48486  36.999  41.906   3.709
76062ION    CL-48487  43.733  27.401  14.008
76063ION    CL-48488  30.411  30.388  11.516
76064ION    CL-48489  29.540  36.436  11.876
76065ION    CL-48490  19.130   3.159  11.856
76066ION    CL-48491  23.517  16.602   0.517
76067ION    CL-48492  10.774  31.074  10.817
76068ION    CL-48493  30.059  24.513   0.791
76069ION    CL-48494   7.203   3.437   2.304
76070ION    CL-48495  10.313  13.033   2.665
76071ION    CL-48496   0.195  15.851   4.380
76072ION    CL-48497   2.440  43.847  13.023
76073ION    CL-48498  19.589  14.708   3.260
76074ION    CL-48499  28.450   2.562  11.902
76075ION    CL-48500  15.297  26.185   0.985
76076ION    CL-48501   3.892  25.590   0.316
76077ION    CL-48502  33.310  27.160  10.955
76078ION    CL-48503  32.380   2.860  11.811
76079ION    CL-48504  15.018  27.108  12.515
76080ION    CL-48505   6.651  22.405  13.451
76081ION    CL-48506  26.660  43.791  11.224
76082ION    CL-48507  35.950   7.856  12.299
76083ION    CL-48508  34.352  44.512   2.242
76084ION    CL-48509  10.630  19.403   2.393
76085ION    CL-48510   0.751   4.459  12.217
76086ION    CL-48511   5.293  10.971  10.974
76087ION    CL-48512  33.652  40.723   4.173
76088ION    CL-48513  27.527  34.824   3.076
76089ION    CL-48514  30.968  38.463   1.408
76090ION    CL-48515  18.969   5.530  13.738
76091ION    CL-48516  37.869  36.442   2.709
76092ION    CL-48517  37.048   2.513   3.959
76093ION    CL-48518  18.428  36.212   4.287
76094ION    CL-48519  28.161  41.916   1.147
76095ION    CL-48520   9.896  19.616  10.373
76096ION    CL-48521   2.386  25.476  10.262
76097ION    CL-48522  41.156  26.684   2.672
76098ION    CL-48523  44.223  20.026   4.926
76099ION    CL-48524  28.104  17.627  11.662
76100ION    CL-48525   0.987   5.774   1.464
76101ION    CL-48526  28.250  10.640   1.371
76102ION    CL-48527  26.391  33.117   3.531
76103ION    CL-48528  13.215  42.505  14.484
76104ION    CL-48529  33.663  17.192   3.469
76105ION    CL-48530  20.593  18.493   1.840
76106ION    CL-48531  32.144  15.722   3.892
76107ION    CL-48532  27.630   1.610   4.053
76108ION    CL-48533  21.696  13.105  10.630
76109ION    CL-48534  33.183   8.474  13.577
76110ION    CL-48535   8.152  38.128   3.740
76111ION    CL-48536  33.100  12.683   0.011
76112ION    CL-48537   4.451  35.668   0.574
76113ION    CL-48538  18.415   5.398  14.560
76114ION    CL-48539  21.261  30.380  12.313
76115ION    CL-48540  14.417  32.603  14.788
76116ION    CL-48541  32.863  25.001  11.181
76117ION    CL-48542   9.408  16.513   0.921
76118ION    CL-48543  20.794  16.119  10.720
76119ION    CL-48544   5.601  44.498   4.571
76120ION    CL-48545   1.612   6.488   1.148
76121ION    CL-48546  23.197   6.226   4.104
76122ION    CL-48547  19.199  38.856   2.880
76123ION    CL-48548  16.768  14.959   1.168
76124ION    CL-48549  41.020  18.595  14.839
76125ION    CL-48550   3.143  17.578   0.949
76126ION    CL-48551  11.744  34.025   3.412
76127ION    CL-48552  20.154   5.465  12.956
76128ION    CL-48553  24.064  44.756  13.377
76129ION    CL-48554   8.400   7.218  12.834
76130ION    CL-48555   3.726  32.856   0.291
76131ION    CL-48556   5.398  27.522  13.045
76132ION    CL-48557   0.906   7.126  11.658
76133ION    CL-48558  29.542  42.764   0.479
76134ION    CL-48559  21.180  34.761  12.347
76135ION    CL-48560  39.266  14.296   0.068
76136ION    CL-48561   8.827  36.040  14.216
76137ION    CL-48562   1.999  38.859   0.743
76138ION    CL-48563  42.247  42.080   3.853
76139ION    CL-48564   8.850  30.907  10.753
76140ION    CL-48565  26.800   8.220  13.016
76141ION    CL-48566  14.629  13.294  13.484
76142ION    CL-48567  35.293   1.986   1.364
76143ION    CL-48568  27.574  33.003   2.000
76144ION    CL-48569  28.632  14.948  13.189
76145ION    CL-48570  15.329  33.815  14.825
76146ION    CL-48571  33.021  40.048   0.231
76147ION    CL-48572  18.538  34.936   0.931
76148ION    CL-48573  10.564  34.284  12.304
76149ION    CL-48574  13.327  39.100   2.865
76150ION    CL-48575   9.914   6.930  11.999
76151ION    CL-48576  37.942  35.224  14.296
76152ION    CL-48577  21.100   8.420   3.310
76153ION    CL-48578  11.981  30.259   9.654
76154ION    CL-48579  42.803   9.115  14.194
76155ION    CL-48580  33.548  24.896   4.973
76156ION    CL-48581   2.326  44.591  12.373
76157ION    CL-48582  39.501  41.468  13.979
76158ION    CL-48583   2.263  12.408  11.599
76159ION    CL-48584  12.317  32.386  11.995
76160ION    CL-48585  31.366  23.699  13.284
76161ION    CL-48586  16.789  23.709  13.548
76162ION    CL-48587   1.886  36.978   5.023
76163ION    CL-48588  40.860  41.422  13.769
76164ION    CL-48589  39.997  14.257  12.797
76165ION    CL-48590   4.722  23.581   0.460
76166ION    CL-48591  14.449  42.435  14.076
76167ION    CL-48592  44.290   6.190  13.567
76168ION    CL-48593  39.780  21.967   1.057
76169ION    CL-48594   1.018   7.113   4.100
76170ION    CL-48595  40.767  38.827   1.726
76171ION    CL-48596  16.665  18.167  11.278
76172ION    CL-48597   9.247  13.213  13.316
76173ION    CL-48598  37.050  29.665   2.145
76174ION    CL-48599   4.528  12.088  12.888
76175ION    CL-48600  17.247  39.133   4.265
76176ION    CL-48601  34.446  43.510   0.738
76177ION    CL-48602  19.707  16.836  10.383
76178ION    CL-48603  24.264   7.125   1.696
76179ION    CL-48604   0.929  23.524   0.681
76180ION    CL-48605  22.303  44.040  12.779
76181ION    CL-48606  20.886  11.538  11.320
76182ION    CL-48607  39.779  43.764   0.169
76183ION    CL-48608  42.437  34.867   2.699
76184ION    CL-48609   3.235  18.840  12.852
76185ION    CL-48610  44.053  37.822  10.618
76186ION    CL-48611  23.039  15.516  11.601
76187ION    CL-48612  39.886  18.285  12.564
76188ION    CL-48613  42.354  30.705   3.332
76189ION    CL-48614   7.332  14.068  14.900
76190ION    CL-48615  34.990  44.090  11.221
76191ION    CL-48616  17.631  18.097   2.073
76192ION    CL-48617  37.538  40.511  10.628
76193ION    CL-48618  35.898  32.432   4.510
76194ION    CL-48619  16.719  20.546  10.614
76195ION    CL-48620  27.034   8.879   4.939
76196ION    CL-48621  10.890   6.812  12.180
76197ION    CL-48622  19.839  31.076  13.972
76198ION    CL-48623  37.957  18.589   2.629
76199ION    CL-48624  33.629  15.854   2.142
76200ION    CL-48625  13.126  21.572   4.355
76201ION    CL-48626  13.358  21.386   5.394
76202ION    CL-48627  40.593  21.663  12.514
76203ION    CL-48628   0.342  37.657   0.857
76204ION    CL-48629  40.319  44.621   9.955
76205ION    CL-48630  29.675   4.790  12.608
76206ION    CL-48631  27.231  40.548   1.424
76207ION    CL-48632   0.633  33.602  11.402
76208ION    CL-48633   0.283   9.398   2.843
76209ION    CL-48634  10.025  32.054   3.836
76210ION    CL-48635  39.534  15.687   2.880
76211ION    CL-48636  40.702  38.013   1.484
76212ION    CL-48637  19.228  22.719   3.707
76213ION    CL-48638  19.089  21.492   2.325
76214ION    CL-48639  18.989  30.683  13.605
76215ION    CL-48640  14.837  15.440   2.216
76216ION    CL-48641   8.423  26.611  12.038
76217ION    CL-48642  34.408  12.808  13.429
76218ION    CL-48643  18.143   2.829  13.978
76219ION    CL-48644  11.195   5.202   0.291
76220ION    CL-48645  30.133  39.679   0.856
76221ION    CL-48646  37.722  36.614  13.849
76222ION    CL-48647  20.718  24.986   0.664
76223ION    CL-48648  15.183   4.756   0.278
76224ION    CL-48649  26.607  26.603   9.863
76225ION    CL-48650  17.726   9.292  11.565
76226ION    CL-48651  18.833  25.520   1.077
76227ION    CL-48652  11.547  31.766   2.551
76228ION    CL-48653  10.235   7.224   3.763
76229ION    CL-48654  18.136  14.603   0.211
76230ION    CL-48655  24.645  35.618   5.189
76231ION    CL-48656   1.889  28.664  14.306
76232ION    CL-48657   5.389  11.955  11.151
76233ION    CL-48658  26.115  23.824   0.788
76234ION    CL-48659   1.681  10.191  11.529
76235ION    CL-48660   1.844  16.300   2.667
76236ION    CL-48661   4.847  13.174   4.937
76237ION    CL-48662  21.710  17.593   1.514
76238ION    CL-48663  13.626  31.651   3.661
76239ION    CL-48664  13.314   1.577  12.109
76240ION    CL-48665  20.140  11.626  10.804
76241ION    CL-48666  33.720  39.869  12.831
76242ION    CL-48667  24.169  14.973   4.180
76243ION    CL-48668  11.561  33.321   9.885
76244ION    CL-48669  35.992  33.474  12.196
76245ION    CL-48670  31.234  36.874  11.824
76246ION    CL-48671   6.866  11.197  11.527
76247ION    CL-48672  31.292  12.249   2.153
76248ION    CL-48673  34.103   7.753  11.155
76249ION    CL-48674  41.409  40.625   0.696
76250ION    CL-48675  32.562  13.358  12.984
76251ION    CL-48676  32.352  21.140  11.961
76252ION    CL-48677  34.870  14.866   0.303
76253ION    CL-48678  14.255  14.243  10.763
76254ION    CL-48679   4.470   2.215  10.692
76255ION    CL-48680   6.319   1.256   3.272
76256ION    CL-48681  12.127  38.445   0.840
76257ION    CL-48682  19.699  31.348   3.212
76258ION    CL-48683  30.562  25.985   2.743
76259ION    CL-48684  36.884  44.661  12.497
76260ION    CL-48685   0.392   4.232   0.418
76261ION    CL-48686  26.562  13.989   4.833
76262ION    CL-48687  21.148  35.579  13.041
76263ION    CL-48688   4.875  32.054  14.377
76264ION    CL-48689  21.188   5.788  13.906
76265ION    CL-48690  34.558  12.146  11.267
76266ION    CL-48691  36.013   1.563  14.426
76267ION    CL-48692  13.070   5.446  14.253
76268ION    CL-48693  32.908  21.252  14.485
76269ION    CL-48694  33.084  31.312   1.666
76270ION    CL-48695  38.301  33.250   5.052
76271ION    CL-48696  34.449  22.192  14.520
76272ION    CL-48697  42.234   6.909  11.497
76273ION    CL-48698  15.668  26.069  12.891
76274ION    CL-48699  24.480  43.838  11.121
76275ION    CL-48700   6.698  36.021   2.856
76276ION    CL-48701  27.473   9.040   2.119
76277ION    CL-48702  23.469  29.181   0.326
76278ION    CL-48703  24.395  44.211  12.594
76279ION    CL-48704  33.936   6.768  11.130
76280ION    CL-48705   4.055  21.463   0.809
76281ION    CL-48706   0.507  15.813  11.763
76282ION    CL-48707   1.734  41.394  13.603
76283ION    CL-48708  22.495  10.885   5.052
76284ION    CL-48709  28.939   1.764  11.550
76285ION    CL-48710  34.532   4.932  11.886
76286ION    CL-48711  38.599  39.946   2.262
76287ION    CL-48712   2.502  34.144   0.383
76288ION    CL-48713  31.073   8.774   0.988
76289ION    CL-48714   8.173   3.017   0.478
76290ION    CL-48715  39.050   5.906  14.407
76291ION    CL-48716  33.014  35.044  12.733
76292ION    CL-48717  18.998  39.013  11.481
76293ION    CL-48718  41.317   2.265  14.043
76294ION    CL-48719  22.967  11.605  13.015
76295ION    CL-48720   5.293  30.624   3.180
76296ION    CL-48721  18.051  40.563   0.810
76297ION    CL-48722  43.876  19.275   1.679
76298ION    CL-48723   5.348  41.865  13.007
76299ION    CL-48724   8.268  42.029  11.950
76300ION    CL-48725  18.880  24.574   0.434
76301ION    CL-48726  23.595   3.399   0.351
76302ION    CL-48727  31.904  12.914  13.947
76303ION    CL-48728  25.748  26.233   0.494
76304ION    CL-48729  21.457   7.756   9.888
76305ION    CL-48730  10.010  41.991  10.326
76306ION    CL-48731  32.102   8.956  14.996
76307ION    CL-48732  31.458  13.830   1.921
76308ION    CL-48733  42.798  38.474   0.454
76309ION    CL-48734  38.023  22.748   4.023
76310ION    CL-48735  29.467  34.258   1.331
76311ION    CL-48736  12.090  27.191  11.018
76312ION    CL-48737  33.293  21.118   3.854
76313ION    CL-48738  11.745  41.384  11.579
76314ION    CL-48739   7.579  21.288   2.366
76315ION    CL-48740  17.732  43.676   1.220
76316ION    CL-48741  36.493  19.396   4.237
76317ION    CL-48742   0.199  36.800   0.361
76318ION    CL-48743  17.148  43.612   2.530
76319ION    CL-48744   5.042   4.412  13.662
76320ION    CL-48745  13.123  12.678  11.179
76321ION    CL-48746  14.125  18.781   3.220
76322ION    CL-48747  19.536  24.697  12.128
76323ION    CL-48748  32.826  19.566  11.464
76324ION    CL-48749  24.960  16.653  11.639
76325ION    CL-48750   1.387   3.607   2.758
76326ION    CL-48751   0.081  28.203   1.778
76327ION    CL-48752  28.429  40.761   3.372
76328ION    CL-48753  43.650  27.874   2.988
76329ION    CL-48754  41.276  25.330  14.376
76330ION    CL-48755  30.396  23.856  10.823
76331ION    CL-48756  19.605  38.095  12.964
76332ION    CL-48757  23.766   4.277   9.984
76333ION    CL-48758  23.237  21.868   2.739
76334ION    CL-48759  36.664  35.369   4.819
76335ION    CL-48760  43.037  16.998   1.311
76336ION    CL-48761  11.181  27.253  13.580
76337ION    CL-48762  35.858  23.529  13.587
76338ION    CL-48763  23.827  42.612   3.832
76339ION    CL-48764  36.155   1.528  13.104
76340ION    CL-48765  24.255  41.808   2.267
76341ION    CL-48766  31.141  39.102  13.699
76342ION    CL-48767  16.364  25.236   1.815
76343ION    CL-48768  19.253  17.282  12.316
76344ION    CL-48769  15.018  12.218  11.472
76345ION    CL-48770  35.369  39.405   0.270
76346ION    CL-48771  27.117  37.447   3.243
76347ION    CL-48772  32.136  12.131  13.331
76348ION    CL-48773   9.409  29.335   3.674
76349ION    CL-48774  43.809  23.889  14.924
76350ION    CL-48775   7.161   6.768  11.071
76351ION    CL-48776  44.212   1.565   3.747
  45.00000  45.00000  15.00000
